/*--------------------------------*- C++ -*----------------------------------*\
| =========                 |                                                 |
| \\      /  F ield         | OpenFOAM: The Open Source CFD Toolbox           |
|  \\    /   O peration     | Version:  2106                                  |
|   \\  /    A nd           | Website:  www.openfoam.com                      |
|    \\/     M anipulation  |                                                 |
\*---------------------------------------------------------------------------*/
FoamFile
{
    version     2.0;
    format      ascii;
    arch        "LSB;label=32;scalar=64";
    class       volTensorField;
    location    "10030";
    object      grad(U);
}
// * * * * * * * * * * * * * * * * * * * * * * * * * * * * * * * * * * * * * //

dimensions      [0 0 -1 0 0 0 0];

internalField   nonuniform List<tensor> 
2000
(
(0 -5.30366e-26 -2.12843e-27 10.5585 -1.11865e-11 -7.98053e-41 0.0195418 -1.03533e-14 2.46519e-32)
(0 -8.13036e-30 -1.27037e-31 10.5585 -1.02827e-15 3.49334e-14 0.0195418 -7.11591e-18 1.56212e-17)
(0 0 1.99534e-31 10.5566 8.07794e-28 1.4434e-14 0.0589829 0 -1.14951e-16)
(0 -2.24165e-28 -3.82427e-27 10.5566 0 4.69628e-15 0.0589829 0 1.77067e-17)
(-2.40482e-18 -2.88635e-30 0 10.5546 1.03316e-12 4.22867e-30 0.0818243 -9.73107e-15 4.50785e-48)
(0 1.25362e-29 7.95754e-32 10.5546 -1.13273e-15 2.31575e-15 0.0818243 -4.29677e-19 1.78716e-17)
(-7.87272e-18 -2.4806e-30 -3.62323e-32 10.5527 5.07825e-13 3.29299e-15 0.083336 -6.10789e-15 -2.64133e-17)
(3.14909e-17 1.23065e-29 1.70717e-31 10.5527 -1.2346e-16 2.30547e-15 0.083336 -2.10758e-19 1.82116e-17)
(-2.65663e-17 1.2081e-29 8.25846e-32 10.5507 8.46774e-14 2.93361e-15 0.0848756 -1.79961e-15 -2.51091e-17)
(0 0 -4.71912e-32 10.5507 -1.80475e-16 2.30625e-15 0.0848756 -7.71363e-20 1.85576e-17)
(0 3.55787e-29 1.50561e-31 10.5487 -4.10364e-14 2.65264e-15 0.0864434 -1.93158e-16 -2.1626e-17)
(-7.6454e-17 -3.55787e-29 -2.30484e-31 10.5487 -2.38719e-16 2.30637e-15 0.0864434 -2.14184e-20 1.88997e-17)
(5.12031e-17 -5.5451e-28 -3.41081e-32 10.5466 -4.91216e-15 2.6388e-15 0.08804 -2.0315e-17 -2.14499e-17)
(9.95606e-17 1.74634e-29 1.62197e-31 10.5466 -2.8906e-16 2.30581e-15 0.08804 -2.44095e-20 1.92475e-17)
(0 -2.89247e-29 0 10.5446 1.06406e-27 2.68768e-15 0.0896659 6.31089e-30 -2.22097e-17)
(2.46188e-16 5.71445e-30 1.9293e-31 10.5446 -3.27972e-16 2.30474e-15 0.0896659 -1.76477e-19 1.95938e-17)
(-3.67655e-17 4.48058e-30 9.21177e-33 10.5425 3.98052e-16 2.74461e-15 0.0913217 -5.75562e-18 -2.30896e-17)
(0 5.60974e-30 4.38261e-32 10.5425 -3.699e-16 2.30189e-15 0.0913217 -3.39122e-19 1.99234e-17)
(4.84396e-17 -1.65208e-29 -2.15115e-32 10.5404 3.36114e-17 2.80722e-15 0.0930078 -1.03365e-18 -4.02071e-17)
(-4.84396e-17 1.65208e-29 6.45345e-32 10.5404 -4.50975e-16 2.29646e-15 0.0930078 -5.90535e-19 2.02362e-17)
(1.90208e-16 -4.48139e-30 -1.90056e-31 10.5383 1.00633e-27 2.87642e-15 0.0947247 0 -6.94598e-17)
(-9.51039e-17 4.32482e-29 2.74525e-31 10.5383 -5.20515e-16 2.29132e-15 0.0947247 -1.11122e-18 2.05818e-17)
(5.54139e-17 6.13277e-30 6.2191e-32 10.5362 2.61568e-16 2.95125e-15 0.0964732 -1.39222e-18 -7.37804e-17)
(2.21656e-16 0 3.3861e-32 10.5362 -5.32278e-16 2.28604e-15 0.0964732 -1.67814e-18 2.09021e-17)
(0 0 0 10.534 4.66074e-16 3.0303e-15 0.0982536 -3.37233e-18 -6.78526e-17)
(0 0 0 10.534 -6.27221e-16 2.27805e-15 0.0982536 -2.31787e-18 2.12083e-17)
(-1.58398e-16 4.53944e-29 1.5982e-31 10.5318 6.51063e-16 3.11246e-15 0.100067 -5.26004e-18 -6.15318e-17)
(0 -3.57997e-29 -1.79798e-31 10.5318 -7.76354e-16 2.26865e-15 0.100067 -3.31599e-18 2.15111e-17)
(-1.63437e-16 1.95416e-29 3.92229e-32 10.5295 7.29826e-16 3.19716e-15 0.101913 -7.01509e-18 -5.48016e-17)
(-8.83221e-17 -5.02053e-30 -3.92229e-32 10.5295 -8.25715e-16 2.25577e-15 0.101913 -4.54982e-18 2.17581e-17)
(1.68629e-16 -1.92654e-29 0 10.5273 7.24388e-16 3.28355e-15 0.103792 -6.98307e-18 -4.76319e-17)
(-3.27701e-16 1.47856e-29 -2.95069e-32 10.5273 -8.81055e-16 2.24116e-15 0.103792 -5.79876e-18 2.20335e-17)
(8.51149e-17 -4.83822e-30 -3.77986e-32 10.525 8.3475e-16 3.37077e-15 0.105707 -7.1722e-18 -3.99959e-17)
(0 9.67644e-30 7.55972e-32 10.525 -9.80215e-16 2.22665e-15 0.105707 -7.35822e-18 2.22864e-17)
(1.91852e-16 -4.22052e-29 -1.8553e-31 10.5226 1.01631e-15 3.459e-15 0.107655 -9.46327e-18 -3.18876e-17)
(3.83704e-16 2.84974e-29 2.97001e-31 10.5226 -1.03677e-15 2.21191e-15 0.107655 -8.97728e-18 2.25622e-17)
(-1.03121e-16 1.38037e-29 3.6426e-32 10.5202 1.17107e-15 3.54819e-15 0.10964 -1.11578e-17 -2.32769e-17)
(0 0 -3.6426e-32 10.5202 -1.12287e-15 2.19293e-15 0.10964 -1.05507e-17 2.27306e-17)
(2.7149e-16 -1.36323e-29 -3.57585e-32 10.5178 1.35455e-15 3.63821e-15 0.11166 -1.3046e-17 -1.41466e-17)
(2.8075e-16 1.37313e-29 1.87737e-31 10.5178 -1.1973e-15 2.17229e-15 0.11166 -1.26668e-17 2.29741e-17)
(-1.17911e-16 8.97065e-30 0 10.5153 1.50465e-15 3.729e-15 0.113718 -1.54746e-17 -4.46952e-18)
(9.43284e-16 -4.49321e-30 2.37005e-31 10.5153 -1.2238e-15 2.15092e-15 0.113718 -1.45203e-17 2.31249e-17)
(0 8.82175e-30 6.89199e-32 10.5128 1.64288e-15 3.82004e-15 0.115812 -1.67844e-17 5.77667e-18)
(5.02043e-16 0 5.17689e-32 10.5128 -1.4119e-15 2.12499e-15 0.115812 -1.64516e-17 2.32684e-17)
(1.5235e-16 -8.6601e-30 0 10.5102 1.80979e-15 3.9113e-15 0.117945 -1.91037e-17 1.66142e-17)
(5.33003e-16 8.6601e-30 1.90412e-31 10.5102 -1.62496e-15 2.09959e-15 0.117945 -1.96642e-17 2.34262e-17)
(0 1.70028e-29 6.64172e-32 10.5076 1.9594e-15 4.00257e-15 0.120116 -2.11634e-17 2.80733e-17)
(5.64534e-16 -8.5014e-30 1.24768e-31 10.5076 -1.7435e-15 2.07069e-15 0.120116 -2.32338e-17 2.34843e-17)
(-2.34382e-18 -3.87104e-30 -6.52001e-32 10.5049 2.09286e-15 4.09405e-15 0.122327 -2.32445e-17 4.01608e-17)
(-1.46818e-16 1.25184e-29 1.304e-31 10.5049 -1.82588e-15 2.03835e-15 0.122327 -2.71648e-17 2.35558e-17)
(0 -2.45781e-29 -6.40054e-32 10.5021 2.11183e-15 4.18588e-15 0.124577 -2.50697e-17 5.29125e-17)
(6.29349e-16 2.45781e-29 1.92362e-31 10.5021 -1.89979e-15 2.00785e-15 0.124577 -3.14372e-17 2.36454e-17)
(4.00281e-16 -3.5693e-30 0 10.4993 2.0784e-15 2.91811e-15 0.126868 -2.45703e-17 6.63523e-17)
(-2.82972e-16 1.20638e-29 6.28325e-32 10.4993 -1.99901e-15 1.97416e-15 0.126868 -3.57066e-17 2.36292e-17)
(-1.74143e-16 5.25075e-31 0 10.4964 2.26599e-15 -1.21436e-14 0.1292 -2.52064e-17 7.22768e-17)
(0 1.18428e-29 0 10.4964 -1.99277e-15 1.93234e-15 0.1292 -4.02843e-17 2.35067e-17)
(0 1.16258e-29 6.05508e-32 10.4934 2.6526e-15 -2.63166e-14 0.131574 -3.01148e-17 -6.13719e-18)
(0 -3.87525e-30 0 10.4934 -2.15727e-15 1.89396e-15 0.131574 -4.44094e-17 2.35569e-17)
(-4.59273e-16 4.63163e-29 3.26927e-31 10.4904 3.06872e-15 -2.7165e-14 0.133991 -3.5853e-17 -8.84902e-17)
(-7.66293e-16 -3.42382e-29 -5.32123e-31 10.4904 -2.33607e-15 1.25074e-15 0.133991 -4.98593e-17 7.95884e-18)
(2.00529e-16 -4.46789e-30 0 10.4872 3.23164e-15 -2.8027e-14 0.136451 -4.18811e-17 -1.74889e-16)
(5.39323e-16 0 1.18612e-31 10.4872 -2.22943e-15 5.53749e-16 0.136451 -5.56204e-17 6.30453e-18)
(0 1.09983e-29 1.50367e-31 10.484 3.19454e-15 -2.89071e-14 0.138954 -4.14441e-17 -2.65559e-16)
(0 -3.66609e-30 -5.72827e-32 10.484 -2.29474e-15 4.16206e-16 0.138954 -6.09004e-17 4.6122e-18)
(-2.18938e-16 2.60595e-29 3.09282e-31 10.4807 3.38944e-15 -2.9791e-14 0.141503 -4.24758e-17 -3.60626e-16)
(0 -2.15935e-29 -3.09282e-31 10.4807 -2.64861e-15 2.80051e-16 0.141503 -6.71732e-17 2.86501e-18)
(-2.28397e-16 -2.60186e-30 -7.83697e-32 10.4773 3.59105e-15 -3.0684e-14 0.144096 -4.82694e-17 -4.28269e-16)
(0 2.11978e-29 2.76013e-31 10.4773 -2.80143e-15 1.44937e-16 0.144096 -7.52456e-17 1.06887e-18)
(2.44055e-16 -2.77458e-29 -7.04483e-31 10.4738 3.76764e-15 -3.15881e-14 0.146736 -4.96229e-17 -4.48979e-16)
(7.08063e-16 2.77458e-29 0 10.4738 -2.82662e-15 -3.85186e-34 0.146736 -8.29093e-17 1.51907e-46)
(0 1.36187e-29 3.19188e-31 10.4701 4.10746e-15 -3.24959e-14 0.149422 -5.50371e-17 -4.7032e-16)
(0 0 -2.8944e-31 10.4701 -3.05403e-15 -1.42256e-16 0.149422 -9.17315e-17 1.00588e-18)
(2.57827e-16 2.22626e-30 6.34812e-32 10.4663 4.27079e-15 -3.34183e-14 0.152155 -6.11939e-17 -4.92722e-16)
(7.96117e-16 -6.68456e-30 -5.77364e-32 10.4663 -3.14372e-15 -2.9498e-16 0.152155 -1.0197e-16 3.10299e-18)
(-2.67999e-16 -2.17915e-29 -7.65938e-31 10.4624 4.16958e-15 -3.43588e-14 0.154936 -6.18607e-17 -5.15902e-16)
(1.072e-15 3.28103e-29 1.07191e-30 10.4624 -3.19392e-15 -4.44697e-16 0.154936 -1.11014e-16 5.41727e-18)
(-2.78357e-16 -2.13113e-29 -7.36929e-31 10.4583 4.19007e-15 -3.5313e-14 0.157766 -6.05014e-17 -5.40084e-16)
(0 3.22091e-29 9.05881e-31 10.4583 -3.26222e-15 -5.95433e-16 0.157766 -1.2175e-16 7.65502e-18)
(0 3.79427e-29 1.38333e-30 10.4541 4.59479e-15 -3.6278e-14 0.160644 -6.48102e-17 -5.65006e-16)
(1.15562e-15 -3.79427e-29 -1.23923e-30 10.4541 -3.33876e-15 -7.47566e-16 0.160644 -1.31063e-16 1.01701e-17)
(-1.03613e-15 2.13184e-29 5.84733e-31 10.4497 4.95844e-15 -3.72435e-14 0.163572 -7.52222e-17 -5.90669e-16)
(1.19858e-15 0 -5.30029e-32 10.4497 -3.7494e-15 -8.97171e-16 0.163572 -1.39535e-16 1.262e-17)
(0 -1.21883e-29 -9.52209e-31 10.445 5.24018e-15 -3.82169e-14 0.16655 -7.86394e-17 -6.17347e-16)
(0 1.82824e-29 9.52209e-31 10.445 -4.21964e-15 -1.04674e-15 0.16655 -1.53495e-16 1.52379e-17)
(0 -1.79474e-29 -3.73904e-31 10.4402 5.45984e-15 -3.92142e-14 0.169578 -8.70437e-17 -6.4533e-16)
(0 1.79474e-29 3.73904e-31 10.4402 -4.42015e-15 -1.19228e-15 0.169578 -1.68431e-16 1.78663e-17)
(-7.46323e-16 2.20622e-29 1.06653e-30 10.4351 5.46891e-15 -4.02206e-14 0.172657 -8.87401e-17 -6.73923e-16)
(-1.33223e-15 -5.87284e-30 -4.96297e-31 10.4351 -4.09167e-15 -1.34106e-15 0.172657 -1.82846e-16 2.05413e-17)
(-4.66778e-16 7.08891e-30 5.26642e-31 10.4297 5.88618e-15 -3.55235e-14 0.175787 -9.06239e-17 -5.11271e-16)
(1.37842e-15 -5.76522e-30 -2.35925e-31 10.4297 -4.02402e-15 -1.49579e-15 0.175787 -1.93607e-16 2.34643e-17)
(-4.40154e-16 2.3861e-29 1.88535e-30 10.4241 6.44818e-15 -2.45645e-14 0.178968 -1.06154e-16 -3.22907e-16)
(-6.28929e-16 -2.82979e-29 -2.24143e-30 10.4241 -4.72359e-15 -1.6444e-15 0.178968 -2.06905e-16 2.65323e-17)
(4.13588e-16 -1.12238e-30 -1.00834e-31 10.4181 6.39752e-15 -1.88052e-14 0.182201 -1.13342e-16 -3.2903e-16)
(1.47332e-15 1.11117e-29 4.60718e-31 10.4181 -4.80429e-15 -1.78407e-15 0.182201 -2.26919e-16 2.9453e-17)
(0 -2.72703e-29 -2.04527e-30 10.4117 6.11605e-15 -1.88032e-14 0.185486 -1.08381e-16 -3.35001e-16)
(3.04414e-15 3.27243e-29 2.25997e-30 10.4117 -4.26607e-15 -1.93291e-15 0.185486 -2.42776e-16 3.24189e-17)
(1.14645e-15 -3.12001e-29 -2.94299e-30 10.4049 6.37773e-15 -1.87584e-14 0.188822 -1.07581e-16 -3.39804e-16)
(8.18177e-16 2.67706e-29 2.44278e-30 10.4049 -4.38155e-15 -2.10383e-15 0.188822 -2.58019e-16 3.58677e-17)
(-1.14527e-15 2.01928e-29 9.32931e-31 10.3977 6.87947e-15 -1.86832e-14 0.192209 -1.21966e-16 -3.44841e-16)
(-1.62223e-15 -5.256e-30 -4.21163e-31 10.3977 -4.87697e-15 -2.26985e-15 0.192209 -2.78981e-16 3.98461e-17)
(3.63081e-16 -2.06387e-29 -9.67441e-31 10.39 7.09713e-15 -1.85997e-14 0.195646 -1.30191e-16 -3.49462e-16)
(-3.63081e-16 2.06387e-29 9.67441e-31 10.39 -5.05183e-15 -2.4347e-15 0.195646 -3.02566e-16 4.33592e-17)
(-4.31509e-16 2.4677e-29 1.56252e-30 10.3817 7.37214e-15 -1.85327e-14 0.199134 -1.34762e-16 -3.55264e-16)
(-7.12854e-16 -1.01303e-29 -9.49713e-31 10.3817 -5.40644e-15 -2.61193e-15 0.199134 -3.26331e-16 4.75583e-17)
(6.99792e-16 -9.94464e-30 -6.2154e-31 10.3729 8.04857e-15 -1.84658e-14 0.202671 -1.45651e-16 -3.60014e-16)
(0 1.4917e-29 6.2154e-31 10.3729 -6.08535e-15 -2.78003e-15 0.202671 -3.58345e-16 5.17949e-17)
(0 1.95248e-29 2.13553e-30 10.3633 8.91752e-15 -1.83998e-14 0.206256 -1.66285e-16 -3.66024e-16)
(-1.83361e-15 -2.4406e-29 -2.80202e-30 10.3633 -6.52311e-15 -2.91981e-15 0.206256 -3.91034e-16 5.59223e-17)
(-2.0217e-16 1.95619e-29 1.1699e-30 10.3529 9.31673e-15 -1.83335e-14 0.209888 -1.85745e-16 -3.70893e-16)
(-6.7438e-16 -9.58351e-30 0 10.3529 -6.64462e-15 -3.04653e-15 0.209888 -4.17997e-16 5.9313e-17)
(-4.86263e-16 -9.71969e-30 3.38331e-31 10.3417 8.81721e-15 -1.82236e-14 0.213565 -1.88746e-16 -3.75274e-16)
(0 1.88158e-29 1.17599e-30 10.3417 -6.57383e-15 -3.1781e-15 0.213565 -4.49273e-16 6.31704e-17)
(-3.51241e-16 -1.43076e-29 -1.61039e-30 10.3296 8.28253e-15 -1.80995e-14 0.217286 -1.72101e-16 -3.79645e-16)
(1.35237e-15 1.38533e-29 1.75568e-30 10.3296 -6.23384e-15 -3.31239e-15 0.217286 -4.79669e-16 6.69854e-17)
(-5.15121e-16 4.3863e-30 3.60452e-31 10.3164 8.60197e-15 -1.79366e-14 0.221047 -1.73351e-16 -3.82429e-16)
(0 0 0 10.3164 -6.22612e-15 -3.45475e-15 0.221047 -5.06907e-16 7.12037e-17)
(-1.05986e-15 3.54591e-29 3.52464e-30 10.302 9.47759e-15 -1.77424e-14 0.224846 -1.92285e-16 -3.85467e-16)
(-2.11973e-15 -2.67004e-29 -2.78129e-30 10.302 -6.73961e-15 -3.59418e-15 0.224846 -5.37958e-16 7.38953e-17)
(5.45002e-16 1.74718e-29 7.07782e-31 10.2863 1.0626e-14 -1.73304e-14 0.228679 -2.18133e-16 -3.78507e-16)
(-2.18001e-15 -3.05796e-29 -1.63819e-30 10.2863 -7.27549e-15 -3.73579e-15 0.228679 -5.73977e-16 5.41774e-17)
(-1.2071e-15 1.71539e-29 1.60817e-30 10.2692 1.1061e-14 -1.63917e-14 0.232543 -2.50631e-16 -3.57441e-16)
(0 -4.28847e-30 0 10.2692 -7.26735e-15 -3.87246e-15 0.232543 -6.15232e-16 3.30215e-17)
(-1.74435e-15 -8.12888e-30 -7.60174e-31 10.2506 1.04766e-14 -1.56364e-14 0.236434 -2.4607e-16 -3.57896e-16)
(4.60744e-15 1.26296e-29 1.57871e-30 10.2506 -6.70318e-15 -3.98505e-15 0.236434 -6.50491e-16 1.06423e-17)
(-5.91792e-16 2.91486e-29 2.4864e-30 10.2301 1.01481e-14 -1.53379e-14 0.240345 -2.33095e-16 -3.56867e-16)
(2.36717e-15 -2.47964e-29 -2.06637e-30 10.2301 -7.11738e-15 -4.09855e-15 0.240345 -6.82887e-16 -1.24823e-17)
(5.70973e-16 -8.11401e-30 -1.52138e-30 10.2078 1.06059e-14 -1.49942e-14 0.244273 -2.39887e-16 -3.54916e-16)
(0 1.2171e-29 2.0285e-30 10.2078 -7.78217e-15 -4.21888e-15 0.244273 -7.25304e-16 -3.67202e-17)
(-6.24328e-16 8.31927e-30 9.39387e-31 10.1834 1.13103e-14 -1.46451e-14 0.248209 -2.63814e-16 -3.53274e-16)
(2.49731e-15 7.96532e-30 9.95665e-31 10.1834 -7.51633e-15 -4.32795e-15 0.248209 -7.71444e-16 -6.21631e-17)
(-5.50239e-16 1.1729e-29 1.46613e-30 10.1566 1.15249e-14 -1.42805e-14 0.252148 -2.83306e-16 -3.5016e-16)
(0 -3.90968e-30 -4.8871e-31 10.1566 -7.41594e-15 -4.44569e-15 0.252148 -8.17421e-16 -8.90264e-17)
(-6.57955e-16 1.58332e-29 1.90246e-30 10.1274 1.16977e-14 -1.38694e-14 0.256081 -2.84428e-16 -3.45765e-16)
(0 -3.83804e-30 -4.79755e-31 10.1274 -7.48398e-15 -4.58853e-15 0.256081 -8.70326e-16 -1.1733e-16)
(0 1.13031e-29 1.88385e-30 10.0954 1.20573e-14 -1.34502e-14 0.26 -3.02735e-16 -3.41728e-16)
(0 -3.76771e-30 -9.41926e-31 10.0954 -7.32113e-15 -4.72249e-15 0.26 -9.29776e-16 -1.46461e-16)
(1.04108e-15 -2.2192e-29 -3.69866e-30 10.0605 1.23546e-14 -1.2993e-14 0.263896 -3.13695e-16 -3.34768e-16)
(1.72964e-15 2.2192e-29 3.69866e-30 10.0605 -7.59394e-15 -4.86198e-15 0.263896 -9.92072e-16 -1.7696e-16)
(0 2.90471e-29 3.63089e-30 10.0224 1.30748e-14 -1.25216e-14 0.267757 -3.29771e-16 -3.29364e-16)
(0 -2.90471e-29 -3.63089e-30 10.0224 -8.44726e-15 -5.00952e-15 0.267757 -1.05467e-15 -2.10418e-16)
(-7.28506e-16 4.2718e-30 5.04334e-31 9.98085 1.35007e-14 -1.20935e-14 0.271574 -3.6407e-16 -3.24039e-16)
(2.91402e-15 7.1287e-30 8.91088e-31 9.98085 -8.13149e-15 -5.13602e-15 0.271574 -1.12959e-15 -2.45652e-16)
(9.84891e-16 -2.79923e-29 -3.49904e-30 9.93563 1.27652e-14 -1.16337e-14 0.275335 -3.65427e-16 -3.16227e-16)
(2.00242e-15 2.79923e-29 3.49904e-30 9.93563 -7.26956e-15 -5.23758e-15 0.275335 -1.20252e-15 -2.81663e-16)
(-7.65421e-16 3.17371e-29 3.10013e-30 9.8865 1.20523e-14 -1.10906e-14 0.279027 -3.36925e-16 -3.05514e-16)
(-3.06169e-15 -2.74793e-29 -2.57619e-30 9.8865 -7.60725e-15 -5.29646e-15 0.279027 -1.25888e-15 -3.17994e-16)
(9.49126e-16 -1.34879e-29 -1.68599e-30 9.83319 1.25343e-14 -1.04693e-14 0.282637 -3.38857e-16 -2.92329e-16)
(-4.08625e-15 1.34879e-29 1.68599e-30 9.83319 -7.79547e-15 -5.3426e-15 0.282637 -1.31782e-15 -3.55165e-16)
(-1.60681e-15 8.47537e-30 1.08589e-30 9.77549 1.34211e-14 -9.85954e-15 0.286153 -3.77407e-16 -2.81215e-16)
(3.21362e-15 0 0 9.77549 -8.06378e-15 -5.35465e-15 0.286153 -1.37511e-15 -3.93244e-16)
(-1.64558e-15 8.4492e-30 1.10405e-30 9.71317 1.43553e-14 -9.26993e-15 0.289559 -4.03702e-16 -2.68074e-16)
(0 0 0 9.71317 -8.73494e-15 -5.35611e-15 0.289559 -1.4413e-15 -4.32815e-16)
(0 -1.27599e-29 -2.39248e-30 9.64602 1.48502e-14 -8.65197e-15 0.292843 -4.47515e-16 -2.54155e-16)
(3.3697e-15 1.27599e-29 2.39248e-30 9.64602 -8.81059e-15 -5.36856e-15 0.292843 -1.50286e-15 -4.74568e-16)
(-2.6252e-15 2.92492e-29 4.48391e-30 9.57385 1.44113e-14 -7.97658e-15 0.29599 -4.49072e-16 -2.3625e-16)
(-3.44923e-15 -1.87891e-29 -3.13152e-30 9.57385 -8.4472e-15 -5.30978e-15 0.29599 -1.56855e-15 -5.14801e-16)
(1.74772e-15 -1.64864e-29 -2.88368e-30 9.49649 1.4407e-14 -7.23889e-15 0.298987 -4.37129e-16 -2.17085e-16)
(-8.65293e-16 1.22966e-29 2.3056e-30 9.49649 -8.14879e-15 -5.23135e-15 0.298987 -1.63938e-15 -5.53085e-16)
(9.02785e-16 -1.62465e-29 -1.34077e-30 9.41381 1.47153e-14 -6.48103e-15 0.301818 -4.65728e-16 -1.96335e-16)
(-3.61114e-15 1.20712e-29 7.54452e-31 9.41381 -8.62716e-15 -5.21404e-15 0.301818 -1.70185e-15 -5.9493e-16)
(-1.84672e-15 2.61015e-29 3.40958e-30 9.32571 1.48233e-14 -5.73152e-15 0.304472 -4.73457e-16 -1.76085e-16)
(0 -5.92501e-30 -1.48125e-30 9.32571 -8.76594e-15 -5.1871e-15 0.304472 -1.78403e-15 -6.38796e-16)
(0 1.16329e-29 2.18116e-30 9.23213 1.5329e-14 -5.00065e-15 0.306936 -4.90365e-16 -1.54881e-16)
(0 -1.74493e-29 -2.90822e-30 9.23213 -8.9663e-15 -5.0806e-15 0.306936 -1.85754e-15 -6.81237e-16)
(9.65128e-16 1.57982e-30 8.1969e-31 9.13304 1.63984e-14 -4.24008e-15 0.309198 -5.25102e-16 -1.30933e-16)
(-7.72103e-15 -5.70985e-30 -1.42746e-30 9.13304 -9.97416e-15 -4.97535e-15 0.309198 -1.95102e-15 -7.2168e-16)
(9.86299e-16 -2.65272e-29 -2.01478e-30 9.02845 1.71253e-14 -3.50876e-15 0.311248 -5.81657e-16 -1.09992e-16)
(0 2.24209e-29 1.40131e-30 9.02845 -1.01451e-14 -4.89687e-15 0.311248 -2.06923e-15 -7.63138e-16)
(0 -2.75125e-29 -2.75125e-30 8.91845 1.58207e-14 -2.8974e-15 0.313077 -5.95302e-16 -9.26712e-17)
(4.03057e-15 2.75125e-29 2.75125e-30 8.91845 -9.33928e-15 -4.74237e-15 0.313077 -2.17184e-15 -8.0639e-16)
(1.02914e-15 -4.08413e-30 -1.97378e-30 8.80313 1.36466e-14 -2.24507e-15 0.314677 -5.114e-16 -6.71861e-17)
(4.11658e-15 5.40168e-30 1.35042e-30 8.80313 -8.53503e-15 -4.59869e-15 0.314677 -2.26284e-15 -8.49719e-16)
(-6.09004e-16 -2.36622e-29 -2.72193e-30 8.68267 1.29457e-14 -1.52113e-15 0.316042 -4.6126e-16 -4.30852e-17)
(0 2.12108e-29 2.65135e-30 8.68267 -8.59457e-15 -4.46721e-15 0.316042 -2.36582e-15 -8.92267e-16)
(-6.79902e-16 -1.27003e-29 -1.34098e-30 8.55726 1.41306e-14 -8.6136e-16 0.317168 -4.79282e-16 -2.04423e-17)
(4.29025e-15 2.08221e-29 2.60276e-30 8.55726 -7.93559e-15 -4.30009e-15 0.317168 -2.47001e-15 -9.31558e-16)
(1.09445e-15 -2.95842e-29 -5.00417e-30 8.42715 1.57458e-14 4.93038e-32 0.318052 -5.67131e-16 0)
(8.75559e-15 2.55507e-29 3.8326e-30 8.42715 -7.64748e-15 -4.16081e-15 0.318052 -2.55944e-15 -9.71857e-16)
(-1.11643e-15 -1.00597e-30 -2.52134e-30 8.29263 1.56393e-14 7.9017e-17 0.318694 -6.20231e-16 -1.51681e-18)
(0 1.0033e-29 2.50825e-30 8.29263 -9.10152e-15 -3.99103e-15 0.318694 -2.66809e-15 -1.01235e-15)
(-2.27697e-15 8.00568e-30 1.25356e-30 8.15403 1.51596e-14 9.44377e-16 0.319095 -5.80249e-16 -2.49362e-17)
(4.55395e-15 0 0 8.15403 -9.34509e-15 -3.04922e-15 0.319095 -2.79343e-15 -1.05026e-15)
(-1.16061e-15 3.98416e-30 6.2098e-31 8.0117 1.6343e-14 1.51148e-15 0.319257 -6.05725e-16 -4.91543e-17)
(4.64242e-15 4.83433e-30 0 8.0117 -9.52823e-15 -1.69604e-15 0.319257 -2.9032e-15 -1.07347e-15)
(-1.33581e-15 1.42372e-29 2.37287e-30 7.86604 1.73616e-14 1.95324e-15 0.319186 -6.97286e-16 -7.14826e-17)
(0 0 -1.18643e-30 7.86604 -1.02137e-14 -1.113e-15 0.319186 -3.03768e-15 -1.08719e-15)
(1.20496e-15 -8.58953e-30 -1.77392e-30 7.71744 1.70632e-14 2.3045e-15 0.318887 -7.11998e-16 -8.71967e-17)
(4.81983e-15 4.65877e-30 1.16469e-30 7.71744 -9.59574e-15 -8.94152e-16 0.318887 -3.19168e-15 -1.09846e-15)
(2.51446e-15 -1.30597e-29 -4.03306e-30 7.56633 1.61337e-14 2.48192e-15 0.318368 -6.98663e-16 -1.0349e-16)
(3.62133e-15 9.14681e-30 3.43005e-30 7.56633 -8.49413e-15 -6.63271e-16 0.318368 -3.30643e-15 -1.10789e-15)
(-1.24935e-15 3.90148e-30 5.98769e-31 7.41314 1.50546e-14 2.51633e-15 0.317637 -6.59807e-16 -1.05565e-16)
(4.9974e-15 8.97919e-30 1.1224e-30 7.41314 -8.25346e-15 -5.05764e-16 0.317637 -3.40267e-15 -1.12286e-15)
(1.27152e-15 -1.27042e-29 -1.69608e-30 7.2583 1.45941e-14 2.77053e-15 0.316705 -6.31548e-16 -1.10369e-16)
(0 8.81465e-30 1.10183e-30 7.2583 -8.24939e-15 -3.11451e-16 0.316705 -3.53808e-15 -1.14895e-15)
(-1.29365e-15 1.68506e-29 2.75007e-30 7.10223 1.48996e-14 3.14543e-15 0.315583 -6.44046e-16 -1.31966e-16)
(5.17461e-15 -8.65313e-30 -1.08164e-30 7.10223 -7.98225e-15 -1.23942e-16 0.315583 -3.66267e-15 -1.17224e-15)
(2.51123e-15 -1.65899e-29 -2.70337e-30 6.94538 1.54002e-14 3.48216e-15 0.314281 -6.82794e-16 -1.48215e-16)
(-1.1955e-15 1.27418e-29 2.12364e-30 6.94538 -8.50645e-15 6.44022e-17 0.314281 -3.78235e-15 -1.19462e-15)
(-1.33774e-15 2.05023e-29 2.65649e-30 6.78814 1.53799e-14 3.92852e-15 0.312813 -7.14142e-16 -1.67762e-16)
(4.17737e-15 -8.3389e-30 -1.04236e-30 6.78814 -8.63508e-15 2.91668e-16 0.312813 -3.93242e-15 -1.21376e-15)
(1.35967e-15 4.37749e-30 4.61449e-31 6.63091 1.47391e-14 4.33186e-15 0.31119 -7.06628e-16 -1.95421e-16)
(5.43869e-15 -4.09305e-30 -1.02326e-30 6.63091 -7.20979e-15 3.50306e-16 0.31119 -4.0574e-15 -1.23156e-15)
(0 4.01804e-30 1.00451e-30 6.47407 1.40002e-14 4.70423e-15 0.309425 -6.8019e-16 -2.12396e-16)
(5.52604e-15 0 -1.00451e-30 6.47407 -6.91115e-15 1.33268e-16 0.309425 -4.16423e-15 -1.25338e-15)
(0 7.88883e-30 9.86104e-31 6.31798 1.34825e-14 4.96826e-15 0.307531 -6.61758e-16 -2.38815e-16)
(-5.61298e-15 -3.94441e-30 -9.86104e-31 6.31798 -7.8695e-15 2.13538e-16 0.307531 -4.31956e-15 -1.27688e-15)
(-2.17982e-15 2.32328e-29 2.9041e-30 6.16295 1.34441e-14 5.49031e-15 0.305519 -6.54796e-16 -2.46423e-16)
(7.87927e-15 -2.32328e-29 -2.9041e-30 6.16295 -7.14263e-15 3.38796e-16 0.305519 -4.45932e-15 -1.29049e-15)
(-1.44636e-15 -1.52664e-29 -4.23557e-30 6.0093 1.37527e-14 5.98197e-15 0.303404 -6.82839e-16 -3.0023e-16)
(0 1.90059e-29 4.75147e-30 6.0093 -6.59904e-15 2.56799e-16 0.303404 -4.55808e-15 -1.31499e-15)
(-1.46772e-15 -1.94945e-32 1.4381e-30 5.8573 1.36777e-14 6.12396e-15 0.301195 -7.11027e-16 -3.05996e-16)
(5.87086e-15 3.73152e-30 0 5.8573 -6.47646e-15 2.15542e-16 0.301195 -4.71807e-15 -1.3349e-15)
(0 -7.32629e-30 -9.15786e-31 5.7072 1.34248e-14 6.27983e-15 0.298906 -7.00755e-16 -3.26337e-16)
(0 7.32629e-30 1.83157e-30 5.7072 -6.11461e-15 1.60937e-16 0.298906 -4.86559e-15 -1.35931e-15)
(0 1.07881e-29 8.99004e-31 5.55923 1.31785e-14 6.23965e-15 0.296546 -7.10981e-16 -3.3407e-16)
(0 -1.07881e-29 -8.99004e-31 5.55923 -5.56987e-15 1.85587e-16 0.296546 -4.97068e-15 -1.37805e-15)
(5.50548e-15 -2.13035e-29 -3.99774e-30 5.41357 1.29336e-14 6.15047e-15 0.294127 -7.00532e-16 -3.34289e-16)
(2.14909e-15 1.41205e-29 3.53012e-30 5.41357 -5.25009e-15 2.36198e-16 0.294127 -5.05759e-15 -1.3946e-15)
(-2.35007e-15 1.0226e-29 1.27664e-30 5.27039 1.29486e-14 5.94842e-15 0.291659 -7.10802e-16 -3.36837e-16)
(6.20666e-15 -3.46543e-30 -8.66358e-31 5.27039 -6.42824e-15 4.86988e-16 0.291659 -5.16874e-15 -1.4081e-15)
(0 0 -1.70097e-30 5.12986 1.26228e-14 5.96083e-15 0.28915 -7.28615e-16 -3.24218e-16)
(6.28901e-15 3.40193e-30 2.55145e-30 5.12986 -7.09231e-15 8.37995e-16 0.28915 -5.3061e-15 -1.41256e-15)
(-3.18534e-15 1.05321e-29 1.70122e-30 4.99207 1.25618e-14 6.1266e-15 0.286609 -7.00348e-16 -3.50948e-16)
(6.37067e-15 -3.33959e-30 -8.34898e-31 4.99207 -6.76176e-15 1.02858e-15 0.286609 -5.44767e-15 -1.41416e-15)
(1.61291e-15 -2.32334e-29 -2.88002e-30 4.85714 1.28626e-14 6.15524e-15 0.284044 -7.4897e-16 -3.55734e-16)
(6.45165e-15 1.96704e-29 2.4588e-30 4.85714 -6.91586e-15 1.0402e-15 0.284044 -5.59583e-15 -1.41437e-15)
(0 2.25282e-29 2.41374e-30 4.72515 1.24096e-14 6.03066e-15 0.281463 -7.6241e-16 -3.67569e-16)
(-6.53192e-15 -2.25282e-29 -2.41374e-30 4.72515 -6.66978e-15 9.14997e-16 0.281463 -5.76525e-15 -1.41227e-15)
(0 6.31869e-30 0 4.59614 1.28896e-14 5.7418e-15 0.278873 -7.22472e-16 -3.5409e-16)
(0 0 0 4.59614 -6.61386e-15 9.14531e-16 0.278873 -5.91142e-15 -1.40808e-15)
(-5.09112e-15 2.55664e-29 2.32753e-30 4.47018 1.40228e-14 5.71316e-15 0.276279 -8.50205e-16 -3.45873e-16)
(1.74596e-15 -1.86087e-29 -1.55073e-30 4.47018 -8.11196e-15 1.00667e-15 0.276279 -6.0683e-15 -1.39387e-15)
(-1.69211e-15 9.53276e-30 1.13521e-30 4.34728 1.3519e-14 5.8182e-15 0.273687 -8.91751e-16 -3.63841e-16)
(0 0 -7.61154e-31 4.34728 -8.54141e-15 1.20176e-15 0.273687 -6.2146e-15 -1.38145e-15)
(-1.68256e-15 1.7933e-29 2.24162e-30 4.22745 1.29012e-14 5.63465e-15 0.271103 -8.17902e-16 -3.72319e-16)
(-6.84584e-15 -1.19553e-29 -1.49441e-30 4.22745 -7.09949e-15 1.46485e-15 0.271103 -6.38429e-15 -1.34999e-15)
(3.46126e-15 -9.44201e-31 2.94248e-32 4.11071 1.37443e-14 5.26367e-15 0.268531 -8.44992e-16 -3.53675e-16)
(-3.30345e-15 -5.86811e-30 -7.33514e-31 4.11071 -5.81506e-15 1.7668e-15 0.268531 -6.52861e-15 -1.31823e-15)
(1.87777e-15 4.79446e-30 1.47306e-30 3.99703 1.34075e-14 4.89124e-15 0.265975 -9.6044e-16 -3.37193e-16)
(6.99846e-15 -1.72817e-29 -2.16022e-30 3.99703 -4.97986e-15 1.97289e-15 0.265975 -6.64289e-15 -1.27498e-15)
(-1.76842e-15 3.35162e-30 3.36094e-31 3.8864 1.09209e-14 4.37365e-15 0.263438 -8.31377e-16 -3.16732e-16)
(7.07369e-15 0 0 3.8864 -4.65831e-15 1.51927e-15 0.263438 -6.77017e-15 -1.24382e-15)
(3.5741e-15 -1.15359e-30 3.17729e-32 3.77879 9.46444e-15 4.07155e-15 0.260925 -6.54717e-16 -2.7873e-16)
(0 -5.55139e-30 -6.93924e-31 3.77879 -4.48517e-15 1.18292e-15 0.260925 -6.87881e-15 -1.22311e-15)
(1.8055e-15 -8.78167e-30 -1.00124e-30 3.67416 9.40057e-15 4.12395e-15 0.258437 -6.58708e-16 -2.86353e-16)
(7.22201e-15 5.44967e-30 6.81208e-31 3.67416 -4.17073e-15 1.43847e-15 0.258437 -6.98816e-15 -1.18142e-15)
(-1.82378e-15 8.66152e-30 3.0843e-31 3.57248 9.76128e-15 4.02242e-15 0.255977 -6.70276e-16 -2.9671e-16)
(0 0 0 3.57248 -3.52514e-15 1.57963e-15 0.255977 -7.13577e-15 -1.13576e-15)
(0 -5.25177e-30 0 3.47368 9.95213e-15 3.8642e-15 0.253547 -7.35957e-16 -2.82385e-16)
(1.4735e-14 1.05035e-29 6.56471e-31 3.47368 -3.28246e-15 1.3274e-15 0.253547 -7.23759e-15 -1.10117e-15)
(-1.8598e-15 -1.21892e-29 -9.98353e-31 3.37772 1.02458e-14 3.67092e-15 0.25115 -7.2379e-16 -2.84465e-16)
(0 1.54666e-29 1.93332e-30 3.37772 -4.3156e-15 1.06114e-15 0.25115 -7.3113e-15 -1.07877e-15)
(0 -1.51832e-29 -1.26526e-30 3.28454 9.57305e-15 3.20747e-15 0.248786 -8.07976e-16 -2.63876e-16)
(1.50205e-14 1.51832e-29 1.8979e-30 3.28454 -4.03397e-15 1.02804e-15 0.248786 -7.40291e-15 -1.04922e-15)
(-1.89514e-15 1.81646e-29 1.52793e-30 3.19408 6.9558e-15 2.92607e-15 0.246457 -6.4771e-16 -2.23982e-16)
(0 -1.4905e-29 -1.24208e-30 3.19408 -4.19562e-15 8.30946e-16 0.246457 -7.45451e-15 -1.01625e-15)
(2.74566e-15 -4.87727e-30 -6.09659e-31 3.10628 6.58724e-15 2.8928e-15 0.244164 -4.2881e-16 -2.29779e-16)
(7.65025e-15 4.87727e-30 6.09659e-31 3.10628 -4.51494e-15 6.74598e-16 0.244164 -7.59036e-15 -9.86105e-16)
(1.92982e-15 -1.28081e-29 -2.06979e-30 3.02108 7.68444e-15 2.66422e-15 0.241907 -6.1336e-16 -2.27119e-16)
(1.54385e-14 9.5758e-30 1.79546e-30 3.02108 -3.74207e-15 1.00498e-15 0.241907 -7.72627e-15 -9.47194e-16)
(-1.94691e-15 3.21523e-30 2.74038e-31 2.93841 7.12873e-15 2.44434e-15 0.239688 -6.23156e-16 -2.01316e-16)
(7.78765e-15 4.70016e-30 5.8752e-31 2.93841 -4.613e-15 9.32013e-16 0.239688 -7.83833e-15 -8.96396e-16)
(-6.33624e-16 6.0152e-30 8.83125e-31 2.85821 7.41164e-15 2.37383e-15 0.237507 -5.4454e-16 -1.99301e-16)
(7.85539e-15 0 0 2.85821 -5.83346e-15 3.66185e-16 0.237507 -7.99417e-15 -8.63301e-16)
(-3.96125e-15 6.34684e-30 1.09886e-30 2.78041 8.63459e-15 2.22581e-15 0.235363 -6.94312e-16 -1.97019e-16)
(7.9225e-15 0 -5.66185e-31 2.78041 -4.57515e-15 2.16848e-16 0.235363 -8.19416e-15 -8.22365e-16)
(-2.50315e-15 -8.89296e-30 -1.11162e-30 2.70493 9.22521e-15 2.08639e-15 0.233259 -7.75001e-16 -1.81401e-16)
(1.5978e-14 1.33394e-29 1.11162e-30 2.70493 -1.60811e-15 3.10524e-16 0.233259 -8.35081e-15 -7.83975e-16)
(0 4.365e-30 1.09125e-30 2.63173 8.97674e-15 2.05341e-15 0.231192 -8.23757e-16 -1.80063e-16)
(8.05488e-15 0 -5.45625e-31 2.63173 -1.96697e-15 -5.01159e-17 0.231192 -8.4231e-15 -7.52006e-16)
(-2.03004e-15 7.38303e-30 7.91304e-31 2.56073 8.64963e-15 1.8047e-15 0.229164 -7.59943e-16 -1.82361e-16)
(0 0 0 2.56073 -4.78233e-15 -2.79924e-16 0.229164 -8.52865e-15 -7.46114e-16)
(-3.21823e-16 1.13775e-30 2.68476e-31 2.49186 8.72182e-15 1.16361e-15 0.227174 -7.95441e-16 -1.41717e-16)
(2.36804e-15 -8.41298e-30 -1.05162e-30 2.49186 -4.93881e-15 -2.0311e-16 0.227174 -8.70911e-15 -7.46407e-16)
(2.32465e-15 8.25882e-30 1.03235e-30 2.42506 7.82526e-15 9.78265e-16 0.225222 -8.01922e-16 -7.07286e-17)
(-2.32465e-15 -4.12941e-30 -5.16176e-31 2.42506 -2.7352e-15 -4.42111e-16 0.225222 -8.86113e-15 -7.53376e-16)
(-2.07815e-15 1.92629e-29 2.28136e-30 2.36028 7.40943e-15 7.41542e-16 0.223307 -6.56594e-16 -1.12157e-16)
(-2.28205e-15 -1.21612e-29 -2.02687e-30 2.36028 -2.52714e-15 -8.72868e-16 0.223307 -8.93001e-15 -7.74611e-16)
(-2.09391e-15 3.01663e-30 1.25875e-30 2.29744 8.52751e-15 -6.82964e-17 0.22143 -7.52378e-16 -4.18543e-17)
(-1.06159e-14 0 0 2.29744 -3.78403e-15 -1.09402e-15 0.22143 -9.09171e-15 -8.04666e-16)
(-4.30871e-15 -4.83997e-30 -7.07427e-31 2.23648 9.3145e-15 -3.1798e-16 0.219589 -8.99801e-16 -2.06556e-17)
(1.68762e-14 7.81307e-30 9.76634e-31 2.23648 -3.77838e-15 -6.53356e-16 0.219589 -9.21874e-15 -8.27975e-16)
(-2.15888e-15 -1.15048e-29 -1.43811e-30 2.17735 8.14889e-15 -2.52092e-16 0.217785 -9.37374e-16 -3.00721e-17)
(1.06589e-14 1.15048e-29 1.43811e-30 2.17735 -4.12908e-15 3.52421e-16 0.217785 -9.30411e-15 -8.40449e-16)
(-2.14037e-15 6.71336e-30 8.75812e-47 2.11999 6.75436e-15 4.93038e-32 0.216016 -6.97372e-16 7.68285e-47)
(6.44216e-15 0 0 2.11999 -3.76843e-15 8.83006e-16 0.216016 -9.46824e-15 -8.21522e-16)
(0 0 4.61961e-31 2.06434 7.89965e-15 6.75014e-16 0.214283 -6.84668e-16 -1.03268e-16)