/*--------------------------------*- C++ -*----------------------------------*\
| =========                 |                                                 |
| \\      /  F ield         | OpenFOAM: The Open Source CFD Toolbox           |
|  \\    /   O peration     | Version:  2106                                  |
|   \\  /    A nd           | Website:  www.openfoam.com                      |
|    \\/     M anipulation  |                                                 |
\*---------------------------------------------------------------------------*/
FoamFile
{
    version     2.0;
    format      ascii;
    arch        "LSB;label=32;scalar=64";
    class       volScalarField;
    location    "10030";
    object      p;
}
// * * * * * * * * * * * * * * * * * * * * * * * * * * * * * * * * * * * * * //

dimensions      [0 2 -2 0 0 0 0];

internalField   nonuniform List<scalar> 
800
(
1.03928e-15
-2.78805e-15
2.09655e-15
-2.79243e-15
1.81613e-15
-2.79942e-15
1.12236e-15
-2.81073e-15
4.61065e-16
-2.82654e-15
-1.40503e-16
-2.84684e-15
-7.13605e-16
-2.87154e-15
-1.25954e-15
-2.90076e-15
-1.77475e-15
-2.93413e-15
-2.25852e-15
-2.97139e-15
-2.71096e-15
-3.01261e-15
-3.1336e-15
-3.05794e-15
-3.52786e-15
-3.10686e-15
-3.89477e-15
-3.15892e-15
-4.23557e-15
-3.21445e-15
-4.55122e-15
-3.2731e-15
-4.84292e-15
-3.33495e-15
-5.11162e-15
-3.39971e-15
-5.35861e-15
-3.46743e-15
-5.58475e-15
-3.53852e-15
-5.7915e-15
-3.61199e-15
-5.97965e-15
-3.68819e-15
-6.15006e-15
-3.76635e-15
-6.30431e-15
-3.84566e-15
-6.44346e-15
-3.92692e-15
-6.56861e-15
-4.01103e-15
-6.68055e-15
-4.09796e-15
-6.77975e-15
-4.18693e-15
-6.86834e-15
-4.27726e-15
-6.9477e-15
-4.36975e-15
-7.01804e-15
-4.46473e-15
-7.08022e-15
-4.56204e-15
-7.13603e-15
-4.66052e-15
-7.18335e-15
-4.76283e-15
-7.22689e-15
-4.8668e-15
-7.26531e-15
-4.97245e-15
-7.30043e-15
-5.08089e-15
-7.33751e-15
-5.18812e-15
-7.37035e-15
-5.29628e-15
-7.40063e-15
-5.40282e-15
-7.43381e-15
-5.50991e-15
-7.4618e-15
-5.61982e-15
-7.49136e-15
-5.73247e-15
-7.52442e-15
-5.84644e-15
-7.55336e-15
-5.95878e-15
-7.58405e-15
-6.07343e-15
-7.61109e-15
-6.19471e-15
-7.64341e-15
-6.31397e-15
-7.67228e-15
-6.43108e-15
-7.70709e-15
-6.54592e-15
-7.74504e-15
-6.67452e-15
-7.77946e-15
-6.80138e-15
-7.83353e-15
-6.92019e-15
-7.89098e-15
-7.04452e-15
-7.95554e-15
-7.17135e-15
-8.02043e-15
-7.30099e-15
-8.07429e-15
-7.44141e-15
-8.15359e-15
-7.56796e-15
-8.22853e-15
-7.69587e-15
-8.30659e-15
-7.83383e-15
-8.39533e-15
-7.96732e-15
-8.48629e-15
-8.08885e-15
-8.57083e-15
-8.21526e-15
-8.67371e-15
-8.37333e-15
-8.75088e-15
-8.55813e-15
-8.83951e-15
-8.72463e-15
-8.93519e-15
-8.85163e-15
-9.05522e-15
-8.98609e-15
-9.17015e-15
-9.12896e-15
-9.28612e-15
-9.28347e-15
-9.41919e-15
-9.41576e-15
-9.57093e-15
-9.56394e-15
-9.74186e-15
-9.7085e-15
-9.91577e-15
-9.88792e-15
-1.00525e-14
-1.00448e-14
-1.02152e-14
-1.01824e-14
-1.03444e-14
-1.03162e-14
-1.05014e-14
-1.05075e-14
-1.06126e-14
-1.06326e-14
-1.07544e-14
-1.07436e-14
-1.09039e-14
-1.09246e-14
-1.10541e-14
-1.11324e-14
-1.12755e-14
-1.12415e-14
-1.14714e-14
-1.14521e-14
-1.16861e-14
-1.16657e-14
-1.19238e-14
-1.19397e-14
-1.2187e-14
-1.21057e-14
-1.23784e-14
-1.22629e-14
-1.25655e-14
-1.24788e-14
-1.27339e-14
-1.27069e-14
-1.29911e-14
-1.29761e-14
-1.32754e-14
-1.31177e-14
-1.35199e-14
-1.33359e-14
-1.37505e-14
-1.36362e-14
-1.3982e-14
-1.39458e-14
-1.42467e-14
-1.42356e-14
-1.45302e-14
-1.45261e-14
-1.48286e-14
-1.48396e-14
-1.51056e-14
-1.51764e-14
-1.54892e-14
-1.54871e-14
-4.46269e-15
-4.68657e-15
-4.46477e-15
-4.68692e-15
-4.46822e-15
-4.68757e-15
-4.47391e-15
-4.68862e-15
-4.48182e-15
-4.6902e-15
-4.49198e-15
-4.69234e-15
-4.50442e-15
-4.69498e-15
-4.51904e-15
-4.69819e-15
-4.53573e-15
-4.70202e-15
-4.55455e-15
-4.70664e-15
-4.57524e-15
-4.71193e-15
-4.59779e-15
-4.71802e-15
-4.62214e-15
-4.72504e-15
-4.64822e-15
-4.73295e-15
-4.67603e-15
-4.74193e-15
-4.70529e-15
-4.75238e-15
-4.73587e-15
-4.76375e-15
-4.76815e-15
-4.776e-15
-4.80165e-15
-4.78965e-15
-4.83593e-15
-4.80498e-15
-4.8717e-15
-4.82135e-15
-4.90817e-15
-4.83936e-15
-4.94581e-15
-4.85892e-15
-4.98458e-15
-4.87976e-15
-5.02396e-15
-4.90199e-15
-5.06412e-15
-4.92644e-15
-5.10524e-15
-4.95333e-15
-5.14722e-15
-4.98145e-15
-5.19e-15
-5.01194e-15
-5.23359e-15
-5.04617e-15
-5.27772e-15
-5.08201e-15
-5.3235e-15
-5.12118e-15
-5.37044e-15
-5.16485e-15
-5.4186e-15
-5.2116e-15
-5.46857e-15
-5.26213e-15
-5.52041e-15
-5.31775e-15
-5.57358e-15
-5.37872e-15
-5.63035e-15
-5.44189e-15
-5.69311e-15
-5.50621e-15
-5.75725e-15
-5.57648e-15
-5.82267e-15
-5.6505e-15
-5.89558e-15
-5.72837e-15
-5.97098e-15
-5.80886e-15
-6.05147e-15
-5.89325e-15
-6.13298e-15
-5.97878e-15
-6.2196e-15
-6.07091e-15
-6.30845e-15
-6.16682e-15
-6.39643e-15
-6.26343e-15
-6.48321e-15
-6.36664e-15
-6.57462e-15
-6.47034e-15
-6.67703e-15
-6.57114e-15
-6.77765e-15
-6.67496e-15
-6.87971e-15
-6.78145e-15
-6.983e-15
-6.89034e-15
-7.0837e-15
-7.01197e-15
-7.19543e-15
-7.13606e-15
-7.29587e-15
-7.25886e-15
-7.41028e-15
-7.3803e-15
-7.52317e-15
-7.50005e-15
-7.63392e-15
-7.63357e-15
-7.77346e-15
-7.75757e-15
-7.9189e-15
-7.87035e-15
-8.03873e-15
-8.00269e-15
-8.15691e-15
-8.14696e-15
-8.28866e-15
-8.29535e-15
-8.4162e-15
-8.42059e-15
-8.53059e-15
-8.55566e-15
-8.71216e-15
-8.7112e-15
-8.87292e-15
-8.85764e-15
-9.00484e-15
-9.01157e-15
-9.14331e-15
-9.17436e-15
-9.32455e-15
-9.32989e-15
-9.51322e-15
-9.47428e-15
-9.67443e-15
-9.62043e-15
-9.7866e-15
-9.78289e-15
-9.96497e-15
-9.94745e-15
-1.01489e-14
-1.01559e-14
-1.03155e-14
-1.03316e-14
-1.05293e-14
-1.04269e-14
-1.0739e-14
-1.05671e-14
-1.08784e-14
-1.08062e-14
-1.10862e-14
-1.1012e-14
-1.12288e-14
-1.11791e-14
-1.14337e-14
-1.14216e-14
-1.16404e-14
-1.16076e-14
-1.18034e-14
-1.17714e-14
-1.20102e-14
-1.19917e-14
-1.22405e-14
-1.2233e-14
-1.24415e-14
-1.2467e-14
-1.27072e-14
-1.27181e-14
-1.29623e-14
-1.29856e-14
-1.32546e-14
-1.32201e-14
-1.35119e-14
-1.33517e-14
-1.37274e-14
-1.36605e-14
-1.40013e-14
-1.39225e-14
-1.42463e-14
-1.42222e-14
-1.45244e-14
-1.44921e-14
-1.48463e-14
-1.48386e-14
-1.51989e-14
-1.51815e-14
-1.55192e-14
-1.55101e-14
-1.5713e-14
-1.56363e-14
-1.60374e-14
-1.6023e-14
-1.62299e-14
-1.62356e-14
-1.65353e-14
-1.64842e-14
-1.67759e-14
-1.67836e-14
-1.69841e-14
-1.6949e-14
-1.72204e-14
-1.71996e-14
-1.74715e-14
-1.74315e-14
-1.76885e-14
-1.76474e-14
-1.7774e-14
-1.77725e-14
-1.78542e-14
-1.78208e-14
-1.79539e-14
-1.79312e-14
-1.80668e-14
-1.80198e-14
-1.81965e-14
-1.81804e-14
-1.8277e-14
-1.82176e-14
-1.84276e-14
-1.83657e-14
-1.84576e-14
-1.84368e-14
-1.84978e-14
-1.84974e-14
-1.84874e-14
-1.85097e-14
-1.86018e-14
-1.85681e-14
-1.86228e-14
-1.86107e-14
-1.86492e-14
-1.8606e-14
-1.86253e-14
-1.8616e-14
-1.86291e-14
-1.86244e-14
-1.86578e-14
-1.86546e-14
-1.8712e-14
-1.86872e-14
-1.87107e-14
-1.86967e-14
-1.87141e-14
-1.87056e-14
-1.87001e-14
-1.86941e-14
-1.87091e-14
-1.87015e-14
-1.87406e-14
-1.87468e-14
-1.87543e-14
-1.8756e-14
-1.87521e-14
-1.87488e-14
-1.87525e-14
-1.87248e-14
-1.87389e-14
-1.87188e-14
-1.87368e-14
-1.87121e-14
-1.87283e-14
-1.8713e-14
-1.87214e-14
-1.87222e-14
-1.87064e-14
-1.87153e-14
-1.87076e-14
-1.87011e-14
-1.8709e-14
-1.87112e-14
-1.87103e-14
-1.86896e-14
-1.87046e-14
-1.86755e-14
-1.86998e-14
-1.86834e-14
-1.8703e-14
-1.86909e-14
-1.87099e-14
-1.86872e-14
-1.87065e-14
-1.86869e-14
-1.86967e-14
-1.86932e-14
-1.86906e-14
-1.86929e-14
-1.87012e-14
-1.86895e-14
-1.87021e-14
-1.86861e-14
-1.87031e-14
-1.86859e-14
-1.87044e-14
-1.86826e-14
-1.87e-14
-1.86823e-14
-1.87018e-14
-1.86819e-14
-1.87038e-14
-1.86815e-14
-1.87046e-14
-1.86796e-14
-1.8707e-14
-1.86776e-14
-1.87084e-14
-1.86781e-14
-1.87075e-14
-1.86797e-14
-1.87068e-14
-1.86824e-14
-1.87064e-14
-1.86849e-14
-1.87062e-14
-1.86849e-14
-1.87061e-14
-1.86814e-14
-1.87062e-14
-1.86791e-14
-1.87064e-14
-1.86805e-14
-1.87057e-14
-1.86824e-14
-1.87051e-14
-1.86827e-14
-1.87035e-14
-1.86823e-14
-1.8703e-14
-1.86835e-14
-1.87032e-14
-1.86847e-14
-1.87035e-14
-1.86848e-14
-1.87032e-14
-1.86843e-14
-1.87027e-14
-1.86849e-14
-1.87026e-14
-1.86855e-14
-1.87027e-14
-1.86858e-14
-1.87023e-14
-1.86861e-14
-1.87016e-14
-1.86867e-14
-1.87019e-14
-1.8687e-14
-1.87019e-14
-1.8687e-14
-1.87017e-14
-1.86867e-14
-1.87019e-14
-1.86865e-14
-1.87019e-14
-1.86862e-14
-1.8702e-14
-1.86857e-14
-1.87023e-14
-1.86856e-14
-1.87025e-14
-1.86856e-14
-1.87027e-14
-1.86855e-14
-1.87028e-14
-1.86855e-14
-1.87029e-14
-1.86857e-14
-1.87031e-14
-1.86856e-14
-1.87034e-14
-1.86856e-14
-1.87034e-14
-1.86854e-14
-1.87034e-14
-1.86852e-14
-1.87035e-14
-1.86853e-14
-1.87036e-14
-1.86852e-14
-1.87035e-14
-1.86852e-14
-1.87035e-14
-1.86852e-14
-1.87035e-14
-1.86851e-14
-1.87035e-14
-1.86851e-14
-1.87035e-14
-1.86851e-14
-1.57417e-14
-1.5704e-14
-1.60477e-14
-1.60299e-14
-1.62435e-14
-1.61881e-14
-1.65213e-14
-1.65022e-14
-1.68084e-14
-1.67969e-14
-1.69927e-14
-1.69512e-14
-1.72212e-14
-1.71863e-14
-1.74789e-14
-1.7377e-14
-1.7641e-14
-1.76335e-14
-1.77868e-14
-1.78139e-14
-1.78565e-14
-1.79086e-14
-1.79481e-14
-1.79507e-14
-1.80904e-14
-1.80549e-14
-1.82008e-14
-1.82016e-14
-1.83096e-14
-1.82976e-14
-1.83766e-14
-1.83519e-14
-1.84419e-14
-1.84433e-14
-1.85025e-14
-1.84844e-14
-1.85687e-14
-1.85653e-14
-1.86474e-14
-1.86041e-14
-1.8602e-14
-1.85877e-14
-1.85815e-14
-1.85881e-14
-1.85973e-14
-1.86106e-14
-1.86068e-14
-1.86127e-14
-1.86128e-14
-1.86148e-14
-1.8657e-14
-1.86565e-14
-1.8675e-14
-1.86737e-14
-1.86903e-14
-1.86888e-14
-1.86634e-14
-1.87022e-14
-1.86696e-14
-1.87008e-14
-1.86895e-14
-1.8703e-14
-1.86859e-14
-1.87042e-14
-1.86963e-14
-1.87047e-14
-1.87034e-14
-1.86855e-14
-1.87098e-14
-1.87001e-14
-1.87158e-14
-1.87041e-14
-1.87131e-14
-1.86896e-14
-1.87113e-14
-1.86904e-14
-1.87104e-14
-1.86976e-14
-1.87102e-14
-1.87036e-14
-1.87104e-14
-1.87012e-14
-1.8711e-14
-1.86904e-14
-1.87123e-14
-1.8679e-14
-1.87073e-14
-1.86668e-14
-1.87112e-14
-1.86682e-14
-1.87163e-14
-1.86718e-14
-1.87047e-14
-1.86704e-14
-1.86976e-14
-1.86645e-14
-1.86913e-14
-1.86714e-14
-1.86989e-14
-1.86709e-14
-1.87035e-14
-1.866e-14
-1.87024e-14
-1.86549e-14
-1.8699e-14
-1.86551e-14
-1.86961e-14
-1.86545e-14
-1.86939e-14
-1.86562e-14
-1.86948e-14
-1.86573e-14
-1.86934e-14
-1.86593e-14
-1.86909e-14
-1.86594e-14
-1.86899e-14
-1.86619e-14
-1.86904e-14
-1.8664e-14
-1.86898e-14
-1.86633e-14
-1.86905e-14
-1.86648e-14
-1.86889e-14
-1.86649e-14
-1.86898e-14
-1.86625e-14
-1.86907e-14
-1.86623e-14
-1.86923e-14
-1.86635e-14
-1.86923e-14
-1.86657e-14
-1.86918e-14
-1.86678e-14
-1.86913e-14
-1.86681e-14
-1.86915e-14
-1.86688e-14
-1.86906e-14
-1.86689e-14
-1.86903e-14
-1.8669e-14
-1.86904e-14
-1.86687e-14
-1.86907e-14
-1.86689e-14
-1.86902e-14
-1.86697e-14
-1.86897e-14
-1.86701e-14
-1.86908e-14
-1.86699e-14
-1.86909e-14
-1.86699e-14
-1.86911e-14
-1.86699e-14
-1.86913e-14
-1.86697e-14
-1.86919e-14
-1.86689e-14
-1.86926e-14
-1.86684e-14
-1.86931e-14
-1.86677e-14
-1.86936e-14
-1.86673e-14
-1.86937e-14
-1.86671e-14
-1.86937e-14
-1.8667e-14
-1.86939e-14
-1.86666e-14
-1.86939e-14
-1.86663e-14
-1.86939e-14
-1.86665e-14
-1.86939e-14
-1.86666e-14
-1.86938e-14
-1.86667e-14
-1.86938e-14
-1.86665e-14
-1.86939e-14
-1.86663e-14
-1.8694e-14
-1.86663e-14
-1.86941e-14
-1.86662e-14
-1.86941e-14
-1.86663e-14
-1.8694e-14
-1.86663e-14
-1.8694e-14
-1.86663e-14
-1.8694e-14
-1.86663e-14
-1.8694e-14
-1.86663e-14
)
;

boundaryField
{
    walls
    {
        type            zeroGradient;
    }
    inlet
    {
        type            cyclic;
    }
    outlet
    {
        type            cyclic;
    }
    sides
    {
        type            empty;
    }
}


// ************************************************************************* //
