/*--------------------------------*- C++ -*----------------------------------*\
| =========                 |                                                 |
| \\      /  F ield         | OpenFOAM: The Open Source CFD Toolbox           |
|  \\    /   O peration     | Version:  2106                                  |
|   \\  /    A nd           | Website:  www.openfoam.com                      |
|    \\/     M anipulation  |                                                 |
\*---------------------------------------------------------------------------*/
FoamFile
{
    version     2.0;
    format      ascii;
    arch        "LSB;label=32;scalar=64";
    class       volScalarField;
    location    "10030";
    object      p;
}
// * * * * * * * * * * * * * * * * * * * * * * * * * * * * * * * * * * * * * //

dimensions      [0 2 -2 0 0 0 0];

internalField   nonuniform List<scalar> 
2000
(
1.12207e-14
7.86494e-14
2.26977e-14
7.86457e-14
2.51395e-14
7.86416e-14
2.53393e-14
7.86356e-14
2.5667e-14
7.86275e-14
2.62543e-14
7.86173e-14
2.68833e-14
7.86048e-14
2.74999e-14
7.85901e-14
2.81076e-14
7.85734e-14
2.87097e-14
7.85546e-14
2.93063e-14
7.85337e-14
2.98969e-14
7.85109e-14
3.04813e-14
7.84861e-14
3.10596e-14
7.84593e-14
3.16316e-14
7.84309e-14
3.21971e-14
7.84006e-14
3.27567e-14
7.83684e-14
3.33101e-14
7.83346e-14
3.38573e-14
7.82993e-14
3.43984e-14
7.82622e-14
3.49336e-14
7.82235e-14
3.54628e-14
7.81835e-14
3.59861e-14
7.81419e-14
3.65038e-14
7.8099e-14
3.70158e-14
7.80549e-14
3.75221e-14
7.80094e-14
3.80229e-14
7.79626e-14
3.85185e-14
7.79149e-14
3.90089e-14
7.78659e-14
3.94942e-14
7.78156e-14
3.99737e-14
7.77644e-14
4.04482e-14
7.77122e-14
4.09177e-14
7.7659e-14
4.13819e-14
7.76049e-14
4.18411e-14
7.755e-14
4.22955e-14
7.74943e-14
4.27448e-14
7.74379e-14
4.31893e-14
7.73809e-14
4.36289e-14
7.73235e-14
4.40641e-14
7.72652e-14
4.44945e-14
7.72066e-14
4.49199e-14
7.71477e-14
4.53406e-14
7.70888e-14
4.57566e-14
7.70297e-14
4.61679e-14
7.69703e-14
4.65744e-14
7.69103e-14
4.6976e-14
7.68503e-14
4.73727e-14
7.67904e-14
4.77651e-14
7.67311e-14
4.81535e-14
7.66715e-14
4.85368e-14
7.66117e-14
4.89162e-14
7.65516e-14
4.92903e-14
7.64922e-14
4.96604e-14
7.6433e-14
5.00256e-14
7.6375e-14
5.03856e-14
7.63171e-14
5.07412e-14
7.626e-14
5.10931e-14
7.6204e-14
5.14407e-14
7.61484e-14
5.17838e-14
7.60932e-14
5.21226e-14
7.60379e-14
5.24561e-14
7.59831e-14
5.27855e-14
7.59298e-14
5.31106e-14
7.58777e-14
5.34324e-14
7.58258e-14
5.37491e-14
7.5775e-14
5.40621e-14
7.5725e-14
5.4371e-14
7.56756e-14
5.46749e-14
7.56266e-14
5.49763e-14
7.55782e-14
5.52727e-14
7.5531e-14
5.55645e-14
7.54861e-14
5.58526e-14
7.54415e-14
5.61373e-14
7.53971e-14
5.64191e-14
7.53522e-14
5.6697e-14
7.53088e-14
5.69708e-14
7.5267e-14
5.72415e-14
7.52266e-14
5.75074e-14
7.5187e-14
5.77713e-14
7.51476e-14
5.8033e-14
7.5108e-14
5.82912e-14
7.50702e-14
5.85454e-14
7.50348e-14
5.87968e-14
7.49983e-14
5.90453e-14
7.49623e-14
5.92893e-14
7.49307e-14
5.95315e-14
7.49001e-14
5.97731e-14
7.48691e-14
6.00118e-14
7.48395e-14
6.02475e-14
7.48121e-14
6.04814e-14
7.4785e-14
6.07126e-14
7.47598e-14
6.09417e-14
7.47374e-14
6.1165e-14
7.47159e-14
6.13878e-14
7.4696e-14
6.16081e-14
7.46789e-14
6.18262e-14
7.46631e-14
6.20426e-14
7.46483e-14
6.22573e-14
7.46338e-14
6.24714e-14
7.46198e-14
6.26847e-14
7.46073e-14
6.28956e-14
7.45986e-14
6.31061e-14
7.45896e-14
6.33174e-14
7.45774e-14
6.35265e-14
7.45681e-14
6.3736e-14
7.45604e-14
6.39414e-14
7.45544e-14
6.41483e-14
7.45488e-14
6.43507e-14
7.45423e-14
6.45572e-14
7.45365e-14
6.47587e-14
7.45345e-14
6.49596e-14
7.45351e-14
6.51579e-14
7.45414e-14
6.53583e-14
7.45491e-14
6.55573e-14
7.45568e-14
6.57564e-14
7.45613e-14
6.59506e-14
7.45756e-14
6.61443e-14
7.45919e-14
6.6331e-14
7.46087e-14
6.65217e-14
7.46213e-14
6.67064e-14
7.46414e-14
6.68882e-14
7.46625e-14
6.70699e-14
7.46798e-14
6.72549e-14
7.46952e-14
6.74328e-14
7.47086e-14
6.76067e-14
7.47237e-14
6.77763e-14
7.47406e-14
6.79414e-14
7.4756e-14
6.81015e-14
7.477e-14
6.82669e-14
7.47829e-14
6.8434e-14
7.47982e-14
6.86025e-14
7.48161e-14
6.8765e-14
7.48296e-14
6.89285e-14
7.4846e-14
6.90854e-14
7.48654e-14
6.92427e-14
7.48843e-14
6.93966e-14
7.48954e-14
6.95504e-14
7.49135e-14
6.97039e-14
7.49315e-14
6.98569e-14
7.49379e-14
7.00131e-14
7.49288e-14
7.01571e-14
7.49345e-14
7.02963e-14
7.49514e-14
7.04458e-14
7.49601e-14
7.0598e-14
7.49606e-14
7.0737e-14
7.49722e-14
7.08784e-14
7.49832e-14
7.1022e-14
7.49895e-14
7.11638e-14
7.50027e-14
7.12958e-14
7.50269e-14
7.14174e-14
7.50419e-14
7.15405e-14
7.50397e-14
7.16569e-14
7.50441e-14
7.1807e-14
7.50468e-14
7.19504e-14
7.50637e-14
7.20791e-14
7.50861e-14
7.22091e-14
7.51058e-14
7.23407e-14
7.51307e-14
7.24654e-14
7.51271e-14
7.25918e-14
7.51361e-14
7.27199e-14
7.5157e-14
7.28583e-14
7.51644e-14
7.29822e-14
7.51741e-14
7.31086e-14
7.5194e-14
7.32294e-14
7.52238e-14
7.33532e-14
7.52289e-14
7.3489e-14
7.52168e-14
7.3621e-14
7.52283e-14
7.37412e-14
7.52624e-14
7.38586e-14
7.52927e-14
7.39736e-14
7.53096e-14
7.40953e-14
7.53292e-14
7.41901e-14
7.53504e-14
7.43186e-14
7.5398e-14
7.44295e-14
7.54538e-14
7.45491e-14
7.54822e-14
7.46349e-14
7.55166e-14
7.47301e-14
7.55561e-14
7.48263e-14
7.56258e-14
7.49232e-14
7.56909e-14
7.50554e-14
7.57331e-14
7.51547e-14
7.57418e-14
7.52223e-14
7.57664e-14
7.53104e-14
7.58059e-14
7.54016e-14
7.58244e-14
7.54971e-14
7.58896e-14
7.55804e-14
7.60005e-14
7.56673e-14
7.6054e-14
7.5741e-14
7.60838e-14
7.58197e-14
7.60711e-14
7.58885e-14
7.6082e-14
7.59492e-14
7.61144e-14
7.60023e-14
7.61671e-14
7.60649e-14
7.62058e-14
7.61201e-14
7.62297e-14
7.62031e-14
7.62893e-14
7.62627e-14
7.63828e-14
7.63319e-14
7.6443e-14
7.64103e-14
7.65036e-14
7.64817e-14
7.65297e-14
7.6565e-14
7.65534e-14
7.65951e-14
7.66737e-14
7.66527e-14
7.67425e-14
7.67207e-14
7.68106e-14
7.67481e-14
7.68445e-14
7.6767e-14
7.69806e-14
7.68377e-14
7.70067e-14
7.68959e-14
7.70386e-14
7.69595e-14
7.71594e-14
7.7076e-14
7.72403e-14
7.71813e-14
7.73297e-14
7.72609e-14
7.74446e-14
7.73781e-14
7.74915e-14
7.74735e-14
7.75673e-14
7.75824e-14
7.75394e-14
7.76172e-14
7.75889e-14
7.764e-14
7.77477e-14
7.76701e-14
7.78382e-14
7.76713e-14
7.7775e-14
7.76164e-14
7.77448e-14
7.76875e-14
7.77481e-14
7.76389e-14
7.77437e-14
7.7621e-14
7.77321e-14
7.76603e-14
7.78086e-14
7.77196e-14
7.79174e-14
7.77653e-14
7.79126e-14
7.77728e-14
7.7912e-14
7.77699e-14
7.79148e-14
7.77826e-14
7.79806e-14
7.78877e-14
7.80001e-14
7.79461e-14
7.79946e-14
7.80269e-14
7.80378e-14
7.80476e-14
7.81193e-14
7.80571e-14
7.82153e-14
7.82098e-14
7.83394e-14
7.82573e-14
7.85755e-14
7.83335e-14
7.87293e-14
7.84769e-14
7.88463e-14
7.8586e-14
7.89565e-14
7.87111e-14
7.90658e-14
7.88683e-14
7.91452e-14
7.90715e-14
7.91812e-14
7.93071e-14
7.92825e-14
7.93987e-14
7.94484e-14
7.94919e-14
7.94858e-14
7.95732e-14
7.9566e-14
7.96403e-14
7.96401e-14
7.97423e-14
7.97503e-14
7.98293e-14
7.98424e-14
7.98522e-14
7.98686e-14
7.67768e-14
7.8008e-14
7.67749e-14
7.80076e-14
7.67728e-14
7.80072e-14
7.67697e-14
7.80064e-14
7.67656e-14
7.80054e-14
7.67603e-14
7.8004e-14
7.67539e-14
7.80024e-14
7.67463e-14
7.80004e-14
7.67377e-14
7.79981e-14
7.67279e-14
7.79955e-14
7.67171e-14
7.79925e-14
7.67052e-14
7.79892e-14
7.66923e-14
7.79856e-14
7.66782e-14
7.79818e-14
7.66634e-14
7.79775e-14
7.66475e-14
7.79728e-14
7.66305e-14
7.79679e-14
7.66128e-14
7.79625e-14
7.65941e-14
7.79569e-14
7.65746e-14
7.79509e-14
7.65543e-14
7.79443e-14
7.65332e-14
7.79373e-14
7.65113e-14
7.793e-14
7.64885e-14
7.79223e-14
7.64652e-14
7.79139e-14
7.64413e-14
7.79053e-14
7.64166e-14
7.78962e-14
7.63912e-14
7.78864e-14
7.63654e-14
7.78761e-14
7.6339e-14
7.78655e-14
7.6312e-14
7.78544e-14
7.62847e-14
7.78427e-14
7.62568e-14
7.78305e-14
7.62284e-14
7.78178e-14
7.61995e-14
7.78044e-14
7.61701e-14
7.77907e-14
7.61405e-14
7.77766e-14
7.61102e-14
7.77622e-14
7.60799e-14
7.77473e-14
7.60493e-14
7.77315e-14
7.60189e-14
7.77151e-14
7.59883e-14
7.76983e-14
7.59574e-14
7.76806e-14
7.59263e-14
7.76624e-14
7.58951e-14
7.76435e-14
7.58638e-14
7.7624e-14
7.58329e-14
7.76034e-14
7.58019e-14
7.75816e-14
7.57705e-14
7.75602e-14
7.57395e-14
7.75387e-14
7.57085e-14
7.75156e-14
7.56776e-14
7.74919e-14
7.56464e-14
7.74688e-14
7.56149e-14
7.74448e-14
7.5584e-14
7.74202e-14
7.55533e-14
7.73955e-14
7.55234e-14
7.73695e-14
7.54929e-14
7.73435e-14
7.54632e-14
7.73163e-14
7.54338e-14
7.72882e-14
7.54047e-14
7.72593e-14
7.53761e-14
7.72303e-14
7.53478e-14
7.72007e-14
7.53208e-14
7.71704e-14
7.52943e-14
7.71394e-14
7.52683e-14
7.71078e-14
7.52419e-14
7.7077e-14
7.52156e-14
7.70461e-14
7.51893e-14
7.70138e-14
7.51633e-14
7.69825e-14
7.51366e-14
7.69529e-14
7.51095e-14
7.69251e-14
7.50829e-14
7.68962e-14
7.50567e-14
7.68661e-14
7.50328e-14
7.68347e-14
7.50092e-14
7.6802e-14
7.49859e-14
7.67707e-14
7.49619e-14
7.67402e-14
7.49411e-14
7.67047e-14
7.49212e-14
7.66681e-14
7.49019e-14
7.66331e-14
7.48834e-14
7.65987e-14
7.48652e-14
7.65622e-14
7.48472e-14
7.65244e-14
7.48309e-14
7.64862e-14
7.48156e-14
7.64497e-14
7.47999e-14
7.64149e-14
7.47839e-14
7.6379e-14
7.47677e-14
7.63427e-14
7.47522e-14
7.63074e-14
7.47394e-14
7.62718e-14
7.47267e-14
7.6236e-14
7.47142e-14
7.62012e-14
7.47032e-14
7.61669e-14
7.46919e-14
7.61323e-14
7.46816e-14
7.60996e-14
7.46724e-14
7.60667e-14
7.46631e-14
7.60329e-14
7.4655e-14
7.59989e-14
7.46477e-14
7.5964e-14
7.46397e-14
7.59304e-14
7.46361e-14
7.5901e-14
7.46335e-14
7.58737e-14
7.46333e-14
7.58426e-14
7.46284e-14
7.58167e-14
7.46277e-14
7.57899e-14
7.46237e-14
7.57668e-14
7.46196e-14
7.57431e-14
7.46154e-14
7.57201e-14
7.46142e-14
7.5698e-14
7.4619e-14
7.56738e-14
7.46194e-14
7.56505e-14
7.46215e-14
7.56281e-14
7.46207e-14
7.56082e-14
7.46233e-14
7.55893e-14
7.46263e-14
7.55714e-14
7.46265e-14
7.55594e-14
7.46255e-14
7.55438e-14
7.46266e-14
7.5526e-14
7.46314e-14
7.55029e-14
7.46385e-14
7.54875e-14
7.46363e-14
7.54816e-14
7.46364e-14
7.5472e-14
7.46388e-14
7.54552e-14
7.46402e-14
7.54415e-14
7.46424e-14
7.54342e-14
7.46556e-14
7.54231e-14
7.46768e-14
7.54152e-14
7.4699e-14
7.54105e-14
7.47118e-14
7.54054e-14
7.4733e-14
7.53965e-14
7.4759e-14
7.53943e-14
7.47866e-14
7.54025e-14
7.48122e-14
7.54141e-14
7.48395e-14
7.54254e-14
7.48685e-14
7.54365e-14
7.48993e-14
7.54474e-14
7.49248e-14
7.54655e-14
7.49446e-14
7.54836e-14
7.49741e-14
7.54942e-14
7.50057e-14
7.55085e-14
7.50395e-14
7.55383e-14
7.50834e-14
7.55646e-14
7.51065e-14
7.55797e-14
7.5136e-14
7.55914e-14
7.5172e-14
7.56114e-14
7.52028e-14
7.56359e-14
7.52483e-14
7.56692e-14
7.52928e-14
7.57074e-14
7.53322e-14
7.57349e-14
7.53788e-14
7.57515e-14
7.54208e-14
7.57733e-14
7.54665e-14
7.58167e-14
7.54997e-14
7.5866e-14
7.55365e-14
7.59133e-14
7.55768e-14
7.59345e-14
7.56126e-14
7.59624e-14
7.56604e-14
7.60139e-14
7.57036e-14
7.60561e-14
7.57507e-14
7.60812e-14
7.58102e-14
7.61143e-14
7.58489e-14
7.61554e-14
7.59004e-14
7.61631e-14
7.59397e-14
7.61621e-14
7.59843e-14
7.61946e-14
7.60258e-14
7.62355e-14
7.60727e-14
7.62937e-14
7.61162e-14
7.63361e-14
7.61563e-14
7.63631e-14
7.62016e-14
7.64177e-14
7.6252e-14
7.64491e-14
7.62991e-14
7.64746e-14
7.63606e-14
7.65203e-14
7.64108e-14
7.65778e-14
7.64497e-14
7.6648e-14
7.65112e-14
7.66884e-14
7.65696e-14
7.67254e-14
7.66257e-14
7.67765e-14
7.66796e-14
7.68247e-14
7.67317e-14
7.69052e-14
7.67815e-14
7.69756e-14
7.68455e-14
7.70461e-14
7.69065e-14
7.70832e-14
7.69827e-14
7.70871e-14
7.70241e-14
7.71263e-14
7.70133e-14
7.71842e-14
7.70873e-14
7.72281e-14
7.7108e-14
7.72748e-14
7.71265e-14
7.7308e-14
7.71422e-14
7.73293e-14
7.71547e-14
7.73226e-14
7.71642e-14
7.73403e-14
7.71874e-14
7.73312e-14
7.72083e-14
7.73462e-14
7.7244e-14
7.73511e-14
7.72788e-14
7.74144e-14
7.73111e-14
7.74518e-14
7.73582e-14
7.74979e-14
7.73857e-14
7.7519e-14
7.74108e-14
7.75324e-14
7.74334e-14
7.75554e-14
7.74528e-14
7.75721e-14
7.74525e-14
7.76491e-14
7.7479e-14
7.76722e-14
7.75316e-14
7.76586e-14
7.7547e-14
7.77234e-14
7.75402e-14
7.77332e-14
7.75758e-14
7.77235e-14
7.75722e-14
7.7759e-14
7.76259e-14
7.78236e-14
7.76675e-14
7.7852e-14
7.77293e-14
7.78593e-14
7.77649e-14
7.78233e-14
7.78098e-14
7.79016e-14
7.78926e-14
7.79982e-14
7.79789e-14
7.80544e-14
7.80404e-14
7.8037e-14
7.80213e-14
7.79987e-14
7.80189e-14
7.79655e-14
7.81001e-14
7.7968e-14
7.80874e-14
7.80322e-14
7.80987e-14
7.81043e-14
7.81316e-14
7.80681e-14
7.81651e-14
7.80739e-14
7.81411e-14
7.81151e-14
7.81428e-14
7.81331e-14
7.81975e-14
7.81316e-14
7.82233e-14
7.81657e-14
7.83137e-14
7.81471e-14
7.83674e-14
7.81483e-14
7.83908e-14
7.82503e-14
7.84334e-14
7.83499e-14
7.84569e-14
7.84589e-14
7.85391e-14
7.85335e-14
7.85416e-14
7.86308e-14
7.86715e-14
7.8793e-14
7.87571e-14
7.89342e-14
7.87626e-14
7.90079e-14
7.88911e-14
7.90817e-14
7.91237e-14
7.9201e-14
7.92399e-14
7.92912e-14
7.93265e-14
7.92948e-14
7.94175e-14
7.93856e-14
7.95262e-14
7.94799e-14
7.96043e-14
7.95669e-14
7.97031e-14
7.96004e-14
7.97875e-14
7.97735e-14
7.98399e-14
7.99056e-14
7.98878e-14
7.99679e-14
7.99221e-14
8.00151e-14
7.99137e-14
7.99318e-14
8.00575e-14
8.00357e-14
8.01447e-14
8.00778e-14
8.01369e-14
8.00463e-14
8.01394e-14
8.0095e-14
8.02032e-14
8.01835e-14
8.02108e-14
8.02643e-14
8.02748e-14
8.02986e-14
8.02728e-14
8.0307e-14
8.0256e-14
8.03188e-14
8.02709e-14
8.03369e-14
8.02915e-14
8.03366e-14
8.03438e-14
8.03678e-14
8.03869e-14
8.04263e-14
8.03943e-14
8.04064e-14
8.03408e-14
8.0385e-14
8.03631e-14
8.04276e-14
8.0375e-14
8.04821e-14
8.03706e-14
8.04123e-14
8.03609e-14
8.03852e-14
8.03227e-14
8.03717e-14
8.03106e-14
8.03415e-14
8.0297e-14
8.02883e-14
8.02869e-14
8.02939e-14
8.02807e-14
8.02984e-14
8.02739e-14
8.03043e-14
8.02643e-14
8.03139e-14
8.02504e-14
8.02677e-14
8.02049e-14
8.01909e-14
8.02236e-14
8.01425e-14
8.02495e-14
8.0116e-14
8.01909e-14
8.01683e-14
8.01333e-14
8.02487e-14
8.00948e-14
8.02472e-14
8.01346e-14
8.01983e-14
8.01662e-14
8.02218e-14
8.01612e-14
8.02188e-14
8.01505e-14
8.01879e-14
8.01361e-14
8.01933e-14
8.0117e-14
8.02025e-14
8.00918e-14
8.015e-14
8.00957e-14
8.01011e-14
8.00833e-14
8.01364e-14
8.00511e-14
8.01088e-14
8.00155e-14
8.01017e-14
7.99913e-14
8.00344e-14
7.99824e-14
8.00043e-14
7.99233e-14
7.99743e-14
7.98972e-14
7.99288e-14
7.98888e-14
7.99004e-14
7.98474e-14
7.98697e-14
7.97883e-14
7.98547e-14
7.97611e-14
7.98226e-14
7.97491e-14
7.97734e-14
7.97029e-14
7.97399e-14
7.96727e-14
7.97568e-14
7.96565e-14
7.98089e-14
7.96183e-14
7.98297e-14
7.95898e-14
7.97873e-14
7.9554e-14
7.97333e-14
7.95458e-14
7.97193e-14
7.95311e-14
7.97453e-14
7.95267e-14
7.97432e-14
7.9516e-14
7.97305e-14
7.95163e-14
7.969e-14
7.94946e-14
7.96898e-14
7.94853e-14
7.96783e-14
7.9489e-14
7.96722e-14
7.94887e-14
7.96364e-14
7.94859e-14
7.95873e-14
7.94466e-14
7.95582e-14
7.94226e-14
7.95321e-14
7.944e-14
7.95437e-14
7.94383e-14
7.95233e-14
7.9418e-14
7.94965e-14
7.94138e-14
7.94802e-14
7.93999e-14
7.94914e-14
7.93934e-14
7.94615e-14
7.93859e-14
7.93987e-14
7.93784e-14
7.93881e-14
7.93623e-14
7.94035e-14
7.93628e-14
7.94108e-14
7.93455e-14
7.94015e-14
7.9336e-14
7.93845e-14
7.93344e-14
7.93599e-14
7.9324e-14
7.93528e-14
7.93217e-14
7.93461e-14
7.93107e-14
7.93398e-14
7.92993e-14
7.93337e-14
7.93043e-14
7.93194e-14
7.9284e-14
7.93302e-14
7.92715e-14
7.93579e-14
7.92582e-14
7.93695e-14
7.92521e-14
7.93489e-14
7.92367e-14
7.93539e-14
7.92367e-14
7.93515e-14
7.92275e-14
7.935e-14
7.92336e-14
7.93493e-14
7.92387e-14
7.93577e-14
7.92348e-14
7.93508e-14
7.923e-14
7.93447e-14
7.92284e-14
7.93436e-14
7.92339e-14
7.93434e-14
7.92348e-14
7.93439e-14
7.92388e-14
7.93492e-14
7.92461e-14
7.93513e-14
7.92567e-14
7.93424e-14
7.92513e-14
7.9338e-14
7.92532e-14
7.9338e-14
7.92624e-14
7.93347e-14
7.92712e-14
7.93318e-14
7.92798e-14
7.93369e-14
7.92845e-14
7.93384e-14
7.92816e-14
7.9344e-14
7.92859e-14
7.93386e-14
7.92865e-14
7.93261e-14
7.92907e-14
7.93212e-14
7.9295e-14
7.93164e-14
7.9292e-14
7.93189e-14
7.92926e-14
7.9325e-14
7.92933e-14
7.93241e-14
7.92939e-14
7.93233e-14
7.92911e-14
7.93226e-14
7.92953e-14
7.93255e-14
7.92996e-14
7.93319e-14
7.92935e-14
7.93315e-14
7.92875e-14
7.93244e-14
7.92849e-14
7.93225e-14
7.92841e-14
7.93291e-14
7.92749e-14
7.93324e-14
7.92675e-14
7.93309e-14
7.92583e-14
7.93345e-14
7.92557e-14
7.93398e-14
7.92546e-14
7.93405e-14
7.92486e-14
7.93397e-14
7.92425e-14
7.93439e-14
7.92363e-14
7.93514e-14
7.923e-14
7.93591e-14
7.92283e-14
7.93608e-14
7.92232e-14
7.93627e-14
7.92181e-14
7.93649e-14
7.92143e-14
7.93703e-14
7.92148e-14
7.93714e-14
7.92151e-14
7.93728e-14
7.92167e-14
7.93729e-14
7.9218e-14
7.93733e-14
7.92192e-14
7.93738e-14
7.92188e-14
7.93746e-14
7.92153e-14
7.93741e-14
7.92159e-14
7.93753e-14
7.92193e-14
7.9376e-14
7.92196e-14
7.93747e-14
7.92191e-14
7.93722e-14
7.92199e-14
7.93698e-14
7.92212e-14
7.93684e-14
7.92231e-14
7.93685e-14
7.92234e-14
7.93702e-14
7.92244e-14
7.93691e-14
7.92267e-14
7.93662e-14
7.92288e-14
7.93647e-14
7.92302e-14
7.93634e-14
7.92315e-14
7.93622e-14
7.9232e-14
7.9361e-14
7.92324e-14
7.936e-14
7.92327e-14
7.93598e-14
7.9233e-14
7.93597e-14
7.92347e-14
7.93582e-14
7.92341e-14
7.93582e-14
7.92327e-14
7.93606e-14
7.92327e-14
7.93631e-14
7.92323e-14
7.93649e-14
7.923e-14
7.9366e-14
7.92283e-14
7.93673e-14
7.92269e-14
7.93682e-14
7.92259e-14
7.93708e-14
7.92256e-14
7.93731e-14
7.92248e-14
7.93743e-14
7.92239e-14
7.93743e-14
7.92222e-14
7.93753e-14
7.92217e-14
7.93759e-14
7.92211e-14
7.93775e-14
7.92195e-14
7.93778e-14
7.92188e-14
7.93769e-14
7.92189e-14
7.93764e-14
7.92186e-14
7.9377e-14
7.92186e-14
7.93764e-14
7.92186e-14
7.93756e-14
7.92186e-14
7.93761e-14
7.92185e-14
7.93767e-14
7.92191e-14
7.93755e-14
7.92192e-14
7.93744e-14
7.92185e-14
7.93741e-14
7.92186e-14
7.93741e-14
7.92189e-14
7.93736e-14
7.92188e-14
7.93734e-14
7.92182e-14
7.93735e-14
7.92176e-14
7.93737e-14
7.92172e-14
7.93739e-14
7.92165e-14
7.93741e-14
7.92167e-14
7.93741e-14
7.92166e-14
7.93739e-14
7.92167e-14
7.93725e-14
7.92163e-14
7.9372e-14
7.92162e-14
7.93724e-14
7.92164e-14
7.93723e-14
7.92163e-14
7.93717e-14
7.92163e-14
7.9371e-14
7.92163e-14
7.93705e-14
7.92162e-14
7.93702e-14
7.92162e-14
7.93698e-14
7.92161e-14
7.9369e-14
7.92162e-14
7.93685e-14
7.92161e-14
7.93687e-14
7.92163e-14
7.93685e-14
7.92163e-14
7.93683e-14
7.92164e-14
7.93683e-14
7.92164e-14
7.93681e-14
7.92167e-14
7.93677e-14
7.92172e-14
7.93675e-14
7.9217e-14
7.93673e-14
7.92171e-14
7.93673e-14
7.92173e-14
7.93671e-14
7.92175e-14
7.93668e-14
7.92175e-14
7.93669e-14
7.92177e-14
7.93671e-14
7.92179e-14
7.93671e-14
7.9218e-14
7.9367e-14
7.9218e-14
7.9367e-14
7.9218e-14
7.9367e-14
7.92179e-14
7.93671e-14
7.9218e-14
7.93671e-14
7.9218e-14
7.9367e-14
7.9218e-14
7.93671e-14
7.92181e-14
7.93671e-14
7.92181e-14
7.93671e-14
7.9218e-14
7.9367e-14
7.9218e-14
7.9367e-14
7.92181e-14
7.9367e-14
7.92181e-14
7.93669e-14
7.92181e-14
7.93669e-14
7.9218e-14
7.93669e-14
7.9218e-14
7.93669e-14
7.92181e-14
7.9367e-14
7.92181e-14
7.9367e-14
7.92181e-14
7.9367e-14
7.92181e-14
7.9367e-14
7.92181e-14
7.9367e-14
7.92181e-14
7.9367e-14
7.92181e-14
7.9367e-14
7.92181e-14
7.9367e-14
8.00459e-14
8.00551e-14
8.01325e-14
8.0062e-14
8.01952e-14
8.01065e-14
8.02342e-14
8.00792e-14
8.01635e-14
8.01243e-14
8.02654e-14
8.02175e-14
8.03321e-14
8.03042e-14
8.03373e-14
8.03353e-14
8.03495e-14
8.03429e-14
8.0371e-14
8.03804e-14
8.03744e-14
8.03706e-14
8.04723e-14
8.03911e-14
8.0405e-14
8.04301e-14
8.0395e-14
8.04225e-14
8.04096e-14
8.04479e-14
8.03905e-14
8.03965e-14
8.03741e-14
8.04048e-14
8.03831e-14
8.03868e-14
8.03628e-14
8.03032e-14
8.02907e-14
8.02326e-14
8.02811e-14
8.02628e-14
8.02711e-14
8.02837e-14
8.02569e-14
8.03027e-14
8.02042e-14
8.03283e-14
8.02545e-14
8.03091e-14
8.02665e-14
8.02966e-14
8.02439e-14
8.0287e-14
8.02155e-14
8.02803e-14
8.02101e-14
8.0218e-14
8.02358e-14
8.0189e-14
8.02666e-14
8.02212e-14
8.02065e-14
8.02223e-14
8.02097e-14
8.01307e-14
8.0255e-14
8.0124e-14
8.02204e-14
8.01341e-14
8.01631e-14
8.01675e-14
8.02032e-14
8.01994e-14
8.01796e-14
8.01647e-14
8.0158e-14
8.0194e-14
8.01346e-14
8.02258e-14
8.01058e-14
8.01481e-14
8.00747e-14
8.00893e-14
8.00754e-14
8.00979e-14
8.00578e-14
8.00898e-14
8.00386e-14
7.99988e-14
7.99713e-14
7.9987e-14
7.99025e-14
8.00427e-14
7.98586e-14
8.00044e-14
7.98059e-14
7.99909e-14
7.98106e-14
8.00215e-14
7.98214e-14
7.99788e-14
7.97733e-14
7.99794e-14
7.97334e-14
7.99396e-14
7.96847e-14
7.98931e-14
7.96956e-14
7.98914e-14
7.96817e-14
7.98998e-14
7.96256e-14
7.99187e-14
7.96455e-14
7.98802e-14
7.9658e-14
7.98156e-14
7.96491e-14
7.97565e-14
7.96385e-14
7.97184e-14
7.9592e-14
7.97e-14
7.95606e-14
7.9684e-14
7.95612e-14
7.96358e-14
7.95255e-14
7.96058e-14
7.95053e-14
7.95941e-14
7.9483e-14
7.96009e-14
7.94579e-14
7.95921e-14
7.94293e-14
7.95681e-14
7.94318e-14
7.95464e-14
7.94314e-14
7.94919e-14
7.94208e-14
7.94554e-14
7.94095e-14
7.94537e-14
7.94058e-14
7.94606e-14
7.94008e-14
7.94506e-14
7.93948e-14
7.94324e-14
7.9388e-14
7.94144e-14
7.93719e-14
7.93963e-14
7.9364e-14
7.93695e-14
7.93645e-14
7.93942e-14
7.93645e-14
7.94194e-14
7.9355e-14
7.94111e-14
7.93534e-14
7.93865e-14
7.93514e-14
7.93537e-14
7.93323e-14
7.93379e-14
7.93218e-14
7.9339e-14
7.9328e-14
7.93488e-14
7.93256e-14
7.93503e-14
7.93145e-14
7.93606e-14
7.93115e-14
7.93715e-14
7.92995e-14
7.93832e-14
7.92952e-14
7.93793e-14
7.92902e-14
7.93846e-14
7.92845e-14
7.93825e-14
7.92699e-14
7.93731e-14
7.92628e-14
7.9373e-14
7.92467e-14
7.93657e-14
7.92544e-14
7.93512e-14
7.92532e-14
7.93457e-14
7.92514e-14
7.93328e-14
7.92572e-14
7.93204e-14
7.92505e-14
7.93124e-14
7.92476e-14
7.93048e-14
7.92444e-14
7.93014e-14
7.92448e-14
7.93022e-14
7.92409e-14
7.9311e-14
7.92406e-14
7.93045e-14
7.92476e-14
7.93021e-14
7.9235e-14
7.93076e-14
7.92259e-14
7.93096e-14
7.92202e-14
7.93157e-14
7.92215e-14
7.93222e-14
7.92223e-14
7.93253e-14
7.92224e-14
7.93362e-14
7.92183e-14
7.93365e-14
7.92209e-14
7.93335e-14
7.92192e-14
7.93346e-14
7.92207e-14
7.93289e-14
7.9218e-14
7.93273e-14
7.92184e-14
7.93261e-14
7.92148e-14
7.93217e-14
7.92142e-14
7.93212e-14
7.92097e-14
7.93246e-14
7.92082e-14
7.93282e-14
7.92063e-14
7.93288e-14
7.92039e-14
7.93228e-14
7.92045e-14
7.93206e-14
7.92013e-14
7.93271e-14
7.91961e-14
7.93339e-14
7.91937e-14
7.93326e-14
7.91943e-14
7.93235e-14
7.91896e-14
7.93229e-14
7.9191e-14
7.93226e-14
7.91905e-14
7.93209e-14
7.91897e-14
7.93179e-14
7.91822e-14
7.93199e-14
7.91823e-14
7.93236e-14
7.91853e-14
7.93245e-14
7.91787e-14
7.93271e-14
7.91779e-14
7.93329e-14
7.9183e-14
7.93405e-14
7.91848e-14
7.93422e-14
7.91863e-14
7.93411e-14
7.9186e-14
7.93402e-14
7.9187e-14
7.93395e-14
7.91922e-14
7.9336e-14
7.91942e-14
7.93357e-14
7.91946e-14
7.9334e-14
7.91947e-14
7.93311e-14
7.91962e-14
7.93311e-14
7.91989e-14
7.93299e-14
7.92008e-14
7.93266e-14
7.92003e-14
7.93235e-14
7.92019e-14
7.93212e-14
7.92019e-14
7.93196e-14
7.92025e-14
7.93189e-14
7.9203e-14
7.93197e-14
7.92041e-14
7.93198e-14
7.92044e-14
7.932e-14
7.92025e-14
7.93225e-14
7.92004e-14
7.93243e-14
7.9199e-14
7.93247e-14
7.91988e-14
7.93245e-14
7.91972e-14
7.93244e-14
7.91947e-14
7.93258e-14
7.91928e-14
7.93265e-14
7.91923e-14
7.93259e-14
7.91902e-14
7.93253e-14
7.91888e-14
7.93263e-14
7.91884e-14
7.93255e-14
7.91875e-14
7.93247e-14
7.91869e-14
7.93237e-14
7.9187e-14
7.93234e-14
7.9185e-14
7.93243e-14
7.91842e-14
7.93242e-14
7.9184e-14
7.93236e-14
7.91838e-14
7.93232e-14
7.91832e-14
7.93227e-14
7.91832e-14
7.93211e-14
7.91824e-14
7.93211e-14
7.9182e-14
7.93217e-14
7.91823e-14
7.93205e-14
7.91822e-14
7.93198e-14
7.91824e-14
7.932e-14
7.91817e-14
7.93203e-14
7.918e-14
7.93206e-14
7.91792e-14
7.93209e-14
7.91785e-14
7.93206e-14
7.91781e-14
7.93202e-14
7.91775e-14
7.93199e-14
7.91772e-14
7.93202e-14
7.91769e-14
7.93204e-14
7.91762e-14
7.93205e-14
7.91758e-14
7.93203e-14
7.91755e-14
7.93204e-14
7.91753e-14
7.9321e-14
7.9175e-14
7.93212e-14
7.91749e-14
7.93211e-14
7.91754e-14
7.9321e-14
7.91756e-14
7.93215e-14
7.9175e-14
7.93225e-14
7.9175e-14
7.93229e-14
7.91753e-14
7.93228e-14
7.91755e-14
7.93226e-14
7.91757e-14
7.93228e-14
7.91752e-14
7.93232e-14
7.91756e-14
7.93236e-14
7.91754e-14
7.93235e-14
7.91754e-14
7.93234e-14
7.91757e-14
7.93237e-14
7.9176e-14
7.93244e-14
7.9176e-14
7.93245e-14
7.91759e-14
7.93243e-14
7.9176e-14
7.93241e-14
7.91762e-14
7.9324e-14
7.91762e-14
7.93241e-14
7.91762e-14
7.93242e-14
7.91766e-14
7.93241e-14
7.91768e-14
7.93237e-14
7.91765e-14
7.93234e-14
7.91767e-14
7.93233e-14
7.9177e-14
7.9323e-14
7.91773e-14
7.93229e-14
7.91777e-14
7.93227e-14
7.91779e-14
7.93226e-14
7.91783e-14
7.93224e-14
7.91787e-14
7.93221e-14
7.91791e-14
7.93218e-14
7.91795e-14
7.93218e-14
7.91799e-14
7.93218e-14
7.91802e-14
7.93216e-14
7.91806e-14
7.93216e-14
7.91807e-14
7.93217e-14
7.91809e-14
7.93216e-14
7.91813e-14
7.93214e-14
7.91816e-14
7.93213e-14
7.91817e-14
7.93213e-14
7.91819e-14
7.93213e-14
7.9182e-14
7.93213e-14
7.9182e-14
7.93213e-14
7.91821e-14
7.93213e-14
7.91822e-14
7.93213e-14
7.91822e-14
7.93212e-14
7.91823e-14
7.93211e-14
7.91822e-14
7.93211e-14
7.91822e-14
7.93211e-14
7.91822e-14
7.93211e-14
7.91823e-14
7.93211e-14
7.91823e-14
7.93211e-14
7.91822e-14
7.93211e-14
)
;

boundaryField
{
    walls
    {
        type            zeroGradient;
    }
    inlet
    {
        type            cyclic;
    }
    outlet
    {
        type            cyclic;
    }
    sides
    {
        type            empty;
    }
}


// ************************************************************************* //
