/*--------------------------------*- C++ -*----------------------------------*\
| =========                 |                                                 |
| \\      /  F ield         | OpenFOAM: The Open Source CFD Toolbox           |
|  \\    /   O peration     | Version:  2106                                  |
|   \\  /    A nd           | Website:  www.openfoam.com                      |
|    \\/     M anipulation  |                                                 |
\*---------------------------------------------------------------------------*/
FoamFile
{
    version     2.0;
    format      ascii;
    arch        "LSB;label=32;scalar=64";
    class       surfaceScalarField;
    location    "10030";
    object      phi;
}
// * * * * * * * * * * * * * * * * * * * * * * * * * * * * * * * * * * * * * //

dimensions      [0 3 -1 0 0 0 0];

oriented        oriented;

internalField   nonuniform List<scalar> 
1596
(
7.04068e-08
-2.60217e-18
7.77616e-22
1.09967e-21
1.70995e-22
2.24721e-07
-2.61892e-18
6.00507e-21
1.10099e-20
8.48578e-22
4.01021e-07
-2.637e-18
6.52138e-21
2.16379e-20
9.72585e-22
6.0177e-07
-2.65631e-18
6.95526e-21
3.28631e-20
1.1123e-21
8.29684e-07
-2.67646e-18
7.38288e-21
4.4449e-20
1.26926e-21
1.08776e-06
-2.69797e-18
7.81472e-21
5.65529e-20
1.44514e-21
1.37929e-06
-2.72057e-18
8.24767e-21
6.95996e-20
1.64165e-21
1.70791e-06
-2.74389e-18
8.68047e-21
8.23094e-20
1.86052e-21
2.07764e-06
-2.76785e-18
9.11155e-21
9.51721e-20
2.10371e-21
2.49287e-06
-2.79348e-18
9.53782e-21
1.07927e-19
2.37332e-21
2.95847e-06
-2.81926e-18
9.95518e-21
1.21435e-19
2.67127e-21
3.47977e-06
-2.84507e-18
1.03585e-20
1.34342e-19
2.99926e-21
4.06263e-06
-2.87086e-18
1.07418e-20
1.46219e-19
3.35931e-21
4.7135e-06
-2.89598e-18
1.10985e-20
1.57681e-19
3.75339e-21
5.43946e-06
-2.92329e-18
1.1421e-20
1.68624e-19
4.183e-21
6.24824e-06
-2.94861e-18
1.1701e-20
1.79955e-19
4.64946e-21
7.14832e-06
-2.97635e-18
1.19289e-20
1.90777e-19
5.15234e-21
8.14895e-06
-3.00368e-18
1.2096e-20
2.00458e-19
5.69119e-21
9.26015e-06
-3.03062e-18
1.21908e-20
2.10212e-19
6.26505e-21
1.04928e-05
-3.05337e-18
1.22004e-20
2.15029e-19
6.87066e-21
1.18585e-05
-3.07761e-18
1.21107e-20
2.18019e-19
7.50393e-21
1.33698e-05
-3.10186e-18
1.19077e-20
2.19777e-19
8.1586e-21
1.50398e-05
-3.12259e-18
1.15786e-20
2.2012e-19
8.82563e-21
1.6882e-05
-3.13643e-18
1.11076e-20
2.15006e-19
9.49259e-21
1.89104e-05
-3.15264e-18
1.04757e-20
2.12068e-19
1.01428e-20
2.1139e-05
-3.16436e-18
9.67363e-21
2.07057e-19
1.07528e-20
2.35813e-05
-3.17285e-18
8.68964e-21
1.89627e-19
1.1299e-20
2.62503e-05
-3.1746e-18
7.52137e-21
1.72541e-19
1.17577e-20
2.91579e-05
-3.16882e-18
6.16804e-21
1.54381e-19
1.21028e-20
3.23146e-05
-3.16034e-18
4.63025e-21
1.27881e-19
1.2318e-20
3.57297e-05
-3.14742e-18
2.91582e-21
1.06957e-19
1.23744e-20
3.94111e-05
-3.11987e-18
1.05633e-21
6.86343e-20
1.2258e-20
4.33659e-05
-3.10371e-18
-9.37027e-22
3.05676e-20
1.19802e-20
4.76004e-05
-3.06684e-18
-2.99857e-21
-5.19187e-21
1.15148e-20
5.21208e-05
-3.02991e-18
-5.13087e-21
-4.7301e-20
1.08652e-20
5.69339e-05
-2.97723e-18
-7.29482e-21
-9.83303e-20
1.00586e-20
6.20472e-05
-2.89754e-18
-9.47018e-21
-1.71856e-19
9.12614e-21
6.74693e-05
-2.83805e-18
-1.16586e-20
-2.25298e-19
8.11227e-21
7.32104e-05
-2.76913e-18
-1.37979e-20
-2.93727e-19
7.00642e-21
7.92821e-05
-2.68179e-18
-1.5947e-20
-3.58653e-19
5.93187e-21
8.56977e-05
-2.63741e-18
-1.81505e-20
-3.96811e-19
4.84799e-21
9.24721e-05
-2.57205e-18
-2.01231e-20
-4.4173e-19
3.68517e-21
9.96218e-05
-2.49596e-18
-2.19845e-20
-4.93208e-19
2.47417e-21
0.000107165
-2.43032e-18
-2.36835e-20
-5.3597e-19
1.26526e-21
0.000115121
-2.35355e-18
-2.52091e-20
-5.73895e-19
8.20406e-23
0.000123512
-2.329e-18
-2.65382e-20
-6.06741e-19
-9.75335e-22
0.000132359
-2.24751e-18
-2.72882e-20
-6.5454e-19
-2.09228e-21
0.000141688
-2.21834e-18
-2.78881e-20
-7.13499e-19
-3.17389e-21
0.000151523
-2.15012e-18
-2.81232e-20
-7.55752e-19
-3.95473e-21
0.000161893
-2.05763e-18
-2.84112e-20
-7.7471e-19
-4.63355e-21
0.000172825
-1.99587e-18
-2.83968e-20
-8.18345e-19
-5.77728e-21
0.00018435
-1.87005e-18
-2.83232e-20
-8.48634e-19
-6.99642e-21
0.000196501
-1.80254e-18
-2.86741e-20
-8.63674e-19
-8.17011e-21
0.000209311
-1.71881e-18
-2.91005e-20
-8.91655e-19
-9.46449e-21
0.000222815
-1.65973e-18
-2.98247e-20
-9.44447e-19
-1.02918e-20
0.000237051
-1.64475e-18
-3.05358e-20
-9.0054e-19
-1.03389e-20
0.000252058
-1.52388e-18
-3.07752e-20
-9.17479e-19
-1.11832e-20
0.000267877
-1.50801e-18
-3.14482e-20
-9.23725e-19
-1.18216e-20
0.000284552
-1.42806e-18
-3.07157e-20
-9.32074e-19
-1.35033e-20
0.000302128
-1.38225e-18
-3.14651e-20
-9.61472e-19
-1.48071e-20
0.000320653
-1.29989e-18
-3.13796e-20
-9.16467e-19
-1.51997e-20
0.000340176
-1.27601e-18
-3.19203e-20
-9.16134e-19
-1.59039e-20
0.000360751
-1.23672e-18
-3.35883e-20
-8.46411e-19
-1.51687e-20
0.000382433
-1.25305e-18
-3.58237e-20
-7.74352e-19
-1.54299e-20
0.000405279
-1.18715e-18
-3.53692e-20
-7.64186e-19
-1.68766e-20
0.000429351
-1.14076e-18
-3.39733e-20
-8.11562e-19
-2.10288e-20
0.000454711
-1.0704e-18
-3.29769e-20
-8.44708e-19
-2.34677e-20
0.000481427
-9.96711e-19
-2.73269e-20
-8.64796e-19
-2.36748e-20
0.000509568
-9.98567e-19
-2.3586e-20
-8.39135e-19
-2.384e-20
0.000539208
-9.20121e-19
-2.13751e-20
-9.90437e-19
-2.46579e-20
0.000570422
-9.13162e-19
-2.30719e-20
-9.20512e-19
-1.88255e-20
0.000603292
-9.23026e-19
-2.22525e-20
-9.63283e-19
-1.82683e-20
0.000637901
-8.87454e-19
-2.24646e-20
-9.87075e-19
-2.23419e-20
0.000674336
-1.07918e-18
-2.59009e-20
-1.05165e-18
-3.59312e-20
0.00071269
-1.00443e-18
-2.97001e-20
-1.02325e-18
-3.62245e-20
0.000753057
-1.08234e-18
-3.32589e-20
-1.0393e-18
-3.52111e-20
0.000795537
-1.10605e-18
-2.31234e-20
-1.07056e-18
-2.82632e-20
0.000840235
-1.11991e-18
-1.4847e-20
-1.06621e-18
-2.93753e-20
0.000887257
-1.07541e-18
9.87407e-23
-1.03962e-18
-2.80246e-20
0.000936718
-9.97018e-19
6.77956e-21
-9.90165e-19
-2.53098e-20
0.000988733
-9.422e-19
2.52272e-21
-6.95293e-19
-2.5908e-20
0.00104342
-6.66057e-19
1.73249e-20
-8.12074e-19
-4.34048e-20
0.00110091
-6.74575e-19
-9.23349e-21
-6.60956e-19
-3.99348e-20
0.00116133
-6.41216e-19
-7.92503e-21
-6.93695e-19
-4.98581e-21
0.00122481
-6.11912e-19
-1.08106e-20
-5.89362e-19
-9.36202e-21
0.00129149
-6.0327e-19
-3.44384e-20
-6.31104e-19
-3.27884e-20
0.0013615
-5.18554e-19
-2.60555e-20
-7.01919e-19
-3.25064e-20
0.00143498
-5.78654e-19
-3.85262e-20
-6.71529e-19
5.99515e-21
0.00151207
-6.59273e-19
-6.37337e-20
-5.02709e-19
4.26341e-20
0.00159292
-5.21971e-19
-1.94666e-20
-4.92831e-19
1.23813e-20
0.00167764
-5.16102e-19
-2.76566e-20
-6.39725e-19
-1.49298e-20
0.00176637
-5.21641e-19
-4.33454e-20
-6.00825e-19
-2.3005e-20
0.00185922
-3.18212e-19
-6.03576e-20
-3.29033e-19
-7.24035e-20
0.00195629
-3.24711e-19
-1.26124e-19
-2.41427e-19
-3.48406e-20
0.00205764
-5.12623e-19
-4.43843e-20
-3.58077e-19
7.13698e-22
0.0021633
-4.93245e-19
4.9253e-20
-4.60533e-19
-4.39249e-21
0.00227324
-2.22089e-19
9.76782e-20
-3.03999e-19
-8.36241e-20
0.00238736
-2.47436e-19
1.19937e-19
-6.85113e-20
-3.28194e-20
0.00250547
-1.68276e-19
9.82014e-20
-3.41712e-19
-2.3976e-20
0.00262728
1.13427e-19
-1.64413e-19
1.04179e-19
-2.98654e-19
7.04068e-08
7.15858e-22
2.37885e-22
2.24721e-07
6.30647e-21
1.56752e-21
4.01021e-07
1.23751e-20
2.99178e-21
6.0177e-07
1.87182e-20
4.64735e-21
8.29684e-07
2.54005e-20
6.59315e-21
1.08776e-06
3.28478e-20
8.48159e-21
1.37929e-06
4.05016e-20
1.08274e-20
1.70791e-06
4.84905e-20
1.32925e-20
2.07764e-06
5.66764e-20
1.66359e-20
2.49287e-06
6.49644e-20
2.0071e-20
2.95847e-06
7.3881e-20
2.35693e-20
3.47977e-06
8.30631e-20
2.80615e-20
4.06263e-06
9.18786e-20
3.36349e-20
4.7135e-06
1.01439e-19
3.96301e-20
5.43946e-06
1.10224e-19
4.66073e-20
6.24824e-06
1.19357e-19
5.29824e-20
7.14832e-06
1.29827e-19
6.0239e-20
8.14895e-06
1.38135e-19
6.9334e-20
9.26015e-06
1.45134e-19
8.05259e-20
1.04928e-05
1.54484e-19
8.97133e-20
1.18585e-05
1.61819e-19
1.00385e-19
1.33698e-05
1.70907e-19
1.11839e-19
1.50398e-05
1.80404e-19
1.2361e-19
1.6882e-05
1.87141e-19
1.35674e-19
1.89104e-05
1.93113e-19
1.50577e-19
2.1139e-05
1.96472e-19
1.6735e-19
2.35813e-05
2.00398e-19
1.79981e-19
2.62503e-05
2.03105e-19
1.94033e-19
2.91579e-05
2.01128e-19
2.17128e-19
3.23146e-05
1.93967e-19
2.3215e-19
3.57297e-05
1.9342e-19
2.53506e-19
3.94111e-05
1.85132e-19
2.75277e-19
4.33659e-05
1.78255e-19
2.90533e-19
4.76004e-05
1.67083e-19
3.07611e-19
5.21208e-05
1.54207e-19
3.27043e-19
5.69339e-05
1.48512e-19
3.45484e-19
6.20472e-05
1.58791e-19
3.47855e-19
6.74693e-05
1.67514e-19
3.48053e-19
7.32104e-05
1.65136e-19
3.5687e-19
7.92821e-05
1.62974e-19
3.50981e-19
8.56977e-05
1.87162e-19
3.51187e-19
9.24721e-05
1.80884e-19
3.40329e-19
9.96218e-05
1.76656e-19
3.24328e-19
0.000107165
1.50037e-19
3.11258e-19
0.000115121
1.34575e-19
3.208e-19
0.000123512
1.31067e-19
3.00509e-19
0.000132359
1.11139e-19
2.6975e-19
0.000141688
7.96437e-20
2.5892e-19
0.000151523
4.31221e-20
2.45133e-19
0.000161893
8.51425e-20
2.04921e-19
0.000172825
6.40866e-20
1.63909e-19
0.00018435
6.83559e-20
1.43233e-19
0.000196501
5.32172e-20
1.54278e-19
0.000209311
2.15024e-20
1.65812e-19
0.000222815
-7.87076e-21
1.59691e-19
0.000237051
-2.7447e-20
1.52476e-19
0.000252058
1.10014e-20
1.31406e-19
0.000267877
4.95548e-20
5.28357e-20
0.000284552
-4.73475e-21
4.85616e-20
0.000302128
2.74833e-20
2.75689e-20
0.000320653
2.61866e-21
2.90985e-21
0.000340176
-9.57752e-20
-7.80063e-21
0.000360751
-1.47691e-19
-3.6038e-20
0.000382433
-1.62618e-19
-2.61333e-20
0.000405279
-1.38971e-19
-8.8484e-20
0.000429351
-1.60408e-19
-1.30689e-19
0.000454711
-6.6218e-20
-1.25515e-19
0.000481427
-1.27921e-19
-1.45749e-19
0.000509568
-1.87419e-19
-1.59579e-19
0.000539208
-1.83379e-19
-1.60343e-19
0.000570422
-1.38034e-19
-1.55758e-19
0.000603292
-1.589e-19
-2.34888e-19
0.000637901
-1.49713e-19
-3.26156e-19
0.000674336
-3.34605e-19
-1.9897e-19
0.00071269
-2.89954e-19
-2.26467e-19
0.000753057
-2.25652e-19
-2.11783e-19
0.000795537
-2.41766e-19
-2.80973e-19
0.000840235
-2.74806e-19
-3.4895e-19
0.000887257
-4.33625e-19
-4.82632e-19
0.000936718
-5.59685e-19
-5.27145e-19
0.000988733
-5.22999e-19
-4.73918e-19
0.00104342
-6.25023e-19
-6.46753e-19
0.00110091
-5.52936e-19
-4.08446e-19
0.00116133
-5.68797e-19
-5.64962e-19
0.00122481
-5.9132e-19
-4.5915e-19
0.00129149
-4.45293e-19
-4.96033e-19
0.0013615
-4.40427e-19
-4.67086e-19
0.00143498
-4.67498e-19
-3.80928e-19
0.00151207
-3.32237e-19
-4.57814e-19
0.00159292
-4.12571e-19
-4.76269e-19
0.00167764
-4.11071e-19
-5.44675e-19
0.00176637
-4.01656e-19
-5.45755e-19
0.00185922
-3.88795e-19
-1.29578e-19
0.00195629
-2.42422e-19
-2.40311e-19
0.00205764
-4.40189e-19
-4.87789e-19
0.0021633
-4.13786e-19
-5.75288e-19
0.00227324
-1.53301e-19
-1.56019e-19
0.00238736
-3.09481e-19
-7.44596e-20
0.00250547
-2.34442e-19
-2.5665e-19
0.00262728
-3.03558e-19
-3.60178e-19
0.00262728
-3.24861e-20
7.31185e-20
7.96839e-20
1.39926e-19
0.00250547
-4.04919e-20
4.1078e-20
7.78785e-21
4.71084e-20
0.00238736
8.743e-20
6.29828e-20
2.18562e-20
4.2796e-20
0.00227324
1.13426e-19
-9.11738e-20
3.07129e-19
4.00026e-20
0.0021633
-2.9409e-20
-4.95464e-20
-3.61271e-20
-1.62425e-20
0.00205764
-6.79336e-20
-9.79355e-21
-1.5893e-19
-4.55548e-20
0.00195629
-5.73505e-20
4.92522e-20
-1.87452e-19
-1.44151e-21
0.00185922
-1.40095e-20
5.29587e-20
-1.32299e-19
-1.0343e-20
0.00176637
-2.68955e-19
-2.55988e-20
-2.61023e-19
1.53945e-21
0.00167764
-2.53859e-19
-3.02398e-21
-2.44081e-19
3.27495e-20
0.00159292
-2.6233e-19
1.92081e-20
-1.18701e-19
3.22115e-20
0.00151207
-1.08395e-19
6.16596e-20
-1.07087e-19
-2.04123e-20
0.00143498
-1.24333e-19
6.86009e-20
6.19891e-20
-1.92712e-20
0.0013615
-1.95019e-19
2.13369e-20
-2.67493e-19
-5.06014e-20
0.00129149
5.73382e-20
4.23125e-21
-1.66226e-19
-1.31006e-20
0.00122481
-3.39164e-19
-2.86518e-20
-2.76902e-19
-1.69317e-20
0.00116133
-2.50211e-19
-5.18361e-21
-7.81253e-20
2.93186e-21
0.00110091
-2.57992e-19
1.00864e-20
-2.38453e-19
-1.43522e-20
0.00104342
-2.21353e-19
2.01422e-20
-2.76602e-19
3.68796e-21
0.000988733
-2.16661e-19
3.28685e-20
-2.08654e-19
1.83913e-20
0.000936718
-2.08012e-19
7.16017e-21
-2.38847e-19
2.31503e-20
0.000887257
-1.70956e-19
-3.70976e-21
-1.20883e-19
2.07784e-20
0.000840235
-1.53376e-19
-1.21261e-21
-1.54556e-19
1.19018e-20
0.000795537
-1.29133e-19
2.38267e-21
-1.77641e-19
6.0631e-21
0.000753057
-1.38096e-19
-4.7185e-21
-1.86625e-19
-1.07632e-22
0.00071269
-1.87183e-19
-3.23546e-21
-2.02589e-19
8.27457e-22
0.000674336
-2.41852e-19
1.86132e-21
-1.69845e-19
2.35387e-21
0.000637901
-1.7293e-19
1.15859e-20
-1.67633e-19
4.02255e-21
0.000603292
-1.13693e-19
1.05563e-20
-1.47601e-19
7.00734e-21
0.000570422
-1.25476e-19
4.4021e-21
-2.09645e-20
6.15638e-21
0.000539208
-1.33957e-19
3.40672e-21
-1.99372e-19
-5.09364e-21
0.000509568
-1.52071e-19
6.67186e-23
-1.81776e-19
-1.9468e-21
0.000481427
-1.56234e-19
2.40824e-22
-2.14218e-19
-1.49565e-21
0.000454711
-2.05413e-19
5.42632e-22
-1.44001e-19
-1.35986e-21
0.000429351
-1.92048e-19
7.75351e-22
-1.65324e-19
-3.01091e-22
0.000405279
-1.8736e-19
1.79951e-21
-1.45541e-19
1.21675e-21
0.000382433
-1.67885e-19
1.66349e-21
-1.20306e-19
1.07365e-21
0.000360751
-1.63297e-19
6.27931e-22
-1.11977e-19
1.41498e-21
0.000340176
-1.16326e-19
1.08452e-21
-1.63791e-19
2.07334e-21
0.000320653
-9.80531e-20
7.33558e-22
-7.68557e-20
3.12414e-21
0.000302128
-1.13409e-19
3.63736e-22
-1.09511e-19
2.10067e-21
0.000284552
-1.07911e-19
-3.21859e-24
-9.70149e-20
2.28133e-21
0.000267877
-8.8732e-20
5.3503e-22
-8.35932e-20
2.29905e-21
0.000252058
-6.36473e-20
6.96308e-22
-8.72791e-20
1.07512e-21
0.000237051
-4.48616e-20
8.38133e-22
-8.80046e-20
5.34499e-22
0.000222815
-7.11931e-20
3.86557e-22
-6.92438e-20
4.99995e-22
0.000209311
-7.4995e-20
3.9483e-23
-5.71146e-20
2.90439e-22
0.000196501
-7.75294e-20
-2.01776e-22
-4.95827e-20
-1.39944e-22
0.00018435
-1.86091e-20
-1.18553e-22
-4.66923e-20
-2.81203e-23
0.000172825
-1.53642e-20
4.60141e-23
-6.7936e-20
-1.73988e-22
0.000161893
-2.19114e-20
3.22606e-22
-2.23243e-20
-3.47763e-22
0.000151523
-3.56699e-21
4.50421e-22
-3.10412e-20
-4.48641e-22
0.000141688
-1.73035e-20
2.63435e-22
-2.81317e-20
-2.57032e-22
0.000132359
-1.58749e-20
2.12627e-22
-2.97294e-20
-2.69099e-22
0.000123512
-6.68236e-21
1.91221e-22
-2.76751e-20
-2.4072e-22
0.000115121
-7.65101e-22
2.19981e-22
-2.55743e-20
-2.22126e-22
0.000107165
3.33599e-21
2.30554e-22
-3.74095e-20
-2.61873e-22
9.96218e-05
-2.63093e-21
1.29179e-22
-1.09313e-20
-2.37377e-22
9.24721e-05
-1.34145e-20
4.04872e-23
-1.33081e-20
-2.19796e-22
8.56977e-05
-1.77417e-20
4.3221e-23
-1.39254e-20
-2.21225e-22
7.92821e-05
-1.81186e-20
3.67955e-24
-1.15523e-20
-2.63397e-22
7.32104e-05
-1.63208e-20
-1.6556e-23
-7.78878e-21
-2.49079e-22
6.74693e-05
-1.59119e-20
-5.41888e-23
-1.91003e-20
-2.52098e-22
6.20472e-05
-1.56098e-20
-6.53024e-23
-1.78476e-20
-2.21958e-22
5.69339e-05
-2.01516e-20
-7.37519e-23
-1.18273e-20
-1.87177e-22
5.21208e-05
-2.13015e-20
-6.64195e-23
-3.29365e-21
-1.73546e-22
4.76004e-05
-2.14682e-20
-7.17858e-23
-2.52272e-21
-1.66245e-22
4.33659e-05
-2.7387e-20
-7.8777e-23
-2.98351e-21
-1.41112e-22
3.94111e-05
-2.21567e-20
-7.04116e-23
2.17777e-21
-1.25186e-22
3.57297e-05
-1.50862e-20
-6.53969e-23
2.17183e-21
-1.16433e-22
3.23146e-05
-1.32588e-20
-7.39295e-23
-5.11055e-21
-1.106e-22
2.91579e-05
-1.35536e-20
-7.76983e-23
-7.09214e-21
-1.00018e-22
2.62503e-05
-1.38133e-20
-7.66658e-23
-8.84467e-22
-8.91848e-23
2.35813e-05
-1.25906e-20
-7.07541e-23
-7.90782e-22
-8.56638e-23
2.1139e-05
-1.06889e-20
-6.85433e-23
1.41201e-21
-8.20863e-23
1.89104e-05
-1.276e-20
-6.48633e-23
-7.45796e-22
-8.00654e-23
1.6882e-05
-1.09274e-20
-5.27678e-23
-1.62186e-22
-7.55982e-23
1.50398e-05
-6.29772e-21
-4.5254e-23
-4.61979e-22
-6.96405e-23
1.33698e-05
-5.68938e-21
-3.90933e-23
-1.21233e-21
-6.28172e-23
1.18585e-05
-4.08341e-21
-3.25398e-23
-9.9083e-22
-5.57827e-23
1.04928e-05
-8.66813e-22
-2.56218e-23
-3.00638e-21
-5.06359e-23
9.26015e-06
-1.86988e-21
-2.07794e-23
-2.10259e-21
-4.45042e-23
8.14894e-06
-9.93766e-22
-1.62053e-23
-2.15335e-21
-3.98322e-23
7.14833e-06
9.61479e-22
-1.28084e-23
-1.72012e-21
-3.51388e-23
6.24823e-06
6.04048e-22
-1.10535e-23
-1.36598e-21
-3.10093e-23
5.43946e-06
9.29425e-22
-9.60305e-24
-1.5193e-21
-2.7323e-23
4.7135e-06
2.01409e-22
-8.5229e-24
-9.06801e-22
-2.42448e-23
4.06263e-06
6.73303e-22
-7.49944e-24
-6.68276e-22
-2.16903e-23
3.47976e-06
8.12716e-22
-6.71404e-24
-7.71753e-22
-1.89825e-23
2.95847e-06
4.98605e-22
-6.09946e-24
-7.37403e-22
-1.65399e-23
2.49288e-06
1.70892e-22
-5.53175e-24
-4.20174e-22
-1.43413e-23
2.07764e-06
2.41852e-22
-4.81093e-24
-3.14892e-22
-1.25355e-23
1.70792e-06
8.04559e-23
-4.15614e-24
-2.08281e-22
-1.09185e-23
1.37929e-06
2.04444e-22
-3.54556e-24
-2.64757e-22
-9.53359e-24
1.08776e-06
9.26256e-24
-3.03101e-24
-2.34049e-22
-8.28515e-24
8.29683e-07
1.2613e-23
-2.62043e-24
-8.97073e-23
-7.17004e-24
6.01771e-07
5.84104e-23
-2.2608e-24
-1.01189e-22
-6.21732e-24
4.01021e-07
-6.0757e-24
-1.95661e-24
7.41489e-24
-5.3954e-24
2.2472e-07
1.1262e-23
-1.69068e-24
-3.651e-24
-4.69553e-24
7.04068e-08
-6.60355e-25
-1.41653e-24
0.00262728
-1.38923e-19
-8.50437e-20
0.00250547
7.22814e-20
1.05699e-19
0.00238736
1.34594e-20
1.44941e-19
0.00227324
2.78679e-19
2.99108e-19
0.0021633
6.07264e-20
-7.2743e-20
0.00205764
5.33018e-20
-5.95503e-20
0.00195629
4.29112e-20
-6.48816e-20
0.00185922
-1.052e-19
5.86017e-20
0.00176637
-1.69831e-19
-8.97657e-20
0.00167764
-1.32775e-19
-1.73992e-19
0.00159292
-9.38513e-20
-2.71363e-19
0.00151207
-8.98016e-20
-1.85692e-19
0.00143498
-2.96017e-19
-1.49767e-19
0.0013615
-2.68037e-19
-1.67275e-19
0.00129149
-1.10781e-19
-1.97714e-19
0.00122481
-2.24626e-19
-1.81941e-19
0.00116133
-1.54983e-19
-2.124e-19
0.00110091
-2.26489e-19
-2.11108e-19
0.00104342
-1.91895e-19
-2.84193e-19
0.000988733
-4.84392e-19
-2.76434e-19
0.000936718
-4.14894e-19
-3.76012e-19
0.000887257
-2.70451e-19
-3.30747e-19
0.000840235
-2.44633e-19
-2.90252e-19
0.000795537
-2.9603e-19
-2.86864e-19
0.000753057
-2.05374e-19
-2.29062e-19
0.00071269
-2.28012e-19
-2.44729e-19
0.000674336
-1.9341e-19
-2.50737e-19
0.000637901
-2.31843e-19
-2.28727e-19
0.000603292
-2.2363e-19
-1.99081e-19
0.000570422
-1.23842e-19
-2.19191e-19
0.000539208
-1.41709e-19
-9.90929e-20
0.000509568
-7.03822e-20
-1.03477e-19
0.000481427
-6.24435e-20
-1.38398e-19
0.000454711
-9.51578e-20
-6.98081e-20
0.000429351
-5.70292e-20
-9.24544e-20
0.000405279
-1.07982e-19
-1.09281e-19
0.000382433
-1.41998e-19
-9.14136e-20
0.000360751
-9.5252e-20
-1.17752e-19
0.000340176
-9.24195e-20
-1.39972e-19
0.000320653
-9.51233e-20
-1.26433e-19
0.000302128
-1.29197e-19
-1.14412e-19
0.000284552
-8.14436e-20
-1.22405e-19
0.000267877
-8.93077e-20
-1.62203e-19
0.000252058
-6.74608e-20
-1.10964e-19
0.000237051
-8.38798e-20
-1.06956e-19
0.000222815
-1.03014e-19
-1.07321e-19
0.000209311
-1.12894e-19
-1.08137e-19
0.000196501
-9.29911e-20
-7.08551e-20
0.00018435
-3.66026e-20
-9.0828e-20
0.000172825
-3.84822e-20
-1.02677e-19
0.000161893
-6.56481e-20
-6.38132e-20
0.000151523
-8.76955e-20
-4.06647e-20
0.000141688
-8.21493e-20
-6.30586e-20
0.000132359
-7.59089e-20
-4.30208e-20
0.000123512
-5.98174e-20
-3.20408e-20
0.000115121
-5.16813e-20
-3.86151e-20
0.000107165
-5.44246e-20
-3.40687e-20
9.96218e-05
-4.37966e-20
-1.76995e-20
9.24721e-05
-1.9983e-20
-2.68326e-20
8.56977e-05
-2.67361e-20
-3.5291e-20
7.92821e-05
-1.57511e-20
-1.50651e-20
7.32104e-05
-1.60238e-20
-1.82226e-20
6.74693e-05
-1.17353e-21
-2.02373e-20
6.20472e-05
4.01451e-21
-1.13387e-20
5.69339e-05
6.85159e-21
-6.69879e-21
5.21208e-05
-1.56568e-21
-3.00225e-21
4.76004e-05
-5.86707e-21
7.33258e-21
4.33659e-05
-8.48491e-21
2.97245e-21
3.94111e-05
-7.77292e-21
4.32896e-21
3.57297e-05
-1.15608e-20
4.26148e-21
3.23146e-05
-9.94239e-21
-4.65674e-22
2.91579e-05
-1.05893e-20
-1.70055e-21
2.62503e-05
-7.98418e-21
3.32871e-22
2.35813e-05
-1.07615e-20
-8.68053e-22
2.1139e-05
-8.74202e-21
-2.51598e-21
1.89104e-05
-1.54896e-21
-1.30808e-21
1.6882e-05
-5.81975e-21
-1.27505e-22
1.50398e-05
-3.04853e-21
-2.08322e-21
1.33698e-05
-1.99762e-21
-3.22055e-21
1.18585e-05
8.16967e-22
-5.64998e-21
1.04928e-05
1.30098e-21
-4.05945e-21
9.26015e-06
1.27008e-21
-4.89093e-21
8.14894e-06
3.3919e-22
-3.69453e-21
7.14833e-06
-1.34495e-21
-2.22956e-21
6.24823e-06
-1.62088e-21
-8.6034e-22
5.43946e-06
-1.39888e-21
-1.55524e-21
4.7135e-06
-1.2536e-21
-1.72867e-21
4.06263e-06
-9.31862e-22
-2.00803e-22
3.47976e-06
-8.85026e-22
-3.50812e-22
2.95847e-06
-7.92357e-22
1.34117e-22
2.49288e-06
4.95907e-23
-2.81897e-22
2.07764e-06
2.55416e-22
-1.25054e-22
1.70792e-06
4.19929e-22
-2.30912e-22
1.37929e-06
4.0174e-22
-7.62817e-23
1.08776e-06
-6.22615e-23
1.36815e-22
8.29683e-07
-3.31564e-23
1.36947e-22
6.01771e-07
-4.98977e-23
7.28982e-23
4.01021e-07
-2.52419e-23
3.53653e-23
2.2472e-07
-6.54944e-24
4.64023e-25
7.04068e-08
)
;

boundaryField
{
    walls
    {
        type            calculated;
        value           uniform 0;
    }
    inlet
    {
        type            cyclic;
        value           nonuniform List<scalar> 
400
(
-7.04068e-08
-2.24721e-07
-4.01021e-07
-6.0177e-07
-8.29684e-07
-1.08776e-06
-1.37929e-06
-1.70791e-06
-2.07764e-06
-2.49287e-06
-2.95847e-06
-3.47977e-06
-4.06263e-06
-4.7135e-06
-5.43946e-06
-6.24824e-06
-7.14832e-06
-8.14895e-06
-9.26015e-06
-1.04928e-05
-1.18585e-05
-1.33698e-05
-1.50398e-05
-1.6882e-05
-1.89104e-05
-2.1139e-05
-2.35813e-05
-2.62503e-05
-2.91579e-05
-3.23146e-05
-3.57297e-05
-3.94111e-05
-4.33659e-05
-4.76004e-05
-5.21208e-05
-5.69339e-05
-6.20472e-05
-6.74693e-05
-7.32104e-05
-7.92821e-05
-8.56977e-05
-9.24721e-05
-9.96218e-05
-0.000107165
-0.000115121
-0.000123512
-0.000132359
-0.000141688
-0.000151523
-0.000161893
-0.000172825
-0.00018435
-0.000196501
-0.000209311
-0.000222815
-0.000237051
-0.000252058
-0.000267877
-0.000284552
-0.000302128
-0.000320653
-0.000340176
-0.000360751
-0.000382433
-0.000405279
-0.000429351
-0.000454711
-0.000481427
-0.000509568
-0.000539208
-0.000570422
-0.000603292
-0.000637901
-0.000674336
-0.00071269
-0.000753057
-0.000795537
-0.000840235
-0.000887257
-0.000936718
-0.000988733
-0.00104342
-0.00110091
-0.00116133
-0.00122481
-0.00129149
-0.0013615
-0.00143498
-0.00151207
-0.00159292
-0.00167764
-0.00176637
-0.00185922
-0.00195629
-0.00205764
-0.0021633
-0.00227324
-0.00238736
-0.00250547
-0.00262728
-7.04068e-08
-2.24721e-07
-4.01021e-07
-6.0177e-07
-8.29684e-07
-1.08776e-06
-1.37929e-06
-1.70791e-06
-2.07764e-06
-2.49287e-06
-2.95847e-06
-3.47977e-06
-4.06263e-06
-4.7135e-06
-5.43946e-06
-6.24824e-06
-7.14832e-06
-8.14895e-06
-9.26015e-06
-1.04928e-05
-1.18585e-05
-1.33698e-05
-1.50398e-05
-1.6882e-05
-1.89104e-05
-2.1139e-05
-2.35813e-05
-2.62503e-05
-2.91579e-05
-3.23146e-05
-3.57297e-05
-3.94111e-05
-4.33659e-05
-4.76004e-05
-5.21208e-05
-5.69339e-05
-6.20472e-05
-6.74693e-05
-7.32104e-05
-7.92821e-05
-8.56977e-05
-9.24721e-05
-9.96218e-05
-0.000107165
-0.000115121
-0.000123512
-0.000132359
-0.000141688
-0.000151523
-0.000161893
-0.000172825
-0.00018435
-0.000196501
-0.000209311
-0.000222815
-0.000237051
-0.000252058
-0.000267877
-0.000284552
-0.000302128
-0.000320653
-0.000340176
-0.000360751
-0.000382433
-0.000405279
-0.000429351
-0.000454711
-0.000481427
-0.000509568
-0.000539208
-0.000570422
-0.000603292
-0.000637901
-0.000674336
-0.00071269
-0.000753057
-0.000795537
-0.000840235
-0.000887257
-0.000936718
-0.000988733
-0.00104342
-0.00110091
-0.00116133
-0.00122481
-0.00129149
-0.0013615
-0.00143498
-0.00151207
-0.00159292
-0.00167764
-0.00176637
-0.00185922
-0.00195629
-0.00205764
-0.0021633
-0.00227324
-0.00238736
-0.00250547
-0.00262728
-0.00262728
-0.00250547
-0.00238736
-0.00227324
-0.0021633
-0.00205764
-0.00195629
-0.00185922
-0.00176637
-0.00167764
-0.00159292
-0.00151207
-0.00143498
-0.0013615
-0.00129149
-0.00122481
-0.00116133
-0.00110091
-0.00104342
-0.000988733
-0.000936718
-0.000887257
-0.000840235
-0.000795537
-0.000753057
-0.00071269
-0.000674336
-0.000637901
-0.000603292
-0.000570422
-0.000539208
-0.000509568
-0.000481427
-0.000454711
-0.000429351
-0.000405279
-0.000382433
-0.000360751
-0.000340176
-0.000320653
-0.000302128
-0.000284552
-0.000267877
-0.000252058
-0.000237051
-0.000222815
-0.000209311
-0.000196501
-0.00018435
-0.000172825
-0.000161893
-0.000151523
-0.000141688
-0.000132359
-0.000123512
-0.000115121
-0.000107165
-9.96218e-05
-9.24721e-05
-8.56977e-05
-7.92821e-05
-7.32104e-05
-6.74693e-05
-6.20472e-05
-5.69339e-05
-5.21208e-05
-4.76004e-05
-4.33659e-05
-3.94111e-05
-3.57297e-05
-3.23146e-05
-2.91579e-05
-2.62503e-05
-2.35813e-05
-2.1139e-05
-1.89104e-05
-1.6882e-05
-1.50398e-05
-1.33698e-05
-1.18585e-05
-1.04928e-05
-9.26015e-06
-8.14894e-06
-7.14833e-06
-6.24823e-06
-5.43946e-06
-4.7135e-06
-4.06263e-06
-3.47976e-06
-2.95847e-06
-2.49288e-06
-2.07764e-06
-1.70792e-06
-1.37929e-06
-1.08776e-06
-8.29683e-07
-6.01771e-07
-4.01021e-07
-2.2472e-07
-7.04068e-08
-0.00262728
-0.00250547
-0.00238736
-0.00227324
-0.0021633
-0.00205764
-0.00195629
-0.00185922
-0.00176637
-0.00167764
-0.00159292
-0.00151207
-0.00143498
-0.0013615
-0.00129149
-0.00122481
-0.00116133
-0.00110091
-0.00104342
-0.000988733
-0.000936718
-0.000887257
-0.000840235
-0.000795537
-0.000753057
-0.00071269
-0.000674336
-0.000637901
-0.000603292
-0.000570422
-0.000539208
-0.000509568
-0.000481427
-0.000454711
-0.000429351
-0.000405279
-0.000382433
-0.000360751
-0.000340176
-0.000320653
-0.000302128
-0.000284552
-0.000267877
-0.000252058
-0.000237051
-0.000222815
-0.000209311
-0.000196501
-0.00018435
-0.000172825
-0.000161893
-0.000151523
-0.000141688
-0.000132359
-0.000123512
-0.000115121
-0.000107165
-9.96218e-05
-9.24721e-05
-8.56977e-05
-7.92821e-05
-7.32104e-05
-6.74693e-05
-6.20472e-05
-5.69339e-05
-5.21208e-05
-4.76004e-05
-4.33659e-05
-3.94111e-05
-3.57297e-05
-3.23146e-05
-2.91579e-05
-2.62503e-05
-2.35813e-05
-2.1139e-05
-1.89104e-05
-1.6882e-05
-1.50398e-05
-1.33698e-05
-1.18585e-05
-1.04928e-05
-9.26015e-06
-8.14894e-06
-7.14833e-06
-6.24823e-06
-5.43946e-06
-4.7135e-06
-4.06263e-06
-3.47976e-06
-2.95847e-06
-2.49288e-06
-2.07764e-06
-1.70792e-06
-1.37929e-06
-1.08776e-06
-8.29683e-07
-6.01771e-07
-4.01021e-07
-2.2472e-07
-7.04068e-08
)
;
    }
    outlet
    {
        type            cyclic;
        value           nonuniform List<scalar> 
400
(
7.04068e-08
2.24721e-07
4.01021e-07
6.0177e-07
8.29684e-07
1.08776e-06
1.37929e-06
1.70791e-06
2.07764e-06
2.49287e-06
2.95847e-06
3.47977e-06
4.06263e-06
4.7135e-06
5.43946e-06
6.24824e-06
7.14832e-06
8.14895e-06
9.26015e-06
1.04928e-05
1.18585e-05
1.33698e-05
1.50398e-05
1.6882e-05
1.89104e-05
2.1139e-05
2.35813e-05
2.62503e-05
2.91579e-05
3.23146e-05
3.57297e-05
3.94111e-05
4.33659e-05
4.76004e-05
5.21208e-05
5.69339e-05
6.20472e-05
6.74693e-05
7.32104e-05
7.92821e-05
8.56977e-05
9.24721e-05
9.96218e-05
0.000107165
0.000115121
0.000123512
0.000132359
0.000141688
0.000151523
0.000161893
0.000172825
0.00018435
0.000196501
0.000209311
0.000222815
0.000237051
0.000252058
0.000267877
0.000284552
0.000302128
0.000320653
0.000340176
0.000360751
0.000382433
0.000405279
0.000429351
0.000454711
0.000481427
0.000509568
0.000539208
0.000570422
0.000603292
0.000637901
0.000674336
0.00071269
0.000753057
0.000795537
0.000840235
0.000887257
0.000936718
0.000988733
0.00104342
0.00110091
0.00116133
0.00122481
0.00129149
0.0013615
0.00143498
0.00151207
0.00159292
0.00167764
0.00176637
0.00185922
0.00195629
0.00205764
0.0021633
0.00227324
0.00238736
0.00250547
0.00262728
7.04068e-08
2.24721e-07
4.01021e-07
6.0177e-07
8.29684e-07
1.08776e-06
1.37929e-06
1.70791e-06
2.07764e-06
2.49287e-06
2.95847e-06
3.47977e-06
4.06263e-06
4.7135e-06
5.43946e-06
6.24824e-06
7.14832e-06
8.14895e-06
9.26015e-06
1.04928e-05
1.18585e-05
1.33698e-05
1.50398e-05
1.6882e-05
1.89104e-05
2.1139e-05
2.35813e-05
2.62503e-05
2.91579e-05
3.23146e-05
3.57297e-05
3.94111e-05
4.33659e-05
4.76004e-05
5.21208e-05
5.69339e-05
6.20472e-05
6.74693e-05
7.32104e-05
7.92821e-05
8.56977e-05
9.24721e-05
9.96218e-05
0.000107165
0.000115121
0.000123512
0.000132359
0.000141688
0.000151523
0.000161893
0.000172825
0.00018435
0.000196501
0.000209311
0.000222815
0.000237051
0.000252058
0.000267877
0.000284552
0.000302128
0.000320653
0.000340176
0.000360751
0.000382433
0.000405279
0.000429351
0.000454711
0.000481427
0.000509568
0.000539208
0.000570422
0.000603292
0.000637901
0.000674336
0.00071269
0.000753057
0.000795537
0.000840235
0.000887257
0.000936718
0.000988733
0.00104342
0.00110091
0.00116133
0.00122481
0.00129149
0.0013615
0.00143498
0.00151207
0.00159292
0.00167764
0.00176637
0.00185922
0.00195629
0.00205764
0.0021633
0.00227324
0.00238736
0.00250547
0.00262728
0.00262728
0.00250547
0.00238736
0.00227324
0.0021633
0.00205764
0.00195629
0.00185922
0.00176637
0.00167764
0.00159292
0.00151207
0.00143498
0.0013615
0.00129149
0.00122481
0.00116133
0.00110091
0.00104342
0.000988733
0.000936718
0.000887257
0.000840235
0.000795537
0.000753057
0.00071269
0.000674336
0.000637901
0.000603292
0.000570422
0.000539208
0.000509568
0.000481427
0.000454711
0.000429351
0.000405279
0.000382433
0.000360751
0.000340176
0.000320653
0.000302128
0.000284552
0.000267877
0.000252058
0.000237051
0.000222815
0.000209311
0.000196501
0.00018435
0.000172825
0.000161893
0.000151523
0.000141688
0.000132359
0.000123512
0.000115121
0.000107165
9.96218e-05
9.24721e-05
8.56977e-05
7.92821e-05
7.32104e-05
6.74693e-05
6.20472e-05
5.69339e-05
5.21208e-05
4.76004e-05
4.33659e-05
3.94111e-05
3.57297e-05
3.23146e-05
2.91579e-05
2.62503e-05
2.35813e-05
2.1139e-05
1.89104e-05
1.6882e-05
1.50398e-05
1.33698e-05
1.18585e-05
1.04928e-05
9.26015e-06
8.14894e-06
7.14833e-06
6.24823e-06
5.43946e-06
4.7135e-06
4.06263e-06
3.47976e-06
2.95847e-06
2.49288e-06
2.07764e-06
1.70792e-06
1.37929e-06
1.08776e-06
8.29683e-07
6.01771e-07
4.01021e-07
2.2472e-07
7.04068e-08
0.00262728
0.00250547
0.00238736
0.00227324
0.0021633
0.00205764
0.00195629
0.00185922
0.00176637
0.00167764
0.00159292
0.00151207
0.00143498
0.0013615
0.00129149
0.00122481
0.00116133
0.00110091
0.00104342
0.000988733
0.000936718
0.000887257
0.000840235
0.000795537
0.000753057
0.00071269
0.000674336
0.000637901
0.000603292
0.000570422
0.000539208
0.000509568
0.000481427