/*--------------------------------*- C++ -*----------------------------------*\
| =========                 |                                                 |
| \\      /  F ield         | OpenFOAM: The Open Source CFD Toolbox           |
|  \\    /   O peration     | Version:  2106                                  |
|   \\  /    A nd           | Website:  www.openfoam.com                      |
|    \\/     M anipulation  |                                                 |
\*---------------------------------------------------------------------------*/
FoamFile
{
    version     2.0;
    format      ascii;
    arch        "LSB;label=32;scalar=64";
    class       surfaceScalarField;
    location    "10030";
    object      phi;
}
// * * * * * * * * * * * * * * * * * * * * * * * * * * * * * * * * * * * * * //

dimensions      [0 3 -1 0 0 0 0];

oriented        oriented;

internalField   nonuniform List<scalar> 
3996
(
9.04117e-09
-8.07322e-18
-1.7323e-22
-3.70938e-22
7.22752e-24
2.77983e-08
-8.07338e-18
8.96498e-23
-3.58108e-22
6.71354e-23
4.76025e-08
-8.07356e-18
9.07547e-23
-3.35414e-22
7.08597e-23
6.84994e-08
-8.07369e-18
7.74511e-23
-3.58294e-22
7.47283e-23
9.05364e-08
-8.07375e-18
6.42778e-23
-4.39537e-22
7.8739e-23
1.13763e-07
-8.0738e-18
5.23716e-23
-5.28148e-22
8.28908e-23
1.3823e-07
-8.07379e-18
4.01152e-23
-6.72578e-22
8.71822e-23
1.63992e-07
-8.07373e-18
2.70182e-23
-8.65006e-22
9.16128e-23
1.91103e-07
-8.07366e-18
1.29891e-23
-1.03884e-21
9.61814e-23
2.19621e-07
-8.07353e-18
-2.03388e-24
-1.27554e-21
1.00885e-22
2.49607e-07
-8.07342e-18
-1.81328e-23
-1.58175e-21
1.05723e-22
2.81123e-07
-8.07313e-18
-3.53882e-23
-1.89531e-21
1.10694e-22
3.14234e-07
-8.07285e-18
-5.38838e-23
-2.20421e-21
1.15794e-22
3.49006e-07
-8.07236e-18
-7.36972e-23
-2.72518e-21
1.21015e-22
3.8551e-07
-8.07185e-18
-9.4914e-23
-3.21886e-21
1.2636e-22
4.23819e-07
-8.07145e-18
-1.17611e-22
-3.71699e-21
1.31817e-22
4.64009e-07
-8.07092e-18
-1.4186e-22
-4.29922e-21
1.37376e-22
5.06158e-07
-8.07023e-18
-1.67751e-22
-5.06543e-21
1.43033e-22
5.50347e-07
-8.06948e-18
-1.95367e-22
-5.66161e-21
1.48782e-22
5.96663e-07
-8.06857e-18
-2.24794e-22
-6.5462e-21
1.54605e-22
6.45192e-07
-8.06757e-18
-2.56119e-22
-7.33164e-21
1.605e-22
6.96027e-07
-8.0664e-18
-2.89431e-22
-8.25228e-21
1.66447e-22
7.49262e-07
-8.06521e-18
-3.24827e-22
-9.43652e-21
1.72431e-22
8.04998e-07
-8.0638e-18
-3.62392e-22
-1.06559e-20
1.78438e-22
8.63336e-07
-8.06231e-18
-4.02237e-22
-1.19558e-20
1.84452e-22
9.24384e-07
-8.06069e-18
-4.4446e-22
-1.33459e-20
1.90449e-22
9.88252e-07
-8.0592e-18
-4.89172e-22
-1.49318e-20
1.96406e-22
1.05506e-06
-8.05749e-18
-5.36472e-22
-1.63222e-20
2.02312e-22
1.12491e-06
-8.05556e-18
-5.86486e-22
-1.8025e-20
2.08123e-22
1.19795e-06
-8.05291e-18
-6.3932e-22
-1.99197e-20
2.13824e-22
1.2743e-06
-8.05029e-18
-6.95124e-22
-2.17501e-20
2.19387e-22
1.35409e-06
-8.04787e-18
-7.5402e-22
-2.35421e-20
2.24776e-22
1.43746e-06
-8.04485e-18
-8.16115e-22
-2.57423e-20
2.29936e-22
1.52455e-06
-8.04181e-18
-8.8155e-22
-2.82693e-20
2.34839e-22
1.61553e-06
-8.0387e-18
-9.50458e-22
-3.05203e-20
2.39454e-22
1.71053e-06
-8.03492e-18
-1.02295e-21
-3.3369e-20
2.43702e-22
1.80973e-06
-8.0311e-18
-1.09918e-21
-3.6037e-20
2.47552e-22
1.91328e-06
-8.02717e-18
-1.17929e-21
-3.93123e-20
2.50931e-22
2.02138e-06
-8.0235e-18
-1.26347e-21
-4.19868e-20
2.53827e-22
2.13418e-06
-8.01916e-18
-1.35185e-21
-4.52955e-20
2.56146e-22
2.25189e-06
-8.01408e-18
-1.44463e-21
-4.89003e-20
2.57868e-22
2.3747e-06
-8.0093e-18
-1.54195e-21
-5.30596e-20
2.5892e-22
2.50281e-06
-8.00335e-18
-1.64397e-21
-5.76536e-20
2.59259e-22
2.63642e-06
-7.99806e-18
-1.75088e-21
-6.17695e-20
2.58836e-22
2.77575e-06
-7.99186e-18
-1.86284e-21
-6.5846e-20
2.57544e-22
2.92104e-06
-7.98495e-18
-1.98003e-21
-7.104e-20
2.55298e-22
3.0725e-06
-7.97763e-18
-2.10271e-21
-7.61488e-20
2.52087e-22
3.23038e-06
-7.97119e-18
-2.23109e-21
-8.125e-20
2.47849e-22
3.39493e-06
-7.96448e-18
-2.36519e-21
-8.56721e-20
2.42396e-22
3.56641e-06
-7.95595e-18
-2.5052e-21
-9.14499e-20
2.35514e-22
3.74509e-06
-7.94827e-18
-2.65137e-21
-9.68669e-20
2.27266e-22
3.93123e-06
-7.93892e-18
-2.80381e-21
-1.0381e-19
2.17381e-22
4.12513e-06
-7.93004e-18
-2.96277e-21
-1.10781e-19
2.05765e-22
4.32708e-06
-7.91825e-18
-3.12829e-21
-1.19357e-19
1.92368e-22
4.53738e-06
-7.90646e-18
-3.30094e-21
-1.27467e-19
1.77335e-22
4.75636e-06
-7.89482e-18
-3.48086e-21
-1.36004e-19
1.60439e-22
4.98432e-06
-7.88503e-18
-3.66812e-21
-1.44311e-19
1.41607e-22
5.2216e-06
-7.87338e-18
-3.86236e-21
-1.52295e-19
1.20617e-22
5.46855e-06
-7.86058e-18
-4.06401e-21
-1.61392e-19
9.73019e-23
5.72551e-06
-7.84639e-18
-4.27325e-21
-1.71109e-19
7.1572e-23
5.99286e-06
-7.82976e-18
-4.4903e-21
-1.81556e-19
4.31676e-23
6.27095e-06
-7.81505e-18
-4.71561e-21
-1.91599e-19
1.20979e-23
6.56017e-06
-7.80018e-18
-4.94901e-21
-2.01413e-19
-2.15929e-23
6.8609e-06
-7.7855e-18
-5.19061e-21
-2.13197e-19
-5.82992e-23
7.17354e-06
-7.76715e-18
-5.44013e-21
-2.24434e-19
-9.80864e-23
7.49849e-06
-7.7499e-18
-5.69808e-21
-2.36146e-19
-1.41057e-22
7.83616e-06
-7.73214e-18
-5.96382e-21
-2.47443e-19
-1.87655e-22
8.18697e-06
-7.7114e-18
-6.23707e-21
-2.59607e-19
-2.38346e-22
8.55134e-06
-7.69328e-18
-6.51784e-21
-2.71257e-19
-2.92948e-22
8.92968e-06
-7.6708e-18
-6.80528e-21
-2.85453e-19
-3.52265e-22
9.32242e-06
-7.64745e-18
-7.09965e-21
-3.00072e-19
-4.16179e-22
9.73e-06
-7.62517e-18
-7.40086e-21
-3.12345e-19
-4.84898e-22
1.01528e-05
-7.60453e-18
-7.70856e-21
-3.25788e-19
-5.58162e-22
1.05914e-05
-7.58294e-18
-8.02258e-21
-3.38073e-19
-6.35698e-22
1.1046e-05
-7.55767e-18
-8.34254e-21
-3.54163e-19
-7.17916e-22
1.15172e-05
-7.53129e-18
-8.66772e-21
-3.6988e-19
-8.03915e-22
1.20054e-05
-7.50297e-18
-8.99764e-21
-3.87803e-19
-8.94717e-22
1.25109e-05
-7.47524e-18
-9.33105e-21
-4.02545e-19
-9.89955e-22
1.30342e-05
-7.44745e-18
-9.66845e-21
-4.19107e-19
-1.08826e-21
1.35756e-05
-7.41816e-18
-1.00081e-20
-4.35441e-19
-1.19067e-21
1.41356e-05
-7.38778e-18
-1.03494e-20
-4.53787e-19
-1.29829e-21
1.47145e-05
-7.35601e-18
-1.06914e-20
-4.73143e-19
-1.41001e-21
1.53127e-05
-7.32279e-18
-1.1033e-20
-4.92991e-19
-1.52453e-21
1.59306e-05
-7.28471e-18
-1.13725e-20
-5.1348e-19
-1.64334e-21
1.65684e-05
-7.2486e-18
-1.17119e-20
-5.37643e-19
-1.76601e-21
1.72265e-05
-7.22048e-18
-1.20493e-20
-5.54681e-19
-1.89018e-21
1.79052e-05
-7.19055e-18
-1.23813e-20
-5.73787e-19
-2.01865e-21
1.86048e-05
-7.15826e-18
-1.27084e-20
-5.92991e-19
-2.14898e-21
1.93257e-05
-7.12006e-18
-1.30294e-20
-6.10831e-19
-2.28208e-21
2.0068e-05
-7.08212e-18
-1.33455e-20
-6.32002e-19
-2.41808e-21
2.08321e-05
-7.04634e-18
-1.36557e-20
-6.55117e-19
-2.55531e-21
2.16182e-05
-7.0077e-18
-1.39573e-20
-6.79267e-19
-2.6935e-21
2.24266e-05
-6.95974e-18
-1.42503e-20
-7.0417e-19
-2.83169e-21
2.32576e-05
-6.91844e-18
-1.4538e-20
-7.29573e-19
-2.97027e-21
2.41114e-05
-6.87318e-18
-1.48166e-20
-7.53849e-19
-3.10795e-21
2.49883e-05
-6.83344e-18
-1.50891e-20
-7.73919e-19
-3.24407e-21
2.58885e-05
-6.79443e-18
-1.53551e-20
-7.97629e-19
-3.37987e-21
2.68123e-05
-6.75247e-18
-1.56097e-20
-8.18975e-19
-3.51383e-21
2.776e-05
-6.70874e-18
-1.5855e-20
-8.42837e-19
-3.64773e-21
2.87318e-05
-6.66426e-18
-1.60879e-20
-8.67276e-19
-3.77952e-21
2.97281e-05
-6.62026e-18
-1.63058e-20
-8.91925e-19
-3.90989e-21
3.07492e-05
-6.58034e-18
-1.65121e-20
-9.09717e-19
-4.04321e-21
3.17953e-05
-6.53833e-18
-1.67005e-20
-9.33082e-19
-4.18289e-21
3.28668e-05
-6.49919e-18
-1.68732e-20
-9.55487e-19
-4.32706e-21
3.39641e-05
-6.45455e-18
-1.70227e-20
-9.74741e-19
-4.47875e-21
3.50874e-05
-6.40804e-18
-1.71565e-20
-9.98538e-19
-4.63157e-21
3.62373e-05
-6.36562e-18
-1.72745e-20
-1.01861e-18
-4.7866e-21
3.7414e-05
-6.31764e-18
-1.73769e-20
-1.03624e-18
-4.93782e-21
3.86179e-05
-6.27846e-18
-1.74692e-20
-1.05249e-18
-5.08443e-21
3.98496e-05
-6.23125e-18
-1.75452e-20
-1.07754e-18
-5.22815e-21
4.11095e-05
-6.1886e-18
-1.76176e-20
-1.10111e-18
-5.35099e-21
4.2398e-05
-6.1401e-18
-1.76703e-20
-1.12684e-18
-5.46381e-21
4.37156e-05
-6.09425e-18
-1.7707e-20
-1.15355e-18
-5.55821e-21
4.50628e-05
-6.0475e-18
-1.77246e-20
-1.17777e-18
-5.63977e-21
4.64401e-05
-6.00274e-18
-1.77293e-20
-1.1956e-18
-5.71184e-21
4.78482e-05
-5.94054e-18
-1.77103e-20
-1.23726e-18
-5.77313e-21
4.92875e-05
-5.89421e-18
-1.76824e-20
-1.2689e-18
-5.80333e-21
5.07586e-05
-5.83548e-18
-1.76267e-20
-1.29961e-18
-5.79739e-21
5.22623e-05
-5.78803e-18
-1.75543e-20
-1.31367e-18
-5.7766e-21
5.37989e-05
-5.72318e-18
-1.74564e-20
-1.34599e-18
-5.74739e-21
5.53693e-05
-5.68028e-18
-1.73591e-20
-1.36049e-18
-5.70077e-21
5.69741e-05
-5.63922e-18
-1.72189e-20
-1.38027e-18
-5.66458e-21
5.86139e-05
-5.60285e-18
-1.70623e-20
-1.39801e-18
-5.61021e-21
6.02896e-05
-5.5501e-18
-1.68892e-20
-1.41404e-18
-5.55293e-21
6.20017e-05
-5.51026e-18
-1.67348e-20
-1.42659e-18
-5.5094e-21
6.3751e-05
-5.46003e-18
-1.65923e-20
-1.44546e-18
-5.4883e-21
6.55384e-05
-5.40985e-18
-1.64949e-20
-1.47308e-18
-5.44774e-21
6.73645e-05
-5.38028e-18
-1.64419e-20
-1.48626e-18
-5.37589e-21
6.92302e-05
-5.35179e-18
-1.63821e-20
-1.50995e-18
-5.29902e-21
7.11364e-05
-5.3074e-18
-1.62916e-20
-1.53211e-18
-5.21024e-21
7.30838e-05
-5.27296e-18
-1.62402e-20
-1.553e-18
-5.09489e-21
7.50733e-05
-5.2373e-18
-1.61931e-20
-1.58413e-18
-4.9877e-21
7.71059e-05
-5.18834e-18
-1.61589e-20
-1.61043e-18
-4.91152e-21
7.91823e-05
-5.13907e-18
-1.61349e-20
-1.61774e-18
-4.83936e-21
8.13037e-05
-5.08788e-18
-1.61281e-20
-1.62256e-18
-4.78214e-21
8.34708e-05
-5.04434e-18
-1.61249e-20
-1.6529e-18
-4.74964e-21
8.56847e-05
-4.98367e-18
-1.60952e-20
-1.68718e-18
-4.70213e-21
8.79463e-05
-4.94759e-18
-1.60721e-20
-1.70401e-18
-4.64097e-21
9.02568e-05
-4.90015e-18
-1.60356e-20
-1.71221e-18
-4.58593e-21
9.2617e-05
-4.85357e-18
-1.60007e-20
-1.72851e-18
-4.54721e-21
9.50282e-05
-4.78775e-18
-1.59617e-20
-1.76102e-18
-4.54312e-21
9.74913e-05
-4.73708e-18
-1.59592e-20
-1.79322e-18
-4.52669e-21
0.000100007
-4.70227e-18
-1.5998e-20
-1.80747e-18
-4.45419e-21
0.000102578
-4.65266e-18
-1.59003e-20
-1.82777e-18
-4.40324e-21
0.000105204
-4.58007e-18
-1.5834e-20
-1.86161e-18
-4.34608e-21
0.000107886
-4.53241e-18
-1.58503e-20
-1.87435e-18
-4.28605e-21
0.000110626
-4.48416e-18
-1.58446e-20
-1.89948e-18
-4.27569e-21
0.000113425
-4.43137e-18
-1.58789e-20
-1.94133e-18
-4.31638e-21
0.000116284
-4.35977e-18
-1.59494e-20
-1.98193e-18
-4.33019e-21
0.000119205
-4.29897e-18
-1.60751e-20
-1.99233e-18
-4.24517e-21
0.000122189
-4.23541e-18
-1.62409e-20
-1.98836e-18
-4.18662e-21
0.000125236
-4.17854e-18
-1.64688e-20
-2.01537e-18
-4.2792e-21
0.00012835
-4.19549e-18
-1.66864e-20
-2.03912e-18
-4.58038e-21
0.00013153
-4.14396e-18
-1.65955e-20
-2.06495e-18
-4.93486e-21
0.000134779
-4.08686e-18
-1.65444e-20
-2.08228e-18
-5.17749e-21
0.000138097
-4.039e-18
-1.65697e-20
-2.09135e-18
-5.31093e-21
0.000141487
-3.9893e-18
-1.65727e-20
-2.10875e-18
-5.50291e-21
0.000144949
-3.93112e-18
-1.65377e-20
-2.10521e-18
-5.80001e-21
0.000148486
-3.88026e-18
-1.65087e-20
-2.12119e-18
-6.12955e-21
0.000152098
-3.8288e-18
-1.64833e-20
-2.12942e-18
-6.16893e-21
0.000155789
-3.78677e-18
-1.65032e-20
-2.12799e-18
-6.20335e-21
0.000159558
-3.72876e-18
-1.63594e-20
-2.14085e-18
-6.36159e-21
0.000163408
-3.69349e-18
-1.64452e-20
-2.15867e-18
-6.35073e-21
0.00016734
-3.62843e-18
-1.64503e-20
-2.1725e-18
-6.13513e-21
0.000171357
-3.6105e-18
-1.65126e-20
-2.14867e-18
-6.03902e-21
0.00017546
-3.58754e-18
-1.63099e-20
-2.15402e-18
-6.35554e-21
0.00017965
-3.52869e-18
-1.60453e-20
-2.17614e-18
-6.90055e-21
0.00018393
-3.46169e-18
-1.57525e-20
-2.21706e-18
-7.35896e-21
0.000188302
-3.42665e-18
-1.56014e-20
-2.23269e-18
-7.47633e-21
0.000192767
-3.3952e-18
-1.56033e-20
-2.24277e-18
-7.8152e-21
0.000197328
-3.34587e-18
-1.56319e-20
-2.27322e-18
-8.25028e-21
0.000201985
-3.28159e-18
-1.57056e-20
-2.28353e-18
-8.51406e-21
0.000206742
-3.28314e-18
-1.60645e-20
-2.28743e-18
-8.93732e-21
0.000211601
-3.20787e-18
-1.62327e-20
-2.30134e-18
-9.27743e-21
0.000216563
-3.1864e-18
-1.64426e-20
-2.25912e-18
-9.5094e-21
0.00022163
-3.11415e-18
-1.67743e-20
-2.26626e-18
-9.889e-21
0.000226806
-3.08064e-18
-1.72216e-20
-2.26826e-18
-1.03653e-20
0.000232091
-3.02827e-18
-1.74166e-20
-2.28243e-18
-1.09319e-20
0.000237489
-3.00266e-18
-1.7783e-20
-2.25927e-18
-1.08372e-20
0.000243001
-2.99784e-18
-1.81619e-20
-2.24827e-18
-1.10525e-20
0.00024863
-2.92934e-18
-1.82186e-20
-2.26582e-18
-1.13546e-20
0.000254379
-2.8605e-18
-1.88122e-20
-2.29271e-18
-1.19449e-20
0.000260249
-2.83864e-18
-1.98307e-20
-2.36193e-18
-1.28066e-20
0.000266244
-2.81505e-18
-2.09607e-20
-2.32099e-18
-1.30803e-20
0.000272365
-2.8008e-18
-2.18583e-20
-2.37734e-18
-1.48287e-20
0.000278615
-2.76055e-18
-2.17983e-20
-2.43029e-18
-1.57789e-20
0.000284998
-2.76115e-18
-2.30975e-20
-2.38139e-18
-1.54527e-20
0.000291515
-2.7094e-18
-2.29181e-20
-2.42359e-18
-1.62721e-20
0.000298169
-2.68651e-18
-2.30771e-20
-2.38684e-18
-1.71766e-20
0.000304963
-2.65395e-18
-2.27895e-20
-2.42165e-18
-1.90299e-20
0.000311899
-2.61035e-18
-2.21814e-20
-2.45037e-18
-1.96309e-20
0.000318981
-2.59755e-18
-2.17684e-20
-2.43172e-18
-1.96703e-20
0.000326212
-2.57197e-18
-2.11868e-20
-2.43664e-18
-1.95501e-20
0.000333594
-2.5417e-18
-2.04775e-20
-2.45251e-18
-2.00136e-20
0.00034113
-2.58912e-18
-2.01449e-20
-2.45603e-18
-2.06045e-20
0.000348824
-2.57416e-18
-1.85756e-20
-2.47152e-18
-2.16955e-20
0.000356677
-2.56036e-18
-1.78736e-20
-2.47255e-18
-2.19175e-20
0.000364695
-2.51816e-18
-1.77553e-20
-2.44928e-18
-2.31678e-20
0.000372878
-2.48147e-18
-1.75535e-20
-2.41547e-18
-2.35324e-20
0.000381232
-2.50393e-18
-1.79285e-20
-2.40323e-18
-2.31789e-20
0.000389758
-2.3454e-18
-1.69345e-20
-2.48568e-18
-2.24612e-20
0.000398461
-2.36508e-18
-1.85101e-20
-2.38536e-18
-1.95558e-20
0.000407343
-2.35095e-18
-1.81521e-20
-2.38708e-18
-1.8955e-20
0.000416408
-2.26253e-18
-1.82021e-20
-2.32503e-18
-1.58779e-20
0.000425659
-2.20994e-18
-2.01416e-20
-2.32873e-18
-1.39417e-20
0.0004351
-2.27687e-18
-2.1875e-20
-2.27375e-18
-1.15184e-20
0.000444734
-2.23111e-18
-1.91521e-20
-2.27378e-18
-1.04663e-20
0.000454564
-2.20043e-18
-1.82721e-20
-2.28889e-18
-9.73354e-21
0.000464595
-2.27009e-18
-1.6462e-20
-2.21664e-18
-8.83718e-21
0.000474829
-2.21393e-18
-1.61582e-20
-2.24911e-18
-7.76254e-21
0.00048527
-2.20087e-18
-1.63452e-20
-2.25022e-18
-2.68094e-21
0.000495922
-2.26894e-18
-1.65373e-20
-2.08901e-18
3.73686e-21
0.000506788
-2.18359e-18
-1.32337e-20
-2.06389e-18
7.04427e-21
0.000517872
-2.24593e-18
-9.3215e-21
-1.93193e-18
4.73033e-21
0.000529178
-2.11103e-18
-3.98128e-21
-2.12392e-18
-2.89128e-21
0.000540709
-2.03086e-18
-4.09872e-21
-2.19492e-18
-1.95868e-21
0.000552468
-1.97118e-18
-3.40769e-21
-1.99918e-18
8.29163e-21
0.00056446
-1.86887e-18
1.54438e-21
-1.83163e-18
1.33004e-20
0.000576687
-1.72766e-18
2.69766e-21
-1.83717e-18
7.16857e-21
0.000589154
-1.91093e-18
-7.51024e-21
-1.82194e-18
1.57646e-21
0.000601864
-1.83757e-18
-6.35284e-21
-1.8424e-18
-5.0048e-21
0.00061482
-1.73619e-18
-6.8988e-21
-1.83831e-18
-8.77763e-21
0.000628025
-1.7503e-18
-1.23779e-20
-1.84046e-18
-3.50355e-21
0.000641483
-1.77134e-18
-1.36929e-20
-1.90964e-18
2.20744e-21
0.000655197
-1.72692e-18
-9.45966e-21
-1.704e-18
1.03637e-20
0.00066917
-1.70392e-18
-1.06256e-20
-1.70337e-18
4.20162e-21
0.000683405
-1.62951e-18
-1.67702e-20
-1.58894e-18
1.66187e-21
0.000697905
-1.60212e-18
-2.63722e-20
-1.69709e-18
-6.26021e-22
0.000712672
-1.69835e-18
-4.12732e-20
-1.69259e-18
8.29535e-21
0.000727708
-1.65271e-18
-4.22553e-20
-1.45461e-18
1.41659e-20
0.000743016
-1.63964e-18
-3.45477e-20
-1.46423e-18
-1.61921e-21
0.000758597
-1.52892e-18
-2.87776e-20
-1.63129e-18
-9.71385e-21
0.000774452
-1.44927e-18
-2.71058e-20
-1.69985e-18
-1.23374e-20
0.000790583
-1.70489e-18
-3.1622e-20
-1.72934e-18
-1.31445e-20
0.00080699
-1.6102e-18
-1.01411e-20
-1.85431e-18
-2.25741e-20
0.000823673
-1.57494e-18
-2.10898e-20
-1.80541e-18
-1.80725e-20
0.000840632
-1.64261e-18
-2.68948e-20
-1.78755e-18
-2.12497e-20
0.000857865
-1.68397e-18
-1.97595e-20
-1.61504e-18
-1.78488e-20
0.000875371
-1.78754e-18
-2.48849e-20
-1.5953e-18
-1.70464e-20
0.000893146
-1.83107e-18
-4.38311e-20
-1.63753e-18
-1.68646e-20
0.000911187
-1.82928e-18
-3.87217e-20
-1.5658e-18
-1.78514e-20
0.00092949
-1.73692e-18
-2.20093e-20
-1.55073e-18
-7.18056e-21
0.000948047
-1.59138e-18
-1.39609e-20
-1.52812e-18
2.57926e-21
0.000966854
-1.4159e-18
-2.14723e-20
-1.36343e-18
1.13979e-20
0.000985901
-1.46584e-18
-3.08398e-20
-1.45536e-18
-4.87105e-21
0.00100518
-1.39864e-18
-3.63992e-20
-1.45013e-18
-2.06887e-21
0.00102468
-1.37446e-18
-3.3071e-20
-1.4128e-18
-3.3753e-20
0.00104438
-1.17952e-18
-2.1062e-20
-1.34965e-18
-4.08006e-20
0.00106428
-1.22335e-18
-2.84563e-20
-1.12585e-18
-4.71352e-20
0.00108436
-2.70855e-20
-1.22289e-18
-5.09709e-20
-1.23439e-18
9.04117e-09
-1.69748e-22
5.89127e-24
2.77983e-08
-1.07046e-22
1.06193e-22
4.76025e-08
-4.79934e-23
2.15674e-22
6.84994e-08
-1.14929e-23
3.22432e-22
9.05364e-08
2.73101e-23
4.34756e-22
1.13763e-07
2.44484e-23
5.69916e-22
1.3823e-07
3.97441e-23
7.10435e-22
1.63992e-07
-4.12189e-24
8.34443e-22
1.91103e-07
-6.60435e-24
9.62836e-22
2.19621e-07
-5.60011e-23
1.12777e-21
2.49607e-07
-6.16905e-23
1.30536e-21
2.81123e-07
-1.20695e-22
1.43364e-21
3.14234e-07
-1.93301e-22
1.57284e-21
3.49006e-07
-3.82656e-22
1.79353e-21
3.8551e-07
-4.93175e-22
1.95811e-21
4.23819e-07
-5.29123e-22
2.10691e-21
4.64009e-07
-8.0149e-22
2.38114e-21
5.06158e-07
-1.06223e-21
2.59023e-21
5.50347e-07
-1.39868e-21
2.86663e-21
5.96663e-07
-1.66528e-21
3.1712e-21
6.45192e-07
-2.00619e-21
3.52616e-21
6.96027e-07
-2.48452e-21
3.83488e-21
7.49262e-07
-2.85643e-21
4.08429e-21
8.04998e-07
-3.41567e-21
4.44566e-21
8.63336e-07
-3.85143e-21
4.72385e-21
9.24384e-07
-4.41845e-21
4.95356e-21
9.88252e-07
-4.94822e-21
5.47829e-21
1.05506e-06
-5.79076e-21
5.8193e-21
1.12491e-06
-6.40204e-21
6.34361e-21
1.19795e-06
-7.16959e-21
6.79091e-21
1.2743e-06
-8.21989e-21
7.24366e-21
1.35409e-06
-9.20687e-21
7.60546e-21
1.43746e-06
-1.00514e-20
8.04266e-21
1.52455e-06
-1.13269e-20
8.57156e-21
1.61553e-06
-1.2267e-20
8.86868e-21
1.71053e-06
-1.33472e-20
9.25006e-21
1.80973e-06
-1.42881e-20
9.51803e-21
1.91328e-06
-1.61505e-20
1.00088e-20
2.02138e-06
-1.80202e-20
1.05645e-20
2.13418e-06
-2.03767e-20
1.16351e-20
2.25189e-06
-2.20969e-20
1.23472e-20
2.3747e-06
-2.40678e-20
1.29596e-20
2.50281e-06
-2.58013e-20
1.37804e-20
2.63642e-06
-2.78655e-20
1.47906e-20
2.77575e-06
-2.98961e-20
1.58549e-20
2.92104e-06
-3.2408e-20
1.67507e-20
3.0725e-06
-3.53618e-20
1.79378e-20
3.23038e-06
-3.75117e-20
1.83569e-20
3.39493e-06
-4.03627e-20
1.84166e-20
3.56641e-06
-4.2568e-20
1.92301e-20
3.74509e-06
-4.51868e-20
1.91117e-20
3.93123e-06
-4.73613e-20
1.79582e-20
4.12513e-06
-4.9219e-20
1.71927e-20
4.32708e-06
-5.29522e-20
1.82243e-20
4.53738e-06
-5.67846e-20
1.91265e-20
4.75636e-06
-6.11946e-20
2.00374e-20
4.98432e-06
-6.39422e-20
2.05979e-20
5.2216e-06
-6.80926e-20
2.1697e-20
5.46855e-06
-7.26093e-20
2.27915e-20
5.72551e-06
-7.73892e-20
2.29211e-20
5.99286e-06
-8.24916e-20
2.33021e-20
6.27095e-06
-8.76838e-20
2.4787e-20
6.56017e-06
-9.38297e-20
2.57237e-20
6.8609e-06
-9.89435e-20
2.60554e-20
7.17354e-06
-1.04948e-19
2.65651e-20
7.49849e-06
-1.09165e-19
2.52677e-20
7.83616e-06
-1.12953e-19
2.23993e-20
8.18697e-06
-1.16323e-19
1.9886e-20
8.55134e-06
-1.20846e-19
1.59379e-20
8.92968e-06
-1.25228e-19
1.30942e-20
9.32242e-06
-1.29496e-19
6.88173e-21
9.73e-06
-1.3476e-19
3.55061e-21
1.01528e-05
-1.43941e-19
3.25458e-21
1.05914e-05
-1.54466e-19
2.76091e-21
1.1046e-05
-1.61904e-19
2.86041e-21
1.15172e-05
-1.70715e-19
1.89925e-21
1.20054e-05
-1.77353e-19
4.38617e-22
1.25109e-05
-1.90545e-19
3.69342e-21
1.30342e-05
-2.00286e-19
2.23273e-21
1.35756e-05
-2.1066e-19
8.98159e-23
1.41356e-05
-2.19736e-19
-2.05566e-21
1.47145e-05
-2.28324e-19
-2.62172e-21
1.53127e-05
-2.3468e-19
-8.64953e-21
1.59306e-05
-2.44058e-19
-1.45851e-20
1.65684e-05
-2.49506e-19
-1.79657e-20
1.72265e-05
-2.52399e-19
-2.53651e-20
1.79052e-05
-2.58028e-19
-2.86993e-20
1.86048e-05
-2.63355e-19
-3.61253e-20
1.93257e-05
-2.73386e-19
-4.38424e-20
2.0068e-05
-2.85522e-19
-4.95343e-20
2.08321e-05
-2.96604e-19
-5.67884e-20
2.16182e-05
-3.06749e-19
-6.3152e-20
2.24266e-05
-3.16636e-19
-7.32958e-20
2.32576e-05
-3.23895e-19
-8.23223e-20
2.41114e-05
-3.32789e-19
-8.72799e-20
2.49883e-05
-3.46606e-19
-9.35396e-20
2.58885e-05
-3.54204e-19
-1.03013e-19
2.68123e-05
-3.66622e-19
-1.12438e-19
2.776e-05
-3.76839e-19
-1.20403e-19
2.87318e-05
-3.85842e-19
-1.27911e-19
2.97281e-05
-4.0406e-19
-1.39874e-19
3.07492e-05
-4.15951e-19
-1.51337e-19
3.17953e-05
-4.28642e-19
-1.61528e-19
3.28668e-05
-4.30243e-19
-1.73074e-19
3.39641e-05
-4.34381e-19
-1.79712e-19
3.50874e-05
-4.35291e-19
-2.02688e-19
3.62373e-05
-4.4099e-19
-2.12132e-19
3.7414e-05
-4.50363e-19
-2.15655e-19
3.86179e-05
-4.62858e-19
-2.27025e-19
3.98496e-05
-4.85061e-19
-2.28968e-19
4.11095e-05
-4.8842e-19
-2.4334e-19
4.2398e-05
-4.87335e-19
-2.52307e-19
4.37156e-05
-4.89227e-19
-2.68804e-19
4.50628e-05
-5.01065e-19
-2.83991e-19
4.64401e-05
-5.0496e-19
-2.93956e-19
4.78482e-05
-5.09258e-19
-3.06107e-19
4.92875e-05
-5.14503e-19
-3.03516e-19
5.07586e-05
-5.25096e-19
-3.20499e-19
5.22623e-05
-5.39962e-19
-3.22765e-19
5.37989e-05
-5.51729e-19
-3.35756e-19
5.53693e-05
-5.38346e-19
-3.52271e-19
5.69741e-05
-5.46116e-19
-3.51047e-19
5.86139e-05
-5.51508e-19
-3.64274e-19
6.02896e-05
-5.63721e-19
-3.81729e-19
6.20017e-05
-5.83807e-19
-3.95021e-19
6.3751e-05
-6.13679e-19
-3.88039e-19
6.55384e-05
-6.36944e-19
-3.88884e-19
6.73645e-05
-6.43728e-19
-3.90558e-19
6.92302e-05
-6.36991e-19
-4.04612e-19
7.11364e-05
-6.55752e-19
-4.12808e-19
7.30838e-05
-6.61345e-19
-4.22368e-19
7.50733e-05
-6.76011e-19
-4.4412e-19
7.71059e-05
-6.81525e-19
-4.60957e-19
7.91823e-05
-6.9528e-19
-4.79932e-19
8.13037e-05
-7.04153e-19
-4.91261e-19
8.34708e-05
-7.07968e-19
-4.98041e-19
8.56847e-05
-7.11147e-19
-5.15411e-19
8.79463e-05
-7.26124e-19
-5.29448e-19
9.02568e-05
-7.37262e-19
-5.35694e-19
9.2617e-05
-7.52216e-19
-5.49025e-19
9.50282e-05
-7.604e-19
-5.60435e-19
9.74913e-05
-7.81344e-19
-5.60171e-19
0.000100007
-7.54687e-19
-5.68724e-19
0.000102578
-7.76849e-19
-5.71343e-19
0.000105204
-7.91821e-19
-5.95464e-19
0.000107886
-7.97215e-19
-6.14165e-19
0.000110626
-8.20597e-19
-6.35231e-19
0.000113425
-8.33717e-19
-6.50041e-19
0.000116284
-8.3403e-19
-6.5743e-19
0.000119205
-8.45024e-19
-6.80678e-19
0.000122189
-8.56981e-19
-6.94379e-19
0.000125236
-8.51544e-19
-7.24899e-19
0.00012835
-8.42292e-19
-7.23558e-19
0.00013153
-8.50889e-19
-7.12421e-19
0.000134779
-8.69731e-19
-7.07598e-19
0.000138097
-8.86369e-19
-7.22069e-19
0.000141487
-8.95699e-19
-7.46931e-19
0.000144949
-9.04472e-19
-7.51759e-19
0.000148486
-9.16901e-19
-7.29365e-19
0.000152098
-9.28626e-19
-7.39753e-19
0.000155789
-9.05976e-19
-7.64573e-19
0.000159558
-9.37575e-19
-7.71557e-19
0.000163408
-9.2858e-19
-7.54416e-19
0.00016734
-9.20724e-19
-7.81681e-19
0.000171357
-9.17485e-19
-8.10373e-19
0.00017546
-9.4603e-19
-8.22076e-19
0.00017965
-9.39465e-19
-8.43957e-19
0.00018393
-9.52952e-19
-8.48416e-19
0.000188302
-9.94433e-19
-8.70102e-19
0.000192767
-1.00892e-18
-8.85649e-19
0.000197328
-1.00419e-18
-9.02125e-19
0.000201985
-1.01139e-18
-9.25099e-19
0.000206742
-1.02108e-18
-9.17454e-19
0.000211601
-1.0049e-18
-9.29632e-19
0.000216563
-1.06759e-18
-9.25049e-19
0.00022163
-1.07123e-18
-9.68712e-19
0.000226806
-1.06628e-18
-1.00971e-18
0.000232091
-1.06974e-18
-9.84424e-19
0.000237489
-1.08727e-18
-1.00952e-18
0.000243001
-1.10864e-18
-1.01458e-18
0.00024863
-1.13042e-18
-1.04321e-18
0.000254379
-1.13008e-18
-1.08566e-18
0.000260249
-1.1408e-18
-1.06209e-18
0.000266244
-1.10997e-18
-1.04824e-18
0.000272365
-1.02391e-18
-1.02183e-18
0.000278615
-1.10616e-18
-1.02815e-18
0.000284998
-1.05216e-18
-1.06408e-18
0.000291515
-1.0937e-18
-1.0767e-18
0.000298169
-1.09232e-18
-1.1204e-18
0.000304963
-1.09728e-18
-1.1064e-18
0.000311899
-1.13118e-18
-1.12725e-18
0.000318981
-1.16017e-18
-1.12055e-18
0.000326212
-1.17325e-18
-1.15033e-18
0.000333594
-1.20434e-18
-1.15476e-18
0.00034113
-1.20947e-18
-1.19356e-18
0.000348824
-1.23208e-18
-1.18973e-18
0.000356677
-1.21843e-18
-1.24505e-18
0.000364695
-1.17251e-18
-1.15415e-18
0.000372878
-1.17701e-18
-1.0691e-18
0.000381232
-1.14702e-18
-1.09486e-18
0.000389758
-1.14071e-18
-1.16367e-18
0.000398461
-1.13537e-18
-1.19908e-18
0.000407343
-1.18591e-18
-1.16021e-18
0.000416408
-1.21057e-18
-1.21796e-18
0.000425659
-1.20169e-18
-1.24016e-18
0.0004351
-1.15043e-18
-1.20753e-18
0.000444734
-1.19208e-18
-1.19009e-18
0.000454564
-1.14313e-18
-1.22849e-18
0.000464595
-1.28329e-18
-1.20688e-18
0.000474829
-1.25855e-18
-1.20776e-18
0.00048527
-1.2698e-18
-1.2477e-18
0.000495922
-1.32276e-18
-1.21349e-18
0.000506788
-1.34505e-18
-1.34491e-18
0.000517872
-1.44183e-18
-1.29722e-18
0.000529178
-1.46702e-18
-1.25218e-18
0.000540709
-1.37766e-18
-1.18325e-18
0.000552468
-1.2262e-18
-1.1583e-18
0.00056446
-1.1912e-18
-1.24028e-18
0.000576687
-1.2844e-18
-1.24937e-18
0.000589154
-1.23481e-18
-1.23803e-18
0.000601864
-1.23499e-18
-1.21816e-18
0.00061482
-1.2412e-18
-1.12935e-18
0.000628025
-1.15838e-18
-1.1496e-18
0.000641483
-1.06762e-18
-1.13704e-18
0.000655197
-1.12229e-18
-1.19488e-18
0.00066917
-1.2089e-18
-1.14621e-18
0.000683405
-1.20679e-18
-1.1276e-18
0.000697905
-1.27573e-18
-1.1362e-18
0.000712672
-1.19763e-18
-1.11844e-18
0.000727708
-1.05141e-18
-1.19942e-18
0.000743016
-1.06165e-18
-1.09862e-18
0.000758597
-9.65823e-19
-1.07776e-18
0.000774452
-9.29575e-19
-1.06096e-18
0.000790583
-8.12445e-19
-1.17489e-18
0.00080699
-1.06091e-18
-1.02779e-18
0.000823673
-9.43179e-19
-1.0447e-18
0.000840632
-9.04081e-19
-1.06089e-18
0.000857865
-1.07702e-18
-9.90235e-19
0.000875371
-1.33457e-18
-9.44479e-19
0.000893146
-1.22121e-18
-1.0774e-18
0.000911187
-1.18863e-18
-1.08529e-18
0.00092949
-1.19284e-18
-1.12236e-18
0.000948047
-1.20648e-18
-1.05364e-18
0.000966854
-1.11844e-18
-1.20567e-18
0.000985901
-1.17808e-18
-1.20507e-18
0.00100518
-1.06724e-18
-1.42701e-18
0.00102468
-1.05977e-18
-1.196e-18
0.00104438
-1.08632e-18
-1.22489e-18
0.00106428
-1.07299e-18
-9.67577e-19
0.00108436
-1.1538e-18
-9.36373e-19
0.00108436
-1.09339e-18
-3.44096e-20
-1.18006e-18
-3.4886e-20
0.00106428
-1.09174e-18
-2.33931e-20
-8.75578e-19
-1.02617e-20
0.00104438
-9.27093e-19
-2.23528e-20
-7.38146e-19
-3.19116e-21
0.00102468
-7.44085e-19
-2.08885e-20
-8.63033e-19
7.25948e-21
0.00100518
-7.94489e-19
9.83429e-21
-7.86758e-19
7.3573e-21
0.0009859
-7.27899e-19
-8.25762e-21
-8.01776e-19
8.54063e-21
0.000966854
-8.18421e-19
-3.04191e-20
-7.81997e-19
-1.44409e-21
0.000948047
-7.20743e-19
-2.67603e-20
-7.68187e-19
-4.84929e-21
0.00092949
-7.06584e-19
-3.212e-20
-7.85785e-19
-1.22223e-20
0.000911187
-7.02475e-19
-3.97572e-20
-8.5205e-19
-2.06783e-20
0.000893146
-8.03057e-19
-4.14674e-20
-6.30244e-19
-8.29346e-21
0.000875371
-7.43917e-19
-3.48648e-20
-6.39061e-19
-1.20457e-20
0.000857865
-7.34275e-19
-1.98402e-20
-6.72996e-19
-6.95223e-21
0.000840632
-7.16005e-19
-4.16631e-21
-6.79279e-19
5.8346e-22
0.000823673
-4.1725e-19
3.5455e-21
-6.33223e-19
-2.18418e-21
0.00080699
-5.08106e-19
-8.29029e-21
-6.45561e-19
7.62195e-21
0.000790583
-4.83088e-19
-4.01003e-21
-5.6758e-19
1.44719e-20
0.000774452
-4.3548e-19
-1.75896e-22
-3.80958e-19
2.24053e-20
0.000758597
-4.25186e-19
2.44795e-21
-3.8943e-19
2.38298e-20
0.000743016
-3.8549e-19
6.70127e-21
-4.07617e-19
2.60914e-20
0.000727708
-4.21707e-19
2.60341e-21
-4.09509e-19
2.06454e-20
0.000712672
-4.36327e-19
3.68935e-21
-3.28783e-19
1.36438e-20
0.000697905
-4.4021e-19
3.92766e-21
-3.68603e-19
3.46093e-21
0.000683405
-3.61448e-19
6.55168e-21
-3.89017e-19
-1.79574e-21
0.00066917
-4.10595e-19
-9.40164e-22
-3.54146e-19
4.40463e-21
0.000655197
-4.46918e-19
-2.66073e-21
-3.97032e-19
2.95417e-21
0.000641483
-4.34003e-19
5.5134e-22
-3.38603e-19
2.50604e-21
0.000628025
-3.42337e-19
3.37495e-21
-4.21079e-19
-4.55462e-21
0.00061482
-4.26897e-19
2.38784e-22
-4.00194e-19
-7.02121e-21
0.000601864
-4.59238e-19
-4.36852e-22
-2.96376e-19
-7.07743e-21
0.000589154
-2.5936e-19
-5.01454e-22
-4.7636e-19
-1.66587e-20
0.000576687
-2.65735e-19
-2.4961e-21
-4.59772e-19
-1.60996e-20
0.00056446
-3.29015e-19
-9.30376e-21
-4.30837e-19
-6.25251e-21
0.000552468
-4.04459e-19
-1.04583e-20
-3.72804e-19
-5.27102e-21
0.000540709
-4.16453e-19
-5.14358e-21
-4.1899e-19
-5.20572e-21
0.000529178
-4.54587e-19
-2.22855e-21
-3.77845e-19
-1.4721e-21
0.000517872
-3.70794e-19
1.03744e-21
-3.58771e-19
7.56359e-22
0.000506788
-3.7245e-19
1.13028e-21
-3.83549e-19
1.34034e-21
0.000495922
-3.73605e-19
1.27638e-21
-3.28639e-19
8.92165e-22
0.00048527
-3.61597e-19
1.51719e-21
-3.82995e-19
5.09233e-22
0.000474829
-3.55774e-19
7.13452e-22
-4.03937e-19
4.00627e-21
0.000464595
-3.39139e-19
1.92916e-21
-4.00116e-19
6.0481e-21
0.000454564
-2.89578e-19
1.51386e-21
-2.90748e-19
6.79312e-21
0.000444734
-2.82106e-19
9.17537e-22
-2.85083e-19
4.67109e-21
0.0004351
-2.25235e-19
1.23151e-21
-1.95103e-19
5.77489e-21
0.000425659
-2.6706e-19
3.0335e-21
-2.15257e-19
1.56868e-21
0.000416408
-2.14072e-19
5.32868e-21
-2.15095e-19
-2.18787e-21
0.000407343
-2.01281e-19
5.19715e-21
-2.49283e-19
-1.95891e-21
0.000398461
-1.85906e-19
5.51566e-21
-2.50477e-19
-2.92079e-21
0.000389758
-1.79658e-19
3.64176e-21
-2.03743e-19
-4.67892e-21
0.000381232
-1.67836e-19
5.48609e-22
-2.17901e-19
-5.92821e-21
0.000372878
-1.83549e-19
-5.64665e-22
-2.00529e-19
-7.14327e-21
0.000364695
-1.82991e-19
-2.71171e-22
-2.4363e-19
-6.64112e-21
0.000356677
-1.38749e-19
5.49711e-22
-2.4322e-19
-5.20615e-21
0.000348824
-1.41077e-19
-9.72865e-22
-2.13472e-19
-4.5786e-21
0.00034113
-9.14549e-20
-1.70693e-21
-1.97312e-19
-3.41075e-21
0.000333594
-1.42855e-19
-2.85336e-21
-1.4456e-19
-1.93891e-21
0.000326212
-1.03104e-19
-3.76784e-21
-8.41989e-20
-6.47619e-23
0.000318981
-9.2857e-20
-4.59032e-21
-8.85496e-20
1.2692e-21
0.000311899
-1.31968e-19
-4.83331e-21
-1.15162e-19
2.47422e-21
0.000304963
-1.19604e-19
-3.80062e-21
-1.20692e-19
3.55769e-21
0.000298169
-1.51229e-19
-2.69131e-21
-1.02336e-19
4.56088e-21
0.000291515
-1.13746e-19
-1.40883e-21
-1.37544e-19
4.31423e-21
0.000284998
-1.5072e-19
-1.34562e-21