/*--------------------------------*- C++ -*----------------------------------*\
| =========                 |                                                 |
| \\      /  F ield         | OpenFOAM: The Open Source CFD Toolbox           |
|  \\    /   O peration     | Version:  2106                                  |
|   \\  /    A nd           | Website:  www.openfoam.com                      |
|    \\/     M anipulation  |                                                 |
\*---------------------------------------------------------------------------*/
FoamFile
{
    version     2.0;
    format      ascii;
    arch        "LSB;label=32;scalar=64";
    class       volSymmTensorField;
    location    "10030";
    object      turbulenceProperties:R;
}
// * * * * * * * * * * * * * * * * * * * * * * * * * * * * * * * * * * * * * //

dimensions      [0 2 -2 0 0 0 0];

internalField   nonuniform List<symmTensor> 
2000
(
(2.06836e-08 -7.30418e-14 -1.35186e-16 2.06836e-08 7.16222e-29 2.06836e-08)
(2.06836e-08 -7.30418e-14 -1.35186e-16 2.06836e-08 -2.41613e-28 2.06836e-08)
(3.10243e-09 -6.31126e-14 -3.52629e-16 3.10243e-09 -8.62935e-29 3.10243e-09)
(3.10243e-09 -6.31126e-14 -3.52629e-16 3.10243e-09 -2.80767e-29 3.10243e-09)
(1.43523e-09 -8.64475e-14 -6.70181e-16 1.43523e-09 7.97022e-29 1.43523e-09)
(1.43523e-09 -8.64475e-14 -6.70181e-16 1.43523e-09 -1.89636e-29 1.43523e-09)
(2.36975e-09 -3.03923e-13 -2.40013e-15 2.36975e-09 8.10709e-29 2.36975e-09)
(2.36975e-09 -3.03923e-13 -2.40013e-15 2.36975e-09 -6.6393e-29 2.36975e-09)
(5.43978e-09 -1.23603e-12 -9.94335e-15 5.43978e-09 -1.32851e-28 5.43978e-09)
(5.43978e-09 -1.23603e-12 -9.94335e-15 5.43978e-09 -2.70173e-28 5.43978e-09)
(1.14142e-08 -4.10091e-12 -3.36059e-14 1.14142e-08 -9.56154e-28 1.14142e-08)
(1.14142e-08 -4.10091e-12 -3.36059e-14 1.14142e-08 -8.96619e-28 1.14142e-08)
(2.14195e-08 -1.12754e-11 -9.41233e-14 2.14195e-08 -2.79941e-27 2.14195e-08)
(2.14195e-08 -1.12754e-11 -9.41233e-14 2.14195e-08 -2.4651e-27 2.14195e-08)
(3.68196e-08 -2.68984e-11 -2.2873e-13 3.68196e-08 -6.85605e-27 3.68196e-08)
(3.68196e-08 -2.68984e-11 -2.2873e-13 3.68196e-08 -5.87876e-27 3.68196e-08)
(5.91992e-08 -5.76421e-11 -4.99309e-13 5.91992e-08 -1.49749e-26 5.91992e-08)
(5.91992e-08 -5.76421e-11 -4.99309e-13 5.91992e-08 -1.25839e-26 5.91992e-08)
(9.03713e-08 -1.1368e-10 -1.00311e-12 9.03713e-08 -3.02653e-26 9.03713e-08)
(9.03713e-08 -1.1368e-10 -1.00311e-12 9.03713e-08 -2.47614e-26 9.03713e-08)
(1.32391e-07 -2.09889e-10 -1.88661e-12 1.32391e-07 -5.7289e-26 1.32391e-07)
(1.32391e-07 -2.09889e-10 -1.88661e-12 1.32391e-07 -4.56136e-26 1.32391e-07)
(1.87574e-07 -3.67319e-10 -3.36332e-12 1.87574e-07 -1.0284e-25 1.87574e-07)
(1.87574e-07 -3.67319e-10 -3.36332e-12 1.87574e-07 -7.96391e-26 1.87574e-07)
(2.58517e-07 -6.14988e-10 -5.73618e-12 2.58517e-07 -1.76716e-25 2.58517e-07)
(2.58517e-07 -6.14988e-10 -5.73618e-12 2.58517e-07 -1.3286e-25 2.58517e-07)
(3.48119e-07 -9.92043e-10 -9.4258e-12 3.48119e-07 -2.92683e-25 3.48119e-07)
(3.48119e-07 -9.92043e-10 -9.4258e-12 3.48119e-07 -2.13384e-25 3.48119e-07)
(4.59608e-07 -1.55036e-09 -1.50055e-11 4.59608e-07 -4.69713e-25 4.59608e-07)
(4.59608e-07 -1.55036e-09 -1.50055e-11 4.59608e-07 -3.31467e-25 4.59608e-07)
(5.96567e-07 -2.35763e-09 -2.32448e-11 5.96567e-07 -7.33801e-25 5.96567e-07)
(5.96567e-07 -2.35763e-09 -2.32448e-11 5.96567e-07 -5.00619e-25 5.96567e-07)
(7.6296e-07 -3.50105e-09 -3.51625e-11 7.6296e-07 -1.11888e-24 7.6296e-07)
(7.6296e-07 -3.50105e-09 -3.51625e-11 7.6296e-07 -7.3823e-25 7.6296e-07)
(9.6317e-07 -5.09167e-09 -5.20923e-11 9.6317e-07 -1.66916e-24 9.6317e-07)
(9.6317e-07 -5.09167e-09 -5.20923e-11 9.6317e-07 -1.06595e-24 9.6317e-07)
(1.20202e-06 -7.26953e-09 -7.57618e-11 1.20202e-06 -2.44411e-24 1.20202e-06)
(1.20202e-06 -7.26953e-09 -7.57618e-11 1.20202e-06 -1.50804e-24 1.20202e-06)
(1.48484e-06 -1.02096e-08 -1.08389e-10 1.48484e-06 -3.51895e-24 1.48484e-06)
(1.48484e-06 -1.02096e-08 -1.08389e-10 1.48484e-06 -2.09635e-24 1.48484e-06)
(1.81744e-06 -1.4129e-08 -1.52798e-10 1.81744e-06 -4.98971e-24 1.81744e-06)
(1.81744e-06 -1.4129e-08 -1.52798e-10 1.81744e-06 -2.87059e-24 1.81744e-06)
(2.20624e-06 -1.92949e-08 -2.12559e-10 2.20624e-06 -6.9804e-24 2.20624e-06)
(2.20624e-06 -1.92949e-08 -2.12559e-10 2.20624e-06 -3.86995e-24 2.20624e-06)
(2.65824e-06 -2.60342e-08 -2.92155e-10 2.65824e-06 -9.64116e-24 2.65824e-06)
(2.65824e-06 -2.60342e-08 -2.92155e-10 2.65824e-06 -5.15208e-24 2.65824e-06)
(3.1811e-06 -3.4745e-08 -3.97183e-10 3.1811e-06 -1.31652e-23 3.1811e-06)
(3.1811e-06 -3.4745e-08 -3.97183e-10 3.1811e-06 -6.77025e-24 3.1811e-06)
(3.7832e-06 -4.59084e-08 -5.34592e-10 3.7832e-06 -1.77902e-23 3.7832e-06)
(3.7832e-06 -4.59084e-08 -5.34592e-10 3.7832e-06 -8.78931e-24 3.7832e-06)
(4.47367e-06 -6.01043e-08 -7.12963e-10 4.47367e-06 -2.38126e-23 4.47367e-06)
(4.47367e-06 -6.01043e-08 -7.12963e-10 4.47367e-06 -1.13112e-23 4.47367e-06)
(5.26247e-06 -7.80279e-08 -9.42848e-10 5.26247e-06 -2.1504e-23 5.26247e-06)
(5.26247e-06 -7.80279e-08 -9.42848e-10 5.26247e-06 -1.44061e-23 5.26247e-06)
(6.16043e-06 -1.00509e-07 -1.23716e-09 6.16043e-06 1.16523e-22 6.16043e-06)
(6.16043e-06 -1.00509e-07 -1.23716e-09 6.16043e-06 -1.81176e-23 6.16043e-06)
(7.17934e-06 -1.28535e-07 -1.61166e-09 7.17934e-06 3.22723e-22 7.17934e-06)
(7.17934e-06 -1.28535e-07 -1.61166e-09 7.17934e-06 -2.26554e-23 7.17934e-06)
(8.332e-06 -1.63276e-07 -2.08548e-09 8.332e-06 4.23365e-22 8.332e-06)
(8.332e-06 -1.63276e-07 -2.08548e-09 8.332e-06 -1.8691e-23 8.332e-06)
(9.63232e-06 -2.06115e-07 -2.68178e-09 9.63232e-06 5.51662e-22 9.63232e-06)
(9.63232e-06 -2.06115e-07 -2.68178e-09 9.63232e-06 -9.79015e-24 9.63232e-06)
(1.10954e-05 -2.58679e-07 -3.4285e-09 1.10954e-05 7.14263e-22 1.10954e-05)
(1.10954e-05 -2.58679e-07 -3.4285e-09 1.10954e-05 -8.76665e-24 1.10954e-05)
(1.27375e-05 -3.22879e-07 -4.35926e-09 1.27375e-05 9.19079e-22 1.27375e-05)
(1.27375e-05 -3.22879e-07 -4.35926e-09 1.27375e-05 -6.55812e-24 1.27375e-05)
(1.45764e-05 -4.00953e-07 -5.51438e-09 1.45764e-05 1.17608e-21 1.45764e-05)
(1.45764e-05 -4.00953e-07 -5.51438e-09 1.45764e-05 -2.667e-24 1.45764e-05)
(1.66313e-05 -4.95513e-07 -6.94206e-09 1.66313e-05 1.49678e-21 1.66313e-05)
(1.66313e-05 -4.95513e-07 -6.94206e-09 1.66313e-05 3.92243e-24 1.66313e-05)
(1.89227e-05 -6.09603e-07 -8.69982e-09 1.89227e-05 1.89522e-21 1.89227e-05)
(1.89227e-05 -6.09603e-07 -8.69982e-09 1.89227e-05 1.36235e-23 1.89227e-05)
(2.14731e-05 -7.46758e-07 -1.08561e-08 2.14731e-05 2.38872e-21 2.14731e-05)
(2.14731e-05 -7.46758e-07 -1.08561e-08 2.14731e-05 2.83219e-23 2.14731e-05)
(2.43067e-05 -9.11076e-07 -1.3492e-08 2.43067e-05 2.99738e-21 2.43067e-05)
(2.43067e-05 -9.11076e-07 -1.3492e-08 2.43067e-05 4.83917e-23 2.43067e-05)
(2.74494e-05 -1.1073e-06 -1.67037e-08 2.74494e-05 3.74523e-21 2.74494e-05)
(2.74494e-05 -1.1073e-06 -1.67037e-08 2.74494e-05 7.5933e-23 2.74494e-05)
(3.09293e-05 -1.34088e-06 -2.06048e-08 3.09293e-05 4.66147e-21 3.09293e-05)
(3.09293e-05 -1.34088e-06 -2.06048e-08 3.09293e-05 1.12697e-22 3.09293e-05)
(3.47766e-05 -1.61813e-06 -2.53292e-08 3.47766e-05 5.77883e-21 3.47766e-05)
(3.47766e-05 -1.61813e-06 -2.53292e-08 3.47766e-05 1.60535e-22 3.47766e-05)
(3.9024e-05 -1.94628e-06 -3.10342e-08 3.9024e-05 7.13584e-21 3.9024e-05)
(3.9024e-05 -1.94628e-06 -3.10342e-08 3.9024e-05 2.23646e-22 3.9024e-05)
(4.37062e-05 -2.33362e-06 -3.79045e-08 4.37062e-05 8.78471e-21 4.37062e-05)
(4.37062e-05 -2.33362e-06 -3.79045e-08 4.37062e-05 3.0415e-22 4.37062e-05)
(4.88609e-05 -2.78962e-06 -4.61566e-08 4.88609e-05 1.07759e-20 4.88609e-05)
(4.88609e-05 -2.78962e-06 -4.61566e-08 4.88609e-05 4.07388e-22 4.88609e-05)
(5.45284e-05 -3.32513e-06 -5.60431e-08 5.45284e-05 1.13542e-20 5.45284e-05)
(5.45284e-05 -3.32513e-06 -5.60431e-08 5.45284e-05 5.386e-22 5.45284e-05)
(6.0752e-05 -3.95246e-06 -6.78591e-08 6.0752e-05 9.35432e-21 6.0752e-05)
(6.0752e-05 -3.95246e-06 -6.78591e-08 6.0752e-05 7.01955e-22 6.0752e-05)
(6.7578e-05 -4.68566e-06 -8.19474e-08 6.7578e-05 8.50888e-21 6.7578e-05)
(6.7578e-05 -4.68566e-06 -8.19474e-08 6.7578e-05 9.04468e-22 6.7578e-05)
(7.50559e-05 -5.54061e-06 -9.87067e-08 7.50559e-05 1.00638e-20 7.50559e-05)
(7.50559e-05 -5.54061e-06 -9.87067e-08 7.50559e-05 1.1578e-21 7.50559e-05)
(8.32388e-05 -6.53532e-06 -1.18599e-07 8.32388e-05 1.18497e-20 8.32388e-05)
(8.32388e-05 -6.53532e-06 -1.18599e-07 8.32388e-05 1.48347e-21 8.32388e-05)
(9.21833e-05 -7.69013e-06 -1.42157e-07 9.21833e-05 1.39082e-20 9.21833e-05)
(9.21833e-05 -7.69013e-06 -1.42157e-07 9.21833e-05 1.8851e-21 9.21833e-05)
(0.00010195 -9.02793e-06 -1.69998e-07 0.00010195 1.62745e-20 0.00010195)
(0.00010195 -9.02793e-06 -1.69998e-07 0.00010195 2.37842e-21 0.00010195)
(0.000112602 -1.05745e-05 -2.0283e-07 0.000112602 1.9014e-20 0.000112602)
(0.000112602 -1.05745e-05 -2.0283e-07 0.000112602 2.9928e-21 0.000112602)
(0.00012421 -1.23586e-05 -2.41469e-07 0.00012421 2.21743e-20 0.00012421)
(0.00012421 -1.23586e-05 -2.41469e-07 0.00012421 3.73917e-21 0.00012421)
(0.000136845 -1.44125e-05 -2.86847e-07 0.000136845 2.58204e-20 0.000136845)
(0.000136845 -1.44125e-05 -2.86847e-07 0.000136845 4.60449e-21 0.000136845)
(0.000150584 -1.67724e-05 -3.40031e-07 0.000150584 3.00023e-20 0.000150584)
(0.000150584 -1.67724e-05 -3.40031e-07 0.000150584 5.61273e-21 0.000150584)
(0.00016551 -1.9478e-05 -4.02237e-07 0.00016551 3.46785e-20 0.00016551)
(0.00016551 -1.9478e-05 -4.02237e-07 0.00016551 6.83193e-21 0.00016551)
(0.000181708 -2.25738e-05 -4.74846e-07 0.000181708 3.993e-20 0.000181708)
(0.000181708 -2.25738e-05 -4.74846e-07 0.000181708 8.28699e-21 0.000181708)
(0.000199269 -2.61087e-05 -5.59426e-07 0.000199269 4.58328e-20 0.000199269)
(0.000199269 -2.61087e-05 -5.59426e-07 0.000199269 1.00262e-20 0.000199269)
(0.000218289 -3.01367e-05 -6.57747e-07 0.000218289 5.24649e-20 0.000218289)
(0.000218289 -3.01367e-05 -6.57747e-07 0.000218289 1.20879e-20 0.000218289)
(0.000238868 -3.4717e-05 -7.71805e-07 0.000238868 5.92274e-20 0.000238868)
(0.000238868 -3.4717e-05 -7.71805e-07 0.000238868 1.45457e-20 0.000238868)
(0.000261111 -3.9914e-05 -9.03839e-07 0.000261111 6.46847e-20 0.000261111)
(0.000261111 -3.9914e-05 -9.03839e-07 0.000261111 1.74426e-20 0.000261111)
(0.000285127 -4.57982e-05 -1.05636e-06 0.000285127 7.0961e-20 0.000285127)
(0.000285127 -4.57982e-05 -1.05636e-06 0.000285127 2.0711e-20 0.000285127)
(0.00031103 -5.24456e-05 -1.23215e-06 0.00031103 7.98258e-20 0.00031103)
(0.00031103 -5.24456e-05 -1.23215e-06 0.00031103 2.45124e-20 0.00031103)
(0.000338937 -5.99382e-05 -1.43432e-06 0.000338937 8.94518e-20 0.000338937)
(0.000338937 -5.99382e-05 -1.43432e-06 0.000338937 2.90313e-20 0.000338937)
(0.000368971 -6.8364e-05 -1.6663e-06 0.000368971 1.00088e-19 0.000368971)
(0.000368971 -6.8364e-05 -1.6663e-06 0.000368971 3.42338e-20 0.000368971)
(0.000401255 -7.78164e-05 -1.93187e-06 0.000401255 1.11582e-19 0.000401255)
(0.000401255 -7.78164e-05 -1.93187e-06 0.000401255 4.03241e-20 0.000401255)
(0.000435917 -8.83948e-05 -2.23515e-06 0.000435917 1.23538e-19 0.000435917)
(0.000435917 -8.83948e-05 -2.23515e-06 0.000435917 4.76465e-20 0.000435917)
(0.000473085 -0.000100203 -2.58066e-06 0.000473085 1.36506e-19 0.000473085)
(0.000473085 -0.000100203 -2.58066e-06 0.000473085 5.61021e-20 0.000473085)
(0.000512889 -0.00011335 -2.97327e-06 0.000512889 1.49925e-19 0.000512889)
(0.000512889 -0.00011335 -2.97327e-06 0.000512889 6.59566e-20 0.000512889)
(0.00055546 -0.000127948 -3.41825e-06 0.00055546 1.64063e-19 0.00055546)
(0.00055546 -0.000127948 -3.41825e-06 0.00055546 7.74167e-20 0.00055546)
(0.000600926 -0.000144112 -3.92123e-06 0.000600926 1.79874e-19 0.000600926)
(0.000600926 -0.000144112 -3.92123e-06 0.000600926 9.04683e-20 0.000600926)
(0.000649413 -0.000161959 -4.48819e-06 0.000649413 1.95596e-19 0.000649413)
(0.000649413 -0.000161959 -4.48819e-06 0.000649413 1.04979e-19 0.000649413)
(0.000701046 -0.000181606 -5.12547e-06 0.000701046 2.09913e-19 0.000701046)
(0.000701046 -0.000181606 -5.12547e-06 0.000701046 1.20416e-19 0.000701046)
(0.00075594 -0.000203168 -5.8397e-06 0.00075594 2.23313e-19 0.00075594)
(0.00075594 -0.000203168 -5.8397e-06 0.00075594 1.37614e-19 0.00075594)
(0.000814206 -0.000226757 -6.63775e-06 0.000814206 2.37462e-19 0.000814206)
(0.000814206 -0.000226757 -6.63775e-06 0.000814206 1.56107e-19 0.000814206)
(0.000875947 -0.000252481 -7.52672e-06 0.000875947 2.51454e-19 0.000875947)
(0.000875947 -0.000252481 -7.52672e-06 0.000875947 1.7669e-19 0.000875947)
(0.000941253 -0.000280439 -8.51385e-06 0.000941253 2.6455e-19 0.000941253)
(0.000941253 -0.000280439 -8.51385e-06 0.000941253 1.99773e-19 0.000941253)
(0.0010102 -0.000310722 -9.60645e-06 0.0010102 2.73457e-19 0.0010102)
(0.0010102 -0.000310722 -9.60645e-06 0.0010102 2.23238e-19 0.0010102)
(0.00108286 -0.000343407 -1.08118e-05 0.00108286 2.77576e-19 0.00108286)
(0.00108286 -0.000343407 -1.08118e-05 0.00108286 2.48456e-19 0.00108286)
(0.00115928 -0.00037856 -1.21371e-05 0.00115928 2.79352e-19 0.00115928)
(0.00115928 -0.00037856 -1.21371e-05 0.00115928 2.7811e-19 0.00115928)
(0.00123948 -0.000416229 -1.35893e-05 0.00123948 2.76943e-19 0.00123948)
(0.00123948 -0.000416229 -1.35893e-05 0.00123948 3.11138e-19 0.00123948)
(0.00132347 -0.000456444 -1.51752e-05 0.00132347 2.7148e-19 0.00132347)
(0.00132347 -0.000456444 -1.51752e-05 0.00132347 3.43027e-19 0.00132347)
(0.00141126 -0.000499216 -1.69009e-05 0.00141126 2.60467e-19 0.00141126)
(0.00141126 -0.000499216 -1.69009e-05 0.00141126 3.78598e-19 0.00141126)
(0.0015028 -0.000544535 -1.87724e-05 0.0015028 2.46706e-19 0.0015028)
(0.0015028 -0.000544535 -1.87724e-05 0.0015028 4.20147e-19 0.0015028)
(0.00159803 -0.000592368 -2.07947e-05 0.00159803 2.31987e-19 0.00159803)
(0.00159803 -0.000592368 -2.07947e-05 0.00159803 4.59246e-19 0.00159803)
(0.00169688 -0.000642662 -2.29726e-05 0.00169688 2.01233e-19 0.00169688)
(0.00169688 -0.000642662 -2.29726e-05 0.00169688 5.00918e-19 0.00169688)
(0.00179925 -0.000695339 -2.53098e-05 0.00179925 1.58757e-19 0.00179925)
(0.00179925 -0.000695339 -2.53098e-05 0.00179925 5.47213e-19 0.00179925)
(0.001905 -0.000750299 -2.78093e-05 0.001905 1.17547e-19 0.001905)
(0.001905 -0.000750299 -2.78093e-05 0.001905 5.93602e-19 0.001905)
(0.00201399 -0.000807424 -3.04733e-05 0.00201399 5.43381e-20 0.00201399)
(0.00201399 -0.000807424 -3.04733e-05 0.00201399 6.43882e-19 0.00201399)
(0.00212605 -0.000866572 -3.33033e-05 0.00212605 5.65564e-20 0.00212605)
(0.00212605 -0.000866572 -3.33033e-05 0.00212605 6.95872e-19 0.00212605)
(0.00224097 -0.000927587 -3.62996e-05 0.00224097 -4.14225e-20 0.00224097)
(0.00224097 -0.000927587 -3.62996e-05 0.00224097 6.64649e-19 0.00224097)
(0.00235855 -0.000990295 -3.94622e-05 0.00235855 -1.11957e-19 0.00235855)
(0.00235855 -0.000990295 -3.94622e-05 0.00235855 5.68495e-19 0.00235855)
(0.00247855 -0.00105451 -4.27897e-05 0.00247855 -1.68372e-19 0.00247855)
(0.00247855 -0.00105451 -4.27897e-05 0.00247855 5.56435e-19 0.00247855)
(0.00260074 -0.00112004 -4.62804e-05 0.00260074 -2.31122e-19 0.00260074)
(0.00260074 -0.00112004 -4.62804e-05 0.00260074 5.92981e-19 0.00260074)
(0.00272485 -0.00118668 -4.99316e-05 0.00272485 -2.7968e-19 0.00272485)
(0.00272485 -0.00118668 -4.99316e-05 0.00272485 6.22593e-19 0.00272485)
(0.00285062 -0.00125421 -5.37404e-05 0.00285062 -3.14101e-19 0.00285062)
(0.00285062 -0.00125421 -5.37404e-05 0.00285062 6.6126e-19 0.00285062)
(0.00297777 -0.00132244 -5.77029e-05 0.00297777 -3.89717e-19 0.00297777)
(0.00297777 -0.00132244 -5.77029e-05 0.00297777 7.01374e-19 0.00297777)
(0.00310602 -0.00139115 -6.18149e-05 0.00310602 -4.89959e-19 0.00310602)
(0.00310602 -0.00139115 -6.18149e-05 0.00310602 7.41705e-19 0.00310602)
(0.0032351 -0.00146014 -6.60721e-05 0.0032351 -5.88517e-19 0.0032351)
(0.0032351 -0.00146014 -6.60721e-05 0.0032351 7.81632e-19 0.0032351)
(0.00336472 -0.00152921 -7.04696e-05 0.00336472 -7.24125e-19 0.00336472)
(0.00336472 -0.00152921 -7.04696e-05 0.00336472 8.20177e-19 0.00336472)
(0.00349461 -0.00159817 -7.50023e-05 0.00349461 -8.73745e-19 0.00349461)
(0.00349461 -0.00159817 -7.50023e-05 0.00349461 8.93476e-19 0.00349461)
(0.0036245 -0.00166683 -7.96653e-05 0.0036245 -1.03604e-18 0.0036245)
(0.0036245 -0.00166683 -7.96653e-05 0.0036245 1.03782e-18 0.0036245)
(0.00375412 -0.00173503 -8.44533e-05 0.00375412 -1.18264e-18 0.00375412)
(0.00375412 -0.00173503 -8.44533e-05 0.00375412 1.12759e-18 0.00375412)
(0.00388323 -0.0018026 -8.93612e-05 0.00388323 -1.41434e-18 0.00388323)
(0.00388323 -0.0018026 -8.93612e-05 0.00388323 1.20521e-18 0.00388323)
(0.00401158 -0.0018694 -9.43842e-05 0.00401158 -1.64848e-18 0.00401158)
(0.00401158 -0.0018694 -9.43842e-05 0.00401158 1.33806e-18 0.00401158)
(0.00413895 -0.0019353 -9.95171e-05 0.00413895 -1.78847e-18 0.00413895)
(0.00413895 -0.0019353 -9.95171e-05 0.00413895 1.48767e-18 0.00413895)
(0.00426511 -0.00200016 -0.000104755 0.00426511 -1.95526e-18 0.00426511)
(0.00426511 -0.00200016 -0.000104755 0.00426511 1.64881e-18 0.00426511)
(0.00438986 -0.0020639 -0.000110095 0.00438986 -2.05255e-18 0.00438986)
(0.00438986 -0.0020639 -0.000110095 0.00438986 1.77649e-18 0.00438986)
(0.00451303 -0.0021264 -0.00011553 0.00451303 -2.14068e-18 0.00451303)
(0.00451303 -0.0021264 -0.00011553 0.00451303 1.8938e-18 0.00451303)
(0.00463442 -0.00218759 -0.000121059 0.00463442 -2.17398e-18 0.00463442)
(0.00463442 -0.00218759 -0.000121059 0.00463442 1.94326e-18 0.00463442)
(0.00475389 -0.00224739 -0.000126676 0.00475389 -2.29223e-18 0.00475389)
(0.00475389 -0.00224739 -0.000126676 0.00475389 1.95748e-18 0.00475389)
(0.0048713 -0.00230575 -0.000132379 0.0048713 -2.50629e-18 0.0048713)
(0.0048713 -0.00230575 -0.000132379 0.0048713 2.0411e-18 0.0048713)
(0.00498652 -0.00236261 -0.000138165 0.00498652 -2.62972e-18 0.00498652)
(0.00498652 -0.00236261 -0.000138165 0.00498652 2.21595e-18 0.00498652)
(0.00509942 -0.00241794 -0.00014403 0.00509942 -2.69586e-18 0.00509942)
(0.00509942 -0.00241794 -0.00014403 0.00509942 2.48196e-18 0.00509942)
(0.00520992 -0.0024717 -0.000149972 0.00520992 -2.69929e-18 0.00520992)
(0.00520992 -0.0024717 -0.000149972 0.00520992 2.68722e-18 0.00520992)
(0.00531792 -0.00252388 -0.000155988 0.00531792 -2.74564e-18 0.00531792)
(0.00531792 -0.00252388 -0.000155988 0.00531792 2.85782e-18 0.00531792)
(0.00542336 -0.00257445 -0.000162078 0.00542336 -2.91744e-18 0.00542336)
(0.00542336 -0.00257445 -0.000162078 0.00542336 2.9686e-18 0.00542336)
(0.00552616 -0.00262342 -0.000168238 0.00552616 -2.98911e-18 0.00552616)
(0.00552616 -0.00262342 -0.000168238 0.00552616 3.05284e-18 0.00552616)
(0.00562628 -0.00267077 -0.000174467 0.00562628 -2.87086e-18 0.00562628)
(0.00562628 -0.00267077 -0.000174467 0.00562628 3.09379e-18 0.00562628)
(0.00572368 -0.00271651 -0.000180765 0.00572368 -2.67149e-18 0.00572368)
(0.00572368 -0.00271651 -0.000180765 0.00572368 3.17388e-18 0.00572368)
(0.00581832 -0.00276064 -0.000187129 0.00581832 -2.51619e-18 0.00581832)
(0.00581832 -0.00276064 -0.000187129 0.00581832 3.72989e-18 0.00581832)
(0.00591019 -0.00280319 -0.000193559 0.00591019 -2.53468e-18 0.00591019)
(0.00591019 -0.00280319 -0.000193559 0.00591019 4.22533e-18 0.00591019)
(0.00599926 -0.00284416 -0.000200055 0.00599926 -2.68243e-18 0.00599926)
(0.00599926 -0.00284416 -0.000200055 0.00599926 4.29599e-18 0.00599926)
(0.00608554 -0.00288357 -0.000206615 0.00608554 -2.70572e-18 0.00608554)
(0.00608554 -0.00288357 -0.000206615 0.00608554 4.48471e-18 0.00608554)
(0.00616902 -0.00292144 -0.000213239 0.00616902 -2.63092e-18 0.00616902)
(0.00616902 -0.00292144 -0.000213239 0.00616902 4.9706e-18 0.00616902)
(0.0062497 -0.0029578 -0.000219927 0.0062497 -2.58074e-18 0.0062497)
(0.0062497 -0.0029578 -0.000219927 0.0062497 5.47314e-18 0.0062497)
(0.00632761 -0.00299267 -0.000226678 0.00632761 -2.18627e-18 0.00632761)
(0.00632761 -0.00299267 -0.000226678 0.00632761 5.80838e-18 0.00632761)
(0.00640275 -0.00302607 -0.000233493 0.00640275 -2.15852e-18 0.00640275)
(0.00640275 -0.00302607 -0.000233493 0.00640275 6.27516e-18 0.00640275)
(0.00647514 -0.00305804 -0.000240371 0.00647514 -2.42572e-18 0.00647514)
(0.00647514 -0.00305804 -0.000240371 0.00647514 6.80835e-18 0.00647514)
(0.00654482 -0.00308859 -0.000247313 0.00654482 -2.09669e-18 0.00654482)
(0.00654482 -0.00308859 -0.000247313 0.00654482 6.87148e-18 0.00654482)
(0.0066118 -0.00311777 -0.000254318 0.0066118 -1.93235e-18 0.0066118)
(0.0066118 -0.00311777 -0.000254318 0.0066118 7.32786e-18 0.0066118)
(0.00667612 -0.00314559 -0.000261387 0.00667612 -2.01321e-18 0.00667612)
(0.00667612 -0.00314559 -0.000261387 0.00667612 8.39493e-18 0.00667612)
(0.0067378 -0.00317208 -0.000268519 0.0067378 -1.74724e-18 0.0067378)
(0.0067378 -0.00317208 -0.000268519 0.0067378 9.10108e-18 0.0067378)
(0.00679689 -0.00319728 -0.000275716 0.00679689 -1.55009e-18 0.00679689)
(0.00679689 -0.00319728 -0.000275716 0.00679689 9.50376e-18 0.00679689)
(0.00685341 -0.00322121 -0.000282976 0.00685341 -1.50508e-18 0.00685341)
(0.00685341 -0.00322121 -0.000282976 0.00685341 1.03711e-17 0.00685341)
(0.00690741 -0.00324389 -0.000290302 0.00690741 -1.32348e-18 0.00690741)
(0.00690741 -0.00324389 -0.000290302 0.00690741 1.11586e-17 0.00690741)
(0.00695892 -0.00326537 -0.000297692 0.00695892 -4.82454e-19 0.00695892)
(0.00695892 -0.00326537 -0.000297692 0.00695892 1.16787e-17 0.00695892)
(0.00700798 -0.00328566 -0.000305147 0.00700798 -2.38922e-19 0.00700798)
(0.00700798 -0.00328566 -0.000305147 0.00700798 1.26047e-17 0.00700798)
(0.00705463 -0.00330478 -0.000312667 0.00705463 -1.18941e-19 0.00705463)
(0.00705463 -0.00330478 -0.000312667 0.00705463 1.37257e-17 0.00705463)
(0.00709891 -0.00332278 -0.000320253 0.00709891 1.18694e-18 0.00709891)
(0.00709891 -0.00332278 -0.000320253 0.00709891 1.47316e-17 0.00709891)
(0.00714086 -0.00333966 -0.000327905 0.00714086 1.81847e-18 0.00714086)
(0.00714086 -0.00333966 -0.000327905 0.00714086 1.47417e-17 0.00714086)
(0.00718051 -0.00335546 -0.000335622 0.00718051 1.83305e-18 0.00718051)
(0.00718051 -0.00335546 -0.000335622 0.00718051 1.37952e-17 0.00718051)
(0.00721791 -0.00337019 -0.000343405 0.00721791 1.10863e-18 0.00721791)
(0.00721791 -0.00337019 -0.000343405 0.00721791 1.36481e-17 0.00721791)
(0.00725309 -0.00338389 -0.000351255 0.00725309 1.58238e-20 0.00725309)
(0.00725309 -0.00338389 -0.000351255 0.00725309 1.4362e-17 0.00725309)
(0.00728609 -0.00339657 -0.00035917 0.00728609 1.30394e-18 0.00728609)
(0.00728609 -0.00339657 -0.00035917 0.00728609 1.50857e-17 0.00728609)
(0.00731695 -0.00340825 -0.000367151 0.00731695 1.52746e-18 0.00731695)
(0.00731695 -0.00340825 -0.000367151 0.00731695 1.61146e-17 0.00731695)
(0.00734571 -0.00341896 -0.000375198 0.00734571 1.41424e-18 0.00734571)
(0.00734571 -0.00341896 -0.000375198 0.00734571 1.73884e-17 0.00734571)
(0.00737239 -0.00342871 -0.00038331 0.00737239 1.46169e-18 0.00737239)
(0.00737239 -0.00342871 -0.00038331 0.00737239 1.84704e-17 0.00737239)
(0.00739704 -0.00343752 -0.000391488 0.00739704 1.70338e-18 0.00739704)
(0.00739704 -0.00343752 -0.000391488 0.00739704 1.8752e-17 0.00739704)
(0.00741969 -0.00344541 -0.00039973 0.00741969 6.88834e-19 0.00741969)
(0.00741969 -0.00344541 -0.00039973 0.00741969 1.94047e-17 0.00741969)
(0.00744036 -0.0034524 -0.000408037 0.00744036 1.06592e-18 0.00744036)
(0.00744036 -0.0034524 -0.000408037 0.00744036 2.10832e-17 0.00744036)
(0.0074591 -0.0034585 -0.000416407 0.0074591 1.09425e-18 0.0074591)
(0.0074591 -0.0034585 -0.000416407 0.0074591 2.33498e-17 0.0074591)
(0.00747593 -0.00346372 -0.000424841 0.00747593 -7.66531e-19 0.00747593)
(0.00747593 -0.00346372 -0.000424841 0.00747593 2.55143e-17 0.00747593)
(0.00749089 -0.00346809 -0.000433337 0.00749089 -2.68412e-18 0.00749089)
(0.00749089 -0.00346809 -0.000433337 0.00749089 2.60223e-17 0.00749089)
(0.00750399 -0.00347162 -0.000441895 0.00750399 -1.08608e-18 0.00750399)
(0.00750399 -0.00347162 -0.000441895 0.00750399 2.56987e-17 0.00750399)
(0.00751527 -0.00347431 -0.000450512 0.00751527 -5.48007e-19 0.00751527)
(0.00751527 -0.00347431 -0.000450512 0.00751527 2.64388e-17 0.00751527)
(0.00752476 -0.00347619 -0.000459189 0.00752476 -8.859e-19 0.00752476)
(0.00752476 -0.00347619 -0.000459189 0.00752476 2.78598e-17 0.00752476)
(0.00753248 -0.00347725 -0.000467924 0.00753248 -7.97117e-19 0.00753248)
(0.00753248 -0.00347725 -0.000467924 0.00753248 2.93027e-17 0.00753248)
(0.00753845 -0.00347752 -0.000476715 0.00753845 -6.26274e-19 0.00753845)
(0.00753845 -0.00347752 -0.000476715 0.00753845 2.91822e-17 0.00753845)
(0.00754269 -0.003477 -0.000485561 0.00754269 -4.68471e-19 0.00754269)
(0.00754269 -0.003477 -0.000485561 0.00754269 2.84408e-17 0.00754269)
(0.00754524 -0.00347571 -0.000494459 0.00754524 -1.00325e-18 0.00754524)
(0.00754524 -0.00347571 -0.000494459 0.00754524 2.97766e-17 0.00754524)
(0.0075461 -0.00347364 -0.000503409 0.0075461 -4.6942e-19 0.0075461)
(0.0075461 -0.00347364 -0.000503409 0.0075461 3.03928e-17 0.0075461)
(0.0075453 -0.00347081 -0.000512407 0.0075453 -1.59556e-19 0.0075453)
(0.0075453 -0.00347081 -0.000512407 0.0075453 3.01294e-17 0.0075453)
(0.00754286 -0.00346723 -0.000521452 0.00754286 5.13434e-20 0.00754286)
(0.00754286 -0.00346723 -0.000521452 0.00754286 3.07004e-17 0.00754286)
(0.0075388 -0.0034629 -0.000530541 0.0075388 -8.26047e-19 0.0075388)
(0.0075388 -0.0034629 -0.000530541 0.0075388 3.38483e-17 0.0075388)
(0.00753312 -0.00345783 -0.000539671 0.00753312 -3.21621e-18 0.00753312)
(0.00753312 -0.00345783 -0.000539671 0.00753312 3.7336e-17 0.00753312)
(0.00752585 -0.00345202 -0.000548839 0.00752585 -2.48466e-18 0.00752585)
(0.00752585 -0.00345202 -0.000548839 0.00752585 3.88161e-17 0.00752585)
(0.00751701 -0.00344548 -0.000558042 0.00751701 -6.24508e-19 0.00751701)
(0.00751701 -0.00344548 -0.000558042 0.00751701 3.86788e-17 0.00751701)
(0.00750659 -0.00343821 -0.000567276 0.00750659 -9.46515e-20 0.00750659)
(0.00750659 -0.00343821 -0.000567276 0.00750659 3.93993e-17 0.00750659)
(0.00749463 -0.00343022 -0.000576538 0.00749463 -3.24581e-19 0.00749463)
(0.00749463 -0.00343022 -0.000576538 0.00749463 4.17027e-17 0.00749463)
(0.00748112 -0.00342151 -0.000585825 0.00748112 1.86312e-19 0.00748112)
(0.00748112 -0.00342151 -0.000585825 0.00748112 4.3066e-17 0.00748112)
(0.00746608 -0.00341209 -0.00059513 0.00746608 2.90958e-18 0.00746608)
(0.00746608 -0.00341209 -0.00059513 0.00746608 4.43468e-17 0.00746608)
(0.00744951 -0.00340194 -0.000604451 0.00744951 1.61769e-18 0.00744951)
(0.00744951 -0.00340194 -0.000604451 0.00744951 4.5442e-17 0.00744951)
(0.00743144 -0.00339109 -0.000613783 0.00743144 8.90655e-19 0.00743144)
(0.00743144 -0.00339109 -0.000613783 0.00743144 4.57778e-17 0.00743144)
(0.00741186 -0.00337952 -0.000623119 0.00741186 3.01383e-18 0.00741186)
(0.00741186 -0.00337952 -0.000623119 0.00741186 4.66276e-17 0.00741186)
(0.00739078 -0.00336724 -0.000632456 0.00739078 3.23037e-18 0.00739078)
(0.00739078 -0.00336724 -0.000632456 0.00739078 4.86197e-17 0.00739078)
(0.00736821 -0.00335425 -0.000641786 0.00736821 2.86412e-18 0.00736821)
(0.00736821 -0.00335425 -0.000641786 0.00736821 5.0874e-17 0.00736821)
(0.00734415 -0.00334055 -0.000651105 0.00734415 2.94771e-18 0.00734415)
(0.00734415 -0.00334055 -0.000651105 0.00734415 4.74712e-17 0.00734415)
(0.00731861 -0.00332613 -0.000660405 0.00731861 2.07633e-18 0.00731861)
(0.00731861 -0.00332613 -0.000660405 0.00731861 4.56494e-17 0.00731861)
(0.00729159 -0.003311 -0.000669679 0.00729159 9.94601e-19 0.00729159)
(0.00729159 -0.003311 -0.000669679 0.00729159 4.83866e-17 0.00729159)
(0.0072631 -0.00329516 -0.000678921 0.0072631 2.59075e-18 0.0072631)
(0.0072631 -0.00329516 -0.000678921 0.0072631 4.72389e-17 0.0072631)
(0.00723313 -0.0032786 -0.000688122 0.00723313 6.79127e-18 0.00723313)
(0.00723313 -0.0032786 -0.000688122 0.00723313 4.31066e-17 0.00723313)
(0.00720169 -0.00326132 -0.000697275 0.00720169 7.57479e-18 0.00720169)
(0.00720169 -0.00326132 -0.000697275 0.00720169 3.7456e-17 0.00720169)
(0.00716878 -0.00324332 -0.000706372 0.00716878 5.2977e-18 0.00716878)
(0.00716878 -0.00324332 -0.000706372 0.00716878 3.61936e-17 0.00716878)
(0.0071344 -0.00322459 -0.000715402 0.0071344 8.90841e-19 0.0071344)
(0.0071344 -0.00322459 -0.000715402 0.0071344 3.74799e-17 0.0071344)
(0.00709855 -0.00320514 -0.000724356 0.00709855 2.78422e-18 0.00709855)
(0.00709855 -0.00320514 -0.000724356 0.00709855 2.76966e-17 0.00709855)
(0.00706122 -0.00318495 -0.000733225 0.00706122 1.67545e-18 0.00706122)
(0.00706122 -0.00318495 -0.000733225 0.00706122 2.58956e-17 0.00706122)
(0.00702242 -0.00316402 -0.000741998 0.00702242 -3.0859e-19 0.00702242)
(0.00702242 -0.00316402 -0.000741998 0.00702242 2.7445e-17 0.00702242)
(0.00698215 -0.00314236 -0.000750664 0.00698215 5.17918e-19 0.00698215)
(0.00698215 -0.00314236 -0.000750664 0.00698215 2.58271e-17 0.00698215)
(0.0069404 -0.00311995 -0.000759211 0.0069404 -2.898e-18 0.0069404)
(0.0069404 -0.00311995 -0.000759211 0.0069404 2.50583e-17 0.0069404)
(0.00689717 -0.00309678 -0.000767627 0.00689717 -1.71401e-18 0.00689717)
(0.00689717 -0.00309678 -0.000767627 0.00689717 1.50081e-17 0.00689717)
(0.00685245 -0.00307286 -0.000775899 0.00685245 -1.9084e-18 0.00685245)
(0.00685245 -0.00307286 -0.000775899 0.00685245 1.07151e-17 0.00685245)
(0.00680625 -0.00304818 -0.000784013 0.00680625 -3.11805e-18 0.00680625)
(0.00680625 -0.00304818 -0.000784013 0.00680625 1.16501e-17 0.00680625)
(0.00675855 -0.00302272 -0.000791955 0.00675855 -2.25143e-18 0.00675855)
(0.00675855 -0.00302272 -0.000791955 0.00675855 9.39445e-18 0.00675855)
(0.00670936 -0.00299649 -0.000799711 0.00670936 -5.13491e-18 0.00670936)
(0.00670936 -0.00299649 -0.000799711 0.00670936 9.08415e-18 0.00670936)
(0.00665867 -0.00296948 -0.000807265 0.00665867 -6.70219e-18 0.00665867)
(0.00665867 -0.00296948 -0.000807265 0.00665867 1.04703e-17 0.00665867)
(0.00660647 -0.00294167 -0.0008146 0.00660647 -3.21689e-18 0.00660647)
(0.00660647 -0.00294167 -0.0008146 0.00660647 1.09549e-17 0.00660647)
(0.00655277 -0.00291307 -0.000821699 0.00655277 3.28654e-20 0.00655277)
(0.00655277 -0.00291307 -0.000821699 0.00655277 5.79414e-18 0.00655277)
(0.00649755 -0.00288366 -0.000828544 0.00649755 3.27325e-18 0.00649755)