/*--------------------------------*- C++ -*----------------------------------*\
| =========                 |                                                 |
| \\      /  F ield         | OpenFOAM: The Open Source CFD Toolbox           |
|  \\    /   O peration     | Version:  2106                                  |
|   \\  /    A nd           | Website:  www.openfoam.com                      |
|    \\/     M anipulation  |                                                 |
\*---------------------------------------------------------------------------*/
FoamFile
{
    version     2.0;
    format      ascii;
    arch        "LSB;label=32;scalar=64";
    class       volVectorField;
    location    "10030";
    object      U;
}
// * * * * * * * * * * * * * * * * * * * * * * * * * * * * * * * * * * * * * //

dimensions      [0 1 -1 0 0 0 0];

internalField   nonuniform List<vector> 
800
(
(0.00306853 -9.70338e-16 1.50447e-17)
(0.00306853 -8.47047e-19 1.46855e-17)
(0.00934882 -2.91967e-16 1.43165e-16)
(0.00934882 3.63706e-18 6.98455e-17)
(0.015925 -1.2179e-15 1.64774e-16)
(0.015925 6.46883e-18 7.66904e-17)
(0.0228108 -1.08746e-15 1.91224e-16)
(0.0228108 1.08046e-17 8.42129e-17)
(0.0300207 -1.06442e-15 2.21134e-16)
(0.0300207 1.53271e-17 9.18516e-17)
(0.0375697 -1.07536e-15 2.54559e-16)
(0.0375697 2.00519e-17 9.98263e-17)
(0.0454735 -1.08397e-15 2.91843e-16)
(0.0454735 2.50799e-17 1.08246e-16)
(0.0537487 -1.09169e-15 3.33322e-16)
(0.0537487 3.01833e-17 1.17103e-16)
(0.0624123 -1.10028e-15 3.7937e-16)
(0.0624123 3.53235e-17 1.26391e-16)
(0.0714822 -1.10987e-15 4.30416e-16)
(0.0714822 4.05512e-17 1.36108e-16)
(0.0809773 -1.12002e-15 4.86936e-16)
(0.0809773 4.56966e-17 1.46233e-16)
(0.0909167 -1.13041e-15 5.12911e-16)
(0.0909167 5.09485e-17 1.56725e-16)
(0.101321 -1.14068e-15 5.36236e-16)
(0.101321 5.60226e-17 1.67561e-16)
(0.11221 -1.15076e-15 5.29387e-16)
(0.11221 6.06531e-17 1.78708e-16)
(0.123607 -1.16123e-15 5.20666e-16)
(0.123607 6.51211e-17 1.9011e-16)
(0.135532 -1.17179e-15 5.25553e-16)
(0.135532 6.95306e-17 2.01706e-16)
(0.148009 -1.18227e-15 5.43819e-16)
(0.148009 7.39842e-17 2.23153e-16)
(0.161058 -1.19328e-15 5.62712e-16)
(0.161058 7.83227e-17 2.70446e-16)
(0.174702 -1.20403e-15 5.82177e-16)
(0.174702 8.18592e-17 3.20832e-16)
(0.188959 -1.21388e-15 6.0218e-16)
(0.188959 8.49332e-17 3.74107e-16)
(0.203848 -1.22332e-15 6.22578e-16)
(0.203848 8.66991e-17 4.17627e-16)
(0.219381 -1.23275e-15 6.43154e-16)
(0.219381 8.69439e-17 4.57926e-16)
(0.235566 -1.24179e-15 6.639e-16)
(0.235566 8.81435e-17 5.01375e-16)
(0.252402 -1.24871e-15 6.84632e-16)
(0.252402 8.75909e-17 5.47762e-16)
(0.269879 -1.25446e-15 7.04708e-16)
(0.269879 8.5375e-17 5.97115e-16)
(0.287972 -1.26023e-15 7.23599e-16)
(0.287972 8.42602e-17 6.49194e-16)
(0.306642 -1.26388e-15 7.40587e-16)
(0.306642 7.95808e-17 7.03566e-16)
(0.325834 -1.26584e-15 7.55427e-16)
(0.325834 7.20192e-17 7.5972e-16)
(0.345474 -1.26538e-15 7.67826e-16)
(0.345474 6.62952e-17 8.16461e-16)
(0.365473 -1.26231e-15 7.7676e-16)
(0.365473 5.678e-17 8.73197e-16)
(0.385731 -1.25838e-15 7.81727e-16)
(0.385731 4.67857e-17 9.29747e-16)
(0.406137 -1.25079e-15 7.83155e-16)
(0.406137 3.65997e-17 9.85078e-16)
(0.426579 -1.24161e-15 7.79826e-16)
(0.426579 1.99304e-17 1.03826e-15)
(0.446951 -1.23138e-15 7.73326e-16)
(0.446951 4.40085e-18 1.05916e-15)
(0.467152 -1.2173e-15 7.6358e-16)
(0.467152 -9.79012e-18 1.06414e-15)
(0.487098 -1.19907e-15 7.51655e-16)
(0.487098 -2.94936e-17 1.06054e-15)
(0.506717 -1.17244e-15 7.3917e-16)
(0.506717 -5.51691e-17 1.05521e-15)
(0.525954 -1.14493e-15 7.23161e-16)
(0.525954 -8.00652e-17 1.04779e-15)
(0.544768 -1.11957e-15 7.04644e-16)
(0.544768 -1.03136e-16 1.03517e-15)
(0.563135 -1.08963e-15 6.86524e-16)
(0.563135 -1.29888e-16 1.01865e-15)
(0.581038 -1.0625e-15 6.6346e-16)
(0.581038 -1.51565e-16 1.00118e-15)
(0.598472 -1.04085e-15 6.41204e-16)
(0.598472 -1.65876e-16 9.77816e-16)
(0.61544 -1.01372e-15 6.20041e-16)
(0.61544 -1.88501e-16 9.52775e-16)
(0.631949 -9.83837e-16 5.96344e-16)
(0.631949 -2.05863e-16 9.29187e-16)
(0.648011 -9.5522e-16 5.75728e-16)
(0.648011 -2.2054e-16 9.01642e-16)
(0.663641 -9.34821e-16 5.52934e-16)
(0.663641 -2.38252e-16 8.70429e-16)
(0.678855 -9.14657e-16 5.3343e-16)
(0.678855 -2.51805e-16 8.35654e-16)
(0.69367 -8.90903e-16 5.12077e-16)
(0.69367 -2.75356e-16 8.02696e-16)
(0.708105 -8.70568e-16 4.96134e-16)
(0.708105 -2.9117e-16 7.69096e-16)
(0.722177 -8.43284e-16 4.81441e-16)
(0.722177 -3.05218e-16 7.32438e-16)
(0.735904 -8.09486e-16 4.54807e-16)
(0.735904 -3.22561e-16 6.945e-16)
(0.749302 -7.71868e-16 4.41323e-16)
(0.749302 -3.30956e-16 6.5819e-16)
(0.762388 -7.35729e-16 4.35507e-16)
(0.762388 -3.41396e-16 6.32239e-16)
(0.775177 -7.04128e-16 4.32228e-16)
(0.775177 -3.54913e-16 6.03552e-16)
(0.787683 -6.77211e-16 4.28159e-16)
(0.787683 -3.6558e-16 5.73035e-16)
(0.79992 -6.58035e-16 4.08321e-16)
(0.79992 -3.71633e-16 5.4848e-16)
(0.811901 -6.3388e-16 4.16536e-16)
(0.811901 -3.66741e-16 5.12446e-16)
(0.823638 -6.05192e-16 4.08245e-16)
(0.823638 -3.5977e-16 4.95885e-16)
(0.835142 -5.82811e-16 4.10846e-16)
(0.835142 -3.7533e-16 4.70422e-16)
(0.846423 -5.64145e-16 4.13548e-16)
(0.846423 -3.8346e-16 4.3841e-16)
(0.857491 -5.36877e-16 3.99318e-16)
(0.857491 -3.73053e-16 4.26121e-16)
(0.868354 -5.12812e-16 3.69924e-16)
(0.868354 -3.61092e-16 4.2228e-16)
(0.87902 -5.04633e-16 3.69715e-16)
(0.87902 -3.55309e-16 4.03324e-16)
(0.889496 -5.00125e-16 3.46235e-16)
(0.889496 -3.24797e-16 3.83058e-16)
(0.89979 -4.87344e-16 3.3197e-16)
(0.89979 -3.11405e-16 3.29463e-16)
(0.909907 -4.64284e-16 3.29776e-16)
(0.909907 -3.12878e-16 3.04361e-16)
(0.919853 -4.43147e-16 3.5912e-16)
(0.919853 -3.24337e-16 3.09158e-16)
(0.929632 -4.09722e-16 3.36701e-16)
(0.929632 -3.4956e-16 3.11959e-16)
(0.939249 -3.9338e-16 3.23436e-16)
(0.939249 -3.32674e-16 3.35039e-16)
(0.948708 -3.86509e-16 3.48077e-16)
(0.948708 -3.64221e-16 3.26142e-16)
(0.958012 -3.62665e-16 3.71825e-16)
(0.958012 -3.87677e-16 3.46128e-16)
(0.967164 -3.68111e-16 3.79644e-16)
(0.967164 -3.70352e-16 3.50596e-16)
(0.976166 -3.60983e-16 3.78645e-16)
(0.976166 -3.87447e-16 3.91355e-16)
(0.98502 -3.90355e-16 3.56404e-16)
(0.98502 -4.20559e-16 3.80012e-16)
(0.993727 -4.24843e-16 4.20784e-16)
(0.993727 -4.17359e-16 3.68367e-16)
(1.00229 -4.10907e-16 3.69824e-16)
(1.00229 -3.95176e-16 3.51703e-16)
(1.0107 -4.38636e-16 3.78839e-16)
(1.0107 -4.32683e-16 3.64654e-16)
(1.01897 -4.54151e-16 3.60984e-16)
(1.01897 -4.44775e-16 3.58433e-16)
(1.02709 -4.32771e-16 3.82023e-16)
(1.02709 -3.93266e-16 3.70455e-16)
(1.03506 -4.18134e-16 4.17716e-16)
(1.03506 -4.15518e-16 4.25201e-16)
(1.04288 -3.93237e-16 4.33865e-16)
(1.04288 -3.59432e-16 4.94795e-16)
(1.05054 -3.18809e-16 5.16215e-16)
(1.05054 -2.77853e-16 4.4426e-16)
(1.05804 -2.63093e-16 5.21615e-16)
(1.05804 -2.90778e-16 5.23155e-16)
(1.06538 -2.63363e-16 5.48185e-16)
(1.06538 -2.71056e-16 5.50996e-16)
(1.07254 -2.49041e-16 5.75858e-16)
(1.07254 -2.69475e-16 6.07252e-16)
(1.07953 -2.42961e-16 5.98952e-16)
(1.07953 -2.40219e-16 5.91051e-16)
(1.08632 -2.17908e-16 6.66235e-16)
(1.08632 -2.55954e-16 5.86645e-16)
(1.09291 -2.21485e-16 6.86805e-16)
(1.09291 -2.77737e-16 6.3957e-16)
(1.09929 -2.52029e-16 6.8327e-16)
(1.09929 -2.33794e-16 7.54231e-16)
(1.10542 -2.33323e-16 7.74795e-16)
(1.10542 -2.04499e-16 7.95037e-16)
(1.1113 -2.01399e-16 8.319e-16)
(1.1113 -2.16791e-16 7.69788e-16)
(1.1169 -2.27333e-16 8.52921e-16)
(1.1169 -2.66035e-16 8.14408e-16)
(1.12218 -1.70234e-16 9.22897e-16)
(1.12218 -1.88234e-16 9.29616e-16)
(1.1271 -1.1642e-16 9.01923e-16)
(1.1271 -1.07625e-16 9.58543e-16)
(1.13161 -1.50374e-16 8.51751e-16)
(1.13161 -9.89054e-17 9.44415e-16)
(1.13564 -1.92452e-16 1.00436e-15)
(1.13564 -1.52428e-16 1.03704e-15)
(1.13911 -1.68358e-16 1.28796e-15)
(1.13911 -1.88084e-16 1.2346e-15)
(1.14193 -1.13816e-16 1.24108e-15)
(1.14193 -8.48748e-17 1.34475e-15)
(1.14395 -7.03531e-17 1.22157e-15)
(1.14395 -6.77315e-17 1.10181e-15)
(1.14504 -8.72855e-17 1.07117e-15)
(1.14504 -1.56255e-16 9.77171e-16)
(0.00306853 -3.6633e-19 -2.54971e-18)
(0.00306853 -7.71713e-21 -2.52064e-21)
(0.00934882 1.99121e-18 -1.84077e-17)
(0.00934882 4.40207e-19 -2.26837e-20)
(0.015925 3.69752e-18 -2.00909e-17)
(0.015925 8.99232e-19 -3.89936e-20)
(0.0228108 6.15606e-18 -2.18426e-17)
(0.0228108 1.53024e-18 -6.32919e-20)
(0.0300207 8.74197e-18 -2.36535e-17)
(0.0300207 2.24672e-18 -9.49919e-20)
(0.0375697 1.15604e-17 -2.55138e-17)
(0.0375697 2.99803e-18 -1.31307e-19)
(0.0454735 1.4573e-17 -2.74035e-17)
(0.0454735 3.8559e-18 -1.77684e-19)
(0.0537487 1.76969e-17 -2.9309e-17)
(0.0537487 4.80839e-18 -2.32545e-19)
(0.0624123 2.09305e-17 -3.12098e-17)
(0.0624123 5.97975e-18 -3.05445e-19)
(0.0714822 2.42187e-17 -3.30919e-17)
(0.0714822 7.37858e-18 -3.93949e-19)
(0.0809773 2.76866e-17 -3.49352e-17)
(0.0809773 8.73531e-18 -5.01401e-19)
(0.0909167 3.13235e-17 -3.67093e-17)
(0.0909167 1.02425e-17 -6.35212e-19)
(0.101321 3.49e-17 -3.83847e-17)
(0.101321 1.23061e-17 -7.98146e-19)
(0.11221 3.85535e-17 -3.99347e-17)
(0.11221 1.4723e-17 -9.96507e-19)
(0.123607 4.22047e-17 -4.13185e-17)
(0.123607 1.71763e-17 -1.2422e-18)
(0.135532 4.58591e-17 -4.25228e-17)
(0.135532 1.97741e-17 -1.50306e-18)
(0.148009 4.98517e-17 -5.32627e-17)
(0.148009 2.27338e-17 -1.81394e-18)
(0.161058 5.34423e-17 -8.95629e-17)
(0.161058 2.59478e-17 -2.21398e-18)
(0.174702 5.65374e-17 -1.28797e-16)
(0.174702 2.97433e-17 -2.69677e-18)
(0.188959 5.98798e-17 -1.70942e-16)
(0.188959 3.41687e-17 -5.5758e-18)
(0.203848 6.32122e-17 -2.16027e-16)
(0.203848 3.80302e-17 -9.57536e-18)
(0.219381 6.64708e-17 -2.63833e-16)
(0.219381 4.22658e-17 -1.40989e-17)
(0.235566 7.02066e-17 -3.14053e-16)
(0.235566 4.71189e-17 -1.93173e-17)
(0.252402 7.35927e-17 -3.66445e-16)
(0.252402 5.18857e-17 -2.52735e-17)
(0.269879 7.60973e-17 -4.20536e-16)
(0.269879 5.75026e-17 -3.17542e-17)
(0.287972 7.79972e-17 -4.75529e-16)
(0.287972 6.38131e-17 -3.87105e-17)
(0.306642 7.96459e-17 -5.30574e-16)
(0.306642 6.94561e-17 -4.62883e-17)
(0.325834 8.12054e-17 -5.84719e-16)
(0.325834 7.51327e-17 -5.42153e-17)
(0.345474 8.09543e-17 -6.36877e-16)
(0.345474 8.22865e-17 -6.21184e-17)
(0.365473 7.90888e-17 -6.85989e-16)
(0.365473 9.00669e-17 -7.00538e-17)
(0.385731 7.82088e-17 -7.31526e-16)
(0.385731 9.76881e-17 -7.76429e-17)
(0.406137 7.64236e-17 -7.72084e-16)
(0.406137 1.05748e-16 -8.44718e-17)
(0.426579 7.28765e-17 -8.07144e-16)
(0.426579 1.13157e-16 -9.04255e-17)
(0.446951 6.93875e-17 -8.35415e-16)
(0.446951 1.19621e-16 -9.53534e-17)
(0.467152 6.44137e-17 -8.58399e-16)
(0.467152 1.27206e-16 -9.89119e-17)
(0.487098 6.04543e-17 -8.75053e-16)
(0.487098 1.34291e-16 -1.00767e-16)
(0.506717 6.17452e-17 -8.85932e-16)
(0.506717 1.37654e-16 -1.01209e-16)
(0.525954 6.47489e-17 -8.93744e-16)
(0.525954 1.39772e-16 -1.02463e-16)
(0.544768 6.57844e-17 -8.96272e-16)
(0.544768 1.41678e-16 -1.04335e-16)
(0.563135 6.61024e-17 -8.93606e-16)
(0.563135 1.39919e-16 -1.04225e-16)
(0.581038 6.98327e-17 -8.89104e-16)
(0.581038 1.40597e-16 -1.02724e-16)
(0.598472 7.43675e-17 -8.77385e-16)
(0.598472 1.41005e-16 -1.03917e-16)
(0.61544 7.15206e-17 -8.64124e-16)
(0.61544 1.31284e-16 -1.0459e-16)
(0.631949 6.50341e-17 -8.49601e-16)
(0.631949 1.27724e-16 -1.07503e-16)
(0.648011 5.70141e-17 -8.32515e-16)
(0.648011 1.25576e-16 -1.08945e-16)
(0.663641 5.22804e-17 -8.13869e-16)
(0.663641 1.23023e-16 -1.09092e-16)
(0.678855 4.68533e-17 -7.89345e-16)
(0.678855 1.15151e-16 -1.0959e-16)
(0.69367 3.82161e-17 -7.66725e-16)
(0.69367 1.03155e-16 -1.06772e-16)
(0.708105 2.49247e-17 -7.4546e-16)
(0.708105 1.00357e-16 -1.01736e-16)
(0.722177 2.39116e-17 -7.26714e-16)
(0.722177 9.01763e-17 -9.9111e-17)
(0.735904 3.02828e-17 -7.0528e-16)
(0.735904 7.65228e-17 -1.0233e-16)
(0.749302 2.66639e-17 -6.82047e-16)
(0.749302 5.75548e-17 -1.19258e-16)
(0.762388 2.44324e-17 -6.68387e-16)
(0.762388 6.02125e-17 -1.33185e-16)
(0.775177 1.66852e-17 -6.57443e-16)
(0.775177 6.73811e-17 -1.44979e-16)
(0.787683 -8.26255e-19 -6.42709e-16)
(0.787683 5.97176e-17 -1.55256e-16)
(0.79992 -7.72143e-18 -6.34051e-16)
(0.79992 6.2949e-17 -1.66496e-16)
(0.811901 -3.04643e-18 -6.12342e-16)
(0.811901 5.56908e-17 -1.85192e-16)
(0.823638 1.27457e-17 -6.09757e-16)
(0.823638 4.23682e-17 -1.91805e-16)
(0.835142 1.25821e-17 -5.97323e-16)
(0.835142 2.06152e-17 -2.00616e-16)
(0.846423 3.77738e-18 -5.7568e-16)
(0.846423 8.03843e-18 -2.19549e-16)
(0.857491 8.6193e-18 -5.51062e-16)
(0.857491 1.40658e-17 -2.4455e-16)
(0.868354 -1.92041e-17 -5.39742e-16)
(0.868354 1.51643e-19 -2.52841e-16)
(0.87902 -4.84803e-17 -5.29228e-16)
(0.87902 -9.67842e-18 -2.54119e-16)
(0.889496 -6.4971e-17 -5.25374e-16)
(0.889496 -2.18282e-17 -2.77882e-16)
(0.89979 -6.54632e-17 -5.01788e-16)
(0.89979 -2.2054e-17 -3.30075e-16)
(0.909907 -5.59331e-17 -4.90852e-16)
(0.909907 -3.53725e-17 -3.68458e-16)
(0.919853 -4.34013e-17 -4.45405e-16)
(0.919853 -5.84859e-17 -3.61157e-16)
(0.929632 -4.03868e-17 -4.15595e-16)
(0.929632 -5.19223e-17 -3.6069e-16)
(0.939249 -6.35721e-17 -4.05162e-16)
(0.939249 -5.81855e-17 -3.66195e-16)
(0.948708 -7.34049e-17 -3.99292e-16)
(0.948708 -6.86625e-17 -3.75501e-16)
(0.958012 -6.18726e-17 -3.76763e-16)
(0.958012 -6.31005e-17 -3.65721e-16)
(0.967164 -6.14097e-17 -3.52386e-16)
(0.967164 -7.58674e-17 -3.69127e-16)
(0.976166 -6.10987e-17 -3.82819e-16)
(0.976166 -1.07824e-16 -3.69593e-16)
(0.98502 -9.05249e-17 -4.38462e-16)
(0.98502 -1.09166e-16 -4.39542e-16)
(0.993727 -1.27735e-16 -4.31781e-16)
(0.993727 -8.31763e-17 -4.47318e-16)
(1.00229 -1.10356e-16 -4.43255e-16)
(1.00229 -8.42177e-17 -3.95561e-16)
(1.0107 -8.93547e-17 -4.10903e-16)
(1.0107 -1.09961e-16 -3.65229e-16)
(1.01897 -9.60693e-17 -3.97217e-16)
(1.01897 -1.13286e-16 -4.69327e-16)
(1.02709 -1.41438e-16 -3.96382e-16)
(1.02709 -1.56068e-16 -4.66764e-16)
(1.03506 -1.96485e-16 -4.07916e-16)
(1.03506 -2.14823e-16 -4.20068e-16)
(1.04288 -2.24158e-16 -4.62528e-16)
(1.04288 -2.05943e-16 -4.64307e-16)
(1.05054 -2.30056e-16 -4.64036e-16)
(1.05054 -2.06902e-16 -4.56869e-16)
(1.05804 -2.34005e-16 -5.25191e-16)
(1.05804 -2.27082e-16 -5.90999e-16)
(1.06538 -2.35234e-16 -5.4427e-16)
(1.06538 -2.09003e-16 -5.44161e-16)
(1.07254 -2.32278e-16 -5.38659e-16)
(1.07254 -1.98125e-16 -5.70206e-16)
(1.07953 -1.96095e-16 -6.15981e-16)
(1.07953 -1.69211e-16 -5.95284e-16)
(1.08632 -1.84619e-16 -6.50586e-16)
(1.08632 -2.15866e-16 -6.47423e-16)
(1.09291 -1.81963e-16 -6.55118e-16)
(1.09291 -1.62584e-16 -6.90892e-16)
(1.09929 -1.50604e-16 -7.49593e-16)
(1.09929 -1.54153e-16 -7.08998e-16)
(1.10542 -1.52257e-16 -7.66087e-16)
(1.10542 -1.99361e-16 -7.58567e-16)
(1.1113 -1.64244e-16 -8.15102e-16)
(1.1113 -2.01615e-16 -7.61205e-16)
(1.1169 -1.76365e-16 -8.36723e-16)
(1.1169 -2.35141e-16 -7.58315e-16)
(1.12218 -1.45023e-16 -8.54147e-16)
(1.12218 -1.16535e-16 -9.77899e-16)
(1.1271 -1.20441e-16 -9.99694e-16)
(1.1271 -6.51552e-17 -9.99454e-16)
(1.13161 -1.44018e-16 -9.50945e-16)
(1.13161 -1.54972e-16 -9.39137e-16)
(1.13564 -1.5788e-16 -1.04804e-15)
(1.13564 -2.05478e-16 -9.59984e-16)
(1.13911 -1.28427e-16 -1.30197e-15)
(1.13911 -1.60923e-16 -1.28779e-15)
(1.14193 -1.01066e-16 -1.21395e-15)
(1.14193 -4.94783e-17 -1.35475e-15)
(1.14395 -1.11457e-16 -1.22895e-15)
(1.14395 -6.73145e-17 -1.21284e-15)
(1.14504 -1.20732e-16 -1.03604e-15)
(1.14504 -1.3935e-16 -1.00833e-15)
(1.14504 -2.20383e-17 9.28867e-16)
(1.14504 -8.59687e-17 1.00045e-15)
(1.14395 4.56849e-18 7.93436e-16)
(1.14395 3.55786e-17 8.11181e-16)
(1.14193 3.55718e-18 7.99196e-16)
(1.14193 5.30186e-18 7.49871e-16)
(1.13911 6.44243e-17 7.96405e-16)
(1.13911 8.09587e-17 9.0723e-16)
(1.13564 3.3034e-18 7.17383e-16)
(1.13564 4.61943e-17 6.86973e-16)
(1.13161 -2.22668e-17 6.56784e-16)
(1.13161 -3.0202e-17 6.15647e-16)
(1.1271 -2.93432e-17 6.08195e-16)
(1.1271 -8.48946e-17 5.79981e-16)
(1.12218 -2.20176e-17 5.4991e-16)
(1.12218 -7.27214e-17 5.27598e-16)
(1.1169 -5.63885e-17 3.329e-16)
(1.1169 -8.69929e-17 3.49052e-16)
(1.1113 -1.02082e-16 2.75286e-16)
(1.1113 -9.47314e-17 2.57702e-16)
(1.10542 -1.025e-16 2.21471e-16)
(1.10542 -6.70285e-17 2.53895e-16)
(1.09929 -6.54595e-17 2.90731e-16)
(1.09929 -3.42155e-17 2.37529e-16)
(1.09291 -4.60498e-17 2.79932e-16)
(1.09291 -7.455e-19 3.255e-16)
(1.08632 -7.62826e-17 1.9172e-16)
(1.08632 -1.03654e-16 1.71577e-16)
(1.07953 -1.54091e-17 3.35864e-16)
(1.07953 -1.3047e-16 2.32831e-16)
(1.07254 -1.07561e-16 1.06277e-16)
(1.07254 -1.03068e-16 1.52891e-16)
(1.06538 -1.25102e-16 1.1698e-16)
(1.06538 -7.36788e-17 1.66239e-16)
(1.05804 -1.11101e-16 1.04583e-16)
(1.05804 -7.02646e-17 9.62108e-17)
(1.05054 -1.87518e-16 1.62368e-16)
(1.05054 -1.39224e-16 8.91805e-17)
(1.04288 -6.70494e-17 1.44983e-16)
(1.04288 -9.38594e-17 7.01129e-17)
(1.03506 -7.85585e-17 7.93387e-17)
(1.03506 -8.7629e-17 9.83482e-17)
(1.02709 -1.0304e-16 9.93037e-17)
(1.02709 -7.071e-17 1.28128e-16)
(1.01897 -6.84795e-17 9.79742e-17)
(1.01897 -4.59032e-17 6.41541e-17)
(1.0107 -5.32404e-17 7.72437e-17)
(1.0107 -7.08062e-17 6.73647e-17)
(1.00229 -6.1913e-17 1.07275e-16)
(1.00229 -7.78354e-17 8.7135e-17)
(0.993727 -1.50568e-16 5.55684e-17)
(0.993727 -7.92248e-17 6.75491e-17)
(0.98502 -8.74501e-17 5.01221e-17)
(0.98502 -7.67167e-17 4.91067e-17)
(0.976166 -7.43815e-17 6.19704e-17)
(0.976166 -6.48806e-17 5.38445e-17)
(0.967164 -5.40521e-17 8.86844e-17)
(0.967164 -5.34987e-17 3.85826e-17)
(0.958012 -5.04687e-17 8.93499e-17)
(0.958012 -6.52226e-17 6.90055e-17)
(0.948708 -5.55002e-17 7.81871e-17)
(0.948708 -6.40471e-17 3.62419e-17)
(0.939249 -6.04237e-17 6.98231e-17)
(0.939249 -8.15098e-17 4.42726e-17)
(0.929632 -5.98238e-17 5.69672e-17)
(0.929632 -7.12881e-17 4.37786e-17)
(0.919853 -5.44926e-17 4.83046e-17)
(0.919853 -7.0046e-17 5.7369e-17)
(0.909907 -8.4304e-17 4.22408e-17)
(0.909907 -6.64331e-17 3.41522e-17)
(0.89979 -7.2893e-17 2.8453e-17)
(0.89979 -5.60049e-17 3.44684e-17)
(0.889496 -7.1012e-17 2.82555e-17)
(0.889496 -5.99893e-17 3.84871e-17)
(0.87902 -6.68099e-17 2.16545e-17)
(0.87902 -6.07264e-17 3.36178e-17)
(0.868354 -3.69085e-17 1.81652e-17)
(0.868354 -4.83246e-17 3.06857e-17)
(0.857491 -4.43427e-17 7.82872e-18)
(0.857491 -5.04063e-17 2.59891e-17)
(0.846423 -4.30815e-17 3.25947e-18)
(0.846423 -4.40749e-17 1.94791e-17)
(0.835142 -4.34015e-17 6.05603e-18)
(0.835142 -3.52627e-17 2.90832e-17)
(0.823638 -3.8874e-17 1.22048e-17)
(0.823638 -2.74464e-17 3.29598e-17)
(0.811901 -3.17547e-17 6.56659e-18)
(0.811901 -4.02951e-17 3.05953e-17)
(0.79992 -2.46937e-17 5.72942e-18)
(0.79992 -3.52509e-17 2.78877e-17)
(0.787683 -2.27452e-17 7.2879e-18)
(0.787683 -2.97252e-17 2.9551e-17)
(0.775177 -2.89767e-17 8.3919e-18)
(0.775177 -2.39858e-17 2.62414e-17)
(0.762388 -3.01343e-17 9.41366e-18)
(0.762388 -2.07268e-17 1.98821e-17)
(0.749302 -2.60266e-17 6.72793e-18)
(0.749302 -1.39515e-17 1.3986e-17)
(0.735904 -1.933e-17 4.63112e-18)
(0.735904 -2.18681e-17 1.73841e-17)
(0.722177 -5.11631e-18 2.87819e-18)
(0.722177 -1.94065e-17 2.24769e-17)
(0.708105 -4.94186e-18 5.39882e-18)
(0.708105 -9.16713e-18 2.45689e-17)
(0.69367 9.06542e-19 5.76662e-18)
(0.69367 -1.23823e-17 2.63018e-17)
(0.678855 -6.35613e-18 6.92575e-18)
(0.678855 -1.16678e-17 2.32916e-17)
(0.663641 -5.8596e-18 7.62873e-18)
(0.663641 -1.20765e-17 2.30097e-17)
(0.648011 -4.78029e-19 7.85488e-18)
(0.648011 -8.99573e-18 2.31056e-17)
(0.631949 1.41475e-18 1.0101e-17)
(0.631949 -1.43064e-17 2.14324e-17)
(0.61544 -3.10631e-19 1.08969e-17)
(0.61544 -1.02426e-17 2.2339e-17)
(0.598472 -3.58036e-18 1.01436e-17)
(0.598472 -3.16499e-18 2.14048e-17)
(0.581038 -6.45246e-18 9.77125e-18)
(0.581038 -5.50387e-18 1.9258e-17)
(0.563135 -7.73004e-18 8.91455e-18)
(0.563135 -6.35814e-18 1.80989e-17)
(0.544768 -6.80345e-18 7.77332e-18)
(0.544768 -4.57717e-18 1.6732e-17)
(0.525954 -6.26629e-18 7.5454e-18)
(0.525954 -4.55533e-18 1.58909e-17)
(0.506717 -6.43978e-18 6.61229e-18)
(0.506717 -5.69062e-18 1.67898e-17)
(0.487098 -7.00483e-18 6.43824e-18)
(0.487098 -6.41891e-18 1.68147e-17)
(0.467152 -8.07044e-18 5.82221e-18)
(0.467152 -4.41058e-18 1.58534e-17)
(0.446951 -9.10946e-18 5.18909e-18)
(0.446951 -8.59932e-19 1.39586e-17)
(0.426579 -9.88865e-18 4.73047e-18)
(0.426579 -4.15092e-19 1.2565e-17)
(0.406137 -9.50545e-18 4.73602e-18)
(0.406137 -2.9511e-19 1.13556e-17)
(0.385731 -7.62478e-18 3.79432e-18)
(0.385731 8.65466e-19 1.03068e-17)
(0.365473 -5.77025e-18 3.27389e-18)
(0.365473 -9.27597e-19 9.64804e-18)
(0.345474 -5.22509e-18 2.90738e-18)
(0.345474 -1.89676e-18 9.12653e-18)
(0.325834 -5.39519e-18 2.72349e-18)
(0.325834 -1.53865e-18 8.56083e-18)
(0.306642 -5.24694e-18 2.36883e-18)
(0.306642 -8.38553e-19 7.60814e-18)
(0.287972 -4.8043e-18 1.94787e-18)
(0.287972 4.74917e-19 6.64414e-18)
(0.269879 -4.31297e-18 1.76454e-18)
(0.269879 -8.07229e-20 5.86198e-18)
(0.252402 -4.73337e-18 1.63082e-18)
(0.252402 -3.45097e-19 5.20692e-18)
(0.235566 -3.44991e-18 1.34002e-18)
(0.235566 -3.46208e-21 4.52361e-18)
(0.219381 -3.00493e-18 1.06253e-18)
(0.219381 -4.13799e-19 4.14499e-18)
(0.203848 -1.5978e-18 9.51247e-19)
(0.203848 -2.5791e-19 3.79947e-18)
(0.188959 -8.89621e-19 8.7853e-19)
(0.188959 -6.8545e-19 3.50558e-18)
(0.174702 -7.29411e-19 7.57486e-19)
(0.174702 -1.23526e-18 3.29389e-18)
(0.161058 -5.96234e-19 6.94977e-19)
(0.161058 -7.89469e-19 3.07185e-18)
(0.148009 2.3814e-20 6.82892e-19)
(0.148009 -6.26966e-19 2.84031e-18)
(0.135532 3.53074e-19 6.07201e-19)
(0.135532 -7.55956e-19 2.63072e-18)
(0.123607 2.91066e-19 5.5093e-19)
(0.123607 -5.54687e-19 2.40822e-18)
(0.11221 -6.07548e-20 4.84583e-19)
(0.11221 -4.35468e-19 2.23336e-18)
(0.101321 2.02111e-19 4.50129e-19)
(0.101321 -3.94384e-19 2.03448e-18)
(0.0909167 3.14384e-19 4.13762e-19)
(0.0909167 -2.4538e-19 1.84748e-18)
(0.0809773 2.50844e-19 3.86006e-19)
(0.0809773 -3.49553e-19 1.693e-18)
(0.0714822 -1.54993e-20 3.48977e-19)
(0.0714822 -2.46534e-19 1.55738e-18)
(0.0624123 9.67998e-20 3.26e-19)
(0.0624123 -7.03125e-20 1.42382e-18)
(0.0537487 6.53897e-20 3.07712e-19)
(0.0537487 -1.12827e-19 1.30975e-18)
(0.0454735 7.19279e-20 2.84369e-19)
(0.0454735 -1.26341e-19 1.19861e-18)
(0.0375697 4.66322e-20 2.61314e-19)
(0.0375697 -8.82078e-20 1.09491e-18)
(0.0300207 -1.0612e-21 2.42444e-19)
(0.0300207 -5.85188e-20 9.97606e-19)
(0.0228108 1.93148e-20 2.22281e-19)
(0.0228108 -3.9394e-20 9.07545e-19)
(0.015925 7.8081e-21 2.03113e-19)
(0.015925 -1.93681e-20 8.27254e-19)
(0.00934882 -3.6853e-21 1.86465e-19)
(0.00934882 3.37985e-21 7.54079e-19)
(0.00306853 9.30003e-21 1.46811e-20)
(0.00306853 -5.85642e-21 1.49592e-19)
(1.14504 -8.57851e-17 -9.03347e-16)
(1.14504 -9.66545e-17 -9.22311e-16)
(1.14395 -6.10407e-18 -8.176e-16)
(1.14395 2.67585e-17 -8.10071e-16)
(1.14193 2.86293e-17 -6.94309e-16)
(1.14193 8.84698e-18 -7.50036e-16)
(1.13911 5.92596e-17 -8.34396e-16)
(1.13911 9.60623e-17 -8.49639e-16)
(1.13564 5.77015e-17 -7.58345e-16)
(1.13564 4.96118e-17 -6.52591e-16)
(1.13161 5.35595e-18 -7.25811e-16)
(1.13161 -3.99722e-17 -6.64048e-16)
(1.1271 8.29884e-18 -6.17051e-16)
(1.1271 -4.55478e-17 -5.68829e-16)
(1.12218 -7.78135e-19 -4.52766e-16)
(1.12218 1.07653e-17 -5.42081e-16)
(1.1169 -6.11516e-17 -3.61163e-16)
(1.1169 -1.87748e-17 -3.91611e-16)
(1.1113 -6.3696e-17 -3.06634e-16)
(1.1113 -5.29177e-17 -2.60165e-16)
(1.10542 -3.04946e-17 -2.86749e-16)
(1.10542 -7.14926e-17 -2.01501e-16)
(1.09929 -3.7882e-17 -2.81882e-16)
(1.09929 -8.41782e-17 -3.23121e-16)
(1.09291 -9.80878e-17 -1.82574e-16)
(1.09291 -7.12078e-17 -3.66303e-16)
(1.08632 -1.15729e-16 -1.77134e-16)
(1.08632 -8.49142e-17 -2.69616e-16)
(1.07953 -1.06319e-16 -2.02459e-16)
(1.07953 -5.68786e-17 -2.3312e-16)
(1.07254 -6.92862e-17 -1.467e-16)
(1.07254 -8.12333e-17 -1.69838e-16)
(1.06538 -8.13814e-17 -1.46383e-16)
(1.06538 -8.15696e-17 -1.32554e-16)
(1.05804 -8.53065e-17 -1.04865e-16)
(1.05804 -8.53239e-17 -1.31419e-16)
(1.05054 -8.62341e-17 -1.86531e-16)
(1.05054 -1.2204e-16 -1.26522e-16)
(1.04288 -1.94688e-16 -7.59612e-17)
(1.04288 -1.1031e-16 -1.6394e-16)
(1.03506 -1.80254e-16 -1.34608e-16)
(1.03506 -1.10141e-16 -7.28206e-17)
(1.02709 -1.29009e-16 -1.43375e-16)
(1.02709 -1.45289e-16 -4.93337e-17)
(1.01897 -1.05773e-16 -1.05177e-16)
(1.01897 -1.26175e-16 -5.40959e-17)
(1.0107 -1.14264e-16 -7.86017e-17)
(1.0107 -1.08575e-16 -6.2245e-17)
(1.00229 -1.22377e-16 -7.12852e-17)
(1.00229 -1.51752e-16 -6.32966e-17)
(0.993727 -8.73787e-17 -1.03739e-16)
(0.993727 -9.39331e-17 -6.76663e-17)
(0.98502 -8.65229e-17 -8.37468e-17)
(0.98502 -9.63039e-17 -5.65861e-17)
(0.976166 -9.34778e-17 -9.11295e-17)
(0.976166 -1.05329e-16 -4.61498e-17)
(0.967164 -8.27745e-17 -5.57801e-17)
(0.967164 -9.59096e-17 -6.21653e-17)
(0.958012 -7.5835e-17 -4.80715e-17)
(0.958012 -8.40601e-17 -4.26664e-17)
(0.948708 -5.30673e-17 -6.48991e-17)
(0.948708 -6.47381e-17 -7.57654e-17)
(0.939249 -4.45749e-17 -7.1776e-17)
(0.939249 -4.27768e-17 -6.82942e-17)
(0.929632 -2.68873e-17 -6.05234e-17)
(0.929632 -4.01019e-17 -6.17319e-17)
(0.919853 -2.95149e-17 -5.05917e-17)
(0.919853 -4.79488e-17 -3.88799e-17)
(0.909907 -3.20249e-17 -3.4781e-17)
(0.909907 -4.10166e-17 -2.55652e-17)
(0.89979 -3.17739e-17 -2.71054e-17)
(0.89979 -3.64886e-17 -3.00285e-17)
(0.889496 -5.16332e-17 -2.83754e-17)
(0.889496 -2.10575e-17 -3.02831e-17)
(0.87902 -4.78488e-17 -3.04119e-17)
(0.87902 -5.79667e-17 -2.84505e-17)
(0.868354 -3.59853e-17 -1.73442e-17)
(0.868354 -5.23245e-17 -1.44622e-17)
(0.857491 -3.77961e-17 -9.32999e-18)
(0.857491 -5.54813e-17 -8.90963e-18)
(0.846423 -4.58067e-17 -8.1713e-18)
(0.846423 -4.65138e-17 -1.6201e-17)
(0.835142 -4.86915e-17 -1.67028e-17)
(0.835142 -4.19511e-17 -2.44788e-17)
(0.823638 -2.77658e-17 -2.04582e-17)
(0.823638 -6.35811e-17 -2.99942e-17)
(0.811901 -3.13511e-17 -2.24298e-17)
(0.811901 -4.56166e-17 -2.90341e-17)
(0.79992 -3.32234e-17 -1.86228e-17)
(0.79992 -4.10462e-17 -3.13471e-17)
(0.787683 -3.40575e-17 -1.43758e-17)
(0.787683 -4.76987e-17 -3.26811e-17)
(0.775177 -4.1821e-17 -1.57251e-17)
(0.775177 -3.84821e-17 -2.47481e-17)
(0.762388 -4.25236e-17 -1.19035e-17)
(0.762388 -3.63e-17 -2.14954e-17)
(0.749302 -2.53763e-17 -6.21443e-18)
(0.749302 -3.7811e-17 -1.6082e-17)
(0.735904 -1.54939e-17 -4.10816e-18)
(0.735904 -3.34609e-17 -2.10511e-17)
(0.722177 -2.62904e-17 -4.24923e-18)
(0.722177 -3.30989e-17 -3.01008e-17)
(0.708105 -3.01047e-17 -6.62159e-18)
(0.708105 -1.30416e-17 -3.07167e-17)
(0.69367 -3.44905e-17 -9.73759e-18)
(0.69367 -2.16388e-17 -2.68478e-17)
(0.678855 -3.13485e-17 -8.33527e-18)
(0.678855 -2.79168e-17 -2.39755e-17)
(0.663641 -2.78204e-17 -9.20844e-18)
(0.663641 -1.28104e-17 -2.13957e-17)
(0.648011 -2.33835e-17 -9.62442e-18)
(0.648011 -1.21797e-17 -2.06822e-17)
(0.631949 -2.11894e-17 -8.74068e-18)
(0.631949 -1.48042e-17 -1.91554e-17)
(0.61544 -1.91151e-17 -1.08804e-17)
(0.61544 -1.52185e-17 -1.66938e-17)
(0.598472 -1.2313e-17 -1.2076e-17)
(0.598472 -8.32408e-18 -1.46958e-17)
(0.581038 -9.18671e-18 -1.08805e-17)
(0.581038 -1.17055e-17 -1.40185e-17)
(0.563135 -8.77794e-18 -1.13084e-17)
(0.563135 -1.46413e-17 -1.33446e-17)
(0.544768 -6.38395e-18 -1.11675e-17)
(0.544768 -7.01803e-18 -1.27039e-17)
(0.525954 -3.28286e-18 -1.14121e-17)
(0.525954 -6.6183e-18 -1.24235e-17)
(0.506717 6.78242e-19 -1.20976e-17)
(0.506717 -4.75359e-18 -1.29101e-17)
(0.487098 2.89639e-18 -1.20409e-17)
(0.487098 -4.34076e-18 -1.29657e-17)
(0.467152 9.64385e-19 -1.14149e-17)
(0.467152 -2.57548e-18 -1.30634e-17)
(0.446951 -1.43048e-18 -1.02527e-17)
(0.446951 3.32965e-19 -1.19761e-17)
(0.426579 -2.86353e-18 -9.38898e-18)
(0.426579 3.30842e-18 -1.03016e-17)
(0.406137 -3.4986e-18 -8.59568e-18)
(0.406137 9.28085e-19 -9.16068e-18)
(0.385731 -3.96441e-18 -8.04459e-18)
(0.385731 1.89542e-18 -8.57965e-18)
(0.365473 -4.09782e-18 -7.95144e-18)
(0.365473 7.39722e-19 -7.69069e-18)
(0.345474 -4.04083e-18 -7.64877e-18)
(0.345474 -5.85099e-19 -7.16509e-18)
(0.325834 -3.9155e-18 -7.20179e-18)
(0.325834 4.17553e-19 -6.7623e-18)
(0.306642 -3.76398e-18 -6.48772e-18)
(0.306642 -1.44187e-19 -6.41323e-18)
(0.287972 -3.77091e-18 -5.80665e-18)
(0.287972 -8.00377e-19 -5.77293e-18)
(0.269879 -2.11858e-18 -5.25184e-18)
(0.269879 -9.51588e-19 -5.0576e-18)
(0.252402 -1.67468e-18 -4.58943e-18)
(0.252402 8.69772e-19 -4.80903e-18)
(0.235566 -1.70638e-18 -3.98068e-18)
(0.235566 -3.16909e-19 -4.48932e-18)
(0.219381 -9.66299e-19 -3.60213e-18)
(0.219381 -1.4365e-18 -4.15221e-18)
(0.203848 -1.73263e-19 -3.2163e-18)
(0.203848 -1.62527e-18 -3.87295e-18)
(0.188959 4.10654e-19 -2.84023e-18)
(0.188959 -1.91846e-18 -3.75108e-18)
(0.174702 5.26721e-19 -2.53782e-18)
(0.174702 -1.85649e-18 -3.61822e-18)
(0.161058 3.42003e-19 -2.26468e-18)
(0.161058 -2.02859e-18 -3.4409e-18)
(0.148009 -3.00469e-19 -2.00036e-18)
(0.148009 -1.17534e-18 -3.26032e-18)
(0.135532 -5.90792e-19 -1.81042e-18)
(0.135532 -3.74635e-19 -3.02255e-18)
(0.123607 -6.4284e-19 -1.63373e-18)
(0.123607 -4.67493e-19 -2.76066e-18)
(0.11221 -5.32915e-19 -1.50619e-18)
(0.11221 -6.07745e-19 -2.55418e-18)
(0.101321 -3.69991e-19 -1.37157e-18)
(0.101321 -3.47208e-20 -2.36559e-18)
(0.0909167 -3.91365e-19 -1.24832e-18)
(0.0909167 -1.5551e-19 -2.15504e-18)
(0.0809773 -3.18011e-19 -1.15144e-18)
(0.0809773 -9.47227e-20 -1.95021e-18)
(0.0714822 -1.28307e-19 -1.06885e-18)
(0.0714822 -5.9275e-22 -1.75946e-18)
(0.0624123 3.78523e-20 -9.74473e-19)
(0.0624123 -3.48531e-20 -1.61908e-18)
(0.0537487 1.63686e-19 -8.95853e-19)
(0.0537487 -1.15728e-19 -1.48554e-18)
(0.0454735 1.72216e-19 -8.19848e-19)
(0.0454735 -3.54608e-20 -1.36128e-18)
(0.0375697 6.55644e-20 -7.47353e-19)
(0.0375697 -1.31575e-20 -1.24584e-18)
(0.0300207 -1.59542e-20 -6.81248e-19)
(0.0300207 7.09601e-20 -1.13158e-18)
(0.0228108 -2.34174e-20 -6.19647e-19)
(0.0228108 3.50451e-20 -1.02878e-18)
(0.015925 -1.80481e-20 -5.64839e-19)
(0.015925 2.27451e-20 -9.37041e-19)
(0.00934882 -6.34988e-21 -5.15375e-19)
(0.00934882 1.09424e-20 -8.53892e-19)
(0.00306853 -2.97819e-21 -8.69617e-20)
(0.00306853 -7.01581e-22 -2.03689e-19)
)
;

boundaryField
{
    walls
    {
        type            fixedValue;
        value           uniform (0 0 0);
    }
    inlet
    {
        type            cyclic;
    }
    outlet
    {
        type            cyclic;
    }
    sides
    {
        type            empty;
    }
}


// ************************************************************************* //
