/*--------------------------------*- C++ -*----------------------------------*\
| =========                 |                                                 |
| \\      /  F ield         | OpenFOAM: The Open Source CFD Toolbox           |
|  \\    /   O peration     | Version:  2106                                  |
|   \\  /    A nd           | Website:  www.openfoam.com                      |
|    \\/     M anipulation  |                                                 |
\*---------------------------------------------------------------------------*/
FoamFile
{
    version     2.0;
    format      ascii;
    arch        "LSB;label=32;scalar=64";
    class       volTensorField;
    location    "10080";
    object      grad(U);
}
// * * * * * * * * * * * * * * * * * * * * * * * * * * * * * * * * * * * * * //

dimensions      [0 0 -1 0 0 0 0];

internalField   nonuniform List<tensor> 
2000
(
(-3.57577e-18 -1.11523e-25 0 12.9943 -4.18156e-39 7.77363e-14 0.02405 7.88861e-31 5.25837e-17)
(3.57577e-18 -5.69125e-30 3.55388e-27 12.9943 7.80696e-16 7.58412e-14 0.02405 7.1349e-19 6.40122e-17)
(0 3.99069e-30 9.97671e-32 12.9919 -1.7054e-12 3.95875e-14 0.07259 -5.0407e-15 1.32719e-16)
(-1.4041e-17 -3.99069e-30 -7.97872e-27 12.9919 1.38978e-15 1.20837e-14 0.07259 2.63012e-18 4.55601e-17)
(-2.95977e-18 -3.60348e-26 0 12.9894 4.03897e-28 3.57966e-15 0.100699 1.57772e-30 1.06425e-16)
(0 3.13405e-30 0 12.9894 1.79401e-15 6.03407e-15 0.100699 6.61243e-18 4.7156e-17)
(-9.68919e-18 -3.07662e-30 0 12.9868 9.78944e-13 1.18181e-14 0.102558 -8.76472e-15 1.36602e-16)
(3.87568e-17 4.61492e-30 1.32166e-31 12.9868 1.79776e-15 6.13094e-15 0.102558 1.05665e-17 4.8807e-17)
(0 3.02024e-30 0 12.9842 8.94223e-15 7.00904e-15 0.104451 -4.03026e-16 1.50274e-16)
(0 0 0 12.9842 1.78784e-15 6.22827e-15 0.104451 1.42746e-17 5.0499e-17)
(0 1.95213e-30 1.85306e-31 12.9814 -2.18165e-14 7.71908e-15 0.106378 -8.85718e-17 1.60254e-16)
(-9.4093e-17 -7.41449e-30 -3.27663e-31 12.9814 1.77824e-15 6.32572e-15 0.106378 1.46061e-17 5.22434e-17)
(5.12031e-17 -3.42358e-28 0 12.9786 -5.86913e-28 9.48155e-15 0.10834 0 1.76117e-16)
(7.13266e-17 4.37004e-30 1.4771e-31 12.9786 1.81644e-15 6.42495e-15 0.10834 1.54503e-17 5.40587e-17)
(0 -1.42861e-30 0 12.9757 -1.13652e-17 9.84661e-15 0.110337 -5.95309e-18 1.94049e-16)
(3.02983e-16 2.87073e-30 3.0651e-31 12.9757 1.82742e-15 6.52616e-15 0.110337 1.53433e-17 5.59335e-17)
(-4.52468e-17 1.20921e-30 0 12.9727 -2.00065e-15 9.89915e-15 0.112371 -2.85994e-17 2.12337e-16)
(0 1.40243e-30 0 12.9727 1.82968e-15 6.62756e-15 0.112371 1.60715e-17 5.78526e-17)
(9.68791e-17 -2.75347e-30 1.72092e-31 12.9697 -3.56935e-15 1.0081e-14 0.114441 -3.38643e-17 2.23747e-16)
(0 2.75347e-30 0 12.9697 1.89793e-15 6.72851e-15 0.114441 1.71262e-17 5.9823e-17)
(9.51039e-17 -1.21636e-29 1.68938e-31 12.9665 -3.74429e-15 1.033e-14 0.116549 -3.28223e-17 1.93557e-16)
(0 1.21636e-29 1.68938e-31 12.9665 1.97073e-15 6.82991e-15 0.116549 1.79859e-17 6.18555e-17)
(6.81947e-17 4.09587e-30 1.5319e-32 12.9633 -3.53895e-15 1.05919e-14 0.118695 -3.13796e-17 1.61382e-16)
(2.72779e-16 -3.9645e-30 1.7746e-31 12.9633 1.9954e-15 6.93343e-15 0.118695 1.82234e-17 6.39732e-17)
(0 1.30243e-30 0 12.96 -3.38871e-15 1.08573e-14 0.120879 -3.12563e-17 1.27154e-16)
(0 -1.30243e-30 0 12.96 1.94726e-15 7.03812e-15 0.120879 1.77655e-17 6.61396e-17)
(-1.74177e-16 1.14409e-29 -1.88852e-31 12.9566 -3.37119e-15 1.11286e-14 0.123103 -3.22291e-17 1.07058e-16)
(0 -8.94994e-30 0 12.9566 1.93771e-15 7.1458e-15 0.123103 1.87287e-17 6.84303e-17)
(-2.69079e-16 7.48865e-30 -1.88573e-31 12.9532 -3.43578e-15 1.14072e-14 0.125367 -3.36845e-17 1.11783e-16)
(-8.83221e-17 -3.7654e-30 -1.56892e-31 12.9532 1.9336e-15 7.25319e-15 0.125367 1.83553e-17 7.07109e-17)
(2.74221e-16 -4.90997e-30 1.88493e-31 12.9496 -3.51456e-15 1.16866e-14 0.127671 -3.49972e-17 1.16601e-16)
(-4.03255e-16 3.66857e-30 -5.11384e-32 12.9496 1.8697e-15 7.3592e-15 0.127671 1.81742e-17 7.30995e-17)
(0 -1.20955e-30 0 12.946 -3.50185e-15 1.19721e-14 0.130018 -3.46983e-17 1.21731e-16)
(0 2.41911e-30 0 12.946 1.8591e-15 7.46922e-15 0.130018 1.88342e-17 7.55857e-17)
(4.03185e-16 -1.07423e-29 2.29321e-31 12.9422 -3.41154e-15 1.22653e-14 0.132406 -3.4468e-17 1.26994e-16)
(4.7215e-16 7.15836e-30 2.20203e-31 12.9422 1.80097e-15 7.57936e-15 0.132406 1.76694e-17 7.85779e-17)
(-1.26888e-16 1.21596e-30 -4.36459e-32 12.9384 -3.37306e-15 1.25644e-14 0.134837 -3.52037e-17 1.32554e-16)
(0 1.16563e-30 -2.91408e-31 12.9384 1.69129e-15 7.68798e-15 0.134837 1.72575e-17 1.27464e-16)
(2.96942e-16 -2.36092e-30 3.3308e-31 12.9345 -3.38633e-15 1.28686e-14 0.137312 -3.60485e-17 1.38239e-16)
(3.82559e-16 2.32746e-30 -1.02492e-31 12.9345 1.73079e-15 7.80229e-15 0.137312 1.9174e-17 1.7932e-16)
(-1.45079e-16 1.2172e-30 -5.05275e-32 12.9304 -3.46731e-15 1.31756e-14 0.139831 -3.82818e-17 1.4419e-16)
(1.16063e-15 8.38234e-32 3.2666e-31 12.9304 1.81266e-15 7.92031e-15 0.139831 1.96788e-17 2.3408e-16)
(0 2.20544e-30 0 12.9263 -3.55599e-15 1.34922e-14 0.142395 -3.93612e-17 1.50425e-16)
(6.17702e-16 -1.05825e-30 1.41671e-31 12.9263 1.86895e-15 8.0352e-15 0.142395 2.11367e-17 2.91978e-16)
(3.047e-16 -3.24754e-30 0 12.9221 -3.64213e-15 1.38064e-14 0.145005 -4.16579e-17 1.56676e-16)
(6.55776e-16 4.37573e-30 1.18485e-31 12.9221 2.08537e-15 8.14924e-15 0.145005 2.52783e-17 3.53247e-16)
(0 4.2507e-30 0 12.9177 -3.77699e-15 1.41291e-14 0.147661 -4.3928e-17 1.63473e-16)
(6.94548e-16 -2.07522e-30 9.38148e-32 12.9177 2.19514e-15 8.26213e-15 0.147661 2.44432e-17 4.17819e-16)
(-1.83508e-16 1.76848e-31 1.94463e-31 12.9132 -3.85577e-15 1.44635e-14 0.150365 -4.50626e-17 1.70368e-16)
(0 3.12961e-30 -2.60801e-31 12.9132 2.09811e-15 8.37558e-15 0.150365 2.39708e-17 4.86195e-16)
(0 -9.21677e-30 0 12.9086 -3.93606e-15 1.47955e-14 0.153116 -4.74883e-17 1.77509e-16)
(7.74239e-16 9.27524e-30 3.92563e-32 12.9086 2.05959e-15 7.89947e-15 0.153116 2.44504e-17 5.58346e-16)
(7.91767e-17 -1.79441e-30 4.27253e-31 12.9039 -4.06074e-15 1.51305e-14 0.155916 -4.97741e-17 1.84885e-16)
(0 4.02128e-30 -2.5133e-31 12.9039 1.97617e-15 6.65787e-15 0.155916 2.28576e-17 6.47645e-16)
(-2.14219e-16 2.36335e-31 -8.02319e-32 12.899 -3.93704e-15 1.54742e-14 0.158766 -4.62322e-17 1.92661e-16)
(0 2.96069e-30 0 12.899 1.95071e-15 5.96629e-15 0.158766 2.47449e-17 6.623e-16)
(0 1.93763e-30 -2.42203e-31 12.894 -3.55401e-15 1.58257e-14 0.161665 -4.2043e-17 2.00666e-16)
(0 0 0 12.894 1.89129e-15 5.99499e-15 0.161665 2.22286e-17 6.77278e-16)
(-7.71041e-16 1.45404e-29 -8.03823e-31 12.8888 -3.37696e-15 1.61923e-14 0.164615 -4.34508e-17 2.09288e-16)
(-9.42567e-16 -1.14878e-29 4.7553e-31 12.8888 1.8839e-15 6.01535e-15 0.164615 2.54887e-17 6.92541e-16)
(2.46648e-16 -1.22623e-30 9.60915e-32 12.8834 -3.44313e-15 1.65563e-14 0.167616 -4.53495e-17 2.17701e-16)
(7.23796e-16 7.80937e-32 -2.33408e-31 12.8834 2.06192e-15 6.03704e-15 0.167616 2.76993e-17 7.08059e-16)
(-2.57978e-16 3.66609e-30 0 12.8778 -3.57086e-15 1.69169e-14 0.17067 -4.84745e-17 2.26735e-16)
(0 -1.83305e-30 0 12.8778 1.95218e-15 6.06581e-15 0.17067 2.35397e-17 7.23878e-16)
(-2.69266e-16 6.62567e-30 -5.57714e-31 12.872 -3.77125e-15 1.72996e-14 0.173775 -5.24701e-17 2.3624e-16)
(0 -5.39837e-30 4.49864e-31 12.872 1.81489e-15 6.08201e-15 0.173775 2.50353e-17 7.40058e-16)
(-3.22757e-17 1.22846e-30 -1.14175e-31 12.8659 -3.85762e-15 1.76799e-14 0.176934 -5.26773e-17 2.45742e-16)
(-2.4861e-16 3.53297e-30 0 12.8659 1.98292e-15 6.09429e-15 0.176934 2.90495e-17 7.56424e-16)
(0 -8.67056e-30 4.33528e-31 12.8595 -3.8185e-15 1.80562e-14 0.180145 -5.33509e-17 2.55687e-16)
(1.17087e-15 8.76755e-30 -4.33528e-31 12.8595 2.02674e-15 6.10677e-15 0.180145 2.72065e-17 7.73163e-16)
(0 3.40467e-30 0 12.8529 -3.80764e-15 1.84467e-14 0.183411 -5.43522e-17 2.6615e-16)
(0 0 0 12.8529 1.82863e-15 6.10335e-15 0.183411 2.44887e-17 7.90143e-16)
(3.17031e-16 2.1112e-30 1.34749e-31 12.8458 -3.95719e-15 1.88505e-14 0.18673 -5.97104e-17 2.77064e-16)
(1.26812e-15 -3.23995e-30 0 12.8458 2.01695e-15 6.0875e-15 0.18673 3.37081e-17 8.07325e-16)
(-3.29519e-16 -8.61089e-30 2.67834e-31 12.8384 -4.10073e-15 1.92446e-14 0.190102 -6.06525e-17 2.87853e-16)
(1.31808e-15 9.95486e-30 -8.20259e-31 12.8384 2.1231e-15 6.06974e-15 0.190102 2.85562e-17 8.24622e-16)
(-3.42235e-16 -6.81789e-30 -1.50107e-31 12.8306 -3.90453e-15 1.9638e-14 0.193529 -5.60398e-17 2.99376e-16)
(0 8.05228e-30 -4.02614e-31 12.8306 1.68918e-15 7.12304e-15 0.193529 2.1884e-17 8.42054e-16)
(0 9.48567e-30 -3.95236e-31 12.8222 -3.6936e-15 2.10654e-14 0.197009 -5.64539e-17 3.42579e-16)
(1.42072e-15 -9.36366e-30 3.95236e-31 12.8222 1.63422e-15 8.53815e-15 0.197009 2.79428e-17 8.67803e-16)
(-7.36721e-16 4.02428e-30 -3.22882e-31 12.8133 -3.7796e-15 2.2952e-14 0.200543 -6.08445e-17 3.69733e-16)
(1.47344e-15 1.29587e-31 0 12.8133 1.70998e-15 8.93528e-15 0.200543 2.5081e-17 8.96742e-16)
(4.28837e-16 -4.5706e-30 3.80884e-31 12.8038 -4.07277e-15 2.38818e-14 0.204129 -6.79327e-17 3.85145e-16)
(0 4.5706e-30 -3.80884e-31 12.8038 1.57362e-15 9.04123e-15 0.204129 2.4646e-17 9.26279e-16)
(4.20979e-16 -1.49562e-30 3.73904e-31 12.7936 -4.21984e-15 2.43962e-14 0.207767 -6.79162e-17 4.00379e-16)
(0 1.49562e-30 -3.73904e-31 12.7936 1.58528e-15 9.15287e-15 0.207767 2.64052e-17 9.56889e-16)
(-4.09343e-16 7.11269e-30 -5.60284e-31 12.7825 -4.07718e-15 2.49203e-14 0.211455 -6.57705e-17 4.17006e-16)
(-2.05064e-15 -3.07811e-30 0 12.7825 1.76044e-15 9.23546e-15 0.211455 3.13725e-17 9.88344e-16)
(4.23497e-16 3.08216e-30 2.22137e-31 12.7705 -3.84465e-15 2.17589e-14 0.215192 -6.26348e-17 3.08872e-16)
(1.69399e-15 -2.72902e-30 0 12.7705 1.60749e-15 9.32133e-15 0.215192 2.22428e-17 1.02059e-15)
(4.37903e-16 7.24644e-30 -4.50931e-31 12.7575 -3.71744e-15 1.30715e-14 0.218976 -6.38795e-17 1.34333e-16)
(-1.75161e-15 -8.65341e-30 7.07447e-31 12.7575 1.10815e-15 9.43361e-15 0.218976 1.54039e-17 1.05362e-15)
(-4.52567e-16 -1.53412e-30 -2.60224e-31 12.7434 -3.80994e-15 7.82644e-15 0.222805 -6.82314e-17 1.36994e-16)
(1.81027e-15 2.93879e-30 0 12.7434 1.24214e-15 9.54847e-15 0.222805 2.77692e-17 1.08775e-15)
(0 -5.45406e-30 1.36351e-30 12.7279 -3.80331e-15 7.83334e-15 0.226676 -6.60503e-17 1.39641e-16)
(3.73992e-15 5.7847e-30 -1.36351e-30 12.7279 1.63474e-15 9.62845e-15 0.226676 2.9977e-17 1.12322e-15)
(1.2362e-15 -1.06176e-29 1.6065e-30 12.7109 -3.53496e-15 7.83368e-15 0.230586 -6.10597e-17 1.42168e-16)
(1.9307e-15 8.20996e-30 -1.33853e-30 12.7109 1.35613e-15 9.70115e-15 0.230586 1.87002e-17 1.15924e-15)
(-4.98129e-16 6.50562e-30 -9.36338e-31 12.6923 -3.25998e-15 6.40237e-15 0.23453 -5.83693e-17 9.19666e-17)
(-1.99251e-15 -4.1285e-30 0 12.6923 9.06093e-16 9.81804e-15 0.23453 1.44621e-17 1.19592e-15)
(7.26161e-16 -6.44961e-30 6.44961e-31 12.6719 -3.44925e-15 4.49318e-15 0.238504 -7.04912e-17 7.55968e-17)
(0 6.44961e-30 0 12.6719 1.28061e-15 9.90628e-15 0.238504 3.35148e-17 1.23414e-15)
(-1.2427e-15 8.84889e-30 -9.19845e-31 12.6494 -3.59603e-15 3.90092e-15 0.242503 -6.62018e-17 7.2702e-17)
(0 -3.79885e-30 0 12.6494 1.57176e-15 9.9439e-15 0.242503 2.61809e-17 1.2732e-15)
(0 -4.97232e-30 1.24308e-30 12.6245 -3.19902e-15 3.70651e-15 0.246521 -5.76265e-17 7.08452e-17)
(0 4.97232e-30 -1.24308e-30 12.6245 7.80768e-16 1.00072e-14 0.246521 7.56038e-18 1.31292e-15)
(0 8.5421e-30 -6.1015e-31 12.5971 -2.98434e-15 3.53569e-15 0.25055 -6.01471e-17 6.86389e-17)
(-2.25065e-15 -1.1191e-29 6.1015e-31 12.5971 5.81244e-16 1.00729e-14 0.25055 1.54461e-17 1.35385e-15)
(-9.48926e-17 5.93258e-30 -3.05365e-31 12.5669 -2.99169e-15 3.3134e-15 0.254584 -6.00963e-17 6.44971e-17)
(-6.7438e-16 -3.59382e-30 0 12.5669 7.7658e-16 1.00874e-14 0.254584 1.57696e-17 1.3958e-15)
(-5.96593e-16 -2.27303e-30 -2.95778e-31 12.5336 -3.12507e-15 3.07665e-15 0.258613 -6.79254e-17 6.14414e-17)
(0 5.87994e-30 0 12.5336 5.60586e-16 1.01056e-14 0.258613 7.10222e-18 1.43814e-15)
(-5.78071e-16 -6.72579e-30 5.58749e-31 12.4967 -3.46462e-15 2.8764e-15 0.262627 -7.66547e-17 5.84977e-17)
(2.45592e-15 5.9895e-30 -5.77219e-31 12.4967 7.94073e-16 1.01326e-14 0.262627 2.61928e-17 1.48166e-15)
(-6.31651e-16 1.25417e-30 -3.0005e-31 12.4561 -3.89352e-15 2.65601e-15 0.266617 -8.88772e-17 5.43061e-17)
(0 0 0 12.4561 1.18283e-15 1.01107e-14 0.266617 2.40404e-17 1.52574e-15)
(-1.2992e-15 1.03005e-29 -1.71686e-30 12.4114 -4.0925e-15 2.40645e-15 0.27057 -8.82348e-17 4.98004e-17)
(-2.59841e-15 -8.01685e-30 1.11252e-30 12.4114 1.23033e-15 1.0052e-14 0.27057 2.92547e-17 1.57024e-15)
(6.67835e-16 2.01663e-30 -7.88017e-31 12.3622 -3.84096e-15 2.16713e-15 0.274474 -8.10334e-17 4.57028e-17)
(-2.67134e-15 -5.69088e-30 1.09213e-30 12.3622 1.61146e-15 9.96033e-15 0.274474 4.1906e-17 1.61514e-15)
(-6.03548e-16 3.21635e-30 -5.36058e-31 12.3081 -3.04036e-15 1.94738e-15 0.278315 -5.52697e-17 4.17163e-17)
(-1.2071e-15 0 0 12.3081 1.72895e-15 9.82795e-15 0.278315 3.56827e-17 1.66079e-15)
(-2.25298e-16 -5.88647e-30 -6.16228e-31 12.2489 -2.15258e-15 1.67321e-15 0.282079 -4.30935e-17 3.4765e-17)
(4.45612e-15 1.55382e-29 0 12.2489 8.08408e-16 9.7499e-15 0.282079 9.24574e-18 1.70578e-15)
(-7.24201e-16 7.4639e-30 -3.10351e-31 12.184 -2.25081e-15 1.30949e-15 0.285751 -6.19728e-17 2.61801e-17)
(2.8968e-15 0 0 12.184 -6.05153e-30 9.67996e-15 0.285751 -9.86076e-32 1.75184e-15)
(0 -4.057e-30 0 12.1132 -2.87279e-15 9.88133e-16 0.289315 -7.45196e-17 2.06774e-17)
(0 4.057e-30 0 12.1132 -4.10264e-17 9.56464e-15 0.289315 2.46242e-17 1.76791e-15)
(-1.88415e-15 1.26422e-30 -1.30928e-30 12.036 -3.33041e-15 6.85613e-16 0.292754 -8.6644e-17 1.24009e-17)
(3.05253e-15 2.25103e-30 1.57246e-31 12.036 1.71338e-15 9.4217e-15 0.292754 6.00791e-17 1.56058e-15)
(0 3.90968e-30 -9.7742e-31 11.9523 -3.57298e-15 3.67174e-16 0.296053 -8.9388e-17 5.62366e-18)
(0 -1.95484e-30 0 11.9523 1.75783e-15 9.18915e-15 0.296053 2.61994e-17 1.34538e-15)
(-8.03095e-16 5.10373e-30 8.40775e-31 11.8617 -3.64063e-15 6.16298e-33 0.299195 -9.33356e-17 0)
(0 -1.91902e-30 0 11.8617 1.10943e-15 8.95852e-15 0.299195 2.95024e-17 1.12596e-15)
(0 5.65156e-30 1.19748e-30 11.7638 -3.50824e-15 -2.41057e-16 0.302162 -8.59258e-17 3.08052e-18)
(-1.06051e-15 -3.76771e-30 0 11.7638 1.50226e-15 8.77638e-15 0.302162 4.74544e-17 8.98391e-16)
(0 -9.24666e-30 9.24666e-31 11.6587 -2.86538e-15 -6.45149e-16 0.30494 -6.30661e-17 1.21436e-17)
(3.3761e-15 3.57802e-29 -1.67966e-31 11.6587 4.05743e-16 8.55355e-15 0.30494 5.28185e-18 6.62122e-16)
(0 9.07722e-30 0 11.5459 -2.54061e-15 -1.01184e-15 0.307513 -7.17757e-17 2.15368e-17)
(0 -8.39916e-32 0 11.5459 -6.36019e-30 8.2452e-15 0.307513 -9.86076e-32 4.19345e-16)
(-8.85839e-16 1.27151e-30 -3.10111e-31 11.4256 -2.99695e-15 -1.41548e-15 0.309867 -9.03305e-17 3.22329e-17)
(3.54336e-15 2.10424e-30 1.05648e-30 11.4256 1.23783e-16 7.89959e-15 0.309867 2.85775e-17 2.10728e-16)
(0 -6.99807e-30 0 11.2975 -3.30371e-15 -1.79606e-15 0.311988 -9.15223e-17 8.40396e-17)
(3.62818e-15 1.27811e-29 1.08067e-30 11.2975 5.17114e-16 7.60622e-15 0.311988 7.11571e-18 2.07905e-16)
(-9.28434e-16 1.15803e-29 -2.644e-31 11.1619 -3.13123e-15 -2.1877e-15 0.313866 -8.39733e-17 3.46536e-16)
(-3.71374e-15 -1.73854e-31 -1.1061e-30 11.1619 -6.37525e-30 7.31964e-15 0.313866 0 2.02451e-16)
(9.49126e-16 -5.05796e-30 0 11.0187 -2.92286e-15 -2.5883e-15 0.31549 -8.29591e-17 6.17183e-16)
(-3.79995e-15 4.72537e-30 -1.1295e-30 11.0187 -1.31889e-16 7.03692e-15 0.31549 2.95798e-17 1.99441e-16)
(-1.94338e-15 9.00642e-31 -3.68678e-31 10.8681 -2.99616e-15 -2.97317e-15 0.316852 -9.1442e-17 8.96367e-16)
(3.88676e-15 2.00623e-30 1.15323e-30 10.8681 5.79028e-16 6.78451e-15 0.316852 1.10542e-17 1.95256e-16)
(-1.98705e-15 2.56149e-30 -2.83571e-31 10.7105 -2.9491e-15 -3.37436e-15 0.317948 -8.32701e-17 1.18499e-15)
(0 0 0 10.7105 5.39451e-16 6.42254e-15 0.317948 2.10101e-17 1.85303e-16)
(0 -4.78497e-30 0 10.5461 -2.54529e-15 -3.65979e-15 0.318774 -7.02801e-17 1.47704e-15)
(4.06188e-15 5.16248e-30 1.20624e-30 10.5461 2.51773e-16 5.96934e-15 0.318774 3.80016e-18 1.74997e-16)
(-1.91896e-15 1.06756e-29 7.27178e-31 10.3753 -2.86439e-15 -4.11998e-15 0.319329 -1.06216e-16 1.76632e-15)
(-4.15005e-15 -4.85415e-31 -2.78771e-30 10.3753 -1.24338e-29 5.71943e-15 0.319329 9.86076e-32 1.76773e-16)
(1.05963e-15 -5.89274e-30 7.84954e-33 10.1987 -3.66333e-15 -4.55284e-15 0.319614 -1.23449e-16 2.08243e-15)
(0 4.61121e-30 0 10.1987 2.8019e-16 5.52819e-15 0.319614 2.39669e-17 1.69498e-16)
(2.78068e-15 -4.29975e-30 0 10.0166 -4.2182e-15 -4.73599e-15 0.319632 -1.4596e-16 2.10834e-15)
(-6.0261e-15 2.61753e-30 -1.26896e-30 10.0166 5.85573e-16 5.13804e-15 0.319632 1.33051e-17 1.58303e-16)
(-2.20804e-15 4.056e-30 0 9.82961 -4.40946e-15 -5.04171e-15 0.31939 -1.40651e-16 2.07667e-15)
(0 0 -1.48125e-30 9.82961 8.80077e-16 4.69708e-15 0.31939 4.41945e-17 1.4695e-16)
(0 2.90822e-30 0 9.63838 -3.58838e-15 -5.33383e-15 0.318894 -9.65778e-17 2.0427e-15)
(0 -9.79512e-31 -7.27055e-31 9.63838 -6.76165e-30 4.32184e-15 0.318894 0 1.39187e-16)
(-4.587e-16 1.26225e-31 1.42746e-30 9.44349 -2.9332e-15 -5.59773e-15 0.318155 -1.01339e-16 2.00555e-15)
(-9.18785e-15 -2.26375e-30 -4.07518e-30 9.44349 -1.04067e-15 4.09795e-15 0.318155 4.26151e-17 1.37242e-16)
(1.17069e-15 -5.50136e-30 0 9.24556 -3.58206e-15 -5.87497e-15 0.317183 -1.45222e-16 1.96284e-15)
(0 4.20392e-30 0 9.24556 6.53656e-17 3.88527e-15 0.317183 1.12299e-16 1.2968e-16)
(0 -5.50251e-30 -1.37563e-30 9.04524 -4.51989e-15 -6.0428e-15 0.31599 -1.71421e-16 1.91726e-15)
(4.77147e-15 5.87869e-30 2.7385e-30 9.04524 4.89663e-16 3.51337e-15 0.31599 1.53451e-16 1.16137e-16)
(1.21499e-15 -1.31263e-30 0 8.84315 -3.78695e-15 -6.24657e-15 0.31459 -9.79419e-17 1.87121e-15)
(4.85995e-15 3.33236e-31 1.38083e-30 8.84315 -4.81161e-16 3.07902e-15 0.31459 2.57609e-16 1.03305e-16)
(-9.81499e-16 -9.30558e-30 6.62837e-31 8.63992 -2.82248e-15 -6.46556e-15 0.312997 -1.07168e-16 1.82085e-15)
(0 7.95404e-30 6.62837e-31 8.63992 -1.66018e-15 2.77385e-15 0.312997 3.18535e-16 9.81389e-17)
(-1.05278e-15 -6.48668e-30 -6.5069e-31 8.43615 -3.08413e-15 -6.49272e-15 0.311225 -1.21174e-16 1.76809e-15)
(5.03601e-15 8.02943e-30 2.7031e-30 8.43615 -1.31867e-15 2.63118e-15 0.311225 4.46154e-16 9.65421e-17)
(2.71924e-15 -7.70615e-30 -6.38767e-31 8.2324 -2.5789e-15 -6.53101e-15 0.30929 -7.27679e-17 1.71749e-15)
(8.80855e-15 6.72568e-30 3.46862e-30 8.2324 -9.0283e-16 2.44835e-15 0.30929 5.63374e-16 8.79271e-17)
(-1.30262e-15 -1.18806e-30 0 8.02924 -1.7371e-15 -6.6903e-15 0.307207 -6.05003e-17 1.66458e-15)
(0 3.76237e-30 0 8.02924 -2.6275e-15 2.22305e-15 0.307207 6.63189e-16 8.27194e-17)
(-2.64848e-15 2.64996e-30 0 7.82715 -1.16674e-15 -6.74921e-15 0.304991 -3.04812e-17 1.60774e-15)
(5.29696e-15 0 1.43129e-30 7.82715 -2.23628e-15 2.12043e-15 0.304991 8.37853e-16 8.31388e-17)
(-1.34573e-15 1.32038e-30 0 7.62662 -1.15633e-15 -6.79031e-15 0.302656 -6.19433e-17 1.55906e-15)
(5.38291e-15 2.41716e-30 1.44237e-30 7.62662 4.53665e-16 1.99879e-15 0.302656 8.61665e-16 7.60535e-17)
(-1.33581e-15 4.74574e-30 -1.18643e-30 7.42808 -2.0755e-15 -7.16848e-15 0.300218 -1.0693e-16 1.53541e-15)
(0 -1.18643e-30 -5.93217e-31 7.42808 1.22907e-15 1.86866e-15 0.300218 9.12339e-16 7.5611e-17)
(1.38825e-15 -7.14799e-30 -5.82347e-31 7.2319 -2.44947e-15 -7.28689e-15 0.29769 -9.54862e-17 1.47429e-15)
(5.553e-15 5.82347e-30 2.0382e-30 7.2319 9.55292e-16 1.76037e-15 0.29769 9.50826e-16 6.98831e-17)
(1.40927e-15 -8.18142e-30 -1.14335e-30 7.03844 -2.66426e-15 -7.03918e-15 0.295085 -1.29218e-16 1.40141e-15)
(5.63707e-15 6.86011e-30 2.61208e-30 7.03844 5.90743e-16 1.52726e-15 0.295085 9.97653e-16 5.86431e-17)
(-1.43011e-15 -9.25392e-31 0 6.848 -3.32169e-15 -7.01788e-15 0.292416 -1.56016e-16 1.32838e-15)
(5.72045e-15 4.4896e-30 2.59668e-30 6.848 4.6017e-16 1.32261e-15 0.292416 1.0295e-15 5.4795e-17)
(1.45078e-15 -5.73235e-30 -5.50916e-31 6.66085 -3.38036e-15 -7.01558e-15 0.289695 -1.39262e-16 1.25266e-15)
(0 4.40733e-30 5.50916e-31 6.66085 1.05497e-15 1.23597e-15 0.289695 1.04663e-15 5.32101e-17)
(-1.47127e-15 7.82075e-30 2.16328e-30 6.4772 -2.77559e-15 -6.87107e-15 0.286932 -1.0755e-16 1.17464e-15)
(3.44943e-15 -4.32656e-30 4.0421e-31 6.4772 6.14118e-16 1.10166e-15 0.286932 1.07302e-15 4.47906e-17)
(1.49156e-15 -3.45323e-30 -2.12364e-30 6.29724 -2.47447e-15 -6.76563e-15 0.284139 -1.16946e-16 1.09735e-15)
(0 2.12364e-30 2.12364e-30 6.29724 -5.23453e-16 1.00116e-15 0.284139 1.09754e-15 4.60156e-17)
(-1.51167e-15 5.51008e-30 2.08473e-30 6.12113 -1.88857e-15 -6.73329e-15 0.281323 -5.69711e-17 1.01558e-15)
(6.04668e-15 -2.08473e-30 -5.90242e-31 6.12113 -8.61069e-16 8.7628e-16 0.281323 1.09295e-15 3.48343e-17)
(-7.72597e-16 -6.02216e-31 1.02326e-30 5.94899 -2.0452e-16 -6.84734e-15 0.278495 -4.81171e-18 9.39515e-16)
(6.12634e-15 -4.09305e-30 4.81449e-31 5.94899 -6.81518e-16 5.97045e-16 0.278495 1.11211e-15 2.12262e-17)
(0 1.05097e-45 1.00451e-30 5.78092 2.69797e-30 -6.96674e-15 0.275661 -1.57772e-30 8.61813e-16)
(6.20521e-15 -4.01804e-30 5.02875e-31 5.78092 -1.59428e-15 3.85098e-16 0.275661 1.13026e-15 1.56391e-17)
(-2.22051e-15 1.97221e-30 9.86104e-31 5.61696 8.45328e-16 -7.04831e-15 0.272829 -3.19212e-17 7.86137e-16)
(-6.28329e-15 0 -2.47454e-30 5.61696 -2.31945e-15 5.46913e-16 0.272829 1.10425e-15 3.79754e-17)
(0 7.74427e-30 1.93607e-30 5.45718 7.77168e-16 -7.0582e-15 0.270005 -5.08026e-17 6.97609e-16)
(6.36058e-15 -7.74427e-30 -4.31651e-31 5.45718 -1.97345e-15 5.47606e-16 0.270005 1.10282e-15 1.6298e-17)
(-1.60927e-15 -8.17337e-30 -1.90059e-30 5.30158 4.57088e-17 -7.07505e-15 0.267196 -2.62805e-17 6.21331e-16)
(0 1.14035e-29 2.85088e-30 5.30158 -1.9179e-15 4.70979e-16 0.267196 1.11058e-15 3.1569e-17)
(-1.6282e-15 1.23827e-30 0 5.15018 -2.64196e-16 -7.12913e-15 0.264405 -6.81791e-18 5.32552e-16)
(6.5128e-15 1.86576e-30 2.43179e-30 5.15018 -2.01923e-15 5.29841e-16 0.264405 1.09814e-15 2.30449e-17)
(4.12433e-15 0 -9.15786e-31 5.00294 0 -6.96959e-15 0.261637 -1.57772e-30 4.4739e-16)
(-4.12433e-15 3.66314e-30 1.83157e-30 5.00294 -3.1957e-15 5.5701e-16 0.261637 1.08601e-15 3.56421e-17)
(-2.02438e-15 3.59602e-30 1.34851e-30 4.85984 -4.16434e-16 -6.46789e-15 0.258897 -1.20063e-16 3.61665e-16)
(0 -1.79801e-30 -8.99004e-31 4.85984 -2.84903e-15 5.62238e-16 0.258897 1.0545e-15 2.44785e-17)
(3.67109e-15 -8.37333e-30 -2.64759e-30 4.72084 -2.26675e-15 -6.15115e-15 0.256188 -1.27338e-16 2.90144e-16)
(6.73522e-15 5.29518e-30 4.15064e-30 4.72084 9.48122e-17 3.72333e-16 0.256188 1.09303e-15 1.60705e-17)
(-2.48912e-16 2.84617e-30 8.66358e-31 4.58588 -1.17083e-15 -6.52986e-15 0.253512 -3.25348e-17 2.07066e-16)
(4.85695e-15 -1.73272e-30 2.02633e-31 4.58588 1.04931e-15 2.61967e-16 0.253512 1.15474e-15 1.30191e-17)
(0 1.70097e-30 0 4.45489 -1.31258e-15 -5.59768e-15 0.250872 -1.16863e-16 1.04592e-16)
(6.87964e-15 3.40193e-30 2.78148e-30 4.45489 -1.1732e-16 1.61242e-16 0.250872 1.17609e-15 5.16501e-18)
(-3.47536e-15 2.65629e-30 0 4.32782 -1.86353e-15 -2.23796e-15 0.248271 -9.78999e-17 4.23697e-17)
(6.95072e-15 0 0 4.32782 -1.03827e-16 -1.30778e-29 0.248271 1.20088e-15 2.09242e-46)
(1.75526e-15 -1.11615e-29 -2.8686e-30 4.20457 -1.44725e-15 -8.19086e-17 0.245709 -7.18999e-17 4.06302e-17)
(7.02105e-15 9.83518e-30 4.36885e-30 4.20457 -1.01708e-15 -3.52859e-16 0.245709 1.20076e-15 1.03645e-17)
(-3.62351e-15 8.0458e-30 2.41374e-30 4.08506 -9.2115e-16 -8.66306e-17 0.24319 -3.80352e-17 5.01848e-17)
(-3.46714e-15 -8.0458e-30 -3.81867e-30 4.08506 -2.93398e-15 1.11498e-15 0.24319 1.15201e-15 1.68163e-16)
(0 0 7.89836e-31 3.96921 4.35106e-29 -1.49784e-17 0.240712 0 4.1441e-18)
(-1.77855e-15 -1.57967e-30 -1.57967e-30 3.96921 -2.92223e-15 3.62276e-15 0.240712 1.11332e-15 2.74506e-16)
(-3.61384e-15 8.81878e-30 2.32609e-30 3.85693 6.04644e-16 -4.66568e-17 0.238278 -6.11312e-17 -7.23647e-17)
(0 -6.2029e-30 -2.32609e-30 3.85693 -2.85499e-15 4.53098e-15 0.238278 1.08872e-15 2.88349e-16)
(-1.82379e-15 2.82262e-30 2.28346e-30 3.74812 -3.94685e-16 -8.45388e-17 0.235889 -6.41742e-17 -1.45928e-16)
(-1.71397e-15 0 -1.52231e-30 3.74812 -2.91814e-15 4.57763e-15 0.235889 1.08726e-15 2.90806e-16)
(-1.68256e-15 0 2.24162e-30 3.6427 0 -2.47283e-18 0.233544 0 -2.16681e-16)
(-7.36192e-15 -7.47206e-30 -4.44947e-30 3.6427 -3.17413e-15 4.55533e-15 0.233544 1.05416e-15 2.96315e-16)
(3.71401e-15 1.79558e-30 7.33514e-31 3.54056 1.42609e-15 1.30614e-16 0.231244 -5.71637e-17 -2.92866e-16)
(-3.30345e-15 -4.40108e-30 -1.46703e-30 3.54056 -3.0248e-15 4.22663e-15 0.231244 1.00467e-15 2.5821e-16)
(2.12527e-15 3.19366e-30 1.44015e-30 3.44161 1.15271e-15 2.06486e-16 0.228988 -1.30736e-16 -3.63599e-16)
(7.49345e-15 -5.76058e-30 -1.33517e-30 3.44161 -2.07349e-15 3.99575e-15 0.228988 1.00003e-15 2.76317e-16)
(-1.88956e-15 3.47008e-30 0 3.34577 6.58188e-16 1.8599e-16 0.226778 -2.24159e-17 -4.45263e-16)
(7.55823e-15 0 2.27875e-30 3.34577 -3.01531e-15 4.23265e-15 0.226778 1.02204e-15 3.00513e-16)
(3.81119e-15 1.60907e-30 6.93924e-31 3.25292 2.39853e-15 1.33274e-16 0.224613 -8.9625e-17 -5.1777e-16)
(0 -4.16355e-30 -1.38785e-30 3.25292 -4.06757e-15 4.40148e-15 0.224613 9.92139e-16 3.10376e-16)
(4.98936e-15 -2.60591e-30 0 3.16299 2.51229e-15 4.21369e-17 0.222492 -2.44655e-16 -5.95541e-16)
(7.6859e-15 1.36242e-30 2.32849e-30 3.16299 -3.81469e-15 4.24026e-15 0.222492 9.33691e-16 2.88833e-16)
(-1.9372e-15 3.92723e-30 1.33745e-30 3.07587 1.30056e-15 4.85718e-17 0.220415 -1.09233e-16 -6.81298e-16)
(0 0 -1.33745e-30 3.07587 -2.33292e-15 4.16212e-15 0.220415 8.61482e-16 3.10715e-16)
(0 -1.31294e-30 -1.31294e-30 2.99149 1.16297e-15 9.90906e-17 0.218382 -7.77572e-17 -7.62064e-16)
(1.56222e-14 3.93883e-30 5.41569e-30 2.99149 -1.42844e-15 4.17998e-15 0.218382 8.61111e-16 3.02361e-16)
(-1.96821e-15 -3.91567e-30 -3.86665e-30 2.90974 8.53213e-16 1.51286e-16 0.216392 -9.29779e-17 -8.36546e-16)
(-2.90231e-15 5.15553e-30 3.86665e-30 2.90974 -2.56607e-15 4.25415e-15 0.216392 8.49744e-16 3.33609e-16)
(-2.84912e-15 -7.97183e-30 -3.79579e-30 2.83055 8.92654e-16 3.05089e-16 0.214445 -3.39689e-17 -9.23296e-16)
(1.58679e-14 7.59159e-30 7.37307e-30 2.83055 -2.75116e-15 4.47531e-15 0.214445 7.7673e-16 3.47733e-16)
(-4.79555e-15 8.67836e-30 3.1052e-30 2.75384 1.06808e-15 1.78871e-16 0.212539 -1.1856e-16 -1.0075e-15)
(2.79691e-15 -7.45248e-30 -3.1052e-30 2.75384 -3.07891e-15 4.67647e-15 0.212539 7.66925e-16 3.77662e-16)
(2.74566e-15 -3.65796e-30 -1.21932e-30 2.67951 1.10915e-15 1.29019e-16 0.210675 -4.63865e-17 -1.10918e-15)
(8.05458e-15 3.65796e-30 3.71564e-30 2.67951 -2.43548e-15 4.61847e-15 0.210675 7.16426e-16 3.5159e-16)
(2.02852e-15 -8.39603e-30 -4.18941e-30 2.60748 8.8378e-16 3.66746e-17 0.208851 -1.29574e-16 -1.18894e-15)
(1.62281e-14 7.18185e-30 8.0295e-30 2.60748 -9.413e-16 4.51782e-15 0.208851 6.80916e-16 3.75548e-16)
(-2.04326e-15 -1.12417e-30 0 2.53769 -1.84956e-16 -6.6445e-17 0.207068 -4.23475e-17 -1.28784e-15)
(8.17302e-15 4.70016e-30 3.17998e-30 2.53769 -7.68173e-16 4.29961e-15 0.207068 6.82077e-16 3.2874e-16)
(-5.39605e-16 0 1.73026e-30 2.47005 2.46519e-32 -8.2836e-17 0.205323 -3.13071e-47 -1.37732e-15)
(8.23146e-15 0 -2.6324e-31 2.47005 -6.68551e-16 4.08349e-15 0.205323 6.98931e-16 3.53278e-16)
(-4.1447e-15 9.24764e-30 2.26474e-30 2.4045 3.40545e-17 -1.76031e-16 0.203617 -2.16379e-17 -1.48181e-15)
(8.2894e-15 -4.52948e-30 -1.33683e-31 2.4045 -1.62129e-16 3.71747e-15 0.203617 7.19847e-16 2.78294e-16)
(-5.00629e-15 -3.15942e-46 -3.33486e-30 2.34095 -4.92764e-30 -1.28029e-16 0.201948 0 -1.5559e-15)
(1.66937e-14 6.66972e-30 7.62455e-30 2.34095 2.13859e-16 3.29593e-15 0.201948 7.39393e-16 2.92874e-16)
(0 4.365e-30 2.1825e-30 2.27935 8.23767e-17 -2.10353e-16 0.200315 -1.10239e-16 -1.64781e-15)
(8.4038e-15 -4.365e-30 5.25264e-33 2.27935 -7.36136e-16 3.23025e-15 0.200315 7.85524e-16 2.77081e-16)
(-4.52732e-15 0 2.14251e-30 2.21962 -2.46519e-32 -8.65533e-17 0.198719 6.06249e-46 -1.73816e-15)
(0 -2.14251e-30 -2.14251e-30 2.21962 -1.63424e-15 2.77524e-15 0.198719 8.10366e-16 2.21345e-16)
(2.12908e-15 2.98739e-30 3.15487e-30 2.1617 1.3339e-15 -7.04809e-17 0.197157 -6.5759e-17 -1.81626e-15)
(0 -6.30974e-30 -4.20649e-30 2.1617 -8.24554e-16 2.18814e-15 0.197157 7.89165e-16 1.78997e-16)
(0 4.12941e-30 2.0647e-30 2.10552 1.83674e-15 -5.47463e-17 0.19563 -1.79582e-16 -1.8908e-15)
(-2.32465e-15 -2.0647e-30 -2.0647e-30 2.10552 7.14797e-16 1.65826e-15 0.19563 8.00144e-16 1.2991e-16)
(-4.4388e-15 1.13209e-29 5.06717e-30 2.05104 1.88439e-15 -5.09282e-17 0.194136 -1.62922e-16 -1.93511e-15)
(0 -1.01343e-29 -6.08061e-30 2.05104 -9.78956e-16 1.08348e-15 0.194136 8.36428e-16 7.54907e-17)
(-4.41066e-15 3.17134e-30 1.98973e-30 1.99819 2.04238e-15 -3.70157e-17 0.192674 -1.95488e-16 -1.99629e-15)
(-8.6817e-15 0 -4.41758e-30 1.99819 -2.44406e-15 6.65889e-16 0.192674 7.54555e-16 5.32109e-17)
(-2.18399e-15 -4.67859e-30 -2.9299e-30 1.94691 1.75046e-15 -7.82388e-17 0.191244 -1.99932e-16 -2.06689e-15)
(1.74719e-14 5.8598e-30 2.24208e-44 1.94691 -3.89104e-16 4.00951e-29 0.191244 7.71014e-16 4.4055e-45)
(0 -9.58737e-30 -3.83495e-30 1.89715 1.11179e-15 -6.66254e-17 0.189845 -1.4475e-16 -2.16144e-15)
(8.78983e-15 9.58737e-30 9.01888e-30 1.89715 -4.53469e-16 -1.29212e-16 0.189845 8.40003e-16 6.48907e-18)
(-2.21082e-15 3.06698e-30 1.88234e-30 1.84885 1.46209e-15 1.18223e-16 0.188476 -7.79699e-17 -2.23601e-15)
(6.72396e-15 0 5.61621e-31 1.84885 -1.36858e-15 -7.00022e-16 0.188476 7.88773e-16 6.9142e-17)
(0 3.69569e-30 1.84784e-30 1.80198 2.51779e-15 2.38929e-16 0.187137 -2.22557e-16 -2.2805e-15)
(8.89634e-15 -1.84784e-30 5.81996e-31 1.80198 -2.41223e-15 -9.57052e-16 0.187137 7.42347e-16 7.41511e-17)
(-2.23725e-15 -7.93929e-30 -2.72097e-30 1.75647 3.70019e-15 2.27147e-16 0.185826 -3.03025e-16 -2.31635e-15)
(8.949e-15 9.06991e-30 5.09346e-30 1.75647 -4.19805e-15 -9.10758e-16 0.185826 6.54465e-16 1.25826e-16)
(0 -7.12297e-30 -3.56148e-30 1.71229 3.47059e-15 1.20894e-16 0.184542 -4.84359e-16 -2.3833e-15)
(9.00129e-15 7.12297e-30 5.95848e-30 1.71229 -4.4597e-15 -6.32498e-16 0.184542 5.75578e-16 6.70233e-17)
(-2.2633e-15 1.11964e-30 0 1.66938 2.53049e-15 3.39794e-17 0.183285 -2.64318e-16 -2.43312e-15)
(0 1.74811e-30 1.74811e-30 1.66938 -4.20254e-15 -6.36086e-16 0.183285 4.9852e-16 6.9816e-17)
(-2.27619e-15 -2.31781e-30 -8.58038e-31 1.62771 3.0147e-15 -8.30389e-17 0.182055 -2.93532e-16 -2.52575e-15)
(0 3.43215e-30 1.71608e-30 1.62771 -3.44695e-15 -6.72868e-16 0.182055 3.89402e-16 7.03468e-17)