/*--------------------------------*- C++ -*----------------------------------*\
| =========                 |                                                 |
| \\      /  F ield         | OpenFOAM: The Open Source CFD Toolbox           |
|  \\    /   O peration     | Version:  2106                                  |
|   \\  /    A nd           | Website:  www.openfoam.com                      |
|    \\/     M anipulation  |                                                 |
\*---------------------------------------------------------------------------*/
FoamFile
{
    version     2.0;
    format      ascii;
    arch        "LSB;label=32;scalar=64";
    class       volVectorField;
    location    "10080";
    object      grad(T);
}
// * * * * * * * * * * * * * * * * * * * * * * * * * * * * * * * * * * * * * //

dimensions      [0 -1 0 1 0 0 0];

internalField   nonuniform List<vector> 
2000
(
(2.86062e-17 127.821 0.23655)
(-2.86062e-17 127.821 0.23655)
(0 127.821 0.714066)
(-1.12328e-16 127.821 0.714066)
(-2.4961e-16 127.821 0.991017)
(2.20539e-16 127.821 0.991017)
(-9.52695e-17 127.821 1.00951)
(3.81078e-16 127.821 1.00951)
(0 127.82 1.02836)
(0 127.82 1.02836)
(0 127.82 1.04755)
(-9.25587e-16 127.82 1.04755)
(0 127.82 1.0671)
(1.20549e-15 127.82 1.0671)
(0 127.819 1.08702)
(2.98123e-15 127.819 1.08702)
(-4.45265e-16 127.819 1.1073)
(0 127.819 1.1073)
(0 127.818 1.12796)
(0 127.818 1.12796)
(7.60831e-16 127.817 1.14901)
(0 127.817 1.14901)
(6.71332e-16 127.816 1.17045)
(2.68533e-15 127.816 1.17045)
(0 127.815 1.19229)
(0 127.815 1.19229)
(-8.29163e-16 127.814 1.21454)
(-1.43953e-15 127.814 1.21454)
(-2.32345e-15 127.813 1.2372)
(0 127.813 1.2372)
(2.3802e-15 127.812 1.26028)
(-3.97175e-15 127.812 1.26028)
(0 127.81 1.28379)
(0 127.81 1.28379)
(2.32576e-15 127.809 1.30773)
(4.65153e-15 127.809 1.30773)
(-1.25024e-15 127.807 1.33212)
(-1.31238e-15 127.807 1.33212)
(1.33923e-15 127.805 1.35697)
(5.35691e-15 127.805 1.35697)
(-1.42987e-15 127.802 1.38227)
(1.1439e-14 127.802 1.38227)
(0 127.8 1.40804)
(6.08884e-15 127.8 1.40804)
(0 127.797 1.43429)
(8.90268e-15 127.797 1.43429)
(0 127.794 1.46103)
(4.45541e-15 127.794 1.46103)
(-1.80969e-15 127.79 1.48826)
(0 127.79 1.48826)
(0 127.786 1.51599)
(7.63642e-15 127.786 1.51599)
(-2.01038e-15 127.782 1.54423)
(0 127.782 1.54423)
(-2.11354e-15 127.776 1.57298)
(0 127.776 1.57298)
(0 127.771 1.60227)
(-2.18157e-15 127.771 1.60227)
(-4.46726e-15 127.764 1.63209)
(-9.30266e-15 127.764 1.63209)
(2.4347e-15 127.756 1.66245)
(9.7388e-15 127.756 1.66245)
(4.12766e-15 127.748 1.69336)
(-4.12766e-15 127.748 1.69336)
(-2.6589e-15 127.738 1.72482)
(0 127.738 1.72482)
(-6.7519e-15 127.726 1.75685)
(3.97777e-15 127.726 1.75685)
(0 127.713 1.78945)
(1.15661e-14 127.713 1.78945)
(3.83332e-15 127.698 1.82262)
(-3.83332e-15 127.698 1.82262)
(3.13287e-15 127.681 1.85638)
(5.00534e-15 127.681 1.85638)
(-3.25692e-15 127.661 1.89071)
(1.30277e-14 127.661 1.89071)
(-7.00969e-15 127.638 1.92563)
(3.62642e-15 127.638 1.92563)
(0 127.611 1.96114)
(1.40478e-14 127.611 1.96114)
(-7.28606e-15 127.581 1.99724)
(1.45721e-14 127.581 1.99724)
(3.4307e-15 127.545 2.03392)
(0 127.545 2.03392)
(3.36783e-15 127.505 2.07118)
(0 127.505 2.07118)
(-4.05095e-15 127.458 2.10901)
(-1.62038e-14 127.458 2.10901)
(4.19197e-15 127.404 2.14741)
(1.67679e-14 127.404 2.14741)
(4.33557e-15 127.342 2.18636)
(-1.73423e-14 127.342 2.18636)
(-4.4818e-15 127.271 2.22584)
(1.79272e-14 127.271 2.22584)
(0 127.19 2.26585)
(3.70456e-14 127.19 2.26585)
(4.7823e-15 127.097 2.30634)
(2.51574e-14 127.097 2.30634)
(-4.93665e-15 126.99 2.34729)
(-1.97466e-14 126.99 2.34729)
(0 126.869 2.38867)
(5.80929e-15 126.869 2.38867)
(-5.25374e-15 126.73 2.43043)
(-5.70284e-15 126.73 2.43043)
(0 126.573 2.47252)
(0 126.573 2.47252)
(0 126.395 2.5149)
(-2.23289e-14 126.395 2.5149)
(3.55781e-16 126.193 2.5575)
(0 126.193 2.5575)
(-1.12185e-14 125.964 2.60024)
(5.29617e-15 125.964 2.60024)
(-6.99455e-15 125.707 2.64305)
(2.43873e-14 125.707 2.64305)
(-6.2743e-15 125.418 2.68583)
(0 125.418 2.68583)
(-1.29095e-14 125.095 2.7285)
(-2.5819e-14 125.095 2.7285)
(6.63818e-15 124.733 2.77094)
(-2.65527e-14 124.733 2.77094)
(-9.65677e-15 124.33 2.81303)
(0 124.33 2.81303)
(-1.40281e-14 123.882 2.85466)
(5.61122e-14 123.882 2.85466)
(-7.20641e-15 123.385 2.8957)
(2.88257e-14 123.385 2.8957)
(9.13556e-15 122.838 2.93599)
(0 122.838 2.93599)
(-1.65682e-14 122.235 2.97541)
(3.04e-14 122.235 2.97541)
(0 121.575 3.01379)
(-8.80382e-15 121.575 3.01379)
(-8.0051e-15 120.853 3.05098)
(-8.64249e-15 120.853 3.05098)
(8.48412e-15 120.068 3.08684)
(-8.48412e-15 120.068 3.08684)
(0 119.217 3.12121)
(3.3685e-14 119.217 3.12121)
(0 118.297 3.15393)
(0 118.297 3.15393)
(-8.84784e-15 117.308 3.18488)
(3.53914e-14 117.308 3.18488)
(0 116.248 3.2139)
(3.62592e-14 116.248 3.2139)
(-9.28408e-15 115.117 3.24088)
(-3.71363e-14 115.117 3.24088)
(0 113.915 3.2657)
(-3.8022e-14 113.915 3.2657)
(-1.9458e-14 112.642 3.28827)
(3.89159e-14 112.642 3.28827)
(-1.99087e-14 111.301 3.3085)
(0 111.301 3.3085)
(-1.43664e-14 109.892 3.32632)
(5.50922e-14 109.892 3.32632)
(-2.45132e-14 108.419 3.34171)
(-4.16405e-14 108.419 3.34171)
(1.06402e-14 106.884 3.35462)
(0 106.884 3.35462)
(1.08715e-14 105.291 3.36505)
(-4.34861e-14 105.291 3.36505)
(-2.22078e-14 103.645 3.37301)
(-1.33419e-14 103.645 3.37301)
(0 101.95 3.37854)
(0 101.95 3.37854)
(3.72861e-14 100.211 3.38169)
(-1.18285e-13 100.211 3.38169)
(1.18057e-14 98.4324 3.38251)
(0 98.4324 3.38251)
(0 96.6203 3.38108)
(4.81626e-14 96.6203 3.38108)
(1.22758e-14 94.7799 3.3775)
(4.9103e-14 94.7799 3.3775)
(-1.14058e-15 92.9166 3.37187)
(1.19406e-14 92.9166 3.37187)
(-2.54918e-14 91.0357 3.3643)
(7.44273e-14 91.0357 3.3643)
(1.29807e-14 89.1425 3.3549)
(1.03845e-13 89.1425 3.3549)
(-1.3215e-14 87.2422 3.3438)
(0 87.2422 3.3438)
(-2.68976e-14 85.3395 3.33111)
(5.37951e-14 85.3395 3.33111)
(-1.36819e-14 83.4392 3.31697)
(5.47276e-14 83.4392 3.31697)
(-2.13729e-14 81.5455 3.3015)
(-2.13729e-14 81.5455 3.3015)
(1.41456e-14 79.6625 3.28482)
(5.65824e-14 79.6625 3.28482)
(1.4376e-14 77.7938 3.26705)
(5.7504e-14 77.7938 3.26705)
(-1.46053e-14 75.943 3.24832)
(5.84212e-14 75.943 3.24832)
(1.48334e-14 74.1129 3.22872)
(0 74.1129 3.22872)
(4.42484e-15 72.3063 3.20838)
(4.0756e-14 72.3063 3.20838)
(1.52858e-14 70.5256 3.18739)
(0 70.5256 3.18739)
(-1.551e-14 68.7729 3.16585)
(6.20399e-14 68.7729 3.16585)
(1.57327e-14 67.05 3.14385)
(6.29308e-14 67.05 3.14385)
(1.80957e-14 65.3583 3.12146)
(4.57201e-14 65.3583 3.12146)
(0 63.6993 3.09878)
(-8.24588e-14 63.6993 3.09878)
(0 62.0737 3.07588)
(6.55676e-14 62.0737 3.07588)
(-1.66085e-14 60.4826 3.05281)
(0 60.4826 3.05281)
(-1.68236e-14 58.9263 3.02964)
(6.72943e-14 58.9263 3.02964)
(0 57.4054 3.00643)
(0 57.4054 3.00643)
(0 55.9201 2.98322)
(-1.6195e-14 55.9201 2.98322)
(1.74591e-14 54.4704 2.96006)
(6.98363e-14 54.4704 2.96006)
(-1.35462e-14 53.0564 2.93699)
(7.06707e-14 53.0564 2.93699)
(0 51.6779 2.91406)
(7.14986e-14 51.6779 2.91406)
(-3.616e-14 50.3345 2.89128)
(7.232e-14 50.3345 2.89128)
(1.82838e-14 49.026 2.86869)
(7.31351e-14 49.026 2.86869)
(0 47.752 2.84632)
(-7.39437e-14 47.752 2.84632)
(0 46.5118 2.82418)
(-2.84568e-14 46.5118 2.82418)
(-9.83562e-15 45.3051 2.8023)
(-2.79354e-14 45.3051 2.8023)
(-1.90829e-14 44.1312 2.7807)
(0 44.1312 2.7807)
(-2.69209e-14 42.9894 2.75938)
(-7.71154e-14 42.9894 2.75938)
(3.89465e-14 41.8791 2.73836)
(0 41.8791 2.73836)
(1.33889e-14 40.7996 2.71765)
(7.86645e-14 40.7996 2.71765)
(-1.98575e-14 39.7503 2.69726)
(7.94301e-14 39.7503 2.69726)
(4.0095e-14 38.7303 2.6772)
(-2.50013e-14 38.7303 2.6772)
(2.0236e-14 37.739 2.65746)
(8.09439e-14 37.739 2.65746)
(-2.04231e-14 36.7757 2.63806)
(-2.40934e-14 36.7757 2.63806)
(-2.36519e-14 35.8395 2.61899)
(1.88522e-13 35.8395 2.61899)
(-2.07931e-14 34.9298 2.60026)
(0 34.9298 2.60026)
(-2.2793e-14 34.0459 2.58188)
(1.67809e-13 34.0459 2.58188)
(-2.11577e-14 33.1869 2.56382)
(0 33.1869 2.56382)
(0 32.3523 2.54611)
(8.53524e-14 32.3523 2.54611)
(2.15172e-14 31.5414 2.52873)
(1.72137e-13 31.5414 2.52873)
(-2.1695e-14 30.7533 2.51168)
(8.67801e-14 30.7533 2.51168)
(1.09186e-15 29.9875 2.49496)
(4.5927e-14 29.9875 2.49496)
(-4.4094e-14 29.2433 2.47857)
(4.73901e-14 29.2433 2.47857)
(-6.00755e-14 28.5201 2.4625)
(2.1782e-13 28.5201 2.4625)
(0 27.8171 2.44675)
(8.95772e-14 27.8171 2.44675)
(-2.25662e-14 27.1339 2.43131)
(0 27.1339 2.43131)
(2.2737e-14 26.4697 2.41618)
(0 26.4697 2.41618)
(3.71944e-14 25.8241 2.40136)
(-3.71944e-14 25.8241 2.40136)
(-2.30754e-14 25.1964 2.38683)
(0 25.1964 2.38683)
(-2.3243e-14 24.5861 2.37259)
(-1.28816e-13 24.5861 2.37259)
(-2.34095e-14 23.9926 2.35865)
(1.87276e-13 23.9926 2.35865)
(0 23.4155 2.34498)
(9.43004e-14 23.4155 2.34498)
(-2.37397e-14 22.8542 2.33159)
(9.49587e-14 22.8542 2.33159)
(0 22.3082 2.31847)
(2.90375e-14 22.3082 2.31847)
(-2.40659e-14 21.7771 2.30561)
(9.62638e-14 21.7771 2.30561)
(0 21.2603 2.29301)
(9.69107e-14 21.2603 2.29301)
(-2.43885e-14 20.7575 2.28066)
(0 20.7575 2.28066)
(-2.45484e-14 20.2681 2.26856)
(0 20.2681 2.26856)
(-8.54027e-14 19.7919 2.2567)
(6.06952e-14 19.7919 2.2567)
(-3.47173e-14 19.3283 2.24506)
(-9.94628e-14 19.3283 2.24506)
(2.92456e-14 18.8771 2.23366)
(-2.92456e-14 18.8771 2.23366)
(0 18.4377 2.22248)
(0 18.4377 2.22248)
(5.35189e-14 18.0098 2.21151)
(0 18.0098 2.21151)
(-5.31574e-14 17.5931 2.20074)
(1.29628e-13 17.5931 2.20074)
(-2.56445e-14 17.1873 2.19018)
(1.02578e-13 17.1873 2.19018)
(-2.57979e-14 16.7919 2.17982)
(0 16.7919 2.17982)
(0 16.4067 2.16964)
(1.03802e-13 16.4067 2.16964)
(-2.61025e-14 16.0314 2.15965)
(-1.30104e-13 16.0314 2.15965)
(1.03032e-15 15.6656 2.14983)
(1.30238e-13 15.6656 2.14983)
(2.64042e-14 15.3091 2.14019)
(1.05617e-13 15.3091 2.14019)
(2.6554e-14 14.9615 2.13071)
(0 14.9615 2.13071)
(-2.3862e-14 14.6227 2.12138)
(1.30675e-13 14.6227 2.12138)
(-2.68516e-14 14.2923 2.11221)
(0 14.2923 2.11221)
(0 13.9701 2.10319)
(1.30993e-13 13.9701 2.10319)
(-2.71466e-14 13.6558 2.0943)
(-4.51482e-14 13.6558 2.0943)
(0 13.3492 2.08554)
(0 13.3492 2.08554)
(0 13.0501 2.07691)
(1.09756e-13 13.0501 2.07691)
(-4.27114e-14 12.7582 2.0684)
(1.53049e-13 12.7582 2.0684)
(-2.77291e-14 12.4733 2.06001)
(0 12.4733 2.06001)
(-2.78732e-14 12.1953 2.05172)
(0 12.1953 2.05172)
(-6.84228e-14 11.9238 2.04353)
(4.04062e-14 11.9238 2.04353)
(1.66534e-14 11.6588 2.03543)
(1.12638e-13 11.6588 2.03543)
(-4.59669e-14 11.3999 2.02742)
(1.13208e-13 11.3999 2.02742)
(-3.82253e-14 11.1471 2.01949)
(1.13775e-13 11.1471 2.01949)
(-2.85849e-14 10.9001 2.01163)
(-3.75249e-14 10.9001 2.01163)
(-2.87256e-14 10.6589 2.00384)
(0 10.6589 2.00384)
(0 10.4231 1.9961)
(0 10.4231 1.9961)
(-3.54995e-14 10.1926 1.98842)
(1.51521e-13 10.1926 1.98842)
(-2.91443e-14 9.96735 1.98077)
(-1.16577e-13 9.96735 1.98077)
(3.42104e-14 9.74711 1.97317)
(-3.42104e-14 9.74711 1.97317)
(-2.94208e-14 9.53175 1.96559)
(-2.6895e-13 9.53175 1.96559)
(-2.95582e-14 9.32112 1.95803)
(0 9.32112 1.95803)
(0 9.11508 1.95048)
(0 9.11508 1.95048)
(0 8.91349 1.94293)
(1.19326e-13 8.91349 1.94293)
(-5.99348e-14 8.71622 1.93538)
(2.39739e-13 8.71622 1.93538)
(0 8.52314 1.92781)
(1.20411e-13 8.52314 1.92781)
(-3.02376e-14 8.33412 1.92022)
(-3.00562e-14 8.33412 1.92022)
(0 8.14904 1.91259)
(-9.19821e-14 8.14904 1.91259)
(-3.05056e-14 7.96778 1.90492)
(0 7.96778 1.90492)
(0 7.79023 1.89719)
(1.22556e-13 7.79023 1.89719)
(0 7.61626 1.8894)
(1.23086e-13 7.61626 1.8894)
(3.09038e-14 7.44577 1.88153)
(2.47231e-13 7.44577 1.88153)
(3.10355e-14 7.27866 1.87358)
(1.24142e-13 7.27866 1.87358)
(0 7.11481 1.86552)
(1.24666e-13 7.11481 1.86552)
(3.12972e-14 6.95412 1.85735)
(1.51111e-13 6.95412 1.85735)
(-3.14272e-14 6.7965 1.84905)
(2.51418e-13 6.7965 1.84905)
(-3.15567e-14 6.64183 1.84061)
(-1.26227e-13 6.64183 1.84061)
(0 6.49004 1.83202)
(0 6.49004 1.83202)
(-3.18139e-14 6.34101 1.82326)
(-4.8148e-14 6.34101 1.82326)
(-6.38834e-14 6.19466 1.81431)
(-4.72657e-14 6.19466 1.81431)
(-3.20689e-14 6.05089 1.80516)
(1.28275e-13 6.05089 1.80516)
(0 5.90963 1.7958)
(0 5.90963 1.7958)
(-3.23214e-14 5.77076 1.78619)
(0 5.77076 1.78619)
(0 5.63422 1.77632)
(-4.38952e-14 5.63422 1.77632)
(3.25713e-14 5.49991 1.76618)
(2.60571e-13 5.49991 1.76618)
(1.07692e-13 5.36775 1.75573)
(-1.73083e-13 5.36775 1.75573)
(6.56373e-14 5.23765 1.74496)
(0 5.23765 1.74496)
(6.58826e-14 5.10953 1.73384)
(2.6353e-13 5.10953 1.73384)
(3.30632e-14 4.9833 1.72235)
(9.22346e-14 4.9833 1.72235)
(3.31843e-14 4.85888 1.71045)
(1.32737e-13 4.85888 1.71045)
(-3.33047e-14 4.73619 1.69812)
(1.33219e-13 4.73619 1.69812)
(4.43387e-15 4.61514 1.68533)
(-3.78582e-14 4.61514 1.68533)
(0 4.49564 1.67203)
(1.34173e-13 4.49564 1.67203)
(-3.08387e-14 4.37762 1.65821)
(9.81609e-14 4.37762 1.65821)
(-3.37781e-14 4.26099 1.64381)
(0 4.26099 1.64381)
(0 4.14565 1.62879)
(2.71154e-13 4.14565 1.62879)
(0 4.03153 1.61312)
(-3.45143e-14 4.03153 1.61312)
(3.41237e-14 3.91852 1.59673)
(-1.36495e-13 3.91852 1.59673)
(3.42369e-14 3.80655 1.57959)
(0 3.80655 1.57959)
(-3.3949e-15 3.6955 1.56163)
(0 3.6955 1.56163)
(3.68667e-14 3.58529 1.54279)
(0 3.58529 1.54279)
(0 3.47581 1.523)
(1.38279e-13 3.47581 1.523)
(0 3.36696 1.5022)
(1.69602e-13 3.36696 1.5022)
(3.47856e-14 3.25862 1.4803)
(1.39142e-13 3.25862 1.4803)
(0 3.15069 1.45722)
(-1.69333e-13 3.15069 1.45722)
(-3.4996e-14 3.04303 1.43287)
(0 3.04303 1.43287)
(-3.5099e-14 2.93552 1.40714)
(1.40396e-13 2.93552 1.40714)
(0 2.82802 1.37992)
(1.40802e-13 2.82802 1.37992)
(-3.53002e-14 2.72039 1.3511)
(-1.41201e-13 2.72039 1.3511)
(3.53981e-14 2.61248 1.32053)
(2.83185e-13 2.61248 1.32053)
(0 2.50412 1.28806)
(8.86952e-14 2.50412 1.28806)
(-3.55884e-14 2.39514 1.25354)
(0 2.39514 1.25354)
(3.56805e-14 2.28534 1.21679)
(1.42722e-13 2.28534 1.21679)
(1.46357e-14 2.17454 1.17762)
(1.43082e-13 2.17454 1.17762)
(-3.58579e-14 2.06252 1.1358)
(1.43432e-13 2.06252 1.1358)
(0 1.94905 1.09112)
(0 1.94905 1.09112)
(3.60253e-14 1.83391 1.04331)
(0 1.83391 1.04331)
(-7.22095e-14 1.71683 0.992101)
(1.44419e-13 1.71683 0.992101)
(0 1.59756 0.937207)
(0 1.59756 0.937207)
(4.51119e-14 1.47585 0.878315)
(0 1.47585 0.878315)
(3.63242e-14 1.35142 0.815099)
(1.45297e-13 1.35142 0.815099)
(-3.63901e-14 1.22403 0.747225)
(1.89034e-13 1.22403 0.747225)
(-7.91291e-14 1.09343 0.674355)
(0 1.09343 0.674355)
(4.1895e-14 0.959415 0.596154)
(-4.1895e-14 0.959416 0.596154)
(0 0.821816 0.512308)
(-1.46251e-13 0.821816 0.512308)
(-3.66108e-14 0.680517 0.422528)
(0 0.680517 0.422528)
(-3.66534e-14 0.535474 0.326569)
(1.46614e-13 0.535474 0.326569)
(0 0.386722 0.224238)
(1.46761e-13 0.386722 0.224238)
(1.47364e-15 0.234385 0.115405)
(-3.81946e-14 0.234385 0.115405)
(-3.67449e-14 1.74808e-06 6.47011e-07)
(2.94077e-13 1.12222e-06 4.15363e-07)
(0 127.821 -0.23655)
(-2.86062e-17 127.821 -0.23655)
(-2.24656e-16 127.821 -0.714066)
(0 127.821 -0.714066)
(-5.81418e-17 127.821 -0.991017)
(0 127.821 -0.991017)
(9.52695e-17 127.821 -1.00951)
(-2.16498e-16 127.821 -1.00951)
(-3.25408e-16 127.82 -1.02836)
(0 127.82 -1.02836)
(2.31397e-16 127.82 -1.04755)
(-4.17272e-16 127.82 -1.04755)
(-4.09625e-16 127.82 -1.0671)
(0 127.82 -1.0671)
(7.45306e-16 127.819 -1.08702)
(0 127.819 -1.08702)
(-4.45265e-16 127.819 -1.1073)
(1.78106e-15 127.819 -1.1073)
(1.29426e-15 127.818 -1.12796)
(-2.85196e-15 127.818 -1.12796)
(-3.32504e-16 127.817 -1.14901)
(-2.37832e-15 127.817 -1.14901)
(6.71332e-16 127.816 -1.17045)
(0 127.816 -1.17045)
(-1.63156e-17 127.815 -1.19229)
(-3.73127e-15 127.815 -1.19229)
(1.43953e-15 127.814 -1.21454)
(-3.31665e-15 127.814 -1.21454)
(9.10294e-16 127.813 -1.2372)
(-3.64117e-15 127.813 -1.2372)
(-1.38726e-15 127.812 -1.26028)
(0 127.812 -1.26028)
(1.07712e-15 127.81 -1.28379)
(-5.67034e-15 127.81 -1.28379)
(1.16288e-15 127.809 -1.30773)
(4.65153e-15 127.809 -1.30773)
(1.25024e-15 127.807 -1.33212)
(0 127.807 -1.33212)
(2.67845e-15 127.805 -1.35697)
(0 127.805 -1.35697)
(1.42987e-15 127.802 -1.38227)
(3.19004e-15 127.802 -1.38227)
(1.52221e-15 127.8 -1.40804)
(3.60574e-15 127.8 -1.40804)
(-1.61627e-15 127.797 -1.43429)
(0 127.797 -1.43429)
(3.42417e-15 127.794 -1.46103)
(0 127.794 -1.46103)
(1.80969e-15 127.79 -1.48826)
(0 127.79 -1.48826)
(2.30604e-15 127.786 -1.51599)
(0 127.786 -1.51599)
(-2.26378e-15 127.782 -1.54423)
(-2.26378e-15 127.782 -1.54423)
(4.22708e-15 127.776 -1.57298)
(0 127.776 -1.57298)
(2.21862e-15 127.771 -1.60227)
(8.8745e-15 127.771 -1.60227)
(4.65133e-15 127.764 -1.63209)
(0 127.764 -1.63209)
(2.4347e-15 127.756 -1.66245)
(0 127.756 -1.66245)
(6.67342e-15 127.748 -1.69336)
(-4.12766e-15 127.748 -1.69336)
(2.6589e-15 127.738 -1.72482)
(-1.06356e-14 127.738 -1.72482)
(3.97777e-15 127.726 -1.75685)
(-1.50743e-14 127.726 -1.75685)
(0 127.713 -1.78945)
(0 127.713 -1.78945)
(6.8444e-15 127.698 -1.82262)
(-1.58777e-14 127.698 -1.82262)
(-1.2604e-15 127.681 -1.85638)
(0 127.681 -1.85638)
(-3.25692e-15 127.661 -1.89071)
(-1.30277e-14 127.661 -1.89071)
(-3.38327e-15 127.638 -1.92563)
(-2.70661e-14 127.638 -1.92563)
(-3.51196e-15 127.611 -1.96114)
(-7.11994e-15 127.611 -1.96114)
(-3.64303e-15 127.581 -1.99724)
(0 127.581 -1.99724)
(-3.77653e-15 127.545 -2.03392)
(-3.02122e-14 127.545 -2.03392)
(4.45714e-15 127.505 -2.07118)
(3.36783e-15 127.505 -2.07118)
(4.05095e-15 127.458 -2.10901)
(-2.2816e-14 127.458 -2.10901)
(1.4875e-14 127.404 -2.14741)
(1.02768e-14 127.404 -2.14741)
(4.33557e-15 127.342 -2.18636)
(-1.73423e-14 127.342 -2.18636)
(-8.96359e-15 127.271 -2.22584)
(-1.79272e-14 127.271 -2.22584)
(3.12067e-15 127.19 -2.26585)
(2.46635e-14 127.19 -2.26585)
(0 127.097 -2.30634)
(0 127.097 -2.30634)
(-4.93665e-15 126.99 -2.34729)
(-3.94932e-14 126.99 -2.34729)
(5.09378e-15 126.869 -2.38867)
(-2.03751e-14 126.869 -2.38867)
(5.25374e-15 126.73 -2.43043)
(0 126.73 -2.43043)
(0 126.573 -2.47252)
(-4.33323e-14 126.573 -2.47252)
(5.58222e-15 126.395 -2.5149)
(0 126.395 -2.5149)
(1.15016e-14 126.193 -2.5575)
(0 126.193 -2.5575)
(0 125.964 -2.60024)
(-3.42817e-14 125.964 -2.60024)
(-4.30141e-15 125.707 -2.64305)
(0 125.707 -2.64305)
(1.6482e-14 125.418 -2.68583)
(-3.53049e-14 125.418 -2.68583)
(0 125.095 -2.7285)
(-2.5819e-14 125.095 -2.7285)
(0 124.733 -2.77094)
(-2.65527e-14 124.733 -2.77094)
(6.82461e-15 124.33 -2.81303)
(0 124.33 -2.81303)
(9.47981e-15 123.882 -2.85466)
(-9.47981e-15 123.882 -2.85466)
(7.20641e-15 123.385 -2.8957)
(-9.30609e-15 123.385 -2.8957)
(7.40175e-15 122.838 -2.93599)
(-9.13556e-15 122.838 -2.93599)
(0 122.235 -2.97541)
(-3.04e-14 122.235 -2.97541)
(0 121.575 -3.01379)
(0 121.575 -3.01379)
(8.0051e-15 120.853 -3.05098)
(-3.20204e-14 120.853 -3.05098)
(0 120.068 -3.08684)
(-3.28473e-14 120.068 -3.08684)
(0 119.217 -3.12121)
(0 119.217 -3.12121)
(-1.68093e-14 118.297 -3.15393)
(7.72423e-14 118.297 -3.15393)
(0 117.308 -3.18488)
(0 117.308 -3.18488)
(9.06481e-15 116.248 -3.2139)
(-3.62592e-14 116.248 -3.2139)
(9.28408e-15 115.117 -3.24088)
(-3.71363e-14 115.117 -3.24088)
(3.0372e-14 113.915 -3.2657)
(-7.60441e-14 113.915 -3.2657)
(-9.72898e-15 112.642 -3.28827)
(0 112.642 -3.28827)
(0 111.301 -3.3085)
(0 111.301 -3.3085)
(0 109.892 -3.32632)
(4.07258e-14 109.892 -3.32632)
(3.69301e-15 108.419 -3.34171)
(-1.66562e-13 108.419 -3.34171)
(2.12804e-14 106.884 -3.35462)
(-4.25608e-14 106.884 -3.35462)
(-1.08715e-14 105.291 -3.36505)
(0 105.291 -3.36505)
(2.23802e-15 103.645 -3.37301)
(-5.77576e-14 103.645 -3.37301)
(3.5205e-15 101.95 -3.37854)
(-7.15437e-14 101.95 -3.37854)
(1.28625e-15 100.211 -3.38169)
(-1.05427e-13 100.211 -3.38169)
(2.36115e-14 98.4324 -3.38251)
(-4.7223e-14 98.4324 -3.38251)
(1.20406e-14 96.6203 -3.38108)
(4.81626e-14 96.6203 -3.38108)
(-2.4327e-14 94.7799 -3.3775)
(7.343e-14 94.7799 -3.3775)
(1.25109e-14 92.9166 -3.37187)
(-7.39248e-14 92.9166 -3.37187)
(-3.72136e-14 91.0357 -3.3643)
(5.09837e-14 91.0357 -3.3643)
(1.29807e-14 89.1425 -3.3549)
(-2.3014e-14 89.1425 -3.3549)
(-1.91886e-15 87.2422 -3.3438)
(0 87.2422 -3.3438)
(0 85.3395 -3.33111)
(-2.21783e-14 85.3395 -3.33111)
(-8.08998e-15 83.4392 -3.31697)
(7.64994e-14 83.4392 -3.31697)
(4.27458e-14 81.5455 -3.3015)
(-5.56568e-14 81.5455 -3.3015)
(2.09813e-14 79.6625 -3.28482)
(-2.09813e-14 79.6625 -3.28482)
(1.4376e-14 77.7938 -3.26705)
(5.7504e-14 77.7938 -3.26705)
(0 75.943 -3.24832)
(-2.02193e-14 75.943 -3.24832)
(0 74.1129 -3.22872)
(-1.18667e-13 74.1129 -3.22872)
(0 72.3063 -3.20838)
(0 72.3063 -3.20838)
(1.52858e-14 70.5256 -3.18739)
(-6.11432e-14 70.5256 -3.18739)
(3.42875e-14 68.7729 -3.16585)
(-1.87775e-14 68.7729 -3.16585)
(3.41661e-14 67.05 -3.14385)
(1.25862e-13 67.05 -3.14385)
(1.59539e-14 65.3583 -3.12146)
(0 65.3583 -3.12146)
(1.61737e-14 63.6993 -3.09878)
(-8.24588e-14 63.6993 -3.09878)
(-1.84852e-14 62.0737 -3.07588)
(6.55676e-14 62.0737 -3.07588)
(0 60.4826 -3.05281)
(0 60.4826 -3.05281)
(-1.68236e-14 58.9263 -3.02964)
(-6.72943e-14 58.9263 -3.02964)
(0 57.4054 -3.00643)
(-3.29947e-14 57.4054 -3.00643)
(0 55.9201 -2.98322)
(-1.6195e-14 55.9201 -2.98322)
(0 54.4704 -2.96006)
(0 54.4704 -2.96006)
(3.12139e-14 53.0564 -2.93699)
(-1.01885e-13 53.0564 -2.93699)
(-3.06419e-14 51.6779 -2.91406)
(0 51.6779 -2.91406)
(0 50.3345 -2.89128)
(0 50.3345 -2.89128)
(-1.12454e-14 49.026 -2.86869)
(0 49.026 -2.86869)
(-1.84859e-14 47.752 -2.84632)
(0 47.752 -2.84632)
(9.77034e-15 46.5118 -2.82418)
(-2.84568e-14 46.5118 -2.82418)
(-9.04988e-15 45.3051 -2.8023)
(0 45.3051 -2.8023)
(0 44.1312 -2.7807)
(0 44.1312 -2.7807)
(-3.85577e-14 42.9894 -2.75938)
(-1.54231e-13 42.9894 -2.75938)
(0 41.8791 -2.73836)
(0 41.8791 -2.73836)
(1.96661e-14 40.7996 -2.71765)
(0 40.7996 -2.71765)
(-2.54679e-14 39.7503 -2.69726)
(7.94301e-14 39.7503 -2.69726)
(2.50013e-14 38.7303 -2.6772)
(-1.05191e-13 38.7303 -2.6772)
(0 37.739 -2.65746)
(-8.09439e-14 37.739 -2.65746)
(-2.04231e-14 36.7757 -2.63806)
(-8.16923e-14 36.7757 -2.63806)
(0 35.8395 -2.61899)
(5.87832e-14 35.8395 -2.61899)
(2.07931e-14 34.9298 -2.60026)
(0 34.9298 -2.60026)
(4.19522e-14 34.0459 -2.58188)
(8.39043e-14 34.0459 -2.58188)
(-2.11577e-14 33.1869 -2.56382)
(8.4631e-14 33.1869 -2.56382)
(-2.19653e-14 32.3523 -2.54611)
(-2.19653e-14 32.3523 -2.54611)
(2.15172e-14 31.5414 -2.52873)
(-2.15628e-14 31.5414 -2.52873)
(2.1695e-14 30.7533 -2.51168)
(8.67801e-14 30.7533 -2.51168)
(2.18716e-14 29.9875 -2.49496)
(8.74865e-14 29.9875 -2.49496)
(2.2047e-14 29.2433 -2.47857)
(0 29.2433 -2.47857)
(2.00252e-14 28.5201 -2.4625)
(-8.88849e-14 28.5201 -2.4625)
(4.20525e-14 27.8171 -2.44675)
(-3.93164e-14 27.8171 -2.44675)
(3.53278e-14 27.1339 -2.43131)
(-3.8596e-14 27.1339 -2.43131)
(0 26.4697 -2.41618)
(0 26.4697 -2.41618)
(4.30952e-15 25.8241 -2.40136)
(0 25.8241 -2.40136)
(8.26636e-14 25.1964 -2.38683)
(0 25.1964 -2.38683)
(0 24.5861 -2.37259)
(3.58438e-14 24.5861 -2.37259)
(2.34095e-14 23.9926 -2.35865)
(2.22463e-13 23.9926 -2.35865)
(0 23.4155 -2.34498)
(0 23.4155 -2.34498)
(-5.76488e-14 22.8542 -2.33159)
(0 22.8542 -2.33159)
(-2.39033e-14 22.3082 -2.31847)
(0 22.3082 -2.31847)
(0 21.7771 -2.30561)
(3.26778e-14 21.7771 -2.30561)
(2.42277e-14 21.2603 -2.29301)
(0 21.2603 -2.29301)
(-3.14912e-14 20.7575 -2.28066)
(6.29823e-14 20.7575 -2.28066)
(4.90969e-14 20.2681 -2.26856)
(-9.81937e-14 20.2681 -2.26856)
(4.9415e-14 19.7919 -2.2567)
(-9.88299e-14 19.7919 -2.2567)
(4.9258e-15 19.3283 -2.24506)
(-2.98388e-13 19.3283 -2.24506)
(-2.50231e-14 18.8771 -2.23366)
(-5.84911e-14 18.8771 -2.23366)
(0 18.4377 -2.22248)
(7.20087e-14 18.4377 -2.22248)
(-2.81836e-14 18.0098 -2.21151)
(-2.81836e-14 18.0098 -2.21151)
(2.54903e-14 17.5931 -2.20074)
(0 17.5931 -2.20074)
(-2.56445e-14 17.1873 -2.19018)
(-1.29738e-13 17.1873 -2.19018)
(0 16.7919 -2.17982)
(0 16.7919 -2.17982)
(2.59505e-14 16.4067 -2.16964)
(1.03802e-13 16.4067 -2.16964)
(5.22049e-14 16.0314 -2.15965)
(-1.0441e-13 16.0314 -2.15965)
(0 15.6656 -2.14983)
(-1.30238e-13 15.6656 -2.14983)
(2.64042e-14 15.3091 -2.14019)
(0 15.3091 -2.14019)
(-2.43074e-14 14.9615 -2.13071)
(-1.06216e-13 14.9615 -2.13071)
(0 14.6227 -2.12138)
(-2.13625e-13 14.6227 -2.12138)
(-2.34247e-14 14.2923 -2.11221)
(-4.68495e-14 14.2923 -2.11221)
(5.39989e-14 13.9701 -2.10319)
(1.07998e-13 13.9701 -2.10319)
(2.71466e-14 13.6558 -2.0943)
(-4.51482e-14 13.6558 -2.0943)
(4.43209e-14 13.3492 -2.08554)
(1.09173e-13 13.3492 -2.08554)
(7.09478e-14 13.0501 -2.07691)
(-1.53265e-13 13.0501 -2.07691)
(0 12.7582 -2.0684)
(-1.53049e-13 12.7582 -2.0684)
(0 12.4733 -2.06001)
(4.19287e-14 12.4733 -2.06001)
(6.90336e-14 12.1953 -2.05172)
(-1.52653e-13 12.1953 -2.05172)
(5.60333e-14 11.9238 -2.04353)
(-1.12067e-13 11.9238 -2.04353)
(6.78253e-14 11.6588 -2.03543)
(7.29726e-14 11.6588 -2.03543)
(5.66039e-14 11.3999 -2.02742)
(7.42688e-14 11.3999 -2.02742)
(2.84437e-14 11.1471 -2.01949)
(0 11.1471 -2.01949)
(-2.85849e-14 10.9001 -2.01163)
(-3.75249e-14 10.9001 -2.01163)
(6.55628e-14 10.6589 -2.00384)
(-1.5174e-13 10.6589 -2.00384)
(2.88657e-14 10.4231 -1.9961)
(7.93007e-14 10.4231 -1.9961)
(5.80106e-14 10.1926 -1.98842)
(0 10.1926 -1.98842)
(0 9.96735 -1.98077)
(1.51426e-13 9.96735 -1.98077)
(-2.92828e-14 9.74711 -1.97317)
(-1.51342e-13 9.74711 -1.97317)
(5.88416e-14 9.53175 -1.96559)
(-1.51267e-13 9.53175 -1.96559)
(-2.95582e-14 9.32112 -1.95803)
(-2.69434e-13 9.32112 -1.95803)
(6.20591e-14 9.11508 -1.95048)
(-1.51145e-13 9.11508 -1.95048)
(-3.17709e-14 8.91349 -1.94293)
(8.75552e-14 8.91349 -1.94293)
(2.87461e-14 8.71622 -1.93538)
(1.1987e-13 8.71622 -1.93538)
(1.21954e-13 8.52314 -1.92781)
(-1.51028e-13 8.52314 -1.92781)
(-2.98748e-14 8.33412 -1.92022)
(0 8.33412 -1.92022)
(0 8.14904 -1.91259)
(-1.50993e-13 8.14904 -1.91259)
(0 7.96778 -1.90492)
(-1.22023e-13 7.96778 -1.90492)
(0 7.79023 -1.89719)
(-1.5099e-13 7.79023 -1.89719)
(0 7.61626 -1.8894)
(0 7.61626 -1.8894)
(5.83052e-14 7.44577 -1.88153)
(-2.74014e-14 7.44577 -1.88153)
(3.10355e-14 7.27866 -1.87358)
(1.24142e-13 7.27866 -1.87358)
(5.7573e-14 7.11481 -1.86552)
(-2.64064e-14 7.11481 -1.86552)
(0 6.95412 -1.85735)
(1.25189e-13 6.95412 -1.85735)
(0 6.7965 -1.84905)
(0 6.7965 -1.84905)
(0 6.64183 -1.84061)
(-1.26227e-13 6.64183 -1.84061)
(-4.90467e-14 6.49004 -1.83202)
(0 6.49004 -1.83202)
(-3.18139e-14 6.34101 -1.82326)
(0 6.34101 -1.82326)
(-3.19417e-14 6.19466 -1.81431)
(-1.27767e-13 6.19466 -1.81431)
(-3.20689e-14 6.05089 -1.80516)
(-1.28275e-13 6.05089 -1.80516)
(0 5.90963 -1.7958)
(0 5.90963 -1.7958)
(4.47146e-14 5.77076 -1.78619)
(-3.03285e-13 5.77076 -1.78619)
(0 5.63422 -1.77632)
(-1.29787e-13 5.63422 -1.77632)
(-4.30909e-14 5.49991 -1.76618)
(4.30909e-14 5.49991 -1.76618)
(4.23012e-14 5.36775 -1.75573)
(-1.73083e-13 5.36775 -1.75573)
(5.02335e-14 5.23765 -1.74496)
(-4.15261e-14 5.23765 -1.74496)
(6.58826e-14 5.10953 -1.73384)
(9.1e-14 5.10953 -1.73384)
(6.61264e-14 4.9833 -1.72235)
(0 4.9833 -1.72235)
(6.63687e-14 4.85888 -1.71045)
(-1.72022e-13 4.85888 -1.71045)
(7.18697e-14 4.73619 -1.69812)
(0 4.73619 -1.69812)
(-3.34244e-14 4.61514 -1.68533)
(-3.78582e-14 4.61514 -1.68533)
(0 4.49564 -1.67203)
(1.71337e-13 4.49564 -1.67203)
(-3.36611e-14 4.37762 -1.65821)
(9.81609e-14 4.37762 -1.65821)
(0 4.26099 -1.64381)
(-1.70927e-13 4.26099 -1.64381)
(0 4.14565 -1.62879)
(-1.35577e-13 4.14565 -1.62879)
(-6.85238e-14 4.03153 -1.61312)
(-1.36038e-13 4.03153 -1.61312)
(6.82474e-14 3.91852 -1.59673)
(-1.36495e-13 3.91852 -1.59673)
(3.42369e-14 3.80655 -1.57959)
(0 3.80655 -1.57959)
(-3.26515e-14 3.6955 -1.56163)
(1.37396e-13 3.6955 -1.56163)
(0 3.58529 -1.54279)
(0 3.58529 -1.54279)
(0 3.47581 -1.523)
(-1.69745e-13 3.47581 -1.523)
(0 3.36696 -1.5022)
(-3.08892e-14 3.36696 -1.5022)
(-2.58608e-14 3.25862 -1.4803)
(1.08819e-13 3.25862 -1.4803)
(3.48915e-14 3.15069 -1.45722)
(-2.79132e-13 3.15069 -1.45722)
(0 3.04303 -1.43287)
(0 3.04303 -1.43287)
(-2.22741e-14 2.93552 -1.40714)
(0 2.93552 -1.40714)
(3.52004e-14 2.82802 -1.37992)
(-1.40802e-13 2.82802 -1.37992)
(-9.05898e-14 2.72039 -1.3511)
(1.41201e-13 2.72039 -1.3511)
(1.65198e-14 2.61248 -1.32053)
(1.41593e-13 2.61248 -1.32053)
(1.77066e-14 2.50412 -1.28806)
(0 2.50412 -1.28806)
(-1.67171e-14 2.39514 -1.25354)
(0 2.39514 -1.25354)
(3.56805e-14 2.28534 -1.21679)
(-5.13471e-14 2.28534 -1.21679)
(-1.46357e-14 2.17454 -1.17762)
(-1.93488e-13 2.17454 -1.17762)
(3.58579e-14 2.06252 -1.1358)
(1.43432e-13 2.06252 -1.1358)
(0 1.94905 -1.09112)
(-1.43772e-13 1.94905 -1.09112)
(3.60253e-14 1.83391 -1.04331)
(-1.44101e-13 1.83391 -1.04331)
(8.29165e-14 1.71683 -0.992101)
(0 1.71683 -0.992101)
(4.59539e-14 1.59756 -0.937207)
(1.44725e-13 1.59756 -0.937207)
(0 1.47585 -0.878315)
(-2.90036e-13 1.47585 -0.878315)
(0 1.35142 -0.815099)
(-1.45297e-13 1.35142 -0.815099)
(3.63901e-14 1.22403 -0.747225)
(-1.45561e-13 1.22403 -0.747225)
(3.64521e-14 1.09343 -0.674355)
(1.45808e-13 1.09343 -0.674355)
(3.65097e-14 0.959416 -0.596154)
(-2.92078e-13 0.959416 -0.596154)
(1.14253e-13 0.821816 -0.512308)
(-1.87378e-13 0.821816 -0.512308)
(0 0.680517 -0.422528)
(0 0.680517 -0.422528)
(-3.66534e-14 0.535474 -0.326569)
(1.0698e-13 0.535474 -0.326569)
(3.89075e-14 0.386722 -0.224238)
(-1.85669e-13 0.386722 -0.224238)
(-3.67209e-14 0.234385 -0.115405)
(1.46884e-13 0.234385 -0.115405)
(3.67449e-14 1.80556e-06 -6.68288e-07)
(1.8471e-13 7.76892e-07 -2.87549e-07)
(3.68039e-14 -1.74984e-06 6.47663e-07)
(1.4698e-13 -1.12069e-06 4.14799e-07)
(-3.81946e-14 -0.234384 0.115404)
(2.55573e-13 -0.234384 0.115404)
(-3.66903e-14 -0.386721 0.224238)
(0 -0.386721 0.224238)
(3.96338e-14 -0.535473 0.326569)
(1.0698e-13 -0.535473 0.326569)
(0 -0.680516 0.422528)
(2.92886e-13 -0.680516 0.422528)
(-3.65627e-14 -0.821815 0.512308)
(-1.46251e-13 -0.821815 0.512308)
(0 -0.959415 0.596154)
(0 -0.959415 0.596154)
(-3.64521e-14 -1.09343 0.674354)
(-1.45808e-13 -1.09343 0.674354)
(0 -1.22403 0.747225)
(0 -1.22403 0.747225)
(3.63242e-14 -1.35142 0.815099)
(0 -1.35142 0.815099)
(0 -1.47585 0.878314)
(1.45018e-13 -1.47585 0.878314)
(4.59539e-14 -1.59756 0.937206)
(1.44725e-13 -1.59756 0.937206)
(0 -1.71683 0.9921)
(0 -1.71683 0.9921)
(-3.60253e-14 -1.83391 1.04331)
(-1.44101e-13 -1.83391 1.04331)
(7.18859e-14 -1.94905 1.09112)
(0 -1.94905 1.09112)
(-4.94825e-14 -2.06252 1.1358)
(4.94825e-14 -2.06252 1.1358)
(7.15408e-14 -2.17454 1.17762)
(1.43082e-13 -2.17454 1.17762)
(-3.56805e-14 -2.28534 1.21679)