/*--------------------------------*- C++ -*----------------------------------*\
| =========                 |                                                 |
| \\      /  F ield         | OpenFOAM: The Open Source CFD Toolbox           |
|  \\    /   O peration     | Version:  2106                                  |
|   \\  /    A nd           | Website:  www.openfoam.com                      |
|    \\/     M anipulation  |                                                 |
\*---------------------------------------------------------------------------*/
FoamFile
{
    version     2.0;
    format      ascii;
    arch        "LSB;label=32;scalar=64";
    class       volScalarField;
    location    "10080";
    object      p;
}
// * * * * * * * * * * * * * * * * * * * * * * * * * * * * * * * * * * * * * //

dimensions      [0 2 -2 0 0 0 0];

internalField   nonuniform List<scalar> 
2000
(
2.20734e-15
-1.73452e-14
5.16797e-15
-1.73456e-14
5.25776e-15
-1.73464e-14
4.43724e-15
-1.73477e-14
3.71497e-15
-1.73497e-14
3.11342e-15
-1.73522e-14
2.5171e-15
-1.73553e-14
1.91447e-15
-1.7359e-14
1.32063e-15
-1.73633e-14
7.40229e-16
-1.7368e-14
1.72647e-16
-1.73734e-14
-3.82954e-16
-1.73794e-14
-9.27124e-16
-1.7386e-14
-1.4601e-15
-1.73931e-14
-1.98223e-15
-1.74007e-14
-2.49376e-15
-1.7409e-14
-2.99459e-15
-1.74178e-14
-3.48512e-15
-1.74272e-14
-3.96547e-15
-1.7437e-14
-4.43598e-15
-1.74474e-14
-4.89671e-15
-1.74583e-14
-5.34784e-15
-1.74695e-14
-5.78963e-15
-1.74813e-14
-6.22184e-15
-1.74936e-14
-6.645e-15
-1.75066e-14
-7.05917e-15
-1.75201e-14
-7.46444e-15
-1.75341e-14
-7.8608e-15
-1.75487e-14
-8.24858e-15
-1.75637e-14
-8.62793e-15
-1.75795e-14
-8.99957e-15
-1.75956e-14
-9.36293e-15
-1.76123e-14
-9.71831e-15
-1.76294e-14
-1.0066e-14
-1.7647e-14
-1.04059e-14
-1.76653e-14
-1.0738e-14
-1.76841e-14
-1.10627e-14
-1.77035e-14
-1.13801e-14
-1.77233e-14
-1.16898e-14
-1.77438e-14
-1.19925e-14
-1.7765e-14
-1.22882e-14
-1.77865e-14
-1.25775e-14
-1.78082e-14
-1.28599e-14
-1.78302e-14
-1.31354e-14
-1.7853e-14
-1.34048e-14
-1.78761e-14
-1.36682e-14
-1.78994e-14
-1.39256e-14
-1.79232e-14
-1.41769e-14
-1.79472e-14
-1.44228e-14
-1.79707e-14
-1.46627e-14
-1.79945e-14
-1.48975e-14
-1.80189e-14
-1.51266e-14
-1.80438e-14
-1.5351e-14
-1.8069e-14
-1.55701e-14
-1.80943e-14
-1.57839e-14
-1.81199e-14
-1.59935e-14
-1.81464e-14
-1.61982e-14
-1.81727e-14
-1.63981e-14
-1.81989e-14
-1.65934e-14
-1.82254e-14
-1.67843e-14
-1.82528e-14
-1.69703e-14
-1.82814e-14
-1.7152e-14
-1.83114e-14
-1.73306e-14
-1.83406e-14
-1.75057e-14
-1.83695e-14
-1.76765e-14
-1.83986e-14
-1.78443e-14
-1.84287e-14
-1.80084e-14
-1.84592e-14
-1.81695e-14
-1.84905e-14
-1.83274e-14
-1.85226e-14
-1.84818e-14
-1.85553e-14
-1.86341e-14
-1.85876e-14
-1.87843e-14
-1.86195e-14
-1.89314e-14
-1.86515e-14
-1.90768e-14
-1.86843e-14
-1.92194e-14
-1.87184e-14
-1.93607e-14
-1.87521e-14
-1.95003e-14
-1.87857e-14
-1.96372e-14
-1.88199e-14
-1.97751e-14
-1.88537e-14
-1.99091e-14
-1.88892e-14
-2.00408e-14
-1.89256e-14
-2.01716e-14
-1.89622e-14
-2.03004e-14
-1.89989e-14
-2.04281e-14
-1.90381e-14
-2.05548e-14
-1.90786e-14
-2.06787e-14
-1.91189e-14
-2.08019e-14
-1.9159e-14
-2.09247e-14
-1.92013e-14
-2.10464e-14
-1.92431e-14
-2.11679e-14
-1.92837e-14
-2.12888e-14
-1.9325e-14
-2.14098e-14
-1.9366e-14
-2.15305e-14
-1.94068e-14
-2.1653e-14
-1.94512e-14
-2.17728e-14
-1.94963e-14
-2.18907e-14
-1.95428e-14
-2.20083e-14
-1.95891e-14
-2.21243e-14
-1.96384e-14
-2.22389e-14
-1.96901e-14
-2.23522e-14
-1.97447e-14
-2.24643e-14
-1.97992e-14
-2.2577e-14
-1.98533e-14
-2.26889e-14
-1.99084e-14
-2.28031e-14
-1.99672e-14
-2.29198e-14
-2.00237e-14
-2.30365e-14
-2.00819e-14
-2.31547e-14
-2.01389e-14
-2.32748e-14
-2.01956e-14
-2.33986e-14
-2.02536e-14
-2.3514e-14
-2.03139e-14
-2.36336e-14
-2.0378e-14
-2.37516e-14
-2.0444e-14
-2.38697e-14
-2.05101e-14
-2.39835e-14
-2.05792e-14
-2.40948e-14
-2.06526e-14
-2.42054e-14
-2.07302e-14
-2.43175e-14
-2.08034e-14
-2.44262e-14
-2.08785e-14
-2.4537e-14
-2.09602e-14
-2.46417e-14
-2.10449e-14
-2.47509e-14
-2.11239e-14
-2.48582e-14
-2.12e-14
-2.49638e-14
-2.12832e-14
-2.50701e-14
-2.13611e-14
-2.51774e-14
-2.14437e-14
-2.52862e-14
-2.15235e-14
-2.53934e-14
-2.16037e-14
-2.54996e-14
-2.16838e-14
-2.56126e-14
-2.17633e-14
-2.57184e-14
-2.18454e-14
-2.5825e-14
-2.19222e-14
-2.59218e-14
-2.20005e-14
-2.60243e-14
-2.20835e-14
-2.61146e-14
-2.21709e-14
-2.6208e-14
-2.22545e-14
-2.62941e-14
-2.23377e-14
-2.63734e-14
-2.24313e-14
-2.64503e-14
-2.25235e-14
-2.65216e-14
-2.26252e-14
-2.65917e-14
-2.27363e-14
-2.66649e-14
-2.28602e-14
-2.6738e-14
-2.29813e-14
-2.67998e-14
-2.30992e-14
-2.68625e-14
-2.32293e-14
-2.69267e-14
-2.33637e-14
-2.69968e-14
-2.34903e-14
-2.70614e-14
-2.36169e-14
-2.7129e-14
-2.37432e-14
-2.71963e-14
-2.38731e-14
-2.72599e-14
-2.40065e-14
-2.73405e-14
-2.41474e-14
-2.74185e-14
-2.42876e-14
-2.75112e-14
-2.44185e-14
-2.75534e-14
-2.45646e-14
-2.75948e-14
-2.47098e-14
-2.76436e-14
-2.48461e-14
-2.76919e-14
-2.49819e-14
-2.77401e-14
-2.5109e-14
-2.778e-14
-2.5261e-14
-2.78202e-14
-2.53968e-14
-2.78524e-14
-2.55252e-14
-2.78768e-14
-2.56551e-14
-2.79102e-14
-2.57871e-14
-2.79442e-14
-2.59048e-14
-2.79789e-14
-2.60086e-14
-2.80146e-14
-2.6141e-14
-2.80426e-14
-2.6269e-14
-2.80629e-14
-2.63851e-14
-2.80922e-14
-2.64733e-14
-2.81223e-14
-2.65676e-14
-2.81534e-14
-2.66774e-14
-2.81769e-14
-2.67948e-14
-2.82181e-14
-2.69212e-14
-2.82254e-14
-2.70319e-14
-2.82579e-14
-2.71287e-14
-2.82811e-14
-2.72468e-14
-2.83457e-14
-2.7362e-14
-2.83919e-14
-2.74751e-14
-2.84364e-14
-2.75701e-14
-2.84706e-14
-2.76563e-14
-2.84773e-14
-2.77604e-14
-2.85321e-14
-2.78935e-14
-2.86167e-14
-2.80231e-14
-2.86798e-14
-2.81505e-14
-2.87039e-14
-2.82945e-14
-2.87549e-14
-2.83902e-14
-2.87974e-14
-2.84393e-14
-2.88489e-14
-2.85279e-14
-2.89089e-14
-2.86231e-14
-2.89597e-14
-2.87603e-14
-2.9016e-14
-2.88748e-14
-2.90759e-14
-2.89857e-14
-2.91548e-14
-2.90446e-14
-2.92202e-14
-2.91184e-14
-2.92892e-14
-2.92244e-14
-2.93442e-14
-2.92632e-14
-2.94196e-14
-2.92684e-14
-2.9468e-14
-2.93548e-14
-2.95058e-14
-2.93892e-14
-2.9533e-14
-2.94553e-14
-2.95813e-14
-2.95713e-14
-2.96647e-14
-2.95914e-14
-2.97201e-14
-2.96284e-14
-2.97654e-14
-2.96815e-14
-2.98177e-14
-2.97675e-14
-2.99091e-14
-2.9756e-14
-2.99476e-14
-2.98548e-14
-3.00112e-14
-2.99693e-14
-3.00986e-14
-2.99735e-14
-3.01507e-14
-3.00248e-14
-3.02168e-14
-3.00758e-14
-3.03147e-14
-3.00938e-14
-3.03565e-14
-3.01521e-14
-3.03741e-14
-3.02175e-14
-3.03945e-14
-3.02959e-14
-3.04446e-14
-3.03636e-14
-3.04616e-14
-3.03295e-14
-3.04846e-14
-3.03433e-14
-3.05137e-14
-3.04627e-14
-3.06032e-14
-3.05393e-14
-3.06045e-14
-3.0573e-14
-3.06354e-14
-3.07216e-14
-3.07138e-14
-3.07598e-14
-3.07847e-14
-3.07739e-14
-3.08272e-14
-3.07268e-14
-3.08787e-14
-3.08172e-14
-3.09632e-14
-3.0903e-14
-3.09997e-14
-3.09555e-14
-3.10731e-14
-3.1007e-14
-3.11003e-14
-3.10821e-14
-3.11306e-14
-3.10996e-14
-3.1166e-14
-3.11152e-14
-3.12095e-14
-3.11843e-14
-3.12859e-14
-3.12553e-14
-3.12865e-14
-3.12731e-14
-3.13192e-14
-3.13154e-14
-3.13797e-14
-3.13861e-14
-3.14384e-14
-3.1433e-14
-3.1521e-14
-3.14746e-14
-3.1554e-14
-3.15296e-14
-3.1591e-14
-3.16069e-14
-3.16483e-14
-3.16372e-14
-3.15941e-14
-3.15867e-14
-3.1631e-14
-3.15535e-14
-3.16685e-14
-3.15993e-14
-3.16802e-14
-3.16477e-14
-3.17567e-14
-3.17052e-14
-3.17603e-14
-3.1721e-14
-3.17881e-14
-3.17489e-14
-3.17873e-14
-3.18338e-14
-2.23451e-14
-2.29707e-14
-2.23452e-14
-2.29707e-14
-2.23456e-14
-2.29708e-14
-2.23463e-14
-2.29709e-14
-2.23472e-14
-2.2971e-14
-2.23485e-14
-2.29712e-14
-2.235e-14
-2.29714e-14
-2.23518e-14
-2.29718e-14
-2.23539e-14
-2.29722e-14
-2.23563e-14
-2.29726e-14
-2.23589e-14
-2.29731e-14
-2.23619e-14
-2.29736e-14
-2.23651e-14
-2.29742e-14
-2.23686e-14
-2.29748e-14
-2.23722e-14
-2.29756e-14
-2.23762e-14
-2.29764e-14
-2.23806e-14
-2.29773e-14
-2.23851e-14
-2.29784e-14
-2.23899e-14
-2.29793e-14
-2.23949e-14
-2.29802e-14
-2.24001e-14
-2.29813e-14
-2.24056e-14
-2.29823e-14
-2.24113e-14
-2.29834e-14
-2.24172e-14
-2.29845e-14
-2.24234e-14
-2.29857e-14
-2.24298e-14
-2.29869e-14
-2.24365e-14
-2.29882e-14
-2.24434e-14
-2.29899e-14
-2.24505e-14
-2.29917e-14
-2.24578e-14
-2.29934e-14
-2.24654e-14
-2.29952e-14
-2.24731e-14
-2.29972e-14
-2.24811e-14
-2.29994e-14
-2.24894e-14
-2.30016e-14
-2.24979e-14
-2.30042e-14
-2.25065e-14
-2.30067e-14
-2.25152e-14
-2.30092e-14
-2.25244e-14
-2.30117e-14
-2.25338e-14
-2.30143e-14
-2.25433e-14
-2.30174e-14
-2.25531e-14
-2.30205e-14
-2.25632e-14
-2.30233e-14
-2.25735e-14
-2.30265e-14
-2.25843e-14
-2.30297e-14
-2.25954e-14
-2.3033e-14
-2.26067e-14
-2.30363e-14
-2.26181e-14
-2.30402e-14
-2.26299e-14
-2.30446e-14
-2.26419e-14
-2.30482e-14
-2.26541e-14
-2.30518e-14
-2.26664e-14
-2.30565e-14
-2.26789e-14
-2.30614e-14
-2.26916e-14
-2.30663e-14
-2.27045e-14
-2.30716e-14
-2.27175e-14
-2.3077e-14
-2.27306e-14
-2.30821e-14
-2.27439e-14
-2.30874e-14
-2.27578e-14
-2.30925e-14
-2.27718e-14
-2.30978e-14
-2.2786e-14
-2.31034e-14
-2.28002e-14
-2.31094e-14
-2.28155e-14
-2.31145e-14
-2.28312e-14
-2.31203e-14
-2.28463e-14
-2.3126e-14
-2.28618e-14
-2.31323e-14
-2.28778e-14
-2.3139e-14
-2.28947e-14
-2.31454e-14
-2.29121e-14
-2.31521e-14
-2.29297e-14
-2.31603e-14
-2.29471e-14
-2.31683e-14
-2.29653e-14
-2.31747e-14
-2.29842e-14
-2.31804e-14
-2.3003e-14
-2.31873e-14
-2.3022e-14
-2.31951e-14
-2.30407e-14
-2.32038e-14
-2.306e-14
-2.32135e-14
-2.30794e-14
-2.32216e-14
-2.31004e-14
-2.32289e-14
-2.31196e-14
-2.32404e-14
-2.31388e-14
-2.32531e-14
-2.31582e-14
-2.32643e-14
-2.31776e-14
-2.32749e-14
-2.31973e-14
-2.32873e-14
-2.32164e-14
-2.3303e-14
-2.32358e-14
-2.33193e-14
-2.32546e-14
-2.33339e-14
-2.32724e-14
-2.33485e-14
-2.3291e-14
-2.33647e-14
-2.33125e-14
-2.33812e-14
-2.33341e-14
-2.33979e-14
-2.33546e-14
-2.3415e-14
-2.33781e-14
-2.34325e-14
-2.3401e-14
-2.34498e-14
-2.34195e-14
-2.34702e-14
-2.34416e-14
-2.34926e-14
-2.34638e-14
-2.35128e-14
-2.34855e-14
-2.35345e-14
-2.35074e-14
-2.35589e-14
-2.35315e-14
-2.35828e-14
-2.3555e-14
-2.36117e-14
-2.35793e-14
-2.36402e-14
-2.36001e-14
-2.36654e-14
-2.36216e-14
-2.36887e-14
-2.36422e-14
-2.37205e-14
-2.36695e-14
-2.37476e-14
-2.36913e-14
-2.37759e-14
-2.37167e-14
-2.38041e-14
-2.37427e-14
-2.38337e-14
-2.37721e-14
-2.38618e-14
-2.37973e-14
-2.38913e-14
-2.38166e-14
-2.39241e-14
-2.38423e-14
-2.39571e-14
-2.38665e-14
-2.39887e-14
-2.38972e-14
-2.40158e-14
-2.39262e-14
-2.40432e-14
-2.39551e-14
-2.40709e-14
-2.39921e-14
-2.40941e-14
-2.40271e-14
-2.41194e-14
-2.40602e-14
-2.41501e-14
-2.40911e-14
-2.41848e-14
-2.41198e-14
-2.42149e-14
-2.41546e-14
-2.42371e-14
-2.41887e-14
-2.42633e-14
-2.42183e-14
-2.43007e-14
-2.42539e-14
-2.43318e-14
-2.42954e-14
-2.43637e-14
-2.43285e-14
-2.43929e-14
-2.43601e-14
-2.44158e-14
-2.43936e-14
-2.44359e-14
-2.44327e-14
-2.44568e-14
-2.44698e-14
-2.44821e-14
-2.45012e-14
-2.45009e-14
-2.4534e-14
-2.45131e-14
-2.45756e-14
-2.45259e-14
-2.4611e-14
-2.45467e-14
-2.46437e-14
-2.45758e-14
-2.46774e-14
-2.46054e-14
-2.47156e-14
-2.46357e-14
-2.47661e-14
-2.46627e-14
-2.48094e-14
-2.46978e-14
-2.48455e-14
-2.47372e-14
-2.48739e-14
-2.47691e-14
-2.49022e-14
-2.47973e-14
-2.49499e-14
-2.48335e-14
-2.50012e-14
-2.48617e-14
-2.50441e-14
-2.48975e-14
-2.50944e-14
-2.49326e-14
-2.51278e-14
-2.49669e-14
-2.51681e-14
-2.49961e-14
-2.52153e-14
-2.5032e-14
-2.52448e-14
-2.50948e-14
-2.52926e-14
-2.51601e-14
-2.53419e-14
-2.52032e-14
-2.54172e-14
-2.52401e-14
-2.54774e-14
-2.52867e-14
-2.55391e-14
-2.53591e-14
-2.56101e-14
-2.54157e-14
-2.56656e-14
-2.54477e-14
-2.57137e-14
-2.54961e-14
-2.57542e-14
-2.5552e-14
-2.57951e-14
-2.55984e-14
-2.58445e-14
-2.56433e-14
-2.58937e-14
-2.57283e-14
-2.59592e-14
-2.58114e-14
-2.60237e-14
-2.58669e-14
-2.60785e-14
-2.59284e-14
-2.6132e-14
-2.59528e-14
-2.61756e-14
-2.6007e-14
-2.62261e-14
-2.60822e-14
-2.6283e-14
-2.61187e-14
-2.63463e-14
-2.61753e-14
-2.63989e-14
-2.62429e-14
-2.64402e-14
-2.63039e-14
-2.65126e-14
-2.63493e-14
-2.65907e-14
-2.6395e-14
-2.66493e-14
-2.6474e-14
-2.67224e-14
-2.65603e-14
-2.68007e-14
-2.66449e-14
-2.68668e-14
-2.67271e-14
-2.69373e-14
-2.6781e-14
-2.70124e-14
-2.68399e-14
-2.71099e-14
-2.69196e-14
-2.71958e-14
-2.70186e-14
-2.72522e-14
-2.71363e-14
-2.73459e-14
-2.72219e-14
-2.74771e-14
-2.72739e-14
-2.75457e-14
-2.73235e-14
-2.76376e-14
-2.74036e-14
-2.77363e-14
-2.74958e-14
-2.7842e-14
-2.75819e-14
-2.79558e-14
-2.77107e-14
-2.80605e-14
-2.77968e-14
-2.81403e-14
-2.79233e-14
-2.82273e-14
-2.80236e-14
-2.8304e-14
-2.81148e-14
-2.84035e-14
-2.81792e-14
-2.84936e-14
-2.82488e-14
-2.85415e-14
-2.83564e-14
-2.86285e-14
-2.84364e-14
-2.8705e-14
-2.85219e-14
-2.87714e-14
-2.86127e-14
-2.886e-14
-2.8708e-14
-2.89366e-14
-2.87756e-14
-2.89854e-14
-2.88478e-14
-2.9038e-14
-2.89746e-14
-2.91228e-14
-2.90114e-14
-2.9225e-14
-2.90877e-14
-2.92654e-14
-2.91836e-14
-2.93539e-14
-2.92356e-14
-2.94268e-14
-2.9258e-14
-2.95035e-14
-2.93106e-14
-2.95532e-14
-2.94063e-14
-2.96191e-14
-2.95327e-14
-2.97289e-14
-2.95353e-14
-2.97972e-14
-2.95311e-14
-2.9831e-14
-2.95731e-14
-2.9798e-14
-2.96586e-14
-2.98749e-14
-2.9768e-14
-2.99348e-14
-2.99061e-14
-2.99407e-14
-2.99859e-14
-3.0036e-14
-3.00135e-14
-3.01063e-14
-3.00128e-14
-3.01596e-14
-3.0121e-14
-3.01886e-14
-3.01925e-14
-3.03064e-14
-3.02035e-14
-3.04064e-14
-3.02348e-14
-3.03795e-14
-3.03329e-14
-3.04719e-14
-3.03917e-14
-3.05415e-14
-3.04943e-14
-3.06415e-14
-3.05872e-14
-3.0689e-14
-3.06402e-14
-3.07417e-14
-3.06552e-14
-3.08049e-14
-3.07112e-14
-3.08518e-14
-3.07755e-14
-3.09053e-14
-3.09321e-14
-3.098e-14
-3.09534e-14
-3.10587e-14
-3.10238e-14
-3.11705e-14
-3.11671e-14
-3.12587e-14
-3.1231e-14
-3.12732e-14
-3.12401e-14
-3.1348e-14
-3.12961e-14
-3.1462e-14
-3.13645e-14
-3.14965e-14
-3.14115e-14
-3.15385e-14
-3.13954e-14
-3.15753e-14
-3.14353e-14
-3.16331e-14
-3.15023e-14
-3.16126e-14
-3.15211e-14
-3.16484e-14
-3.15462e-14
-3.16957e-14
-3.16254e-14
-3.17493e-14
-3.17715e-14
-3.18299e-14
-3.1838e-14
-3.18246e-14
-3.18037e-14
-3.18743e-14
-3.18173e-14
-3.19424e-14
-3.19224e-14
-3.19736e-14
-3.19822e-14
-3.20075e-14
-3.19492e-14
-3.2035e-14
-3.19643e-14
-3.20778e-14
-3.20088e-14
-3.21304e-14
-3.2084e-14
-3.21939e-14
-3.2185e-14
-3.22624e-14
-3.22671e-14
-3.23342e-14
-3.2329e-14
-3.23903e-14
-3.23439e-14
-3.2461e-14
-3.23552e-14
-3.25261e-14
-3.2433e-14
-3.25787e-14
-3.25831e-14
-3.26876e-14
-3.2572e-14
-3.27338e-14
-3.26012e-14
-3.27716e-14
-3.27264e-14
-3.28167e-14
-3.27859e-14
-3.28641e-14
-3.28324e-14
-3.29428e-14
-3.28962e-14
-3.29981e-14
-3.29517e-14
-3.30298e-14
-3.29718e-14
-3.30969e-14
-3.30146e-14
-3.31444e-14
-3.30201e-14
-3.31761e-14
-3.30713e-14
-3.32198e-14
-3.31416e-14
-3.32714e-14
-3.32343e-14
-3.32964e-14
-3.32929e-14
-3.32917e-14
-3.33204e-14
-3.33461e-14
-3.32909e-14
-3.34059e-14
-3.32847e-14
-3.3447e-14
-3.33226e-14
-3.3409e-14
-3.33737e-14
-3.34069e-14
-3.33841e-14
-3.34057e-14
-3.33574e-14
-3.34089e-14
-3.33874e-14
-3.34127e-14
-3.33488e-14
-3.34197e-14
-3.33019e-14
-3.34177e-14
-3.334e-14
-3.33882e-14
-3.33523e-14
-3.33441e-14
-3.33091e-14
-3.33344e-14
-3.33099e-14
-3.33264e-14
-3.32917e-14
-3.32878e-14
-3.32859e-14
-3.32497e-14
-3.3246e-14
-3.32614e-14
-3.32241e-14
-3.32266e-14
-3.32354e-14
-3.3193e-14
-3.32163e-14
-3.31776e-14
-3.31852e-14
-3.31812e-14
-3.31575e-14
-3.31716e-14
-3.31485e-14
-3.3148e-14
-3.31583e-14
-3.31415e-14
-3.31886e-14
-3.3134e-14
-3.3157e-14
-3.31093e-14
-3.30451e-14
-3.31202e-14
-3.30009e-14
-3.31182e-14
-3.3005e-14
-3.31199e-14
-3.30231e-14
-3.31082e-14
-3.30049e-14
-3.31001e-14
-3.2967e-14
-3.30791e-14
-3.29424e-14
-3.30621e-14
-3.29307e-14
-3.30321e-14
-3.29321e-14
-3.30221e-14
-3.28962e-14
-3.30156e-14
-3.28738e-14
-3.29958e-14
-3.28651e-14
-3.29621e-14
-3.28705e-14
-3.29303e-14
-3.28912e-14
-3.29506e-14
-3.29115e-14
-3.29631e-14
-3.29054e-14
-3.29341e-14
-3.28726e-14
-3.29147e-14
-3.28642e-14
-3.29132e-14
-3.28722e-14
-3.29037e-14
-3.28797e-14
-3.28945e-14
-3.28529e-14
-3.28772e-14
-3.28512e-14
-3.28687e-14
-3.28833e-14
-3.28598e-14
-3.28729e-14
-3.28591e-14
-3.28374e-14
-3.28501e-14
-3.28105e-14
-3.28416e-14
-3.28004e-14
-3.28421e-14
-3.27984e-14
-3.28177e-14
-3.28127e-14
-3.28188e-14
-3.281e-14
-3.2803e-14
-3.28157e-14
-3.27954e-14
-3.28133e-14
-3.28045e-14
-3.28114e-14
-3.27966e-14
-3.28016e-14
-3.28053e-14
-3.27837e-14
-3.28143e-14
-3.27576e-14
-3.28154e-14
-3.27561e-14
-3.28172e-14
-3.27626e-14
-3.28114e-14
-3.27686e-14
-3.28061e-14
-3.27661e-14
-3.28096e-14
-3.27716e-14
-3.2797e-14
-3.27769e-14
-3.27929e-14
-3.27822e-14
-3.27973e-14
-3.27875e-14
-3.28017e-14
-3.27928e-14
-3.28022e-14
-3.27941e-14
-3.28028e-14
-3.27873e-14
-3.27994e-14
-3.27887e-14
-3.28041e-14
-3.2778e-14
-3.28009e-14
-3.27713e-14
-3.28057e-14
-3.27764e-14
-3.28107e-14
-3.27815e-14
-3.28158e-14
-3.27747e-14
-3.28211e-14
-3.27677e-14
-3.28267e-14
-3.27567e-14
-3.28287e-14
-3.27454e-14
-3.28349e-14
-3.27376e-14
-3.28492e-14
-3.27295e-14
-3.28525e-14
-3.27323e-14
-3.2864e-14
-3.27422e-14
-3.28684e-14
-3.2744e-14
-3.28695e-14
-3.27528e-14
-3.28749e-14
-3.27538e-14
-3.28807e-14
-3.27469e-14
-3.28907e-14
-3.27471e-14
-3.28975e-14
-3.27504e-14
-3.29048e-14
-3.27497e-14
-3.29054e-14
-3.27413e-14
-3.2903e-14
-3.27325e-14
-3.29048e-14
-3.27305e-14
-3.29071e-14
-3.2735e-14
-3.28994e-14
-3.27321e-14
-3.28923e-14
-3.27218e-14
-3.28942e-14
-3.27147e-14
-3.28933e-14
-3.27157e-14
-3.28944e-14
-3.27146e-14
-3.28877e-14
-3.27132e-14
-3.2883e-14
-3.27146e-14
-3.28837e-14
-3.2719e-14
-3.28847e-14
-3.27198e-14
-3.28861e-14
-3.27154e-14
-3.28894e-14
-3.27107e-14
-3.28882e-14
-3.27105e-14
-3.28904e-14
-3.27131e-14
-3.2893e-14
-3.27154e-14
-3.28958e-14
-3.27142e-14
-3.28943e-14
-3.27159e-14
-3.2893e-14
-3.27173e-14
-3.28951e-14
-3.27184e-14
-3.28944e-14
-3.27207e-14
-3.2891e-14
-3.27227e-14
-3.28893e-14
-3.27245e-14
-3.28907e-14
-3.27275e-14
-3.28894e-14
-3.27275e-14
-3.2884e-14
-3.27286e-14
-3.28846e-14
-3.27338e-14
-3.28838e-14
-3.27388e-14
-3.28805e-14
-3.27429e-14
-3.28779e-14
-3.27469e-14
-3.28749e-14
-3.27466e-14
-3.2874e-14
-3.27455e-14
-3.28725e-14
-3.27484e-14
-3.28705e-14
-3.27504e-14
-3.28692e-14
-3.27504e-14
-3.28687e-14
-3.27496e-14
-3.28677e-14
-3.27494e-14
-3.28673e-14
-3.27491e-14
-3.28658e-14
-3.275e-14
-3.28643e-14
-3.27501e-14
-3.28629e-14
-3.27502e-14
-3.28616e-14
-3.27522e-14
-3.28609e-14
-3.27534e-14
-3.28597e-14
-3.27533e-14
-3.28573e-14
-3.27532e-14
-3.28555e-14
-3.27536e-14
-3.28551e-14
-3.27546e-14
-3.28541e-14
-3.27555e-14
-3.28531e-14
-3.27558e-14
-3.28525e-14
-3.27544e-14
-3.2852e-14
-3.27532e-14
-3.28514e-14
-3.2753e-14
-3.28512e-14
-3.27537e-14
-3.28517e-14
-3.27541e-14
-3.2851e-14
-3.2755e-14
-3.28502e-14
-3.27553e-14
-3.28498e-14
-3.27559e-14
-3.28495e-14
-3.27574e-14
-3.28488e-14
-3.27576e-14
-3.28484e-14
-3.2757e-14
-3.28485e-14
-3.27575e-14
-3.28482e-14
-3.27583e-14
-3.28483e-14
-3.2758e-14
-3.28484e-14
-3.27576e-14
-3.28482e-14
-3.27587e-14
-3.28482e-14
-3.27598e-14
-3.28488e-14
-3.27599e-14
-3.28488e-14
-3.27598e-14
-3.28486e-14
-3.27599e-14
-3.28487e-14
-3.276e-14
-3.28492e-14
-3.27598e-14
-3.28497e-14
-3.27598e-14
-3.28498e-14
-3.27598e-14
-3.28501e-14
-3.27602e-14
-3.28501e-14
-3.276e-14
-3.285e-14
-3.27599e-14
-3.28502e-14
-3.27607e-14
-3.28506e-14
-3.27609e-14
-3.2851e-14
-3.276e-14
-3.28513e-14
-3.27595e-14
-3.28519e-14
-3.27595e-14
-3.28526e-14
-3.27594e-14
-3.28533e-14
-3.27592e-14
-3.28538e-14
-3.27589e-14
-3.28542e-14
-3.27588e-14
-3.28547e-14
-3.27591e-14
-3.2855e-14
-3.2759e-14
-3.28551e-14
-3.27586e-14
-3.28549e-14
-3.27584e-14
-3.28552e-14
-3.27584e-14
-3.28554e-14
-3.27582e-14
-3.28557e-14
-3.27581e-14
-3.28558e-14
-3.27582e-14
-3.28558e-14
-3.27583e-14
-3.2856e-14
-3.27582e-14
-3.28561e-14
-3.2758e-14
-3.2856e-14
-3.27582e-14
-3.2856e-14
-3.27584e-14
-3.28561e-14
-3.27582e-14
-3.28561e-14
-3.2758e-14
-3.2856e-14
-3.27579e-14
-3.2856e-14
-3.27579e-14
-3.28561e-14
-3.27578e-14
-3.28562e-14
-3.27577e-14
-3.28564e-14
-3.27576e-14
-3.28564e-14
-3.27575e-14
-3.28564e-14
-3.27574e-14
-3.28564e-14
-3.27573e-14
-3.28565e-14
-3.27572e-14
-3.28565e-14
-3.27572e-14
-3.28565e-14
-3.27571e-14
-3.28565e-14
-3.2757e-14
-3.28565e-14
-3.2757e-14
-3.28564e-14
-3.2757e-14
-3.28564e-14
-3.2757e-14
-3.28564e-14
-3.2757e-14
-3.28564e-14
-3.27569e-14
-3.28563e-14
-3.27569e-14
-3.28563e-14
-3.27569e-14
-3.28563e-14
-3.27569e-14
-3.28563e-14
-3.27569e-14
-3.28563e-14
-3.27568e-14
-3.28563e-14
-3.27568e-14
-3.28563e-14
-3.27568e-14
-3.28563e-14
-3.27568e-14
-3.17916e-14
-3.17622e-14
-3.18368e-14
-3.17854e-14
-3.18461e-14
-3.17926e-14
-3.18654e-14
-3.18345e-14
-3.19347e-14
-3.19098e-14
-3.19537e-14
-3.18672e-14
-3.20386e-14
-3.17951e-14
-3.21256e-14
-3.18345e-14
-3.21211e-14
-3.20056e-14
-3.2166e-14
-3.20929e-14
-3.2223e-14
-3.22111e-14
-3.22247e-14
-3.22414e-14
-3.23224e-14
-3.22943e-14
-3.24199e-14
-3.23382e-14
-3.25285e-14
-3.23948e-14
-3.25764e-14
-3.25105e-14
-3.26348e-14
-3.25547e-14
-3.27302e-14
-3.25857e-14
-3.27616e-14
-3.27659e-14
-3.28494e-14
-3.2922e-14
-3.29013e-14
-3.29536e-14
-3.29491e-14
-3.29419e-14
-3.29985e-14
-3.29614e-14
-3.30528e-14
-3.29772e-14
-3.3088e-14
-3.29845e-14
-3.31346e-14
-3.30383e-14
-3.31613e-14
-3.30829e-14
-3.3226e-14
-3.31505e-14
-3.32685e-14
-3.32418e-14
-3.32831e-14
-3.33007e-14
-3.32954e-14
-3.32694e-14
-3.33413e-14
-3.33573e-14
-3.33548e-14
-3.34811e-14
-3.33242e-14
-3.35305e-14
-3.33661e-14
-3.35424e-14
-3.34244e-14
-3.34798e-14
-3.33842e-14
-3.34565e-14
-3.34335e-14
-3.34737e-14
-3.3449e-14
-3.34649e-14
-3.34326e-14
-3.34288e-14
-3.34168e-14
-3.34934e-14
-3.33961e-14
-3.35029e-14
-3.33528e-14
-3.34095e-14
-3.33227e-14
-3.33546e-14
-3.33067e-14
-3.33681e-14
-3.32704e-14
-3.33213e-14
-3.32474e-14
-3.31788e-14
-3.31946e-14
-3.31467e-14
-3.3159e-14
-3.31268e-14
-3.30732e-14
-3.3053e-14
-3.30521e-14
-3.30412e-14
-3.30623e-14
-3.3009e-14
-3.30723e-14
-3.30051e-14
-3.31166e-14
-3.29955e-14
-3.30977e-14
-3.29781e-14
-3.30992e-14
-3.29523e-14
-3.31393e-14
-3.29175e-14
-3.31197e-14
-3.29237e-14
-3.31067e-14
-3.2956e-14
-3.30812e-14
-3.29828e-14
-3.30752e-14
-3.29719e-14
-3.30718e-14
-3.29573e-14
-3.30542e-14
-3.29736e-14
-3.30213e-14
-3.29709e-14
-3.30064e-14
-3.29674e-14
-3.29921e-14
-3.29291e-14
-3.29789e-14
-3.28896e-14
-3.29675e-14
-3.28652e-14
-3.29752e-14
-3.28557e-14
-3.29514e-14
-3.28606e-14
-3.29469e-14
-3.28804e-14
-3.29438e-14
-3.28985e-14
-3.29413e-14
-3.28812e-14
-3.29401e-14
-3.28543e-14
-3.29321e-14
-3.28344e-14
-3.2926e-14
-3.28381e-14
-3.2913e-14
-3.28485e-14
-3.29013e-14
-3.28579e-14
-3.28904e-14
-3.28666e-14
-3.28801e-14
-3.28319e-14
-3.28706e-14
-3.27878e-14
-3.28624e-14
-3.27764e-14
-3.2847e-14
-3.27891e-14
-3.28324e-14
-3.28095e-14
-3.2835e-14
-3.28126e-14
-3.28296e-14
-3.27985e-14
-3.28161e-14
-3.27755e-14
-3.28116e-14
-3.27603e-14
-3.28162e-14
-3.27359e-14
-3.28133e-14
-3.27355e-14
-3.28029e-14
-3.2734e-14
-3.28015e-14
-3.274e-14
-3.27923e-14
-3.27369e-14
-3.27752e-14
-3.27415e-14
-3.27749e-14
-3.27458e-14
-3.27664e-14
-3.27414e-14
-3.27745e-14
-3.27368e-14
-3.2758e-14
-3.27482e-14
-3.27661e-14
-3.27511e-14
-3.27824e-14
-3.27538e-14
-3.27825e-14
-3.27562e-14
-3.27949e-14
-3.27583e-14
-3.28074e-14
-3.2756e-14
-3.28122e-14
-3.27613e-14
-3.28173e-14
-3.27502e-14
-3.28188e-14
-3.27386e-14
-3.28168e-14
-3.27464e-14
-3.28074e-14
-3.27498e-14
-3.2814e-14
-3.27488e-14
-3.28209e-14
-3.27553e-14
-3.28204e-14
-3.27535e-14
-3.28201e-14
-3.27476e-14
-3.28201e-14
-3.27453e-14
-3.28204e-14
-3.2735e-14
-3.28249e-14
-3.27359e-14
-3.2822e-14
-3.27401e-14
-3.28269e-14
-3.27365e-14
-3.2832e-14
-3.27364e-14
-3.28411e-14
-3.27321e-14
-3.28394e-14
-3.27311e-14
-3.28417e-14
-3.27371e-14
-3.28405e-14
-3.27354e-14
-3.28397e-14
-3.27261e-14
-3.2839e-14
-3.27237e-14
-3.28386e-14
-3.27245e-14
-3.2842e-14
-3.27286e-14
-3.2842e-14
-3.27287e-14
-3.28458e-14
-3.27216e-14
-3.28463e-14
-3.27177e-14
-3.28453e-14
-3.27204e-14
-3.28429e-14
-3.27313e-14
-3.28491e-14
-3.27317e-14
-3.28488e-14
-3.27286e-14
-3.2852e-14
-3.27335e-14
-3.28538e-14
-3.27365e-14
-3.28639e-14
-3.27377e-14
-3.28628e-14
-3.2737e-14
-3.28619e-14
-3.27377e-14
-3.28707e-14
-3.27399e-14
-3.28734e-14
-3.27402e-14
-3.287e-14
-3.27419e-14
-3.28683e-14
-3.27449e-14
-3.28699e-14
-3.27478e-14
-3.28732e-14
-3.27474e-14
-3.2872e-14
-3.27515e-14
-3.28711e-14
-3.27538e-14
-3.28702e-14
-3.27545e-14
-3.2871e-14
-3.27537e-14
-3.28763e-14
-3.27527e-14
-3.28787e-14
-3.27487e-14
-3.28799e-14
-3.2746e-14
-3.28812e-14
-3.27475e-14
-3.2884e-14
-3.27474e-14
-3.28848e-14
-3.27472e-14
-3.28871e-14
-3.27462e-14
-3.28868e-14
-3.27471e-14
-3.28867e-14
-3.27472e-14
-3.28867e-14
-3.27472e-14
-3.28841e-14
-3.27491e-14
-3.28836e-14
-3.27495e-14
-3.28833e-14
-3.27511e-14
-3.28817e-14
-3.2754e-14
-3.2879e-14
-3.27567e-14
-3.28783e-14
-3.276e-14
-3.28783e-14
-3.27619e-14
-3.28784e-14
-3.27638e-14
-3.28767e-14
-3.27662e-14
-3.28757e-14
-3.27685e-14
-3.28747e-14
-3.27689e-14
-3.28738e-14
-3.27711e-14
-3.28723e-14
-3.27732e-14
-3.28709e-14
-3.27754e-14
-3.28695e-14
-3.27768e-14
-3.28695e-14
-3.2777e-14
-3.28691e-14
-3.27777e-14
-3.28688e-14
-3.27784e-14
-3.28686e-14
-3.27791e-14
-3.28687e-14
-3.27804e-14
-3.28692e-14
-3.27823e-14
-3.28698e-14
-3.27826e-14
-3.28697e-14
-3.27828e-14
-3.28693e-14
-3.27844e-14
-3.28689e-14
-3.27863e-14
-3.28679e-14
-3.27868e-14
-3.28682e-14
-3.2787e-14
-3.28697e-14
-3.27868e-14
-3.28698e-14
-3.27872e-14
-3.28699e-14
-3.27877e-14
-3.28693e-14
-3.27889e-14
-3.28691e-14
-3.27904e-14
-3.28687e-14
-3.27909e-14
-3.28684e-14
-3.27919e-14
-3.28686e-14
-3.27929e-14
-3.28685e-14
-3.27942e-14
-3.28681e-14
-3.27952e-14
-3.2868e-14
-3.27958e-14
-3.2868e-14
-3.27964e-14
-3.28679e-14
-3.27973e-14
-3.28672e-14
-3.27983e-14
-3.28669e-14
-3.27984e-14
-3.28673e-14
-3.27984e-14
-3.28673e-14
-3.27988e-14
-3.28671e-14
-3.27996e-14
-3.28666e-14
-3.28004e-14
-3.28662e-14
-3.28008e-14
-3.28663e-14
-3.28009e-14
-3.2866e-14
-3.28011e-14
-3.28661e-14
-3.28014e-14
-3.28663e-14
-3.28019e-14
-3.2866e-14
-3.28021e-14
-3.28656e-14
-3.28022e-14
-3.28654e-14
-3.28026e-14
-3.28653e-14
-3.28031e-14
-3.2865e-14
-3.28036e-14
-3.28647e-14
-3.2804e-14
-3.28645e-14
-3.28043e-14
-3.28644e-14
-3.28044e-14
-3.2864e-14
-3.28045e-14
-3.28637e-14
-3.28049e-14
-3.28638e-14
-3.28052e-14
-3.28636e-14
-3.28054e-14
-3.28634e-14
-3.28056e-14
-3.28632e-14
-3.28057e-14
-3.28629e-14
-3.28057e-14
-3.28628e-14
-3.28057e-14
-3.28628e-14
-3.28057e-14
-3.28627e-14
-3.28059e-14
-3.28625e-14
-3.2806e-14
-3.28623e-14
-3.28059e-14
-3.28622e-14
-3.28059e-14
-3.2862e-14
-3.2806e-14
-3.28618e-14
-3.28059e-14
-3.28618e-14
-3.28057e-14
-3.28617e-14
-3.28057e-14
-3.28615e-14
-3.28058e-14
-3.28613e-14
-3.28057e-14
-3.28613e-14
-3.28057e-14
-3.28612e-14
-3.28057e-14
-3.28611e-14
-3.28057e-14
-3.28612e-14
-3.28057e-14
-3.28611e-14
-3.28057e-14
-3.28611e-14
-3.28057e-14
-3.28611e-14
-3.28057e-14
-3.28611e-14
-3.28057e-14
-3.28611e-14
-3.28057e-14
-3.28611e-14
-3.28057e-14
-3.28611e-14
-3.28057e-14
-3.28611e-14
-3.28058e-14
-3.28611e-14
-3.28058e-14
-3.28611e-14
-3.28058e-14
)
;

boundaryField
{
    walls
    {
        type            zeroGradient;
    }
    inlet
    {
        type            cyclic;
    }
    outlet
    {
        type            cyclic;
    }
    sides
    {
        type            empty;
    }
}


// ************************************************************************* //
