/*--------------------------------*- C++ -*----------------------------------*\
| =========                 |                                                 |
| \\      /  F ield         | OpenFOAM: The Open Source CFD Toolbox           |
|  \\    /   O peration     | Version:  2106                                  |
|   \\  /    A nd           | Website:  www.openfoam.com                      |
|    \\/     M anipulation  |                                                 |
\*---------------------------------------------------------------------------*/
FoamFile
{
    version     2.0;
    format      ascii;
    arch        "LSB;label=32;scalar=64";
    class       surfaceScalarField;
    location    "10080";
    object      phi;
}
// * * * * * * * * * * * * * * * * * * * * * * * * * * * * * * * * * * * * * //

dimensions      [0 3 -1 0 0 0 0];

oriented        oriented;

internalField   nonuniform List<scalar> 
3996
(
1.11269e-08
-2.17854e-18
1.3157e-22
1.91414e-22
2.663e-23
3.42113e-08
-2.17994e-18
4.99904e-22
1.0238e-21
7.17308e-23
5.85841e-08
-2.18139e-18
5.18941e-22
1.87477e-21
7.5814e-23
8.43014e-08
-2.18288e-18
5.34207e-22
2.75824e-21
8.01188e-23
1.11421e-07
-2.18442e-18
5.50391e-22
3.66288e-21
8.46561e-23
1.40005e-07
-2.18596e-18
5.67419e-22
4.54362e-21
8.94376e-23
1.70115e-07
-2.18758e-18
5.84762e-22
5.51307e-21
9.44768e-23
2.01816e-07
-2.18924e-18
6.02469e-22
6.44543e-21
9.97873e-23
2.35178e-07
-2.19093e-18
6.20674e-22
7.41543e-21
1.05383e-22
2.70271e-07
-2.19279e-18
6.39414e-22
8.48026e-21
1.11277e-22
3.07168e-07
-2.19478e-18
6.58681e-22
9.57721e-21
1.17482e-22
3.45945e-07
-2.19668e-18
6.78468e-22
1.07008e-20
1.24015e-22
3.86684e-07
-2.19864e-18
6.98771e-22
1.18376e-20
1.30893e-22
4.29465e-07
-2.20057e-18
7.19597e-22
1.29503e-20
1.38133e-22
4.74375e-07
-2.20258e-18
7.40948e-22
1.41067e-20
1.45754e-22
5.21503e-07
-2.20479e-18
7.6283e-22
1.52729e-20
1.53773e-22
5.70942e-07
-2.20694e-18
7.85256e-22
1.64629e-20
1.62207e-22
6.22789e-07
-2.2091e-18
8.08226e-22
1.75094e-20
1.71078e-22
6.77143e-07
-2.21126e-18
8.31749e-22
1.86792e-20
1.80408e-22
7.34108e-07
-2.21348e-18
8.55831e-22
1.97983e-20
1.90213e-22
7.93793e-07
-2.2158e-18
8.80481e-22
2.09843e-20
2.00522e-22
8.56309e-07
-2.2182e-18
9.05707e-22
2.22483e-20
2.1135e-22
9.21774e-07
-2.22081e-18
9.31523e-22
2.37208e-20
2.22719e-22
9.90308e-07
-2.22344e-18
9.57944e-22
2.53147e-20
2.34651e-22
1.06204e-06
-2.22622e-18
9.8497e-22
2.68272e-20
2.4717e-22
1.13709e-06
-2.2291e-18
1.01262e-21
2.83289e-20
2.60314e-22
1.21561e-06
-2.2322e-18
1.04089e-21
2.98335e-20
2.7411e-22
1.29773e-06
-2.23521e-18
1.0698e-21
3.119e-20
2.88601e-22
1.3836e-06
-2.23804e-18
1.09935e-21
3.28241e-20
3.03814e-22
1.47337e-06
-2.24039e-18
1.12953e-21
3.41305e-20
3.19776e-22
1.56719e-06
-2.24341e-18
1.16035e-21
3.59689e-20
3.3653e-22
1.66524e-06
-2.24624e-18
1.19183e-21
3.74446e-20
3.54096e-22
1.76768e-06
-2.24941e-18
1.22399e-21
3.89922e-20
3.72515e-22
1.87468e-06
-2.25271e-18
1.25685e-21
4.07093e-20
3.91806e-22
1.98644e-06
-2.25604e-18
1.29042e-21
4.24589e-20
4.12001e-22
2.10313e-06
-2.2593e-18
1.3247e-21
4.40971e-20
4.3312e-22
2.22495e-06
-2.26293e-18
1.35971e-21
4.57593e-20
4.55194e-22
2.35212e-06
-2.26692e-18
1.39553e-21
4.79522e-20
4.78275e-22
2.48483e-06
-2.27038e-18
1.43214e-21
4.95469e-20
5.02355e-22
2.62331e-06
-2.27415e-18
1.46955e-21
5.09729e-20
5.27522e-22
2.76778e-06
-2.2774e-18
1.50778e-21
5.27665e-20
5.53763e-22
2.91847e-06
-2.28164e-18
1.54681e-21
5.41289e-20
5.81102e-22
3.07563e-06
-2.28614e-18
1.5867e-21
5.57593e-20
6.09672e-22
3.2395e-06
-2.28994e-18
1.62745e-21
5.78644e-20
6.39464e-22
3.41034e-06
-2.29414e-18
1.669e-21
5.92198e-20
6.70535e-22
3.58842e-06
-2.29792e-18
1.71141e-21
6.04939e-20
7.02949e-22
3.77401e-06
-2.30223e-18
1.75464e-21
6.20646e-20
7.36828e-22
3.96739e-06
-2.30616e-18
1.79877e-21
6.32665e-20
7.72203e-22
4.16885e-06
-2.31066e-18
1.84368e-21
6.50458e-20
8.09125e-22
4.37869e-06
-2.31357e-18
1.88936e-21
6.57702e-20
8.47597e-22
4.59721e-06
-2.3182e-18
1.93573e-21
6.77462e-20
8.87836e-22
4.82473e-06
-2.32256e-18
1.98287e-21
6.96091e-20
9.29653e-22
5.06155e-06
-2.32609e-18
2.03076e-21
7.06239e-20
9.7308e-22
5.30801e-06
-2.33003e-18
2.07929e-21
7.07608e-20
1.01816e-21
5.56445e-06
-2.33343e-18
2.12847e-21
7.28584e-20
1.06495e-21
5.83118e-06
-2.3377e-18
2.17815e-21
7.30085e-20
1.1131e-21
6.10856e-06
-2.34192e-18
2.22841e-21
7.36303e-20
1.16284e-21
6.39693e-06
-2.34726e-18
2.27929e-21
7.53854e-20
1.2141e-21
6.69663e-06
-2.35276e-18
2.33078e-21
7.704e-20
1.26669e-21
7.00802e-06
-2.35852e-18
2.3829e-21
7.94767e-20
1.32063e-21
7.33144e-06
-2.36325e-18
2.43581e-21
8.30802e-20
1.37555e-21
7.66724e-06
-2.36513e-18
2.48948e-21
8.31925e-20
1.43108e-21
8.01576e-06
-2.36848e-18
2.54332e-21
8.28923e-20
1.48797e-21
8.37734e-06
-2.3735e-18
2.59724e-21
8.1959e-20
1.54593e-21
8.75232e-06
-2.3779e-18
2.65137e-21
8.58273e-20
1.60538e-21
9.14103e-06
-2.38379e-18
2.70555e-21
8.8261e-20
1.6653e-21
9.54379e-06
-2.38924e-18
2.75991e-21
8.92464e-20
1.72582e-21
9.9609e-06
-2.39514e-18
2.81417e-21
9.25387e-20
1.78705e-21
1.03927e-05
-2.4e-18
2.86823e-21
9.45554e-20
1.84871e-21
1.08394e-05
-2.40324e-18
2.92155e-21
9.33627e-20
1.91017e-21
1.13014e-05
-2.4087e-18
2.97398e-21
9.33229e-20
1.97155e-21
1.17788e-05
-2.4151e-18
3.0257e-21
9.44532e-20
2.03284e-21
1.2272e-05
-2.41985e-18
3.07659e-21
9.37719e-20
2.09403e-21
1.27812e-05
-2.42578e-18
3.12624e-21
9.41247e-20
2.15488e-21
1.33066e-05
-2.43075e-18
3.1745e-21
9.52877e-20
2.21526e-21
1.38484e-05
-2.4355e-18
3.22116e-21
9.49799e-20
2.27529e-21
1.44069e-05
-2.44194e-18
3.26559e-21
9.74548e-20
2.33464e-21
1.49821e-05
-2.444e-18
3.30861e-21
9.54821e-20
2.39286e-21
1.55744e-05
-2.45479e-18
3.34818e-21
9.73586e-20
2.45235e-21
1.61838e-05
-2.4614e-18
3.38743e-21
9.7932e-20
2.51088e-21
1.68106e-05
-2.4717e-18
3.42476e-21
1.00646e-19
2.56691e-21
1.74549e-05
-2.4781e-18
3.46093e-21
9.9117e-20
2.62075e-21
1.81168e-05
-2.4852e-18
3.49531e-21
9.78737e-20
2.67408e-21
1.87966e-05
-2.49095e-18
3.5281e-21
9.91797e-20
2.72632e-21
1.94944e-05
-2.50353e-18
3.55972e-21
9.9714e-20
2.77686e-21
2.02104e-05
-2.51292e-18
3.59103e-21
9.76228e-20
2.825e-21
2.09447e-05
-2.51549e-18
3.62019e-21
9.58727e-20
2.87242e-21
2.16976e-05
-2.52433e-18
3.6451e-21
9.08583e-20
2.91933e-21
2.24691e-05
-2.53048e-18
3.66961e-21
8.94994e-20
2.96826e-21
2.32596e-05
-2.53455e-18
3.69301e-21
8.4115e-20
3.01912e-21
2.40693e-05
-2.53631e-18
3.71334e-21
7.60549e-20
3.07206e-21
2.48983e-05
-2.53904e-18
3.73355e-21
7.46541e-20
3.1279e-21
2.57469e-05
-2.54533e-18
3.75132e-21
8.20863e-20
3.18476e-21
2.66153e-05
-2.55249e-18
3.76583e-21
8.50077e-20
3.24049e-21
2.75039e-05
-2.55855e-18
3.78243e-21
8.55368e-20
3.29813e-21
2.84129e-05
-2.56587e-18
3.79778e-21
8.38521e-20
3.35591e-21
2.93426e-05
-2.57798e-18
3.81282e-21
9.24123e-20
3.41626e-21
3.02933e-05
-2.58274e-18
3.83047e-21
8.94523e-20
3.4758e-21
3.12654e-05
-2.59271e-18
3.85038e-21
9.10301e-20
3.53738e-21
3.22591e-05
-2.59863e-18
3.87339e-21
8.751e-20
3.60139e-21
3.3275e-05
-2.59835e-18
3.89593e-21
8.61733e-20
3.666e-21
3.43133e-05
-2.60254e-18
3.91349e-21
7.97058e-20
3.72639e-21
3.53744e-05
-2.59415e-18
3.92773e-21
7.68388e-20
3.78508e-21
3.64588e-05
-2.59428e-18
3.92888e-21
6.82813e-20
3.85124e-21
3.75668e-05
-2.59211e-18
3.92828e-21
6.11955e-20
3.91632e-21
3.86991e-05
-2.59488e-18
3.91152e-21
5.55336e-20
3.99117e-21
3.98559e-05
-2.59213e-18
3.88728e-21
4.26917e-20
4.07842e-21
4.10377e-05
-2.58433e-18
3.84857e-21
3.20441e-20
4.1796e-21
4.22452e-05
-2.60733e-18
3.79896e-21
3.36128e-20
4.28488e-21
4.34787e-05
-2.60149e-18
3.75297e-21
4.06442e-20
4.39287e-21
4.47388e-05
-2.61227e-18
3.68885e-21
3.78406e-20
4.49276e-21
4.6026e-05
-2.61459e-18
3.6288e-21
3.71488e-20
4.59015e-21
4.7341e-05
-2.62314e-18
3.56279e-21
3.51022e-20
4.68509e-21
4.86842e-05
-2.6254e-18
3.51733e-21
2.1096e-20
4.76193e-21
5.00562e-05
-2.62822e-18
3.47459e-21
1.71963e-20
4.83596e-21
5.14577e-05
-2.61911e-18
3.43938e-21
-8.68286e-22
4.89354e-21
5.28893e-05
-2.62729e-18
3.41117e-21
-1.06864e-20
4.95141e-21
5.43516e-05
-2.62462e-18
3.38442e-21
-2.09604e-20
5.00498e-21
5.58452e-05
-2.62312e-18
3.35271e-21
-3.42642e-20
5.05701e-21
5.73708e-05
-2.61202e-18
3.31625e-21
-4.41217e-20
5.12045e-21
5.89292e-05
-2.61178e-18
3.25489e-21
-5.7785e-20
5.1969e-21
6.05209e-05
-2.59719e-18
3.18202e-21
-7.47221e-20
5.28412e-21
6.21468e-05
-2.58919e-18
3.08607e-21
-9.45669e-20
5.38632e-21
6.38074e-05
-2.58334e-18
2.98081e-21
-1.02312e-19
5.51011e-21
6.55037e-05
-2.57934e-18
2.88117e-21
-1.04848e-19
5.61497e-21
6.72363e-05
-2.574e-18
2.78733e-21
-1.18262e-19
5.70894e-21
6.90061e-05
-2.57362e-18
2.66826e-21
-1.36067e-19
5.80715e-21
7.08137e-05
-2.55535e-18
2.51865e-21
-1.49549e-19
5.919e-21
7.26601e-05
-2.56549e-18
2.31344e-21
-1.56199e-19
6.03851e-21
7.45461e-05
-2.54421e-18
2.10899e-21
-1.72029e-19
6.15243e-21
7.64725e-05
-2.5618e-18
1.84546e-21
-1.70101e-19
6.29769e-21
7.84402e-05
-2.54861e-18
1.57855e-21
-1.72555e-19
6.42759e-21
8.04501e-05
-2.55998e-18
1.27474e-21
-1.71429e-19
6.53474e-21
8.2503e-05
-2.54995e-18
9.99356e-22
-1.73318e-19
6.65138e-21
8.46e-05
-2.55258e-18
7.09256e-22
-1.81679e-19
6.81189e-21
8.67419e-05
-2.55693e-18
4.52739e-22
-1.82384e-19
7.01505e-21
8.89297e-05
-2.54252e-18
2.20129e-22
-1.95531e-19
7.20555e-21
9.11645e-05
-2.53855e-18
-2.90922e-23
-1.85904e-19
7.41064e-21
9.34471e-05
-2.52023e-18
-2.50227e-22
-1.90407e-19
7.57646e-21
9.57787e-05
-2.5153e-18
-4.99196e-22
-2.04935e-19
7.72939e-21
9.81602e-05
-2.49539e-18
-7.45227e-22
-2.11408e-19
7.87367e-21
0.000100593
-2.4992e-18
-1.00397e-21
-2.15897e-19
7.94939e-21
0.000103078
-2.4843e-18
-1.22596e-21
-2.18572e-19
7.98642e-21
0.000105616
-2.47121e-18
-1.43829e-21
-2.28742e-19
7.94544e-21
0.000108208
-2.44458e-18
-1.66038e-21
-2.66468e-19
7.76935e-21
0.000110856
-2.42632e-18
-1.96925e-21
-2.96867e-19
7.6369e-21
0.000113561
-2.39681e-18
-2.29035e-21
-3.24386e-19
7.50478e-21
0.000116323
-2.38295e-18
-2.72935e-21
-3.4757e-19
7.34432e-21
0.000119145
-2.34311e-18
-3.148e-21
-3.76088e-19
7.12745e-21
0.000122027
-2.29923e-18
-3.59721e-21
-4.10406e-19
6.89003e-21
0.000124971
-2.28403e-18
-4.20726e-21
-4.33925e-19
6.68781e-21
0.000127978
-2.2571e-18
-4.6213e-21
-4.74966e-19
6.43342e-21
0.000131049
-2.31054e-18
-5.08662e-21
-4.85186e-19
6.13169e-21
0.000134186
-2.30374e-18
-5.18687e-21
-4.95121e-19
5.74562e-21
0.000137391
-2.28853e-18
-5.39774e-21
-5.36911e-19
5.39429e-21
0.000140663
-2.26893e-18
-5.69745e-21
-5.21675e-19
5.26237e-21
0.000144006
-2.24702e-18
-5.94472e-21
-5.71667e-19
4.82893e-21
0.00014742
-2.23365e-18
-6.24445e-21
-5.97646e-19
4.31489e-21
0.000150907
-2.2055e-18
-6.61533e-21
-6.28532e-19
3.83436e-21
0.000154468
-2.17637e-18
-7.10674e-21
-6.30206e-19
3.45381e-21
0.000158106
-2.14488e-18
-7.55772e-21
-6.55938e-19
2.96292e-21
0.000161821
-2.12031e-18
-8.02377e-21
-6.74374e-19
2.44564e-21
0.000165615
-2.08577e-18
-8.4354e-21
-7.18683e-19
2.2215e-21
0.000169491
-2.05468e-18
-8.76106e-21
-7.37559e-19
2.0782e-21
0.000173448
-2.01425e-18
-9.20384e-21
-7.30552e-19
1.88221e-21
0.000177491
-2.01545e-18
-9.83409e-21
-7.59136e-19
1.57914e-21
0.000181619
-1.98823e-18
-1.02185e-20
-7.71627e-19
8.65403e-22
0.000185835
-1.93074e-18
-1.06321e-20
-8.13836e-19
4.15427e-22
0.000190141
-1.90445e-18
-1.10823e-20
-8.1806e-19
3.10517e-22
0.000194539
-1.87265e-18
-1.13907e-20
-8.22719e-19
-3.10137e-22
0.00019903
-1.85846e-18
-1.168e-20
-8.33253e-19
-1.01829e-21
0.000203616
-1.78351e-18
-1.18623e-20
-7.9794e-19
-1.54836e-21
0.000208299
-1.7998e-18
-1.2417e-20
-7.80152e-19
-2.47229e-21
0.000213082
-1.74581e-18
-1.23398e-20
-8.0227e-19
-3.56344e-21
0.000217967
-1.71218e-18
-1.23936e-20
-8.0001e-19
-4.57451e-21
0.000222955
-1.63127e-18
-1.26741e-20
-8.3652e-19
-5.3589e-21
0.000228048
-1.60304e-18
-1.33528e-20
-8.28727e-19
-6.0855e-21
0.00023325
-1.59985e-18
-1.40202e-20
-8.27199e-19
-6.83732e-21
0.000238561
-1.57966e-18
-1.46305e-20
-8.5068e-19
-7.46994e-21
0.000243984
-1.55536e-18
-1.51317e-20
-8.25927e-19
-8.11995e-21
0.000249522
-1.46264e-18
-1.51409e-20
-8.23017e-19
-9.12243e-21
0.000255177
-1.39014e-18
-1.49994e-20
-8.36612e-19
-1.0259e-20
0.000260951
-1.35866e-18
-1.52812e-20
-8.40962e-19
-1.1223e-20
0.000266847
-1.4033e-18
-1.56381e-20
-7.78311e-19
-1.20297e-20
0.000272866
-1.34011e-18
-1.45997e-20
-8.28203e-19
-1.34941e-20
0.000279012
-1.3423e-18
-1.37258e-20
-8.65879e-19
-1.44674e-20
0.000285288
-1.27973e-18
-1.33287e-20
-9.14072e-19
-1.50354e-20
0.000291695
-1.25534e-18
-1.41047e-20
-9.47685e-19
-1.48158e-20
0.000298236
-1.24216e-18
-1.484e-20
-9.30252e-19
-1.50831e-20
0.000304914
-1.25506e-18
-1.53209e-20
-9.43907e-19
-1.66154e-20
0.000311731
-1.24342e-18
-1.45762e-20
-9.51024e-19
-1.72905e-20
0.000318692
-1.13464e-18
-1.32644e-20
-1.0303e-18
-1.92461e-20
0.000325797
-1.16551e-18
-1.48723e-20
-1.02922e-18
-1.93711e-20
0.00033305
-1.14555e-18
-1.54464e-20
-1.02002e-18
-2.03045e-20
0.000340455
-1.14071e-18
-1.61327e-20
-1.13605e-18
-2.21863e-20
0.000348013
-1.11423e-18
-1.53096e-20
-1.14289e-18
-2.16056e-20
0.000355728
-1.20764e-18
-1.62142e-20
-1.02361e-18
-1.97241e-20
0.000363603
-1.18283e-18
-1.73514e-20
-1.12326e-18
-1.93581e-20
0.00037164
-1.14624e-18
-1.82912e-20
-1.15867e-18
-1.84722e-20
0.000379844
-1.1212e-18
-1.93602e-20
-1.02788e-18
-1.63065e-20
0.000388217
-1.03745e-18
-1.89417e-20
-1.1175e-18
-1.7939e-20
0.000396763
-1.05928e-18
-1.90126e-20
-1.07708e-18
-1.61803e-20
0.000405484
-1.05367e-18
-1.71091e-20
-1.07851e-18
-1.58176e-20
0.000414384
-1.04331e-18
-1.55434e-20
-1.01394e-18
-1.62666e-20
0.000423466
-9.79561e-19
-1.37555e-20
-9.96559e-19
-1.69074e-20
0.000432733
-9.59248e-19
-1.45681e-20
-9.45493e-19
-1.73422e-20
0.00044219
-9.16858e-19
-1.39625e-20
-9.26367e-19
-1.87611e-20
0.000451839
-8.47655e-19
-1.52366e-20
-9.61878e-19
-2.24225e-20
0.000461683
-7.82371e-19
-1.62605e-20
-8.39155e-19
-2.3559e-20
0.000471727
-7.31715e-19
-1.82433e-20
-8.6068e-19
-2.76999e-20
0.000481973
-7.19859e-19
-2.11068e-20
-8.68729e-19
-2.94475e-20
0.000492426
-8.23555e-19
-2.4302e-20
-7.76954e-19
-2.6904e-20
0.000503089
-8.83842e-19
-2.46931e-20
-7.58083e-19
-2.50404e-20
0.000513964
-8.96118e-19
-1.93772e-20
-7.59438e-19
-2.83674e-20
0.000525057
-9.08654e-19
-1.72366e-20
-7.94628e-19
-3.35124e-20
0.00053637
-9.69049e-19
-1.92043e-20
-8.47103e-19
-3.48745e-20
0.000547907
-9.09767e-19
-2.46671e-20
-8.73358e-19
-3.11684e-20
0.000559672
-9.10167e-19
-2.52318e-20
-7.42583e-19
-2.57214e-20
0.000571667
-8.78138e-19
-2.65463e-20
-7.83595e-19
-2.68075e-20
0.000583897
-9.25304e-19
-3.32566e-20
-9.07261e-19
-2.89227e-20
0.000596366
-9.47178e-19
-3.17774e-20
-7.36102e-19
-2.83859e-20
0.000609075
-8.17628e-19
-2.98578e-20
-9.81398e-19
-3.8661e-20
0.000622029
-8.27162e-19
-3.53534e-20
-8.75614e-19
-3.03916e-20
0.000635232
-8.62478e-19
-3.97937e-20
-9.16232e-19
-2.86171e-20
0.000648685
-7.92202e-19
-3.53272e-20
-8.28312e-19
-2.91447e-20
0.000662393
-7.51848e-19
-3.32912e-20
-8.51279e-19
-4.02431e-20
0.000676358
-8.51599e-19
-4.62196e-20
-8.03068e-19
-4.37486e-20
0.000690583
-8.1585e-19
-4.09961e-20
-7.79936e-19
-4.85481e-20
0.000705071
-8.78907e-19
-3.95002e-20
-7.95666e-19
-4.77474e-20
0.000719824
-8.45006e-19
-3.12498e-20
-8.30356e-19
-5.20196e-20
0.000734844
-8.21986e-19
-2.88499e-20
-8.55274e-19
-5.46729e-20
0.000750134
-7.61271e-19
-2.73967e-20
-7.90176e-19
-5.0455e-20
0.000765694
-7.59597e-19
-2.72089e-20
-7.87244e-19
-4.62472e-20
0.000781526
-8.35595e-19
-2.82054e-20
-8.34882e-19
-4.412e-20
0.000797631
-8.58585e-19
-3.03268e-20
-7.65624e-19
-2.46843e-20
0.000814009
-8.47059e-19
-2.69246e-20
-8.08397e-19
-2.97753e-20
0.000830661
-7.98955e-19
-2.45169e-20
-9.00122e-19
-3.25013e-20
0.000847584
-8.3129e-19
-2.28674e-20
-8.8323e-19
-2.533e-20
0.000864778
-1.01941e-18
-2.47743e-20
-9.23494e-19
-1.86229e-20
0.000882241
-1.03211e-18
-2.95855e-20
-9.51119e-19
-2.39826e-20
0.000899969
-9.30037e-19
-2.13822e-20
-1.06201e-18
-3.8722e-20
0.000917959
-1.1847e-18
-2.21423e-20
-1.09427e-18
-4.17097e-20
0.000936206
-1.05823e-18
-1.65666e-20
-1.01702e-18
-3.25618e-20
0.000954703
-9.03127e-19
-1.30004e-20
-8.62723e-19
-4.52085e-20
0.000973444
-8.24708e-19
-2.20595e-20
-9.17142e-19
-4.67839e-20
0.000992419
-6.8574e-19
-1.44913e-20
-8.4175e-19
-5.37752e-20
0.00101162
-8.25092e-19
-4.28215e-20
-7.4476e-19
-6.54466e-20
0.00103104
-7.08869e-19
-3.42873e-20
-6.58001e-19
-6.44414e-20
0.00105065
-7.57662e-19
-2.60715e-20
-7.75081e-19
-5.09406e-20
0.00107046
-8.48793e-21
-7.20529e-19
-6.37247e-21
-7.29172e-19
1.11269e-08
1.26261e-22
3.43687e-23
3.42113e-08
5.95746e-22
1.4945e-22
5.85841e-08
1.06753e-21
2.65852e-22
8.43014e-08
1.56234e-21
3.86661e-22
1.11421e-07
2.07222e-21
5.02231e-22
1.40005e-07
2.61295e-21
6.39843e-22
1.70115e-07
3.19717e-21
8.41066e-22
2.01816e-07
3.7527e-21
9.86432e-22
2.35178e-07
4.36228e-21
1.13342e-21
2.70271e-07
4.97313e-21
1.26272e-21
3.07168e-07
5.6213e-21
1.38929e-21
3.45945e-07
6.20423e-21
1.62367e-21
3.86684e-07
6.87895e-21
1.81475e-21
4.29465e-07
7.52731e-21
2.04029e-21
4.74375e-07
8.20456e-21
2.25918e-21
5.21503e-07
9.00654e-21
2.43543e-21
5.70942e-07
9.60341e-21
2.68256e-21
6.22789e-07
1.03684e-20
2.81657e-21
6.77143e-07
1.11323e-20
2.9903e-21
7.34108e-07
1.1832e-20
3.33021e-21
7.93793e-07
1.25695e-20
3.5293e-21
8.56309e-07
1.33748e-20
3.78998e-21
9.21774e-07
1.42822e-20
4.03874e-21
9.90308e-07
1.50489e-20
4.25305e-21
1.06204e-06
1.60716e-20
4.71494e-21
1.13709e-06
1.70331e-20
5.06207e-21
1.21561e-06
1.79864e-20
5.66137e-21
1.29773e-06
1.8873e-20
5.9413e-21
1.3836e-06
1.98579e-20
6.50086e-21
1.47337e-06
2.09333e-20
6.87629e-21
1.56719e-06
2.19844e-20
7.34959e-21
1.66524e-06
2.30902e-20
7.8908e-21
1.76768e-06
2.42335e-20
8.19762e-21
1.87468e-06
2.53995e-20
8.68735e-21
1.98644e-06
2.61567e-20
9.01674e-21
2.10313e-06
2.73648e-20
9.34487e-21
2.22495e-06
2.93002e-20
1.01203e-20
2.35212e-06
3.01877e-20
1.06528e-20
2.48483e-06
3.13943e-20
1.17591e-20
2.62331e-06
3.27934e-20
1.22997e-20
2.76778e-06
3.40725e-20
1.27131e-20
2.91847e-06
3.56138e-20
1.37199e-20
3.07563e-06
3.71117e-20
1.44031e-20
3.2395e-06
3.85256e-20
1.57663e-20
3.41034e-06
4.00677e-20
1.6643e-20
3.58842e-06
4.13625e-20
1.82153e-20
3.77401e-06
4.30679e-20
1.9133e-20
3.96739e-06
4.43919e-20
1.97631e-20
4.16885e-06
4.55167e-20
2.08139e-20
4.37869e-06
4.72562e-20
2.28492e-20
4.59721e-06
4.85947e-20
2.40893e-20
4.82473e-06
5.05805e-20
2.56436e-20
5.06155e-06
5.25676e-20
2.64799e-20
5.30801e-06
5.46915e-20
2.81818e-20
5.56445e-06
5.66162e-20
2.94199e-20
5.83118e-06
5.85212e-20
3.07473e-20
6.10856e-06
6.13447e-20
3.17726e-20
6.39693e-06
6.34306e-20
3.30522e-20
6.69663e-06
6.5341e-20
3.53753e-20
7.00802e-06
6.75982e-20
3.70728e-20
7.33144e-06
7.05445e-20
3.79013e-20
7.66724e-06
7.24647e-20
4.09723e-20
8.01576e-06
7.33266e-20
4.28944e-20
8.37734e-06
7.48239e-20
4.77332e-20
8.75232e-06
7.7569e-20
4.93981e-20
9.14103e-06
8.11592e-20
5.15054e-20
9.54379e-06
8.44712e-20
5.36089e-20
9.9609e-06
8.73885e-20
5.61635e-20
1.03927e-05
8.87118e-20
5.66007e-20
1.08394e-05
9.15419e-20
5.8083e-20
1.13014e-05
9.44452e-20
5.90955e-20
1.17788e-05
9.69142e-20
6.04848e-20
1.2272e-05
9.97431e-20
6.25817e-20
1.27812e-05
1.01291e-19
6.52591e-20
1.33066e-05
1.04578e-19
6.81731e-20
1.38484e-05
1.06284e-19
7.09118e-20
1.44069e-05
1.09422e-19
7.46011e-20
1.49821e-05
1.08622e-19
8.02548e-20
1.55744e-05
1.11335e-19
8.43098e-20
1.61838e-05
1.11746e-19
8.61984e-20
1.68106e-05
1.12428e-19
8.99939e-20
1.74549e-05
1.12529e-19
9.6412e-20
1.81168e-05
1.12022e-19
1.02581e-19
1.87966e-05
1.16488e-19
1.07976e-19
1.94944e-05
1.18007e-19
1.11183e-19
2.02104e-05
1.1925e-19
1.15559e-19
2.09447e-05
1.23217e-19
1.18094e-19
2.16976e-05
1.31274e-19
1.22786e-19
2.24691e-05
1.37757e-19
1.28028e-19
2.32596e-05
1.38157e-19
1.30596e-19
2.40693e-05
1.45207e-19
1.34707e-19
2.48983e-05
1.43714e-19
1.41951e-19
2.57469e-05
1.36519e-19
1.51195e-19
2.66153e-05
1.41555e-19
1.61555e-19
2.75039e-05
1.43988e-19
1.66451e-19
2.84129e-05
1.48987e-19
1.71561e-19
2.93426e-05
1.52811e-19
1.76476e-19
3.02933e-05
1.61561e-19
1.77841e-19
3.12654e-05
1.65198e-19
1.8591e-19
3.22591e-05
1.66854e-19
1.90297e-19
3.3275e-05
1.67708e-19
1.94232e-19
3.43133e-05
1.6977e-19
1.93916e-19
3.53744e-05
1.73403e-19
2.09186e-19
3.64588e-05
1.90325e-19
2.05894e-19
3.75668e-05
1.89043e-19
2.13996e-19
3.86991e-05
1.96459e-19
2.18792e-19
3.98559e-05
1.97081e-19
2.25342e-19
4.10377e-05
2.04278e-19
2.31277e-19
4.22452e-05
1.97136e-19
2.47525e-19
4.34787e-05
1.9054e-19
2.52256e-19
4.47388e-05
1.96501e-19
2.57942e-19
4.6026e-05
2.00171e-19
2.65458e-19
4.7341e-05
2.25612e-19
2.55882e-19
4.86842e-05
2.31684e-19
2.61036e-19
5.00562e-05
2.41396e-19
2.63379e-19
5.14577e-05
2.63298e-19
2.70006e-19
5.28893e-05
2.62166e-19
2.77113e-19
5.43516e-05
2.62267e-19
2.79952e-19
5.58452e-05
2.65823e-19
2.87557e-19
5.73708e-05
2.72545e-19
2.97983e-19
5.89292e-05
2.82001e-19
3.07693e-19
6.05209e-05
2.87647e-19
3.14684e-19
6.21468e-05
2.93726e-19
3.21075e-19
6.38074e-05
3.07368e-19
3.15279e-19
6.55037e-05
3.19304e-19
3.23449e-19
6.72363e-05
3.2097e-19
3.24927e-19
6.90061e-05
3.2426e-19
3.25556e-19
7.08137e-05
3.2748e-19
3.35354e-19
7.26601e-05
3.3415e-19
3.34243e-19
7.45461e-05
3.35688e-19
3.36335e-19
7.64725e-05
3.32795e-19
3.41821e-19
7.84402e-05
3.35355e-19
3.45703e-19
8.04501e-05
3.39989e-19
3.54093e-19
8.2503e-05
3.3373e-19
3.63154e-19
8.46e-05
3.39945e-19
3.78099e-19
8.67419e-05
3.40508e-19
3.85729e-19
8.89297e-05
3.39337e-19
3.90125e-19
9.11645e-05
3.50508e-19
3.8782e-19
9.34471e-05
3.45792e-19
3.92154e-19
9.57787e-05
3.3132e-19
4.05272e-19
9.81602e-05
3.29763e-19
4.04753e-19
0.000100593
3.31921e-19
4.15156e-19
0.000103078
3.42254e-19
4.18749e-19
0.000105616
3.47612e-19
4.02586e-19
0.000108208
3.41099e-19
4.20501e-19
0.000110856
3.42625e-19
4.29094e-19
0.000113561
3.14345e-19
4.35775e-19
0.000116323
3.13605e-19
4.3434e-19
0.000119145
3.15817e-19
4.28125e-19
0.000122027
2.81054e-19
4.28565e-19
0.000124971
3.34072e-19
4.33373e-19
0.000127978
3.46568e-19
4.32704e-19
0.000131049
3.94929e-19
4.3812e-19
0.000134186
3.86088e-19
4.50501e-19
0.000137391
3.81639e-19
4.68136e-19
0.000140663
3.95991e-19
4.43147e-19
0.000144006
3.84963e-19
4.2616e-19
0.00014742
3.60977e-19
4.38423e-19
0.000150907
3.40837e-19
4.34005e-19
0.000154468
3.54994e-19
4.37228e-19
0.000158106
3.62877e-19
4.30424e-19
0.000161821
3.79669e-19
4.63158e-19
0.000165615
4.10017e-19
4.52357e-19
0.000169491
4.04129e-19
4.51198e-19
0.000173448
3.90002e-19
4.70374e-19
0.000177491
3.81472e-19
4.19104e-19
0.000181619
3.43833e-19
4.53707e-19
0.000185835
3.42951e-19
4.57485e-19
0.000190141
3.45843e-19
4.01654e-19
0.000194539
3.37861e-19
3.8709e-19
0.00019903
3.21972e-19
3.88174e-19
0.000203616
3.0748e-19
3.93583e-19
0.000208299
3.48951e-19
4.18127e-19
0.000213082
3.61643e-19
4.18543e-19
0.000217967
3.23515e-19
4.50948e-19
0.000222955
3.19464e-19
4.28984e-19
0.000228048
3.19791e-19
4.4221e-19
0.00023325
3.09854e-19
4.60919e-19
0.000238561
2.97418e-19
4.51579e-19
0.000243984
2.93831e-19
4.43474e-19
0.000249522
3.33574e-19
4.1524e-19
0.000255177
3.03273e-19
3.66348e-19
0.000260951
2.68803e-19
3.3586e-19
0.000266847
3.11391e-19
3.47737e-19
0.000272866
3.71699e-19
3.1059e-19
0.000279012
3.50065e-19
2.70267e-19
0.000285288
3.19768e-19
3.17444e-19
0.000291695
3.32318e-19
3.12685e-19
0.000298236
3.22934e-19
2.71013e-19
0.000304914
3.26593e-19
3.22021e-19
0.000311731
3.17031e-19
2.32397e-19
0.000318692
2.01376e-19
2.69313e-19
0.000325797
1.99508e-19
2.32086e-19
0.00033305
1.78647e-19
1.85492e-19
0.000340455
2.30908e-19
1.71497e-19
0.000348013
1.62679e-19
1.69811e-19
0.000355728
7.9219e-20
1.88162e-19
0.000363603
9.56908e-20
1.43516e-19
0.00037164
8.4311e-20
1.92344e-19
0.000379844
1.2266e-19
1.26574e-19
0.000388217
9.22375e-20
1.58166e-19
0.000396763
7.42696e-20
1.31811e-19
0.000405484
2.91348e-20
5.9925e-20
0.000414384
3.07525e-20
5.12796e-20
0.000423466
-1.26641e-20
9.71496e-21
0.000432733
3.40119e-20
1.9622e-20
0.00044219
-3.66667e-20
-1.86003e-20
0.000451839
2.4543e-20
1.09102e-20
0.000461683
3.33378e-20
-3.12648e-20
0.000471727
1.61571e-20
-9.13468e-20
0.000481973
5.36577e-22
-5.34949e-20
0.000492426
-6.12571e-20
-1.2049e-20
0.000503089
-2.44296e-20
-1.38208e-19
0.000513964
-1.39046e-19
-1.53837e-19
0.000525057
-2.3207e-19
-1.29223e-19
0.00053637
-3.82388e-19
-1.41392e-19
0.000547907
-2.29742e-19
-1.16493e-19
0.000559672
-2.36994e-19
-1.20812e-19
0.000571667
-2.94532e-19
-1.95975e-19
0.000583897
-1.80469e-19
-2.03455e-19
0.000596366
-2.28854e-19
-2.34948e-19
0.000609075
-2.39093e-19
-1.73206e-19
0.000622029
-2.18148e-19
-2.14089e-19
0.000635232
-9.94788e-20
-2.52733e-19
0.000648685
-8.7043e-20
-3.2363e-19
0.000662393
-3.37915e-19
-1.66159e-19
0.000676358
-1.36335e-19
-1.92342e-19
0.000690583
-1.37208e-19
-1.42948e-19
0.000705071
-1.00275e-19
-1.55839e-19
0.000719824
-1.85437e-19
-1.74058e-19
0.000734844
-1.96647e-19
-1.85952e-19
0.000750134
-1.49868e-19
-8.35273e-20
0.000765694
-1.54917e-19
-1.05856e-19
0.000781526
-2.15943e-19
3.37145e-20
0.000797631
-1.06517e-19
-1.39563e-19
0.000814009
-1.12314e-19
-1.28963e-19
0.000830661
-1.11525e-19
-1.89564e-19
0.000847584
-1.67856e-19
-1.58435e-19
0.000864778
-3.70197e-19
-2.17116e-19
0.000882241
-2.97124e-19
-3.64274e-19
0.000899969
-3.42141e-19
-5.05613e-19
0.000917959
-5.21949e-19
-4.72029e-19
0.000936206
-4.43089e-19
-5.79334e-19
0.000954703
-5.25499e-19
-4.43764e-19
0.000973444
-3.82919e-19
-6.28319e-19
0.000992419
-5.73682e-19
-5.3993e-19
0.00101162
-4.85108e-19
-4.36808e-19
0.00103104
-4.46659e-19
-3.80378e-19
0.00105065
-4.03831e-19
-1.88436e-19
0.00107046
-4.25336e-19
-4.70306e-19
0.00107046
-7.32367e-19
-1.72968e-21
-6.6697e-19
-1.1538e-20
0.00105065
-4.6383e-19
1.55642e-20
-4.95674e-19
-4.55246e-21
0.00103104
-4.13741e-19
4.78215e-21
-3.66125e-19
-1.25839e-20
0.00101162
-2.88928e-19
2.207e-22
-4.43937e-19
-3.52678e-20
0.000992419
-3.77124e-19
-1.60227e-20
-4.34254e-19
-2.1723e-20
0.000973443
-4.6529e-19
-2.3486e-20
-3.36751e-19
-1.53969e-20
0.000954703
-3.73661e-19
-9.95843e-21
-3.14956e-19
-2.65436e-20
0.000936206
-3.31778e-19
-2.91764e-21
-3.4872e-19
-3.3299e-20
0.000917959
-3.07429e-19
-2.95097e-21
-3.61689e-19
-1.3866e-20
0.000899969
-2.73556e-19
-5.66168e-21
-2.86611e-19
-1.0321e-20
0.000882241
-2.47059e-19
-8.3397e-21
-2.86424e-19
-1.49722e-20
0.000864778
-2.97603e-19
-2.39106e-20
-2.76842e-19
-1.52787e-20
0.000847584
-2.66452e-19
-1.6391e-20
-3.26304e-19
-8.15656e-21
0.000830661
-3.20538e-19
-1.35905e-20
-2.8788e-19
-1.56661e-21
0.000814009
-3.65214e-19
-1.66278e-22
-1.83254e-19
-5.25119e-21
0.000797631
-9.61009e-20
1.93207e-21
-4.02851e-19
-1.0259e-20
0.000781526
-2.08463e-19
-1.03799e-20
-2.56238e-19
-2.69303e-21
0.000765694
-2.48543e-19
-3.82646e-21
-1.21839e-19
-5.24638e-21
0.000750134
-2.40137e-19
-2.67982e-21
-2.42604e-19
1.35873e-21
0.000734844
-2.27872e-19
1.87037e-21
-2.02846e-19
1.03752e-20
0.000719824
-2.13813e-19
3.08001e-21
-2.06815e-19
5.59477e-21
0.000705071
-2.05962e-19
2.21998e-21
-2.59969e-19
-3.93022e-21
0.000690583
-1.91378e-19
-1.87974e-22
-1.9326e-19
-7.36946e-21
0.000676358
-1.68473e-19
-4.12285e-21
-1.78645e-19
-5.90596e-21
0.000662393
-1.69941e-19
-1.16671e-20
-2.30421e-19
-2.97396e-21
0.000648685
-2.23149e-19
-1.08341e-20
-1.29967e-19
1.52988e-21
0.000635232
-1.92356e-19
-8.5102e-21
-1.75324e-19
-2.23103e-22
0.000622029
-2.38199e-19
-6.40709e-21
-2.22803e-19
-1.0295e-21
0.000609075
-2.4586e-19
-3.49633e-21
-2.43714e-19
-1.35089e-21
0.000596366
-2.57592e-19
-1.33108e-21
-2.28987e-19
-1.57155e-21
0.000583897
-1.9434e-19
-1.38132e-21
-2.57355e-19
-4.86642e-21
0.000571667
-1.90836e-19
-5.94974e-21
-2.31244e-19
3.13767e-21
0.000559672
-2.5644e-19
-9.60588e-21
-2.03585e-19
1.15509e-20
0.000547907
-3.95549e-19
-1.23917e-20
-2.61864e-19
9.26903e-21
0.00053637
-2.82621e-19
-7.06332e-21
-3.58629e-19
5.76002e-21
0.000525057
-3.59079e-19
-3.6186e-21
-3.97946e-19
1.46481e-21
0.000513964
-3.48086e-19
-4.57947e-21
-3.40269e-19
3.05233e-21
0.000503089
-3.34194e-19
-2.76998e-22
-3.85348e-19
4.12788e-21
0.000492426
-3.23329e-19
-2.47e-22
-4.02724e-19
6.77939e-21
0.000481973
-3.86874e-19
-1.73979e-21
-3.3956e-19
9.06374e-21
0.000471727
-3.75141e-19
-1.02969e-21
-4.02937e-19
1.00385e-20
0.000461683
-3.60647e-19
-1.21509e-22
-4.09298e-19
9.59093e-21
0.000451838
-3.1124e-19
1.50045e-22
-3.2477e-19
6.20431e-21
0.00044219
-2.90732e-19
-3.81321e-22
-3.15959e-19
4.35035e-21
0.000432733
-3.55224e-19
3.09002e-22
-3.00871e-19
3.26236e-21
0.000423466
-3.58711e-19
1.23163e-21
-3.19492e-19
4.67828e-22
0.000414384
-3.06723e-19
6.95729e-22
-2.67495e-19
-2.81059e-21
0.000405484
-3.01431e-19
-6.41968e-22
-2.74097e-19
-4.71208e-21
0.000396763
-2.62765e-19
-1.09277e-21
-3.0513e-19
-7.25051e-21
0.000388217
-2.83608e-19
-3.21976e-21
-2.82146e-19
-8.85885e-21
0.000379844
-2.67302e-19
-3.21441e-21
-2.59584e-19
-8.39407e-21
0.00037164
-2.21312e-19
-2.78642e-21
-2.33975e-19
-8.85327e-21
0.000363603
-2.24303e-19
-3.44742e-21
-2.39452e-19
-7.26274e-21
0.000355728
-1.78869e-19
-2.37006e-21
-2.15826e-19
-6.52004e-21
0.000348013
-1.95752e-19
-2.10786e-21
-2.05719e-19
-5.81711e-21
0.000340455
-1.65925e-19
-8.34714e-22
-2.56309e-19
-3.65599e-21
0.00033305
-1.53129e-19
6.01849e-22
-1.90389e-19
-4.69324e-22
0.000325797
-1.37762e-19
3.66479e-22
-1.50389e-19
1.53294e-21
0.000318692
-1.1478e-19
3.82692e-22
-1.47559e-19
1.99745e-21
0.000311731
-1.56778e-19
-4.77738e-22
-1.47435e-19
2.2861e-21
0.000304914
-1.09587e-19
2.41695e-22
-1.4988e-19
2.13656e-21
0.000298236
-1.41487e-19
-2.27109e-22
-1.65071e-19
2.34403e-21
0.000291695
-1.52864e-19
-2.14578e-22
-1.44582e-19
2.89415e-21
0.000285288
-1.6512e-19
-2.38708e-24
-1.37012e-19
2.62219e-21
0.000279013
-1.62315e-19
5.44528e-22
-1.588e-19
2.29259e-21
0.000272866
-1.72744e-19
8.20388e-22
-1.02802e-19
2.08391e-21
0.000266847
-1.55233e-19
1.06482e-21
-9.09523e-20
1.32121e-21
0.000260951
-1.39264e-19
1.0598e-21
-9.87121e-20
6.47968e-22
0.000255177
-1.45656e-19
1.4466e-21
-9.79345e-20
2.74769e-23
0.000249522
-9.32038e-20
1.518e-21
-8.52884e-20
-1.73323e-22
0.000243984
-9.40961e-20
1.31396e-21
-1.06692e-19
-6.20943e-22
0.000238561
-1.44706e-19
1.26791e-21
-9.93281e-20
-6.56658e-22
0.00023325
-1.37871e-19
1.673e-21
-7.18391e-20
-8.16032e-22
0.000228048
-1.28858e-19
1.69967e-21
-9.1785e-20
-1.1487e-21