/*--------------------------------*- C++ -*----------------------------------*\
| =========                 |                                                 |
| \\      /  F ield         | OpenFOAM: The Open Source CFD Toolbox           |
|  \\    /   O peration     | Version:  2106                                  |
|   \\  /    A nd           | Website:  www.openfoam.com                      |
|    \\/     M anipulation  |                                                 |
\*---------------------------------------------------------------------------*/
FoamFile
{
    version     2.0;
    format      ascii;
    arch        "LSB;label=32;scalar=64";
    class       volSymmTensorField;
    location    "10080";
    object      turbulenceProperties:R;
}
// * * * * * * * * * * * * * * * * * * * * * * * * * * * * * * * * * * * * * //

dimensions      [0 2 -2 0 0 0 0];

internalField   nonuniform List<symmTensor> 
2000
(
(3.13315e-08 -1.86746e-13 -3.4563e-16 3.13315e-08 -1.11717e-27 3.13315e-08)
(3.13315e-08 -1.86746e-13 -3.4563e-16 3.13315e-08 -1.08995e-27 3.13315e-08)
(4.74658e-09 -1.62974e-13 -9.10587e-16 4.74658e-09 -4.33364e-28 4.74658e-09)
(4.74658e-09 -1.62974e-13 -9.10587e-16 4.74658e-09 -1.51614e-28 4.74658e-09)
(2.51506e-09 -2.55681e-13 -1.98215e-15 2.51506e-09 -7.04613e-29 2.51506e-09)
(2.51506e-09 -2.55681e-13 -1.98215e-15 2.51506e-09 -1.18904e-28 2.51506e-09)
(4.8556e-09 -1.05104e-12 -8.30015e-15 4.8556e-09 -2.4711e-28 4.8556e-09)
(4.8556e-09 -1.05104e-12 -8.30015e-15 4.8556e-09 -4.97039e-28 4.8556e-09)
(1.15798e-08 -4.44076e-12 -3.57236e-14 1.15798e-08 -2.25935e-27 1.15798e-08)
(1.15798e-08 -4.44076e-12 -3.57236e-14 1.15798e-08 -2.13503e-27 1.15798e-08)
(2.44903e-08 -1.48501e-11 -1.21691e-13 2.44903e-08 -8.72893e-27 2.44903e-08)
(2.44903e-08 -1.48501e-11 -1.21691e-13 2.44903e-08 -7.25303e-27 2.44903e-08)
(4.6052e-08 -4.09126e-11 -3.41521e-13 4.6052e-08 -2.98888e-26 4.6052e-08)
(4.6052e-08 -4.09126e-11 -3.41521e-13 4.6052e-08 -2.03021e-26 4.6052e-08)
(7.92142e-08 -9.76616e-11 -8.30453e-13 7.92142e-08 -7.40656e-26 7.92142e-08)
(7.92142e-08 -9.76616e-11 -8.30453e-13 7.92142e-08 -4.92346e-26 7.92142e-08)
(1.27394e-07 -2.09331e-10 -1.81324e-12 1.27394e-07 -1.59273e-25 1.27394e-07)
(1.27394e-07 -2.09331e-10 -1.81324e-12 1.27394e-07 -1.07203e-25 1.27394e-07)
(1.94498e-07 -4.12869e-10 -3.64305e-12 1.94498e-07 -3.19833e-25 1.94498e-07)
(1.94498e-07 -4.12869e-10 -3.64305e-12 1.94498e-07 -2.14737e-25 1.94498e-07)
(2.84952e-07 -7.62301e-10 -6.85189e-12 2.84952e-07 -6.05369e-25 2.84952e-07)
(2.84952e-07 -7.62301e-10 -6.85189e-12 2.84952e-07 -4.02587e-25 2.84952e-07)
(4.03744e-07 -1.33407e-09 -1.2215e-11 4.03744e-07 -1.08679e-24 4.03744e-07)
(4.03744e-07 -1.33407e-09 -1.2215e-11 4.03744e-07 -7.15402e-25 4.03744e-07)
(5.56464e-07 -2.23354e-09 -2.08324e-11 5.56464e-07 -1.86577e-24 5.56464e-07)
(5.56464e-07 -2.23354e-09 -2.08324e-11 5.56464e-07 -1.21602e-24 5.56464e-07)
(7.49359e-07 -3.60284e-09 -3.42311e-11 7.49359e-07 -3.08556e-24 7.49359e-07)
(7.49359e-07 -3.60284e-09 -3.42311e-11 7.49359e-07 -1.99223e-24 7.49359e-07)
(9.8938e-07 -5.63028e-09 -5.44925e-11 9.8938e-07 -4.94367e-24 9.8938e-07)
(9.8938e-07 -5.63028e-09 -5.44925e-11 9.8938e-07 -3.16068e-24 9.8938e-07)
(1.28424e-06 -8.56159e-09 -8.44095e-11 1.28424e-06 -7.7034e-24 1.28424e-06)
(1.28424e-06 -8.56159e-09 -8.44095e-11 1.28424e-06 -4.87752e-24 1.28424e-06)
(1.64249e-06 -1.27132e-08 -1.2768e-10 1.64249e-06 -1.17228e-23 1.64249e-06)
(1.64249e-06 -1.27132e-08 -1.2768e-10 1.64249e-06 -7.35343e-24 1.64249e-06)
(2.07356e-06 -1.84881e-08 -1.89143e-10 2.07356e-06 -1.74718e-23 2.07356e-06)
(2.07356e-06 -1.84881e-08 -1.89143e-10 2.07356e-06 -1.08524e-23 2.07356e-06)
(2.58786e-06 -2.63941e-08 -2.75065e-10 2.58786e-06 -2.55594e-23 2.58786e-06)
(2.58786e-06 -2.63941e-08 -2.75065e-10 2.58786e-06 -1.57186e-23 2.58786e-06)
(3.19681e-06 -3.7066e-08 -3.93491e-10 3.19681e-06 -3.67739e-23 3.19681e-06)
(3.19681e-06 -3.7066e-08 -3.93491e-10 3.19681e-06 -2.24138e-23 3.19681e-06)
(3.91301e-06 -5.12905e-08 -5.54659e-10 3.91301e-06 -5.21111e-23 3.91301e-06)
(3.91301e-06 -5.12905e-08 -5.54659e-10 3.91301e-06 -3.14951e-23 3.91301e-06)
(4.75022e-06 -7.0036e-08 -7.71509e-10 4.75022e-06 -7.28889e-23 4.75022e-06)
(4.75022e-06 -7.0036e-08 -7.71509e-10 4.75022e-06 -4.365e-23 4.75022e-06)
(5.72355e-06 -9.44867e-08 -1.06028e-09 5.72355e-06 -1.00648e-22 5.72355e-06)
(5.72355e-06 -9.44867e-08 -1.06028e-09 5.72355e-06 -5.97724e-23 5.72355e-06)
(6.84948e-06 -1.26083e-07 -1.44124e-09 6.84948e-06 -1.37478e-22 6.84948e-06)
(6.84948e-06 -1.26083e-07 -1.44124e-09 6.84948e-06 -8.08806e-23 6.84948e-06)
(8.14605e-06 -1.66565e-07 -1.93952e-09 8.14605e-06 -1.8598e-22 8.14605e-06)
(8.14605e-06 -1.66565e-07 -1.93952e-09 8.14605e-06 -1.08344e-22 8.14605e-06)
(9.63291e-06 -2.18029e-07 -2.58616e-09 9.63291e-06 -2.49096e-22 9.63291e-06)
(9.63291e-06 -2.18029e-07 -2.58616e-09 9.63291e-06 -1.33837e-22 9.63291e-06)
(1.13315e-05 -2.82985e-07 -3.41927e-09 1.13315e-05 -3.30723e-22 1.13315e-05)
(1.13315e-05 -2.82985e-07 -3.41927e-09 1.13315e-05 -1.4651e-22 1.13315e-05)
(1.3265e-05 -3.64426e-07 -4.48548e-09 1.3265e-05 -4.35875e-22 1.3265e-05)
(1.3265e-05 -3.64426e-07 -4.48548e-09 1.3265e-05 -1.6926e-22 1.3265e-05)
(1.54588e-05 -4.65908e-07 -5.84157e-09 1.54588e-05 -5.70322e-22 1.54588e-05)
(1.54588e-05 -4.65908e-07 -5.84157e-09 1.54588e-05 -2.17425e-22 1.54588e-05)
(1.79405e-05 -5.91639e-07 -7.5564e-09 1.79405e-05 -7.41287e-22 1.79405e-05)
(1.79405e-05 -5.91639e-07 -7.5564e-09 1.79405e-05 -2.77295e-22 1.79405e-05)
(2.07397e-05 -7.46582e-07 -9.71324e-09 2.07397e-05 -9.56794e-22 2.07397e-05)
(2.07397e-05 -7.46582e-07 -9.71324e-09 2.07397e-05 -3.51447e-22 2.07397e-05)
(2.38888e-05 -9.36567e-07 -1.24123e-08 2.38888e-05 -1.2268e-21 2.38888e-05)
(2.38888e-05 -9.36567e-07 -1.24123e-08 2.38888e-05 -4.42862e-22 2.38888e-05)
(2.74228e-05 -1.16842e-06 -1.57741e-08 2.74228e-05 -1.56557e-21 2.74228e-05)
(2.74228e-05 -1.16842e-06 -1.57741e-08 2.74228e-05 -5.54354e-22 2.74228e-05)
(3.13794e-05 -1.45013e-06 -1.99424e-08 3.13794e-05 -1.98679e-21 3.13794e-05)
(3.13794e-05 -1.45013e-06 -1.99424e-08 3.13794e-05 -6.9017e-22 3.13794e-05)
(3.57995e-05 -1.79097e-06 -2.50891e-08 3.57995e-05 -2.50728e-21 3.57995e-05)
(3.57995e-05 -1.79097e-06 -2.50891e-08 3.57995e-05 -8.54289e-22 3.57995e-05)
(4.0727e-05 -2.20171e-06 -3.14184e-08 4.0727e-05 -3.15063e-21 4.0727e-05)
(4.0727e-05 -2.20171e-06 -3.14184e-08 4.0727e-05 -1.0497e-21 4.0727e-05)
(4.62094e-05 -2.69481e-06 -3.91723e-08 4.62094e-05 -3.94195e-21 4.62094e-05)
(4.62094e-05 -2.69481e-06 -3.91723e-08 4.62094e-05 -1.28411e-21 4.62094e-05)
(5.22978e-05 -3.28467e-06 -4.8637e-08 5.22978e-05 -4.90814e-21 5.22978e-05)
(5.22978e-05 -3.28467e-06 -4.8637e-08 5.22978e-05 -1.56023e-21 5.22978e-05)
(5.9047e-05 -3.98781e-06 -6.01498e-08 5.9047e-05 -6.08617e-21 5.9047e-05)
(5.9047e-05 -3.98781e-06 -6.01498e-08 5.9047e-05 -2.22068e-21 5.9047e-05)
(6.6516e-05 -4.82321e-06 -7.4107e-08 6.6516e-05 -7.90274e-21 6.6516e-05)
(6.6516e-05 -4.82321e-06 -7.4107e-08 6.6516e-05 -3.22222e-21 6.6516e-05)
(7.47678e-05 -5.81257e-06 -9.09731e-08 7.47678e-05 -1.03842e-20 7.47678e-05)
(7.47678e-05 -5.81257e-06 -9.09731e-08 7.47678e-05 -4.06473e-21 7.47678e-05)
(8.38701e-05 -6.9806e-06 -1.11291e-07 8.38701e-05 -1.29832e-20 8.38701e-05)
(8.38701e-05 -6.9806e-06 -1.11291e-07 8.38701e-05 -4.94269e-21 8.38701e-05)
(9.38952e-05 -8.35543e-06 -1.35692e-07 9.38952e-05 -1.58887e-20 9.38952e-05)
(9.38952e-05 -8.35543e-06 -1.35692e-07 9.38952e-05 -5.99495e-21 9.38952e-05)
(0.00010492 -9.96887e-06 -1.6491e-07 0.00010492 -1.93836e-20 0.00010492)
(0.00010492 -9.96887e-06 -1.6491e-07 0.00010492 -7.22706e-21 0.00010492)
(0.000117027 -1.18569e-05 -1.99797e-07 0.000117027 -2.01441e-20 0.000117027)
(0.000117027 -1.18569e-05 -1.99797e-07 0.000117027 -8.67511e-21 0.000117027)
(0.000130303 -1.40599e-05 -2.41331e-07 0.000130303 -1.43356e-20 0.000130303)
(0.000130303 -1.40599e-05 -2.41331e-07 0.000130303 -1.04136e-20 0.000130303)
(0.000144842 -1.66233e-05 -2.90642e-07 0.000144842 -1.01203e-20 0.000144842)
(0.000144842 -1.66233e-05 -2.90642e-07 0.000144842 -1.24919e-20 0.000144842)
(0.00016074 -1.95977e-05 -3.49023e-07 0.00016074 -1.19596e-20 0.00016074)
(0.00016074 -1.95977e-05 -3.49023e-07 0.00016074 -1.48715e-20 0.00016074)
(0.000178101 -2.30394e-05 -4.17951e-07 0.000178101 -1.40884e-20 0.000178101)
(0.000178101 -2.30394e-05 -4.17951e-07 0.000178101 -1.76178e-20 0.000178101)
(0.000197034 -2.70107e-05 -4.99106e-07 0.000197034 -1.35008e-20 0.000197034)
(0.000197034 -2.70107e-05 -4.99106e-07 0.000197034 -2.09247e-20 0.000197034)
(0.000217654 -3.15805e-05 -5.94393e-07 0.000217654 -1.10221e-20 0.000217654)
(0.000217654 -3.15805e-05 -5.94393e-07 0.000217654 -2.47717e-20 0.000217654)
(0.000240079 -3.68241e-05 -7.05961e-07 0.000240079 -1.11634e-20 0.000240079)
(0.000240079 -3.68241e-05 -7.05961e-07 0.000240079 -2.90243e-20 0.000240079)
(0.000264433 -4.28238e-05 -8.36226e-07 0.000264433 -1.23774e-20 0.000264433)
(0.000264433 -4.28238e-05 -8.36226e-07 0.000264433 -3.3971e-20 0.000264433)
(0.000290847 -4.96689e-05 -9.87887e-07 0.000290847 -1.37036e-20 0.000290847)
(0.000290847 -4.96689e-05 -9.87887e-07 0.000290847 -3.9777e-20 0.000290847)
(0.000319452 -5.74556e-05 -1.16395e-06 0.000319452 -1.4874e-20 0.000319452)
(0.000319452 -5.74556e-05 -1.16395e-06 0.000319452 -4.61915e-20 0.000319452)
(0.000350385 -6.62868e-05 -1.36774e-06 0.000350385 -1.59124e-20 0.000350385)
(0.000350385 -6.62868e-05 -1.36774e-06 0.000350385 -5.34833e-20 0.000350385)
(0.000383786 -7.62721e-05 -1.60291e-06 0.000383786 -1.70879e-20 0.000383786)
(0.000383786 -7.62721e-05 -1.60291e-06 0.000383786 -6.20028e-20 0.000383786)
(0.000419794 -8.7527e-05 -1.87347e-06 0.000419794 -1.80388e-20 0.000419794)
(0.000419794 -8.7527e-05 -1.87347e-06 0.000419794 -7.12147e-20 0.000419794)
(0.000458553 -0.000100172 -2.18375e-06 0.000458553 -1.87102e-20 0.000458553)
(0.000458553 -0.000100172 -2.18375e-06 0.000458553 -8.13656e-20 0.000458553)
(0.000500203 -0.000114332 -2.53846e-06 0.000500203 -1.92932e-20 0.000500203)
(0.000500203 -0.000114332 -2.53846e-06 0.000500203 -9.25054e-20 0.000500203)
(0.000544883 -0.000130134 -2.94262e-06 0.000544883 -2.00053e-20 0.000544883)
(0.000544883 -0.000130134 -2.94262e-06 0.000544883 -1.04288e-19 0.000544883)
(0.000592728 -0.000147707 -3.40154e-06 0.000592728 -1.96573e-20 0.000592728)
(0.000592728 -0.000147707 -3.40154e-06 0.000592728 -1.17684e-19 0.000592728)
(0.000643869 -0.00016718 -3.92086e-06 0.000643869 -1.71175e-20 0.000643869)
(0.000643869 -0.00016718 -3.92086e-06 0.000643869 -1.32821e-19 0.000643869)
(0.000698428 -0.000188678 -4.50644e-06 0.000698428 -1.42307e-20 0.000698428)
(0.000698428 -0.000188678 -4.50644e-06 0.000698428 -1.49365e-19 0.000698428)
(0.000756518 -0.000212321 -5.16431e-06 0.000756518 -1.05661e-20 0.000756518)
(0.000756518 -0.000212321 -5.16431e-06 0.000756518 -1.67263e-19 0.000756518)
(0.000818241 -0.000238223 -5.90067e-06 0.000818241 -5.53659e-21 0.000818241)
(0.000818241 -0.000238223 -5.90067e-06 0.000818241 -1.83672e-19 0.000818241)
(0.000883683 -0.000266485 -6.72175e-06 0.000883683 2.09689e-21 0.000883683)
(0.000883683 -0.000266485 -6.72175e-06 0.000883683 -2.01926e-19 0.000883683)
(0.000952915 -0.000297198 -7.63375e-06 0.000952915 8.26081e-21 0.000952915)
(0.000952915 -0.000297198 -7.63375e-06 0.000952915 -2.22923e-19 0.000952915)
(0.00102599 -0.000330435 -8.64278e-06 0.00102599 2.00726e-20 0.00102599)
(0.00102599 -0.000330435 -8.64278e-06 0.00102599 -2.42579e-19 0.00102599)
(0.00110294 -0.000366252 -9.75472e-06 0.00110294 3.43735e-20 0.00110294)
(0.00110294 -0.000366252 -9.75472e-06 0.00110294 -2.61548e-19 0.00110294)
(0.00118377 -0.000404681 -1.09752e-05 0.00118377 5.33342e-20 0.00118377)
(0.00118377 -0.000404681 -1.09752e-05 0.00118377 -2.80807e-19 0.00118377)
(0.00126847 -0.000445736 -1.23093e-05 0.00126847 7.44733e-20 0.00126847)
(0.00126847 -0.000445736 -1.23093e-05 0.00126847 -3.00379e-19 0.00126847)
(0.001357 -0.000489403 -1.37618e-05 0.001357 9.96036e-20 0.001357)
(0.001357 -0.000489403 -1.37618e-05 0.001357 -3.20937e-19 0.001357)
(0.00144928 -0.000535645 -1.53367e-05 0.00144928 1.29857e-19 0.00144928)
(0.00144928 -0.000535645 -1.53367e-05 0.00144928 -3.4352e-19 0.00144928)
(0.00154524 -0.000584396 -1.70376e-05 0.00154524 1.64789e-19 0.00154524)
(0.00154524 -0.000584396 -1.70376e-05 0.00154524 -3.65407e-19 0.00154524)
(0.00164473 -0.000635566 -1.88672e-05 0.00164473 2.05178e-19 0.00164473)
(0.00164473 -0.000635566 -1.88672e-05 0.00164473 -3.82363e-19 0.00164473)
(0.00174763 -0.000689042 -2.08275e-05 0.00174763 2.43708e-19 0.00174763)
(0.00174763 -0.000689042 -2.08275e-05 0.00174763 -3.90262e-19 0.00174763)
(0.00185374 -0.000744685 -2.29197e-05 0.00185374 3.03333e-19 0.00185374)
(0.00185374 -0.000744685 -2.29197e-05 0.00185374 -4.10509e-19 0.00185374)
(0.00196288 -0.000802334 -2.51442e-05 0.00196288 3.67886e-19 0.00196288)
(0.00196288 -0.000802334 -2.51442e-05 0.00196288 -4.36791e-19 0.00196288)
(0.00207483 -0.000861813 -2.75007e-05 0.00207483 4.20036e-19 0.00207483)
(0.00207483 -0.000861813 -2.75007e-05 0.00207483 -4.43215e-19 0.00207483)
(0.00218934 -0.000922925 -2.99883e-05 0.00218934 4.86584e-19 0.00218934)
(0.00218934 -0.000922925 -2.99883e-05 0.00218934 -4.45169e-19 0.00218934)
(0.00230615 -0.000985465 -3.2605e-05 0.00230615 5.55225e-19 0.00230615)
(0.00230615 -0.000985465 -3.2605e-05 0.00230615 -4.41881e-19 0.00230615)
(0.00242501 -0.00104922 -3.53485e-05 0.00242501 6.33193e-19 0.00242501)
(0.00242501 -0.00104922 -3.53485e-05 0.00242501 -4.60036e-19 0.00242501)
(0.00254561 -0.00111396 -3.82159e-05 0.00254561 7.25346e-19 0.00254561)
(0.00254561 -0.00111396 -3.82159e-05 0.00254561 -4.81649e-19 0.00254561)
(0.00266769 -0.00117946 -4.12038e-05 0.00266769 8.1031e-19 0.00266769)
(0.00266769 -0.00117946 -4.12038e-05 0.00266769 -4.78139e-19 0.00266769)
(0.00279093 -0.00124551 -4.43084e-05 0.00279093 8.93591e-19 0.00279093)
(0.00279093 -0.00124551 -4.43084e-05 0.00279093 -4.69947e-19 0.00279093)
(0.00291504 -0.00131189 -4.75254e-05 0.00291504 9.98004e-19 0.00291504)
(0.00291504 -0.00131189 -4.75254e-05 0.00291504 -4.69548e-19 0.00291504)
(0.00303973 -0.00137837 -5.08507e-05 0.00303973 1.08064e-18 0.00303973)
(0.00303973 -0.00137837 -5.08507e-05 0.00303973 -5.02802e-19 0.00303973)
(0.00316471 -0.00144477 -5.42797e-05 0.00316471 1.15895e-18 0.00316471)
(0.00316471 -0.00144477 -5.42797e-05 0.00316471 -5.28551e-19 0.00316471)
(0.0032897 -0.00151088 -5.78079e-05 0.0032897 1.27032e-18 0.0032897)
(0.0032897 -0.00151088 -5.78079e-05 0.0032897 -5.43112e-19 0.0032897)
(0.00341442 -0.00157653 -6.14308e-05 0.00341442 1.36556e-18 0.00341442)
(0.00341442 -0.00157653 -6.14308e-05 0.00341442 -5.95854e-19 0.00341442)
(0.00353861 -0.00164156 -6.51439e-05 0.00353861 1.47488e-18 0.00353861)
(0.00353861 -0.00164156 -6.51439e-05 0.00353861 -6.15685e-19 0.00353861)
(0.00366203 -0.0017058 -6.89429e-05 0.00366203 1.67074e-18 0.00366203)
(0.00366203 -0.0017058 -6.89429e-05 0.00366203 -6.38635e-19 0.00366203)
(0.00378444 -0.00176913 -7.28236e-05 0.00378444 1.80594e-18 0.00378444)
(0.00378444 -0.00176913 -7.28236e-05 0.00378444 -6.63238e-19 0.00378444)
(0.00390561 -0.00183142 -7.6782e-05 0.00390561 1.86524e-18 0.00390561)
(0.00390561 -0.00183142 -7.6782e-05 0.00390561 -6.56988e-19 0.00390561)
(0.00402535 -0.00189257 -8.08145e-05 0.00402535 1.98264e-18 0.00402535)
(0.00402535 -0.00189257 -8.08145e-05 0.00402535 -6.50049e-19 0.00402535)
(0.00414348 -0.00195248 -8.49175e-05 0.00414348 2.09728e-18 0.00414348)
(0.00414348 -0.00195248 -8.49175e-05 0.00414348 -6.69093e-19 0.00414348)
(0.00425982 -0.00201106 -8.90878e-05 0.00425982 2.16675e-18 0.00425982)
(0.00425982 -0.00201106 -8.90878e-05 0.00425982 -6.75203e-19 0.00425982)
(0.00437422 -0.00206827 -9.33225e-05 0.00437422 2.26051e-18 0.00437422)
(0.00437422 -0.00206827 -9.33225e-05 0.00437422 -6.89297e-19 0.00437422)
(0.00448655 -0.00212403 -9.76189e-05 0.00448655 2.35621e-18 0.00448655)
(0.00448655 -0.00212403 -9.76189e-05 0.00448655 -6.83321e-19 0.00448655)
(0.00459668 -0.00217831 -0.000101975 0.00459668 2.50901e-18 0.00459668)
(0.00459668 -0.00217831 -0.000101975 0.00459668 -6.2583e-19 0.00459668)
(0.00470451 -0.00223107 -0.000106388 0.00470451 2.68872e-18 0.00470451)
(0.00470451 -0.00223107 -0.000106388 0.00470451 -5.84831e-19 0.00470451)
(0.00480995 -0.00228228 -0.000110856 0.00480995 2.87684e-18 0.00480995)
(0.00480995 -0.00228228 -0.000110856 0.00480995 -6.709e-19 0.00480995)
(0.00491293 -0.00233195 -0.000115378 0.00491293 3.03779e-18 0.00491293)
(0.00491293 -0.00233195 -0.000115378 0.00491293 -7.05253e-19 0.00491293)
(0.00501337 -0.00238004 -0.000119952 0.00501337 3.188e-18 0.00501337)
(0.00501337 -0.00238004 -0.000119952 0.00501337 -7.10011e-19 0.00501337)
(0.00511124 -0.00242657 -0.000124578 0.00511124 3.36219e-18 0.00511124)
(0.00511124 -0.00242657 -0.000124578 0.00511124 -7.67043e-19 0.00511124)
(0.00520649 -0.00247154 -0.000129253 0.00520649 3.4431e-18 0.00520649)
(0.00520649 -0.00247154 -0.000129253 0.00520649 -8.11681e-19 0.00520649)
(0.0052991 -0.00251495 -0.000133978 0.0052991 3.40924e-18 0.0052991)
(0.0052991 -0.00251495 -0.000133978 0.0052991 -8.36658e-19 0.0052991)
(0.00538904 -0.00255682 -0.000138752 0.00538904 3.40045e-18 0.00538904)
(0.00538904 -0.00255682 -0.000138752 0.00538904 -7.93645e-19 0.00538904)
(0.0054763 -0.00259718 -0.000143575 0.0054763 3.71656e-18 0.0054763)
(0.0054763 -0.00259718 -0.000143575 0.0054763 -8.02344e-19 0.0054763)
(0.00556089 -0.00263603 -0.000148445 0.00556089 3.38139e-18 0.00556089)
(0.00556089 -0.00263603 -0.000148445 0.00556089 -7.91322e-19 0.00556089)
(0.0056428 -0.00267341 -0.000153364 0.0056428 1.44292e-18 0.0056428)
(0.0056428 -0.00267341 -0.000153364 0.0056428 -7.41817e-19 0.0056428)
(0.00572204 -0.00270933 -0.00015833 0.00572204 9.91109e-20 0.00572204)
(0.00572204 -0.00270933 -0.00015833 0.00572204 -5.46369e-19 0.00572204)
(0.00579864 -0.00274383 -0.000163344 0.00579864 8.37349e-20 0.00579864)
(0.00579864 -0.00274383 -0.000163344 0.00579864 -1.52269e-18 0.00579864)
(0.00587261 -0.00277694 -0.000168407 0.00587261 1.04792e-20 0.00587261)
(0.00587261 -0.00277694 -0.000168407 0.00587261 -3.31346e-18 0.00587261)
(0.00594399 -0.00280868 -0.000173518 0.00594399 7.84931e-20 0.00594399)
(0.00594399 -0.00280868 -0.000173518 0.00594399 -4.09236e-18 0.00594399)
(0.00601279 -0.00283909 -0.000178678 0.00601279 1.12645e-19 0.00601279)
(0.00601279 -0.00283909 -0.000178678 0.00601279 -4.29098e-18 0.00601279)
(0.00607905 -0.00286819 -0.000183888 0.00607905 1.94706e-21 0.00607905)
(0.00607905 -0.00286819 -0.000183888 0.00607905 -4.4168e-18 0.00607905)
(0.00614282 -0.00289602 -0.000189147 0.00614282 -6.00788e-20 0.00614282)
(0.00614282 -0.00289602 -0.000189147 0.00614282 -4.27897e-18 0.00614282)
(0.00620411 -0.00292261 -0.000194456 0.00620411 -6.43266e-20 0.00620411)
(0.00620411 -0.00292261 -0.000194456 0.00620411 -4.2424e-18 0.00620411)
(0.00626298 -0.00294798 -0.000199816 0.00626298 -1.44127e-19 0.00626298)
(0.00626298 -0.00294798 -0.000199816 0.00626298 -4.62995e-18 0.00626298)
(0.00631946 -0.00297218 -0.000205227 0.00631946 -3.98818e-20 0.00631946)
(0.00631946 -0.00297218 -0.000205227 0.00631946 -4.92812e-18 0.00631946)
(0.0063736 -0.00299522 -0.000210691 0.0063736 1.91777e-19 0.0063736)
(0.0063736 -0.00299522 -0.000210691 0.0063736 -4.89952e-18 0.0063736)
(0.00642544 -0.00301715 -0.000216207 0.00642544 5.95032e-20 0.00642544)
(0.00642544 -0.00301715 -0.000216207 0.00642544 -4.9277e-18 0.00642544)
(0.00647501 -0.00303799 -0.000221776 0.00647501 -2.1665e-20 0.00647501)
(0.00647501 -0.00303799 -0.000221776 0.00647501 -5.11945e-18 0.00647501)
(0.00652237 -0.00305776 -0.000227399 0.00652237 -6.12741e-20 0.00652237)
(0.00652237 -0.00305776 -0.000227399 0.00652237 -5.36352e-18 0.00652237)
(0.00656756 -0.00307649 -0.000233077 0.00656756 -2.94677e-19 0.00656756)
(0.00656756 -0.00307649 -0.000233077 0.00656756 -5.70838e-18 0.00656756)
(0.00661062 -0.00309422 -0.00023881 0.00661062 -6.77656e-20 0.00661062)
(0.00661062 -0.00309422 -0.00023881 0.00661062 -6.11622e-18 0.00661062)
(0.00665159 -0.00311097 -0.000244599 0.00665159 -9.59385e-20 0.00665159)
(0.00665159 -0.00311097 -0.000244599 0.00665159 -6.19394e-18 0.00665159)
(0.00669052 -0.00312676 -0.000250444 0.00669052 1.114e-19 0.00669052)
(0.00669052 -0.00312676 -0.000250444 0.00669052 -6.23406e-18 0.00669052)
(0.00672745 -0.00314162 -0.000256347 0.00672745 1.34683e-19 0.00672745)
(0.00672745 -0.00314162 -0.000256347 0.00672745 -6.16725e-18 0.00672745)
(0.00676241 -0.00315557 -0.000262307 0.00676241 1.05826e-19 0.00676241)
(0.00676241 -0.00315557 -0.000262307 0.00676241 -6.1097e-18 0.00676241)
(0.00679546 -0.00316863 -0.000268325 0.00679546 2.60486e-19 0.00679546)
(0.00679546 -0.00316863 -0.000268325 0.00679546 -5.84747e-18 0.00679546)
(0.00682662 -0.00318083 -0.000274402 0.00682662 1.73963e-19 0.00682662)
(0.00682662 -0.00318083 -0.000274402 0.00682662 -5.48311e-18 0.00682662)
(0.00685594 -0.00319219 -0.000280539 0.00685594 4.48984e-19 0.00685594)
(0.00685594 -0.00319219 -0.000280539 0.00685594 -5.62403e-18 0.00685594)
(0.00688346 -0.00320272 -0.000286735 0.00688346 1.24889e-19 0.00688346)
(0.00688346 -0.00320272 -0.000286735 0.00688346 -5.17374e-18 0.00688346)
(0.0069092 -0.00321245 -0.000292991 0.0069092 2.02463e-19 0.0069092)
(0.0069092 -0.00321245 -0.000292991 0.0069092 -4.42451e-18 0.0069092)
(0.00693322 -0.0032214 -0.000299308 0.00693322 3.58515e-19 0.00693322)
(0.00693322 -0.0032214 -0.000299308 0.00693322 -3.7613e-18 0.00693322)
(0.00695553 -0.00322957 -0.000305686 0.00695553 3.3673e-19 0.00695553)
(0.00695553 -0.00322957 -0.000305686 0.00695553 -3.02309e-18 0.00695553)
(0.00697619 -0.003237 -0.000312126 0.00697619 3.76649e-19 0.00697619)
(0.00697619 -0.003237 -0.000312126 0.00697619 -2.30107e-18 0.00697619)
(0.00699521 -0.00324369 -0.000318627 0.00699521 4.63452e-19 0.00699521)
(0.00699521 -0.00324369 -0.000318627 0.00699521 -1.28456e-18 0.00699521)
(0.00701262 -0.00324965 -0.000325189 0.00701262 3.62069e-19 0.00701262)
(0.00701262 -0.00324965 -0.000325189 0.00701262 -1.21753e-18 0.00701262)
(0.00702847 -0.00325492 -0.000331814 0.00702847 -7.08651e-20 0.00702847)
(0.00702847 -0.00325492 -0.000331814 0.00702847 -1.56246e-19 0.00702847)
(0.00704278 -0.00325949 -0.0003385 0.00704278 -2.96145e-20 0.00704278)
(0.00704278 -0.00325949 -0.0003385 0.00704278 3.88367e-19 0.00704278)
(0.00705557 -0.00326338 -0.000345248 0.00705557 1.40976e-19 0.00705557)
(0.00705557 -0.00326338 -0.000345248 0.00705557 4.76172e-19 0.00705557)
(0.00706687 -0.00326661 -0.000352058 0.00706687 6.93398e-19 0.00706687)
(0.00706687 -0.00326661 -0.000352058 0.00706687 1.08588e-19 0.00706687)
(0.00707671 -0.00326918 -0.00035893 0.00707671 4.51074e-19 0.00707671)
(0.00707671 -0.00326918 -0.00035893 0.00707671 2.69398e-19 0.00707671)
(0.00708511 -0.0032711 -0.000365864 0.00708511 7.56769e-19 0.00708511)
(0.00708511 -0.0032711 -0.000365864 0.00708511 5.69661e-19 0.00708511)
(0.0070921 -0.00327239 -0.000372858 0.0070921 2.81188e-19 0.0070921)
(0.0070921 -0.00327239 -0.000372858 0.0070921 1.22335e-18 0.0070921)
(0.00709769 -0.00327306 -0.000379913 0.00709769 7.74943e-19 0.00709769)
(0.00709769 -0.00327306 -0.000379913 0.00709769 1.41876e-18 0.00709769)
(0.00710192 -0.00327311 -0.000387029 0.00710192 6.03921e-19 0.00710192)
(0.00710192 -0.00327311 -0.000387029 0.00710192 1.7518e-18 0.00710192)
(0.00710479 -0.00327256 -0.000394204 0.00710479 2.35793e-18 0.00710479)
(0.00710479 -0.00327256 -0.000394204 0.00710479 1.13331e-18 0.00710479)
(0.00710633 -0.0032714 -0.000401439 0.00710633 3.73351e-18 0.00710633)
(0.00710633 -0.0032714 -0.000401439 0.00710633 4.31189e-19 0.00710633)
(0.00710655 -0.00326966 -0.000408731 0.00710655 3.94846e-19 0.00710655)
(0.00710655 -0.00326966 -0.000408731 0.00710655 6.80798e-18 0.00710655)
(0.00710548 -0.00326732 -0.000416081 0.00710548 -7.94619e-19 0.00710548)
(0.00710548 -0.00326732 -0.000416081 0.00710548 6.76053e-18 0.00710548)
(0.00710313 -0.00326441 -0.000423488 0.00710313 2.89756e-19 0.00710313)
(0.00710313 -0.00326441 -0.000423488 0.00710313 7.09598e-18 0.00710313)
(0.00709952 -0.00326093 -0.000430949 0.00709952 1.32308e-18 0.00709952)
(0.00709952 -0.00326093 -0.000430949 0.00709952 6.99573e-18 0.00709952)
(0.00709465 -0.00325687 -0.000438465 0.00709465 1.38057e-18 0.00709465)
(0.00709465 -0.00325687 -0.000438465 0.00709465 6.91737e-18 0.00709465)
(0.00708855 -0.00325226 -0.000446033 0.00708855 1.49323e-18 0.00708855)
(0.00708855 -0.00325226 -0.000446033 0.00708855 9.61639e-18 0.00708855)
(0.00708122 -0.00324708 -0.000453652 0.00708122 2.57016e-18 0.00708122)
(0.00708122 -0.00324708 -0.000453652 0.00708122 7.36761e-18 0.00708122)
(0.00707267 -0.00324135 -0.00046132 0.00707267 1.97721e-18 0.00707267)
(0.00707267 -0.00324135 -0.00046132 0.00707267 4.29749e-18 0.00707267)
(0.00706293 -0.00323506 -0.000469036 0.00706293 -3.74466e-20 0.00706293)
(0.00706293 -0.00323506 -0.000469036 0.00706293 7.47009e-18 0.00706293)
(0.00705199 -0.00322823 -0.000476797 0.00705199 1.75426e-20 0.00705199)
(0.00705199 -0.00322823 -0.000476797 0.00705199 1.25906e-17 0.00705199)
(0.00703987 -0.00322085 -0.000484601 0.00703987 1.33428e-18 0.00703987)
(0.00703987 -0.00322085 -0.000484601 0.00703987 1.16723e-17 0.00703987)
(0.00702657 -0.00321292 -0.000492447 0.00702657 2.32761e-18 0.00702657)
(0.00702657 -0.00321292 -0.000492447 0.00702657 1.29364e-17 0.00702657)
(0.00701211 -0.00320445 -0.00050033 0.00701211 2.06341e-18 0.00701211)
(0.00701211 -0.00320445 -0.00050033 0.00701211 1.6448e-17 0.00701211)
(0.00699648 -0.00319544 -0.00050825 0.00699648 9.40948e-19 0.00699648)
(0.00699648 -0.00319544 -0.00050825 0.00699648 1.68442e-17 0.00699648)
(0.0069797 -0.00318588 -0.000516202 0.0069797 1.79e-18 0.0069797)
(0.0069797 -0.00318588 -0.000516202 0.0069797 1.4831e-17 0.0069797)
(0.00696177 -0.00317579 -0.000524184 0.00696177 1.57951e-18 0.00696177)
(0.00696177 -0.00317579 -0.000524184 0.00696177 1.30459e-17 0.00696177)
(0.0069427 -0.00316515 -0.000532192 0.0069427 1.78919e-18 0.0069427)
(0.0069427 -0.00316515 -0.000532192 0.0069427 1.59191e-17 0.0069427)
(0.00692249 -0.00315397 -0.000540223 0.00692249 7.92159e-20 0.00692249)
(0.00692249 -0.00315397 -0.000540223 0.00692249 2.03713e-17 0.00692249)
(0.00690113 -0.00314225 -0.000548273 0.00690113 3.47291e-18 0.00690113)
(0.00690113 -0.00314225 -0.000548273 0.00690113 2.13374e-17 0.00690113)
(0.00687865 -0.00312999 -0.000556338 0.00687865 2.20068e-18 0.00687865)
(0.00687865 -0.00312999 -0.000556338 0.00687865 2.08954e-17 0.00687865)
(0.00685503 -0.00311718 -0.000564413 0.00685503 3.62198e-18 0.00685503)
(0.00685503 -0.00311718 -0.000564413 0.00685503 1.83527e-17 0.00685503)
(0.00683028 -0.00310383 -0.000572494 0.00683028 -1.49007e-19 0.00683028)
(0.00683028 -0.00310383 -0.000572494 0.00683028 1.84592e-17 0.00683028)
(0.00680441 -0.00308993 -0.000580576 0.00680441 1.18149e-19 0.00680441)
(0.00680441 -0.00308993 -0.000580576 0.00680441 1.94329e-17 0.00680441)
(0.0067774 -0.00307548 -0.000588654 0.0067774 2.95569e-18 0.0067774)
(0.0067774 -0.00307548 -0.000588654 0.0067774 1.78796e-17 0.0067774)
(0.00674926 -0.00306048 -0.000596722 0.00674926 5.02836e-18 0.00674926)
(0.00674926 -0.00306048 -0.000596722 0.00674926 1.74023e-17 0.00674926)
(0.00671999 -0.00304492 -0.000604775 0.00671999 3.87387e-18 0.00671999)
(0.00671999 -0.00304492 -0.000604775 0.00671999 1.56379e-17 0.00671999)
(0.00668959 -0.00302881 -0.000612806 0.00668959 8.10817e-19 0.00668959)
(0.00668959 -0.00302881 -0.000612806 0.00668959 2.06019e-17 0.00668959)
(0.00665806 -0.00301213 -0.000620809 0.00665806 -2.48695e-18 0.00665806)
(0.00665806 -0.00301213 -0.000620809 0.00665806 2.54469e-17 0.00665806)
(0.00662539 -0.00299489 -0.000628777 0.00662539 1.89658e-19 0.00662539)
(0.00662539 -0.00299489 -0.000628777 0.00662539 2.28271e-17 0.00662539)
(0.00659158 -0.00297707 -0.000636703 0.00659158 9.36009e-18 0.00659158)
(0.00659158 -0.00297707 -0.000636703 0.00659158 2.36102e-17 0.00659158)
(0.00655662 -0.00295868 -0.00064458 0.00655662 2.40464e-18 0.00655662)
(0.00655662 -0.00295868 -0.00064458 0.00655662 3.18775e-17 0.00655662)
(0.00652052 -0.00293972 -0.000652398 0.00652052 -3.59931e-19 0.00652052)
(0.00652052 -0.00293972 -0.000652398 0.00652052 2.792e-17 0.00652052)
(0.00648327 -0.00292017 -0.00066015 0.00648327 1.1275e-18 0.00648327)
(0.00648327 -0.00292017 -0.00066015 0.00648327 1.52076e-17 0.00648327)
(0.00644487 -0.00290003 -0.000667827 0.00644487 1.53133e-18 0.00644487)
(0.00644487 -0.00290003 -0.000667827 0.00644487 1.1393e-17 0.00644487)
(0.00640531 -0.00287929 -0.00067542 0.00640531 2.96352e-18 0.00640531)
(0.00640531 -0.00287929 -0.00067542 0.00640531 1.37965e-17 0.00640531)
(0.00636458 -0.00285796 -0.000682918 0.00636458 1.47003e-18 0.00636458)
(0.00636458 -0.00285796 -0.000682918 0.00636458 1.23055e-17 0.00636458)
(0.00632268 -0.00283602 -0.000690311 0.00632268 -1.67338e-18 0.00632268)
(0.00632268 -0.00283602 -0.000690311 0.00632268 1.96747e-17 0.00632268)
(0.0062796 -0.00281347 -0.000697588 0.0062796 -5.06736e-18 0.0062796)
(0.0062796 -0.00281347 -0.000697588 0.0062796 2.21239e-17 0.0062796)
(0.00623534 -0.00279029 -0.000704738 0.00623534 3.56807e-18 0.00623534)
(0.00623534 -0.00279029 -0.000704738 0.00623534 1.65948e-17 0.00623534)
(0.0061899 -0.0027665 -0.000711749 0.0061899 6.10877e-18 0.0061899)
(0.0061899 -0.0027665 -0.000711749 0.0061899 7.13432e-18 0.0061899)
(0.00614326 -0.00274207 -0.000718608 0.00614326 1.07025e-32 0.00614326)
(0.00614326 -0.00274207 -0.000718608 0.00614326 1.22081e-17 0.00614326)
(0.00609541 -0.002717 -0.000725302 0.00609541 1.56143e-19 0.00609541)
(0.00609541 -0.002717 -0.000725302 0.00609541 3.06903e-18 0.00609541)
(0.00604636 -0.00269128 -0.000731817 0.00604636 3.61193e-18 0.00604636)
(0.00604636 -0.00269128 -0.000731817 0.00604636 -9.44372e-18 0.00604636)
(0.0059961 -0.00266491 -0.000738139 0.0059961 5.94202e-18 0.0059961)
(0.0059961 -0.00266491 -0.000738139 0.0059961 7.75754e-18 0.0059961)
(0.00594461 -0.00263788 -0.000744251 0.00594461 1.96945e-18 0.00594461)
(0.00594461 -0.00263788 -0.000744251 0.00594461 1.43484e-17 0.00594461)