/*--------------------------------*- C++ -*----------------------------------*\
| =========                 |                                                 |
| \\      /  F ield         | OpenFOAM: The Open Source CFD Toolbox           |
|  \\    /   O peration     | Version:  2106                                  |
|   \\  /    A nd           | Website:  www.openfoam.com                      |
|    \\/     M anipulation  |                                                 |
\*---------------------------------------------------------------------------*/
FoamFile
{
    version     2.0;
    format      ascii;
    arch        "LSB;label=32;scalar=64";
    class       volVectorField;
    location    "10080";
    object      U;
}
// * * * * * * * * * * * * * * * * * * * * * * * * * * * * * * * * * * * * * //

dimensions      [0 1 -1 0 0 0 0];

internalField   nonuniform List<vector> 
2000
(
(0.0012025 -5.95892e-16 6.24654e-18)
(0.0012025 5.32753e-20 6.70947e-18)
(0.0036295 -5.04214e-16 2.26777e-17)
(0.0036295 2.37384e-19 3.03505e-17)
(0.00610133 -1.2466e-15 2.10051e-17)
(0.00610133 5.78726e-19 3.14895e-17)
(0.00861881 -8.76997e-16 2.40966e-17)
(0.00861881 9.26476e-19 3.26684e-17)
(0.0111828 -8.66921e-16 2.56142e-17)
(0.0111828 1.28216e-18 3.38886e-17)
(0.013794 -8.73588e-16 2.68878e-17)
(0.013794 1.63903e-18 3.51511e-17)
(0.0164535 -8.75802e-16 2.87536e-17)
(0.0164535 2.00418e-18 3.64572e-17)
(0.019162 -8.75661e-16 3.08108e-17)
(0.019162 2.39044e-18 3.78086e-17)
(0.0219204 -8.7581e-16 3.29021e-17)
(0.0219204 2.77402e-18 3.9207e-17)
(0.0247297 -8.76525e-16 3.50596e-17)
(0.0247297 3.17581e-18 4.06533e-17)
(0.0275907 -8.77371e-16 3.731e-17)
(0.0275907 3.60396e-18 4.21489e-17)
(0.0305044 -8.78192e-16 3.96607e-17)
(0.0305044 4.05361e-18 4.36953e-17)
(0.0334718 -8.78976e-16 4.21157e-17)
(0.0334718 4.5092e-18 4.52946e-17)
(0.0364938 -8.79758e-16 4.46789e-17)
(0.0364938 4.95333e-18 4.69481e-17)
(0.0395714 -8.80564e-16 4.73553e-17)
(0.0395714 5.42155e-18 4.86588e-17)
(0.0427055 -8.81406e-16 5.01499e-17)
(0.0427055 5.88043e-18 5.04266e-17)
(0.0458973 -8.82281e-16 5.30649e-17)
(0.0458973 6.33479e-18 5.22541e-17)
(0.0491478 -8.83148e-16 5.61082e-17)
(0.0491478 6.80564e-18 5.41437e-17)
(0.0524579 -8.8401e-16 5.9283e-17)
(0.0524579 7.24738e-18 5.60964e-17)
(0.0558288 -8.8489e-16 6.25969e-17)
(0.0558288 7.67882e-18 5.81139e-17)
(0.0592616 -8.85791e-16 6.60528e-17)
(0.0592616 8.15817e-18 6.02008e-17)
(0.0627574 -8.86748e-16 6.96576e-17)
(0.0627574 8.65014e-18 6.23581e-17)
(0.0663173 -8.87732e-16 7.34182e-17)
(0.0663173 9.17856e-18 6.4587e-17)
(0.0699424 -8.88774e-16 7.73351e-17)
(0.0699424 9.81051e-18 6.68896e-17)
(0.0736339 -8.89872e-16 8.14219e-17)
(0.0736339 1.04216e-17 6.9267e-17)
(0.077393 -8.90998e-16 8.56811e-17)
(0.077393 1.10209e-17 7.17225e-17)
(0.0812209 -8.92186e-16 9.01188e-17)
(0.0812209 1.16321e-17 7.3907e-17)
(0.0851189 -8.9343e-16 9.47409e-17)
(0.0851189 1.22036e-17 7.57047e-17)
(0.089088 -8.94586e-16 9.95575e-17)
(0.089088 1.28222e-17 7.75459e-17)
(0.0931296 -8.95637e-16 1.04574e-16)
(0.0931296 1.33779e-17 7.94294e-17)
(0.097245 -8.96723e-16 1.09806e-16)
(0.097245 1.40151e-17 8.1353e-17)
(0.101435 -8.97857e-16 1.15249e-16)
(0.101435 1.47076e-17 8.33215e-17)
(0.105702 -8.99069e-16 1.20917e-16)
(0.105702 1.52961e-17 8.53366e-17)
(0.110047 -9.0038e-16 1.26823e-16)
(0.110047 1.5922e-17 8.73903e-17)
(0.11447 -9.01697e-16 1.32967e-16)
(0.11447 1.66482e-17 8.94898e-17)
(0.118974 -9.03031e-16 1.39359e-16)
(0.118974 1.73284e-17 9.16296e-17)
(0.123559 -9.0439e-16 1.46013e-16)
(0.123559 1.79406e-17 9.38058e-17)
(0.128227 -9.05883e-16 1.52939e-16)
(0.128227 1.87833e-17 9.60146e-17)
(0.13298 -9.07399e-16 1.60136e-16)
(0.13298 1.94972e-17 9.82597e-17)
(0.137818 -9.088e-16 1.6762e-16)
(0.137818 2.00443e-17 1.01346e-16)
(0.142743 -9.10211e-16 1.76185e-16)
(0.142743 2.07429e-17 1.04764e-16)
(0.147757 -9.11732e-16 1.85428e-16)
(0.147757 2.13699e-17 1.08277e-16)
(0.15286 -9.13431e-16 1.95056e-16)
(0.15286 2.1986e-17 1.11908e-16)
(0.158054 -9.15129e-16 2.05066e-16)
(0.158054 2.26462e-17 1.15645e-16)
(0.16334 -9.16773e-16 2.15491e-16)
(0.16334 2.34305e-17 1.1948e-16)
(0.16872 -9.18339e-16 2.23213e-16)
(0.16872 2.39866e-17 1.23431e-16)
(0.174195 -9.19936e-16 2.26571e-16)
(0.174195 2.43717e-17 1.27507e-16)
(0.179765 -9.21642e-16 2.29996e-16)
(0.179765 2.50659e-17 1.31707e-16)
(0.185432 -9.23293e-16 2.33487e-16)
(0.185432 2.58153e-17 1.36008e-16)
(0.191196 -9.24819e-16 2.37041e-16)
(0.191196 2.62828e-17 1.40432e-16)
(0.197059 -9.26279e-16 2.3934e-16)
(0.197059 2.66444e-17 1.45003e-16)
(0.203022 -9.28041e-16 2.4123e-16)
(0.203022 2.74822e-17 1.49677e-16)
(0.209085 -9.29696e-16 2.43048e-16)
(0.209085 2.81368e-17 1.54457e-16)
(0.215248 -9.31137e-16 2.44819e-16)
(0.215248 2.83258e-17 1.59368e-16)
(0.221511 -9.3264e-16 2.46535e-16)
(0.221511 2.87119e-17 1.64394e-16)
(0.227876 -9.34143e-16 2.48147e-16)
(0.227876 2.91062e-17 1.69505e-16)
(0.234341 -9.35841e-16 2.49683e-16)
(0.234341 2.92837e-17 1.74739e-16)
(0.240907 -9.37757e-16 2.51146e-16)
(0.240907 2.99385e-17 1.80071e-16)
(0.247572 -9.39979e-16 2.52504e-16)
(0.247572 3.05395e-17 1.85478e-16)
(0.254337 -9.42185e-16 2.53749e-16)
(0.254337 3.12709e-17 1.90948e-16)
(0.261199 -9.44211e-16 2.54891e-16)
(0.261199 3.23186e-17 1.96457e-16)
(0.268156 -9.45593e-16 2.55934e-16)
(0.268156 3.32106e-17 2.01982e-16)
(0.275208 -9.4667e-16 2.56803e-16)
(0.275208 3.34418e-17 2.07608e-16)
(0.282352 -9.48219e-16 2.57458e-16)
(0.282352 3.28262e-17 2.1326e-16)
(0.289585 -9.50082e-16 2.57975e-16)
(0.289585 3.34041e-17 2.1896e-16)
(0.296904 -9.52248e-16 2.58285e-16)
(0.296904 3.49061e-17 2.2465e-16)
(0.304305 -9.54483e-16 2.58425e-16)
(0.304305 3.55611e-17 2.30276e-16)
(0.311785 -9.56816e-16 2.58348e-16)
(0.311785 3.62986e-17 2.35888e-16)
(0.319339 -9.58965e-16 2.58045e-16)
(0.319339 3.7485e-17 2.41492e-16)
(0.326963 -9.60541e-16 2.57506e-16)
(0.326963 3.76171e-17 2.47023e-16)
(0.33465 -9.62336e-16 2.567e-16)
(0.33465 3.70814e-17 2.52424e-16)
(0.342397 -9.64594e-16 2.55591e-16)
(0.342397 3.77958e-17 2.57692e-16)
(0.350197 -9.66882e-16 2.54227e-16)
(0.350197 3.79737e-17 2.6289e-16)
(0.358043 -9.68981e-16 2.52522e-16)
(0.358043 3.72342e-17 2.67951e-16)
(0.365931 -9.71055e-16 2.50528e-16)
(0.365931 3.77974e-17 2.72937e-16)
(0.373852 -9.73341e-16 2.48194e-16)
(0.373852 3.80738e-17 2.77819e-16)
(0.381801 -9.75423e-16 2.45525e-16)
(0.381801 3.8599e-17 2.82451e-16)
(0.38977 -9.7718e-16 2.42668e-16)
(0.38977 3.8694e-17 2.86826e-16)
(0.397753 -9.79835e-16 2.39185e-16)
(0.397753 3.85407e-17 2.91245e-16)
(0.405744 -9.82922e-16 2.35536e-16)
(0.405744 3.91399e-17 2.95483e-16)
(0.413734 -9.86571e-16 2.31626e-16)
(0.413734 3.94725e-17 2.9944e-16)
(0.421719 -9.90087e-16 2.27338e-16)
(0.421719 4.05773e-17 3.03114e-16)
(0.429692 -9.92501e-16 2.22793e-16)
(0.429692 3.9512e-17 3.06594e-16)
(0.437645 -9.95035e-16 2.17894e-16)
(0.437645 3.88258e-17 3.10025e-16)
(0.445575 -9.98665e-16 2.12697e-16)
(0.445575 3.96381e-17 3.13267e-16)
(0.453475 -1.00295e-15 2.07318e-16)
(0.453475 3.96755e-17 3.1617e-16)
(0.46134 -1.0054e-15 2.01558e-16)
(0.46134 3.87716e-17 3.18753e-16)
(0.469164 -1.00808e-15 1.95574e-16)
(0.469164 3.66494e-17 3.21206e-16)
(0.476945 -1.01111e-15 1.89547e-16)
(0.476945 3.63491e-17 3.2362e-16)
(0.484677 -1.01293e-15 1.83265e-16)
(0.484677 3.49378e-17 3.25818e-16)
(0.492357 -1.01444e-15 1.76702e-16)
(0.492357 3.12846e-17 3.27886e-16)
(0.499982 -1.0152e-15 1.70066e-16)
(0.499982 3.05923e-17 3.29965e-16)
(0.507549 -1.01675e-15 1.63173e-16)
(0.507549 3.22096e-17 3.31866e-16)
(0.515054 -1.01942e-15 1.55514e-16)
(0.515054 3.30793e-17 3.33756e-16)
(0.522496 -1.02181e-15 1.48114e-16)
(0.522496 3.41864e-17 3.35503e-16)
(0.529873 -1.02504e-15 1.40692e-16)
(0.529873 3.43141e-17 3.36969e-16)
(0.537184 -1.02894e-15 1.33059e-16)
(0.537184 3.51803e-17 3.38339e-16)
(0.544426 -1.03242e-15 1.25363e-16)
(0.544426 3.66245e-17 3.3967e-16)
(0.5516 -1.03511e-15 1.17767e-16)
(0.5516 3.65329e-17 3.40789e-16)
(0.558703 -1.03804e-15 1.10022e-16)
(0.558703 3.54283e-17 3.4194e-16)
(0.565736 -1.03946e-15 1.02216e-16)
(0.565736 3.45463e-17 3.42811e-16)
(0.572698 -1.03958e-15 9.39077e-17)
(0.572698 3.38264e-17 3.43341e-16)
(0.57959 -1.03878e-15 8.55185e-17)
(0.57959 3.07032e-17 3.43732e-16)
(0.586411 -1.03751e-15 7.66963e-17)
(0.586411 2.81693e-17 3.44682e-16)
(0.593161 -1.03685e-15 6.79662e-17)
(0.593161 2.57969e-17 3.45089e-16)
(0.599841 -1.03741e-15 5.87686e-17)
(0.599841 2.33095e-17 3.45878e-16)
(0.606451 -1.03758e-15 4.95686e-17)
(0.606451 2.05838e-17 3.46454e-16)
(0.612992 -1.03574e-15 4.04477e-17)
(0.612992 1.48812e-17 3.47345e-16)
(0.619464 -1.03874e-15 3.22571e-17)
(0.619464 1.29897e-17 3.47957e-16)
(0.625869 -1.04192e-15 2.36645e-17)
(0.625869 1.51775e-17 3.48359e-16)
(0.632207 -1.04273e-15 1.41031e-17)
(0.632207 1.58919e-17 3.48685e-16)
(0.638479 -1.04566e-15 7.85011e-18)
(0.638479 1.4829e-17 3.48814e-16)
(0.644685 -1.0481e-15 7.70652e-18)
(0.644685 1.56096e-17 3.48555e-16)
(0.650828 -1.0499e-15 7.60995e-18)
(0.650828 1.17991e-17 3.47733e-16)
(0.656908 -1.05085e-15 7.44669e-18)
(0.656908 6.81988e-18 3.51937e-16)
(0.662926 -1.04932e-15 7.56692e-18)
(0.662926 2.90198e-18 3.588e-16)
(0.668883 -1.04899e-15 7.29823e-18)
(0.668883 -2.05415e-18 3.66009e-16)
(0.67478 -1.05059e-15 7.30205e-18)
(0.67478 -6.32127e-18 3.73279e-16)
(0.680618 -1.04916e-15 7.29012e-18)
(0.680618 -1.22966e-17 3.80687e-16)
(0.686399 -1.04589e-15 7.73496e-18)
(0.686399 -1.62298e-17 3.87142e-16)
(0.692124 -1.04533e-15 7.9786e-18)
(0.692124 -1.92202e-17 3.9405e-16)
(0.697794 -1.04309e-15 8.36975e-18)
(0.697794 -2.65391e-17 4.01563e-16)
(0.703409 -1.03698e-15 8.43797e-18)
(0.703409 -3.33267e-17 4.09322e-16)
(0.708971 -1.03424e-15 8.51878e-18)
(0.708971 -4.00195e-17 4.16543e-16)
(0.714482 -1.0323e-15 8.61296e-18)
(0.714482 -4.16787e-17 4.24311e-16)
(0.719941 -1.02998e-15 8.8838e-18)
(0.719941 -4.52758e-17 4.3187e-16)
(0.725351 -1.02913e-15 9.17833e-18)
(0.725351 -5.1287e-17 4.4021e-16)
(0.730712 -1.02616e-15 1.00501e-17)
(0.730712 -5.57305e-17 4.48903e-16)
(0.736026 -1.025e-15 9.8619e-18)
(0.736026 -6.32506e-17 4.58345e-16)
(0.741292 -1.02176e-15 1.05679e-17)
(0.741292 -6.52971e-17 4.67135e-16)
(0.746514 -1.02148e-15 9.99763e-18)
(0.746514 -6.70341e-17 4.76523e-16)
(0.75169 -1.02253e-15 1.03037e-17)
(0.75169 -6.84417e-17 4.84742e-16)
(0.756823 -1.02199e-15 9.64292e-18)
(0.756823 -6.98245e-17 4.93574e-16)
(0.761914 -1.0224e-15 9.56056e-18)
(0.761914 -6.91117e-17 5.00531e-16)
(0.766963 -1.01964e-15 9.08475e-18)
(0.766963 -6.89028e-17 5.07853e-16)
(0.77197 -1.02208e-15 8.63266e-18)
(0.77197 -7.23939e-17 5.1478e-16)
(0.776938 -1.02044e-15 8.70053e-18)
(0.776938 -7.62514e-17 5.20314e-16)
(0.781867 -1.01595e-15 8.30569e-18)
(0.781867 -7.61323e-17 5.24789e-16)
(0.786758 -1.01188e-15 8.45019e-18)
(0.786758 -7.28888e-17 5.28036e-16)
(0.791611 -1.00699e-15 8.05877e-18)
(0.791611 -8.08873e-17 5.29924e-16)
(0.796428 -1.00199e-15 8.27668e-18)
(0.796428 -8.46783e-17 5.31254e-16)
(0.801209 -9.98372e-16 7.66539e-18)
(0.801209 -8.27527e-17 5.31092e-16)
(0.805956 -9.96422e-16 7.95037e-18)
(0.805956 -8.70128e-17 5.29363e-16)
(0.810667 -9.90859e-16 8.27051e-18)
(0.810667 -8.97399e-17 5.27509e-16)
(0.815346 -9.83283e-16 9.20114e-18)
(0.815346 -9.96501e-17 5.24364e-16)
(0.819992 -9.71174e-16 9.47022e-18)
(0.819992 -1.12049e-16 5.22688e-16)
(0.824605 -9.64566e-16 9.85597e-18)
(0.824605 -1.2376e-16 5.20943e-16)
(0.829187 -9.57228e-16 9.65195e-18)
(0.829187 -1.35196e-16 5.19184e-16)
(0.833739 -9.47628e-16 9.38947e-18)
(0.833739 -1.4307e-16 5.17165e-16)
(0.83826 -9.28059e-16 1.10853e-17)
(0.83826 -1.57266e-16 5.13917e-16)
(0.842752 -9.15037e-16 1.18043e-17)
(0.842752 -1.71086e-16 5.12497e-16)
(0.847214 -9.08708e-16 1.25229e-17)
(0.847214 -1.81617e-16 5.09339e-16)
(0.851649 -9.13153e-16 6.86416e-18)
(0.851649 -1.93647e-16 5.09871e-16)
(0.856056 -9.21287e-16 4.46532e-18)
(0.856056 -1.97733e-16 5.02391e-16)
(0.860435 -9.20027e-16 5.83798e-18)
(0.860435 -2.03637e-16 4.9274e-16)
(0.864788 -9.12243e-16 6.90822e-18)
(0.864788 -2.1299e-16 4.85561e-16)
(0.869114 -9.02759e-16 7.08505e-18)
(0.869114 -2.17295e-16 4.76133e-16)
(0.873415 -8.96288e-16 5.90944e-18)
(0.873415 -2.33495e-16 4.69881e-16)
(0.877691 -8.88818e-16 5.20109e-18)
(0.877691 -2.48928e-16 4.61665e-16)
(0.881942 -8.76941e-16 4.04543e-18)
(0.881942 -2.48363e-16 4.49988e-16)
(0.886168 -8.639e-16 1.80906e-18)
(0.886168 -2.57942e-16 4.47811e-16)
(0.890371 -8.52328e-16 2.65498e-18)
(0.890371 -2.66707e-16 4.44462e-16)
(0.89455 -8.41613e-16 5.28743e-18)
(0.89455 -2.79679e-16 4.32395e-16)
(0.898706 -8.26825e-16 5.7638e-18)
(0.898706 -2.91323e-16 4.19518e-16)
(0.90284 -8.12982e-16 6.31652e-18)
(0.90284 -2.90551e-16 4.1051e-16)
(0.90695 -8.07462e-16 4.01974e-18)
(0.90695 -3.00435e-16 3.94451e-16)
(0.911039 -8.00941e-16 2.77451e-18)
(0.911039 -3.08234e-16 3.78087e-16)
(0.915107 -7.82516e-16 3.71793e-18)
(0.915107 -3.15749e-16 3.61367e-16)
(0.919153 -7.67281e-16 4.19838e-18)
(0.919153 -3.24984e-16 3.51533e-16)
(0.923177 -7.56052e-16 4.74701e-18)
(0.923177 -3.27838e-16 3.40816e-16)
(0.927181 -7.47239e-16 3.42867e-18)
(0.927181 -3.3192e-16 3.24932e-16)
(0.931165 -7.26958e-16 7.62415e-18)
(0.931165 -3.2701e-16 3.04694e-16)
(0.935128 -7.40235e-16 1.64708e-18)
(0.935128 -3.16019e-16 2.86298e-16)
(0.939071 -7.11714e-16 2.1247e-18)
(0.939071 -3.15144e-16 2.65343e-16)
(0.942995 -6.91598e-16 2.86327e-18)
(0.942995 -3.19839e-16 2.53364e-16)
(0.946899 -6.68587e-16 9.99908e-18)
(0.946899 -3.28507e-16 2.31756e-16)
(0.950783 -6.57249e-16 1.11792e-17)
(0.950783 -3.36762e-16 2.19206e-16)
(0.954648 -6.38785e-16 6.85156e-18)
(0.954648 -3.29181e-16 2.02352e-16)
(0.958494 -6.38699e-16 5.75716e-18)
(0.958494 -3.34479e-16 1.89937e-16)
(0.962321 -6.3707e-16 -2.94664e-18)
(0.962321 -3.33521e-16 1.77984e-16)
(0.96613 -6.018e-16 4.52332e-18)
(0.96613 -3.29145e-16 1.53024e-16)
(0.969919 -5.71756e-16 1.79566e-17)
(0.969919 -3.35516e-16 1.29912e-16)
(0.973691 -5.42775e-16 1.65543e-17)
(0.973691 -3.33492e-16 1.14138e-16)
(0.977443 -5.54618e-16 6.64977e-18)
(0.977443 -3.28275e-16 9.15384e-17)
(0.981177 -5.47858e-16 1.05975e-17)
(0.981177 -3.21307e-16 5.47805e-17)
(0.984893 -5.38708e-16 1.05328e-17)
(0.984893 -3.32989e-16 4.13551e-17)
(0.98859 -5.24302e-16 1.18957e-17)
(0.98859 -3.50978e-16 4.09048e-17)
(0.992269 -5.06656e-16 1.32901e-17)
(0.992269 -3.72289e-16 3.33092e-17)
(0.995929 -5.00556e-16 1.26223e-17)
(0.995929 -3.79911e-16 3.43738e-17)
(0.999571 -4.9762e-16 1.24611e-17)
(0.999571 -3.76907e-16 2.73974e-17)
(1.00319 -4.99586e-16 1.83986e-17)
(1.00319 -3.81796e-16 1.57417e-17)
(1.0068 -4.81429e-16 2.54913e-17)
(1.0068 -3.95043e-16 4.34169e-18)
(1.01039 -4.58373e-16 1.90883e-17)
(1.01039 -4.08831e-16 1.06338e-17)
(1.01395 -4.62946e-16 2.16729e-17)
(1.01395 -4.11282e-16 1.14014e-17)
(1.0175 -4.60648e-16 1.83321e-17)
(1.0175 -4.38639e-16 6.04682e-18)
(1.02103 -4.48784e-16 2.25663e-17)
(1.02103 -4.48693e-16 1.53246e-17)
(1.02454 -4.66109e-16 1.49167e-17)
(1.02454 -4.29423e-16 3.08568e-17)
(1.02803 -4.78299e-16 1.37888e-17)
(1.02803 -4.37832e-16 1.89317e-17)
(1.0315 -4.67592e-16 9.69155e-18)
(1.0315 -4.51667e-16 1.5973e-17)
(1.03495 -4.5339e-16 1.23451e-17)
(1.03495 -4.42407e-16 2.65605e-17)
(1.03838 -4.33752e-16 1.69267e-17)
(1.03838 -4.46339e-16 7.16428e-18)
(1.04179 -4.16038e-16 9.43868e-18)
(1.04179 -4.33615e-16 9.47347e-18)
(1.04518 -4.20881e-16 8.01093e-18)
(1.04518 -4.27943e-16 6.39759e-18)
(1.04855 -4.19553e-16 8.06252e-18)
(1.04855 -4.31227e-16 7.50994e-19)
(1.0519 -4.02336e-16 1.63725e-17)
(1.0519 -3.96925e-16 -1.12345e-17)
(1.05522 -3.59053e-16 1.66557e-17)
(1.05522 -3.73315e-16 -7.28996e-18)
(1.05852 -3.73848e-16 1.89447e-17)
(1.05852 -3.94839e-16 -3.44266e-18)
(1.0618 -3.52516e-16 2.52992e-17)
(1.0618 -3.77797e-16 -2.12157e-17)
(1.06505 -3.15627e-16 2.40896e-17)
(1.06505 -3.52208e-16 -4.57843e-18)
(1.06828 -3.0018e-16 2.59953e-17)
(1.06828 -3.44218e-16 8.08788e-18)
(1.07148 -2.86677e-16 3.07853e-17)
(1.07148 -3.3697e-16 3.18946e-17)
(1.07466 -3.12652e-16 1.36388e-17)
(1.07466 -3.3006e-16 6.12735e-17)
(1.07781 -3.3921e-16 5.78722e-19)
(1.07781 -3.13609e-16 5.76886e-17)
(1.08093 -3.48506e-16 1.52437e-18)
(1.08093 -2.90476e-16 4.06015e-17)
(1.08403 -3.64297e-16 5.89063e-18)
(1.08403 -3.21126e-16 2.23277e-17)
(1.08709 -3.76549e-16 -5.01097e-19)
(1.08709 -3.32211e-16 9.2659e-18)
(1.09013 -3.71339e-16 1.08157e-17)
(1.09013 -3.2794e-16 5.08032e-18)
(1.09313 -3.65641e-16 1.10577e-17)
(1.09313 -3.30223e-16 1.47334e-17)
(1.0961 -3.51581e-16 2.04687e-17)
(1.0961 -3.09533e-16 7.67104e-18)
(1.09903 -4.07786e-16 7.90305e-19)
(1.09903 -3.3088e-16 -1.48379e-17)
(1.10193 -3.76073e-16 3.30109e-18)
(1.10193 -3.33127e-16 4.6549e-17)
(1.10479 -3.49631e-16 3.22824e-17)
(1.10479 -3.71763e-16 3.72235e-18)
(1.10761 -3.29307e-16 2.57144e-17)
(1.10761 -3.58967e-16 9.04767e-18)
(1.11039 -3.36644e-16 1.99967e-17)
(1.11039 -3.46635e-16 -1.5188e-17)
(1.11313 -3.22516e-16 3.46337e-17)
(1.11313 -3.43031e-16 1.72826e-18)
(1.11582 -3.12095e-16 4.26424e-17)
(1.11582 -3.51022e-16 2.12507e-17)
(1.11847 -3.19942e-16 2.04322e-17)
(1.11847 -3.36631e-16 1.3223e-17)
(1.12107 -3.28275e-16 2.94254e-17)
(1.12107 -2.96879e-16 9.95801e-18)
(1.12361 -3.24997e-16 1.85765e-17)
(1.12361 -3.20854e-16 8.46906e-18)
(1.1261 -3.49929e-16 1.57437e-17)
(1.1261 -3.61482e-16 -2.23962e-17)
(1.12853 -3.27025e-16 1.1416e-17)
(1.12853 -3.17446e-16 -2.85311e-17)
(1.1309 -3.14125e-16 2.43493e-17)
(1.1309 -3.25835e-16 -1.33948e-18)
(1.13321 -3.03103e-16 2.91819e-17)
(1.13321 -3.21367e-16 2.30387e-17)
(1.13545 -3.60932e-16 5.58596e-19)
(1.13545 -3.22541e-16 -4.14546e-18)
(1.13761 -3.41447e-16 4.90426e-18)
(1.13761 -3.16251e-16 3.21099e-17)
(1.13969 -3.46717e-16 3.92417e-17)
(1.13969 -3.10605e-16 4.05787e-17)
(1.1417 -3.23121e-16 4.41261e-17)
(1.1417 -3.48709e-16 3.31619e-17)
(1.14361 -3.21971e-16 5.50248e-17)
(1.14361 -3.51375e-16 3.90746e-17)
(1.14543 -3.73868e-16 2.51609e-17)
(1.14543 -3.50705e-16 4.67585e-17)
(1.14714 -4.14806e-16 2.54404e-17)
(1.14714 -3.85554e-16 6.99055e-17)
(1.14875 -3.9565e-16 3.58594e-17)
(1.14875 -4.24399e-16 2.87749e-17)
(1.15024 -4.24136e-16 -2.61559e-17)
(1.15024 -4.45192e-16 -2.98702e-18)
(1.15161 -4.6101e-16 -1.05896e-17)
(1.15161 -4.23547e-16 -1.60644e-17)
(1.15284 -3.94913e-16 3.25467e-17)
(1.15284 -3.69951e-16 3.07021e-17)
(1.15393 -3.40816e-16 1.31558e-17)
(1.15393 -3.52699e-16 3.21373e-17)
(1.15487 -3.01877e-16 5.84014e-17)
(1.15487 -3.64182e-16 3.96159e-17)
(1.15564 -3.41024e-16 4.2392e-18)
(1.15564 -3.23017e-16 5.03059e-17)
(1.15624 -3.02123e-16 2.19159e-17)
(1.15624 -2.55455e-16 2.77731e-17)
(1.15665 -3.07569e-16 -3.11733e-30)
(1.15665 -2.88073e-16 2.78058e-17)
(1.15686 -3.03618e-16 4.33713e-18)
(1.15686 -3.47358e-16 5.19979e-18)
(0.0012025 2.3855e-20 -9.88174e-19)
(0.0012025 1.80736e-20 -3.08253e-19)
(0.0036295 1.44398e-19 -9.40577e-18)
(0.0036295 2.56278e-20 -3.69627e-18)
(0.00610133 3.30052e-19 -1.03626e-17)
(0.00610133 8.25173e-20 -3.83498e-18)
(0.00861881 5.2525e-19 -1.04364e-17)
(0.00861881 1.30174e-19 -3.97882e-18)
(0.0111828 7.23614e-19 -1.05868e-17)
(0.0111828 1.77559e-19 -4.12776e-18)
(0.013794 9.34444e-19 -1.08623e-17)
(0.013794 2.29054e-19 -4.28199e-18)
(0.0164535 1.15831e-18 -1.11419e-17)
(0.0164535 2.96093e-19 -4.44214e-18)
(0.019162 1.39045e-18 -1.14059e-17)
(0.019162 3.60047e-19 -4.60733e-18)
(0.0219204 1.62279e-18 -1.16684e-17)
(0.0219204 4.24705e-19 -4.77829e-18)
(0.0247297 1.86529e-18 -1.1935e-17)
(0.0247297 4.83138e-19 -4.95596e-18)
(0.0275907 2.1204e-18 -1.22071e-17)
(0.0275907 5.23368e-19 -5.13942e-18)
(0.0305044 2.36796e-18 -1.24839e-17)
(0.0305044 6.0161e-19 -5.32953e-18)
(0.0334718 2.6129e-18 -1.27664e-17)
(0.0334718 6.93875e-19 -5.52599e-18)
(0.0364938 2.87504e-18 -1.30537e-17)
(0.0364938 7.69127e-19 -5.73043e-18)
(0.0395714 3.14584e-18 -1.33479e-17)
(0.0395714 8.54294e-19 -5.94081e-18)
(0.0427055 3.43566e-18 -1.36469e-17)
(0.0427055 9.51223e-19 -6.15922e-18)
(0.0458973 3.71627e-18 -1.39511e-17)
(0.0458973 1.021e-18 -6.38571e-18)
(0.0491478 3.99651e-18 -1.42624e-17)
(0.0491478 1.09015e-18 -6.61762e-18)
(0.0524579 4.30003e-18 -1.45775e-17)
(0.0524579 1.17152e-18 -6.85951e-18)
(0.0558288 4.59522e-18 -1.48973e-17)
(0.0558288 1.24952e-18 -7.11184e-18)
(0.0592616 4.87873e-18 -1.5225e-17)
(0.0592616 1.35986e-18 -7.36991e-18)
(0.0627574 5.19338e-18 -1.55566e-17)
(0.0627574 1.47394e-18 -7.63919e-18)
(0.0663173 5.5284e-18 -1.58934e-17)
(0.0663173 1.57823e-18 -7.91807e-18)
(0.0699424 5.85635e-18 -1.62356e-17)
(0.0699424 1.66378e-18 -8.20755e-18)
(0.0736339 6.22664e-18 -1.65838e-17)
(0.0736339 1.78868e-18 -8.50621e-18)
(0.077393 6.61884e-18 -1.69363e-17)
(0.077393 1.95708e-18 -8.81607e-18)
(0.0812209 6.9921e-18 -1.72942e-17)
(0.0812209 2.15882e-18 -9.14257e-18)
(0.0851189 7.37435e-18 -1.76616e-17)
(0.0851189 2.3091e-18 -9.47475e-18)
(0.089088 7.75196e-18 -1.80358e-17)
(0.089088 2.49356e-18 -9.81814e-18)
(0.0931296 8.15288e-18 -1.84133e-17)
(0.0931296 2.69267e-18 -1.01753e-17)
(0.097245 8.59505e-18 -1.8795e-17)
(0.097245 2.82293e-18 -1.05471e-17)
(0.101435 9.02249e-18 -1.91835e-17)
(0.101435 3.04275e-18 -1.09337e-17)
(0.105702 9.4615e-18 -1.95795e-17)
(0.105702 3.23585e-18 -1.13309e-17)
(0.110047 9.91193e-18 -1.99773e-17)
(0.110047 3.34735e-18 -1.17479e-17)
(0.11447 1.02953e-17 -2.03836e-17)
(0.11447 3.5447e-18 -1.21735e-17)
(0.118974 1.06931e-17 -2.07946e-17)
(0.118974 3.67566e-18 -1.26152e-17)
(0.123559 1.13347e-17 -2.12097e-17)
(0.123559 3.86518e-18 -1.30733e-17)
(0.128227 1.19122e-17 -2.16194e-17)
(0.128227 4.20359e-18 -1.35524e-17)
(0.13298 1.23255e-17 -2.20349e-17)
(0.13298 4.4319e-18 -1.40543e-17)
(0.137818 1.28493e-17 -2.24581e-17)
(0.137818 4.72913e-18 -1.45661e-17)
(0.142743 1.33838e-17 -2.28807e-17)
(0.142743 5.10958e-18 -1.50893e-17)
(0.147757 1.39306e-17 -2.3294e-17)
(0.147757 5.28129e-18 -1.56496e-17)
(0.15286 1.45482e-17 -2.37151e-17)
(0.15286 5.59957e-18 -1.6219e-17)
(0.158054 1.5146e-17 -2.41273e-17)
(0.158054 6.01578e-18 -1.68105e-17)
(0.16334 1.57281e-17 -2.45369e-17)
(0.16334 6.46304e-18 -1.74215e-17)
(0.16872 1.63276e-17 -2.49407e-17)
(0.16872 7.10599e-18 -1.80684e-17)
(0.174195 1.68534e-17 -2.53605e-17)
(0.174195 7.38243e-18 -1.87323e-17)
(0.179765 1.73986e-17 -2.57813e-17)
(0.179765 7.7137e-18 -1.93846e-17)
(0.185432 1.79979e-17 -2.61752e-17)
(0.185432 8.26279e-18 -2.00841e-17)
(0.191196 1.85354e-17 -2.65605e-17)
(0.191196 8.76009e-18 -2.08398e-17)
(0.197059 1.91529e-17 -2.69668e-17)
(0.197059 9.19434e-18 -2.15897e-17)
(0.203022 1.98445e-17 -2.7369e-17)
(0.203022 1.00376e-17 -2.23574e-17)
(0.209085 2.06205e-17 -2.77547e-17)
(0.209085 1.04693e-17 -2.31646e-17)
(0.215248 2.14352e-17 -2.81439e-17)
(0.215248 1.07394e-17 -2.39836e-17)
(0.221511 2.22703e-17 -2.85211e-17)
(0.221511 1.16041e-17 -2.48138e-17)
(0.227876 2.30771e-17 -2.88728e-17)
(0.227876 1.19847e-17 -2.56914e-17)
(0.234341 2.39574e-17 -2.92143e-17)
(0.234341 1.24831e-17 -2.65731e-17)
(0.240907 2.51423e-17 -2.95068e-17)
(0.240907 1.30611e-17 -2.74972e-17)
(0.247572 2.57856e-17 -2.97841e-17)
(0.247572 1.36826e-17 -2.84544e-17)
(0.254337 2.63319e-17 -3.0042e-17)
(0.254337 1.4394e-17 -2.94337e-17)
(0.261199 2.76968e-17 -3.02942e-17)
(0.261199 1.49348e-17 -3.03772e-17)
(0.268156 2.85701e-17 -3.0438e-17)
(0.268156 1.58209e-17 -3.14045e-17)
(0.275208 2.90899e-17 -3.05539e-17)
(0.275208 1.6776e-17 -3.2424e-17)
(0.282352 2.96405e-17 -3.06646e-17)
(0.282352 1.82326e-17 -3.34999e-17)
(0.289585 3.04527e-17 -3.07503e-17)
(0.289585 1.93874e-17 -3.45755e-17)
(0.296904 3.16991e-17 -3.07866e-17)
(0.296904 2.01848e-17 -3.56288e-17)
(0.304305 3.31248e-17 -3.0722e-17)
(0.304305 2.12381e-17 -3.67325e-17)
(0.311785 3.43543e-17 -3.06024e-17)
(0.311785 2.19546e-17 -3.7892e-17)
(0.319339 3.52295e-17 -3.0502e-17)
(0.319339 2.22371e-17 -3.89645e-17)
(0.326963 3.60593e-17 -3.03573e-17)
(0.326963 2.29053e-17 -3.99698e-17)
(0.33465 3.70851e-17 -3.00185e-17)
(0.33465 2.37949e-17 -4.10335e-17)
(0.342397 3.82911e-17 -2.95276e-17)
(0.342397 2.38638e-17 -4.2225e-17)
(0.350197 3.93667e-17 -2.90531e-17)
(0.350197 2.46636e-17 -4.3387e-17)
(0.358043 4.02513e-17 -2.85427e-17)
(0.358043 2.56374e-17 -4.45353e-17)
(0.365931 4.11108e-17 -2.8061e-17)
(0.365931 2.65628e-17 -4.56641e-17)
(0.373852 4.21407e-17 -2.75276e-17)
(0.373852 2.74049e-17 -4.66319e-17)
(0.381801 4.3191e-17 -2.68343e-17)
(0.381801 2.97866e-17 -4.76543e-17)
(0.38977 4.3505e-17 -2.5898e-17)
(0.38977 3.12616e-17 -4.90221e-17)
(0.397753 4.40468e-17 -2.52858e-17)
(0.397753 3.18906e-17 -5.01404e-17)
(0.405744 4.4588e-17 -2.47016e-17)
(0.405744 3.42974e-17 -5.10572e-17)
(0.413734 4.48544e-17 -2.39593e-17)
(0.413734 3.53644e-17 -5.20129e-17)
(0.421719 4.51333e-17 -2.30678e-17)
(0.421719 3.74517e-17 -5.31615e-17)
(0.429692 4.4726e-17 -2.22383e-17)
(0.429692 4.00759e-17 -5.43842e-17)
(0.437645 4.56101e-17 -2.16104e-17)
(0.437645 4.16332e-17 -5.53588e-17)
(0.445575 4.69448e-17 -2.09711e-17)
(0.445575 4.34744e-17 -5.61397e-17)
(0.453475 4.73053e-17 -2.01967e-17)
(0.453475 4.61158e-17 -5.70915e-17)
(0.46134 4.87519e-17 -1.94726e-17)
(0.46134 4.6735e-17 -5.81431e-17)
(0.469164 5.09314e-17 -1.87648e-17)
(0.469164 4.78032e-17 -5.90413e-17)
(0.476945 5.37673e-17 -1.77976e-17)
(0.476945 5.04334e-17 -5.99367e-17)
(0.484677 5.55853e-17 -1.68061e-17)
(0.484677 5.15175e-17 -6.08515e-17)
(0.492357 5.66411e-17 -1.59274e-17)
(0.492357 5.25007e-17 -6.17349e-17)
(0.499982 5.75699e-17 -1.41606e-17)
(0.499982 5.55742e-17 -6.25258e-17)
(0.507549 5.62164e-17 -9.63187e-18)
(0.507549 5.90243e-17 -6.36025e-17)
(0.515054 5.54564e-17 -8.08454e-18)
(0.515054 6.20033e-17 -6.45046e-17)
(0.522496 5.67849e-17 -7.97267e-18)
(0.522496 6.55789e-17 -6.50571e-17)
(0.529873 5.87068e-17 -7.85378e-18)
(0.529873 6.86361e-17 -6.59072e-17)
(0.537184 6.02356e-17 -7.79374e-18)
(0.537184 6.9483e-17 -6.68773e-17)
(0.544426 6.26492e-17 -7.89895e-18)
(0.544426 7.06778e-17 -6.75233e-17)
(0.5516 6.53489e-17 -8.03199e-18)
(0.5516 7.32214e-17 -6.86551e-17)
(0.558703 6.63108e-17 -8.46373e-18)
(0.558703 7.38666e-17 -6.92341e-17)
(0.565736 6.69479e-17 -8.26416e-18)
(0.565736 7.66645e-17 -6.96233e-17)
(0.572698 6.75335e-17 -7.72637e-18)
(0.572698 7.91996e-17 -7.02308e-17)
(0.57959 6.88603e-17 -6.90476e-18)
(0.57959 7.97218e-17 -7.18014e-17)
(0.586411 7.28471e-17 -6.93547e-18)
(0.586411 8.21123e-17 -7.20404e-17)
(0.593161 7.61643e-17 -5.83311e-18)
(0.593161 8.52615e-17 -7.291e-17)
(0.599841 7.75015e-17 -5.51341e-18)
(0.599841 8.65043e-17 -7.3554e-17)
(0.606451 7.88192e-17 -4.82957e-18)
(0.606451 8.80175e-17 -7.43753e-17)
(0.612992 8.05621e-17 -4.28119e-18)
(0.612992 9.05692e-17 -7.48509e-17)
(0.619464 7.98294e-17 -3.24265e-18)
(0.619464 9.63131e-17 -7.55858e-17)
(0.625869 7.74539e-17 -2.95797e-18)
(0.625869 1.00297e-16 -7.64503e-17)
(0.632207 7.72517e-17 -3.64397e-18)
(0.632207 1.01717e-16 -7.69152e-17)
(0.638479 7.88382e-17 -3.61314e-18)
(0.638479 1.05259e-16 -7.72019e-17)
(0.644685 8.52044e-17 -3.64349e-18)
(0.644685 1.04466e-16 -7.72566e-17)
(0.650828 9.13448e-17 -2.59147e-18)
(0.650828 1.03402e-16 -7.78271e-17)
(0.656908 9.44196e-17 -7.03228e-18)
(0.656908 1.04513e-16 -7.83633e-17)
(0.662926 1.00739e-16 -1.48034e-17)
(0.662926 1.0597e-16 -7.83915e-17)
(0.668883 1.05598e-16 -2.1891e-17)
(0.668883 1.1078e-16 -7.93007e-17)
(0.67478 1.05116e-16 -2.89702e-17)
(0.67478 1.11737e-16 -8.05219e-17)
(0.680618 1.04712e-16 -3.65767e-17)
(0.680618 1.12764e-16 -8.13586e-17)
(0.686399 1.0799e-16 -4.40949e-17)
(0.686399 1.16233e-16 -8.1166e-17)
(0.692124 1.11148e-16 -5.25049e-17)
(0.692124 1.21424e-16 -8.08356e-17)
(0.697794 1.13782e-16 -6.01468e-17)
(0.697794 1.25753e-16 -8.20281e-17)
(0.703409 1.16479e-16 -6.7992e-17)
(0.703409 1.26696e-16 -8.36918e-17)
(0.708971 1.20922e-16 -7.66486e-17)
(0.708971 1.26168e-16 -8.32964e-17)
(0.714482 1.24927e-16 -8.48193e-17)
(0.714482 1.2779e-16 -8.36616e-17)
(0.719941 1.27261e-16 -9.25384e-17)
(0.719941 1.3025e-16 -8.36886e-17)
(0.725351 1.29287e-16 -1.01508e-16)
(0.725351 1.2896e-16 -8.32243e-17)
(0.730712 1.30964e-16 -1.108e-16)
(0.730712 1.32423e-16 -8.30915e-17)
(0.736026 1.31824e-16 -1.2078e-16)
(0.736026 1.34893e-16 -8.33157e-17)
(0.741292 1.33895e-16 -1.29461e-16)
(0.741292 1.33389e-16 -8.3696e-17)
(0.746514 1.33877e-16 -1.38781e-16)
(0.746514 1.35242e-16 -8.24723e-17)
(0.75169 1.34011e-16 -1.48036e-16)
(0.75169 1.38335e-16 -8.124e-17)
(0.756823 1.35892e-16 -1.57824e-16)
(0.756823 1.41809e-16 -8.1847e-17)
(0.761914 1.34713e-16 -1.6515e-16)
(0.761914 1.43051e-16 -8.48626e-17)
(0.766963 1.3493e-16 -1.73866e-16)
(0.766963 1.47455e-16 -8.60344e-17)
(0.77197 1.35877e-16 -1.82448e-16)
(0.77197 1.5343e-16 -8.56655e-17)
(0.776938 1.35407e-16 -1.90326e-16)
(0.776938 1.55168e-16 -8.51452e-17)
(0.781867 1.37661e-16 -1.97386e-16)
(0.781867 1.56147e-16 -8.52204e-17)
(0.786758 1.40576e-16 -2.01961e-16)
(0.786758 1.56532e-16 -8.73641e-17)
(0.791611 1.36002e-16 -2.07688e-16)
(0.791611 1.56343e-16 -8.72402e-17)
(0.796428 1.30848e-16 -2.14965e-16)
(0.796428 1.6178e-16 -8.51719e-17)
(0.801209 1.3265e-16 -2.2381e-16)
(0.801209 1.66753e-16 -8.32418e-17)
(0.805956 1.34999e-16 -2.31552e-16)
(0.805956 1.6589e-16 -8.21846e-17)
(0.810667 1.37394e-16 -2.3632e-16)
(0.810667 1.63975e-16 -8.23732e-17)
(0.815346 1.38279e-16 -2.40836e-16)
(0.815346 1.65097e-16 -8.43914e-17)
(0.819992 1.37814e-16 -2.478e-16)
(0.819992 1.69606e-16 -8.41806e-17)
(0.824605 1.31346e-16 -2.53168e-16)
(0.824605 1.73612e-16 -8.52083e-17)
(0.829187 1.24905e-16 -2.62227e-16)
(0.829187 1.74136e-16 -8.40314e-17)
(0.833739 1.25883e-16 -2.70214e-16)
(0.833739 1.75677e-16 -8.48543e-17)
(0.83826 1.19942e-16 -2.76885e-16)
(0.83826 1.70622e-16 -8.55857e-17)
(0.842752 1.21452e-16 -2.89108e-16)
(0.842752 1.67198e-16 -7.85152e-17)
(0.847214 1.34833e-16 -2.98344e-16)
(0.847214 1.74651e-16 -7.39704e-17)
(0.851649 1.47286e-16 -3.09472e-16)
(0.851649 1.74714e-16 -7.02021e-17)
(0.856056 1.56933e-16 -3.08804e-16)
(0.856056 1.7885e-16 -6.71985e-17)
(0.860435 1.55345e-16 -3.10663e-16)
(0.860435 1.84601e-16 -6.08888e-17)
(0.864788 1.55322e-16 -3.13071e-16)
(0.864788 1.77928e-16 -5.30545e-17)
(0.869114 1.56614e-16 -3.1354e-16)
(0.869114 1.75045e-16 -5.01481e-17)
(0.873415 1.49291e-16 -3.17163e-16)
(0.873415 1.77705e-16 -4.64661e-17)
(0.877691 1.39521e-16 -3.20931e-16)
(0.877691 1.71126e-16 -4.05782e-17)