/*--------------------------------*- C++ -*----------------------------------*\
| =========                 |                                                 |
| \\      /  F ield         | OpenFOAM: The Open Source CFD Toolbox           |
|  \\    /   O peration     | Version:  2106                                  |
|   \\  /    A nd           | Website:  www.openfoam.com                      |
|    \\/     M anipulation  |                                                 |
\*---------------------------------------------------------------------------*/
FoamFile
{
    version     2.0;
    format      ascii;
    arch        "LSB;label=32;scalar=64";
    class       volVectorField;
    location    "10030";
    object      grad(T);
}
// * * * * * * * * * * * * * * * * * * * * * * * * * * * * * * * * * * * * * //

dimensions      [0 -1 0 1 0 0 0];

internalField   nonuniform List<vector> 
2000
(
(0 127.82 0.236548)
(0 127.82 0.236548)
(0 127.82 0.714058)
(0 127.82 0.714058)
(-2.90706e-17 127.819 0.991007)
(0 127.819 0.991007)
(-9.52685e-17 127.819 1.0095)
(3.81074e-16 127.819 1.0095)
(0 127.819 1.02835)
(0 127.819 1.02835)
(0 127.819 1.04754)
(-9.25577e-16 127.819 1.04754)
(0 127.818 1.06709)
(1.20547e-15 127.818 1.06709)
(0 127.818 1.087)
(2.98119e-15 127.818 1.087)
(-4.4526e-16 127.817 1.10729)
(0 127.817 1.10729)
(0 127.817 1.12795)
(0 127.817 1.12795)
(7.60831e-16 127.816 1.149)
(0 127.816 1.149)
(6.71325e-16 127.815 1.17044)
(2.6853e-15 127.815 1.17044)
(0 127.814 1.19228)
(0 127.814 1.19228)
(-2.26869e-15 127.813 1.21452)
(0 127.813 1.21452)
(-9.10284e-16 127.812 1.23718)
(0 127.812 1.23718)
(3.76745e-15 127.81 1.26026)
(-3.97171e-15 127.81 1.26026)
(0 127.809 1.28377)
(0 127.809 1.28377)
(2.32574e-15 127.807 1.30772)
(4.65148e-15 127.807 1.30772)
(-1.25023e-15 127.805 1.33211)
(0 127.805 1.33211)
(1.33921e-15 127.803 1.35695)
(5.35685e-15 127.803 1.35695)
(-1.42986e-15 127.801 1.38226)
(1.14389e-14 127.801 1.38226)
(0 127.798 1.40803)
(6.08878e-15 127.798 1.40803)
(2.4376e-15 127.796 1.43428)
(6.46501e-15 127.796 1.43428)
(0 127.792 1.46101)
(4.45533e-15 127.792 1.46101)
(-4.15875e-15 127.789 1.48824)
(2.34908e-15 127.789 1.48824)
(0 127.785 1.51597)
(7.63634e-15 127.785 1.51597)
(2.53422e-16 127.78 1.54421)
(0 127.78 1.54421)
(-2.11352e-15 127.775 1.57297)
(0 127.775 1.57297)
(2.18157e-15 127.769 1.60225)
(-2.18157e-15 127.769 1.60225)
(-6.60883e-15 127.762 1.63207)
(-9.30256e-15 127.762 1.63207)
(2.43467e-15 127.755 1.66243)
(9.7387e-15 127.755 1.66243)
(0 127.746 1.69333)
(-4.12766e-15 127.746 1.69333)
(1.39315e-15 127.736 1.7248)
(-4.05202e-15 127.736 1.7248)
(-2.77411e-15 127.724 1.75682)
(0 127.724 1.75682)
(0 127.711 1.78942)
(1.1566e-14 127.711 1.78942)
(0 127.696 1.82259)
(-3.83332e-15 127.696 1.82259)
(3.13284e-15 127.678 1.85634)
(8.76827e-15 127.678 1.85634)
(-3.25688e-15 127.658 1.89067)
(1.30275e-14 127.658 1.89067)
(-3.38323e-15 127.635 1.92559)
(0 127.635 1.92559)
(3.55997e-15 127.608 1.96109)
(1.04877e-14 127.608 1.96109)
(-7.28597e-15 127.577 1.99718)
(1.10772e-14 127.577 1.99718)
(3.4307e-15 127.541 2.03385)
(0 127.541 2.03385)
(0 127.5 2.07109)
(0 127.5 2.07109)
(-4.0509e-15 127.453 2.10891)
(-2.28158e-14 127.453 2.10891)
(4.19191e-15 127.398 2.1473)
(1.67676e-14 127.398 2.1473)
(4.3355e-15 127.335 2.18623)
(-1.7342e-14 127.335 2.18623)
(-4.48172e-15 127.263 2.22569)
(1.79269e-14 127.263 2.22569)
(0 127.181 2.26567)
(3.70449e-14 127.181 2.26567)
(4.78221e-15 127.086 2.30613)
(1.91288e-14 127.086 2.30613)
(-4.93655e-15 126.978 2.34704)
(-1.97462e-14 126.978 2.34704)
(5.80929e-15 126.855 2.38838)
(0 126.855 2.38838)
(-1.09564e-14 126.714 2.43009)
(-1.14057e-14 126.714 2.43009)
(5.59833e-15 126.555 2.47214)
(0 126.555 2.47214)
(1.09915e-14 126.373 2.51445)
(-3.33198e-14 126.373 2.51445)
(-5.03943e-15 126.168 2.55697)
(-5.39504e-15 126.168 2.55697)
(-5.92215e-15 125.937 2.59963)
(0 125.937 2.59963)
(-1.79496e-15 125.676 2.64234)
(2.43864e-14 125.676 2.64234)
(-6.27403e-15 125.383 2.68502)
(0 125.383 2.68502)
(-1.29089e-14 125.054 2.72757)
(-2.58178e-14 125.054 2.72757)
(6.63783e-15 124.687 2.76987)
(-2.65513e-14 124.687 2.76987)
(-9.65677e-15 124.279 2.81181)
(0 124.279 2.81181)
(-2.35069e-14 123.824 2.85327)
(5.61085e-14 123.824 2.85327)
(2.10021e-15 123.321 2.89411)
(1.95174e-14 123.321 2.89411)
(0 122.766 2.93419)
(9.13556e-15 122.766 2.93419)
(-1.65675e-14 122.156 2.97337)
(3.03972e-14 122.156 2.97337)
(8.80382e-15 121.487 3.0115)
(-8.80382e-15 121.487 3.0115)
(6.38319e-16 120.756 3.04841)
(-8.64249e-15 120.756 3.04841)
(0 119.962 3.08397)
(-8.48412e-15 119.962 3.08397)
(0 119.1 3.11801)
(3.36801e-14 119.1 3.11801)
(0 118.17 3.15038)
(0 118.17 3.15038)
(-8.84625e-15 117.17 3.18095)
(3.5385e-14 117.17 3.18095)
(0 116.099 3.20958)
(3.6252e-14 116.099 3.20958)
(-9.28203e-15 114.956 3.23614)
(-3.71281e-14 114.956 3.23614)
(0 113.741 3.26052)
(-3.80128e-14 113.741 3.26052)
(-1.94527e-14 112.457 3.28263)
(3.89055e-14 112.457 3.28263)
(-1.99028e-14 111.103 3.30238)
(0 111.103 3.30238)
(-1.43664e-14 109.681 3.31972)
(5.5079e-14 109.681 3.31972)
(-1.04064e-14 108.196 3.3346)
(-4.16258e-14 108.196 3.3346)
(1.06361e-14 106.649 3.347)
(0 106.649 3.347)
(-1.6315e-14 105.044 3.35691)
(-1.62859e-14 105.044 3.35691)
(-2.21977e-14 103.387 3.36435)
(-1.33419e-14 103.387 3.36435)
(2.61949e-14 101.681 3.36936)
(-2.61949e-14 101.681 3.36936)
(2.44225e-14 99.9306 3.37197)
(-1.05378e-13 99.9306 3.37197)
(1.1799e-14 98.1421 3.37227)
(0 98.1421 3.37227)
(0 96.3205 3.37033)
(4.81331e-14 96.3205 3.37033)
(1.22677e-14 94.4711 3.36624)
(4.90708e-14 94.4711 3.36624)
(-1.30636e-14 92.5995 3.3601)
(0 92.5995 3.3601)
(-1.3751e-14 90.711 3.35204)
(5.09456e-14 90.711 3.35204)
(-1.00436e-14 88.8109 3.34216)
(1.26777e-13 88.8109 3.34216)
(-2.45e-14 86.9043 3.33059)
(1.12961e-14 86.9043 3.33059)
(-2.68736e-14 84.9961 3.31745)
(5.37472e-14 84.9961 3.31745)
(-1.3669e-14 83.0908 3.30287)
(5.46761e-14 83.0908 3.30287)
(0 81.1929 3.28698)
(-2.13729e-14 81.1929 3.28698)
(-6.85039e-15 79.3063 3.26989)
(7.75047e-14 79.3063 3.26989)
(1.43603e-14 77.4347 3.25173)
(5.74411e-14 77.4347 3.25173)
(-1.45886e-14 75.5815 3.23262)
(5.83543e-14 75.5815 3.23262)
(1.48156e-14 73.7496 3.21267)
(0 73.7496 3.21267)
(-1.50414e-14 71.9417 3.19198)
(4.06806e-14 71.9417 3.19198)
(1.52659e-14 70.1602 3.17066)
(0 70.1602 3.17066)
(3.28861e-15 68.4072 3.1488)
(4.31782e-14 68.4072 3.1488)
(3.4144e-14 66.6844 3.12649)
(4.44086e-14 66.6844 3.12649)
(0 64.9933 3.10382)
(4.56268e-14 64.9933 3.10382)
(0 63.3352 3.08087)
(-8.23607e-14 63.3352 3.08087)
(0 61.7109 3.05769)
(6.54646e-14 61.7109 3.05769)
(5.37426e-16 60.1212 3.03437)
(0 60.1212 3.03437)
(-1.67954e-14 58.5668 3.01096)
(6.71814e-14 58.5668 3.01096)
(1.64973e-14 57.048 2.98752)
(0 57.048 2.98752)
(1.6195e-14 55.565 2.96409)
(-1.6195e-14 55.565 2.96409)
(1.7427e-14 54.1179 2.94072)
(6.9708e-14 54.1179 2.94072)
(-1.35796e-14 52.7066 2.91745)
(5.49303e-14 52.7066 2.91745)
(0 51.3309 2.89431)
(7.13598e-14 51.3309 2.89431)
(-3.60879e-14 49.9906 2.87135)
(7.21759e-14 49.9906 2.87135)
(1.82464e-14 48.6852 2.84858)
(7.29855e-14 48.6852 2.84858)
(0 47.4145 2.82603)
(-7.37886e-14 47.4145 2.82603)
(2.84568e-14 46.1777 2.80373)
(-2.84568e-14 46.1777 2.80373)
(-3.76879e-14 44.9744 2.78169)
(0 44.9744 2.78169)
(8.38349e-15 43.804 2.75993)
(-2.74235e-14 43.804 2.75993)
(-2.69209e-14 42.6659 2.73846)
(-7.69379e-14 42.6659 2.73846)
(6.52825e-14 41.5593 2.71729)
(-2.64276e-14 41.5593 2.71729)
(1.32944e-14 40.4835 2.69644)
(7.84755e-14 40.4835 2.69644)
(-1.98088e-14 39.4379 2.67592)
(7.92353e-14 39.4379 2.67592)
(3.99946e-14 38.4217 2.65572)
(-2.50013e-14 38.4217 2.65572)
(2.01843e-14 37.4342 2.63585)
(8.07374e-14 37.4342 2.63585)
(-2.037e-14 36.4747 2.61633)
(0 36.4747 2.61633)
(-2.36519e-14 35.5424 2.59714)
(1.88085e-13 35.5424 2.59714)
(-2.0737e-14 34.6365 2.57829)
(0 34.6365 2.57829)
(0 33.7564 2.55979)
(1.67348e-13 33.7564 2.55979)
(1.27671e-15 32.9014 2.54163)
(-2.23753e-14 32.9014 2.54163)
(0 32.0706 2.5238)
(8.51097e-14 32.0706 2.5238)
(-1.07795e-16 31.2635 2.50632)
(1.93203e-13 31.2635 2.50632)
(-2.16313e-14 30.4792 2.48917)
(8.65251e-14 30.4792 2.48917)
(1.02657e-15 29.7173 2.47235)
(8.72253e-14 29.7173 2.47235)
(-4.39603e-14 28.9769 2.45586)
(8.79207e-14 28.9769 2.45586)
(-6.00755e-14 28.2574 2.4397)
(2.17273e-13 28.2574 2.4397)
(0 27.5582 2.42386)
(4.99808e-14 27.5582 2.42386)
(-2.24947e-14 26.8787 2.40833)
(0 26.8787 2.40833)
(2.26639e-14 26.2183 2.39312)
(0 26.2183 2.39312)
(0 25.5764 2.37821)
(0 25.5764 2.37821)
(-2.29991e-14 24.9524 2.3636)
(-3.65128e-14 24.9524 2.3636)
(-2.3165e-14 24.3457 2.34929)
(-1.28504e-13 24.3457 2.34929)
(-2.333e-14 23.7559 2.33526)
(1.8664e-13 23.7559 2.33526)
(0 23.1823 2.32152)
(9.39758e-14 23.1823 2.32152)
(-2.36569e-14 22.6246 2.30806)
(6.07185e-14 22.6246 2.30806)
(0 22.0821 2.29487)
(6.19878e-14 22.0821 2.29487)
(-2.39799e-14 21.5545 2.28195)
(9.59197e-14 21.5545 2.28195)
(-3.2079e-14 21.0412 2.26928)
(1.28639e-13 21.0412 2.26928)
(-2.42992e-14 20.5418 2.25687)
(0 20.5418 2.25687)
(-2.44575e-14 20.0559 2.24471)
(0 20.0559 2.24471)
(-2.46149e-14 19.5831 2.23279)
(0 19.5831 2.23279)
(-5.02002e-15 19.1229 2.22111)
(-9.90859e-14 19.1229 2.22111)
(0 18.6749 2.20965)
(-2.92456e-14 18.6749 2.20965)
(5.74193e-14 18.2388 2.19842)
(-5.74193e-14 18.2388 2.19842)
(5.34197e-14 17.8142 2.1874)
(0 17.8142 2.1874)
(-5.30565e-14 17.4008 2.1766)
(1.29225e-13 17.4008 2.1766)
(-2.55419e-14 16.9981 2.166)
(1.02168e-13 16.9981 2.166)
(9.68749e-16 16.6059 2.15559)
(-2.66624e-14 16.6059 2.15559)
(0 16.2238 2.14538)
(1.03379e-13 16.2238 2.14538)
(-2.59949e-14 15.8516 2.13536)
(-1.0398e-13 15.8516 2.13536)
(2.61444e-14 15.4889 2.12551)
(1.04578e-13 15.4889 2.12551)
(7.58156e-14 15.1354 2.11584)
(1.05173e-13 15.1354 2.11584)
(2.64414e-14 14.7908 2.10633)
(0 14.7908 2.10633)
(0 14.455 2.09698)
(1.06355e-13 14.455 2.09698)
(-2.67356e-14 14.1275 2.08779)
(0 14.1275 2.08779)
(0 13.8082 2.07875)
(1.07527e-13 13.8082 2.07875)
(-2.70273e-14 13.4968 2.06985)
(0 13.4968 2.06985)
(0 13.193 2.06108)
(0 13.193 2.06108)
(4.35087e-14 12.8967 2.05244)
(1.09265e-13 12.8967 2.05244)
(0 12.6076 2.04393)
(1.0984e-13 12.6076 2.04393)
(-6.95316e-14 12.3254 2.03553)
(4.19287e-14 12.3254 2.03553)
(-2.77453e-14 12.0501 2.02724)
(0 12.0501 2.02724)
(-2.78871e-14 11.7813 2.01905)
(0 11.7813 2.01905)
(1.63909e-14 11.5188 2.01096)
(7.24476e-14 11.5188 2.01096)
(-4.5568e-14 11.2626 2.00295)
(1.12676e-13 11.2626 2.00295)
(0 11.0124 1.99503)
(1.13236e-13 11.0124 1.99503)
(-2.84486e-14 10.7679 1.98719)
(0 10.7679 1.98719)
(-6.54248e-14 10.5291 1.97941)
(3.68372e-14 10.5291 1.97941)
(0 10.2958 1.97169)
(0 10.2958 1.97169)
(-3.54995e-14 10.0678 1.96403)
(1.50955e-13 10.0678 1.96403)
(5.84784e-15 9.84495 1.95641)
(-1.50854e-13 9.84495 1.95641)
(3.42104e-14 9.62708 1.94884)
(-3.42104e-14 9.62708 1.94884)
(-9.64413e-14 9.41406 1.94129)
(-2.34194e-13 9.41406 1.94129)
(-6.23781e-14 9.20574 1.93376)
(0 9.20575 1.93376)
(0 9.00198 1.92625)
(0 9.00198 1.92625)
(3.17709e-14 8.80265 1.91874)
(8.69488e-14 8.80265 1.91874)
(-5.96282e-14 8.6076 1.91124)
(2.38513e-13 8.6076 1.91124)
(0 8.4167 1.90371)
(1.19791e-13 8.4167 1.90371)
(-3.00809e-14 8.22984 1.89617)
(0 8.22984 1.89617)
(0 8.0469 1.8886)
(-1.20854e-13 8.0469 1.8886)
(-1.38094e-15 7.86774 1.88098)
(-2.89647e-14 7.86774 1.88098)
(-5.68679e-14 7.69225 1.87331)
(1.78777e-13 7.69225 1.87331)
(-2.79129e-14 7.52033 1.86559)
(1.50346e-13 7.52033 1.86559)
(3.33742e-15 7.35186 1.85778)
(2.73312e-13 7.35186 1.85778)
(3.08688e-14 7.18673 1.8499)
(1.23475e-13 7.18673 1.8499)
(0 7.02484 1.84191)
(1.23993e-13 7.02484 1.84191)
(3.11272e-14 6.86608 1.83382)
(1.24509e-13 6.86608 1.83382)
(-5.67031e-14 6.71036 1.8256)
(2.75492e-13 6.71036 1.8256)
(1.85788e-14 6.55757 1.81725)
(-1.75496e-13 6.55757 1.81725)
(0 6.40762 1.80875)
(0 6.40762 1.80875)
(-3.16374e-14 6.26042 1.80008)
(0 6.26042 1.80008)
(-6.35271e-14 6.11586 1.79123)
(0 6.11586 1.79123)
(-7.82887e-14 5.97387 1.78218)
(1.73956e-13 5.97387 1.78218)
(0 5.83435 1.77291)
(-4.55493e-14 5.83435 1.77291)
(-3.21384e-14 5.69721 1.76341)
(0 5.69721 1.76341)
(-4.38952e-14 5.56237 1.75366)
(-4.38952e-14 5.56237 1.75366)
(3.23852e-14 5.42973 1.74363)
(2.59082e-13 5.42973 1.74363)
(6.50152e-14 5.29922 1.73331)
(-1.3003e-13 5.29922 1.73331)
(6.52587e-14 5.17075 1.72267)
(0 5.17075 1.72267)
(2.47357e-14 5.04424 1.71168)
(3.02769e-13 5.04424 1.71168)
(3.28708e-14 4.91959 1.70032)
(1.31483e-13 4.91959 1.70032)
(3.29904e-14 4.79674 1.68857)
(1.31962e-13 4.79674 1.68857)
(-3.31093e-14 4.67559 1.67639)
(1.32437e-13 4.67559 1.67639)
(-3.32273e-14 4.55606 1.66375)
(0 4.55606 1.66375)
(0 4.43807 1.65062)
(1.33378e-13 4.43807 1.65062)
(-6.69221e-14 4.32154 1.63696)
(9.73607e-14 4.32154 1.63696)
(-6.93915e-14 4.20637 1.62273)
(3.58149e-14 4.20637 1.62273)
(0 4.09249 1.6079)
(2.6953e-13 4.09249 1.6079)
(3.45143e-14 3.9798 1.59241)
(-3.45143e-14 3.9798 1.59241)
(3.39177e-14 3.86822 1.57623)
(-1.35671e-13 3.86822 1.57623)
(7.68428e-16 3.75765 1.55929)
(3.3261e-14 3.75765 1.55929)
(-2.97717e-15 3.648 1.54154)
(0 3.648 1.54154)
(6.84993e-14 3.53916 1.52293)
(-3.20532e-14 3.53916 1.52293)
(0 3.43105 1.50338)
(1.37432e-13 3.43105 1.50338)
(3.08892e-14 3.32356 1.48282)
(1.37861e-13 3.32356 1.48282)
(3.45711e-14 3.21657 1.46119)
(1.38284e-13 3.21657 1.46119)
(0 3.10997 1.43838)
(-1.6847e-13 3.10997 1.43838)
(-3.47788e-14 3.00365 1.41431)
(0 3.00365 1.41431)
(-3.48805e-14 2.89747 1.38889)
(1.10835e-13 2.89747 1.38889)
(0 2.7913 1.36199)
(1.39922e-13 2.7913 1.36199)
(2.02106e-14 2.685 1.3335)
(-1.40316e-13 2.685 1.3335)
(3.51758e-14 2.57842 1.30329)
(2.81406e-13 2.57842 1.30329)
(5.32819e-14 2.47139 1.27121)
(8.78006e-14 2.47139 1.27121)
(-3.53636e-14 2.36375 1.23709)
(0 2.36375 1.23709)
(3.54545e-14 2.2553 1.20078)
(1.41818e-13 2.2553 1.20078)
(-3.55432e-14 2.14587 1.16206)
(1.42173e-13 2.14587 1.16206)
(-3.56295e-14 2.03523 1.12074)
(1.42518e-13 2.03523 1.12074)
(0 1.92316 1.07659)
(0 1.92316 1.07659)
(3.57947e-14 1.80944 1.02936)
(0 1.80944 1.02936)
(-7.17462e-14 1.69383 0.978777)
(1.43492e-13 1.69383 0.978777)
(0 1.57606 0.924559)
(4.59539e-14 1.57606 0.924559)
(0 1.45588 0.866402)
(4.51119e-14 1.45588 0.866402)
(3.60896e-14 1.33305 0.803987)
(1.44358e-13 1.33305 0.803987)
(-3.61547e-14 1.2073 0.736984)
(1.44619e-13 1.2073 0.736984)
(-7.88928e-14 1.07841 0.665064)
(0 1.07841 0.665064)
(0 0.946167 0.5879)
(0 0.946167 0.5879)
(0 0.810412 0.505181)
(-1.453e-13 0.810412 0.505181)
(4.00139e-15 0.671032 0.416625)
(-4.03736e-14 0.671032 0.416625)
(-3.64143e-14 0.527981 0.32199)
(1.45657e-13 0.527981 0.32199)
(0 0.381294 0.221086)
(1.45803e-13 0.381294 0.221086)
(-3.64809e-14 0.231087 0.11378)
(0 0.231087 0.11378)
(-7.39992e-14 2.44686e-06 9.05649e-07)
(2.92153e-13 1.56846e-06 5.80528e-07)
(0 127.82 -0.236548)
(-2.86062e-17 127.82 -0.236548)
(-1.12328e-16 127.82 -0.714058)
(0 127.82 -0.714058)
(-5.81412e-17 127.819 -0.991007)
(0 127.819 -0.991007)
(9.52685e-17 127.819 -1.0095)
(-2.16498e-16 127.819 -1.0095)
(-3.25404e-16 127.819 -1.02835)
(0 127.819 -1.02835)
(2.31394e-16 127.819 -1.04754)
(-8.34543e-16 127.819 -1.04754)
(0 127.818 -1.06709)
(-8.1925e-16 127.818 -1.06709)
(7.45298e-16 127.818 -1.087)
(0 127.818 -1.087)
(-4.4526e-16 127.817 -1.10729)
(1.78104e-15 127.817 -1.10729)
(5.19226e-16 127.817 -1.12795)
(-2.0769e-15 127.817 -1.12795)
(-3.32517e-16 127.816 -1.149)
(-2.37829e-15 127.816 -1.149)
(1.41821e-15 127.815 -1.17044)
(-7.46889e-16 127.815 -1.17044)
(-7.4951e-16 127.814 -1.19228)
(-2.99804e-15 127.814 -1.19228)
(0 127.813 -1.21452)
(-3.31662e-15 127.813 -1.21452)
(9.10284e-16 127.812 -1.23718)
(-3.64114e-15 127.812 -1.23718)
(-1.38726e-15 127.81 -1.26026)
(0 127.81 -1.26026)
(2.43895e-15 127.809 -1.28377)
(-5.67029e-15 127.809 -1.28377)
(1.16287e-15 127.807 -1.30772)
(4.65148e-15 127.807 -1.30772)
(1.25023e-15 127.805 -1.33211)
(0 127.805 -1.33211)
(2.67842e-15 127.803 -1.35695)
(-2.57667e-15 127.803 -1.35695)
(3.95931e-15 127.801 -1.38226)
(3.18998e-15 127.801 -1.38226)
(1.52219e-15 127.798 -1.40803)
(6.08878e-15 127.798 -1.40803)
(-1.61625e-15 127.796 -1.43428)
(0 127.796 -1.43428)
(5.81706e-15 127.792 -1.46101)
(-2.39293e-15 127.792 -1.46101)
(-5.39417e-16 127.789 -1.48824)
(2.34908e-15 127.789 -1.48824)
(2.30604e-15 127.785 -1.51597)
(0 127.785 -1.51597)
(-2.26378e-15 127.78 -1.54421)
(0 127.78 -1.54421)
(4.22703e-15 127.775 -1.57297)
(0 127.775 -1.57297)
(2.2186e-15 127.769 -1.60225)
(8.8744e-15 127.769 -1.60225)
(4.65128e-15 127.762 -1.63207)
(0 127.762 -1.63207)
(2.43467e-15 127.755 -1.66243)
(0 127.755 -1.66243)
(2.54574e-15 127.746 -1.69333)
(-8.25531e-15 127.746 -1.69333)
(2.65887e-15 127.736 -1.7248)
(-1.06355e-14 127.736 -1.7248)
(0 127.724 -1.75682)
(-1.50742e-14 127.724 -1.75682)
(7.80975e-15 127.711 -1.78942)
(0 127.711 -1.78942)
(3.01105e-15 127.696 -1.82259)
(-1.20442e-14 127.696 -1.82259)
(6.26567e-15 127.678 -1.85634)
(-3.76307e-15 127.678 -1.85634)
(-3.25688e-15 127.658 -1.89067)
(-1.30275e-14 127.658 -1.89067)
(-3.38323e-15 127.635 -1.92559)
(-3.06922e-14 127.635 -1.92559)
(-3.51191e-15 127.608 -1.96109)
(-7.11994e-15 127.608 -1.96109)
(-1.48249e-16 127.577 -1.99718)
(-3.49474e-15 127.577 -1.99718)
(-3.45782e-16 127.541 -2.03385)
(-3.36425e-14 127.541 -2.03385)
(4.45704e-15 127.5 -2.07109)
(3.36783e-15 127.5 -2.07109)
(4.0509e-15 127.453 -2.10891)
(-1.62036e-14 127.453 -2.10891)
(8.38381e-15 127.398 -2.1473)
(1.02766e-14 127.398 -2.1473)
(4.3355e-15 127.335 -2.18623)
(-1.7342e-14 127.335 -2.18623)
(-8.96345e-15 127.263 -2.22569)
(-1.79269e-14 127.263 -2.22569)
(9.26123e-15 127.181 -2.26567)
(1.85225e-14 127.181 -2.26567)
(0 127.086 -2.30613)
(0 127.086 -2.30613)
(-4.93655e-15 126.978 -2.34704)
(-3.94924e-14 126.978 -2.34704)
(5.09368e-15 126.855 -2.38838)
(-2.03747e-14 126.855 -2.38838)
(-6.15206e-15 126.714 -2.43009)
(1.14057e-14 126.714 -2.43009)
(0 126.555 -2.47214)
(-4.33312e-14 126.555 -2.47214)
(5.58207e-15 126.373 -2.51445)
(0 126.373 -2.51445)
(7.11209e-16 126.168 -2.55697)
(1.07901e-14 126.168 -2.55697)
(0 125.937 -2.59963)
(-3.42809e-14 125.937 -2.59963)
(8.97481e-16 125.676 -2.64234)
(0 125.676 -2.64234)
(6.27403e-15 125.383 -2.68502)
(-2.50961e-14 125.383 -2.68502)
(0 125.054 -2.72757)
(-2.58178e-14 125.054 -2.72757)
(0 124.687 -2.76987)
(-2.65513e-14 124.687 -2.76987)
(6.82421e-15 124.279 -2.81181)
(0 124.279 -2.81181)
(9.47981e-15 123.824 -2.85327)
(-9.47981e-15 123.824 -2.85327)
(2.58181e-14 123.321 -2.89411)
(-9.30609e-15 123.321 -2.89411)
(1.65367e-14 122.766 -2.93419)
(-9.13556e-15 122.766 -2.93419)
(8.96816e-15 122.156 -2.97337)
(-3.93654e-14 122.156 -2.97337)
(0 121.487 -3.0115)
(0 121.487 -3.0115)
(8.00417e-15 120.756 -3.04841)
(-3.20167e-14 120.756 -3.04841)
(0 119.962 -3.08397)
(-3.28431e-14 119.962 -3.08397)
(0 119.1 -3.11801)
(8.32865e-15 119.1 -3.11801)
(-8.63189e-15 118.17 -3.15038)
(6.90552e-14 118.17 -3.15038)
(0 117.17 -3.18095)
(0 117.17 -3.18095)
(9.063e-15 116.099 -3.20958)
(-3.6252e-14 116.099 -3.20958)
(2.47515e-14 114.956 -3.23614)
(-5.25976e-14 114.956 -3.23614)
(1.5186e-14 113.741 -3.26052)
(-7.60256e-14 113.741 -3.26052)
(-9.72637e-15 112.457 -3.28263)
(0 112.457 -3.28263)
(0 111.103 -3.30238)
(0 111.103 -3.30238)
(0 109.681 -3.31972)
(4.07126e-14 109.681 -3.31972)
(3.69669e-15 108.196 -3.3346)
(-1.66503e-13 108.196 -3.3346)
(2.12722e-14 106.649 -3.347)
(-4.25444e-14 106.649 -3.347)
(-1.0867e-14 105.044 -3.35691)
(0 105.044 -3.35691)
(2.24307e-15 103.387 -3.36435)
(-5.77374e-14 103.387 -3.36435)
(-2.26633e-14 101.681 -3.36936)
(-5.8424e-14 101.681 -3.36936)
(-1.15651e-14 99.9306 -3.37197)
(-9.25205e-14 99.9306 -3.37197)
(2.3598e-14 98.1421 -3.37227)
(-4.7196e-14 98.1421 -3.37227)
(1.20333e-14 96.3205 -3.37033)
(4.81331e-14 96.3205 -3.37033)
(-2.4327e-14 94.4711 -3.36624)
(7.33978e-14 94.4711 -3.36624)
(2.44427e-14 92.5995 -3.3601)
(-7.38897e-14 92.5995 -3.3601)
(-2.54728e-14 90.711 -3.35204)
(3.92238e-14 90.711 -3.35204)
(1.29704e-14 88.8109 -3.34216)
(-1.1507e-14 88.8109 -3.34216)
(-1.90774e-15 86.9043 -3.33059)
(0 86.9043 -3.33059)
(0 84.9961 -3.31745)
(0 84.9961 -3.31745)
(-8.10284e-15 83.0908 -3.30287)
(7.6448e-14 83.0908 -3.30287)
(2.13729e-14 81.1929 -3.28698)
(-5.56017e-14 81.1929 -3.28698)
(0 79.3063 -3.26989)
(-2.09813e-14 79.3063 -3.26989)
(1.43603e-14 77.4347 -3.25173)
(3.68443e-14 77.4347 -3.25173)
(0 75.5815 -3.23262)
(-2.02193e-14 75.5815 -3.23262)
(0 73.7496 -3.21267)
(-1.18525e-13 73.7496 -3.21267)
(1.94851e-14 71.9417 -3.19198)
(-1.94851e-14 71.9417 -3.19198)
(1.52659e-14 70.1602 -3.17066)
(-6.10635e-14 70.1602 -3.17066)
(1.54889e-14 68.4072 -3.1488)
(0 68.4072 -3.1488)
(1.57105e-14 66.6844 -3.12649)
(1.44118e-13 66.6844 -3.12649)
(3.40263e-14 64.9933 -3.10382)
(-1.80957e-14 64.9933 -3.10382)
(1.61492e-14 63.3352 -3.08087)
(-8.23607e-14 63.3352 -3.08087)
(-1.85109e-14 61.7109 -3.05769)
(6.54646e-14 61.7109 -3.05769)
(0 60.1212 -3.03437)
(0 60.1212 -3.03437)
(-1.67954e-14 58.5668 -3.01096)
(-6.71814e-14 58.5668 -3.01096)
(0 57.048 -2.98752)
(-1.64973e-14 57.048 -2.98752)
(0 55.565 -2.96409)
(-1.6195e-14 55.565 -2.96409)
(0 54.1179 -2.94072)
(0 54.1179 -2.94072)
(1.56069e-14 52.7066 -2.91745)
(-8.61441e-14 52.7066 -2.91745)
(-1.53209e-14 51.3309 -2.89431)
(-1.53209e-14 51.3309 -2.89431)
(0 49.9906 -2.87135)
(-1.50402e-14 49.9906 -2.87135)
(1.82464e-14 48.6852 -2.84858)
(0 48.6852 -2.84858)
(-1.84472e-14 47.4145 -2.82603)
(0 47.4145 -2.82603)
(-1.86463e-14 46.1777 -2.80373)
(-2.84568e-14 46.1777 -2.80373)
(-9.09143e-15 44.9744 -2.78169)
(0 44.9744 -2.78169)
(0 43.804 -2.75993)
(0 43.804 -2.75993)
(-1.1548e-14 42.6659 -2.73846)
(-1.53876e-13 42.6659 -2.73846)
(0 41.5593 -2.71729)
(0 41.5593 -2.71729)
(1.96189e-14 40.4835 -2.69644)
(0 40.4835 -2.69644)
(-2.54679e-14 39.4379 -2.67592)
(7.92353e-14 39.4379 -2.67592)
(0 38.4217 -2.65572)
(-1.0499e-13 38.4217 -2.65572)
(0 37.4342 -2.63585)
(-1.0528e-13 37.4342 -2.63585)
(-2.037e-14 36.4747 -2.61633)
(-8.14798e-14 36.4747 -2.61633)
(0 35.5424 -2.59714)
(8.22166e-14 35.5424 -2.59714)
(2.0737e-14 34.6365 -2.57829)
(0 34.6365 -2.57829)
(4.18369e-14 33.7564 -2.55979)
(8.36738e-14 33.7564 -2.55979)
(-2.10986e-14 32.9014 -2.54163)
(8.43944e-14 32.9014 -2.54163)
(-2.19653e-14 32.0706 -2.5238)
(-2.19653e-14 32.0706 -2.5238)
(2.1455e-14 31.2635 -2.50632)
(-2.15628e-14 31.2635 -2.50632)
(2.16313e-14 30.4792 -2.48917)
(8.65251e-14 30.4792 -2.48917)
(2.18063e-14 29.7173 -2.47235)
(8.72253e-14 29.7173 -2.47235)
(2.19802e-14 28.9769 -2.45586)
(0 28.9769 -2.45586)
(2.00252e-14 28.2574 -2.4397)
(-8.86113e-14 28.2574 -2.4397)
(8.1299e-14 27.5582 -2.42386)
(-3.93164e-14 27.5582 -2.42386)
(-3.19667e-15 26.8787 -2.40833)
(0 26.8787 -2.40833)
(0 26.2183 -2.39312)
(0 26.2183 -2.39312)
(4.2348e-15 25.5764 -2.37821)
(0 25.5764 -2.37821)
(9.48527e-15 24.9524 -2.3636)
(3.65128e-14 24.9524 -2.3636)
(3.58438e-14 24.3457 -2.34929)
(0 24.3457 -2.34929)
(2.333e-14 23.7559 -2.33526)
(1.8664e-13 23.7559 -2.33526)
(0 23.1823 -2.32152)
(0 23.1823 -2.32152)
(-5.75661e-14 22.6246 -2.30806)
(0 22.6246 -2.30806)
(9.46889e-15 22.0821 -2.29487)
(-3.32878e-14 22.0821 -2.29487)
(0 21.5545 -2.28195)
(0 21.5545 -2.28195)
(2.414e-14 21.0412 -2.26928)
(0 21.0412 -2.26928)
(6.29823e-14 20.5418 -2.25687)
(0 20.5418 -2.25687)
(4.8915e-14 20.0559 -2.24471)
(-9.783e-14 20.0559 -2.24471)
(4.92298e-14 19.5831 -2.23279)
(-9.84597e-14 19.5831 -2.23279)
(-2.47715e-14 19.1229 -2.22111)
(-2.67466e-13 19.1229 -2.22111)
(-2.49272e-14 18.6749 -2.20965)
(-5.84911e-14 18.6749 -2.20965)
(0 18.2388 -2.19842)
(1.00328e-13 18.2388 -2.19842)
(-2.81836e-14 17.8142 -2.1874)
(-2.81836e-14 17.8142 -2.1874)
(2.53894e-14 17.4008 -2.1766)
(0 17.4008 -2.1766)
(2.87783e-14 16.9981 -2.166)
(-1.56488e-13 16.9981 -2.166)
(0 16.6059 -2.15559)
(0 16.6059 -2.15559)
(7.81923e-14 16.2238 -2.14538)
(1.03379e-13 16.2238 -2.14538)
(5.19898e-14 15.8516 -2.13536)
(-1.0398e-13 15.8516 -2.13536)
(0 15.4889 -2.12551)
(-1.04578e-13 15.4889 -2.12551)
(2.62933e-14 15.1354 -2.11584)
(0 15.1354 -2.11584)
(0 14.7908 -2.10633)
(-1.30073e-13 14.7908 -2.10633)
(4.7724e-14 14.455 -2.09698)
(-2.60435e-13 14.455 -2.09698)
(-2.34247e-14 14.1275 -2.08779)
(-4.68495e-14 14.1275 -2.08779)
(5.37635e-14 13.8082 -2.07875)
(1.07527e-13 13.8082 -2.07875)
(2.70273e-14 13.4968 -2.06985)
(-4.51482e-14 13.4968 -2.06985)
(0 13.193 -2.06108)
(1.08688e-13 13.193 -2.06108)
(2.73163e-14 12.8967 -2.05244)
(-1.09265e-13 12.8967 -2.05244)
(0 12.6076 -2.04393)
(-1.52551e-13 12.6076 -2.04393)
(0 12.3254 -2.03553)
(4.19287e-14 12.3254 -2.03553)
(2.77453e-14 12.0501 -2.02724)
(-1.10981e-13 12.0501 -2.02724)
(5.57742e-14 11.7813 -2.01905)
(-1.11548e-13 11.7813 -2.01905)
(2.80283e-14 11.5188 -2.01096)
(1.12113e-13 11.5188 -2.01096)
(5.63379e-14 11.2626 -2.00295)
(7.3737e-14 11.2626 -2.00295)
(2.8309e-14 11.0124 -1.99503)
(0 11.0124 -1.99503)
(9.07628e-15 10.7679 -1.98719)
(0 10.7679 -1.98719)
(2.85875e-14 10.5291 -1.97941)
(-1.1435e-13 10.5291 -1.97941)
(2.8726e-14 10.2958 -1.97169)
(1.14904e-13 10.2958 -1.97169)
(9.32272e-14 10.0678 -1.96403)
(-3.54995e-14 10.0678 -1.96403)
(0 9.84495 -1.95641)
(1.50854e-13 9.84495 -1.95641)
(5.07244e-15 9.62708 -1.94884)
(-1.50762e-13 9.62708 -1.94884)
(5.85485e-14 9.41406 -1.94129)
(-1.50681e-13 9.41406 -1.94129)
(-2.941e-14 9.20574 -1.93376)
(-2.68248e-13 9.20575 -1.93376)
(2.95452e-14 9.00198 -1.92625)
(-1.50545e-13 9.00198 -1.92625)
(-3.17709e-14 8.80265 -1.91874)
(1.1872e-13 8.80265 -1.91874)
(-2.74924e-15 8.6076 -1.91124)
(1.19256e-13 8.6076 -1.91124)
(6.0565e-14 8.4167 -1.90371)
(-1.19791e-13 8.4167 -1.90371)
(2.47606e-17 8.22984 -1.89617)
(0 8.22984 -1.89617)
(0 8.0469 -1.8886)
(-1.79865e-13 8.0469 -1.8886)
(0 7.86774 -1.88098)
(-1.21383e-13 7.86774 -1.88098)
(0 7.69225 -1.87331)
(-1.50343e-13 7.69225 -1.87331)
(0 7.52033 -1.86559)
(0 7.52033 -1.86559)
(3.07388e-14 7.35186 -1.85778)
(-2.74014e-14 7.35186 -1.85778)
(3.08688e-14 7.18673 -1.8499)
(1.23475e-13 7.18673 -1.8499)
(3.09983e-14 7.02484 -1.84191)
(-2.64064e-14 7.02484 -1.84191)
(0 6.86608 -1.83382)
(1.24509e-13 6.86608 -1.83382)
(0 6.71036 -1.8256)
(-2.54475e-14 6.71036 -1.8256)
(0 6.55757 -1.81725)
(-1.25534e-13 6.55757 -1.81725)
(0 6.40762 -1.80875)
(-4.90467e-14 6.40762 -1.80875)
(-3.16374e-14 6.26042 -1.80008)
(0 6.26042 -1.80008)
(-3.17636e-14 6.11586 -1.79123)
(-1.27054e-13 6.11586 -1.79123)
(-3.18891e-14 5.97387 -1.78218)
(-1.27556e-13 5.97387 -1.78218)
(0 5.83435 -1.77291)
(0 5.83435 -1.77291)
(4.47146e-14 5.69721 -1.76341)
(-2.57107e-13 5.69721 -1.76341)
(0 5.56237 -1.75366)
(-1.29048e-13 5.56237 -1.75366)
(0 5.42973 -1.74363)
(0 5.42973 -1.74363)
(4.23012e-14 5.29922 -1.73331)
(-1.72332e-13 5.29922 -1.73331)
(8.8967e-15 5.17075 -1.72267)
(-4.15261e-14 5.17075 -1.72267)
(6.55009e-14 5.04424 -1.71168)
(9.02366e-14 5.04424 -1.71168)
(6.57416e-14 4.91959 -1.70032)
(0 4.91959 -1.70032)
(1.05266e-13 4.79674 -1.68857)
(-1.71246e-13 4.79674 -1.68857)
(3.31093e-14 4.67559 -1.67639)
(0 4.67559 -1.67639)
(-3.32273e-14 4.55606 -1.66375)
(-3.78582e-14 4.55606 -1.66375)
(0 4.43807 -1.65062)
(1.33378e-13 4.43807 -1.65062)
(-3.3461e-14 4.32154 -1.63696)
(9.73607e-14 4.32154 -1.63696)
(0 4.20637 -1.62273)
(-1.34306e-13 4.20637 -1.62273)
(0 4.09249 -1.6079)
(-1.69924e-13 4.09249 -1.6079)
(-6.83193e-14 3.9798 -1.59241)
(-1.3522e-13 3.9798 -1.59241)
(6.78354e-14 3.86822 -1.57623)
(-1.35671e-13 3.86822 -1.57623)
(3.40294e-14 3.75765 -1.55929)
(0 3.75765 -1.55929)
(-6.5303e-14 3.648 -1.54154)
(1.03909e-13 3.648 -1.54154)
(0 3.53916 -1.52293)
(0 3.53916 -1.52293)
(0 3.43105 -1.50338)
(-1.37432e-13 3.43105 -1.50338)
(0 3.32356 -1.48282)
(0 3.32356 -1.48282)
(4.24792e-15 3.21657 -1.46119)
(1.38284e-13 3.21657 -1.46119)
(9.42107e-14 3.10997 -1.43838)
(-3.3694e-13 3.10997 -1.43838)
(5.84441e-14 3.00365 -1.41431)
(-5.84441e-14 3.00365 -1.41431)
(-2.24926e-14 2.89747 -1.38889)
(0 2.89747 -1.38889)
(3.49806e-14 2.7913 -1.36199)
(-1.96244e-13 2.7913 -1.36199)
(-9.03687e-14 2.685 -1.3335)
(8.50264e-14 2.685 -1.3335)
(1.6075e-14 2.57842 -1.30329)
(1.40703e-13 2.57842 -1.30329)
(1.72594e-14 2.47139 -1.27121)
(0 2.47139 -1.27121)
(3.53636e-14 2.36375 -1.23709)
(-5.23055e-14 2.36375 -1.23709)
(3.54545e-14 2.2553 -1.20078)
(0 2.2553 -1.20078)
(3.55432e-14 2.14587 -1.16206)
(-1.42173e-13 2.14587 -1.16206)
(3.56295e-14 2.03523 -1.12074)
(1.42518e-13 2.03523 -1.12074)
(0 1.92316 -1.07659)
(-1.42854e-13 1.92316 -1.07659)
(3.57947e-14 1.80944 -1.02936)
(-1.90864e-13 1.80944 -1.02936)
(8.26849e-14 1.69383 -0.978777)
(0 1.69383 -0.978777)
(0 1.57606 -0.924559)
(1.43794e-13 1.57606 -0.924559)
(0 1.45588 -0.866402)
(-2.88166e-13 1.45588 -0.866402)
(0 1.33305 -0.803987)
(-1.44358e-13 1.33305 -0.803987)
(7.96283e-14 1.2073 -0.736984)
(-1.88092e-13 1.2073 -0.736984)
(3.62158e-14 1.07841 -0.665064)
(1.44863e-13 1.07841 -0.665064)
(3.62726e-14 0.946167 -0.5879)
(-2.90181e-13 0.946167 -0.5879)
(7.26498e-14 0.810412 -0.505181)
(-1.453e-13 0.810412 -0.505181)
(0 0.671032 -0.416625)
(0 0.671032 -0.416625)
(-3.64143e-14 0.527981 -0.32199)
(1.06023e-13 0.527981 -0.32199)
(3.89075e-14 0.381294 -0.221086)
(-1.8471e-13 0.381294 -0.221086)
(-3.64809e-14 0.231087 -0.11378)
(1.45923e-13 0.231087 -0.11378)
(3.65046e-14 2.5282e-06 -9.35755e-07)
(1.83746e-13 8.60145e-07 -3.18363e-07)
(3.65627e-14 -2.4493e-06 9.06554e-07)
(1.46018e-13 -1.56637e-06 5.79756e-07)
(-3.81946e-14 -0.231087 0.113779)
(2.53652e-13 -0.231087 0.113779)
(-3.64506e-14 -0.381293 0.221085)
(-3.89075e-14 -0.381293 0.221085)
(0 -0.52798 0.32199)
(1.45657e-13 -0.52798 0.32199)
(-4.03736e-14 -0.671031 0.416625)
(3.31352e-13 -0.671031 0.416625)
(-3.63249e-14 -0.810411 0.50518)
(-1.453e-13 -0.810411 0.50518)
(0 -0.946166 0.587899)
(0 -0.946166 0.587899)
(6.46126e-15 -1.07841 0.665064)
(-1.8754e-13 -1.07841 0.665064)
(0 -1.2073 0.736984)
(0 -1.2073 0.736984)
(3.60896e-14 -1.33305 0.803986)
(0 -1.33305 0.803986)
(0 -1.45588 0.866402)
(1.44083e-13 -1.45588 0.866402)
(0 -1.57606 0.924559)
(1.43794e-13 -1.57606 0.924559)
(0 -1.69383 0.978777)
(0 -1.69383 0.978777)
(-3.57947e-14 -1.80944 1.02936)
(-1.43179e-13 -1.80944 1.02936)
(7.14268e-14 -1.92316 1.07659)
(-4.85757e-14 -1.92316 1.07659)
(0 -2.03523 1.12074)
(0 -2.03523 1.12074)
(1.21492e-13 -2.14587 1.16206)
(9.17665e-14 -2.14587 1.16206)