/*--------------------------------*- C++ -*----------------------------------*\
| =========                 |                                                 |
| \\      /  F ield         | OpenFOAM: The Open Source CFD Toolbox           |
|  \\    /   O peration     | Version:  2106                                  |
|   \\  /    A nd           | Website:  www.openfoam.com                      |
|    \\/     M anipulation  |                                                 |
\*---------------------------------------------------------------------------*/
FoamFile
{
    version     2.0;
    format      ascii;
    arch        "LSB;label=32;scalar=64";
    class       volScalarField;
    location    "10030";
    object      p;
}
// * * * * * * * * * * * * * * * * * * * * * * * * * * * * * * * * * * * * * //

dimensions      [0 2 -2 0 0 0 0];

internalField   nonuniform List<scalar> 
2000
(
5.40968e-15
-1.06512e-14
1.13763e-14
-1.06521e-14
1.16498e-14
-1.06541e-14
1.02901e-14
-1.06574e-14
9.10778e-15
-1.06622e-14
8.12247e-15
-1.06683e-14
7.17669e-15
-1.06759e-14
6.24089e-15
-1.06849e-14
5.32234e-15
-1.06952e-14
4.42408e-15
-1.07068e-14
3.54535e-15
-1.07198e-14
2.68552e-15
-1.07341e-14
1.8442e-15
-1.07498e-14
1.02101e-15
-1.07667e-14
2.15556e-16
-1.07849e-14
-5.72606e-16
-1.08043e-14
-1.34338e-15
-1.08251e-14
-2.0974e-15
-1.08471e-14
-2.83473e-15
-1.08704e-14
-3.55584e-15
-1.0895e-14
-4.26091e-15
-1.09208e-14
-4.95025e-15
-1.09478e-14
-5.62418e-15
-1.0976e-14
-6.28268e-15
-1.10054e-14
-6.92622e-15
-1.1036e-14
-7.55489e-15
-1.1068e-14
-8.16922e-15
-1.11011e-14
-8.76914e-15
-1.11353e-14
-9.35494e-15
-1.11707e-14
-9.92704e-15
-1.12074e-14
-1.04858e-14
-1.12453e-14
-1.10311e-14
-1.12844e-14
-1.15632e-14
-1.13246e-14
-1.20825e-14
-1.1366e-14
-1.2589e-14
-1.14086e-14
-1.30831e-14
-1.14523e-14
-1.3565e-14
-1.14973e-14
-1.40348e-14
-1.15435e-14
-1.44929e-14
-1.15904e-14
-1.49392e-14
-1.16387e-14
-1.5374e-14
-1.1688e-14
-1.57979e-14
-1.17381e-14
-1.62103e-14
-1.17893e-14
-1.66113e-14
-1.18418e-14
-1.70019e-14
-1.18959e-14
-1.73821e-14
-1.19507e-14
-1.77518e-14
-1.20068e-14
-1.81112e-14
-1.2064e-14
-1.84613e-14
-1.2121e-14
-1.8801e-14
-1.2179e-14
-1.91313e-14
-1.22385e-14
-1.94519e-14
-1.22993e-14
-1.97641e-14
-1.2361e-14
-2.00668e-14
-1.24235e-14
-2.03604e-14
-1.24873e-14
-2.0646e-14
-1.25526e-14
-2.0923e-14
-1.26186e-14
-2.11913e-14
-1.2685e-14
-2.14519e-14
-1.27523e-14
-2.17046e-14
-1.28212e-14
-2.19495e-14
-1.28914e-14
-2.21874e-14
-1.29631e-14
-2.24177e-14
-1.30352e-14
-2.26411e-14
-1.31076e-14
-2.28572e-14
-1.31816e-14
-2.30676e-14
-1.32559e-14
-2.32718e-14
-1.33317e-14
-2.34699e-14
-1.34088e-14
-2.36617e-14
-1.34877e-14
-2.38468e-14
-1.35679e-14
-2.40267e-14
-1.36492e-14
-2.42015e-14
-1.37313e-14
-2.43704e-14
-1.38148e-14
-2.45349e-14
-1.38999e-14
-2.46932e-14
-1.39876e-14
-2.48478e-14
-1.40761e-14
-2.49974e-14
-1.4166e-14
-2.5141e-14
-1.42579e-14
-2.52826e-14
-1.43512e-14
-2.54183e-14
-1.44471e-14
-2.55488e-14
-1.45457e-14
-2.56763e-14
-1.46453e-14
-2.58e-14
-1.47453e-14
-2.59197e-14
-1.48492e-14
-2.60357e-14
-1.49557e-14
-2.61485e-14
-1.5062e-14
-2.62585e-14
-1.51686e-14
-2.63653e-14
-1.5278e-14
-2.64707e-14
-1.53872e-14
-2.65718e-14
-1.54982e-14
-2.66689e-14
-1.56134e-14
-2.67637e-14
-1.573e-14
-2.68553e-14
-1.58478e-14
-2.69466e-14
-1.59694e-14
-2.70333e-14
-1.60931e-14
-2.71151e-14
-1.62182e-14
-2.71942e-14
-1.63451e-14
-2.72705e-14
-1.6475e-14
-2.7344e-14
-1.66072e-14
-2.74153e-14
-1.67428e-14
-2.74832e-14
-1.6883e-14
-2.75466e-14
-1.7022e-14
-2.76058e-14
-1.71653e-14
-2.7661e-14
-1.73128e-14
-2.77125e-14
-1.74643e-14
-2.77577e-14
-1.76167e-14
-2.78013e-14
-1.77699e-14
-2.78376e-14
-1.79266e-14
-2.78712e-14
-1.80883e-14
-2.78964e-14
-1.82517e-14
-2.79227e-14
-1.84167e-14
-2.79472e-14
-1.85816e-14
-2.79703e-14
-1.87446e-14
-2.79906e-14
-1.8907e-14
-2.801e-14
-1.9072e-14
-2.80306e-14
-1.92394e-14
-2.80543e-14
-1.93992e-14
-2.80781e-14
-1.95593e-14
-2.81074e-14
-1.97212e-14
-2.81326e-14
-1.98849e-14
-2.81642e-14
-2.00398e-14
-2.81974e-14
-2.01889e-14
-2.82311e-14
-2.03425e-14
-2.8255e-14
-2.04986e-14
-2.82766e-14
-2.06534e-14
-2.8296e-14
-2.08103e-14
-2.83065e-14
-2.09726e-14
-2.83191e-14
-2.11331e-14
-2.83268e-14
-2.13025e-14
-2.83262e-14
-2.1477e-14
-2.8321e-14
-2.16421e-14
-2.83114e-14
-2.18085e-14
-2.82974e-14
-2.19875e-14
-2.8279e-14
-2.21681e-14
-2.82791e-14
-2.23237e-14
-2.82674e-14
-2.24846e-14
-2.82554e-14
-2.26584e-14
-2.82431e-14
-2.28223e-14
-2.82345e-14
-2.29761e-14
-2.82258e-14
-2.31393e-14
-2.82168e-14
-2.33122e-14
-2.82196e-14
-2.34672e-14
-2.82222e-14
-2.36082e-14
-2.82209e-14
-2.3759e-14
-2.82156e-14
-2.39158e-14
-2.82264e-14
-2.40626e-14
-2.8233e-14
-2.42034e-14
-2.82396e-14
-2.43505e-14
-2.82501e-14
-2.44917e-14
-2.82606e-14
-2.46272e-14
-2.82872e-14
-2.47692e-14
-2.8318e-14
-2.49137e-14
-2.8353e-14
-2.50607e-14
-2.83673e-14
-2.52102e-14
-2.8394e-14
-2.53458e-14
-2.84416e-14
-2.5476e-14
-2.84767e-14
-2.56088e-14
-2.85162e-14
-2.57443e-14
-2.85602e-14
-2.59078e-14
-2.86169e-14
-2.60578e-14
-2.86609e-14
-2.61941e-14
-2.87007e-14
-2.63339e-14
-2.87533e-14
-2.64775e-14
-2.88014e-14
-2.66166e-14
-2.88534e-14
-2.6734e-14
-2.89094e-14
-2.68898e-14
-2.89606e-14
-2.70415e-14
-2.8998e-14
-2.71899e-14
-2.90554e-14
-2.73099e-14
-2.9107e-14
-2.74448e-14
-2.91612e-14
-2.75949e-14
-2.92172e-14
-2.77525e-14
-2.92918e-14
-2.7901e-14
-2.93328e-14
-2.80324e-14
-2.94e-14
-2.81562e-14
-2.94501e-14
-2.83074e-14
-2.95426e-14
-2.84614e-14
-2.9608e-14
-2.86101e-14
-2.96714e-14
-2.87373e-14
-2.97411e-14
-2.88697e-14
-2.97818e-14
-2.90176e-14
-2.98523e-14
-2.9192e-14
-2.99509e-14
-2.93607e-14
-3.0042e-14
-2.95253e-14
-3.01249e-14
-2.96874e-14
-3.02154e-14
-2.98144e-14
-3.03124e-14
-2.99078e-14
-3.03998e-14
-3.00539e-14
-3.04762e-14
-3.02033e-14
-3.05573e-14
-3.03933e-14
-3.06403e-14
-3.05764e-14
-3.07397e-14
-3.07223e-14
-3.08714e-14
-3.07995e-14
-3.09869e-14
-3.08919e-14
-3.10877e-14
-3.10165e-14
-3.11906e-14
-3.11061e-14
-3.13136e-14
-3.11443e-14
-3.14266e-14
-3.12301e-14
-3.15159e-14
-3.12944e-14
-3.15997e-14
-3.13867e-14
-3.16618e-14
-3.15077e-14
-3.17341e-14
-3.15595e-14
-3.18014e-14
-3.16583e-14
-3.18455e-14
-3.1757e-14
-3.19311e-14
-3.18763e-14
-3.20077e-14
-3.19011e-14
-3.20454e-14
-3.20613e-14
-3.21199e-14
-3.21835e-14
-3.22296e-14
-3.21898e-14
-3.23001e-14
-3.22541e-14
-3.23817e-14
-3.2328e-14
-3.24756e-14
-3.23955e-14
-3.25374e-14
-3.24873e-14
-3.25975e-14
-3.25084e-14
-3.26588e-14
-3.26171e-14
-3.27511e-14
-3.27236e-14
-3.28119e-14
-3.27353e-14
-3.28809e-14
-3.27722e-14
-3.29598e-14
-3.28909e-14
-3.30461e-14
-3.29999e-14
-3.305e-14
-3.30693e-14
-3.31792e-14
-3.31684e-14
-3.3285e-14
-3.32661e-14
-3.33696e-14
-3.33015e-14
-3.34089e-14
-3.33298e-14
-3.34919e-14
-3.34686e-14
-3.35829e-14
-3.36039e-14
-3.37086e-14
-3.37119e-14
-3.38134e-14
-3.37935e-14
-3.38735e-14
-3.39013e-14
-3.394e-14
-3.40104e-14
-3.4035e-14
-3.40707e-14
-3.41641e-14
-3.41087e-14
-3.43092e-14
-3.4169e-14
-3.43457e-14
-3.42357e-14
-3.45169e-14
-3.4227e-14
-3.46072e-14
-3.42497e-14
-3.46318e-14
-3.43391e-14
-3.47109e-14
-3.44141e-14
-3.47931e-14
-3.44981e-14
-3.48081e-14
-3.46201e-14
-3.48157e-14
-3.47776e-14
-3.47806e-14
-3.48404e-14
-3.48559e-14
-3.48589e-14
-3.49227e-14
-3.4924e-14
-3.4988e-14
-3.4978e-14
-3.50841e-14
-3.50405e-14
-3.51239e-14
-3.50581e-14
-3.51042e-14
-3.51358e-14
-3.51905e-14
-3.51953e-14
-1.55895e-14
-1.66882e-14
-1.55899e-14
-1.66882e-14
-1.55909e-14
-1.66884e-14
-1.55926e-14
-1.66886e-14
-1.55951e-14
-1.6689e-14
-1.55982e-14
-1.66896e-14
-1.56021e-14
-1.66902e-14
-1.56067e-14
-1.66911e-14
-1.56119e-14
-1.66921e-14
-1.56179e-14
-1.66932e-14
-1.56246e-14
-1.66945e-14
-1.5632e-14
-1.66958e-14
-1.56401e-14
-1.66973e-14
-1.56489e-14
-1.6699e-14
-1.56582e-14
-1.6701e-14
-1.56683e-14
-1.67031e-14
-1.56791e-14
-1.67053e-14
-1.56905e-14
-1.67078e-14
-1.57027e-14
-1.67104e-14
-1.57155e-14
-1.67131e-14
-1.57289e-14
-1.67161e-14
-1.5743e-14
-1.67192e-14
-1.57576e-14
-1.67225e-14
-1.5773e-14
-1.67261e-14
-1.5789e-14
-1.67299e-14
-1.58056e-14
-1.67339e-14
-1.58228e-14
-1.67381e-14
-1.58407e-14
-1.67427e-14
-1.5859e-14
-1.67474e-14
-1.58781e-14
-1.67522e-14
-1.58978e-14
-1.67571e-14
-1.59181e-14
-1.67623e-14
-1.5939e-14
-1.67678e-14
-1.59605e-14
-1.67736e-14
-1.59826e-14
-1.678e-14
-1.60052e-14
-1.67864e-14
-1.60282e-14
-1.6793e-14
-1.60522e-14
-1.67997e-14
-1.60766e-14
-1.68067e-14
-1.61015e-14
-1.68144e-14
-1.61269e-14
-1.68224e-14
-1.61529e-14
-1.68304e-14
-1.61795e-14
-1.6839e-14
-1.6207e-14
-1.68475e-14
-1.62351e-14
-1.68564e-14
-1.62637e-14
-1.68653e-14
-1.62926e-14
-1.6875e-14
-1.63222e-14
-1.68851e-14
-1.63522e-14
-1.68949e-14
-1.63828e-14
-1.69045e-14
-1.64134e-14
-1.69156e-14
-1.64445e-14
-1.69271e-14
-1.64765e-14
-1.69382e-14
-1.6509e-14
-1.69504e-14
-1.65417e-14
-1.69629e-14
-1.65751e-14
-1.69751e-14
-1.66089e-14
-1.69879e-14
-1.66435e-14
-1.70008e-14
-1.66786e-14
-1.70145e-14
-1.67143e-14
-1.70289e-14
-1.67506e-14
-1.70439e-14
-1.67879e-14
-1.70587e-14
-1.68261e-14
-1.70739e-14
-1.68641e-14
-1.70892e-14
-1.69025e-14
-1.71056e-14
-1.69416e-14
-1.71224e-14
-1.69814e-14
-1.71393e-14
-1.70215e-14
-1.71574e-14
-1.7061e-14
-1.71783e-14
-1.71008e-14
-1.71994e-14
-1.71416e-14
-1.72199e-14
-1.71828e-14
-1.72407e-14
-1.7225e-14
-1.72629e-14
-1.72681e-14
-1.7287e-14
-1.73109e-14
-1.73126e-14
-1.73554e-14
-1.73398e-14
-1.74013e-14
-1.73654e-14
-1.74492e-14
-1.73906e-14
-1.74969e-14
-1.74203e-14
-1.75458e-14
-1.74513e-14
-1.75959e-14
-1.74817e-14
-1.76472e-14
-1.75122e-14
-1.77003e-14
-1.75454e-14
-1.77544e-14
-1.75826e-14
-1.78096e-14
-1.76218e-14
-1.78658e-14
-1.76593e-14
-1.79236e-14
-1.7697e-14
-1.79836e-14
-1.77381e-14
-1.80464e-14
-1.77808e-14
-1.81107e-14
-1.78244e-14
-1.81751e-14
-1.78702e-14
-1.82416e-14
-1.79176e-14
-1.83115e-14
-1.79652e-14
-1.83813e-14
-1.80138e-14
-1.84523e-14
-1.80668e-14
-1.85253e-14
-1.81207e-14
-1.85994e-14
-1.81776e-14
-1.8676e-14
-1.82383e-14
-1.87544e-14
-1.83013e-14
-1.88338e-14
-1.83696e-14
-1.89169e-14
-1.84389e-14
-1.90024e-14
-1.85033e-14
-1.90872e-14
-1.8573e-14
-1.91727e-14
-1.86495e-14
-1.92633e-14
-1.87239e-14
-1.93515e-14
-1.87991e-14
-1.94417e-14
-1.88781e-14
-1.9537e-14
-1.89593e-14
-1.96341e-14
-1.90397e-14
-1.973e-14
-1.91222e-14
-1.98214e-14
-1.92084e-14
-1.99192e-14
-1.92982e-14
-2.00155e-14
-1.939e-14
-2.01165e-14
-1.9482e-14
-2.02157e-14
-1.95776e-14
-2.03164e-14
-1.96749e-14
-2.04282e-14
-1.97673e-14
-2.05415e-14
-1.98629e-14
-2.06526e-14
-1.99666e-14
-2.07666e-14
-2.00768e-14
-2.088e-14
-2.01814e-14
-2.10013e-14
-2.0282e-14
-2.11218e-14
-2.03888e-14
-2.12433e-14
-2.05122e-14
-2.13727e-14
-2.06346e-14
-2.15064e-14
-2.0756e-14
-2.16302e-14
-2.08833e-14
-2.17582e-14
-2.10057e-14
-2.18904e-14
-2.11264e-14
-2.20307e-14
-2.12564e-14
-2.21678e-14
-2.13955e-14
-2.23094e-14
-2.15251e-14
-2.24479e-14
-2.1656e-14
-2.25833e-14
-2.17919e-14
-2.27194e-14
-2.19325e-14
-2.28485e-14
-2.2074e-14
-2.29783e-14
-2.22162e-14
-2.31087e-14
-2.2359e-14
-2.32436e-14
-2.25061e-14
-2.33674e-14
-2.26614e-14
-2.34916e-14
-2.2813e-14
-2.36122e-14
-2.29491e-14
-2.37331e-14
-2.30851e-14
-2.38702e-14
-2.32331e-14
-2.40036e-14
-2.33849e-14
-2.41372e-14
-2.35283e-14
-2.42793e-14
-2.36673e-14
-2.44136e-14
-2.37975e-14
-2.45485e-14
-2.39266e-14
-2.46882e-14
-2.40627e-14
-2.48124e-14
-2.42178e-14
-2.49372e-14
-2.43757e-14
-2.50542e-14
-2.4528e-14
-2.51798e-14
-2.46666e-14
-2.53056e-14
-2.47994e-14
-2.54401e-14
-2.49598e-14
-2.55748e-14
-2.51144e-14
-2.57011e-14
-2.5238e-14
-2.58361e-14
-2.53638e-14
-2.5963e-14
-2.55169e-14
-2.60816e-14
-2.56462e-14
-2.62088e-14
-2.57772e-14
-2.63447e-14
-2.59351e-14
-2.64808e-14
-2.60944e-14
-2.66168e-14
-2.6221e-14
-2.6736e-14
-2.63572e-14
-2.68553e-14
-2.64686e-14
-2.6975e-14
-2.65887e-14
-2.70952e-14
-2.67346e-14
-2.72244e-14
-2.68544e-14
-2.73455e-14
-2.69995e-14
-2.74672e-14
-2.71526e-14
-2.75718e-14
-2.72965e-14
-2.76931e-14
-2.74226e-14
-2.78142e-14
-2.75393e-14
-2.79265e-14
-2.76808e-14
-2.8047e-14
-2.78212e-14
-2.81667e-14
-2.79602e-14
-2.82766e-14
-2.80892e-14
-2.83937e-14
-2.81645e-14
-2.85104e-14
-2.82539e-14
-2.86363e-14
-2.83818e-14
-2.87544e-14
-2.85298e-14
-2.88464e-14
-2.86978e-14
-2.89798e-14
-2.88349e-14
-2.91545e-14
-2.89231e-14
-2.92348e-14
-2.90285e-14
-2.93753e-14
-2.91166e-14
-2.94915e-14
-2.92191e-14
-2.95838e-14
-2.93513e-14
-2.9703e-14
-2.94954e-14
-2.9814e-14
-2.9599e-14
-2.99168e-14
-2.97292e-14
-3.0027e-14
-2.98179e-14
-3.01448e-14
-2.99492e-14
-3.02696e-14
-3.002e-14
-3.03863e-14
-3.00954e-14
-3.0445e-14
-3.02072e-14
-3.05784e-14
-3.03059e-14
-3.06694e-14
-3.04063e-14
-3.07514e-14
-3.05079e-14
-3.08407e-14
-3.06265e-14
-3.09525e-14
-3.06628e-14
-3.10239e-14
-3.0745e-14
-3.10886e-14
-3.09046e-14
-3.11907e-14
-3.09624e-14
-3.12828e-14
-3.10655e-14
-3.13324e-14
-3.11779e-14
-3.14173e-14
-3.12684e-14
-3.15029e-14
-3.1322e-14
-3.1591e-14
-3.14004e-14
-3.16491e-14
-3.15013e-14
-3.17541e-14
-3.16268e-14
-3.18402e-14
-3.16806e-14
-3.19101e-14
-3.17249e-14
-3.19655e-14
-3.18176e-14
-3.19698e-14
-3.19587e-14
-3.20993e-14
-3.20985e-14
-3.21955e-14
-3.22409e-14
-3.21915e-14
-3.23895e-14
-3.23181e-14
-3.24654e-14
-3.23961e-14
-3.25264e-14
-3.25154e-14
-3.26302e-14
-3.26144e-14
-3.2713e-14
-3.27544e-14
-3.28053e-14
-3.28526e-14
-3.29346e-14
-3.29351e-14
-3.30724e-14
-3.30528e-14
-3.31644e-14
-3.31463e-14
-3.33251e-14
-3.32632e-14
-3.34779e-14
-3.33701e-14
-3.35714e-14
-3.34686e-14
-3.36327e-14
-3.36479e-14
-3.36859e-14
-3.37542e-14
-3.37994e-14
-3.39245e-14
-3.3891e-14
-3.40095e-14
-3.39496e-14
-3.41182e-14
-3.40594e-14
-3.42781e-14
-3.42257e-14
-3.43599e-14
-3.43165e-14
-3.43623e-14
-3.43624e-14
-3.44326e-14
-3.44225e-14
-3.45215e-14
-3.45685e-14
-3.46239e-14
-3.46216e-14
-3.46829e-14
-3.46773e-14
-3.46974e-14
-3.47908e-14
-3.47438e-14
-3.48833e-14
-3.47804e-14
-3.48928e-14
-3.49078e-14
-3.48598e-14
-3.50194e-14
-3.49445e-14
-3.51393e-14
-3.50872e-14
-3.5231e-14
-3.52195e-14
-3.5188e-14
-3.52501e-14
-3.52421e-14
-3.52506e-14
-3.53032e-14
-3.53578e-14
-3.53628e-14
-3.53822e-14
-3.53651e-14
-3.53614e-14
-3.53995e-14
-3.53447e-14
-3.54016e-14
-3.53773e-14
-3.54645e-14
-3.54367e-14
-3.55621e-14
-3.54942e-14
-3.55742e-14
-3.55442e-14
-3.56e-14
-3.55669e-14
-3.55659e-14
-3.55617e-14
-3.55421e-14
-3.55329e-14
-3.55816e-14
-3.55579e-14
-3.56321e-14
-3.55841e-14
-3.56403e-14
-3.55782e-14
-3.56066e-14
-3.55655e-14
-3.56096e-14
-3.56327e-14
-3.56398e-14
-3.5673e-14
-3.56611e-14
-3.56851e-14
-3.56741e-14
-3.57006e-14
-3.57416e-14
-3.57201e-14
-3.57537e-14
-3.56803e-14
-3.57451e-14
-3.57208e-14
-3.57748e-14
-3.57585e-14
-3.58411e-14
-3.57337e-14
-3.59232e-14
-3.5757e-14
-3.5966e-14
-3.58224e-14
-3.59356e-14
-3.5902e-14
-3.59129e-14
-3.59162e-14
-3.59256e-14
-3.58714e-14
-3.59466e-14
-3.5823e-14
-3.60156e-14
-3.57925e-14
-3.59225e-14
-3.5836e-14
-3.58729e-14
-3.58081e-14
-3.58628e-14
-3.57748e-14
-3.58619e-14
-3.57993e-14
-3.58667e-14
-3.57867e-14
-3.58781e-14
-3.57683e-14
-3.58813e-14
-3.58247e-14
-3.58718e-14
-3.58771e-14
-3.58444e-14
-3.58473e-14
-3.58809e-14
-3.58667e-14
-3.59002e-14
-3.58689e-14
-3.59199e-14
-3.59177e-14
-3.59382e-14
-3.59324e-14
-3.60056e-14
-3.59647e-14
-3.60246e-14
-3.60125e-14
-3.60438e-14
-3.60431e-14
-3.60802e-14
-3.60581e-14
-3.61182e-14
-3.60562e-14
-3.61251e-14
-3.61032e-14
-3.61154e-14
-3.61674e-14
-3.61194e-14
-3.62347e-14
-3.61524e-14
-3.62061e-14
-3.61487e-14
-3.6147e-14
-3.61951e-14
-3.61405e-14
-3.62085e-14
-3.61846e-14
-3.62397e-14
-3.62462e-14
-3.62537e-14
-3.62574e-14
-3.6268e-14
-3.62355e-14
-3.62836e-14
-3.62308e-14
-3.63009e-14
-3.62423e-14
-3.63204e-14
-3.627e-14
-3.63418e-14
-3.62793e-14
-3.63652e-14
-3.62703e-14
-3.63914e-14
-3.62943e-14
-3.63854e-14
-3.63165e-14
-3.63984e-14
-3.63552e-14
-3.64471e-14
-3.63935e-14
-3.64885e-14
-3.64139e-14
-3.64884e-14
-3.63982e-14
-3.6499e-14
-3.64157e-14
-3.65198e-14
-3.64494e-14
-3.65418e-14
-3.64737e-14
-3.65562e-14
-3.648e-14
-3.65802e-14
-3.65114e-14
-3.66051e-14
-3.65679e-14
-3.66302e-14
-3.65809e-14
-3.66558e-14
-3.65765e-14
-3.6665e-14
-3.65802e-14
-3.6675e-14
-3.66005e-14
-3.66857e-14
-3.66203e-14
-3.66883e-14
-3.66395e-14
-3.66912e-14
-3.66496e-14
-3.66771e-14
-3.66508e-14
-3.66715e-14
-3.66602e-14
-3.66828e-14
-3.66696e-14
-3.66768e-14
-3.66788e-14
-3.6679e-14
-3.66795e-14
-3.66892e-14
-3.66633e-14
-3.6691e-14
-3.66722e-14
-3.66926e-14
-3.66975e-14
-3.66939e-14
-3.67143e-14
-3.6695e-14
-3.67144e-14
-3.6704e-14
-3.6723e-14
-3.67043e-14
-3.67316e-14
-3.66959e-14
-3.67403e-14
-3.67037e-14
-3.67576e-14
-3.67191e-14
-3.6767e-14
-3.67342e-14
-3.67645e-14
-3.67449e-14
-3.67622e-14
-3.67554e-14
-3.67601e-14
-3.67659e-14
-3.675e-14
-3.67725e-14
-3.674e-14
-3.67832e-14
-3.6746e-14
-3.68062e-14
-3.67438e-14
-3.68216e-14
-3.67455e-14
-3.68334e-14
-3.67469e-14
-3.68418e-14
-3.67519e-14
-3.68546e-14
-3.67449e-14
-3.68602e-14
-3.67414e-14
-3.68703e-14
-3.67414e-14
-3.68771e-14
-3.67448e-14
-3.68807e-14
-3.67592e-14
-3.68773e-14
-3.67695e-14
-3.68744e-14
-3.67718e-14
-3.68758e-14
-3.67702e-14
-3.68813e-14
-3.67609e-14
-3.68835e-14
-3.67625e-14
-3.68862e-14
-3.67639e-14
-3.6893e-14
-3.67649e-14
-3.68857e-14
-3.6762e-14
-3.6886e-14
-3.67481e-14
-3.68903e-14
-3.67482e-14
-3.6895e-14
-3.67587e-14
-3.6893e-14
-3.67583e-14
-3.68914e-14
-3.67506e-14
-3.68936e-14
-3.67513e-14
-3.68944e-14
-3.67604e-14
-3.68972e-14
-3.67624e-14
-3.68968e-14
-3.67607e-14
-3.68934e-14
-3.67689e-14
-3.68919e-14
-3.67751e-14
-3.68939e-14
-3.67762e-14
-3.68961e-14
-3.67722e-14
-3.69001e-14
-3.67665e-14
-3.68994e-14
-3.67686e-14
-3.69005e-14
-3.67753e-14
-3.69018e-14
-3.67786e-14
-3.69033e-14
-3.67786e-14
-3.69049e-14
-3.67816e-14
-3.69066e-14
-3.67828e-14
-3.691e-14
-3.67839e-14
-3.69135e-14
-3.67834e-14
-3.69142e-14
-3.67827e-14
-3.6915e-14
-3.67833e-14
-3.69189e-14
-3.67838e-14
-3.69214e-14
-3.67798e-14
-3.69212e-14
-3.67757e-14
-3.69226e-14
-3.67772e-14
-3.69241e-14
-3.678e-14
-3.6925e-14
-3.67819e-14
-3.69267e-14
-3.67822e-14
-3.69258e-14
-3.67797e-14
-3.69271e-14
-3.67764e-14
-3.69285e-14
-3.67778e-14
-3.69274e-14
-3.6779e-14
-3.6927e-14
-3.67787e-14
-3.69274e-14
-3.67783e-14
-3.6928e-14
-3.67779e-14
-3.69286e-14
-3.67779e-14
-3.6928e-14
-3.67785e-14
-3.69276e-14
-3.67784e-14
-3.69272e-14
-3.67794e-14
-3.6927e-14
-3.6781e-14
-3.69274e-14
-3.67812e-14
-3.6928e-14
-3.67807e-14
-3.69274e-14
-3.67801e-14
-3.69262e-14
-3.678e-14
-3.6927e-14
-3.67812e-14
-3.69273e-14
-3.67823e-14
-3.69276e-14
-3.67826e-14
-3.6928e-14
-3.67819e-14
-3.69285e-14
-3.67808e-14
-3.69287e-14
-3.6781e-14
-3.69293e-14
-3.67814e-14
-3.69306e-14
-3.67814e-14
-3.6931e-14
-3.6782e-14
-3.69315e-14
-3.67816e-14
-3.69324e-14
-3.67817e-14
-3.69326e-14
-3.67829e-14
-3.69329e-14
-3.67826e-14
-3.69333e-14
-3.67816e-14
-3.69333e-14
-3.67815e-14
-3.69334e-14
-3.67818e-14
-3.69332e-14
-3.67809e-14
-3.69334e-14
-3.678e-14
-3.69329e-14
-3.67809e-14
-3.69331e-14
-3.67817e-14
-3.69334e-14
-3.67822e-14
-3.69332e-14
-3.67826e-14
-3.69328e-14
-3.67829e-14
-3.69327e-14
-3.67835e-14
-3.69332e-14
-3.67836e-14
-3.69337e-14
-3.67839e-14
-3.69341e-14
-3.67841e-14
-3.69343e-14
-3.67846e-14
-3.69343e-14
-3.67852e-14
-3.69346e-14
-3.6786e-14
-3.69346e-14
-3.67878e-14
-3.6935e-14
-3.67888e-14
-3.69351e-14
-3.67887e-14
-3.69348e-14
-3.67889e-14
-3.69348e-14
-3.67893e-14
-3.69349e-14
-3.67895e-14
-3.6935e-14
-3.67896e-14
-3.69351e-14
-3.67893e-14
-3.69348e-14
-3.67896e-14
-3.69349e-14
-3.67902e-14
-3.69348e-14
-3.67903e-14
-3.69343e-14
-3.679e-14
-3.69337e-14
-3.67901e-14
-3.69335e-14
-3.67901e-14
-3.69333e-14
-3.679e-14
-3.69332e-14
-3.67901e-14
-3.69329e-14
-3.67904e-14
-3.69326e-14
-3.67907e-14
-3.69327e-14
-3.67907e-14
-3.69328e-14
-3.67905e-14
-3.69328e-14
-3.67907e-14
-3.69327e-14
-3.67908e-14
-3.69329e-14
-3.67905e-14
-3.69329e-14
-3.67902e-14
-3.69328e-14
-3.679e-14
-3.69329e-14
-3.67901e-14
-3.69329e-14
-3.67901e-14
-3.6933e-14
-3.67901e-14
-3.69331e-14
-3.679e-14
-3.69331e-14
-3.67899e-14
-3.69331e-14
-3.679e-14
-3.69331e-14
-3.67899e-14
-3.69331e-14
-3.67898e-14
-3.69331e-14
-3.67898e-14
-3.69331e-14
-3.67898e-14
-3.69331e-14
-3.67898e-14
-3.6933e-14
-3.67898e-14
-3.6933e-14
-3.67899e-14
-3.6933e-14
-3.67899e-14
-3.6933e-14
-3.67899e-14
-3.69329e-14
-3.67899e-14
-3.69329e-14
-3.67899e-14
-3.69328e-14
-3.67899e-14
-3.69329e-14
-3.679e-14
-3.69329e-14
-3.679e-14
-3.69329e-14
-3.679e-14
-3.69329e-14
-3.679e-14
-3.69329e-14
-3.679e-14
-3.69329e-14
-3.679e-14
-3.51118e-14
-3.51492e-14
-3.51092e-14
-3.52118e-14
-3.51725e-14
-3.52449e-14
-3.52086e-14
-3.5296e-14
-3.53684e-14
-3.53612e-14
-3.53215e-14
-3.53177e-14
-3.53231e-14
-3.5268e-14
-3.53815e-14
-3.53303e-14
-3.5449e-14
-3.54038e-14
-3.54709e-14
-3.54384e-14
-3.54903e-14
-3.54884e-14
-3.54201e-14
-3.55059e-14
-3.54551e-14
-3.5506e-14
-3.54716e-14
-3.5538e-14
-3.54988e-14
-3.54979e-14
-3.55479e-14
-3.55372e-14
-3.5564e-14
-3.55428e-14
-3.55776e-14
-3.55713e-14
-3.55902e-14
-3.56572e-14
-3.57082e-14
-3.57258e-14
-3.57415e-14
-3.56838e-14
-3.56995e-14
-3.56928e-14
-3.5719e-14
-3.56709e-14
-3.57432e-14
-3.56997e-14
-3.56516e-14
-3.57248e-14
-3.56973e-14
-3.57585e-14
-3.57628e-14
-3.57686e-14
-3.5824e-14
-3.58119e-14
-3.58509e-14
-3.58878e-14
-3.58377e-14
-3.5909e-14
-3.58132e-14
-3.58438e-14
-3.58439e-14
-3.58404e-14
-3.58086e-14
-3.58983e-14
-3.57597e-14
-3.58722e-14
-3.57865e-14
-3.58584e-14
-3.58026e-14
-3.5819e-14
-3.57827e-14
-3.5781e-14
-3.58245e-14
-3.58076e-14
-3.58339e-14
-3.58009e-14
-3.58445e-14
-3.57599e-14
-3.58759e-14
-3.58437e-14
-3.59093e-14
-3.58936e-14
-3.59119e-14
-3.5861e-14
-3.59359e-14
-3.58587e-14
-3.59493e-14
-3.59348e-14
-3.59815e-14
-3.59455e-14
-3.60006e-14
-3.58884e-14
-3.60102e-14
-3.59416e-14
-3.60401e-14
-3.60079e-14
-3.60381e-14
-3.59885e-14
-3.60552e-14
-3.60164e-14
-3.61073e-14
-3.60248e-14
-3.61458e-14
-3.60631e-14
-3.61881e-14
-3.61144e-14
-3.61665e-14
-3.61107e-14
-3.6182e-14
-3.61027e-14
-3.62351e-14
-3.60728e-14
-3.62268e-14
-3.60875e-14
-3.62237e-14
-3.61311e-14
-3.62237e-14
-3.61709e-14
-3.62252e-14
-3.61734e-14
-3.6245e-14
-3.61732e-14
-3.62666e-14
-3.62046e-14
-3.62551e-14
-3.62167e-14
-3.62786e-14
-3.62447e-14
-3.63025e-14
-3.62368e-14
-3.63275e-14
-3.62269e-14
-3.63545e-14
-3.62487e-14
-3.63836e-14
-3.62675e-14
-3.63978e-14
-3.63007e-14
-3.64141e-14
-3.63486e-14
-3.64401e-14
-3.63859e-14
-3.64667e-14
-3.63872e-14
-3.64946e-14
-3.63781e-14
-3.65245e-14
-3.6384e-14
-3.6557e-14
-3.64128e-14
-3.65835e-14
-3.64386e-14
-3.66125e-14
-3.6479e-14
-3.66438e-14
-3.6517e-14
-3.666e-14
-3.65007e-14
-3.66875e-14
-3.64901e-14
-3.67093e-14
-3.6502e-14
-3.67256e-14
-3.65278e-14
-3.67275e-14
-3.65763e-14
-3.67403e-14
-3.6614e-14
-3.67463e-14
-3.66326e-14
-3.67368e-14
-3.66413e-14
-3.67373e-14
-3.66573e-14
-3.67476e-14
-3.66639e-14
-3.67506e-14
-3.66696e-14
-3.67548e-14
-3.66743e-14
-3.67516e-14
-3.66952e-14
-3.67493e-14
-3.67072e-14
-3.67392e-14
-3.67189e-14
-3.67379e-14
-3.67306e-14
-3.67453e-14
-3.67254e-14
-3.6753e-14
-3.67368e-14
-3.6736e-14
-3.67482e-14
-3.6744e-14
-3.6743e-14
-3.67356e-14
-3.67461e-14
-3.67273e-14
-3.67493e-14
-3.67353e-14
-3.67402e-14
-3.67433e-14
-3.67393e-14
-3.67512e-14
-3.67342e-14
-3.67511e-14
-3.67249e-14
-3.67592e-14
-3.67033e-14
-3.67554e-14
-3.67015e-14
-3.67519e-14
-3.66992e-14
-3.67725e-14
-3.66927e-14
-3.67813e-14
-3.66974e-14
-3.67903e-14
-3.66977e-14
-3.67957e-14
-3.66935e-14
-3.68014e-14
-3.66927e-14
-3.68074e-14
-3.66835e-14
-3.68177e-14
-3.66853e-14
-3.68206e-14
-3.66864e-14
-3.68239e-14
-3.66831e-14
-3.68238e-14
-3.66866e-14
-3.68354e-14
-3.66857e-14
-3.68362e-14
-3.66879e-14
-3.68374e-14
-3.66968e-14
-3.68427e-14
-3.66978e-14
-3.68447e-14
-3.66946e-14
-3.68542e-14
-3.66908e-14
-3.68606e-14
-3.66973e-14
-3.68673e-14
-3.67032e-14
-3.68743e-14
-3.6705e-14
-3.68817e-14
-3.66993e-14
-3.68895e-14
-3.6693e-14
-3.68943e-14
-3.66967e-14
-3.68994e-14
-3.6705e-14
-3.69084e-14
-3.67059e-14
-3.69076e-14
-3.67063e-14
-3.69123e-14
-3.67095e-14
-3.69157e-14
-3.6714e-14
-3.6926e-14
-3.67163e-14
-3.69253e-14
-3.67181e-14
-3.69201e-14
-3.67244e-14
-3.69281e-14
-3.67302e-14
-3.69301e-14
-3.67324e-14
-3.69276e-14
-3.67343e-14
-3.69271e-14
-3.67389e-14
-3.693e-14
-3.67416e-14
-3.69361e-14
-3.6741e-14
-3.69349e-14
-3.67431e-14
-3.69326e-14
-3.67479e-14
-3.69319e-14
-3.67479e-14
-3.6933e-14
-3.67477e-14
-3.69343e-14
-3.67501e-14
-3.69344e-14
-3.67495e-14
-3.69361e-14
-3.67486e-14
-3.69351e-14
-3.67531e-14
-3.69358e-14
-3.67575e-14
-3.69318e-14
-3.67623e-14
-3.693e-14
-3.67669e-14
-3.69277e-14
-3.67706e-14
-3.69249e-14
-3.67741e-14
-3.69216e-14
-3.67782e-14
-3.69184e-14
-3.67808e-14
-3.6918e-14
-3.67825e-14
-3.6917e-14
-3.67855e-14
-3.69149e-14
-3.67891e-14
-3.69121e-14
-3.67919e-14
-3.69114e-14
-3.67952e-14
-3.69108e-14
-3.67971e-14
-3.69103e-14
-3.6799e-14
-3.69078e-14
-3.68028e-14
-3.69081e-14
-3.68045e-14
-3.69077e-14
-3.68049e-14
-3.69067e-14
-3.68072e-14
-3.69071e-14
-3.68082e-14
-3.69075e-14
-3.68091e-14
-3.69073e-14
-3.68093e-14
-3.69085e-14
-3.68086e-14
-3.69087e-14
-3.68087e-14
-3.69093e-14
-3.68085e-14
-3.69096e-14
-3.68086e-14
-3.69102e-14
-3.6809e-14
-3.69106e-14
-3.68103e-14
-3.6911e-14
-3.68103e-14
-3.69112e-14
-3.68102e-14
-3.69113e-14
-3.68115e-14
-3.69112e-14
-3.68134e-14
-3.69107e-14
-3.68143e-14
-3.69113e-14
-3.68145e-14
-3.6913e-14
-3.68143e-14
-3.69136e-14
-3.68144e-14
-3.69139e-14
-3.68149e-14
-3.69139e-14
-3.68154e-14
-3.69143e-14
-3.68162e-14
-3.69146e-14
-3.68166e-14
-3.69146e-14
-3.6817e-14
-3.69153e-14
-3.68176e-14
-3.69156e-14
-3.68184e-14
-3.69155e-14
-3.6819e-14
-3.69159e-14
-3.6819e-14
-3.69163e-14
-3.68191e-14
-3.69167e-14
-3.68192e-14
-3.69164e-14
-3.68196e-14
-3.69162e-14
-3.68195e-14
-3.69169e-14
-3.68189e-14
-3.6917e-14
-3.68186e-14
-3.69173e-14
-3.68189e-14
-3.69171e-14
-3.68192e-14
-3.69171e-14
-3.68189e-14
-3.69177e-14
-3.68184e-14
-3.69175e-14
-3.68178e-14
-3.69178e-14
-3.68176e-14
-3.69179e-14
-3.68176e-14
-3.69178e-14
-3.68172e-14
-3.69176e-14
-3.68167e-14
-3.69175e-14
-3.68164e-14
-3.69177e-14
-3.68162e-14
-3.69178e-14
-3.68162e-14
-3.69178e-14
-3.6816e-14
-3.69177e-14
-3.68158e-14
-3.69178e-14
-3.68155e-14
-3.69176e-14
-3.68155e-14
-3.69175e-14
-3.68157e-14
-3.69178e-14
-3.68158e-14
-3.69178e-14
-3.68159e-14
-3.69178e-14
-3.6816e-14
-3.69177e-14
-3.68162e-14
-3.69176e-14
-3.68164e-14
-3.69178e-14
-3.68164e-14
-3.69179e-14
-3.68167e-14
-3.69178e-14
-3.68171e-14
-3.69179e-14
-3.68174e-14
-3.69178e-14
-3.68176e-14
-3.69179e-14
-3.68178e-14
-3.69179e-14
-3.68181e-14
-3.69177e-14
-3.68184e-14
-3.69178e-14
-3.68184e-14
-3.69178e-14
-3.68187e-14
-3.69177e-14
-3.68189e-14
-3.69177e-14
-3.6819e-14
-3.69177e-14
-3.68191e-14
-3.69177e-14
-3.68191e-14
-3.69176e-14
-3.68193e-14
-3.69176e-14
-3.68194e-14
-3.69175e-14
-3.68195e-14
-3.69175e-14
-3.68195e-14
-3.69175e-14
-3.68196e-14
-3.69175e-14
-3.68196e-14
-3.69175e-14
-3.68197e-14
-3.69175e-14
-3.68197e-14
-3.69175e-14
-3.68197e-14
-3.69175e-14
-3.68197e-14
-3.69175e-14
-3.68197e-14
-3.69175e-14
-3.68197e-14
)
;

boundaryField
{
    walls
    {
        type            zeroGradient;
    }
    inlet
    {
        type            cyclic;
    }
    outlet
    {
        type            cyclic;
    }
    sides
    {
        type            empty;
    }
}


// ************************************************************************* //
