/*--------------------------------*- C++ -*----------------------------------*\
| =========                 |                                                 |
| \\      /  F ield         | OpenFOAM: The Open Source CFD Toolbox           |
|  \\    /   O peration     | Version:  2106                                  |
|   \\  /    A nd           | Website:  www.openfoam.com                      |
|    \\/     M anipulation  |                                                 |
\*---------------------------------------------------------------------------*/
FoamFile
{
    version     2.0;
    format      ascii;
    arch        "LSB;label=32;scalar=64";
    class       volSymmTensorField;
    location    "10030";
    object      turbulenceProperties:R;
}
// * * * * * * * * * * * * * * * * * * * * * * * * * * * * * * * * * * * * * //

dimensions      [0 2 -2 0 0 0 0];

internalField   nonuniform List<symmTensor> 
2000
(
(3.13903e-08 -1.87271e-13 -3.46603e-16 3.13903e-08 -1.25219e-27 3.13903e-08)
(3.13903e-08 -1.87271e-13 -3.46603e-16 3.13903e-08 -1.15124e-27 3.13903e-08)
(4.75807e-09 -1.63522e-13 -9.13648e-16 4.75807e-09 -3.28243e-28 4.75807e-09)
(4.75807e-09 -1.63522e-13 -9.13648e-16 4.75807e-09 -7.55822e-28 4.75807e-09)
(2.53863e-09 -2.58321e-13 -2.00261e-15 2.53863e-09 -3.58293e-28 2.53863e-09)
(2.53863e-09 -2.58321e-13 -2.00261e-15 2.53863e-09 -1.12557e-28 2.53863e-09)
(4.93473e-09 -1.06917e-12 -8.4434e-15 4.93473e-09 1.00043e-28 4.93473e-09)
(4.93473e-09 -1.06917e-12 -8.4434e-15 4.93473e-09 -4.72627e-28 4.93473e-09)
(1.17862e-08 -4.52421e-12 -3.63951e-14 1.17862e-08 -6.79306e-27 1.17862e-08)
(1.17862e-08 -4.52421e-12 -3.63951e-14 1.17862e-08 -2.02758e-27 1.17862e-08)
(2.49343e-08 -1.51338e-11 -1.24017e-13 2.49343e-08 -2.38171e-26 2.49343e-08)
(2.49343e-08 -1.51338e-11 -1.24017e-13 2.49343e-08 -6.86522e-27 2.49343e-08)
(4.68903e-08 -4.16976e-11 -3.48076e-13 4.68903e-08 -6.77324e-26 4.68903e-08)
(4.68903e-08 -4.16976e-11 -3.48076e-13 4.68903e-08 -1.91435e-26 4.68903e-08)
(8.06575e-08 -9.95384e-11 -8.46418e-13 8.06575e-08 -1.65924e-25 8.06575e-08)
(8.06575e-08 -9.95384e-11 -8.46418e-13 8.06575e-08 -4.62346e-26 8.06575e-08)
(1.29716e-07 -2.13357e-10 -1.84813e-12 1.29716e-07 -3.64317e-25 1.29716e-07)
(1.29716e-07 -2.13357e-10 -1.84813e-12 1.29716e-07 -1.00217e-25 1.29716e-07)
(1.98041e-07 -4.20814e-10 -3.71319e-12 1.98041e-07 -7.36298e-25 1.98041e-07)
(1.98041e-07 -4.20814e-10 -3.71319e-12 1.98041e-07 -1.99896e-25 1.98041e-07)
(2.90141e-07 -7.76978e-10 -6.98387e-12 2.90141e-07 -1.3931e-24 2.90141e-07)
(2.90141e-07 -7.76978e-10 -6.98387e-12 2.90141e-07 -3.73268e-25 2.90141e-07)
(4.11092e-07 -1.35977e-09 -1.24504e-11 4.11092e-07 -2.49836e-24 4.11092e-07)
(4.11092e-07 -1.35977e-09 -1.24504e-11 4.11092e-07 -6.60228e-25 4.11092e-07)
(5.66586e-07 -2.27658e-09 -2.1234e-11 5.66586e-07 -4.28573e-24 5.66586e-07)
(5.66586e-07 -2.27658e-09 -2.1234e-11 5.66586e-07 -1.11706e-24 5.66586e-07)
(7.62981e-07 -3.67231e-09 -3.48915e-11 7.62981e-07 -7.08208e-24 7.62981e-07)
(7.62981e-07 -3.67231e-09 -3.48915e-11 7.62981e-07 -1.82149e-24 7.62981e-07)
(1.00735e-06 -5.7389e-09 -5.55444e-11 1.00735e-06 -1.13364e-23 1.00735e-06)
(1.00735e-06 -5.7389e-09 -5.55444e-11 1.00735e-06 -2.87609e-24 1.00735e-06)
(1.30756e-06 -8.72685e-09 -8.60399e-11 1.30756e-06 -1.76556e-23 1.30756e-06)
(1.30756e-06 -8.72685e-09 -8.60399e-11 1.30756e-06 -4.41719e-24 1.30756e-06)
(1.67228e-06 -1.29588e-08 -1.30148e-10 1.67228e-06 -2.68481e-23 1.67228e-06)
(1.67228e-06 -1.29588e-08 -1.30148e-10 1.67228e-06 -6.62757e-24 1.67228e-06)
(2.11114e-06 -1.88454e-08 -1.92801e-10 2.11114e-06 -3.99758e-23 2.11114e-06)
(2.11114e-06 -1.88454e-08 -1.92801e-10 2.11114e-06 -9.72817e-24 2.11114e-06)
(2.63471e-06 -2.69046e-08 -2.80389e-10 2.63471e-06 -5.84297e-23 2.63471e-06)
(2.63471e-06 -2.69046e-08 -2.80389e-10 2.63471e-06 -1.40085e-23 2.63471e-06)
(3.25465e-06 -3.77833e-08 -4.01112e-10 3.25465e-06 -8.39953e-23 3.25465e-06)
(3.25465e-06 -3.77833e-08 -4.01112e-10 3.25465e-06 -1.98611e-23 3.25465e-06)
(3.98373e-06 -5.22837e-08 -5.65409e-10 3.98373e-06 -1.18959e-22 3.98373e-06)
(3.98373e-06 -5.22837e-08 -5.65409e-10 3.98373e-06 -2.77246e-23 3.98373e-06)
(4.83599e-06 -7.13931e-08 -7.86472e-10 4.83599e-06 -1.66228e-22 4.83599e-06)
(4.83599e-06 -7.13931e-08 -7.86472e-10 4.83599e-06 -3.81856e-23 4.83599e-06)
(5.82677e-06 -9.63189e-08 -1.08086e-09 5.82677e-06 -2.29469e-22 5.82677e-06)
(5.82677e-06 -9.63189e-08 -1.08086e-09 5.82677e-06 -5.19999e-23 5.82677e-06)
(6.97288e-06 -1.28529e-07 -1.46923e-09 6.97288e-06 -3.13266e-22 6.97288e-06)
(6.97288e-06 -1.28529e-07 -1.46923e-09 6.97288e-06 -6.99707e-23 6.97288e-06)
(8.29264e-06 -1.698e-07 -1.97722e-09 8.29264e-06 -4.23393e-22 8.29264e-06)
(8.29264e-06 -1.698e-07 -1.97722e-09 8.29264e-06 -9.31217e-23 8.29264e-06)
(9.80604e-06 -2.22266e-07 -2.63646e-09 9.80604e-06 -5.66885e-22 9.80604e-06)
(9.80604e-06 -2.22266e-07 -2.63646e-09 9.80604e-06 -1.22747e-22 9.80604e-06)
(1.15349e-05 -2.88488e-07 -3.48583e-09 1.15349e-05 -7.52445e-22 1.15349e-05)
(1.15349e-05 -2.88488e-07 -3.48583e-09 1.15349e-05 -1.60543e-22 1.15349e-05)
(1.35028e-05 -3.71517e-07 -4.57285e-09 1.35028e-05 -9.91005e-22 1.35028e-05)
(1.35028e-05 -3.71517e-07 -4.57285e-09 1.35028e-05 -2.08412e-22 1.35028e-05)
(1.57356e-05 -4.7498e-07 -5.95542e-09 1.57356e-05 -9.0394e-22 1.57356e-05)
(1.57356e-05 -4.7498e-07 -5.95542e-09 1.57356e-05 -2.6806e-22 1.57356e-05)
(1.82612e-05 -6.03167e-07 -7.70377e-09 1.82612e-05 -4.73759e-22 1.82612e-05)
(1.82612e-05 -6.03167e-07 -7.70377e-09 1.82612e-05 -3.4234e-22 1.82612e-05)
(2.11099e-05 -7.61137e-07 -9.9028e-09 2.11099e-05 -3.48636e-22 2.11099e-05)
(2.11099e-05 -7.61137e-07 -9.9028e-09 2.11099e-05 -4.3417e-22 2.11099e-05)
(2.43147e-05 -9.54837e-07 -1.26547e-08 2.43147e-05 -4.29646e-22 2.43147e-05)
(2.43147e-05 -9.54837e-07 -1.26547e-08 2.43147e-05 -5.47756e-22 2.43147e-05)
(2.79109e-05 -1.19123e-06 -1.60823e-08 2.79109e-05 -5.27034e-22 2.79109e-05)
(2.79109e-05 -1.19123e-06 -1.60823e-08 2.79109e-05 -6.87471e-22 2.79109e-05)
(3.1937e-05 -1.47845e-06 -2.03323e-08 3.1937e-05 -6.43601e-22 3.1937e-05)
(3.1937e-05 -1.47845e-06 -2.03323e-08 3.1937e-05 -8.58616e-22 3.1937e-05)
(3.64346e-05 -1.82596e-06 -2.55798e-08 3.64346e-05 -7.81678e-22 3.64346e-05)
(3.64346e-05 -1.82596e-06 -2.55798e-08 3.64346e-05 -1.0649e-21 3.64346e-05)
(4.14484e-05 -2.24474e-06 -3.20331e-08 4.14484e-05 -9.45153e-22 4.14484e-05)
(4.14484e-05 -2.24474e-06 -3.20331e-08 4.14484e-05 -1.31284e-21 4.14484e-05)
(4.70265e-05 -2.7475e-06 -3.99389e-08 4.70265e-05 -1.14117e-21 4.70265e-05)
(4.70265e-05 -2.7475e-06 -3.99389e-08 4.70265e-05 -1.61088e-21 4.70265e-05)
(5.32208e-05 -3.3489e-06 -4.95891e-08 5.32208e-05 -1.37088e-21 5.32208e-05)
(5.32208e-05 -3.3489e-06 -4.95891e-08 5.32208e-05 -1.96742e-21 5.32208e-05)
(6.00872e-05 -4.06581e-06 -6.13275e-08 6.00872e-05 -1.63923e-21 6.00872e-05)
(6.00872e-05 -4.06581e-06 -6.13275e-08 6.00872e-05 -2.40271e-21 6.00872e-05)
(6.76855e-05 -4.91756e-06 -7.5558e-08 6.76855e-05 -1.96008e-21 6.76855e-05)
(6.76855e-05 -4.91756e-06 -7.5558e-08 6.76855e-05 -2.91575e-21 6.76855e-05)
(7.60798e-05 -5.92626e-06 -9.27542e-08 7.60798e-05 -3.03185e-21 7.60798e-05)
(7.60798e-05 -5.92626e-06 -9.27542e-08 7.60798e-05 -3.51614e-21 7.60798e-05)
(8.53388e-05 -7.11712e-06 -1.13469e-07 8.53388e-05 -9.25297e-21 8.53388e-05)
(8.53388e-05 -7.11712e-06 -1.13469e-07 8.53388e-05 -4.23558e-21 8.53388e-05)
(9.5536e-05 -8.51878e-06 -1.38347e-07 9.5536e-05 -1.69845e-20 9.5536e-05)
(9.5536e-05 -8.51878e-06 -1.38347e-07 9.5536e-05 -5.07054e-21 9.5536e-05)
(0.00010675 -1.01637e-05 -1.68136e-07 0.00010675 -2.06508e-20 0.00010675)
(0.00010675 -1.01637e-05 -1.68136e-07 0.00010675 -9.26049e-21 0.00010675)
(0.000119063 -1.20884e-05 -2.03702e-07 0.000119063 -2.49954e-20 0.000119063)
(0.000119063 -1.20884e-05 -2.03702e-07 0.000119063 -2.11219e-20 0.000119063)
(0.000132565 -1.43343e-05 -2.46045e-07 0.000132565 -3.01534e-20 0.000132565)
(0.000132565 -1.43343e-05 -2.46045e-07 0.000132565 -3.27894e-20 0.000132565)
(0.000147349 -1.69474e-05 -2.96313e-07 0.000147349 -3.6309e-20 0.000147349)
(0.000147349 -1.69474e-05 -2.96313e-07 0.000147349 -3.94677e-20 0.000147349)
(0.000163515 -1.99793e-05 -3.55824e-07 0.000163515 -4.35196e-20 0.000163515)
(0.000163515 -1.99793e-05 -3.55824e-07 0.000163515 -4.73804e-20 0.000163515)
(0.000181168 -2.34873e-05 -4.26083e-07 0.000181168 -5.19769e-20 0.000181168)
(0.000181168 -2.34873e-05 -4.26083e-07 0.000181168 -5.67032e-20 0.000181168)
(0.000200417 -2.7535e-05 -5.088e-07 0.000200417 -6.11197e-20 0.000200417)
(0.000200417 -2.7535e-05 -5.088e-07 0.000200417 -6.75963e-20 0.000200417)
(0.00022138 -3.21923e-05 -6.05914e-07 0.00022138 -6.14107e-20 0.00022138)
(0.00022138 -3.21923e-05 -6.05914e-07 0.00022138 -8.01993e-20 0.00022138)
(0.000244176 -3.75358e-05 -7.19612e-07 0.000244176 -6.03737e-20 0.000244176)
(0.000244176 -3.75358e-05 -7.19612e-07 0.000244176 -8.73886e-20 0.000244176)
(0.000268932 -4.36493e-05 -8.52352e-07 0.000268932 -7.0288e-20 0.000268932)
(0.000268932 -4.36493e-05 -8.52352e-07 0.000268932 -7.7855e-20 0.000268932)
(0.000295778 -5.06235e-05 -1.00688e-06 0.000295778 -8.18619e-20 0.000295778)
(0.000295778 -5.06235e-05 -1.00688e-06 0.000295778 -7.23894e-20 0.000295778)
(0.000324849 -5.8556e-05 -1.18625e-06 0.000324849 -9.48236e-20 0.000324849)
(0.000324849 -5.8556e-05 -1.18625e-06 0.000324849 -8.50819e-20 0.000324849)
(0.000356283 -6.75516e-05 -1.39384e-06 0.000356283 -1.09061e-19 0.000356283)
(0.000356283 -6.75516e-05 -1.39384e-06 0.000356283 -9.96269e-20 0.000356283)
(0.000390219 -7.77212e-05 -1.63336e-06 0.000390219 -1.25404e-19 0.000390219)
(0.000390219 -7.77212e-05 -1.63336e-06 0.000390219 -1.16198e-19 0.000390219)
(0.000426802 -8.9182e-05 -1.90889e-06 0.000426802 -1.43656e-19 0.000426802)
(0.000426802 -8.9182e-05 -1.90889e-06 0.000426802 -1.35128e-19 0.000426802)
(0.000466174 -0.000102056 -2.22482e-06 0.000466174 -1.63671e-19 0.000466174)
(0.000466174 -0.000102056 -2.22482e-06 0.000466174 -1.56817e-19 0.000466174)
(0.000508476 -0.00011647 -2.58591e-06 0.000508476 -1.85622e-19 0.000508476)
(0.000508476 -0.00011647 -2.58591e-06 0.000508476 -1.81372e-19 0.000508476)
(0.00055385 -0.000132552 -2.99726e-06 0.00055385 -2.09179e-19 0.00055385)
(0.00055385 -0.000132552 -2.99726e-06 0.00055385 -2.08953e-19 0.00055385)
(0.000602431 -0.000150432 -3.46426e-06 0.000602431 -2.3452e-19 0.000602431)
(0.000602431 -0.000150432 -3.46426e-06 0.000602431 -2.39256e-19 0.000602431)
(0.00065435 -0.000170241 -3.99259e-06 0.00065435 -2.62336e-19 0.00065435)
(0.00065435 -0.000170241 -3.99259e-06 0.00065435 -2.72513e-19 0.00065435)
(0.00070973 -0.000192104 -4.58818e-06 0.00070973 -2.91782e-19 0.00070973)
(0.00070973 -0.000192104 -4.58818e-06 0.00070973 -3.10814e-19 0.00070973)
(0.000768684 -0.000216142 -5.25713e-06 0.000768684 -3.22356e-19 0.000768684)
(0.000768684 -0.000216142 -5.25713e-06 0.000768684 -3.5217e-19 0.000768684)
(0.000831311 -0.000242469 -6.00568e-06 0.000831311 -3.54038e-19 0.000831311)
(0.000831311 -0.000242469 -6.00568e-06 0.000831311 -3.95852e-19 0.000831311)
(0.000897699 -0.000271186 -6.8401e-06 0.000897699 -3.85405e-19 0.000897699)
(0.000897699 -0.000271186 -6.8401e-06 0.000897699 -4.45209e-19 0.000897699)
(0.000967917 -0.000302383 -7.76664e-06 0.000967917 -4.16049e-19 0.000967917)
(0.000967917 -0.000302383 -7.76664e-06 0.000967917 -4.98829e-19 0.000967917)
(0.00104202 -0.000336132 -8.79142e-06 0.00104202 -4.48362e-19 0.00104202)
(0.00104202 -0.000336132 -8.79142e-06 0.00104202 -5.55352e-19 0.00104202)
(0.00112002 -0.000372486 -9.92034e-06 0.00112002 -4.80456e-19 0.00112002)
(0.00112002 -0.000372486 -9.92034e-06 0.00112002 -6.16222e-19 0.00112002)
(0.00120195 -0.000411479 -1.1159e-05 0.00120195 -5.0919e-19 0.00120195)
(0.00120195 -0.000411479 -1.1159e-05 0.00120195 -6.78682e-19 0.00120195)
(0.00128777 -0.000453118 -1.25125e-05 0.00128777 -5.37462e-19 0.00128777)
(0.00128777 -0.000453118 -1.25125e-05 0.00128777 -7.4289e-19 0.00128777)
(0.00137745 -0.00049739 -1.39856e-05 0.00137745 -5.61014e-19 0.00137745)
(0.00137745 -0.00049739 -1.39856e-05 0.00137745 -8.16587e-19 0.00137745)
(0.00147092 -0.000544251 -1.55823e-05 0.00147092 -5.77715e-19 0.00147092)
(0.00147092 -0.000544251 -1.55823e-05 0.00147092 -8.96694e-19 0.00147092)
(0.00156806 -0.000593635 -1.7306e-05 0.00156806 -5.88955e-19 0.00156806)
(0.00156806 -0.000593635 -1.7306e-05 0.00156806 -9.70532e-19 0.00156806)
(0.00166877 -0.000645447 -1.91594e-05 0.00166877 -5.93187e-19 0.00166877)
(0.00166877 -0.000645447 -1.91594e-05 0.00166877 -1.04765e-18 0.00166877)
(0.00177289 -0.00069957 -2.11444e-05 0.00177289 -6.03758e-19 0.00177289)
(0.00177289 -0.00069957 -2.11444e-05 0.00177289 -1.13495e-18 0.00177289)
(0.00188023 -0.000755861 -2.32621e-05 0.00188023 -6.05678e-19 0.00188023)
(0.00188023 -0.000755861 -2.32621e-05 0.00188023 -1.22839e-18 0.00188023)
(0.0019906 -0.000814157 -2.5513e-05 0.0019906 -5.84369e-19 0.0019906)
(0.0019906 -0.000814157 -2.5513e-05 0.0019906 -1.3301e-18 0.0019906)
(0.00210378 -0.000874275 -2.78965e-05 0.00210378 -5.6388e-19 0.00210378)
(0.00210378 -0.000874275 -2.78965e-05 0.00210378 -1.44056e-18 0.00210378)
(0.00221951 -0.000936018 -3.04116e-05 0.00221951 -5.43435e-19 0.00221951)
(0.00221951 -0.000936018 -3.04116e-05 0.00221951 -1.52479e-18 0.00221951)
(0.00233754 -0.000999176 -3.30563e-05 0.00233754 -5.13421e-19 0.00233754)
(0.00233754 -0.000999176 -3.30563e-05 0.00233754 -1.60829e-18 0.00233754)
(0.0024576 -0.00106353 -3.58283e-05 0.0024576 -4.63465e-19 0.0024576)
(0.0024576 -0.00106353 -3.58283e-05 0.0024576 -1.71622e-18 0.0024576)
(0.00257939 -0.00112886 -3.87244e-05 0.00257939 -3.84897e-19 0.00257939)
(0.00257939 -0.00112886 -3.87244e-05 0.00257939 -1.82659e-18 0.00257939)
(0.00270263 -0.00119493 -4.17412e-05 0.00270263 -3.11729e-19 0.00270263)
(0.00270263 -0.00119493 -4.17412e-05 0.00270263 -1.90202e-18 0.00270263)
(0.00282701 -0.00126152 -4.48749e-05 0.00282701 -2.40799e-19 0.00282701)
(0.00282701 -0.00126152 -4.48749e-05 0.00282701 -1.97467e-18 0.00282701)
(0.00295224 -0.00132842 -4.81212e-05 0.00295224 -1.47466e-19 0.00295224)
(0.00295224 -0.00132842 -4.81212e-05 0.00295224 -2.08141e-18 0.00295224)
(0.00307803 -0.00139541 -5.14757e-05 0.00307803 2.46751e-20 0.00307803)
(0.00307803 -0.00139541 -5.14757e-05 0.00307803 -2.17656e-18 0.00307803)
(0.00320408 -0.00146228 -5.4934e-05 0.00320408 4.33994e-20 0.00320408)
(0.00320408 -0.00146228 -5.4934e-05 0.00320408 -2.25428e-18 0.00320408)
(0.0033301 -0.00152885 -5.84915e-05 0.0033301 1.92313e-19 0.0033301)
(0.0033301 -0.00152885 -5.84915e-05 0.0033301 -2.37287e-18 0.0033301)
(0.00345583 -0.00159493 -6.21437e-05 0.00345583 3.27529e-19 0.00345583)
(0.00345583 -0.00159493 -6.21437e-05 0.00345583 -2.48127e-18 0.00345583)
(0.00358101 -0.00166036 -6.5886e-05 0.00358101 4.47941e-19 0.00358101)
(0.00358101 -0.00166036 -6.5886e-05 0.00358101 -2.66136e-18 0.00358101)
(0.00370538 -0.00172499 -6.97143e-05 0.00370538 5.94986e-19 0.00370538)
(0.00370538 -0.00172499 -6.97143e-05 0.00370538 -2.96789e-18 0.00370538)
(0.00382871 -0.00178869 -7.36243e-05 0.00382871 8.07376e-19 0.00382871)
(0.00382871 -0.00178869 -7.36243e-05 0.00382871 -3.20446e-18 0.00382871)
(0.00395078 -0.00185132 -7.7612e-05 0.00395078 9.57471e-19 0.00395078)
(0.00395078 -0.00185132 -7.7612e-05 0.00395078 -3.36238e-18 0.00395078)
(0.0040714 -0.0019128 -8.16739e-05 0.0040714 1.07041e-18 0.0040714)
(0.0040714 -0.0019128 -8.16739e-05 0.0040714 -3.51832e-18 0.0040714)
(0.00419037 -0.00197301 -8.58064e-05 0.00419037 1.20085e-18 0.00419037)
(0.00419037 -0.00197301 -8.58064e-05 0.00419037 -3.65541e-18 0.00419037)
(0.00430754 -0.0020319 -9.00064e-05 0.00430754 1.34226e-18 0.00430754)
(0.00430754 -0.0020319 -9.00064e-05 0.00430754 -3.80422e-18 0.00430754)
(0.00442275 -0.00208938 -9.42709e-05 0.00442275 1.50357e-18 0.00442275)
(0.00442275 -0.00208938 -9.42709e-05 0.00442275 -3.97785e-18 0.00442275)
(0.00453586 -0.00214541 -9.85975e-05 0.00453586 1.67834e-18 0.00453586)
(0.00453586 -0.00214541 -9.85975e-05 0.00453586 -4.15235e-18 0.00453586)
(0.00464676 -0.00219995 -0.000102984 0.00464676 1.79556e-18 0.00464676)
(0.00464676 -0.00219995 -0.000102984 0.00464676 -4.32059e-18 0.00464676)
(0.00475534 -0.00225296 -0.000107427 0.00475534 1.84781e-18 0.00475534)
(0.00475534 -0.00225296 -0.000107427 0.00475534 -4.48418e-18 0.00475534)
(0.00486152 -0.00230442 -0.000111927 0.00486152 1.95024e-18 0.00486152)
(0.00486152 -0.00230442 -0.000111927 0.00486152 -4.64486e-18 0.00486152)
(0.00496522 -0.00235431 -0.00011648 0.00496522 2.15179e-18 0.00496522)
(0.00496522 -0.00235431 -0.00011648 0.00496522 -4.83503e-18 0.00496522)
(0.00506638 -0.00240264 -0.000121087 0.00506638 2.22813e-18 0.00506638)
(0.00506638 -0.00240264 -0.000121087 0.00506638 -5.03729e-18 0.00506638)
(0.00516495 -0.00244939 -0.000125745 0.00516495 2.32745e-18 0.00516495)
(0.00516495 -0.00244939 -0.000125745 0.00516495 -5.14001e-18 0.00516495)
(0.0052609 -0.00249457 -0.000130454 0.0052609 2.40602e-18 0.0052609)
(0.0052609 -0.00249457 -0.000130454 0.0052609 -5.28547e-18 0.0052609)
(0.0053542 -0.0025382 -0.000135213 0.0053542 2.4983e-18 0.0053542)
(0.0053542 -0.0025382 -0.000135213 0.0053542 -5.50283e-18 0.0053542)
(0.00544482 -0.00258029 -0.000140022 0.00544482 2.56137e-18 0.00544482)
(0.00544482 -0.00258029 -0.000140022 0.00544482 -5.71823e-18 0.00544482)
(0.00553277 -0.00262086 -0.00014488 0.00553277 2.50545e-18 0.00553277)
(0.00553277 -0.00262086 -0.00014488 0.00553277 -5.86667e-18 0.00553277)
(0.00561804 -0.00265993 -0.000149787 0.00561804 2.61964e-18 0.00561804)
(0.00561804 -0.00265993 -0.000149787 0.00561804 -3.76837e-18 0.00561804)
(0.00570062 -0.00269752 -0.000154743 0.00570062 2.58532e-18 0.00570062)
(0.00570062 -0.00269752 -0.000154743 0.00570062 5.58665e-19 0.00570062)
(0.00578055 -0.00273365 -0.000159748 0.00578055 2.71078e-18 0.00578055)
(0.00578055 -0.00273365 -0.000159748 0.00578055 2.89405e-18 0.00578055)
(0.00585783 -0.00276837 -0.000164802 0.00585783 2.92696e-18 0.00585783)
(0.00585783 -0.00276837 -0.000164802 0.00585783 3.19838e-18 0.00585783)
(0.00593249 -0.0028017 -0.000169905 0.00593249 3.12969e-18 0.00593249)
(0.00593249 -0.0028017 -0.000169905 0.00593249 3.45304e-18 0.00593249)
(0.00600455 -0.00283366 -0.000175058 0.00600455 3.34436e-18 0.00600455)
(0.00600455 -0.00283366 -0.000175058 0.00600455 3.43218e-18 0.00600455)
(0.00607404 -0.00286429 -0.000180261 0.00607404 3.39219e-18 0.00607404)
(0.00607404 -0.00286429 -0.000180261 0.00607404 3.44021e-18 0.00607404)
(0.006141 -0.00289361 -0.000185515 0.006141 3.69011e-18 0.006141)
(0.006141 -0.00289361 -0.000185515 0.006141 3.66127e-18 0.006141)
(0.00620545 -0.00292167 -0.00019082 0.00620545 4.09033e-18 0.00620545)
(0.00620545 -0.00292167 -0.00019082 0.00620545 4.05008e-18 0.00620545)
(0.00626745 -0.0029485 -0.000196176 0.00626745 4.11979e-18 0.00626745)
(0.00626745 -0.0029485 -0.000196176 0.00626745 4.0337e-18 0.00626745)
(0.00632703 -0.00297411 -0.000201585 0.00632703 4.07966e-18 0.00632703)
(0.00632703 -0.00297411 -0.000201585 0.00632703 3.48841e-18 0.00632703)
(0.00638422 -0.00299855 -0.000207047 0.00638422 4.80102e-18 0.00638422)
(0.00638422 -0.00299855 -0.000207047 0.00638422 3.39655e-18 0.00638422)
(0.00643908 -0.00302184 -0.000212562 0.00643908 5.0431e-18 0.00643908)
(0.00643908 -0.00302184 -0.000212562 0.00643908 4.24356e-18 0.00643908)
(0.00649164 -0.00304402 -0.000218131 0.00649164 4.64247e-18 0.00649164)
(0.00649164 -0.00304402 -0.000218131 0.00649164 5.19077e-18 0.00649164)
(0.00654195 -0.00306511 -0.000223755 0.00654195 4.96739e-18 0.00654195)
(0.00654195 -0.00306511 -0.000223755 0.00654195 5.61764e-18 0.00654195)
(0.00659005 -0.00308514 -0.000229435 0.00659005 4.95819e-18 0.00659005)
(0.00659005 -0.00308514 -0.000229435 0.00659005 6.52548e-18 0.00659005)
(0.00663598 -0.00310414 -0.000235171 0.00663598 4.59274e-18 0.00663598)
(0.00663598 -0.00310414 -0.000235171 0.00663598 7.26153e-18 0.00663598)
(0.00667979 -0.00312214 -0.000240964 0.00667979 4.71461e-18 0.00667979)
(0.00667979 -0.00312214 -0.000240964 0.00667979 7.93074e-18 0.00667979)
(0.00672152 -0.00313916 -0.000246815 0.00672152 4.50347e-18 0.00672152)
(0.00672152 -0.00313916 -0.000246815 0.00672152 9.37447e-18 0.00672152)
(0.0067612 -0.00315522 -0.000252724 0.0067612 4.34206e-18 0.0067612)
(0.0067612 -0.00315522 -0.000252724 0.0067612 1.07392e-17 0.0067612)
(0.0067989 -0.00317036 -0.000258693 0.0067989 3.08107e-18 0.0067989)
(0.0067989 -0.00317036 -0.000258693 0.0067989 1.16516e-17 0.0067989)
(0.00683463 -0.0031846 -0.000264721 0.00683463 3.43951e-18 0.00683463)
(0.00683463 -0.0031846 -0.000264721 0.00683463 1.25115e-17 0.00683463)
(0.00686845 -0.00319795 -0.000270809 0.00686845 3.79107e-18 0.00686845)
(0.00686845 -0.00319795 -0.000270809 0.00686845 1.36844e-17 0.00686845)
(0.00690039 -0.00321044 -0.000276958 0.00690039 3.86828e-18 0.00690039)
(0.00690039 -0.00321044 -0.000276958 0.00690039 1.3697e-17 0.00690039)
(0.0069305 -0.00322209 -0.000283169 0.0069305 3.77661e-18 0.0069305)
(0.0069305 -0.00322209 -0.000283169 0.0069305 1.39093e-17 0.0069305)
(0.0069588 -0.00323292 -0.000289441 0.0069588 2.76321e-18 0.0069588)
(0.0069588 -0.00323292 -0.000289441 0.0069588 1.5293e-17 0.0069588)
(0.00698534 -0.00324295 -0.000295776 0.00698534 3.92604e-18 0.00698534)
(0.00698534 -0.00324295 -0.000295776 0.00698534 1.58566e-17 0.00698534)
(0.00701014 -0.0032522 -0.000302174 0.00701014 4.0044e-18 0.00701014)
(0.00701014 -0.0032522 -0.000302174 0.00701014 1.58102e-17 0.00701014)
(0.00703325 -0.00326068 -0.000308635 0.00703325 4.18466e-18 0.00703325)
(0.00703325 -0.00326068 -0.000308635 0.00703325 1.63525e-17 0.00703325)
(0.0070547 -0.00326841 -0.00031516 0.0070547 4.71818e-18 0.0070547)
(0.0070547 -0.00326841 -0.00031516 0.0070547 1.76528e-17 0.0070547)
(0.00707451 -0.00327541 -0.000321748 0.00707451 4.67183e-18 0.00707451)
(0.00707451 -0.00327541 -0.000321748 0.00707451 1.71942e-17 0.00707451)
(0.00709272 -0.00328169 -0.000328401 0.00709272 3.36092e-18 0.00709272)
(0.00709272 -0.00328169 -0.000328401 0.00709272 1.65168e-17 0.00709272)
(0.00710937 -0.00328727 -0.000335118 0.00710937 2.62602e-18 0.00710937)
(0.00710937 -0.00328727 -0.000335118 0.00710937 1.81957e-17 0.00710937)
(0.00712446 -0.00329216 -0.000341899 0.00712446 3.06846e-18 0.00712446)
(0.00712446 -0.00329216 -0.000341899 0.00712446 2.02421e-17 0.00712446)
(0.00713804 -0.00329636 -0.000348745 0.00713804 2.98401e-18 0.00713804)
(0.00713804 -0.00329636 -0.000348745 0.00713804 2.05181e-17 0.00713804)
(0.00715013 -0.0032999 -0.000355655 0.00715013 2.76757e-18 0.00715013)
(0.00715013 -0.0032999 -0.000355655 0.00715013 2.00318e-17 0.00715013)
(0.00716076 -0.00330279 -0.000362629 0.00716076 2.49529e-18 0.00716076)
(0.00716076 -0.00330279 -0.000362629 0.00716076 2.05334e-17 0.00716076)
(0.00716994 -0.00330503 -0.000369667 0.00716994 2.75994e-18 0.00716994)
(0.00716994 -0.00330503 -0.000369667 0.00716994 2.10427e-17 0.00716994)
(0.0071777 -0.00330663 -0.000376769 0.0071777 2.00191e-18 0.0071777)
(0.0071777 -0.00330663 -0.000376769 0.0071777 2.15401e-17 0.0071777)
(0.00718407 -0.00330761 -0.000383934 0.00718407 2.70673e-18 0.00718407)
(0.00718407 -0.00330761 -0.000383934 0.00718407 2.19837e-17 0.00718407)
(0.00718905 -0.00330797 -0.000391162 0.00718905 4.55692e-18 0.00718905)
(0.00718905 -0.00330797 -0.000391162 0.00718905 2.17197e-17 0.00718905)
(0.00719268 -0.00330773 -0.000398452 0.00719268 6.09552e-18 0.00719268)
(0.00719268 -0.00330773 -0.000398452 0.00719268 2.06e-17 0.00719268)
(0.00719497 -0.00330688 -0.000405804 0.00719497 7.71423e-18 0.00719497)
(0.00719497 -0.00330688 -0.000405804 0.00719497 2.13163e-17 0.00719497)
(0.00719594 -0.00330543 -0.000413216 0.00719594 5.5356e-18 0.00719594)
(0.00719594 -0.00330543 -0.000413216 0.00719594 2.13875e-17 0.00719594)
(0.00719559 -0.0033034 -0.000420689 0.00719559 4.78679e-18 0.00719559)
(0.00719559 -0.0033034 -0.000420689 0.00719559 2.0731e-17 0.00719559)
(0.00719396 -0.00330079 -0.00042822 0.00719396 6.13151e-18 0.00719396)
(0.00719396 -0.00330079 -0.00042822 0.00719396 2.25014e-17 0.00719396)
(0.00719106 -0.00329759 -0.000435809 0.00719106 6.23859e-18 0.00719106)
(0.00719106 -0.00329759 -0.000435809 0.00719106 2.26182e-17 0.00719106)
(0.00718689 -0.00329383 -0.000443454 0.00718689 7.0211e-18 0.00718689)
(0.00718689 -0.00329383 -0.000443454 0.00718689 2.29661e-17 0.00718689)
(0.00718147 -0.00328949 -0.000451155 0.00718147 8.23199e-18 0.00718147)
(0.00718147 -0.00328949 -0.000451155 0.00718147 2.49414e-17 0.00718147)
(0.00717481 -0.00328459 -0.000458909 0.00717481 8.40222e-18 0.00717481)
(0.00717481 -0.00328459 -0.000458909 0.00717481 2.50736e-17 0.00717481)
(0.00716692 -0.00327913 -0.000466714 0.00716692 7.19573e-18 0.00716692)
(0.00716692 -0.00327913 -0.000466714 0.00716692 2.57435e-17 0.00716692)
(0.00715782 -0.00327311 -0.00047457 0.00715782 6.17634e-18 0.00715782)
(0.00715782 -0.00327311 -0.00047457 0.00715782 2.78271e-17 0.00715782)
(0.00714751 -0.00326654 -0.000482473 0.00714751 4.53172e-18 0.00714751)
(0.00714751 -0.00326654 -0.000482473 0.00714751 3.00781e-17 0.00714751)
(0.007136 -0.00325941 -0.000490422 0.007136 4.51316e-18 0.007136)
(0.007136 -0.00325941 -0.000490422 0.007136 2.82355e-17 0.007136)
(0.00712329 -0.00325173 -0.000498414 0.00712329 4.90968e-18 0.00712329)
(0.00712329 -0.00325173 -0.000498414 0.00712329 2.74804e-17 0.00712329)
(0.0071094 -0.00324349 -0.000506446 0.0071094 4.422e-18 0.0071094)
(0.0071094 -0.00324349 -0.000506446 0.0071094 2.85696e-17 0.0071094)
(0.00709433 -0.00323471 -0.000514517 0.00709433 3.39589e-18 0.00709433)
(0.00709433 -0.00323471 -0.000514517 0.00709433 3.00795e-17 0.00709433)
(0.00707809 -0.00322537 -0.000522622 0.00707809 4.0322e-18 0.00707809)
(0.00707809 -0.00322537 -0.000522622 0.00707809 3.1982e-17 0.00707809)
(0.00706068 -0.00321549 -0.000530759 0.00706068 4.19683e-18 0.00706068)
(0.00706068 -0.00321549 -0.000530759 0.00706068 3.06169e-17 0.00706068)
(0.0070421 -0.00320506 -0.000538924 0.0070421 3.53033e-18 0.0070421)
(0.0070421 -0.00320506 -0.000538924 0.0070421 3.2042e-17 0.0070421)
(0.00702236 -0.00319407 -0.000547113 0.00702236 1.92805e-18 0.00702236)
(0.00702236 -0.00319407 -0.000547113 0.00702236 3.6377e-17 0.00702236)
(0.00700146 -0.00318253 -0.000555324 0.00700146 3.71331e-18 0.00700146)
(0.00700146 -0.00318253 -0.000555324 0.00700146 3.61555e-17 0.00700146)
(0.00697941 -0.00317044 -0.00056355 0.00697941 3.34833e-18 0.00697941)
(0.00697941 -0.00317044 -0.00056355 0.00697941 3.52851e-17 0.00697941)
(0.00695619 -0.00315779 -0.000571789 0.00695619 2.71722e-18 0.00695619)
(0.00695619 -0.00315779 -0.000571789 0.00695619 3.44128e-17 0.00695619)
(0.00693183 -0.00314459 -0.000580035 0.00693183 1.97609e-18 0.00693183)
(0.00693183 -0.00314459 -0.000580035 0.00693183 3.3917e-17 0.00693183)
(0.0069063 -0.00313082 -0.000588283 0.0069063 1.39659e-18 0.0069063)
(0.0069063 -0.00313082 -0.000588283 0.0069063 3.70292e-17 0.0069063)
(0.00687963 -0.0031165 -0.000596529 0.00687963 4.38325e-18 0.00687963)
(0.00687963 -0.0031165 -0.000596529 0.00687963 3.65616e-17 0.00687963)
(0.00685179 -0.00310161 -0.000604766 0.00685179 8.58591e-19 0.00685179)
(0.00685179 -0.00310161 -0.000604766 0.00685179 3.84044e-17 0.00685179)
(0.0068228 -0.00308615 -0.000612988 0.0068228 3.50988e-18 0.0068228)
(0.0068228 -0.00308615 -0.000612988 0.0068228 3.5291e-17 0.0068228)
(0.00679265 -0.00307011 -0.000621189 0.00679265 4.4372e-18 0.00679265)
(0.00679265 -0.00307011 -0.000621189 0.00679265 3.38537e-17 0.00679265)
(0.00676134 -0.00305351 -0.000629363 0.00676134 -6.68667e-19 0.00676134)
(0.00676134 -0.00305351 -0.000629363 0.00676134 4.20851e-17 0.00676134)
(0.00672886 -0.00303632 -0.000637503 0.00672886 1.09082e-18 0.00672886)
(0.00672886 -0.00303632 -0.000637503 0.00672886 4.05127e-17 0.00672886)
(0.00669521 -0.00301854 -0.000645601 0.00669521 4.34046e-18 0.00669521)
(0.00669521 -0.00301854 -0.000645601 0.00669521 4.21506e-17 0.00669521)
(0.00666039 -0.00300018 -0.000653648 0.00666039 1.34374e-18 0.00666039)
(0.00666039 -0.00300018 -0.000653648 0.00666039 4.45308e-17 0.00666039)
(0.0066244 -0.00298123 -0.000661638 0.0066244 3.90272e-18 0.0066244)
(0.0066244 -0.00298123 -0.000661638 0.0066244 3.7933e-17 0.0066244)
(0.00658722 -0.00296167 -0.000669562 0.00658722 -5.61351e-19 0.00658722)
(0.00658722 -0.00296167 -0.000669562 0.00658722 3.52755e-17 0.00658722)
(0.00654886 -0.00294151 -0.000677409 0.00654886 -2.27491e-18 0.00654886)
(0.00654886 -0.00294151 -0.000677409 0.00654886 3.73396e-17 0.00654886)
(0.0065093 -0.00292074 -0.000685171 0.0065093 2.59214e-18 0.0065093)
(0.0065093 -0.00292074 -0.000685171 0.0065093 3.67838e-17 0.0065093)
(0.00646855 -0.00289935 -0.000692838 0.00646855 -1.38674e-18 0.00646855)
(0.00646855 -0.00289935 -0.000692838 0.00646855 3.73218e-17 0.00646855)
(0.0064266 -0.00287734 -0.000700398 0.0064266 -3.30008e-19 0.0064266)
(0.0064266 -0.00287734 -0.000700398 0.0064266 3.12697e-17 0.0064266)
(0.00638343 -0.0028547 -0.000707842 0.00638343 -4.30413e-18 0.00638343)
(0.00638343 -0.0028547 -0.000707842 0.00638343 2.44352e-17 0.00638343)
(0.00633905 -0.00283143 -0.000715156 0.00633905 2.27038e-18 0.00633905)
(0.00633905 -0.00283143 -0.000715156 0.00633905 1.33747e-17 0.00633905)
(0.00629345 -0.00280751 -0.000722329 0.00629345 5.2033e-18 0.00629345)
(0.00629345 -0.00280751 -0.000722329 0.00629345 -5.64536e-18 0.00629345)
(0.00624662 -0.00278294 -0.000729348 0.00624662 -1.3137e-18 0.00624662)
(0.00624662 -0.00278294 -0.000729348 0.00624662 2.89509e-18 0.00624662)
(0.00619855 -0.00275771 -0.000736199 0.00619855 -1.11846e-18 0.00619855)
(0.00619855 -0.00275771 -0.000736199 0.00619855 1.33429e-19 0.00619855)
(0.00614924 -0.00273182 -0.000742868 0.00614924 2.12122e-18 0.00614924)
(0.00614924 -0.00273182 -0.000742868 0.00614924 -1.18173e-17 0.00614924)
(0.00609868 -0.00270525 -0.00074934 0.00609868 3.56176e-18 0.00609868)
(0.00609868 -0.00270525 -0.00074934 0.00609868 -1.23953e-17 0.00609868)
(0.00604687 -0.002678 -0.000755599 0.00604687 1.01171e-17 0.00604687)
(0.00604687 -0.002678 -0.000755599 0.00604687 -7.27393e-18 0.00604687)
(0.00599379 -0.00265006 -0.00076163 0.00599379 1.26327e-17 0.00599379)