/*--------------------------------*- C++ -*----------------------------------*\
| =========                 |                                                 |
| \\      /  F ield         | OpenFOAM: The Open Source CFD Toolbox           |
|  \\    /   O peration     | Version:  2106                                  |
|   \\  /    A nd           | Website:  www.openfoam.com                      |
|    \\/     M anipulation  |                                                 |
\*---------------------------------------------------------------------------*/
FoamFile
{
    version     2.0;
    format      ascii;
    arch        "LSB;label=32;scalar=64";
    class       volVectorField;
    location    "10030";
    object      U;
}
// * * * * * * * * * * * * * * * * * * * * * * * * * * * * * * * * * * * * * //

dimensions      [0 1 -1 0 0 0 0];

internalField   nonuniform List<vector> 
2000
(
(0.00120363 -1.38812e-15 6.54826e-18)
(0.00120363 2.61795e-20 7.2002e-18)
(0.0036329 -5.92169e-16 5.33811e-17)
(0.0036329 4.849e-19 2.86042e-17)
(0.00610706 -2.68812e-15 5.63995e-17)
(0.00610706 1.19089e-18 2.96726e-17)
(0.00862692 -2.14848e-15 6.03155e-17)
(0.00862692 1.94615e-18 3.07753e-17)
(0.0111933 -2.12691e-15 6.43261e-17)
(0.0111933 2.71991e-18 3.19126e-17)
(0.0138071 -2.1371e-15 6.84376e-17)
(0.0138071 3.51144e-18 3.30848e-17)
(0.0164691 -2.14257e-15 7.27186e-17)
(0.0164691 4.32312e-18 3.42928e-17)
(0.0191802 -2.14403e-15 7.71908e-17)
(0.0191802 5.16472e-18 3.55378e-17)
(0.0219414 -2.14513e-15 8.186e-17)
(0.0219414 6.02181e-18 3.68203e-17)
(0.0247535 -2.14657e-15 8.67333e-17)
(0.0247535 6.8713e-18 3.81412e-17)
(0.0276174 -2.14811e-15 9.18193e-17)
(0.0276174 7.73081e-18 3.95017e-17)
(0.0305341 -2.14968e-15 9.71272e-17)
(0.0305341 8.63729e-18 4.09023e-17)
(0.0335046 -2.15125e-15 1.02666e-16)
(0.0335046 9.55781e-18 4.23436e-17)
(0.0365298 -2.15284e-15 1.08445e-16)
(0.0365298 1.04856e-17 4.38272e-17)
(0.0396108 -2.15448e-15 1.14474e-16)
(0.0396108 1.14282e-17 4.53547e-17)
(0.0427484 -2.15617e-15 1.20763e-16)
(0.0427484 1.23522e-17 4.69261e-17)
(0.0459439 -2.1579e-15 1.27322e-16)
(0.0459439 1.328e-17 4.85423e-17)
(0.0491981 -2.15966e-15 1.34162e-16)
(0.0491981 1.4302e-17 5.02045e-17)
(0.0525122 -2.16149e-15 1.41293e-16)
(0.0525122 1.53263e-17 5.19123e-17)
(0.0558873 -2.16334e-15 1.48729e-16)
(0.0558873 1.63188e-17 5.3667e-17)
(0.0593244 -2.16522e-15 1.56479e-16)
(0.0593244 1.74004e-17 5.54705e-17)
(0.0628246 -2.16715e-15 1.64556e-16)
(0.0628246 1.84849e-17 5.73226e-17)
(0.0663892 -2.16915e-15 1.72973e-16)
(0.0663892 1.95571e-17 5.9226e-17)
(0.0700192 -2.17119e-15 1.81744e-16)
(0.0700192 2.07102e-17 6.11813e-17)
(0.0737158 -2.17331e-15 1.90881e-16)
(0.0737158 2.18766e-17 6.31883e-17)
(0.0774803 -2.17541e-15 2.00398e-16)
(0.0774803 2.30225e-17 6.52468e-17)
(0.0813138 -2.17755e-15 2.10311e-16)
(0.0813138 2.41663e-17 6.73575e-17)
(0.0852175 -2.17976e-15 2.20634e-16)
(0.0852175 2.52898e-17 6.95258e-17)
(0.0891927 -2.18189e-15 2.31382e-16)
(0.0891927 2.6455e-17 7.17491e-17)
(0.0932406 -2.18409e-15 2.35898e-16)
(0.0932406 2.76183e-17 7.40249e-17)
(0.0973626 -2.1863e-15 2.37831e-16)
(0.0973626 2.88909e-17 7.6354e-17)
(0.10156 -2.18854e-15 2.39766e-16)
(0.10156 3.01176e-17 7.87389e-17)
(0.105834 -2.19093e-15 2.41705e-16)
(0.105834 3.1264e-17 8.11837e-17)
(0.110186 -2.19329e-15 2.43646e-16)
(0.110186 3.24292e-17 8.36859e-17)
(0.114617 -2.19561e-15 2.45591e-16)
(0.114617 3.36736e-17 8.62507e-17)
(0.119128 -2.19803e-15 2.47541e-16)
(0.119128 3.49389e-17 8.88662e-17)
(0.123722 -2.20047e-15 2.49494e-16)
(0.123722 3.61716e-17 9.15412e-17)
(0.128399 -2.20281e-15 2.51459e-16)
(0.128399 3.73758e-17 9.4267e-17)
(0.133161 -2.20527e-15 2.53429e-16)
(0.133161 3.84247e-17 9.70556e-17)
(0.138009 -2.20791e-15 2.55412e-16)
(0.138009 3.96143e-17 9.99103e-17)
(0.142944 -2.21049e-15 2.57407e-16)
(0.142944 4.08339e-17 1.02819e-16)
(0.147967 -2.21323e-15 2.60602e-16)
(0.147967 4.19806e-17 1.05783e-16)
(0.153081 -2.21608e-15 2.7074e-16)
(0.153081 4.32788e-17 1.08811e-16)
(0.158286 -2.2188e-15 2.81265e-16)
(0.158286 4.46024e-17 1.11883e-16)
(0.163584 -2.22138e-15 2.92166e-16)
(0.163584 4.58299e-17 1.18371e-16)
(0.168975 -2.22395e-15 3.03455e-16)
(0.168975 4.68129e-17 1.30578e-16)
(0.174462 -2.22664e-15 3.15143e-16)
(0.174462 4.76447e-17 1.43228e-16)
(0.180045 -2.22926e-15 3.27263e-16)
(0.180045 4.85212e-17 1.56328e-16)
(0.185724 -2.23187e-15 3.39769e-16)
(0.185724 4.9332e-17 1.6991e-16)
(0.191502 -2.2347e-15 3.52722e-16)
(0.191502 5.00152e-17 1.83967e-16)
(0.197379 -2.23741e-15 3.65737e-16)
(0.197379 5.09841e-17 1.98488e-16)
(0.203356 -2.23989e-15 3.75394e-16)
(0.203356 5.2047e-17 2.13459e-16)
(0.209433 -2.24249e-15 3.85223e-16)
(0.209433 5.27395e-17 2.26504e-16)
(0.21561 -2.2453e-15 3.95236e-16)
(0.21561 5.35259e-17 2.35245e-16)
(0.221889 -2.24773e-15 4.05462e-16)
(0.221889 5.44444e-17 2.44282e-16)
(0.228269 -2.25003e-15 4.15827e-16)
(0.228269 5.49347e-17 2.5362e-16)
(0.23475 -2.2527e-15 4.26335e-16)
(0.23475 5.51367e-17 2.63242e-16)
(0.241331 -2.25518e-15 4.37007e-16)
(0.241331 5.55748e-17 2.73132e-16)
(0.248013 -2.25765e-15 4.47803e-16)
(0.248013 5.59592e-17 2.83323e-16)
(0.254793 -2.25981e-15 4.58689e-16)
(0.254793 5.60386e-17 2.93815e-16)
(0.261671 -2.26174e-15 4.69656e-16)
(0.261671 5.59437e-17 3.04594e-16)
(0.268645 -2.26395e-15 4.80648e-16)
(0.268645 5.62638e-17 3.15638e-16)
(0.275714 -2.26635e-15 4.91656e-16)
(0.275714 5.6439e-17 3.26921e-16)
(0.282874 -2.26806e-15 5.02652e-16)
(0.282874 5.56659e-17 3.38415e-16)
(0.290123 -2.26922e-15 5.13595e-16)
(0.290123 5.46578e-17 3.50198e-16)
(0.297458 -2.27041e-15 5.24458e-16)
(0.297458 5.42459e-17 3.62128e-16)
(0.304875 -2.27164e-15 5.35193e-16)
(0.304875 5.36156e-17 3.74263e-16)
(0.31237 -2.27337e-15 5.45736e-16)
(0.31237 5.29996e-17 3.86579e-16)
(0.319939 -2.27533e-15 5.56017e-16)
(0.319939 5.28557e-17 3.99083e-16)
(0.327578 -2.27654e-15 5.6608e-16)
(0.327578 5.16086e-17 4.11697e-16)
(0.33528 -2.27735e-15 5.75843e-16)
(0.33528 5.0083e-17 4.24395e-16)
(0.34304 -2.27838e-15 5.85266e-16)
(0.34304 4.98373e-17 4.37117e-16)
(0.350852 -2.27942e-15 5.94368e-16)
(0.350852 4.84179e-17 4.49913e-16)
(0.358711 -2.27995e-15 6.02967e-16)
(0.358711 4.54439e-17 4.62765e-16)
(0.36661 -2.27965e-15 6.11089e-16)
(0.36661 4.34428e-17 4.75704e-16)
(0.374541 -2.27988e-15 6.18684e-16)
(0.374541 4.15813e-17 4.88528e-16)
(0.382499 -2.28026e-15 6.2571e-16)
(0.382499 4.00268e-17 5.01251e-16)
(0.390477 -2.27987e-15 6.32434e-16)
(0.390477 3.77882e-17 5.13898e-16)
(0.398468 -2.27878e-15 6.38524e-16)
(0.398468 3.48728e-17 5.26487e-16)
(0.406465 -2.27753e-15 6.43972e-16)
(0.406465 3.22956e-17 5.39066e-16)
(0.414461 -2.27671e-15 6.48914e-16)
(0.414461 2.91357e-17 5.51514e-16)
(0.42245 -2.27594e-15 6.533e-16)
(0.42245 2.61729e-17 5.63743e-16)
(0.430425 -2.27479e-15 6.57164e-16)
(0.430425 2.18988e-17 5.75838e-16)
(0.438381 -2.2724e-15 6.60314e-16)
(0.438381 1.74348e-17 5.88081e-16)
(0.446311 -2.26977e-15 6.62738e-16)
(0.446311 1.36489e-17 6.00191e-16)
(0.454211 -2.26724e-15 6.64623e-16)
(0.454211 9.36871e-18 6.11948e-16)
(0.462075 -2.26388e-15 6.65921e-16)
(0.462075 3.32537e-18 6.23562e-16)
(0.469897 -2.26015e-15 6.66604e-16)
(0.469897 -4.13024e-18 6.35291e-16)
(0.477675 -2.25639e-15 6.66559e-16)
(0.477675 -8.07014e-18 6.46743e-16)
(0.485403 -2.25377e-15 6.65966e-16)
(0.485403 -1.15075e-17 6.58054e-16)
(0.493078 -2.25035e-15 6.64818e-16)
(0.493078 -1.70515e-17 6.69533e-16)
(0.500696 -2.24516e-15 6.63087e-16)
(0.500696 -2.18897e-17 6.80798e-16)
(0.508256 -2.23932e-15 6.61135e-16)
(0.508256 -2.8186e-17 6.92857e-16)
(0.515753 -2.23294e-15 6.58359e-16)
(0.515753 -3.51352e-17 7.05796e-16)
(0.523187 -2.22711e-15 6.54917e-16)
(0.523187 -4.15458e-17 7.18809e-16)
(0.530555 -2.22194e-15 6.51191e-16)
(0.530555 -4.79045e-17 7.31903e-16)
(0.537856 -2.21567e-15 6.4715e-16)
(0.537856 -5.47415e-17 7.45026e-16)
(0.545088 -2.2079e-15 6.42892e-16)
(0.545088 -6.20383e-17 7.58147e-16)
(0.55225 -2.19879e-15 6.38329e-16)
(0.55225 -6.9723e-17 7.71442e-16)
(0.559342 -2.18964e-15 6.33457e-16)
(0.559342 -7.57363e-17 7.84843e-16)
(0.566363 -2.18205e-15 6.28129e-16)
(0.566363 -8.25953e-17 7.98476e-16)
(0.573312 -2.17552e-15 6.22768e-16)
(0.573312 -8.78917e-17 8.12187e-16)
(0.580191 -2.16893e-15 6.17414e-16)
(0.580191 -9.59908e-17 8.25978e-16)
(0.586998 -2.1607e-15 6.11825e-16)
(0.586998 -1.04843e-16 8.39888e-16)
(0.593735 -2.15275e-15 6.0585e-16)
(0.593735 -1.12037e-16 8.54197e-16)
(0.6004 -2.14405e-15 6.00205e-16)
(0.6004 -1.21946e-16 8.68534e-16)
(0.606996 -2.13611e-15 5.94142e-16)
(0.606996 -1.3125e-16 8.82871e-16)
(0.613522 -2.12867e-15 5.88386e-16)
(0.613522 -1.41376e-16 8.97445e-16)
(0.61998 -2.11847e-15 5.82154e-16)
(0.61998 -1.48994e-16 9.12431e-16)
(0.62637 -2.10636e-15 5.76752e-16)
(0.62637 -1.57791e-16 9.2753e-16)
(0.632692 -2.09135e-15 5.71347e-16)
(0.632692 -1.68747e-16 9.42781e-16)
(0.638949 -2.0786e-15 5.66063e-16)
(0.638949 -1.79815e-16 9.47798e-16)
(0.64514 -2.06543e-15 5.60889e-16)
(0.64514 -1.90637e-16 9.42827e-16)
(0.651267 -2.05021e-15 5.55392e-16)
(0.651267 -2.02319e-16 9.37719e-16)
(0.657331 -2.03435e-15 5.49819e-16)
(0.657331 -2.15002e-16 9.32126e-16)
(0.663333 -2.01675e-15 5.43843e-16)
(0.663333 -2.28163e-16 9.26716e-16)
(0.669274 -1.99913e-15 5.3791e-16)
(0.669274 -2.41148e-16 9.22149e-16)
(0.675156 -1.98151e-15 5.3207e-16)
(0.675156 -2.54328e-16 9.1755e-16)
(0.680978 -1.96173e-15 5.25244e-16)
(0.680978 -2.67996e-16 9.12958e-16)
(0.686744 -1.94119e-15 5.18443e-16)
(0.686744 -2.79765e-16 9.0773e-16)
(0.692453 -1.92329e-15 5.11962e-16)
(0.692453 -2.9182e-16 9.04102e-16)
(0.698106 -1.90345e-15 5.05292e-16)
(0.698106 -3.0757e-16 9.01806e-16)
(0.703706 -1.88951e-15 4.96678e-16)
(0.703706 -3.174e-16 8.99381e-16)
(0.709253 -1.88107e-15 4.88666e-16)
(0.709253 -3.28659e-16 8.94566e-16)
(0.714747 -1.86841e-15 4.81057e-16)
(0.714747 -3.39151e-16 8.89609e-16)
(0.720192 -1.85527e-15 4.72788e-16)
(0.720192 -3.47059e-16 8.84172e-16)
(0.725586 -1.84176e-15 4.65611e-16)
(0.725586 -3.56811e-16 8.76777e-16)
(0.730932 -1.82668e-15 4.58958e-16)
(0.730932 -3.66816e-16 8.69773e-16)
(0.73623 -1.81689e-15 4.51872e-16)
(0.73623 -3.80817e-16 8.61102e-16)
(0.741482 -1.79427e-15 4.45373e-16)
(0.741482 -3.90766e-16 8.50421e-16)
(0.746689 -1.78248e-15 4.41139e-16)
(0.746689 -4.01781e-16 8.38327e-16)
(0.751851 -1.76623e-15 4.37233e-16)
(0.751851 -4.12008e-16 8.25945e-16)
(0.756969 -1.74943e-15 4.32742e-16)
(0.756969 -4.2172e-16 8.1222e-16)
(0.762046 -1.73051e-15 4.28001e-16)
(0.762046 -4.33536e-16 7.9718e-16)
(0.76708 -1.70187e-15 4.23844e-16)
(0.76708 -4.4233e-16 7.84946e-16)
(0.772074 -1.69701e-15 4.21315e-16)
(0.772074 -4.46442e-16 7.7062e-16)
(0.777028 -1.68463e-15 4.1619e-16)
(0.777028 -4.527e-16 7.5528e-16)
(0.781944 -1.66815e-15 4.11639e-16)
(0.781944 -4.63981e-16 7.40465e-16)
(0.786821 -1.65241e-15 4.07208e-16)
(0.786821 -4.71848e-16 7.26702e-16)
(0.791662 -1.63671e-15 4.02151e-16)
(0.791662 -4.82086e-16 7.11633e-16)
(0.796466 -1.61786e-15 3.96317e-16)
(0.796466 -4.90832e-16 6.95917e-16)
(0.801234 -1.59959e-15 3.9223e-16)
(0.801234 -4.96085e-16 6.83773e-16)
(0.805968 -1.58573e-15 3.90275e-16)
(0.805968 -5.03314e-16 6.71226e-16)
(0.810668 -1.56922e-15 3.87523e-16)
(0.810668 -5.08109e-16 6.55873e-16)
(0.815335 -1.55152e-15 3.84989e-16)
(0.815335 -5.14151e-16 6.389e-16)
(0.819969 -1.53258e-15 3.82864e-16)
(0.819969 -5.20549e-16 6.24596e-16)
(0.824571 -1.51743e-15 3.81346e-16)
(0.824571 -5.29705e-16 6.10725e-16)
(0.829142 -1.50217e-15 3.79266e-16)
(0.829142 -5.40147e-16 5.96902e-16)
(0.833683 -1.48655e-15 3.7716e-16)
(0.833683 -5.46354e-16 5.83811e-16)
(0.838194 -1.46522e-15 3.7738e-16)
(0.838194 -5.56494e-16 5.70368e-16)
(0.842676 -1.44344e-15 3.74744e-16)
(0.842676 -5.69128e-16 5.58042e-16)
(0.847129 -1.42996e-15 3.7022e-16)
(0.847129 -5.72237e-16 5.47832e-16)
(0.851554 -1.41458e-15 3.61603e-16)
(0.851554 -5.79463e-16 5.38912e-16)
(0.855951 -1.4015e-15 3.53428e-16)
(0.855951 -5.90441e-16 5.28229e-16)
(0.860322 -1.3877e-15 3.50246e-16)
(0.860322 -5.93598e-16 5.2107e-16)
(0.864666 -1.3727e-15 3.443e-16)
(0.864666 -6.04285e-16 5.13713e-16)
(0.868985 -1.359e-15 3.38055e-16)
(0.868985 -6.08602e-16 5.04039e-16)
(0.873278 -1.34207e-15 3.31637e-16)
(0.873278 -6.12904e-16 4.97922e-16)
(0.877546 -1.32356e-15 3.24371e-16)
(0.877546 -6.21717e-16 4.8903e-16)
(0.881789 -1.3062e-15 3.15413e-16)
(0.881789 -6.26442e-16 4.79897e-16)
(0.886009 -1.28964e-15 3.07595e-16)
(0.886009 -6.42266e-16 4.72352e-16)
(0.890205 -1.27095e-15 3.01691e-16)
(0.890205 -6.48528e-16 4.63801e-16)
(0.894378 -1.25967e-15 2.97251e-16)
(0.894378 -6.53879e-16 4.52882e-16)
(0.898528 -1.24563e-15 2.93491e-16)
(0.898528 -6.67636e-16 4.41197e-16)
(0.902656 -1.22857e-15 2.90028e-16)
(0.902656 -6.69992e-16 4.37112e-16)
(0.906761 -1.22155e-15 2.863e-16)
(0.906761 -6.75686e-16 4.29248e-16)
(0.910845 -1.21329e-15 2.81048e-16)
(0.910845 -6.80747e-16 4.24262e-16)
(0.914908 -1.19387e-15 2.80424e-16)
(0.914908 -6.84862e-16 4.14372e-16)
(0.91895 -1.17943e-15 2.77203e-16)
(0.91895 -6.9597e-16 4.07962e-16)
(0.922971 -1.1679e-15 2.74686e-16)
(0.922971 -7.00377e-16 4.03419e-16)
(0.926971 -1.15324e-15 2.72255e-16)
(0.926971 -7.02926e-16 3.94888e-16)
(0.930951 -1.13167e-15 2.74953e-16)
(0.930951 -7.0602e-16 3.82619e-16)
(0.934912 -1.1179e-15 2.70467e-16)
(0.934912 -7.09233e-16 3.76587e-16)
(0.938852 -1.10817e-15 2.7157e-16)
(0.938852 -7.05147e-16 3.67234e-16)
(0.942774 -1.08812e-15 2.67184e-16)
(0.942774 -6.96404e-16 3.64836e-16)
(0.946676 -1.06897e-15 2.74173e-16)
(0.946676 -6.9211e-16 3.52873e-16)
(0.950558 -1.05292e-15 2.70831e-16)
(0.950558 -6.96708e-16 3.49863e-16)
(0.954422 -1.04475e-15 2.69452e-16)
(0.954422 -6.90026e-16 3.41452e-16)
(0.958268 -1.03514e-15 2.71927e-16)
(0.958268 -6.87169e-16 3.34888e-16)
(0.962094 -1.02285e-15 2.64464e-16)
(0.962094 -6.80998e-16 3.36501e-16)
(0.965902 -1.00934e-15 2.65959e-16)
(0.965902 -6.79133e-16 3.26176e-16)
(0.969692 -9.86524e-16 2.7175e-16)
(0.969692 -6.94943e-16 3.16478e-16)
(0.973464 -9.53711e-16 2.72804e-16)
(0.973464 -7.01702e-16 3.13023e-16)
(0.977217 -9.37708e-16 2.7501e-16)
(0.977217 -7.12808e-16 3.03247e-16)
(0.980952 -9.30004e-16 2.76434e-16)
(0.980952 -7.14299e-16 2.96579e-16)
(0.984669 -9.23638e-16 2.68597e-16)
(0.984669 -7.11082e-16 3.0415e-16)
(0.988368 -9.17535e-16 2.80911e-16)
(0.988368 -7.14647e-16 3.06154e-16)
(0.992048 -9.08155e-16 2.76972e-16)
(0.992048 -7.29573e-16 3.03832e-16)
(0.995711 -9.06773e-16 2.78859e-16)
(0.995711 -7.44747e-16 2.97629e-16)
(0.999356 -8.9577e-16 2.81133e-16)
(0.999356 -7.46171e-16 2.87362e-16)
(1.00298 -8.82642e-16 2.85079e-16)
(1.00298 -7.58092e-16 2.91762e-16)
(1.00659 -8.51458e-16 2.98657e-16)
(1.00659 -7.90899e-16 2.8599e-16)
(1.01018 -8.2414e-16 3.01162e-16)
(1.01018 -8.14897e-16 2.8851e-16)
(1.01375 -8.30519e-16 3.01368e-16)
(1.01375 -8.16418e-16 3.05289e-16)
(1.0173 -8.24929e-16 3.04552e-16)
(1.0173 -8.19004e-16 3.00899e-16)
(1.02084 -8.14657e-16 3.07229e-16)
(1.02084 -8.08137e-16 3.08226e-16)
(1.02435 -8.10477e-16 3.04633e-16)
(1.02435 -8.18509e-16 3.37518e-16)
(1.02785 -8.13198e-16 3.02466e-16)
(1.02785 -8.36204e-16 3.5002e-16)
(1.03132 -8.10706e-16 2.91232e-16)
(1.03132 -8.20193e-16 3.56396e-16)
(1.03478 -8.14154e-16 2.74843e-16)
(1.03478 -8.08151e-16 3.62581e-16)
(1.03821 -8.31464e-16 2.75114e-16)
(1.03821 -7.90301e-16 3.58808e-16)
(1.04163 -8.10828e-16 2.73631e-16)
(1.04163 -7.45904e-16 3.46347e-16)
(1.04502 -7.8703e-16 2.56114e-16)
(1.04502 -7.38753e-16 3.45926e-16)
(1.0484 -7.71628e-16 2.68726e-16)
(1.0484 -7.41958e-16 3.41111e-16)
(1.05175 -7.46801e-16 2.69653e-16)
(1.05175 -7.03474e-16 3.07407e-16)
(1.05508 -7.36536e-16 2.52804e-16)
(1.05508 -6.63812e-16 3.37564e-16)
(1.05838 -7.06426e-16 2.54078e-16)
(1.05838 -6.85221e-16 3.3799e-16)
(1.06167 -6.58703e-16 2.84473e-16)
(1.06167 -7.72944e-16 2.92185e-16)
(1.06493 -6.23451e-16 2.769e-16)
(1.06493 -6.64366e-16 3.019e-16)
(1.06816 -6.03168e-16 2.7886e-16)
(1.06816 -6.42805e-16 3.18534e-16)
(1.07137 -5.93419e-16 2.88588e-16)
(1.07137 -6.14639e-16 3.2165e-16)
(1.07456 -6.12146e-16 2.9552e-16)
(1.07456 -6.0972e-16 3.28494e-16)
(1.07771 -6.23757e-16 3.12002e-16)
(1.07771 -6.25165e-16 3.00492e-16)
(1.08084 -5.99688e-16 3.16525e-16)
(1.08084 -6.04404e-16 3.41657e-16)
(1.08395 -6.12804e-16 3.45831e-16)
(1.08395 -5.96496e-16 3.85728e-16)
(1.08702 -6.18031e-16 3.51231e-16)
(1.08702 -5.99192e-16 3.70071e-16)
(1.09006 -5.99191e-16 3.64135e-16)
(1.09006 -5.53339e-16 3.57071e-16)
(1.09307 -6.04719e-16 3.44035e-16)
(1.09307 -5.71354e-16 3.39815e-16)
(1.09604 -5.83546e-16 3.36794e-16)
(1.09604 -5.77904e-16 3.38466e-16)
(1.09898 -6.68061e-16 3.28564e-16)
(1.09898 -5.852e-16 3.03993e-16)
(1.10189 -5.75648e-16 3.62486e-16)
(1.10189 -6.07588e-16 3.28078e-16)
(1.10476 -5.51891e-16 3.61815e-16)
(1.10476 -5.71594e-16 3.44767e-16)
(1.10759 -5.60381e-16 3.38162e-16)
(1.10759 -5.8262e-16 2.95672e-16)
(1.11038 -5.71966e-16 3.14226e-16)
(1.11038 -5.58256e-16 2.91106e-16)
(1.11312 -5.36975e-16 3.12691e-16)
(1.11312 -5.3723e-16 3.33621e-16)
(1.11582 -5.28967e-16 3.31572e-16)
(1.11582 -5.142e-16 3.38035e-16)
(1.11847 -5.20633e-16 3.89034e-16)
(1.11847 -4.90352e-16 3.36826e-16)
(1.12108 -5.00116e-16 4.04884e-16)
(1.12108 -4.68534e-16 3.32248e-16)
(1.12363 -5.21474e-16 4.05644e-16)
(1.12363 -5.06338e-16 3.32018e-16)
(1.12612 -4.85433e-16 3.80664e-16)
(1.12612 -5.04399e-16 3.15759e-16)
(1.12856 -4.56693e-16 3.81107e-16)
(1.12856 -4.71409e-16 3.09939e-16)
(1.13094 -4.55376e-16 4.3477e-16)
(1.13094 -4.90416e-16 3.06285e-16)
(1.13325 -4.16346e-16 4.49769e-16)
(1.13325 -5.22502e-16 3.37523e-16)
(1.13549 -4.63641e-16 4.00269e-16)
(1.13549 -4.85381e-16 3.87712e-16)
(1.13766 -4.32639e-16 4.41219e-16)
(1.13766 -4.69175e-16 3.21402e-16)
(1.13975 -4.23241e-16 4.22553e-16)
(1.13975 -4.78083e-16 4.27746e-16)
(1.14175 -4.91835e-16 3.59793e-16)
(1.14175 -4.73097e-16 4.20796e-16)
(1.14367 -4.47765e-16 3.2468e-16)
(1.14367 -4.50482e-16 3.38207e-16)
(1.14549 -4.55424e-16 3.54481e-16)
(1.14549 -4.26817e-16 3.50812e-16)
(1.14721 -5.06064e-16 3.50622e-16)
(1.14721 -4.28477e-16 3.88054e-16)
(1.14882 -5.11136e-16 3.06758e-16)
(1.14882 -4.23361e-16 3.32563e-16)
(1.15032 -4.68578e-16 2.54478e-16)
(1.15032 -4.19107e-16 2.3289e-16)
(1.15169 -4.60148e-16 2.19655e-16)
(1.15169 -4.45521e-16 1.90383e-16)
(1.15292 -4.18681e-16 1.96877e-16)
(1.15292 -4.39871e-16 2.07389e-16)
(1.15401 -4.0663e-16 2.06059e-16)
(1.15401 -4.2271e-16 1.73662e-16)
(1.15495 -3.88454e-16 2.66783e-16)
(1.15495 -4.29855e-16 1.40613e-16)
(1.15572 -3.58831e-16 2.44739e-16)
(1.15572 -3.96257e-16 1.5503e-16)
(1.15632 -3.70388e-16 1.40736e-16)
(1.15632 -3.18521e-16 2.35292e-16)
(1.15673 -3.35877e-16 1.77964e-16)
(1.15673 -3.079e-16 2.04099e-16)
(1.15694 -3.11541e-16 1.24994e-16)
(1.15694 -3.08394e-16 1.10535e-16)
(0.00120363 1.9626e-20 -1.49909e-18)
(0.00120363 9.06574e-21 -1.98296e-19)
(0.0036329 2.69213e-19 -7.25616e-18)
(0.0036329 5.89448e-20 -2.37589e-18)
(0.00610706 6.54862e-19 -7.19546e-18)
(0.00610706 1.41683e-19 -2.46398e-18)
(0.00862692 1.06801e-18 -8.03268e-18)
(0.00862692 2.3265e-19 -2.55521e-18)
(0.0111933 1.48868e-18 -8.32594e-18)
(0.0111933 3.27432e-19 -2.64895e-18)
(0.0138071 1.91428e-18 -8.62675e-18)
(0.0138071 4.30746e-19 -2.74561e-18)
(0.0164691 2.34601e-18 -8.93555e-18)
(0.0164691 5.53234e-19 -2.84539e-18)
(0.0191802 2.79794e-18 -9.25232e-18)
(0.0191802 6.73771e-19 -2.94786e-18)
(0.0219414 3.26393e-18 -9.57706e-18)
(0.0219414 8.04439e-19 -3.05341e-18)
(0.0247535 3.75977e-18 -9.90966e-18)
(0.0247535 9.1855e-19 -3.16213e-18)
(0.0276174 4.28274e-18 -1.025e-17)
(0.0276174 1.01252e-18 -3.27394e-18)
(0.0305341 4.80618e-18 -1.05981e-17)
(0.0305341 1.13381e-18 -3.38855e-18)
(0.0335046 5.32099e-18 -1.09543e-17)
(0.0335046 1.27177e-18 -3.50677e-18)
(0.0365298 5.82666e-18 -1.1319e-17)
(0.0365298 1.43861e-18 -3.62916e-18)
(0.0396108 6.37147e-18 -1.16929e-17)
(0.0396108 1.59783e-18 -3.75438e-18)
(0.0427484 6.95855e-18 -1.20751e-17)
(0.0427484 1.74399e-18 -3.88317e-18)
(0.0459439 7.54408e-18 -1.24652e-17)
(0.0459439 1.89054e-18 -4.01571e-18)
(0.0491981 8.14417e-18 -1.28643e-17)
(0.0491981 2.05157e-18 -4.15108e-18)
(0.0525122 8.75659e-18 -1.32711e-17)
(0.0525122 2.21344e-18 -4.28997e-18)
(0.0558873 9.36561e-18 -1.36855e-17)
(0.0558873 2.37497e-18 -4.43384e-18)
(0.0593244 9.99616e-18 -1.41084e-17)
(0.0593244 2.59049e-18 -4.5809e-18)
(0.0628246 1.06173e-17 -1.45389e-17)
(0.0628246 2.86055e-18 -4.73388e-18)
(0.0663892 1.12313e-17 -1.49782e-17)
(0.0663892 3.12165e-18 -4.89142e-18)
(0.0700192 1.19149e-17 -1.54249e-17)
(0.0700192 3.33235e-18 -5.05402e-18)
(0.0737158 1.2639e-17 -1.58789e-17)
(0.0737158 3.56621e-18 -5.22106e-18)
(0.0774803 1.33474e-17 -1.63402e-17)
(0.0774803 3.84939e-18 -5.39139e-18)
(0.0813138 1.40046e-17 -1.68095e-17)
(0.0813138 4.13148e-18 -5.57002e-18)
(0.0852175 1.46684e-17 -1.72874e-17)
(0.0852175 4.35864e-18 -5.75365e-18)
(0.0891927 1.54264e-17 -1.77723e-17)
(0.0891927 4.61774e-18 -5.94031e-18)
(0.0932406 1.62248e-17 -1.82615e-17)
(0.0932406 4.90752e-18 -6.13235e-18)
(0.0973626 1.70088e-17 -1.87563e-17)
(0.0973626 5.20775e-18 -6.32999e-18)
(0.10156 1.77767e-17 -1.92562e-17)
(0.10156 5.64105e-18 -6.53557e-18)
(0.105834 1.85681e-17 -1.97615e-17)
(0.105834 6.07522e-18 -6.74763e-18)
(0.110186 1.93995e-17 -2.02709e-17)
(0.110186 6.42368e-18 -6.97023e-18)
(0.114617 2.01657e-17 -2.07849e-17)
(0.114617 6.86396e-18 -7.19258e-18)
(0.119128 2.09602e-17 -2.13044e-17)
(0.119128 7.20966e-18 -7.42415e-18)
(0.123722 2.19764e-17 -2.18273e-17)
(0.123722 7.56954e-18 -7.65803e-18)
(0.128399 2.29732e-17 -2.23513e-17)
(0.128399 8.09747e-18 -7.90019e-18)
(0.133161 2.38009e-17 -2.288e-17)
(0.133161 8.54061e-18 -8.1596e-18)
(0.138009 2.46137e-17 -2.34171e-17)
(0.138009 9.21945e-18 -8.41968e-18)
(0.142944 2.5529e-17 -2.39597e-17)
(0.142944 1.00182e-17 -8.68131e-18)
(0.147967 2.64947e-17 -2.45004e-17)
(0.147967 1.04596e-17 -8.96245e-18)
(0.153081 2.76929e-17 -2.504e-17)
(0.153081 1.08353e-17 -9.24346e-18)
(0.158286 2.8895e-17 -2.55624e-17)
(0.158286 1.13655e-17 -9.53966e-18)
(0.163584 2.97993e-17 -2.94569e-17)
(0.163584 1.22818e-17 -9.82966e-18)
(0.168975 3.07856e-17 -3.90191e-17)
(0.168975 1.31999e-17 -1.01383e-17)
(0.174462 3.17085e-17 -4.89609e-17)
(0.174462 1.36337e-17 -1.04572e-17)
(0.180045 3.25187e-17 -5.92886e-17)
(0.180045 1.43702e-17 -1.07586e-17)
(0.185724 3.3519e-17 -7.006e-17)
(0.185724 1.53253e-17 -1.10755e-17)
(0.191502 3.43431e-17 -8.12385e-17)
(0.191502 1.60406e-17 -1.14303e-17)
(0.197379 3.50894e-17 -9.28308e-17)
(0.197379 1.66992e-17 -1.17759e-17)
(0.203356 3.63095e-17 -1.04834e-16)
(0.203356 1.73848e-17 -1.20942e-17)
(0.209433 3.73988e-17 -1.17301e-16)
(0.209433 1.80463e-17 -1.24472e-17)
(0.21561 3.82135e-17 -1.30175e-16)
(0.21561 1.89621e-17 -1.27879e-17)
(0.221889 3.9266e-17 -1.4347e-16)
(0.221889 1.9835e-17 -1.31058e-17)
(0.228269 4.02812e-17 -1.57221e-16)
(0.228269 2.02183e-17 -1.3431e-17)
(0.23475 4.12623e-17 -1.71387e-16)
(0.23475 2.10084e-17 -1.37441e-17)
(0.241331 4.23044e-17 -1.85956e-16)
(0.241331 2.21119e-17 -1.40836e-17)
(0.248013 4.32708e-17 -2.0095e-16)
(0.248013 2.3143e-17 -1.4422e-17)
(0.254793 4.447e-17 -2.16339e-16)
(0.254793 2.39289e-17 -1.47395e-17)
(0.261671 4.57697e-17 -2.321e-16)
(0.261671 2.47222e-17 -1.5005e-17)
(0.268645 4.67442e-17 -2.48257e-16)
(0.268645 2.58853e-17 -1.52457e-17)
(0.275714 4.74524e-17 -2.64756e-16)
(0.275714 2.66951e-17 -1.5447e-17)
(0.282874 4.8199e-17 -2.816e-16)
(0.282874 2.78524e-17 -1.56861e-17)
(0.290123 4.90254e-17 -2.98714e-16)
(0.290123 2.9161e-17 -1.58538e-17)
(0.297458 4.96051e-17 -3.16147e-16)
(0.297458 3.03936e-17 -1.5991e-17)
(0.304875 5.02887e-17 -3.3386e-16)
(0.304875 3.17912e-17 -1.61328e-17)
(0.31237 5.03444e-17 -3.51798e-16)
(0.31237 3.35736e-17 -1.63317e-17)
(0.319939 4.99239e-17 -3.69903e-16)
(0.319939 3.52803e-17 -1.63933e-17)
(0.327578 5.02102e-17 -3.88161e-16)
(0.327578 3.69508e-17 -1.63352e-17)
(0.33528 5.08401e-17 -4.06587e-16)
(0.33528 3.84511e-17 -1.62039e-17)
(0.34304 5.15726e-17 -4.25114e-16)
(0.34304 3.94244e-17 -1.61046e-17)
(0.350852 5.23372e-17 -4.43591e-16)
(0.350852 4.1109e-17 -1.60031e-17)
(0.358711 5.2716e-17 -4.61977e-16)
(0.358711 4.25066e-17 -1.58826e-17)
(0.36661 5.26087e-17 -4.80172e-16)
(0.36661 4.42884e-17 -1.56591e-17)
(0.374541 5.31923e-17 -4.98238e-16)
(0.374541 4.56863e-17 -1.52193e-17)
(0.382499 5.40455e-17 -5.16173e-16)
(0.382499 4.80195e-17 -1.53986e-17)
(0.390477 5.43974e-17 -5.33785e-16)
(0.390477 4.93968e-17 -1.6308e-17)
(0.398468 5.46142e-17 -5.51062e-16)
(0.398468 5.00463e-17 -1.71194e-17)
(0.406465 5.4209e-17 -5.67887e-16)
(0.406465 5.30428e-17 -1.791e-17)
(0.414461 5.42641e-17 -5.84336e-16)
(0.414461 5.46004e-17 -1.87187e-17)
(0.42245 5.42221e-17 -6.00474e-16)
(0.42245 5.66495e-17 -1.95971e-17)
(0.430425 5.37551e-17 -6.16136e-16)
(0.430425 5.95026e-17 -2.05087e-17)
(0.438381 5.42473e-17 -6.31161e-16)
(0.438381 6.1245e-17 -2.11867e-17)
(0.446311 5.47469e-17 -6.45678e-16)
(0.446311 6.21783e-17 -2.16954e-17)
(0.454211 5.53385e-17 -6.59833e-16)
(0.454211 6.36757e-17 -2.23168e-17)
(0.462075 5.67356e-17 -6.73599e-16)
(0.462075 6.47656e-17 -2.29603e-17)
(0.469897 5.7666e-17 -6.86763e-16)
(0.469897 6.63067e-17 -2.34285e-17)
(0.477675 5.82669e-17 -6.99502e-16)
(0.477675 6.85461e-17 -2.39891e-17)
(0.485403 5.83385e-17 -7.11655e-16)
(0.485403 6.98245e-17 -2.45967e-17)
(0.493078 5.74739e-17 -7.23207e-16)
(0.493078 7.06143e-17 -2.49327e-17)
(0.500696 5.74663e-17 -7.34245e-16)
(0.500696 7.27089e-17 -2.6233e-17)
(0.508256 5.6729e-17 -7.44815e-16)
(0.508256 7.34381e-17 -2.83305e-17)
(0.515753 5.49145e-17 -7.55148e-16)
(0.515753 7.3856e-17 -3.03464e-17)
(0.523187 5.32349e-17 -7.64701e-16)
(0.523187 7.84535e-17 -3.22517e-17)
(0.530555 5.22022e-17 -7.7371e-16)
(0.530555 8.35622e-17 -3.41334e-17)
(0.537856 5.15527e-17 -7.82202e-16)
(0.537856 8.5934e-17 -3.59602e-17)
(0.545088 5.03368e-17 -7.90078e-16)
(0.545088 8.6148e-17 -3.78082e-17)
(0.55225 4.89014e-17 -7.97562e-16)
(0.55225 8.92997e-17 -3.94987e-17)
(0.559342 4.98622e-17 -8.04503e-16)
(0.559342 8.80297e-17 -4.09681e-17)
(0.566363 5.20486e-17 -8.10734e-16)
(0.566363 8.66578e-17 -4.26143e-17)
(0.573312 5.00754e-17 -8.16648e-16)
(0.573312 8.8846e-17 -4.46276e-17)
(0.580191 4.67467e-17 -8.22002e-16)
(0.580191 9.13748e-17 -4.6447e-17)
(0.586998 4.4983e-17 -8.26511e-16)
(0.586998 8.87993e-17 -4.80958e-17)
(0.593735 4.43757e-17 -8.30741e-16)
(0.593735 9.04986e-17 -4.97637e-17)
(0.6004 4.29212e-17 -8.34182e-16)
(0.6004 8.92445e-17 -5.14426e-17)
(0.606996 4.14351e-17 -8.37153e-16)
(0.606996 8.92329e-17 -5.30771e-17)
(0.613522 4.09885e-17 -8.39024e-16)
(0.613522 8.88834e-17 -5.49966e-17)
(0.61998 3.82655e-17 -8.40533e-16)
(0.61998 8.98813e-17 -5.70072e-17)
(0.62637 3.35051e-17 -8.41208e-16)
(0.62637 8.97374e-17 -5.88274e-17)
(0.632692 3.00018e-17 -8.41852e-16)
(0.632692 8.93345e-17 -6.0099e-17)
(0.638949 2.85804e-17 -8.41987e-16)
(0.638949 9.04064e-17 -6.15605e-17)
(0.64514 2.80452e-17 -8.41986e-16)
(0.64514 8.97264e-17 -6.25854e-17)
(0.651267 2.74797e-17 -8.4165e-16)
(0.651267 8.9058e-17 -6.39592e-17)
(0.657331 2.62934e-17 -8.41028e-16)
(0.657331 8.81156e-17 -6.50563e-17)
(0.663333 3.05316e-17 -8.40342e-16)
(0.663333 8.38157e-17 -6.6017e-17)
(0.669274 3.42758e-17 -8.39499e-16)
(0.669274 8.19744e-17 -6.84213e-17)
(0.675156 3.02368e-17 -8.38387e-16)
(0.675156 7.99467e-17 -7.1038e-17)
(0.680978 2.73896e-17 -8.37185e-16)
(0.680978 7.75609e-17 -7.30016e-17)
(0.686744 2.79683e-17 -8.34948e-16)
(0.686744 7.55603e-17 -7.43787e-17)
(0.692453 2.68524e-17 -8.33661e-16)
(0.692453 7.47634e-17 -7.55454e-17)
(0.698106 2.50623e-17 -8.32975e-16)
(0.698106 7.61586e-17 -7.78928e-17)
(0.703706 2.49808e-17 -8.32008e-16)
(0.703706 7.87304e-17 -8.04537e-17)
(0.709253 2.58854e-17 -8.28765e-16)
(0.709253 7.70345e-17 -8.20099e-17)
(0.714747 2.62023e-17 -8.25131e-16)
(0.714747 7.57193e-17 -8.32141e-17)
(0.720192 2.21947e-17 -8.20982e-16)
(0.720192 7.6367e-17 -8.53344e-17)
(0.725586 1.93618e-17 -8.16014e-16)
(0.725586 7.50262e-17 -8.59628e-17)
(0.730932 1.98826e-17 -8.11283e-16)
(0.730932 7.32701e-17 -8.70869e-17)
(0.73623 1.99219e-17 -8.05398e-16)
(0.73623 7.24987e-17 -8.95047e-17)
(0.741482 1.98891e-17 -7.97471e-16)
(0.741482 7.16413e-17 -9.21317e-17)
(0.746689 1.87593e-17 -7.88579e-16)
(0.746689 6.90364e-17 -9.33664e-17)
(0.751851 1.4262e-17 -7.7969e-16)
(0.751851 6.94888e-17 -9.50527e-17)
(0.756969 3.75742e-18 -7.70779e-16)
(0.756969 7.19378e-17 -9.69707e-17)
(0.762046 -5.88417e-18 -7.61205e-16)
(0.762046 6.78821e-17 -9.83702e-17)
(0.76708 -1.21681e-17 -7.52997e-16)
(0.76708 6.26176e-17 -9.94022e-17)
(0.772074 -2.15171e-17 -7.42654e-16)
(0.772074 5.92212e-17 -9.94717e-17)
(0.777028 -3.16328e-17 -7.31958e-16)
(0.777028 5.73643e-17 -9.91908e-17)
(0.781944 -3.92904e-17 -7.21595e-16)
(0.781944 5.61267e-17 -9.85555e-17)
(0.786821 -4.69572e-17 -7.11589e-16)
(0.786821 5.26149e-17 -9.828e-17)
(0.791662 -5.36967e-17 -7.00979e-16)
(0.791662 4.17163e-17 -9.61471e-17)
(0.796466 -5.93424e-17 -6.90007e-16)
(0.796466 3.72837e-17 -9.33962e-17)
(0.801234 -6.13935e-17 -6.81962e-16)
(0.801234 3.53073e-17 -9.10762e-17)
(0.805968 -6.1091e-17 -6.72862e-16)
(0.805968 2.74259e-17 -9.06392e-17)
(0.810668 -6.08104e-17 -6.60631e-16)
(0.810668 2.29759e-17 -9.15974e-17)
(0.815335 -6.08485e-17 -6.46753e-16)
(0.815335 1.32149e-17 -9.0716e-17)
(0.819969 -6.41179e-17 -6.35484e-16)
(0.819969 4.75914e-18 -8.98452e-17)
(0.824571 -6.71144e-17 -6.24431e-16)
(0.824571 -2.90076e-18 -9.04302e-17)
(0.829142 -6.99122e-17 -6.13651e-16)
(0.829142 -1.39947e-17 -9.2621e-17)
(0.833683 -7.36278e-17 -6.03375e-16)
(0.833683 -2.1083e-17 -9.42951e-17)
(0.838194 -8.11479e-17 -5.91903e-16)
(0.838194 -2.72424e-17 -9.60926e-17)
(0.842676 -9.57798e-17 -5.81325e-16)
(0.842676 -3.9644e-17 -9.44421e-17)
(0.847129 -1.04968e-16 -5.72127e-16)
(0.847129 -2.60539e-17 -9.03118e-17)
(0.851554 -1.1002e-16 -5.64793e-16)
(0.851554 -2.63097e-17 -8.65133e-17)
(0.855951 -1.11124e-16 -5.5551e-16)
(0.855951 -2.93564e-17 -9.09081e-17)
(0.860322 -1.0587e-16 -5.4916e-16)
(0.860322 -3.5464e-17 -9.04464e-17)
(0.864666 -1.09839e-16 -5.41019e-16)
(0.864666 -4.19342e-17 -8.79579e-17)
(0.868985 -1.14848e-16 -5.29743e-16)
(0.868985 -4.38692e-17 -8.62357e-17)
(0.873278 -1.14386e-16 -5.21582e-16)
(0.873278 -4.93273e-17 -8.87108e-17)