/*--------------------------------*- C++ -*----------------------------------*\
| =========                 |                                                 |
| \\      /  F ield         | OpenFOAM: The Open Source CFD Toolbox           |
|  \\    /   O peration     | Version:  2106                                  |
|   \\  /    A nd           | Website:  www.openfoam.com                      |
|    \\/     M anipulation  |                                                 |
\*---------------------------------------------------------------------------*/
FoamFile
{
    version     2.0;
    format      ascii;
    arch        "LSB;label=32;scalar=64";
    class       volVectorField;
    location    "10050";
    object      grad(T);
}
// * * * * * * * * * * * * * * * * * * * * * * * * * * * * * * * * * * * * * //

dimensions      [0 -1 0 1 0 0 0];

internalField   nonuniform List<vector> 
2000
(
(0 127.82 0.236549)
(0 127.82 0.236549)
(0 127.82 0.714061)
(0 127.82 0.714061)
(-2.4961e-16 127.82 0.991011)
(2.20539e-16 127.82 0.991011)
(-9.52689e-17 127.82 1.00951)
(3.81076e-16 127.82 1.00951)
(0 127.82 1.02835)
(-4.25061e-16 127.82 1.02835)
(0 127.819 1.04754)
(-9.25581e-16 127.819 1.04754)
(0 127.819 1.06709)
(1.20548e-15 127.819 1.06709)
(0 127.818 1.08701)
(2.98121e-15 127.818 1.08701)
(-4.45262e-16 127.818 1.10729)
(0 127.818 1.10729)
(0 127.817 1.12796)
(0 127.817 1.12796)
(1.52166e-15 127.816 1.14901)
(0 127.816 1.14901)
(6.71328e-16 127.816 1.17045)
(1.93842e-15 127.816 1.17045)
(0 127.815 1.19228)
(0 127.815 1.19228)
(-2.26869e-15 127.814 1.21453)
(0 127.814 1.21453)
(-9.10288e-16 127.812 1.23719)
(-1.41315e-15 127.812 1.23719)
(2.38019e-15 127.811 1.26027)
(-3.97173e-15 127.811 1.26027)
(0 127.81 1.28378)
(0 127.81 1.28378)
(3.66263e-15 127.808 1.30772)
(4.6515e-15 127.808 1.30772)
(-1.25023e-15 127.806 1.33211)
(0 127.806 1.33211)
(5.08826e-17 127.804 1.35696)
(6.64521e-15 127.804 1.35696)
(-1.42986e-15 127.802 1.38226)
(1.14389e-14 127.802 1.38226)
(0 127.799 1.40803)
(6.08881e-15 127.799 1.40803)
(0 127.796 1.43428)
(6.46504e-15 127.796 1.43428)
(0 127.793 1.46102)
(4.45536e-15 127.793 1.46102)
(-1.80967e-15 127.789 1.48825)
(0 127.789 1.48825)
(0 127.785 1.51598)
(7.63637e-15 127.785 1.51598)
(-2.01037e-15 127.781 1.54422)
(0 127.781 1.54422)
(-2.11353e-15 127.776 1.57297)
(0 127.776 1.57297)
(0 127.77 1.60226)
(-2.18157e-15 127.77 1.60226)
(-6.60884e-15 127.763 1.63208)
(-9.3026e-15 127.763 1.63208)
(2.43469e-15 127.755 1.66243)
(9.73874e-15 127.755 1.66243)
(4.12766e-15 127.747 1.69334)
(-4.12766e-15 127.747 1.69334)
(-2.65888e-15 127.737 1.72481)
(0 127.737 1.72481)
(-6.75189e-15 127.725 1.75684)
(3.97777e-15 127.725 1.75684)
(0 127.712 1.78943)
(1.1566e-14 127.712 1.78943)
(0 127.697 1.82261)
(-3.83332e-15 127.697 1.82261)
(3.13285e-15 127.679 1.85636)
(8.76833e-15 127.679 1.85636)
(-6.95101e-15 127.659 1.89069)
(1.30276e-14 127.659 1.89069)
(-3.38324e-15 127.636 1.92561)
(0 127.636 1.92561)
(0 127.609 1.96111)
(1.40477e-14 127.609 1.96111)
(-7.28601e-15 127.579 1.9972)
(1.4572e-14 127.579 1.9972)
(0 127.543 2.03388)
(6.86139e-15 127.543 2.03388)
(0 127.502 2.07113)
(3.36783e-15 127.502 2.07113)
(-4.05092e-15 127.455 2.10896)
(-2.28159e-14 127.455 2.10896)
(4.19193e-15 127.401 2.14735)
(1.67677e-14 127.401 2.14735)
(4.33553e-15 127.338 2.18628)
(-1.73421e-14 127.338 2.18628)
(-4.48175e-15 127.267 2.22576)
(1.7927e-14 127.267 2.22576)
(-6.14072e-15 127.185 2.26574)
(4.31859e-14 127.185 2.26574)
(4.78225e-15 127.091 2.30622)
(1.9129e-14 127.091 2.30622)
(-4.93659e-15 126.983 2.34715)
(-2.56641e-14 126.983 2.34715)
(0 126.861 2.3885)
(5.80929e-15 126.861 2.3885)
(-1.09565e-14 126.721 2.43024)
(-1.14057e-14 126.721 2.43024)
(0 126.563 2.4723)
(0 126.563 2.4723)
(0 126.383 2.51465)
(-2.23285e-14 126.383 2.51465)
(3.55679e-16 126.179 2.5572)
(0 126.179 2.5572)
(-5.92223e-15 125.949 2.59989)
(0 125.949 2.59989)
(-6.99428e-15 125.69 2.64265)
(2.43868e-14 125.69 2.64265)
(-6.27414e-15 125.398 2.68537)
(0 125.398 2.68537)
(-2.88849e-15 125.072 2.72797)
(-3.58389e-14 125.072 2.72797)
(6.63798e-15 124.707 2.77033)
(-2.65519e-14 124.707 2.77033)
(-9.65677e-15 124.301 2.81234)
(0 124.301 2.81234)
(-2.35073e-14 123.849 2.85388)
(6.55899e-14 123.849 2.85388)
(-7.20611e-15 123.349 2.8948)
(2.88244e-14 123.349 2.8948)
(9.13556e-15 122.797 2.93498)
(0 122.797 2.93498)
(-7.59961e-15 122.19 2.97426)
(3.03984e-14 122.19 2.97426)
(0 121.525 3.01249)
(0 121.525 3.01249)
(6.37917e-16 120.799 3.04953)
(-8.64249e-15 120.799 3.04953)
(8.48412e-15 120.008 3.08522)
(-8.48412e-15 120.008 3.08522)
(0 119.151 3.1194)
(3.36822e-14 119.151 3.1194)
(0 118.226 3.15193)
(0 118.226 3.15193)
(-8.84694e-15 117.23 3.18267)
(3.53878e-14 117.23 3.18267)
(0 116.164 3.21147)
(3.62551e-14 116.164 3.21147)
(-9.28292e-15 115.026 3.23821)
(-3.71317e-14 115.026 3.23821)
(0 113.817 3.26279)
(-3.80168e-14 113.817 3.26279)
(-1.9455e-14 112.538 3.28509)
(3.891e-14 112.538 3.28509)
(-1.99054e-14 111.189 3.30506)
(0 111.189 3.30506)
(0 109.774 3.32261)
(4.07183e-14 109.774 3.32261)
(-2.45112e-14 108.293 3.33772)
(-4.16322e-14 108.293 3.33772)
(1.06379e-14 106.752 3.35034)
(0 106.752 3.35034)
(1.0869e-14 105.153 3.36048)
(-4.34758e-14 105.153 3.36048)
(-2.22021e-14 103.5 3.36816)
(-1.33419e-14 103.5 3.36816)
(1.30975e-14 101.799 3.37339)
(-1.30975e-14 101.799 3.37339)
(2.44252e-14 100.054 3.37624)
(-1.05399e-13 100.054 3.37624)
(1.18019e-14 98.2698 3.37677)
(0 98.2698 3.37677)
(0 96.4524 3.37506)
(4.8146e-14 96.4524 3.37506)
(1.22712e-14 94.607 3.3712)
(4.90849e-14 94.607 3.3712)
(-1.13071e-15 92.7391 3.36529)
(1.19406e-14 92.7391 3.36529)
(-3.72029e-14 90.854 3.35744)
(7.44058e-14 90.854 3.35744)
(1.46787e-15 88.9571 3.34778)
(1.15306e-13 88.9571 3.34778)
(-1.32087e-14 87.0533 3.33641)
(0 87.0533 3.33641)
(-2.68841e-14 85.1476 3.32348)
(5.37682e-14 85.1476 3.32348)
(-1.36747e-14 83.2446 3.3091)
(5.46987e-14 83.2446 3.3091)
(0 81.3486 3.29339)
(-2.13729e-14 81.3486 3.29339)
(1.41373e-14 79.4637 3.27649)
(5.65493e-14 79.4637 3.27649)
(1.43672e-14 77.5935 3.25851)
(5.74687e-14 77.5935 3.25851)
(-1.45959e-14 75.7413 3.23956)
(5.83836e-14 75.7413 3.23956)
(1.48234e-14 73.9103 3.21977)
(0 73.9103 3.21977)
(-1.50497e-14 72.1031 3.19924)
(4.07137e-14 72.1031 3.19924)
(-3.85341e-15 70.322 3.17807)
(1.91281e-14 70.322 3.17807)
(-1.54982e-14 68.5692 3.15635)
(6.19927e-14 68.5692 3.15635)
(1.57203e-14 66.8464 3.13418)
(4.44476e-14 66.8464 3.13418)
(0 65.1551 3.11164)
(6.37635e-14 65.1551 3.11164)
(0 63.4966 3.08881)
(-6.46398e-14 63.4966 3.08881)
(0 61.8718 3.06576)
(6.55099e-14 61.8718 3.06576)
(-1.65934e-14 60.2815 3.04255)
(1.7119e-14 60.2815 3.04255)
(-1.68078e-14 58.7263 3.01925)
(6.72312e-14 58.7263 3.01925)
(0 57.2066 2.99591)
(3.29947e-14 57.2066 2.99591)
(0 55.7226 2.97258)
(-1.6195e-14 55.7226 2.97258)
(1.74411e-14 54.2744 2.94931)
(6.97646e-14 54.2744 2.94931)
(-1.35648e-14 52.8619 2.92613)
(5.49891e-14 52.8619 2.92613)
(0 51.485 2.90308)
(7.1421e-14 51.485 2.90308)
(-3.61197e-14 50.1433 2.8802)
(7.22395e-14 50.1433 2.8802)
(1.82629e-14 48.8366 2.85751)
(7.30515e-14 48.8366 2.85751)
(0 47.5644 2.83505)
(-7.38571e-14 47.5644 2.83505)
(0 46.3262 2.81282)
(0 46.3262 2.81282)
(-3.77246e-14 45.1214 2.79085)
(0 45.1214 2.79085)
(-1.9059e-14 43.9494 2.76916)
(-2.74235e-14 43.9494 2.76916)
(0 42.8096 2.74775)
(-7.70163e-14 42.8096 2.74775)
(3.88954e-14 41.7014 2.72666)
(-2.64276e-14 41.7014 2.72666)
(1.33362e-14 40.624 2.70587)
(7.8559e-14 40.624 2.70587)
(-1.98304e-14 39.5767 2.6854)
(7.93214e-14 39.5767 2.6854)
(4.0039e-14 38.5589 2.66526)
(-2.50013e-14 38.5589 2.66526)
(2.02072e-14 37.5697 2.64546)
(8.08287e-14 37.5697 2.64546)
(-2.03934e-14 36.6085 2.62598)
(0 36.6085 2.62598)
(0 35.6744 2.60685)
(1.64627e-13 35.6744 2.60685)
(-2.07618e-14 34.7668 2.58806)
(0 34.7668 2.58806)
(-2.2793e-14 33.885 2.5696)
(1.90345e-13 33.885 2.5696)
(-2.11248e-14 33.0282 2.55149)
(0 33.0282 2.55149)
(0 32.1958 2.53371)
(8.52171e-14 32.1958 2.53371)
(2.14825e-14 31.3869 2.51627)
(1.7186e-13 31.3869 2.51627)
(-2.16595e-14 30.601 2.49917)
(8.6638e-14 30.601 2.49917)
(1.05547e-15 29.8373 2.48239)
(6.65612e-14 29.8373 2.48239)
(-4.40195e-14 29.0952 2.46595)
(4.72411e-14 29.0952 2.46595)
(-2.00252e-14 28.374 2.44982)
(1.77465e-13 28.374 2.44982)
(0 27.6732 2.43402)
(5.01047e-14 27.6732 2.43402)
(-2.25263e-14 26.992 2.41853)
(0 26.992 2.41853)
(2.26963e-14 26.3299 2.40335)
(0 26.3299 2.40335)
(0 25.6863 2.38848)
(0 25.6863 2.38848)
(-2.30329e-14 25.0606 2.3739)
(0 25.0606 2.3739)
(-2.31996e-14 24.4523 2.35962)
(-1.28642e-13 24.4523 2.35962)
(-2.33652e-14 23.8609 2.34563)
(1.86922e-13 23.8609 2.34563)
(0 23.2857 2.33192)
(9.41196e-14 23.2857 2.33192)
(-2.36936e-14 22.7264 2.31849)
(6.08651e-14 22.7264 2.31849)
(0 22.1823 2.30533)
(9.54251e-14 22.1823 2.30533)
(-2.4018e-14 21.6531 2.29243)
(9.60721e-14 21.6531 2.29243)
(0 21.1383 2.27979)
(9.67154e-14 21.1383 2.27979)
(-2.43388e-14 20.6373 2.26741)
(0 20.6373 2.26741)
(-2.44978e-14 20.1499 2.25527)
(0 20.1499 2.25527)
(-2.46559e-14 19.6755 2.24337)
(0 19.6755 2.24337)
(-4.97829e-15 19.2138 2.23171)
(-9.92528e-14 19.2138 2.23171)
(2.92456e-14 18.7644 2.22027)
(-2.92456e-14 18.7644 2.22027)
(0 18.3268 2.20906)
(0 18.3268 2.20906)
(5.34636e-14 17.9007 2.19806)
(0 17.9007 2.19806)
(-5.31012e-14 17.4858 2.18727)
(1.29403e-13 17.4858 2.18727)
(-2.55873e-14 17.0817 2.17669)
(1.02349e-13 17.0817 2.17669)
(-2.57398e-14 16.6881 2.1663)
(0 16.6881 2.1663)
(0 16.3046 2.1561)
(1.03566e-13 16.3046 2.1561)
(-2.60425e-14 15.931 2.14609)
(-1.29864e-13 15.931 2.14609)
(2.61928e-14 15.5669 2.13625)
(1.04771e-13 15.5669 2.13625)
(2.63424e-14 15.2121 2.12659)
(1.0537e-13 15.2121 2.12659)
(2.64913e-14 14.8662 2.11709)
(0 14.8662 2.11709)
(0 14.529 2.10775)
(1.06558e-13 14.529 2.10775)
(-2.6787e-14 14.2002 2.09857)
(0 14.2002 2.09857)
(0 13.8796 2.08953)
(1.30731e-13 13.8796 2.08953)
(-2.70801e-14 13.5669 2.08063)
(-4.51482e-14 13.5669 2.08063)
(0 13.2619 2.07186)
(0 13.2619 2.07186)
(0 12.9643 2.06323)
(1.09483e-13 12.9643 2.06323)
(0 12.6739 2.05471)
(1.1006e-13 12.6739 2.05471)
(-2.76587e-14 12.3906 2.04631)
(0 12.3906 2.04631)
(-2.78019e-14 12.114 2.03802)
(0 12.114 2.03802)
(-2.79444e-14 11.844 2.02983)
(0 11.844 2.02983)
(5.61728e-14 11.5804 2.02173)
(7.26799e-14 11.5804 2.02173)
(-4.57446e-14 11.323 2.01372)
(1.12911e-13 11.323 2.01372)
(-3.82253e-14 11.0716 2.00579)
(1.13475e-13 11.0716 2.00579)
(-2.85089e-14 10.8261 1.99794)
(-3.75249e-14 10.8261 1.99794)
(-2.86486e-14 10.5862 1.99015)
(0 10.5862 1.99015)
(0 10.3518 1.98242)
(0 10.3518 1.98242)
(-3.54995e-14 10.1227 1.97475)
(1.51205e-13 10.1227 1.97475)
(-2.90645e-14 9.89874 1.96712)
(-1.16258e-13 9.89874 1.96712)
(0 9.67982 1.95952)
(0 9.67982 1.95952)
(-2.93391e-14 9.46576 1.95196)
(-2.68296e-13 9.46576 1.95196)
(-6.24437e-14 9.25641 1.94442)
(0 9.25641 1.94442)
(0 9.05164 1.93689)
(0 9.05164 1.93689)
(0 8.8513 1.92936)
(8.72169e-14 8.8513 1.92936)
(-5.97638e-14 8.65526 1.92183)
(2.39055e-13 8.65526 1.92183)
(0 8.4634 1.91429)
(1.20065e-13 8.4634 1.91429)
(-9.40113e-17 8.27558 1.90672)
(-3.00562e-14 8.27558 1.90672)
(0 8.09169 1.89912)
(-1.21134e-13 8.09169 1.89912)
(-1.45166e-15 7.9116 1.89148)
(-2.89647e-14 7.9116 1.89148)
(0 7.7352 1.88378)
(1.22195e-13 7.7352 1.88378)
(0 7.56237 1.87602)
(1.22722e-13 7.56237 1.87602)
(3.08117e-14 7.39301 1.86819)
(2.46494e-13 7.39301 1.86819)
(3.09425e-14 7.227 1.86027)
(1.2377e-13 7.227 1.86027)
(0 7.06424 1.85225)
(1.24291e-13 7.06424 1.85225)
(3.12023e-14 6.90463 1.84412)
(1.24809e-13 6.90463 1.84412)
(-5.67789e-14 6.74807 1.83587)
(2.76099e-13 6.74807 1.83587)
(-3.146e-14 6.59445 1.82747)
(-1.2584e-13 6.59445 1.82747)
(4.90467e-14 6.44368 1.81893)
(0 6.44368 1.81893)
(1.64326e-14 6.29567 1.81022)
(-4.8148e-14 6.29567 1.81022)
(-6.36845e-14 6.15033 1.80132)
(0 6.15033 1.80132)
(-7.8368e-14 6.00755 1.79223)
(1.27874e-13 6.00755 1.79223)
(0 5.86726 1.78292)
(0 5.86726 1.78292)
(-3.22192e-14 5.72936 1.77337)
(0 5.72936 1.77337)
(-4.38952e-14 5.59377 1.76356)
(0 5.59377 1.76356)
(3.24674e-14 5.46039 1.75348)
(2.59739e-13 5.46039 1.75348)
(6.5181e-14 5.32915 1.7431)
(-1.72663e-13 5.32915 1.7431)
(6.54258e-14 5.19997 1.7324)
(0 5.19997 1.7324)
(6.56693e-14 5.07274 1.72135)
(2.62677e-13 5.07274 1.72135)
(3.29557e-14 4.9474 1.70993)
(1.31823e-13 4.9474 1.70993)
(3.3076e-14 4.82385 1.69812)
(9.30191e-14 4.82385 1.69812)
(-3.31955e-14 4.70203 1.68587)
(1.32782e-13 4.70203 1.68587)
(-3.33142e-14 4.58183 1.67316)
(0 4.58183 1.67316)
(3.71645e-14 4.46318 1.65996)
(1.33729e-13 4.46318 1.65996)
(-3.06151e-14 4.34599 1.64622)
(9.77136e-14 4.34599 1.64622)
(-3.36655e-14 4.23018 1.63192)
(0 4.23018 1.63192)
(3.51586e-14 4.11565 1.617)
(2.70246e-13 4.11565 1.617)
(0 4.00233 1.60143)
(-3.45143e-14 4.00233 1.60143)
(3.40085e-14 3.89012 1.58516)
(-1.69916e-13 3.89012 1.58516)
(8.59886e-16 3.77894 1.56813)
(3.3261e-14 3.77894 1.56813)
(-3.16134e-15 3.66867 1.55028)
(0 3.66867 1.55028)
(3.66315e-14 3.55923 1.53157)
(0 3.55923 1.53157)
(-3.14658e-14 3.45052 1.51191)
(1.69271e-13 3.45052 1.51191)
(3.08892e-14 3.34243 1.49125)
(1.38236e-13 3.34243 1.49125)
(3.46656e-14 3.23485 1.46949)
(1.38662e-13 3.23485 1.46949)
(0 3.12766 1.44657)
(-1.68851e-13 3.12766 1.44657)
(-3.48745e-14 3.02075 1.42237)
(0 3.02075 1.42237)
(-3.49767e-14 2.91399 1.39681)
(1.1122e-13 2.91399 1.39681)
(0 2.80724 1.36977)
(1.4031e-13 2.80724 1.36977)
(2.01132e-14 2.70036 1.34113)
(-1.40706e-13 2.70036 1.34113)
(3.52737e-14 2.59319 1.31076)
(2.8219e-13 2.59319 1.31076)
(0 2.48558 1.27851)
(1.41477e-13 2.48558 1.27851)
(-3.54626e-14 2.37735 1.24422)
(0 2.37735 1.24422)
(3.5554e-14 2.26831 1.20771)
(1.42216e-13 2.26831 1.20771)
(6.51691e-14 2.15828 1.16879)
(1.42573e-13 2.15828 1.16879)
(-3.57301e-14 2.04704 1.12726)
(1.4292e-13 2.04704 1.12726)
(0 1.93436 1.08287)
(0 1.93436 1.08287)
(3.58962e-14 1.82002 1.03539)
(0 1.82002 1.03539)
(-1.18762e-13 1.70376 0.984531)
(1.90712e-13 1.70376 0.984531)
(0 1.58534 0.930018)
(4.59539e-14 1.58534 0.930018)
(0 1.4645 0.871541)
(4.51119e-14 1.4645 0.871541)
(-8.09238e-15 1.34097 0.808777)
(1.89056e-13 1.34097 0.808777)
(-3.62583e-14 1.21451 0.741397)
(1.45033e-13 1.21451 0.741397)
(-3.63198e-14 1.08488 0.669065)
(-4.2677e-14 1.08488 0.669065)
(0 0.95187 0.591452)
(-4.1895e-14 0.95187 0.591452)
(0 0.815319 0.508247)
(-1.45718e-13 0.815319 0.508247)
(-3.64772e-14 0.675111 0.419163)
(0 0.675111 0.419164)
(3.11432e-15 0.531202 0.323958)
(1.46078e-13 0.531202 0.323958)
(0 0.383627 0.22244)
(1.46224e-13 0.383627 0.22244)
(1.60809e-15 0.232504 0.114478)
(-3.81946e-14 0.232504 0.114478)
(-7.41049e-14 2.16378e-06 8.00874e-07)
(2.92999e-13 1.38788e-06 5.13692e-07)
(0 127.82 -0.236549)
(0 127.82 -0.236549)
(0 127.82 -0.714061)
(-2.24656e-16 127.82 -0.714061)
(-5.81414e-17 127.82 -0.991011)
(0 127.82 -0.991011)
(9.52689e-17 127.82 -1.00951)
(-2.16498e-16 127.82 -1.00951)
(-3.25406e-16 127.82 -1.02835)
(0 127.82 -1.02835)
(1.06594e-15 127.819 -1.04754)
(-8.34543e-16 127.819 -1.04754)
(-4.09625e-16 127.819 -1.06709)
(-4.09625e-16 127.819 -1.06709)
(1.54954e-15 127.818 -1.08701)
(-8.04238e-16 127.818 -1.08701)
(-4.45262e-16 127.818 -1.10729)
(1.78105e-15 127.818 -1.10729)
(1.29426e-15 127.817 -1.12796)
(-2.85195e-15 127.817 -1.12796)
(4.28319e-16 127.816 -1.14901)
(-2.3783e-15 127.816 -1.14901)
(1.41822e-15 127.816 -1.17045)
(-7.46889e-16 127.816 -1.17045)
(-1.63108e-17 127.815 -1.19228)
(-3.73126e-15 127.815 -1.19228)
(2.87907e-15 127.814 -1.21453)
(-4.75616e-15 127.814 -1.21453)
(9.10288e-16 127.812 -1.23719)
(-3.64115e-15 127.812 -1.23719)
(-1.38726e-15 127.811 -1.26027)
(0 127.811 -1.26027)
(1.07712e-15 127.81 -1.28378)
(-4.30847e-15 127.81 -1.28378)
(1.16287e-15 127.808 -1.30772)
(4.6515e-15 127.808 -1.30772)
(1.25023e-15 127.806 -1.33211)
(0 127.806 -1.33211)
(5.25511e-15 127.804 -1.35696)
(-2.57667e-15 127.804 -1.35696)
(1.42986e-15 127.802 -1.38226)
(5.71946e-15 127.802 -1.38226)
(1.5222e-15 127.799 -1.40803)
(3.6057e-15 127.799 -1.40803)
(-1.61626e-15 127.796 -1.43428)
(0 127.796 -1.43428)
(3.42415e-15 127.793 -1.46102)
(0 127.793 -1.46102)
(-5.39409e-16 127.789 -1.48825)
(2.34908e-15 127.789 -1.48825)
(2.30604e-15 127.785 -1.51598)
(0 127.785 -1.51598)
(0 127.781 -1.54422)
(-2.26378e-15 127.781 -1.54422)
(4.22705e-15 127.776 -1.57297)
(0 127.776 -1.57297)
(2.21861e-15 127.77 -1.60226)
(8.87444e-15 127.77 -1.60226)
(4.6513e-15 127.763 -1.63208)
(0 127.763 -1.63208)
(2.43469e-15 127.755 -1.66243)
(0 127.755 -1.66243)
(2.54575e-15 127.747 -1.69334)
(-4.12766e-15 127.747 -1.69334)
(6.7109e-15 127.737 -1.72481)
(-1.06355e-14 127.737 -1.72481)
(0 127.725 -1.75684)
(-1.50742e-14 127.725 -1.75684)
(0 127.712 -1.78943)
(0 127.712 -1.78943)
(3.01107e-15 127.697 -1.82261)
(-1.20443e-14 127.697 -1.82261)
(2.50263e-15 127.679 -1.85636)
(0 127.679 -1.85636)
(-3.2569e-15 127.659 -1.89069)
(-1.30276e-14 127.659 -1.89069)
(-3.38324e-15 127.636 -1.92561)
(-2.70659e-14 127.636 -1.92561)
(-3.51193e-15 127.609 -1.96111)
(0 127.609 -1.96111)
(-3.643e-15 127.579 -1.9972)
(0 127.579 -1.9972)
(-3.45802e-16 127.543 -2.03388)
(-3.36427e-14 127.543 -2.03388)
(7.82491e-15 127.502 -2.07113)
(0 127.502 -2.07113)
(4.05092e-15 127.455 -2.10896)
(-2.28159e-14 127.455 -2.10896)
(8.38386e-15 127.401 -2.14735)
(1.67677e-14 127.401 -2.14735)
(1.07076e-14 127.338 -2.18628)
(-1.73421e-14 127.338 -2.18628)
(-8.96351e-15 127.267 -2.22576)
(-1.7927e-14 127.267 -2.22576)
(3.12058e-15 127.185 -2.26574)
(2.46633e-14 127.185 -2.26574)
(0 127.091 -2.30622)
(0 127.091 -2.30622)
(-4.93659e-15 126.983 -2.34715)
(-3.94928e-14 126.983 -2.34715)
(5.09372e-15 126.861 -2.3885)
(-2.61842e-14 126.861 -2.3885)
(5.25367e-15 126.721 -2.43024)
(0 126.721 -2.43024)
(0 126.563 -2.4723)
(-4.33317e-14 126.563 -2.4723)
(5.58213e-15 126.383 -2.51465)
(0 126.383 -2.51465)
(1.15014e-14 126.179 -2.5572)
(0 126.179 -2.5572)
(0 125.949 -2.59989)
(-2.89851e-14 125.949 -2.59989)
(-4.30155e-15 125.69 -2.64265)
(0 125.69 -2.64265)
(1.64818e-14 125.398 -2.68537)
(-3.53043e-14 125.398 -2.68537)
(1.00207e-14 125.072 -2.72797)
(-3.58389e-14 125.072 -2.72797)
(9.83703e-15 124.707 -2.77033)
(-3.63889e-14 124.707 -2.77033)
(-2.83238e-15 124.301 -2.81234)
(9.65677e-15 124.301 -2.81234)
(0 123.849 -2.85388)
(-9.47981e-15 123.849 -2.85388)
(1.65122e-14 123.349 -2.8948)
(-9.30609e-15 123.349 -2.8948)
(1.6537e-14 122.797 -2.93498)
(-9.13556e-15 122.797 -2.93498)
(0 122.19 -2.97426)
(-3.03984e-14 122.19 -2.97426)
(0 121.525 -3.01249)
(0 121.525 -3.01249)
(1.66471e-14 120.799 -3.04953)
(-4.06608e-14 120.799 -3.04953)
(8.48412e-15 120.008 -3.08522)
(-4.1329e-14 120.008 -3.08522)
(0 119.151 -3.1194)
(8.32865e-15 119.151 -3.1194)
(-8.6325e-15 118.226 -3.15193)
(6.906e-14 118.226 -3.15193)
(0 117.23 -3.18267)
(8.02621e-15 117.23 -3.18267)
(9.06379e-15 116.164 -3.21147)
(-3.62551e-14 116.164 -3.21147)
(9.28292e-15 115.026 -3.23821)
(-3.71317e-14 115.026 -3.23821)
(3.0372e-14 113.817 -3.26279)
(-7.60336e-14 113.817 -3.26279)
(-9.72751e-15 112.538 -3.28509)
(0 112.538 -3.28509)
(0 111.189 -3.30506)
(1.46346e-14 111.189 -3.30506)
(0 109.774 -3.32261)
(4.07183e-14 109.774 -3.32261)
(3.69509e-15 108.293 -3.33772)
(-1.80632e-13 108.293 -3.33772)
(2.12758e-14 106.752 -3.35034)
(-4.25516e-14 106.752 -3.35034)
(-1.0869e-14 105.153 -3.36048)
(0 105.153 -3.36048)
(-1.11011e-14 103.5 -3.36816)
(-4.44043e-14 103.5 -3.36816)
(-2.26681e-14 101.799 -3.37339)
(-5.84337e-14 101.799 -3.37339)
(-1.15677e-14 100.054 -3.37624)
(-9.25419e-14 100.054 -3.37624)
(2.36039e-14 98.2698 -3.37677)
(-4.72078e-14 98.2698 -3.37677)
(-1.27446e-14 96.4524 -3.37506)
(7.29271e-14 96.4524 -3.37506)
(-1.21635e-14 94.607 -3.3712)
(6.12484e-14 94.607 -3.3712)
(5.65355e-16 92.7391 -3.36529)
(-7.39051e-14 92.7391 -3.36529)
(-3.72029e-14 90.854 -3.35744)
(2.75187e-14 90.854 -3.35744)
(1.29749e-14 88.9571 -3.34778)
(0 88.9571 -3.34778)
(-1.91261e-15 87.0533 -3.33641)
(0 87.0533 -3.33641)
(0 85.1476 -3.32348)
(-2.21783e-14 85.1476 -3.32348)
(1.36747e-14 83.2446 -3.3091)
(5.46987e-14 83.2446 -3.3091)
(0 81.3486 -3.29339)
(-5.56258e-14 81.3486 -3.29339)
(0 79.4637 -3.27649)
(-2.09813e-14 79.4637 -3.27649)
(1.43672e-14 77.5935 -3.25851)
(3.68719e-14 77.5935 -3.25851)
(0 75.7413 -3.23956)
(-2.02193e-14 75.7413 -3.23956)
(0 73.9103 -3.21977)
(-1.18588e-13 73.9103 -3.21977)
(0 72.1031 -3.19924)
(0 72.1031 -3.19924)
(1.52746e-14 70.322 -3.17807)
(-6.10986e-14 70.322 -3.17807)
(1.54982e-14 68.5692 -3.15635)
(0 68.5692 -3.15635)
(1.57203e-14 66.8464 -3.13418)
(1.25762e-13 66.8464 -3.13418)
(1.59409e-14 65.1551 -3.11164)
(0 65.1551 -3.11164)
(1.616e-14 63.4966 -3.08881)
(-6.46398e-14 63.4966 -3.08881)
(-1.84996e-14 61.8718 -3.06576)
(6.55099e-14 61.8718 -3.06576)
(1.7119e-14 60.2815 -3.04255)
(0 60.2815 -3.04255)
(-1.68078e-14 58.7263 -3.01925)
(-6.72312e-14 58.7263 -3.01925)
(0 57.2066 -2.99591)
(-1.64973e-14 57.2066 -2.99591)
(1.6195e-14 55.7226 -2.97258)
(-1.6195e-14 55.7226 -2.97258)
(0 54.2744 -2.94931)
(0 54.2744 -2.94931)
(3.12139e-14 52.8619 -2.92613)
(-7.0596e-14 52.8619 -2.92613)
(-3.06419e-14 51.485 -2.90308)
(-1.53209e-14 51.485 -2.90308)
(1.50402e-14 50.1433 -2.8802)
(-1.50402e-14 50.1433 -2.8802)
(-1.12663e-14 48.8366 -2.85751)
(0 48.8366 -2.85751)
(-1.84643e-14 47.5644 -2.83505)
(0 47.5644 -2.83505)
(-1.86641e-14 46.3262 -2.81282)
(0 46.3262 -2.81282)
(1.88623e-14 45.1214 -2.79085)
(-2.79354e-14 45.1214 -2.79085)
(0 43.9494 -2.76916)
(0 43.9494 -2.76916)
(-3.85082e-14 42.8096 -2.74775)
(-1.54033e-13 42.8096 -2.74775)
(-2.64276e-14 41.7014 -2.72666)
(2.64276e-14 41.7014 -2.72666)
(1.96398e-14 40.624 -2.70587)
(0 40.624 -2.70587)
(0 39.5767 -2.6854)
(5.38535e-14 39.5767 -2.6854)
(0 38.5589 -2.66526)
(-8.0078e-14 38.5589 -2.66526)
(0 37.5697 -2.64546)
(-8.08287e-14 37.5697 -2.64546)
(-2.03934e-14 36.6085 -2.62598)
(-8.15738e-14 36.6085 -2.62598)
(0 35.6744 -2.60685)
(8.23133e-14 35.6744 -2.60685)
(2.07618e-14 34.7668 -2.58806)
(0 34.7668 -2.58806)
(4.18879e-14 33.885 -2.5696)
(8.37758e-14 33.885 -2.5696)
(-2.11248e-14 33.0282 -2.55149)
(6.21238e-14 33.0282 -2.55149)
(-2.19653e-14 32.1958 -2.53371)
(0 32.1958 -2.53371)
(2.14825e-14 31.3869 -2.51627)
(0 31.3869 -2.51627)
(2.16595e-14 30.601 -2.49917)
(8.6638e-14 30.601 -2.49917)
(2.18352e-14 29.8373 -2.48239)
(8.73409e-14 29.8373 -2.48239)
(2.20098e-14 29.0952 -2.46595)
(0 29.0952 -2.46595)
(2.00252e-14 28.374 -2.44982)
(-8.87324e-14 28.374 -2.44982)
(4.20135e-14 27.6732 -2.43402)
(-3.93164e-14 27.6732 -2.43402)
(3.53676e-14 26.992 -2.41853)
(-3.8596e-14 26.992 -2.41853)
(0 26.3299 -2.40335)
(0 26.3299 -2.40335)
(4.26789e-15 25.6863 -2.38848)
(0 25.6863 -2.38848)
(8.25785e-14 25.0606 -2.3739)
(0 25.0606 -2.3739)
(3.58438e-14 24.4523 -2.35962)
(0 24.4523 -2.35962)
(5.85522e-14 23.8609 -2.34563)
(1.86922e-13 23.8609 -2.34563)
(0 23.2857 -2.33192)
(0 23.2857 -2.33192)
(-2.36936e-14 22.7264 -2.31849)
(-3.39092e-14 22.7264 -2.31849)
(-2.38563e-14 22.1823 -2.30533)
(0 22.1823 -2.30533)
(3.26778e-14 21.6531 -2.29243)
(0 21.6531 -2.29243)
(2.41788e-14 21.1383 -2.27979)
(0 21.1383 -2.27979)
(3.14912e-14 20.6373 -2.26741)
(0 20.6373 -2.26741)
(4.89956e-14 20.1499 -2.25527)
(-9.79911e-14 20.1499 -2.25527)
(4.93118e-14 19.6755 -2.24337)
(-9.86237e-14 19.6755 -2.24337)
(-2.48132e-14 19.2138 -2.23171)
(-2.38175e-13 19.2138 -2.23171)
(-2.49696e-14 18.7644 -2.22027)
(-2.92456e-14 18.7644 -2.22027)
(0 18.3268 -2.20906)
(1.00501e-13 18.3268 -2.20906)
(-5.63671e-14 17.9007 -2.19806)
(-2.81836e-14 17.9007 -2.19806)
(2.54341e-14 17.4858 -2.18727)
(0 17.4858 -2.18727)
(-2.55873e-14 17.0817 -2.17669)
(-1.29509e-13 17.0817 -2.17669)
(0 16.6881 -2.1663)
(0 16.6881 -2.1663)
(5.20654e-14 16.3046 -2.1561)
(1.03566e-13 16.3046 -2.1561)
(5.20851e-14 15.931 -2.14609)
(-1.0417e-13 15.931 -2.14609)
(0 15.5669 -2.13625)
(-1.04771e-13 15.5669 -2.13625)
(2.63424e-14 15.2121 -2.12659)
(-2.47612e-14 15.2121 -2.12659)
(2.43074e-14 14.8662 -2.11709)
(-1.5458e-13 14.8662 -2.11709)
(0 14.529 -2.10775)
(-2.6084e-13 14.529 -2.10775)
(-2.34247e-14 14.2002 -2.09857)
(-4.68495e-14 14.2002 -2.09857)
(5.38678e-14 13.8796 -2.08953)
(1.07736e-13 13.8796 -2.08953)
(7.22283e-14 13.5669 -2.08063)
(-4.51482e-14 13.5669 -2.08063)
(0 13.2619 -2.07186)
(1.08903e-13 13.2619 -2.07186)
(2.73707e-14 12.9643 -2.06323)
(-1.09483e-13 12.9643 -2.06323)
(0 12.6739 -2.05471)
(-1.52771e-13 12.6739 -2.05471)
(0 12.3906 -2.04631)
(4.19287e-14 12.3906 -2.04631)
(2.78019e-14 12.114 -2.03802)
(-1.52368e-13 12.114 -2.03802)
(5.58889e-14 11.844 -2.02983)
(-1.11778e-13 11.844 -2.02983)
(2.80864e-14 11.5804 -2.02173)
(7.26799e-14 11.5804 -2.02173)
(1.75167e-14 11.323 -2.01372)
(1.12911e-13 11.323 -2.01372)
(2.83686e-14 11.0716 -2.00579)
(0 11.0716 -2.00579)
(4.65408e-14 10.8261 -1.99794)
(-3.75249e-14 10.8261 -1.99794)
(2.86486e-14 10.5862 -1.99015)
(-1.14594e-13 10.5862 -1.99015)
(2.87878e-14 10.3518 -1.98242)
(7.8989e-14 10.3518 -1.98242)
(9.33524e-14 10.1227 -1.97475)
(-3.54995e-14 10.1227 -1.97475)
(0 9.89874 -1.96712)
(1.16258e-13 9.89874 -1.96712)
(5.00837e-15 9.67982 -1.95952)
(-1.51019e-13 9.67982 -1.95952)
(5.86781e-14 9.46576 -1.95196)
(-1.5094e-13 9.46576 -1.95196)
(-2.94756e-14 9.25641 -1.94442)
(-2.35804e-13 9.25641 -1.94442)
(2.96115e-14 9.05164 -1.93689)
(-1.5081e-13 9.05164 -1.93689)
(-3.17709e-14 8.8513 -1.92936)
(8.72169e-14 8.8513 -1.92936)
(-2.61369e-15 8.65526 -1.92183)
(1.19528e-13 8.65526 -1.92183)
(6.06335e-14 8.4634 -1.91429)
(-1.20065e-13 8.4634 -1.91429)
(3.01502e-14 8.27558 -1.90672)
(-6.01123e-14 8.27558 -1.90672)
(5.90108e-14 8.09169 -1.89912)
(-1.80145e-13 8.09169 -1.89912)
(0 7.9116 -1.89148)
(-1.21665e-13 7.9116 -1.89148)
(0 7.7352 -1.88378)
(-1.79063e-13 7.7352 -1.88378)
(0 7.56237 -1.87602)
(2.79129e-14 7.56237 -1.87602)
(8.56145e-14 7.39301 -1.86819)
(-5.48028e-14 7.39301 -1.86819)
(3.09425e-14 7.227 -1.86027)
(1.2377e-13 7.227 -1.86027)
(3.10727e-14 7.06424 -1.85225)
(0 7.06424 -1.85225)
(0 6.90463 -1.84412)
(1.24809e-13 6.90463 -1.84412)
(0 6.74807 -1.83587)
(0 6.74807 -1.83587)
(0 6.59445 -1.82747)
(-1.2584e-13 6.59445 -1.82747)
(0 6.44368 -1.81893)
(0 6.44368 -1.81893)
(-3.17154e-14 6.29567 -1.81022)
(-4.8148e-14 6.29567 -1.81022)
(-3.18422e-14 6.15033 -1.80132)
(-1.27369e-13 6.15033 -1.80132)
(-3.19685e-14 6.00755 -1.79223)
(-1.74273e-13 6.00755 -1.79223)
(0 5.86726 -1.78292)
(0 5.86726 -1.78292)
(0 5.72936 -1.77337)
(-2.57753e-13 5.72936 -1.77337)
(0 5.59377 -1.76356)
(-1.7327e-13 5.59377 -1.76356)
(0 5.46039 -1.75348)
(0 5.46039 -1.75348)
(4.23012e-14 5.32915 -1.7431)
(-1.72663e-13 5.32915 -1.7431)
(8.81316e-15 5.19997 -1.7324)
(-4.15261e-14 5.19997 -1.7324)
(6.56693e-14 5.07274 -1.72135)
(9.05735e-14 5.07274 -1.72135)
(6.59114e-14 4.9474 -1.70993)
(0 4.9474 -1.70993)
(6.61519e-14 4.82385 -1.69812)
(-1.32304e-13 4.82385 -1.69812)
(7.17604e-14 4.70203 -1.68587)
(-3.85649e-14 4.70203 -1.68587)
(-3.33142e-14 4.58183 -1.67316)
(-3.78582e-14 4.58183 -1.67316)
(0 4.46318 -1.65996)
(1.70893e-13 4.46318 -1.65996)
(-3.35493e-14 4.34599 -1.64622)
(1.34197e-13 4.34599 -1.64622)
(0 4.23018 -1.63192)
(-1.34662e-13 4.23018 -1.63192)
(0 4.11565 -1.617)
(-1.70282e-13 4.11565 -1.617)
(-6.84095e-14 4.00233 -1.60143)
(-1.70095e-13 4.00233 -1.60143)
(6.80171e-14 3.89012 -1.58516)
(-1.36034e-13 3.89012 -1.58516)
(3.41209e-14 3.77894 -1.56813)
(0 3.77894 -1.56813)
(-3.26515e-14 3.66867 -1.55028)
(1.04277e-13 3.66867 -1.55028)
(0 3.55923 -1.53157)
(0 3.55923 -1.53157)
(0 3.45052 -1.51191)
(-1.37805e-13 3.45052 -1.51191)
(0 3.34243 -1.49125)
(-6.17784e-14 3.34243 -1.49125)
(4.34244e-15 3.23485 -1.46949)
(7.80161e-14 3.23485 -1.46949)
(6.45383e-14 3.12766 -1.44657)
(-3.07934e-13 3.12766 -1.44657)
(0 3.02075 -1.42237)
(0 3.02075 -1.42237)
(6.2902e-15 2.91399 -1.39681)
(0 2.91399 -1.39681)
(3.50774e-14 2.80724 -1.36977)
(-1.4031e-13 2.80724 -1.36977)
(-9.04661e-14 2.70036 -1.34113)
(8.54161e-14 2.70036 -1.34113)
(1.62709e-14 2.59319 -1.31076)
(1.41095e-13 2.59319 -1.31076)
(7.07383e-14 2.48558 -1.27851)
(-5.32819e-14 2.48558 -1.27851)
(-1.68429e-14 2.37735 -1.24422)
(-5.23055e-14 2.37735 -1.24422)
(3.5554e-14 2.26831 -1.20771)
(-5.13471e-14 2.26831 -1.20771)
(-1.47629e-14 2.15828 -1.16879)
(-1.42573e-13 2.15828 -1.16879)
(3.57301e-14 2.04704 -1.12726)
(1.4292e-13 2.04704 -1.12726)
(0 1.93436 -1.08287)
(-1.91834e-13 1.93436 -1.08287)
(3.58962e-14 1.82002 -1.03539)
(-1.43585e-13 1.82002 -1.03539)
(3.59751e-14 1.70376 -0.984531)
(0 1.70376 -0.984531)
(4.59539e-14 1.58534 -0.930018)
(1.44204e-13 1.58534 -0.930018)
(0 1.4645 -0.871541)
(-2.88989e-13 1.4645 -0.871541)
(0 1.34097 -0.808777)
(-1.44771e-13 1.34097 -0.808777)
(3.62583e-14 1.21451 -0.741397)
(-1.45033e-13 1.21451 -0.741397)
(3.63198e-14 1.08488 -0.669065)
(1.45279e-13 1.08488 -0.669065)
(3.6377e-14 0.95187 -0.591452)
(-2.91016e-13 0.95187 -0.591452)
(7.28591e-14 0.815319 -0.508247)
(-1.45718e-13 0.815319 -0.508247)
(0 0.675111 -0.419164)
(0 0.675111 -0.419164)
(-3.65195e-14 0.531202 -0.323958)
(1.06444e-13 0.531202 -0.323958)
(0 0.383627 -0.22244)
(-1.85132e-13 0.383627 -0.22244)
(-3.65865e-14 0.232504 -0.114478)
(1.46346e-13 0.232504 -0.114478)
(3.66103e-14 2.23538e-06 -8.27373e-07)
(1.46675e-13 8.24005e-07 -3.04987e-07)
(3.66688e-14 -2.16595e-06 8.01677e-07)
(1.46441e-13 -1.38602e-06 5.13003e-07)
(-3.81946e-14 -0.232503 0.114477)
(2.92692e-13 -0.232503 0.114477)
(-3.6556e-14 -0.383626 0.22244)
(-3.89075e-14 -0.383626 0.22244)
(0 -0.531201 0.323958)
(1.46078e-13 -0.531201 0.323958)
(-4.03736e-14 -0.67511 0.419163)
(3.32191e-13 -0.67511 0.419163)
(-3.64296e-14 -0.815318 0.508246)
(-1.45718e-13 -0.815318 0.508246)
(0 -0.95187 0.591452)
(4.1895e-14 -0.95187 0.591452)
(-3.63198e-14 -1.08488 0.669064)
(-1.45279e-13 -1.08488 0.669064)
(0 -1.21451 0.741396)
(0 -1.21451 0.741396)
(3.61928e-14 -1.34097 0.808777)
(0 -1.34097 0.808777)
(-4.51119e-14 -1.4645 0.87154)
(1.89606e-13 -1.4645 0.87154)
(0 -1.58534 0.930017)
(1.44204e-13 -1.58534 0.930017)
(0 -1.70376 0.984531)
(0 -1.70376 0.984531)
(1.17894e-14 -1.82002 1.03539)
(-1.9127e-13 -1.82002 1.03539)
(7.16289e-14 -1.93436 1.08287)
(0 -1.93436 1.08287)
(-4.94825e-14 -2.04704 1.12726)
(0 -2.04704 1.12726)
(7.12864e-14 -2.15828 1.16879)
(9.21668e-14 -2.15828 1.16879)
(-3.5554e-14 -2.26831 1.20771)
(-1.93563e-13 -2.26831 1.20771)