/*--------------------------------*- C++ -*----------------------------------*\
| =========                 |                                                 |
| \\      /  F ield         | OpenFOAM: The Open Source CFD Toolbox           |
|  \\    /   O peration     | Version:  2106                                  |
|   \\  /    A nd           | Website:  www.openfoam.com                      |
|    \\/     M anipulation  |                                                 |
\*---------------------------------------------------------------------------*/
FoamFile
{
    version     2.0;
    format      ascii;
    arch        "LSB;label=32;scalar=64";
    class       volTensorField;
    location    "10050";
    object      grad(U);
}
// * * * * * * * * * * * * * * * * * * * * * * * * * * * * * * * * * * * * * //

dimensions      [0 0 -1 0 0 0 0];

internalField   nonuniform List<tensor> 
2000
(
(0 -1.93202e-26 -8.82415e-28 13.0036 -8.43045e-12 -3.25135e-15 0.0240671 -7.7971e-15 -1.20341e-17)
(0 -2.306e-29 -5.08147e-32 13.0036 2.46519e-32 1.18199e-17 0.0240671 -5.76482e-30 2.24719e-17)
(0 0 -1.09476e-47 13.0011 8.07794e-28 1.57772e-30 0.0726416 0 0)
(0 -3.19255e-29 -5.6119e-32 13.0011 -6.73159e-16 1.84574e-17 0.0726416 -3.41495e-18 2.90889e-17)
(1.08218e-17 -1.30171e-27 1.56686e-28 12.9987 5.34155e-13 8.66066e-16 0.100771 -2.05155e-15 1.15863e-18)
(-1.37837e-17 9.40214e-30 -4.78217e-35 12.9987 2.53058e-16 1.19058e-17 0.100771 1.68224e-19 3.0298e-17)
(-9.69603e-18 -3.85987e-30 -6.00901e-33 12.9961 4.85332e-13 -1.38884e-14 0.102632 -6.75025e-15 -3.09182e-17)
(3.87841e-17 9.22985e-30 1.8027e-32 12.9961 1.48981e-16 2.3631e-17 0.102632 4.74202e-19 3.16389e-17)
(0 6.04048e-30 4.71912e-32 12.9935 2.10672e-14 -8.30555e-15 0.104526 -7.89962e-16 -4.31746e-17)
(0 -3.02024e-30 -2.35956e-32 12.9935 1.63377e-16 2.61498e-17 0.104526 8.19769e-19 3.30951e-17)
(0 2.37191e-29 5.79081e-32 12.9908 -4.03293e-14 -4.33924e-15 0.106455 -1.86623e-16 -2.7144e-17)
(-9.41596e-17 -2.37191e-29 -5.79081e-32 12.9908 1.54339e-16 2.831e-17 0.106455 1.24719e-18 3.46729e-17)
(5.12031e-17 -5.71842e-28 -3.41081e-32 12.988 -3.9813e-15 -2.29435e-15 0.108419 -1.64653e-17 -1.0658e-17)
(1.22617e-16 8.73169e-30 3.41081e-32 12.988 1.99553e-16 2.93947e-17 0.108419 1.81037e-18 3.63848e-17)
(0 -7.00803e-30 0 12.9852 7.6589e-28 -1.2617e-15 0.110419 3.15544e-30 -1.0603e-17)
(3.03198e-16 9.14877e-34 2.23221e-32 12.9852 2.17705e-16 3.00158e-17 0.110419 1.62289e-18 3.82346e-17)
(-4.5279e-17 3.22368e-30 2.01069e-32 12.9823 7.81768e-16 -1.24025e-15 0.112454 -1.16789e-17 -1.0688e-17)
(0 2.80487e-30 0 12.9823 1.96058e-16 3.24105e-17 0.112454 1.74375e-18 4.02324e-17)
(0 -1.37674e-29 -3.22672e-32 12.9794 -2.51057e-17 -1.23139e-15 0.114527 -2.12199e-18 -1.08461e-17)
(0 1.37674e-29 3.22672e-32 12.9794 2.25112e-16 3.51534e-17 0.114527 2.19684e-18 4.23887e-17)
(9.51039e-17 -2.97332e-29 -1.16145e-31 12.9764 -2.52854e-16 -1.22926e-15 0.116638 -2.38448e-18 -1.10524e-17)
(0 2.97332e-29 1.26704e-31 12.9764 2.4515e-16 3.5831e-17 0.116638 2.16971e-18 4.47099e-17)
(6.82437e-17 1.00424e-29 1.04188e-32 12.9733 -2.07568e-16 -1.231e-15 0.118786 -1.37254e-18 -1.12866e-17)
(2.72975e-16 -7.95852e-30 0 12.9733 1.98955e-16 3.59098e-17 0.118786 1.43359e-18 4.71974e-17)
(0 0 0 12.9701 -1.71499e-16 -1.23476e-15 0.120974 -1.80142e-18 -1.15391e-17)
(0 0 0 12.9701 1.36839e-16 3.7341e-17 0.120974 1.0926e-18 4.9865e-17)
(-1.74239e-16 2.87962e-29 9.10494e-32 12.9669 -2.25129e-16 -1.23986e-15 0.123201 -2.44349e-18 -1.18087e-17)
(0 -2.0457e-29 -5.99326e-32 12.9669 1.88453e-16 4.03839e-17 0.123201 2.46851e-18 5.27251e-17)
(-1.80824e-16 1.3266e-29 5.07997e-32 12.9635 -2.6332e-16 -1.24538e-15 0.125468 -2.60866e-18 -1.20808e-17)
(0 -5.02053e-30 0 12.9635 1.96226e-16 4.39765e-17 0.125468 1.28427e-18 5.57925e-17)
(2.74295e-16 -1.30817e-29 -5.05341e-32 12.9601 -3.98108e-16 -1.25101e-15 0.127776 -5.1937e-18 -1.23648e-17)
(-5.76958e-16 8.66105e-30 1.92521e-32 12.9601 7.42358e-17 4.54551e-17 0.127776 3.62615e-19 5.9069e-17)
(0 0 -1.88993e-32 12.9567 -5.88892e-16 -1.25688e-15 0.130126 -6.53963e-18 -1.2654e-17)
(0 0 1.88993e-32 12.9567 1.64673e-16 4.49663e-17 0.130126 2.93873e-18 6.25596e-17)
(4.0336e-16 -2.54481e-29 -1.55846e-31 12.9531 -5.53433e-16 -1.26251e-15 0.132518 -4.66377e-18 -1.29459e-17)
(4.725e-16 1.90019e-29 1.11318e-31 12.9531 2.58549e-16 4.71192e-17 0.132518 2.29737e-18 6.62659e-17)
(-1.26982e-16 7.88762e-30 3.17068e-32 12.9495 -4.3552e-16 -1.26736e-15 0.134953 -4.32804e-18 -1.32318e-17)
(0 0 0 12.9495 1.7143e-16 5.17098e-17 0.134953 1.23338e-18 7.0208e-17)
(1.36003e-16 -1.23792e-29 -3.18943e-32 12.9457 -4.62013e-16 -1.27209e-15 0.137432 -5.40211e-18 -1.35343e-17)
(5.44011e-16 1.37353e-29 5.36377e-32 12.9457 1.93557e-16 5.07938e-17 0.137432 2.85382e-18 7.43923e-17)
(-1.45189e-16 3.22544e-30 1.45565e-32 12.9419 -4.1086e-16 -1.2771e-15 0.139956 -3.3846e-18 -1.38388e-17)
(1.16151e-15 1.1086e-32 0 12.9419 1.92409e-16 4.7779e-17 0.139956 1.25502e-18 7.88117e-17)
(0 8.82175e-30 5.169e-32 12.938 -2.97469e-16 -1.28108e-15 0.142525 -3.10706e-18 -1.4132e-17)
(6.18175e-16 -4.4042e-30 -1.723e-32 12.938 5.76163e-17 5.11971e-17 0.142525 3.14464e-19 8.34829e-17)
(1.5235e-16 -8.6601e-30 -5.07428e-32 12.934 -4.38243e-16 -1.2852e-15 0.145139 -6.67205e-18 -1.44527e-17)
(6.56282e-16 8.66429e-30 6.7657e-32 12.934 2.53088e-16 5.8865e-17 0.145139 5.36066e-18 8.84513e-17)
(-2.99117e-16 1.27521e-29 4.98129e-32 12.9298 -5.24574e-16 -1.28963e-15 0.147801 -5.19816e-18 -1.47658e-17)
(6.95088e-16 -8.49541e-30 -1.66043e-32 12.9298 3.90539e-16 6.20167e-17 0.147801 3.46921e-18 9.37185e-17)
(-1.83652e-16 -5.11998e-30 -1.56803e-32 12.9256 -3.68515e-16 -1.29291e-15 0.15051 -3.28845e-18 -1.50737e-17)
(0 1.25184e-29 6.52001e-32 12.9256 2.21717e-16 6.10483e-17 0.15051 1.63038e-18 9.92632e-17)
(0 -2.04817e-29 -1.44012e-31 12.9212 -3.16029e-16 -1.29581e-15 0.153267 -4.1487e-18 -1.53911e-17)
(7.74852e-16 2.04876e-29 1.44012e-31 12.9212 2.54912e-16 6.48272e-17 0.153267 4.38757e-18 1.05109e-16)
(3.61986e-16 -8.83821e-30 -2.89012e-32 12.9167 -3.49862e-16 -1.29806e-15 0.156072 -4.23009e-18 -1.56961e-17)
(-2.82972e-16 1.20638e-29 6.28325e-32 12.9167 2.81257e-16 6.91923e-17 0.156072 2.32857e-18 1.1129e-16)
(-2.14392e-16 3.2255e-30 1.89059e-32 12.9121 -3.97812e-16 -1.29932e-15 0.158928 -5.48563e-18 -1.60021e-17)
(0 3.94759e-30 3.08406e-32 12.9121 2.48889e-16 7.39045e-17 0.158928 3.75596e-18 1.17806e-16)
(0 -6.43401e-31 6.05508e-32 12.9073 -1.61718e-16 -1.3014e-15 0.161833 -1.00464e-18 -1.63397e-17)
(-2.72697e-16 0 -3.02754e-32 12.9073 0 7.72685e-17 0.161833 0 1.24666e-16)
(-7.71235e-16 0 1.98642e-31 12.9023 6.98607e-43 -1.30252e-15 0.16479 0 -1.66335e-17)
(-9.43344e-16 -3.04441e-29 -1.48603e-31 12.9023 4.09277e-17 7.48838e-17 0.16479 1.14793e-18 1.31823e-16)
(2.46853e-16 -3.22565e-30 -2.10444e-32 12.8972 4.37718e-17 -1.30321e-15 0.167798 -3.79832e-18 -1.69735e-17)
(9.87412e-16 7.5463e-33 0 12.8972 2.78767e-16 7.27735e-17 0.167798 6.08586e-18 1.3929e-16)
(-2.57978e-16 1.09983e-29 2.86414e-32 12.8918 -3.04777e-16 -1.30627e-15 0.170858 -5.29926e-18 -1.73413e-17)
(0 -1.4013e-45 0 12.8918 -4.43734e-31 6.65419e-17 0.170858 0 1.47084e-16)
(-2.69495e-16 1.04238e-29 1.35013e-31 12.8863 -3.46129e-16 -1.30925e-15 0.17397 -3.94966e-18 -1.76937e-17)
(0 -7.19783e-30 -1.12466e-31 12.8863 -1.55647e-16 5.61787e-17 0.17397 1.66546e-18 1.55183e-16)
(-2.81128e-16 3.0356e-30 -3.18718e-32 12.8804 -1.81937e-16 -1.31175e-15 0.177136 -1.23974e-18 -1.80635e-17)
(0 3.53297e-30 8.28039e-32 12.8804 -2.84256e-16 4.98112e-17 0.177136 2.50699e-18 1.63625e-16)
(0 -6.45349e-30 -1.08382e-31 12.8743 4.64859e-28 -1.31515e-15 0.180355 -3.15544e-30 -1.84557e-17)
(1.17189e-15 2.08194e-29 1.08382e-31 12.8743 -4.26323e-16 5.25218e-17 0.180355 5.26638e-18 1.72437e-16)
(0 1.0214e-29 7.9797e-32 12.8679 -6.10871e-17 -1.31859e-15 0.183628 -3.12048e-18 -1.88424e-17)
(0 -6.80934e-30 -5.3198e-32 12.8679 -1.94259e-16 5.06662e-17 0.183628 6.5828e-18 1.81719e-16)
(3.17313e-16 1.16713e-31 -2.583e-32 12.8612 -3.14833e-16 -1.32247e-15 0.186954 -5.97679e-18 -1.92641e-17)
(1.26925e-15 -3.33325e-30 0 12.8612 2.65507e-16 4.17496e-17 0.186954 6.53936e-18 1.91349e-16)
(-3.29816e-16 -1.76606e-29 -1.52717e-31 12.854 -1.88815e-16 -1.32756e-15 0.190335 -1.3854e-18 -1.9703e-17)
(1.31926e-15 3.5579e-29 2.05065e-31 12.854 5.00432e-17 4.0657e-17 0.190335 3.67184e-19 2.01349e-16)
(-3.42547e-16 -4.2039e-45 -9.81814e-32 12.8464 1.61326e-30 -1.33212e-15 0.19377 -3.15544e-30 -2.01277e-17)
(0 2.89882e-29 1.76144e-31 12.8464 -1.58071e-16 3.96022e-17 0.19377 2.45617e-18 2.11774e-16)
(0 1.89713e-29 1.48214e-31 12.8383 2.18489e-16 -1.33583e-15 0.197258 -4.63283e-18 -2.05597e-17)
(1.42203e-15 -1.8964e-29 -1.48214e-31 12.8383 -3.35045e-16 4.3078e-17 0.197258 1.38173e-17 2.22626e-16)
(-1.61109e-15 9.55561e-30 1.31937e-31 12.8297 4.56295e-17 -1.3388e-15 0.2008 -1.99695e-18 -2.09788e-17)
(1.47482e-15 0 -2.42496e-32 12.8297 -3.85264e-16 4.97935e-17 0.2008 2.81252e-17 2.33996e-16)
(8.57674e-16 -9.14121e-30 -9.52209e-32 12.8204 -6.58319e-16 -1.34393e-15 0.204395 -2.03823e-17 -2.14983e-17)
(0 9.14121e-30 9.52209e-32 12.8204 -2.99142e-16 4.56637e-17 0.204395 2.57894e-17 2.4581e-16)
(0 -5.8695e-30 -7.0107e-32 12.8103 0 -1.34781e-15 0.208041 0 -2.18954e-17)
(0 5.98247e-30 9.3476e-32 12.8103 -4.37663e-16 3.87724e-17 0.208041 2.63082e-17 2.58024e-16)
(-1.23627e-15 1.2033e-29 1.70383e-31 12.7995 5.85721e-16 -1.34566e-15 0.211738 -1.52325e-17 -2.22371e-17)
(-1.63895e-15 -5.87284e-30 -4.58816e-32 12.7995 -5.052e-16 3.7013e-17 0.211738 2.55179e-17 2.70629e-16)
(4.2391e-16 -3.42646e-31 1.01307e-31 12.7877 1.56438e-16 -1.3439e-15 0.215484 -3.87045e-18 -2.26611e-17)
(1.69564e-15 0 -9.00816e-32 12.7877 -2.47428e-16 3.46217e-17 0.215484 2.69923e-17 2.83634e-16)
(4.38336e-16 2.50722e-29 1.8618e-31 12.7749 4.43261e-17 -1.34462e-15 0.219277 -1.33206e-18 -2.30999e-17)
(-1.75334e-15 -2.82979e-29 -2.21077e-31 12.7749 -5.73803e-16 2.46929e-17 0.219277 2.9728e-17 2.96954e-16)
(-4.53019e-16 -7.89491e-30 -7.41772e-33 12.7609 1.91031e-17 -1.34619e-15 0.223114 -1.65551e-19 -2.35698e-17)
(1.81208e-15 5.55587e-30 8.68104e-32 12.7609 -1.0407e-15 2.39968e-17 0.223114 2.51049e-17 3.10535e-16)
(0 -2.18162e-29 -2.13049e-31 12.7456 6.42746e-16 -1.34499e-15 0.226994 -6.57946e-18 -2.39276e-17)
(3.7437e-15 2.45433e-29 2.13049e-31 12.7456 -1.3165e-15 4.3064e-17 0.226994 2.20344e-17 3.24572e-16)
(4.83169e-16 -2.73166e-29 -3.31017e-31 12.7288 6.52811e-16 -1.34219e-15 0.230912 -1.62061e-17 -2.43565e-17)
(1.93268e-15 2.40935e-29 2.50974e-31 12.7288 -1.21726e-15 5.32832e-17 0.230912 1.74255e-17 3.3913e-16)
(-4.98643e-16 1.6364e-29 1.21457e-31 12.7104 1.8244e-16 -1.34056e-15 0.234864 -7.19282e-18 -2.47687e-17)
(-1.99457e-15 -7.884e-30 -4.10625e-32 12.7104 -5.15701e-16 2.035e-17 0.234864 1.47147e-17 3.54118e-16)
(7.26161e-16 -3.22496e-30 -1.2093e-31 12.69 3.44007e-28 -1.34172e-15 0.238847 3.15544e-30 -2.5318e-17)
(-7.26161e-16 1.03194e-29 1.2093e-31 12.69 -4.49931e-16 4.18447e-18 0.238847 1.46222e-17 3.69173e-16)
(-1.24326e-15 2.34836e-29 2.39494e-31 12.6676 8.48905e-16 -1.34185e-15 0.242854 -1.15005e-17 -2.57072e-17)
(0 -1.01303e-29 -7.91427e-32 12.6676 -1.15129e-15 2.3737e-17 0.242854 1.53611e-17 3.84704e-16)
(0 -9.94464e-30 -1.16539e-31 12.6428 1.11519e-15 -1.3413e-15 0.246879 -2.08642e-17 -2.62504e-17)
(0 9.94464e-30 1.16539e-31 12.6428 -1.79286e-15 3.06916e-17 0.246879 9.39357e-18 4.00743e-16)
(0 9.7624e-30 2.28806e-31 12.6155 1.11738e-15 -1.34402e-15 0.250915 -2.23441e-17 -2.67842e-17)
(-2.25307e-15 -1.95248e-29 -3.05075e-31 12.6155 -1.74073e-15 2.20708e-17 0.250915 -2.02294e-18 4.17296e-16)
(-9.42613e-17 6.36375e-30 1.41855e-31 12.5852 1.15268e-15 -1.34428e-15 0.254955 -2.17376e-17 -2.72502e-17)
(-6.7438e-16 0 -7.48712e-32 12.5852 -1.10209e-15 5.8643e-18 0.254955 -4.52172e-18 4.34098e-16)
(-5.97249e-16 -1.48547e-30 -2.68896e-32 12.5518 1.06967e-15 -1.34149e-15 0.25899 -2.46184e-17 -2.76784e-17)
(0 4.70395e-30 1.10249e-31 12.5518 -8.15655e-16 -4.95071e-18 0.25899 -9.54851e-18 4.51085e-16)
(-5.79435e-16 -2.79835e-30 -1.20634e-31 12.515 1.24703e-15 -1.33626e-15 0.26301 -1.91263e-17 -2.80567e-17)
(2.45865e-15 0 1.08229e-31 12.515 -1.09216e-15 6.53785e-20 0.26301 -1.51381e-17 4.68158e-16)
(-6.32358e-16 7.74853e-30 4.92315e-32 12.4743 1.79032e-15 -1.32523e-15 0.267004 -3.3012e-17 -2.82485e-17)
(0 -4.53313e-30 0 12.4743 -1.81935e-15 6.73767e-18 0.267004 -1.81035e-17 4.85541e-16)
(-1.30067e-15 2.4226e-29 3.44441e-31 12.4294 1.83092e-15 -1.31341e-15 0.27096 -4.31446e-17 -2.85976e-17)
(-2.60135e-15 -1.78003e-29 -2.43363e-31 12.4294 -2.2417e-15 -3.51003e-18 0.27096 -2.60517e-17 5.03173e-16)
(6.68596e-16 5.524e-30 1.52913e-31 12.38 2.03213e-15 -1.30616e-15 0.274866 -3.60294e-17 -2.899e-17)
(-2.67438e-15 -1.74741e-29 -2.73032e-31 12.38 -2.02195e-15 -3.16511e-17 0.274866 -3.6274e-17 5.209e-16)
(-6.03548e-16 1.28654e-29 1.34015e-31 12.3257 2.60386e-15 -1.29091e-15 0.278709 -5.37239e-17 -2.89843e-17)
(0 -8.57693e-30 -6.70073e-32 12.3257 -2.17652e-15 -4.28862e-17 0.278709 -4.68922e-17 5.38187e-16)
(-1.4119e-15 -1.04292e-29 -2.2483e-32 12.2661 2.45746e-15 -1.26819e-15 0.282473 -6.33029e-17 -2.90329e-17)
(5.64762e-15 1.26296e-29 6.57794e-32 12.2661 -2.54443e-15 -6.59444e-18 0.282473 -5.93346e-17 5.55294e-16)
(-7.25044e-16 1.97366e-29 3.14088e-31 12.2009 2.28392e-15 -1.24763e-15 0.286143 -4.89884e-17 -2.91098e-17)
(2.90017e-15 -1.65309e-29 -2.58296e-31 12.2009 -3.14875e-15 -5.93021e-18 0.286143 -7.33272e-17 5.72657e-16)
(0 -4.057e-30 -1.26781e-31 12.1296 2.22756e-15 -1.22481e-15 0.289705 -5.75253e-17 -2.90333e-17)
(0 4.057e-30 1.26781e-31 12.1296 -3.63449e-15 -2.84514e-17 0.289705 -9.19017e-17 5.89425e-16)
(-1.88505e-15 3.20293e-30 1.20397e-31 12.0521 2.05086e-15 -1.20651e-15 0.29314 -4.81339e-17 -2.93133e-17)
(3.05612e-15 3.98266e-30 6.22291e-32 12.0521 -3.06543e-15 -3.46424e-17 0.29314 -1.08664e-16 6.05859e-16)
(0 1.1729e-29 6.10888e-32 11.9678 2.80457e-15 -1.19047e-15 0.296433 -5.10686e-17 -2.93299e-17)
(0 -7.81936e-30 0 11.9678 -2.70312e-15 -5.44896e-17 0.296433 -1.18108e-16 6.21968e-16)
(-8.04048e-16 1.85459e-29 1.20506e-31 11.8766 3.52481e-15 -1.16339e-15 0.299567 -8.74221e-17 -2.90467e-17)
(0 -1.15141e-29 0 11.8766 -3.24751e-15 -6.21103e-17 0.299567 -1.31913e-16 6.37274e-16)
(0 1.13031e-29 5.88704e-32 11.7782 3.50573e-15 -1.13296e-15 0.302525 -8.94721e-17 -2.8865e-17)
(0 -7.53541e-30 0 11.7782 -3.71398e-15 -3.94011e-17 0.302525 -1.53655e-16 6.52064e-16)
(1.04108e-15 -2.2192e-29 -4.04541e-31 11.6724 3.80873e-15 -1.10643e-15 0.305292 -8.97322e-17 -2.87467e-17)
(2.33905e-15 2.2192e-29 4.04541e-31 11.6724 -3.94027e-15 -2.29471e-17 0.305292 -1.77572e-16 6.669e-16)
(-1.022e-15 2.17853e-29 3.97128e-31 11.559 3.75931e-15 -1.07309e-15 0.307853 -1.08768e-16 -2.81678e-17)
(1.022e-15 -2.17853e-29 -3.97128e-31 11.559 -4.16311e-15 -3.62236e-17 0.307853 -1.96481e-16 6.8126e-16)
(-8.86897e-16 3.18204e-30 1.20624e-31 11.4379 3.26647e-15 -1.04157e-15 0.310192 -9.04676e-17 -2.81107e-17)
(3.54759e-15 7.1287e-30 0 11.4379 -3.45661e-15 -4.54182e-17 0.310192 -2.22777e-16 6.94696e-16)
(0 -2.79923e-29 -3.82707e-31 11.309 3.31323e-15 -1.01079e-15 0.312297 -8.59883e-17 -2.75192e-17)
(3.63252e-15 2.79923e-29 3.82707e-31 11.309 -3.04929e-15 -5.04634e-17 0.312297 -2.48542e-16 7.07084e-16)
(-9.29541e-16 2.37855e-29 4.42517e-31 11.1726 3.67024e-15 -9.76246e-16 0.314157 -9.64743e-17 -2.72153e-17)
(-3.71816e-15 -2.06095e-29 -3.75694e-31 11.1726 -4.36389e-15 -6.22888e-17 0.314157 -2.68303e-16 7.18587e-16)
(9.49126e-16 -1.01159e-29 -2.63435e-31 11.0285 4.28162e-15 -9.4469e-16 0.315762 -1.09433e-16 -2.6737e-17)
(-3.80447e-15 1.01159e-29 3.16123e-31 11.0285 -4.80276e-15 -5.35673e-17 0.315762 -3.09044e-16 7.29117e-16)
(-1.94568e-15 6.33052e-30 2.40687e-31 10.8771 4.55127e-15 -9.08293e-16 0.317104 -1.35355e-16 -2.61035e-17)
(3.89137e-15 0 -1.03443e-31 10.8771 -4.66214e-15 -2.67014e-17 0.317104 -3.422e-16 7.38947e-16)
(-1.98939e-15 3.07751e-30 1.89801e-31 10.7186 4.10516e-15 -8.7072e-16 0.318178 -1.29392e-16 -2.54968e-17)
(0 3.24953e-30 -5.07738e-32 10.7186 -4.80335e-15 -1.92843e-18 0.318178 -3.75849e-16 7.48438e-16)
(8.97899e-16 -6.37996e-30 -2.99061e-31 10.5534 5.31399e-15 -8.35375e-16 0.318981 -1.13769e-16 -2.49332e-17)
(3.16875e-15 6.37996e-30 2.99061e-31 10.5534 -4.82289e-15 -2.58674e-17 0.318981 -3.96375e-16 7.57068e-16)
(-1.92017e-15 3.13277e-29 4.62449e-31 10.3817 7.42537e-15 -7.97174e-16 0.319513 -2.07931e-16 -2.40862e-17)
(-4.15489e-15 -2.19207e-29 -2.9358e-31 10.3817 -5.41163e-15 -3.77809e-17 0.319513 -4.37623e-16 7.6374e-16)
(1.06086e-15 -1.23541e-29 -4.55892e-31 10.2041 5.79055e-15 -7.69059e-16 0.319773 -2.49121e-16 -2.40949e-17)
(0 9.22242e-30 3.84267e-31 10.2041 -5.21539e-15 -4.01532e-17 0.319773 -4.9501e-16 7.70322e-16)
(2.78192e-15 -9.1839e-30 -3.5521e-31 10.0212 4.41044e-15 -7.52229e-16 0.319767 -1.12389e-16 -2.39097e-17)
(-6.03106e-15 6.03561e-30 2.82919e-31 10.0212 -5.27929e-15 -7.25463e-17 0.319767 -5.21875e-16 7.75286e-16)
(-2.21054e-15 1.21958e-29 4.23651e-31 9.83336 5.20136e-15 -7.22202e-16 0.319499 -1.69609e-16 -2.30326e-17)
(0 -2.96251e-30 -1.85157e-31 9.83336 -5.69407e-15 -4.25192e-17 0.319499 -5.68103e-16 7.7832e-16)
(-1.63718e-15 1.16329e-29 2.72646e-31 9.64129 5.65309e-15 -6.94704e-16 0.318978 -1.68522e-16 -2.29727e-17)
(1.63718e-15 -1.74493e-29 -3.63527e-31 9.64129 -6.22609e-15 -1.18613e-17 0.318978 -6.10012e-16 7.81201e-16)
(-4.57428e-16 -3.12188e-30 1.5268e-32 9.44559 6.34728e-15 -6.75459e-16 0.318213 -2.06195e-16 -2.25902e-17)
(-9.19803e-15 0 -8.92165e-32 9.44559 -6.88281e-15 -6.2578e-17 0.318213 -6.59917e-16 7.83159e-16)
(1.17197e-15 -8.71846e-30 -2.49775e-31 9.24689 6.18935e-15 -6.47032e-16 0.317216 -2.22139e-16 -2.18666e-17)
(0 5.60522e-30 1.75163e-31 9.24689 -5.65339e-15 -1.00461e-16 0.317216 -7.13312e-16 7.83597e-16)
(0 -1.92588e-29 -3.43907e-31 9.04582 5.37611e-15 -6.16268e-16 0.315998 -2.0301e-16 -2.12678e-17)
(4.77661e-15 1.92588e-29 3.43907e-31 9.04582 -4.03652e-15 -1.11622e-16 0.315998 -7.49045e-16 7.83022e-16)
(2.73671e-15 -1.12088e-29 -1.60125e-31 8.84303 4.28858e-15 -5.8394e-16 0.314573 -1.7305e-16 -2.03638e-17)
(4.86511e-15 8.10252e-30 8.44012e-32 8.84303 -4.43698e-15 -1.53003e-16 0.314573 -7.73623e-16 7.79711e-16)
(5.08492e-16 -1.50004e-29 -4.28254e-31 8.63914 3.74926e-15 -5.58982e-16 0.312956 -1.32386e-16 -2.02393e-17)
(0 1.85594e-29 4.97128e-31 8.63914 -5.69594e-15 -1.70608e-16 0.312956 -8.20411e-16 7.73151e-16)
(-1.05536e-15 -1.20203e-29 -4.17275e-31 8.43474 5.03508e-15 -5.42245e-16 0.311161 -1.4003e-16 -1.98811e-17)
(5.04118e-15 1.82193e-29 5.69354e-31 8.43474 -5.33297e-15 -1.58588e-16 0.311161 -8.59273e-16 7.65246e-16)
(1.28216e-15 -1.84103e-29 -6.35136e-31 8.23042 6.75928e-15 -5.23637e-16 0.309204 -2.33408e-16 -1.95863e-17)
(1.02573e-14 1.53304e-29 5.58921e-31 8.23042 -5.3462e-15 -9.18631e-17 0.309204 -8.79038e-16 7.55904e-16)
(-1.3039e-15 3.06562e-30 -2.028e-33 8.02671 7.12037e-15 -5.0857e-16 0.307099 -2.76484e-16 -1.94626e-17)
(0 5.01649e-30 2.35148e-31 8.02671 -6.54844e-15 -6.48526e-17 0.307099 -9.34229e-16 7.46941e-16)
(-2.65105e-15 6.11784e-30 1.53188e-31 7.82414 7.2665e-15 -4.90904e-16 0.304862 -2.70188e-16 -1.89297e-17)
(5.3021e-15 0 0 7.82414 -6.45744e-15 -5.919e-17 0.304862 -1.00318e-15 7.36191e-16)
(-1.34701e-15 7.87873e-30 7.68087e-32 7.62316 7.51873e-15 -4.77357e-16 0.302508 -2.98438e-16 -1.91065e-17)
(5.38802e-15 0 1.51073e-31 7.62316 -5.77641e-15 -2.6107e-17 0.302508 -1.05744e-15 7.26322e-16)
(-1.33581e-15 9.49148e-30 2.96609e-31 7.4242 7.31418e-15 -4.80829e-16 0.300051 -3.00654e-16 -1.99274e-17)
(-2.67161e-15 -9.49148e-30 -7.41522e-32 7.4242 -5.40216e-15 -1.09611e-16 0.300051 -1.11819e-15 7.15652e-16)
(2.70084e-15 -7.68666e-30 -3.68287e-31 7.22766 7.55087e-15 -4.98011e-16 0.297505 -2.92927e-16 -2.12603e-17)
(4.24671e-15 4.65877e-30 2.91173e-31 7.22766 -5.67451e-15 -1.32022e-16 0.297505 -1.17334e-15 7.01749e-16)
(3.98512e-15 -1.67322e-29 -5.06369e-31 7.03386 7.41909e-15 -5.16015e-16 0.294884 -3.31736e-16 -2.22089e-17)
(3.06747e-15 1.37202e-29 4.28757e-31 7.03386 -5.94031e-15 -6.49897e-17 0.294884 -1.2026e-15 6.89064e-16)
(-1.43135e-15 3.00868e-30 7.82209e-32 6.84313 6.49858e-15 -5.30658e-16 0.292199 -2.92762e-16 -2.33294e-17)
(5.72541e-15 4.4896e-30 7.015e-32 6.84313 -5.76456e-15 -7.85443e-17 0.292199 -1.23801e-15 6.76276e-16)
(1.45201e-15 -7.41237e-30 -3.54258e-31 6.65571 6.91512e-15 -5.45186e-16 0.289463 -2.64524e-16 -2.43273e-17)
(0 4.40733e-30 2.75458e-31 6.65571 -5.61178e-15 -9.79133e-17 0.289463 -1.31968e-15 6.61088e-16)
(-1.47248e-15 1.59639e-29 4.17531e-31 6.47184 8.6151e-15 -5.45863e-16 0.286687 -3.40538e-16 -2.42693e-17)
(5.88991e-15 -8.65313e-30 -2.02808e-31 6.47184 -5.97722e-15 -9.05711e-17 0.286687 -1.38037e-15 6.44872e-16)
(1.49276e-15 -1.57008e-29 -2.79348e-31 6.29169 9.56316e-15 -5.3107e-16 0.28388 -4.27251e-16 -2.389e-17)
(0 1.27418e-29 1.99091e-31 6.29169 -7.71407e-15 -4.77984e-17 0.28388 -1.4352e-15 6.27388e-16)
(-1.51285e-15 1.12811e-29 3.41907e-31 6.11541 1.08295e-14 -5.01908e-16 0.281053 -4.40151e-16 -2.24646e-17)
(6.0514e-15 -4.16945e-30 -1.30295e-31 6.11541 -8.90112e-15 2.84911e-17 0.281053 -1.54798e-15 6.1217e-16)
(1.53275e-15 1.18665e-30 4.58595e-32 5.94314 1.10703e-14 -4.66945e-16 0.278214 -5.61434e-16 -2.14692e-17)
(6.13099e-15 0 0 5.94314 -6.51556e-15 6.82113e-17 0.278214 -1.6536e-15 5.9818e-16)
(0 4.01804e-30 2.51128e-31 5.77495 7.95846e-15 -4.76314e-16 0.27537 -4.79603e-16 -2.42176e-17)
(3.94783e-15 0 -1.25564e-31 5.77495 -4.23149e-15 -1.57985e-16 0.27537 -1.70538e-15 5.84035e-16)
(0 7.88883e-30 3.69789e-31 5.61091 6.11027e-15 -5.33063e-16 0.272529 -2.81495e-16 -2.78717e-17)
(-6.28779e-15 -7.88883e-30 -2.46526e-31 5.61091 -4.78437e-15 -3.12385e-16 0.272529 -1.7928e-15 5.59702e-16)
(0 1.54885e-29 3.63013e-31 5.45105 6.85654e-15 -5.72312e-16 0.269696 -3.15509e-16 -2.90709e-17)
(6.36501e-15 -1.54885e-29 -3.63013e-31 5.45105 -4.83364e-15 -2.41572e-16 0.269696 -1.86496e-15 5.35464e-16)
(5.29516e-16 -1.99226e-29 -6.2974e-31 5.29541 7.01354e-15 -6.00706e-16 0.266879 -3.67032e-16 -3.18261e-17)
(0 2.66082e-29 5.93934e-31 5.29541 -4.8464e-15 -2.08171e-16 0.266879 -1.91099e-15 5.07195e-16)
(-1.62926e-15 2.87904e-30 -3.29434e-32 5.14397 5.81821e-15 -6.22203e-16 0.264081 -3.43455e-16 -3.24061e-17)
(6.51705e-15 3.73152e-30 2.3322e-31 5.14397 -5.08205e-15 -1.14769e-16 0.264081 -1.99053e-15 4.76713e-16)
(0 -3.66314e-30 -3.4342e-31 4.99672 5.675e-15 -6.3535e-16 0.261307 -2.56323e-16 -3.44207e-17)
(0 3.66314e-30 3.4342e-31 4.99672 -5.65732e-15 -1.44424e-17 0.261307 -2.05608e-15 4.4768e-16)
(-2.02438e-15 3.59602e-30 3.37127e-31 4.85362 7.16237e-15 -6.35939e-16 0.258561 -3.41198e-16 -3.36909e-17)
(0 0 -2.24751e-31 4.85362 -5.54937e-15 -4.96404e-18 0.258561 -2.13598e-15 4.2067e-16)
(1.6848e-15 -2.04914e-29 -8.58198e-31 4.71464 8.17355e-15 -6.33308e-16 0.255847 -4.26787e-16 -3.5428e-17)
(6.73921e-15 1.41205e-29 6.61898e-31 4.71464 -4.66321e-15 1.55374e-17 0.255847 -2.19279e-15 3.91728e-16)
(-2.47937e-16 7.57423e-30 3.46116e-31 4.5797 8.3471e-15 -6.23257e-16 0.253167 -4.65419e-16 -3.38327e-17)
(6.81171e-15 -3.46543e-30 -1.08295e-31 4.5797 -5.20556e-15 5.2723e-17 0.253167 -2.28007e-15 3.65308e-16)
(0 -3.40193e-30 0 4.44876 7.36653e-15 -5.98791e-16 0.250523 -4.6234e-16 -3.3967e-17)
(6.88345e-15 3.40193e-30 2.12621e-31 4.44876 -6.1473e-15 3.61575e-17 0.250523 -2.37414e-15 3.38239e-16)
(-3.47721e-15 5.61861e-30 -9.36209e-32 4.32173 7.09131e-15 -2.46735e-15 0.247918 -3.70895e-16 -2.52638e-16)
(6.95443e-15 0 2.08724e-31 4.32173 -5.93652e-15 5.74038e-17 0.247918 -2.44827e-15 3.12245e-16)
(1.75617e-15 -1.91738e-29 -6.69626e-31 4.19854 7.86512e-15 -4.93359e-15 0.245354 -4.47722e-16 -3.27715e-16)
(7.02466e-15 1.6392e-29 6.14699e-31 4.19854 -6.00488e-15 4.62544e-17 0.245354 -2.51843e-15 2.87264e-16)
(0 1.28733e-29 5.02862e-31 4.0791 7.85404e-15 -5.68539e-15 0.242832 -4.76636e-16 -3.52978e-16)
(-7.09416e-15 -1.28733e-29 -5.02862e-31 4.0791 -7.07322e-15 -1.41954e-17 0.242832 -2.62186e-15 2.62256e-16)
(0 3.15934e-30 1.97459e-31 3.96332 8.08132e-15 -5.92389e-15 0.240352 -4.63255e-16 -3.69412e-16)
(0 0 -1.97459e-31 3.96332 -7.19311e-15 -9.78547e-17 0.240352 -2.75024e-15 2.34452e-16)
(-3.6155e-15 2.4049e-29 9.50051e-31 3.85112 8.69727e-15 -5.60713e-15 0.237917 -5.22565e-16 -3.26572e-16)
(0 -1.86087e-29 -7.75363e-31 3.85112 -6.9783e-15 -2.0276e-17 0.237917 -2.85997e-15 2.01878e-16)
(-1.82459e-15 1.1828e-29 6.6527e-31 3.7424 9.92756e-15 -5.28089e-15 0.235526 -5.57923e-16 -3.41673e-16)
(0 -3.04462e-30 -3.80577e-31 3.7424 -8.02077e-15 3.65956e-17 0.235526 -2.94311e-15 1.73337e-16)
(-1.68256e-15 1.49441e-29 1.49441e-30 3.63707 1.09955e-14 -5.3546e-15 0.233181 -6.99359e-16 -3.48465e-16)
(-7.36504e-15 -1.19553e-29 -1.30761e-30 3.63707 -8.82198e-15 5.63676e-17 0.233181 -3.07691e-15 1.44873e-16)
(3.71552e-15 -2.33983e-30 3.36215e-31 3.53503 1.03566e-14 -5.73139e-15 0.23088 -7.1786e-16 -4.04476e-16)
(0 -2.93406e-30 -5.50136e-31 3.53503 -6.94875e-15 2.80617e-17 0.23088 -3.22824e-15 1.27982e-16)
(5.05266e-16 1.20253e-29 6.50688e-31 3.43618 9.19574e-15 -5.81368e-15 0.228625 -6.41052e-16 -3.72704e-16)
(7.49637e-15 -1.72817e-29 -9.00091e-31 3.43618 -5.21008e-15 -1.66916e-17 0.228625 -3.32084e-15 1.06514e-16)
(-1.89026e-15 2.61135e-30 1.38243e-31 3.34043 8.83731e-15 -5.41022e-15 0.226415 -5.88221e-16 -3.64241e-16)
(7.56105e-15 2.82751e-30 1.76719e-31 3.34043 -6.43716e-15 5.21016e-17 0.226415 -3.42823e-15 8.99837e-17)
(3.81255e-15 -5.16486e-30 5.58304e-32 3.24769 7.16835e-15 -5.42925e-15 0.22425 -6.15924e-16 -3.89414e-16)
(-3.12516e-15 0 -3.46962e-31 3.24769 -6.1728e-15 -2.96649e-18 0.22425 -3.59549e-15 7.045e-17)
(1.92213e-15 -5.32258e-30 -4.94284e-31 3.15787 3.85669e-15 -5.69269e-15 0.22213 -3.76622e-16 -4.15554e-16)
(7.68852e-15 2.72483e-30 3.40604e-31 3.15787 -4.73815e-15 -1.24485e-16 0.22213 -3.71842e-15 4.9308e-17)
(-1.93783e-15 8.88356e-30 1.50155e-30 3.07086 4.6284e-15 -5.86043e-15 0.220055 -1.66622e-16 -4.28468e-16)
(0 -2.6749e-30 -1.00309e-30 3.07086 -4.29847e-15 -1.50158e-17 0.220055 -3.81961e-15 2.51113e-17)
(-2.95648e-15 -2.62588e-30 -3.28236e-31 2.98659 7.71427e-15 -5.96464e-15 0.218024 -5.36132e-16 -4.46642e-16)
(1.56271e-14 7.87765e-30 9.84707e-31 2.98659 -3.37979e-15 6.28974e-17 0.218024 -3.87915e-15 1.42525e-17)
(-1.96879e-15 -7.78534e-30 -1.4278e-30 2.90496 6.41675e-15 -6.19631e-15 0.216035 -5.96013e-16 -4.79555e-16)
(-2.90231e-15 1.03111e-29 1.6111e-30 2.90496 -2.76252e-15 -4.27614e-17 0.216035 -3.9378e-15 -2.75935e-18)
(0 -7.59159e-30 -1.58158e-30 2.82589 4.9391e-15 -6.53652e-15 0.21409 -3.60642e-16 -5.1574e-16)
(1.58724e-14 7.59159e-30 1.8979e-30 2.82589 -1.90702e-15 -1.17624e-16 0.21409 -3.99077e-15 -1.80587e-17)
(-4.79608e-15 1.24786e-29 2.07427e-30 2.74928 5.70962e-15 -6.66636e-15 0.212187 -3.91452e-16 -5.17946e-16)
(2.79691e-15 -9.93663e-30 -1.86312e-30 2.74928 -3.18306e-15 -2.2713e-16 0.212187 -3.9705e-15 -3.91147e-17)
(2.74566e-15 -9.75455e-30 -1.21932e-30 2.67507 5.84608e-15 -4.5079e-15 0.210326 -4.9482e-16 -1.9106e-16)
(8.05659e-15 9.75455e-30 1.21932e-30 2.67507 -4.45231e-15 -1.86597e-16 0.210326 -4.07015e-15 -6.41314e-17)
(2.02899e-15 -1.20804e-29 -4.21263e-30 2.60316 5.28028e-15 -7.59279e-30 0.208505 -4.27958e-16 0)
(1.6232e-14 9.5758e-30 2.09471e-30 2.60316 -4.08182e-15 1.823e-17 0.208505 -4.1848e-15 -8.76848e-17)
(-2.04371e-15 -2.20068e-30 8.76471e-31 2.53348 6.51105e-15 1.30499e-15 0.206725 -4.21578e-16 -1.09958e-16)
(8.17484e-15 9.40033e-30 -1.1532e-32 2.53348 -4.86279e-15 -2.77334e-31 0.206725 -4.27418e-15 -8.30969e-17)
(-5.39174e-16 6.77913e-30 1.44304e-30 2.46596 7.6594e-15 1.10428e-15 0.204983 -6.47695e-16 -1.03878e-16)
(8.23318e-15 -4.61403e-30 -8.65131e-31 2.46596 -5.11815e-15 3.36673e-17 0.204983 -4.36665e-15 -6.79522e-17)
(-4.14551e-15 9.37802e-30 1.70701e-30 2.40052 7.40054e-15 1.03489e-15 0.20328 -6.30986e-16 -8.02776e-17)
(8.29102e-15 0 -5.66185e-31 2.40052 -3.60949e-15 -7.22147e-16 0.20328 -4.51166e-15 -4.04407e-17)
(-2.50315e-15 -4.44648e-30 -1.11162e-30 2.33709 7.68803e-15 9.35443e-16 0.201615 -6.27664e-16 -9.5881e-17)
(1.66967e-14 4.44648e-30 1.38953e-30 2.33709 -2.77662e-15 -1.99995e-15 0.201615 -4.65352e-15 -5.92403e-17)
(0 8.73e-30 1.09125e-30 2.2756 7.07031e-15 6.85417e-16 0.199987 -7.05035e-16 -6.59114e-17)
(8.40523e-15 -4.365e-30 -5.45625e-31 2.2756 -4.13993e-15 -1.99062e-15 0.199987 -4.72208e-15 -1.10567e-16)
(-2.11541e-15 6.67751e-30 1.08045e-30 2.21598 5.81056e-15 6.51344e-16 0.198394 -5.41277e-16 -5.49553e-17)
(0 0 -5.35627e-31 2.21598 -4.2064e-15 -1.44432e-15 0.198394 -4.7771e-15 -1.39307e-16)
(2.12939e-15 6.02397e-30 1.30476e-30 2.15818 6.0375e-15 7.58895e-16 0.196837 -5.03008e-16 -6.22123e-17)
(0 -8.41298e-30 -2.10325e-30 2.15818 -2.64531e-15 -9.19318e-16 0.196837 -4.83711e-15 -1.64412e-16)
(0 8.25882e-30 5.16176e-31 2.10212 6.432e-15 9.01645e-16 0.195314 -6.03623e-16 -7.69068e-17)
(-2.32465e-15 0 0 2.10212 -1.48283e-15 -4.48707e-16 0.195314 -4.89454e-15 -1.72974e-16)
(-2.15702e-15 1.04514e-29 1.27547e-30 2.04775 6.21555e-15 1.02688e-15 0.193825 -5.96245e-16 -9.1436e-17)
(0 -8.10748e-30 -1.01343e-30 2.04775 -2.71731e-15 -5.1664e-16 0.193825 -4.96447e-15 -1.7841e-16)
(-2.17067e-15 6.31172e-30 7.52938e-31 1.995 6.88439e-15 1.2018e-15 0.192368 -5.84851e-16 -1.03827e-16)
(-8.68268e-15 0 0 1.995 -4.68487e-15 -7.8495e-16 0.192368 -5.17986e-15 -1.94741e-16)
(-4.3834e-15 -5.5173e-30 -7.29682e-31 1.94383 8.54965e-15 9.38459e-16 0.190944 -7.494e-16 -1.2906e-16)
(1.74737e-14 7.81307e-30 1.46495e-30 1.94383 -4.61408e-15 -9.19373e-16 0.190944 -5.35052e-15 -2.18941e-16)
(0 -1.15048e-29 -1.43811e-30 1.89418 8.44584e-15 2.61133e-16 0.18955 -9.38346e-16 -5.5323e-17)
(8.79063e-15 1.15048e-29 1.43811e-30 1.89418 -5.14767e-15 -7.65778e-16 0.18955 -5.49227e-15 -2.52628e-16)
(-2.211e-15 6.00017e-30 7.26965e-31 1.84599 5.71718e-15 -1.12367e-16 0.188186 -7.5659e-16 -1.97357e-17)
(4.60535e-15 0 0 1.84599 -3.98655e-15 -5.02942e-16 0.188186 -5.70552e-15 -2.68822e-16)
(0 3.69569e-30 1.38588e-30 1.79922 4.74337e-15 -5.6706e-16 0.186852 -4.10124e-16 -9.92039e-17)
(6.81648e-15 0 -9.23922e-31 1.79922 -1.8589e-15 -5.73738e-16 0.186852 -5.78298e-15 -2.74975e-16)