/*--------------------------------*- C++ -*----------------------------------*\
| =========                 |                                                 |
| \\      /  F ield         | OpenFOAM: The Open Source CFD Toolbox           |
|  \\    /   O peration     | Version:  2106                                  |
|   \\  /    A nd           | Website:  www.openfoam.com                      |
|    \\/     M anipulation  |                                                 |
\*---------------------------------------------------------------------------*/
FoamFile
{
    version     2.0;
    format      ascii;
    arch        "LSB;label=32;scalar=64";
    class       volScalarField;
    location    "10050";
    object      p;
}
// * * * * * * * * * * * * * * * * * * * * * * * * * * * * * * * * * * * * * //

dimensions      [0 2 -2 0 0 0 0];

internalField   nonuniform List<scalar> 
2000
(
5.88649e-15
1.94927e-14
1.23572e-14
1.94932e-14
1.32839e-14
1.94937e-14
1.27522e-14
1.94945e-14
1.24247e-14
1.94954e-14
1.22993e-14
1.94965e-14
1.22032e-14
1.94978e-14
1.20995e-14
1.94993e-14
1.19929e-14
1.9501e-14
1.18868e-14
1.95029e-14
1.17812e-14
1.95049e-14
1.16766e-14
1.9507e-14
1.15731e-14
1.95092e-14
1.14708e-14
1.95116e-14
1.13699e-14
1.9514e-14
1.12703e-14
1.95165e-14
1.11723e-14
1.95189e-14
1.10758e-14
1.95214e-14
1.0981e-14
1.95238e-14
1.08876e-14
1.95261e-14
1.07957e-14
1.95284e-14
1.07053e-14
1.95306e-14
1.06162e-14
1.95328e-14
1.05288e-14
1.95349e-14
1.04429e-14
1.95368e-14
1.03585e-14
1.95384e-14
1.02754e-14
1.954e-14
1.0194e-14
1.95414e-14
1.01141e-14
1.95425e-14
1.00359e-14
1.95433e-14
9.95867e-15
1.95437e-14
9.88315e-15
1.9544e-14
9.80942e-15
1.95438e-14
9.73714e-15
1.95433e-14
9.66651e-15
1.95424e-14
9.59747e-15
1.95415e-14
9.52977e-15
1.95402e-14
9.46385e-15
1.95383e-14
9.39973e-15
1.9536e-14
9.33712e-15
1.9533e-14
9.27603e-15
1.95297e-14
9.21619e-15
1.95264e-14
9.1585e-15
1.95226e-14
9.10277e-15
1.95178e-14
9.04836e-15
1.95125e-14
8.99571e-15
1.95065e-14
8.94478e-15
1.94998e-14
8.89563e-15
1.94924e-14
8.84785e-15
1.94857e-14
8.80193e-15
1.94787e-14
8.75747e-15
1.94702e-14
8.71535e-15
1.94609e-14
8.67409e-15
1.94514e-14
8.63496e-15
1.94412e-14
8.59775e-15
1.94305e-14
8.56182e-15
1.9419e-14
8.52776e-15
1.94064e-14
8.49612e-15
1.93933e-14
8.46567e-15
1.93798e-14
8.43677e-15
1.93652e-14
8.41011e-15
1.93491e-14
8.3845e-15
1.93319e-14
8.36044e-15
1.93148e-14
8.33838e-15
1.92972e-14
8.31842e-15
1.92786e-14
8.30028e-15
1.92598e-14
8.28368e-15
1.924e-14
8.26835e-15
1.92186e-14
8.25472e-15
1.91966e-14
8.24318e-15
1.91745e-14
8.23243e-15
1.91513e-14
8.22389e-15
1.91281e-14
8.21692e-15
1.91042e-14
8.21093e-15
1.90792e-14
8.2076e-15
1.90521e-14
8.20502e-15
1.90252e-14
8.20358e-15
1.89987e-14
8.20428e-15
1.89712e-14
8.20461e-15
1.89438e-14
8.20719e-15
1.89151e-14
8.21238e-15
1.88846e-14
8.218e-15
1.88551e-14
8.22506e-15
1.88262e-14
8.2333e-15
1.8794e-14
8.2431e-15
1.87608e-14
8.2542e-15
1.8728e-14
8.26698e-15
1.86938e-14
8.28314e-15
1.86571e-14
8.29983e-15
1.862e-14
8.3181e-15
1.85827e-14
8.3377e-15
1.8544e-14
8.3577e-15
1.85055e-14
8.38051e-15
1.84666e-14
8.40051e-15
1.84255e-14
8.42415e-15
1.83838e-14
8.45053e-15
1.83423e-14
8.47803e-15
1.83004e-14
8.50706e-15
1.82571e-14
8.53666e-15
1.82125e-14
8.56796e-15
1.81667e-14
8.59783e-15
1.81227e-14
8.62738e-15
1.8081e-14
8.65919e-15
1.80343e-14
8.69444e-15
1.79829e-14
8.73141e-15
1.79298e-14
8.76982e-15
1.78752e-14
8.80936e-15
1.78208e-14
8.8543e-15
1.77637e-14
8.89673e-15
1.77042e-14
8.9456e-15
1.76439e-14
8.98973e-15
1.75845e-14
9.03661e-15
1.75263e-14
9.08434e-15
1.74712e-14
9.13419e-15
1.74161e-14
9.18749e-15
1.73581e-14
9.24229e-15
1.72956e-14
9.29497e-15
1.7242e-14
9.34847e-15
1.71861e-14
9.3957e-15
1.71297e-14
9.44973e-15
1.70679e-14
9.50003e-15
1.70129e-14
9.54958e-15
1.69598e-14
9.59969e-15
1.69036e-14
9.66222e-15
1.68447e-14
9.7264e-15
1.67868e-14
9.78833e-15
1.67263e-14
9.85122e-15
1.66637e-14
9.91831e-15
1.65989e-14
9.97842e-15
1.65286e-14
1.00457e-14
1.64528e-14
1.01163e-14
1.63864e-14
1.01899e-14
1.63183e-14
1.02551e-14
1.62488e-14
1.03264e-14
1.61742e-14
1.03886e-14
1.61096e-14
1.04564e-14
1.60476e-14
1.05257e-14
1.59808e-14
1.05963e-14
1.5913e-14
1.06678e-14
1.58443e-14
1.07402e-14
1.5767e-14
1.08132e-14
1.5673e-14
1.08749e-14
1.56014e-14
1.09289e-14
1.55446e-14
1.09867e-14
1.54867e-14
1.106e-14
1.5408e-14
1.11207e-14
1.53401e-14
1.11768e-14
1.5279e-14
1.12399e-14
1.52127e-14
1.1302e-14
1.5149e-14
1.13669e-14
1.50877e-14
1.14222e-14
1.50205e-14
1.148e-14
1.49431e-14
1.15404e-14
1.48716e-14
1.16199e-14
1.47974e-14
1.16939e-14
1.4728e-14
1.17462e-14
1.46714e-14
1.18014e-14
1.46188e-14
1.18514e-14
1.45619e-14
1.19044e-14
1.44833e-14
1.19438e-14
1.44074e-14
1.19951e-14
1.43506e-14
1.20499e-14
1.42871e-14
1.20916e-14
1.42163e-14
1.2129e-14
1.4146e-14
1.21708e-14
1.40927e-14
1.22088e-14
1.40219e-14
1.22433e-14
1.39413e-14
1.2292e-14
1.38668e-14
1.23214e-14
1.38057e-14
1.23489e-14
1.37403e-14
1.23751e-14
1.36695e-14
1.24006e-14
1.36095e-14
1.24087e-14
1.35508e-14
1.24426e-14
1.35186e-14
1.24596e-14
1.3495e-14
1.24944e-14
1.34538e-14
1.25043e-14
1.34029e-14
1.25155e-14
1.33586e-14
1.25197e-14
1.33464e-14
1.25335e-14
1.33318e-14
1.25826e-14
1.32971e-14
1.25821e-14
1.32321e-14
1.25675e-14
1.31696e-14
1.25735e-14
1.31087e-14
1.2584e-14
1.30483e-14
1.25833e-14
1.30213e-14
1.25725e-14
1.30269e-14
1.25675e-14
1.29802e-14
1.25691e-14
1.29144e-14
1.25445e-14
1.2827e-14
1.25119e-14
1.27673e-14
1.24885e-14
1.27171e-14
1.24574e-14
1.26923e-14
1.24176e-14
1.26594e-14
1.23848e-14
1.26013e-14
1.23759e-14
1.26013e-14
1.23221e-14
1.26421e-14
1.23034e-14
1.2593e-14
1.22863e-14
1.25542e-14
1.22722e-14
1.25077e-14
1.22452e-14
1.24355e-14
1.22072e-14
1.24355e-14
1.21727e-14
1.23761e-14
1.21429e-14
1.23051e-14
1.20691e-14
1.22196e-14
1.19831e-14
1.22349e-14
1.19278e-14
1.21417e-14
1.1888e-14
1.2036e-14
1.18325e-14
1.20279e-14
1.18231e-14
1.19736e-14
1.18126e-14
1.19013e-14
1.1772e-14
1.18545e-14
1.17631e-14
1.18176e-14
1.17545e-14
1.18542e-14
1.17424e-14
1.17747e-14
1.16983e-14
1.17285e-14
1.16833e-14
1.17767e-14
1.17201e-14
1.17384e-14
1.1722e-14
1.16719e-14
1.16632e-14
1.16651e-14
1.16907e-14
1.16589e-14
1.16552e-14
1.1588e-14
1.1591e-14
1.15679e-14
1.1583e-14
1.16018e-14
1.1595e-14
1.16048e-14
1.16002e-14
1.15763e-14
1.15725e-14
1.15428e-14
1.15403e-14
1.15616e-14
1.14952e-14
1.15495e-14
1.15164e-14
1.1541e-14
1.15511e-14
1.15634e-14
1.15468e-14
1.1616e-14
1.14674e-14
1.16495e-14
1.14637e-14
1.16237e-14
1.15045e-14
1.1676e-14
1.14526e-14
1.18135e-14
1.14389e-14
1.18523e-14
1.14507e-14
1.18893e-14
1.14585e-14
1.19374e-14
1.14793e-14
1.19566e-14
1.15562e-14
1.1895e-14
1.16352e-14
1.18062e-14
1.17818e-14
1.18162e-14
1.18004e-14
1.18425e-14
1.17964e-14
1.18375e-14
1.17969e-14
1.18047e-14
1.17323e-14
1.18129e-14
1.17778e-14
1.18283e-14
1.17927e-14
1.17932e-14
1.17991e-14
1.17971e-14
1.67838e-14
1.6977e-14
1.67842e-14
1.69771e-14
1.67846e-14
1.69772e-14
1.6785e-14
1.69775e-14
1.67856e-14
1.69778e-14
1.67863e-14
1.69781e-14
1.67872e-14
1.69786e-14
1.67881e-14
1.69791e-14
1.67892e-14
1.69797e-14
1.67904e-14
1.69804e-14
1.67918e-14
1.69812e-14
1.67932e-14
1.69821e-14
1.67948e-14
1.69831e-14
1.67964e-14
1.69842e-14
1.67982e-14
1.69854e-14
1.68001e-14
1.69867e-14
1.68019e-14
1.6988e-14
1.68039e-14
1.69894e-14
1.68058e-14
1.6991e-14
1.68078e-14
1.69928e-14
1.68098e-14
1.69946e-14
1.68119e-14
1.69966e-14
1.68139e-14
1.69986e-14
1.68159e-14
1.70008e-14
1.68179e-14
1.7003e-14
1.68198e-14
1.70055e-14
1.68217e-14
1.70083e-14
1.68234e-14
1.70109e-14
1.68252e-14
1.70137e-14
1.68268e-14
1.70169e-14
1.68284e-14
1.70203e-14
1.68299e-14
1.70239e-14
1.68313e-14
1.70275e-14
1.68329e-14
1.70311e-14
1.68342e-14
1.70346e-14
1.68356e-14
1.70382e-14
1.68371e-14
1.70419e-14
1.68382e-14
1.70457e-14
1.68394e-14
1.70496e-14
1.68406e-14
1.70529e-14
1.68419e-14
1.70563e-14
1.6843e-14
1.70601e-14
1.68439e-14
1.70638e-14
1.68445e-14
1.70675e-14
1.68449e-14
1.70713e-14
1.68451e-14
1.70754e-14
1.68454e-14
1.70794e-14
1.68455e-14
1.70829e-14
1.6845e-14
1.70876e-14
1.68444e-14
1.70927e-14
1.68437e-14
1.70967e-14
1.68429e-14
1.71007e-14
1.68419e-14
1.71048e-14
1.68409e-14
1.71085e-14
1.684e-14
1.71122e-14
1.68388e-14
1.71163e-14
1.68377e-14
1.71201e-14
1.68358e-14
1.71243e-14
1.68341e-14
1.7128e-14
1.68321e-14
1.71314e-14
1.683e-14
1.71346e-14
1.68274e-14
1.71383e-14
1.6824e-14
1.71425e-14
1.6821e-14
1.71464e-14
1.68177e-14
1.71504e-14
1.68142e-14
1.71538e-14
1.68102e-14
1.71577e-14
1.6806e-14
1.71609e-14
1.68018e-14
1.71625e-14
1.67973e-14
1.71642e-14
1.67921e-14
1.7167e-14
1.67871e-14
1.71706e-14
1.67817e-14
1.71733e-14
1.67761e-14
1.71747e-14
1.67712e-14
1.71759e-14
1.6766e-14
1.71762e-14
1.67606e-14
1.71785e-14
1.67544e-14
1.71816e-14
1.67494e-14
1.71815e-14
1.67443e-14
1.71806e-14
1.67393e-14
1.71814e-14
1.67331e-14
1.71827e-14
1.6727e-14
1.7183e-14
1.67212e-14
1.718e-14
1.67151e-14
1.71761e-14
1.67093e-14
1.71739e-14
1.67019e-14
1.71734e-14
1.66932e-14
1.71702e-14
1.6683e-14
1.71654e-14
1.66734e-14
1.71605e-14
1.66652e-14
1.71546e-14
1.66558e-14
1.71473e-14
1.66438e-14
1.71418e-14
1.66341e-14
1.71354e-14
1.66234e-14
1.71261e-14
1.66137e-14
1.71166e-14
1.66038e-14
1.71063e-14
1.65923e-14
1.70958e-14
1.65808e-14
1.70844e-14
1.65699e-14
1.70672e-14
1.65556e-14
1.70512e-14
1.6545e-14
1.70394e-14
1.65325e-14
1.70274e-14
1.65196e-14
1.70109e-14
1.65019e-14
1.69972e-14
1.64884e-14
1.69834e-14
1.64748e-14
1.69665e-14
1.6458e-14
1.6948e-14
1.64397e-14
1.69311e-14
1.64231e-14
1.69141e-14
1.64113e-14
1.68956e-14
1.6392e-14
1.68755e-14
1.63746e-14
1.6854e-14
1.63529e-14
1.68341e-14
1.63333e-14
1.68144e-14
1.63145e-14
1.67933e-14
1.62898e-14
1.67774e-14
1.62643e-14
1.67552e-14
1.62431e-14
1.6725e-14
1.6223e-14
1.66918e-14
1.62041e-14
1.66623e-14
1.61745e-14
1.66436e-14
1.61464e-14
1.6622e-14
1.61146e-14
1.65906e-14
1.60791e-14
1.65563e-14
1.60399e-14
1.65262e-14
1.60078e-14
1.64971e-14
1.5983e-14
1.64652e-14
1.59585e-14
1.64345e-14
1.59233e-14
1.64011e-14
1.58922e-14
1.63617e-14
1.5869e-14
1.63272e-14
1.58391e-14
1.62979e-14
1.58024e-14
1.62738e-14
1.57664e-14
1.62441e-14
1.5735e-14
1.62086e-14
1.57046e-14
1.61675e-14
1.56713e-14
1.61286e-14
1.56315e-14
1.6088e-14
1.55967e-14
1.6042e-14
1.55671e-14
1.59985e-14
1.5539e-14
1.59734e-14
1.55164e-14
1.59473e-14
1.54756e-14
1.59125e-14
1.54364e-14
1.58731e-14
1.5403e-14
1.58414e-14
1.53552e-14
1.58175e-14
1.53252e-14
1.5798e-14
1.52927e-14
1.57792e-14
1.52578e-14
1.57492e-14
1.52326e-14
1.57083e-14
1.52092e-14
1.56648e-14
1.51877e-14
1.56436e-14
1.51517e-14
1.56204e-14
1.51091e-14
1.56041e-14
1.50764e-14
1.55537e-14
1.50452e-14
1.55026e-14
1.50158e-14
1.54843e-14
1.49796e-14
1.54577e-14
1.4945e-14
1.54064e-14
1.49289e-14
1.5356e-14
1.48895e-14
1.5315e-14
1.48521e-14
1.52413e-14
1.48084e-14
1.51603e-14
1.47759e-14
1.51061e-14
1.47462e-14
1.50445e-14
1.47113e-14
1.50099e-14
1.46797e-14
1.49601e-14
1.4643e-14
1.48868e-14
1.46015e-14
1.48499e-14
1.45553e-14
1.479e-14
1.4513e-14
1.47246e-14
1.44837e-14
1.46622e-14
1.44334e-14
1.46201e-14
1.43792e-14
1.45901e-14
1.4355e-14
1.45298e-14
1.43182e-14
1.44649e-14
1.42869e-14
1.44124e-14
1.42613e-14
1.43638e-14
1.42251e-14
1.43532e-14
1.41777e-14
1.43384e-14
1.41266e-14
1.43037e-14
1.40715e-14
1.42328e-14
1.40299e-14
1.41434e-14
1.39512e-14
1.40691e-14
1.38348e-14
1.40448e-14
1.38153e-14
1.39874e-14
1.37562e-14
1.39475e-14
1.37083e-14
1.3909e-14
1.3671e-14
1.38562e-14
1.36279e-14
1.37729e-14
1.35804e-14
1.37268e-14
1.35459e-14
1.36503e-14
1.35089e-14
1.36276e-14
1.34697e-14
1.35915e-14
1.34286e-14
1.35946e-14
1.3384e-14
1.35545e-14
1.33364e-14
1.35046e-14
1.32353e-14
1.3463e-14
1.31784e-14
1.33992e-14
1.31148e-14
1.33474e-14
1.30437e-14
1.3293e-14
1.29639e-14
1.32702e-14
1.2922e-14
1.32171e-14
1.28849e-14
1.31185e-14
1.28072e-14
1.30887e-14
1.27204e-14
1.3031e-14
1.27044e-14
1.29334e-14
1.26333e-14
1.28754e-14
1.26046e-14
1.28575e-14
1.25683e-14
1.28017e-14
1.25901e-14
1.26932e-14
1.25678e-14
1.25878e-14
1.25401e-14
1.26075e-14
1.25361e-14
1.26591e-14
1.25207e-14
1.26255e-14
1.25609e-14
1.25401e-14
1.25119e-14
1.24528e-14
1.25012e-14
1.23594e-14
1.25056e-14
1.23465e-14
1.24381e-14
1.2319e-14
1.23862e-14
1.23113e-14
1.23467e-14
1.22702e-14
1.23226e-14
1.22265e-14
1.22564e-14
1.22056e-14
1.22319e-14
1.21517e-14
1.22223e-14
1.21214e-14
1.22028e-14
1.21132e-14
1.22049e-14
1.20687e-14
1.21513e-14
1.20105e-14
1.20996e-14
1.19942e-14
1.20706e-14
1.20217e-14
1.20281e-14
1.2042e-14
1.20531e-14
1.20356e-14
1.19837e-14
1.20012e-14
1.19777e-14
1.20234e-14
1.19512e-14
1.2042e-14
1.18699e-14
1.20089e-14
1.18565e-14
1.20108e-14
1.19329e-14
1.20475e-14
1.19489e-14
1.2033e-14
1.19331e-14
1.19681e-14
1.19139e-14
1.19804e-14
1.19213e-14
1.19711e-14
1.19046e-14
1.19343e-14
1.18935e-14
1.19155e-14
1.19407e-14
1.1915e-14
1.19161e-14
1.19206e-14
1.18565e-14
1.18877e-14
1.17973e-14
1.18243e-14
1.1755e-14
1.17968e-14
1.18869e-14
1.18557e-14
1.19671e-14
1.19057e-14
1.20066e-14
1.18861e-14
1.20206e-14
1.193e-14
1.20554e-14
1.19949e-14
1.20432e-14
1.20909e-14
1.21147e-14
1.21109e-14
1.21331e-14
1.21485e-14
1.2118e-14
1.21829e-14
1.21893e-14
1.22183e-14
1.22488e-14
1.22741e-14
1.23438e-14
1.23784e-14
1.24262e-14
1.2483e-14
1.24687e-14
1.25135e-14
1.24993e-14
1.25773e-14
1.25952e-14
1.26809e-14
1.27037e-14
1.27417e-14
1.27757e-14
1.2723e-14
1.27963e-14
1.27537e-14
1.28266e-14
1.28079e-14
1.28634e-14
1.28562e-14
1.29009e-14
1.29286e-14
1.29336e-14
1.30292e-14
1.29838e-14
1.31067e-14
1.30468e-14
1.31628e-14
1.31262e-14
1.31976e-14
1.31673e-14
1.32082e-14
1.31734e-14
1.31918e-14
1.32382e-14
1.32078e-14
1.32741e-14
1.32527e-14
1.33098e-14
1.3327e-14
1.33128e-14
1.34055e-14
1.33061e-14
1.34368e-14
1.33792e-14
1.34229e-14
1.34152e-14
1.34492e-14
1.34469e-14
1.34809e-14
1.34742e-14
1.34839e-14
1.35005e-14
1.35528e-14
1.3491e-14
1.3627e-14
1.34719e-14
1.35983e-14
1.34926e-14
1.35624e-14
1.35418e-14
1.35971e-14
1.35555e-14
1.357e-14
1.35527e-14
1.35927e-14
1.35648e-14
1.35865e-14
1.35768e-14
1.35993e-14
1.35563e-14
1.36121e-14
1.35678e-14
1.35928e-14
1.35801e-14
1.36064e-14
1.35754e-14
1.3619e-14
1.35697e-14
1.36146e-14
1.35632e-14
1.36099e-14
1.35899e-14
1.35882e-14
1.3602e-14
1.35477e-14
1.36005e-14
1.35704e-14
1.36182e-14
1.36407e-14
1.3586e-14
1.3676e-14
1.35857e-14
1.36452e-14
1.36005e-14
1.35984e-14
1.36151e-14
1.36014e-14
1.36125e-14
1.36539e-14
1.36256e-14
1.3706e-14
1.36365e-14
1.3725e-14
1.36617e-14
1.37281e-14
1.36678e-14
1.37664e-14
1.36713e-14
1.37889e-14
1.36891e-14
1.38129e-14
1.3704e-14
1.38215e-14
1.37337e-14
1.37974e-14
1.37103e-14
1.37909e-14
1.36936e-14
1.38026e-14
1.37087e-14
1.38419e-14
1.3712e-14
1.38576e-14
1.37207e-14
1.3841e-14
1.37267e-14
1.38431e-14
1.37301e-14
1.38641e-14
1.37395e-14
1.38524e-14
1.37467e-14
1.38076e-14
1.37525e-14
1.38062e-14
1.37401e-14
1.3822e-14
1.3752e-14
1.38379e-14
1.37541e-14
1.38369e-14
1.3755e-14
1.38362e-14
1.37633e-14
1.3836e-14
1.37707e-14
1.38364e-14
1.37858e-14
1.38372e-14
1.37834e-14
1.38466e-14
1.37719e-14
1.38477e-14
1.37765e-14
1.38408e-14
1.37721e-14
1.38511e-14
1.3767e-14
1.38701e-14
1.37609e-14
1.38646e-14
1.37624e-14
1.3843e-14
1.37549e-14
1.38385e-14
1.3755e-14
1.38346e-14
1.37546e-14
1.38144e-14
1.3754e-14
1.38028e-14
1.37531e-14
1.37914e-14
1.37521e-14
1.37717e-14
1.37347e-14
1.376e-14
1.37254e-14
1.37565e-14
1.37201e-14
1.37489e-14
1.37147e-14
1.37493e-14
1.37091e-14
1.37537e-14
1.37034e-14
1.37622e-14
1.37013e-14
1.37508e-14
1.36832e-14
1.37474e-14
1.36688e-14
1.37442e-14
1.36618e-14
1.37373e-14
1.36506e-14
1.37307e-14
1.3643e-14
1.37321e-14
1.36272e-14
1.373e-14
1.36109e-14
1.37321e-14
1.36056e-14
1.37269e-14
1.35921e-14
1.37145e-14
1.35857e-14
1.37064e-14
1.35825e-14
1.37025e-14
1.35751e-14
1.36951e-14
1.35672e-14
1.36956e-14
1.35626e-14
1.36889e-14
1.35576e-14
1.36827e-14
1.35485e-14
1.36732e-14
1.35499e-14
1.36676e-14
1.35545e-14
1.3666e-14
1.35481e-14
1.36574e-14
1.35379e-14
1.36386e-14
1.35381e-14
1.36271e-14
1.35415e-14
1.36262e-14
1.35361e-14
1.36221e-14
1.35305e-14
1.36112e-14
1.35215e-14
1.36074e-14
1.35207e-14
1.36037e-14
1.35182e-14
1.35952e-14
1.35122e-14
1.35852e-14
1.35078e-14
1.3582e-14
1.35049e-14
1.35821e-14
1.34971e-14
1.35872e-14
1.34941e-14
1.35844e-14
1.34909e-14
1.35769e-14
1.3483e-14
1.35744e-14
1.34749e-14
1.35767e-14
1.34684e-14
1.35744e-14
1.34633e-14
1.35724e-14
1.34581e-14
1.3572e-14
1.34513e-14
1.35702e-14
1.34489e-14
1.35671e-14
1.34433e-14
1.35672e-14
1.34363e-14
1.35673e-14
1.3432e-14
1.35676e-14
1.34319e-14
1.35681e-14
1.34288e-14
1.35672e-14
1.34255e-14
1.35637e-14
1.34257e-14
1.35604e-14
1.3425e-14
1.35579e-14
1.34262e-14
1.35583e-14
1.34246e-14
1.35588e-14
1.34235e-14
1.35553e-14
1.34264e-14
1.35513e-14
1.34265e-14
1.35501e-14
1.34258e-14
1.3549e-14
1.34244e-14
1.35486e-14
1.34229e-14
1.35476e-14
1.34226e-14
1.35468e-14
1.34222e-14
1.35466e-14
1.34217e-14
1.35465e-14
1.34218e-14
1.35452e-14
1.34199e-14
1.35459e-14
1.3418e-14
1.35479e-14
1.34172e-14
1.35499e-14
1.34164e-14
1.35514e-14
1.34142e-14
1.35523e-14
1.34125e-14
1.35533e-14
1.34111e-14
1.35553e-14
1.34103e-14
1.3558e-14
1.34094e-14
1.35608e-14
1.34085e-14
1.35623e-14
1.34071e-14
1.35629e-14
1.3405e-14
1.35643e-14
1.34044e-14
1.3565e-14
1.34038e-14
1.35661e-14
1.34031e-14
1.35663e-14
1.34031e-14
1.35656e-14
1.34029e-14
1.35659e-14
1.34027e-14
1.35672e-14
1.34028e-14
1.35673e-14
1.34032e-14
1.3567e-14
1.34035e-14
1.35682e-14
1.34038e-14
1.35692e-14
1.34045e-14
1.3569e-14
1.34047e-14
1.3568e-14
1.34048e-14
1.35677e-14
1.34053e-14
1.35676e-14
1.3406e-14
1.35672e-14
1.34066e-14
1.35669e-14
1.34064e-14
1.35665e-14
1.34062e-14
1.35664e-14
1.34065e-14
1.35659e-14
1.34066e-14
1.35652e-14
1.34069e-14
1.35649e-14
1.34073e-14
1.35643e-14
1.34076e-14
1.35629e-14
1.34078e-14
1.3562e-14
1.34082e-14
1.35621e-14
1.34088e-14
1.35619e-14
1.34091e-14
1.35613e-14
1.34093e-14
1.35608e-14
1.34095e-14
1.35605e-14
1.34098e-14
1.35605e-14
1.341e-14
1.35603e-14
1.341e-14
1.35597e-14
1.34101e-14
1.35594e-14
1.34104e-14
1.35595e-14
1.34106e-14
1.35593e-14
1.34103e-14
1.35593e-14
1.341e-14
1.35595e-14
1.34098e-14
1.35595e-14
1.34097e-14
1.35593e-14
1.34098e-14
1.35591e-14
1.34094e-14
1.35592e-14
1.34093e-14
1.35593e-14
1.34092e-14
1.35591e-14
1.34091e-14
1.35591e-14
1.34089e-14
1.35593e-14
1.34088e-14
1.35594e-14
1.34088e-14
1.35593e-14
1.34087e-14
1.35592e-14
1.34086e-14
1.35591e-14
1.34085e-14
1.3559e-14
1.34083e-14
1.3559e-14
1.34082e-14
1.35589e-14
1.34081e-14
1.35587e-14
1.34079e-14
1.35586e-14
1.34078e-14
1.35587e-14
1.34077e-14
1.35586e-14
1.34075e-14
1.35585e-14
1.34074e-14
1.35585e-14
1.34075e-14
1.35583e-14
1.34074e-14
1.35582e-14
1.34074e-14
1.35581e-14
1.34074e-14
1.35581e-14
1.34074e-14
1.3558e-14
1.34074e-14
1.3558e-14
1.34074e-14
1.3558e-14
1.34074e-14
1.35579e-14
1.34074e-14
1.35579e-14
1.34074e-14
1.35579e-14
1.34074e-14
1.35579e-14
1.34074e-14
1.35579e-14
1.34074e-14
1.35579e-14
1.18842e-14
1.18234e-14
1.19543e-14
1.18607e-14
1.20068e-14
1.19255e-14
1.20337e-14
1.19724e-14
1.20272e-14
1.2015e-14
1.21288e-14
1.2065e-14
1.21489e-14
1.21613e-14
1.21251e-14
1.21894e-14
1.21685e-14
1.22131e-14
1.22068e-14
1.23063e-14
1.22615e-14
1.23509e-14
1.24154e-14
1.23981e-14
1.24244e-14
1.2454e-14
1.24629e-14
1.24944e-14
1.25273e-14
1.25416e-14
1.25947e-14
1.25937e-14
1.2642e-14
1.26757e-14
1.27451e-14
1.27346e-14
1.27961e-14
1.27344e-14
1.27419e-14
1.27551e-14
1.27693e-14
1.28653e-14
1.28684e-14
1.2934e-14
1.29307e-14
1.30164e-14
1.29551e-14
1.31151e-14
1.30519e-14
1.32084e-14
1.30753e-14
1.32354e-14
1.31435e-14
1.32233e-14
1.31741e-14
1.32209e-14
1.32005e-14
1.31933e-14
1.326e-14
1.31956e-14
1.33268e-14
1.32534e-14
1.33095e-14
1.32737e-14
1.33579e-14
1.32259e-14
1.34195e-14
1.32538e-14
1.34362e-14
1.32927e-14
1.34664e-14
1.33791e-14
1.35052e-14
1.34566e-14
1.34856e-14
1.34659e-14
1.34999e-14
1.35055e-14
1.35139e-14
1.35765e-14
1.35083e-14
1.35526e-14
1.35012e-14
1.35299e-14
1.35253e-14
1.35735e-14
1.35297e-14
1.35864e-14
1.35303e-14
1.35205e-14
1.35308e-14
1.35346e-14
1.3497e-14
1.36474e-14
1.35036e-14
1.36692e-14
1.34842e-14
1.36671e-14
1.35381e-14
1.37087e-14
1.35332e-14
1.37099e-14
1.35197e-14
1.37207e-14
1.34968e-14
1.37083e-14
1.3481e-14
1.36725e-14
1.35235e-14
1.36965e-14
1.35412e-14
1.37127e-14
1.35006e-14
1.37377e-14
1.35351e-14
1.37214e-14
1.35968e-14
1.36949e-14
1.36214e-14
1.36895e-14
1.36442e-14
1.37218e-14
1.36308e-14
1.37584e-14
1.36312e-14
1.37829e-14
1.36791e-14
1.37955e-14
1.36728e-14
1.38121e-14
1.36804e-14
1.38507e-14
1.36838e-14
1.38945e-14
1.36997e-14
1.38929e-14
1.3694e-14
1.38966e-14
1.37183e-14
1.38883e-14
1.37388e-14
1.38674e-14
1.37569e-14
1.38498e-14
1.37651e-14
1.38692e-14
1.37806e-14
1.38995e-14
1.37859e-14
1.3915e-14
1.37894e-14
1.38989e-14
1.37916e-14
1.39025e-14
1.37925e-14
1.38995e-14
1.37921e-14
1.389e-14
1.37906e-14
1.39257e-14
1.37787e-14
1.39643e-14
1.37645e-14
1.39721e-14
1.37648e-14
1.39492e-14
1.37798e-14
1.39125e-14
1.37676e-14
1.3895e-14
1.37624e-14
1.39052e-14
1.37725e-14
1.39174e-14
1.37724e-14
1.39232e-14
1.37706e-14
1.39226e-14
1.37672e-14
1.3924e-14
1.37621e-14
1.39273e-14
1.37554e-14
1.39243e-14
1.37471e-14
1.39231e-14
1.37539e-14
1.39153e-14
1.37425e-14
1.38926e-14
1.37298e-14
1.38965e-14
1.37073e-14
1.38853e-14
1.37166e-14
1.38759e-14
1.37079e-14
1.38762e-14
1.37061e-14
1.38616e-14
1.37194e-14
1.38485e-14
1.37113e-14
1.38407e-14
1.37065e-14
1.38259e-14
1.37009e-14
1.38202e-14
1.36945e-14
1.38276e-14
1.36874e-14
1.384e-14
1.36834e-14
1.38294e-14
1.36944e-14
1.38159e-14
1.36811e-14
1.38072e-14
1.36751e-14
1.37955e-14
1.36725e-14
1.37845e-14
1.36694e-14
1.37742e-14
1.36699e-14
1.37684e-14
1.36623e-14
1.37747e-14
1.36543e-14
1.37701e-14
1.36537e-14
1.37622e-14
1.36452e-14
1.37662e-14
1.36326e-14
1.37595e-14
1.3616e-14
1.37572e-14
1.36066e-14
1.37517e-14
1.35968e-14
1.37395e-14
1.35866e-14
1.37315e-14
1.35761e-14
1.37314e-14
1.35653e-14
1.37283e-14
1.35577e-14
1.37185e-14
1.35461e-14
1.37023e-14
1.35413e-14
1.36937e-14
1.35326e-14
1.36926e-14
1.3527e-14
1.36886e-14
1.35211e-14
1.36781e-14
1.35166e-14
1.36613e-14
1.35067e-14
1.36535e-14
1.35049e-14
1.36495e-14
1.34979e-14
1.36393e-14
1.34922e-14
1.36294e-14
1.34798e-14
1.36232e-14
1.34785e-14
1.36173e-14
1.34786e-14
1.36118e-14
1.34689e-14
1.36066e-14
1.34654e-14
1.36032e-14
1.34679e-14
1.36017e-14
1.34686e-14
1.35974e-14
1.34661e-14
1.35932e-14
1.34603e-14
1.35909e-14
1.34589e-14
1.35857e-14
1.34604e-14
1.35807e-14
1.34603e-14
1.3579e-14
1.3457e-14
1.35774e-14
1.34522e-14
1.35774e-14
1.34516e-14
1.35775e-14
1.3451e-14
1.35764e-14
1.34487e-14
1.3574e-14
1.3445e-14
1.35717e-14
1.34447e-14
1.35696e-14
1.34422e-14
1.35697e-14
1.3441e-14
1.357e-14
1.34396e-14
1.35717e-14
1.34382e-14
1.35748e-14
1.34401e-14
1.35748e-14
1.34378e-14
1.35774e-14
1.34361e-14
1.35802e-14
1.34356e-14
1.35812e-14
1.34357e-14
1.35822e-14
1.34351e-14
1.35827e-14
1.34343e-14
1.35845e-14
1.34341e-14
1.35859e-14
1.34358e-14
1.3586e-14
1.3436e-14
1.35876e-14
1.34375e-14
1.35898e-14
1.34389e-14
1.35903e-14
1.34402e-14
1.35902e-14
1.34415e-14
1.35895e-14
1.34433e-14
1.35896e-14
1.34438e-14
1.3591e-14
1.34452e-14
1.35912e-14
1.34472e-14
1.35912e-14
1.34491e-14
1.35912e-14
1.34511e-14
1.35907e-14
1.34526e-14
1.35892e-14
1.34541e-14
1.35891e-14
1.3456e-14
1.3589e-14
1.34578e-14
1.3588e-14
1.34595e-14
1.35866e-14
1.34617e-14
1.35864e-14
1.34624e-14
1.35865e-14
1.34617e-14
1.3587e-14
1.3462e-14
1.35876e-14
1.34623e-14
1.35878e-14
1.34629e-14
1.35881e-14
1.34632e-14
1.35877e-14
1.34638e-14
1.35879e-14
1.34642e-14
1.35879e-14
1.3464e-14
1.3588e-14
1.34642e-14
1.35875e-14
1.34647e-14
1.35872e-14
1.34647e-14
1.35873e-14
1.34648e-14
1.35873e-14
1.34647e-14
1.35869e-14
1.3465e-14
1.35867e-14
1.34651e-14
1.35869e-14
1.34645e-14
1.35877e-14
1.34645e-14
1.35877e-14
1.34646e-14
1.35872e-14
1.34648e-14
1.35868e-14
1.34651e-14
1.35871e-14
1.34646e-14
1.35875e-14
1.34644e-14
1.35881e-14
1.3464e-14
1.35881e-14
1.34636e-14
1.35881e-14
1.34637e-14
1.35881e-14
1.34639e-14
1.35884e-14
1.34638e-14
1.35884e-14
1.34637e-14
1.35884e-14
1.34637e-14
1.35883e-14
1.34639e-14
1.35884e-14
1.34639e-14
1.35885e-14
1.34639e-14
1.35886e-14
1.34642e-14
1.35886e-14
1.34644e-14
1.35885e-14
1.34642e-14
1.35884e-14
1.34643e-14
1.35883e-14
1.34645e-14
1.35881e-14
1.34648e-14
1.3588e-14
1.3465e-14
1.35881e-14
1.3465e-14
1.35882e-14
1.3465e-14
1.35881e-14
1.34652e-14
1.35878e-14
1.34652e-14
1.35877e-14
1.34652e-14
1.35877e-14
1.34651e-14
1.35879e-14
1.34651e-14
1.35878e-14
1.34651e-14
1.35878e-14
1.3465e-14
1.3588e-14
1.34649e-14
1.3588e-14
1.3465e-14
1.35879e-14
1.3465e-14
1.3588e-14
1.34649e-14
1.35881e-14
1.34649e-14
1.35882e-14
1.34649e-14
1.35882e-14
1.34648e-14
1.35882e-14
1.34648e-14
1.35883e-14
1.34648e-14
1.35884e-14
1.34648e-14
1.35883e-14
1.34648e-14
1.35884e-14
1.34648e-14
1.35884e-14
1.34648e-14
1.35884e-14
1.34648e-14
1.35884e-14
1.34648e-14
1.35884e-14
1.34648e-14
1.35884e-14
1.34648e-14
1.35884e-14
)
;

boundaryField
{
    walls
    {
        type            zeroGradient;
    }
    inlet
    {
        type            cyclic;
    }
    outlet
    {
        type            cyclic;
    }
    sides
    {
        type            empty;
    }
}


// ************************************************************************* //
