/*--------------------------------*- C++ -*----------------------------------*\
| =========                 |                                                 |
| \\      /  F ield         | OpenFOAM: The Open Source CFD Toolbox           |
|  \\    /   O peration     | Version:  2106                                  |
|   \\  /    A nd           | Website:  www.openfoam.com                      |
|    \\/     M anipulation  |                                                 |
\*---------------------------------------------------------------------------*/
FoamFile
{
    version     2.0;
    format      ascii;
    arch        "LSB;label=32;scalar=64";
    class       surfaceScalarField;
    location    "10050";
    object      phi;
}
// * * * * * * * * * * * * * * * * * * * * * * * * * * * * * * * * * * * * * //

dimensions      [0 3 -1 0 0 0 0];

oriented        oriented;

internalField   nonuniform List<scalar> 
3996
(
1.11349e-08
-5.80863e-18
-3.95757e-23
-1.11492e-22
1.03999e-23
3.42356e-08
-5.80875e-18
5.22523e-23
-5.26619e-23
1.36854e-23
5.86258e-08
-5.80892e-18
6.23902e-23
3.60142e-23
1.45159e-23
8.43614e-08
-5.80907e-18
6.21455e-23
1.06607e-22
1.54217e-23
1.11501e-07
-5.80924e-18
6.413e-23
1.96269e-22
1.64102e-23
1.40105e-07
-5.80936e-18
6.77942e-23
2.42127e-22
1.74896e-23
1.70236e-07
-5.80957e-18
7.16619e-23
3.57802e-22
1.86698e-23
2.01961e-07
-5.80977e-18
7.53882e-23
4.51307e-22
1.99602e-23
2.35348e-07
-5.81e-18
7.90189e-23
5.44207e-22
2.13694e-23
2.70466e-07
-5.81022e-18
8.26149e-23
6.96988e-22
2.29063e-23
3.07391e-07
-5.81057e-18
8.6198e-23
8.34932e-22
2.45815e-23
3.46198e-07
-5.81075e-18
8.97827e-23
9.37969e-22
2.64057e-23
3.86967e-07
-5.81092e-18
9.33681e-23
1.00082e-21
2.83914e-23
4.29781e-07
-5.81109e-18
9.69524e-23
1.09581e-21
3.05517e-23
4.74727e-07
-5.81121e-18
1.00523e-22
1.25948e-21
3.29001e-23
5.21892e-07
-5.81148e-18
1.04068e-22
1.2759e-21
3.54476e-23
5.71371e-07
-5.81189e-18
1.07577e-22
1.37098e-21
3.82107e-23
6.2326e-07
-5.81229e-18
1.11038e-22
1.56903e-21
4.12015e-23
6.77659e-07
-5.81246e-18
1.1443e-22
1.66316e-21
4.44327e-23
7.34672e-07
-5.81282e-18
1.17728e-22
1.82906e-21
4.79212e-23
7.94408e-07
-5.81318e-18
1.2091e-22
1.94016e-21
5.16904e-23
8.56978e-07
-5.81317e-18
1.2395e-22
1.93186e-21
5.57542e-23
9.22501e-07
-5.81363e-18
1.2681e-22
2.10957e-21
6.01432e-23
9.91096e-07
-5.814e-18
1.2947e-22
2.52754e-21
6.48695e-23
1.06289e-06
-5.81425e-18
1.31899e-22
2.5939e-21
6.99533e-23
1.13802e-06
-5.81444e-18
1.3406e-22
2.73729e-21
7.54229e-23
1.21661e-06
-5.81476e-18
1.35902e-22
3.01109e-21
8.13041e-23
1.2988e-06
-5.81486e-18
1.37401e-22
3.05318e-21
8.76278e-23
1.38475e-06
-5.81547e-18
1.38501e-22
3.36027e-21
9.44045e-23
1.47461e-06
-5.81497e-18
1.39186e-22
3.30481e-21
1.01638e-22
1.56853e-06
-5.81505e-18
1.39366e-22
3.45778e-21
1.09364e-22
1.66668e-06
-5.81546e-18
1.39008e-22
3.6807e-21
1.1761e-22
1.76922e-06
-5.81558e-18
1.38056e-22
3.51354e-21
1.26409e-22
1.87634e-06
-5.81586e-18
1.36431e-22
3.46334e-21
1.35811e-22
1.98821e-06
-5.8158e-18
1.34082e-22
2.76104e-21
1.45849e-22
2.10503e-06
-5.81577e-18
1.30908e-22
2.71712e-21
1.56598e-22
2.22699e-06
-5.81623e-18
1.26847e-22
3.08353e-21
1.6805e-22
2.35429e-06
-5.81652e-18
1.21832e-22
3.15961e-21
1.80228e-22
2.48715e-06
-5.81621e-18
1.15736e-22
3.27323e-21
1.93186e-22
2.62579e-06
-5.81607e-18
1.0842e-22
2.78319e-21
2.06988e-22
2.77042e-06
-5.81583e-18
9.98075e-23
2.24366e-21
2.21692e-22
2.92129e-06
-5.8169e-18
8.98093e-23
2.04282e-21
2.37302e-22
3.07864e-06
-5.81667e-18
7.84399e-23
1.67795e-21
2.53856e-22
3.24271e-06
-5.816e-18
6.55477e-23
1.07098e-21
2.71359e-22
3.41376e-06
-5.81606e-18
5.09748e-23
6.83236e-22
2.8984e-22
3.59206e-06
-5.81598e-18
3.46516e-23
5.01004e-22
3.09272e-22
3.77788e-06
-5.81613e-18
1.64651e-23
-4.62292e-22
3.29676e-22
3.9715e-06
-5.81516e-18
-3.69877e-24
-2.38487e-21
3.51172e-22
4.17322e-06
-5.81425e-18
-2.60281e-23
-4.59297e-21
3.73814e-22
4.38332e-06
-5.81411e-18
-5.07766e-23
-3.76828e-21
3.97689e-22
4.60213e-06
-5.81432e-18
-7.7986e-23
-4.60571e-21
4.22729e-22
4.82993e-06
-5.81234e-18
-1.07916e-22
-6.08091e-21
4.4897e-22
5.06707e-06
-5.81146e-18
-1.409e-22
-8.62381e-21
4.76598e-22
5.31386e-06
-5.81007e-18
-1.76947e-22
-1.06043e-20
5.05708e-22
5.57063e-06
-5.80884e-18
-2.16189e-22
-1.19578e-20
5.36179e-22
5.83771e-06
-5.80718e-18
-2.58666e-22
-1.2536e-20
5.67921e-22
6.11546e-06
-5.80628e-18
-3.04642e-22
-1.43874e-20
6.00842e-22
6.40421e-06
-5.80295e-18
-3.54119e-22
-1.68966e-20
6.35065e-22
6.70432e-06
-5.80038e-18
-4.07582e-22
-2.03495e-20
6.70742e-22
7.01612e-06
-5.79881e-18
-4.65134e-22
-2.21499e-20
7.07764e-22
7.33996e-06
-5.79428e-18
-5.26565e-22
-2.47455e-20
7.45649e-22
7.6762e-06
-5.79078e-18
-5.92253e-22
-2.999e-20
7.8429e-22
8.02517e-06
-5.78759e-18
-6.62381e-22
-3.36669e-20
8.24051e-22
8.38722e-06
-5.78355e-18
-7.37085e-22
-3.94332e-20
8.64584e-22
8.76268e-06
-5.78165e-18
-8.16364e-22
-4.40925e-20
9.05787e-22
9.15188e-06
-5.77732e-18
-9.00056e-22
-4.78242e-20
9.47905e-22
9.55514e-06
-5.77095e-18
-9.8843e-22
-5.24251e-20
9.90237e-22
9.97277e-06
-5.76566e-18
-1.08174e-21
-5.90888e-20
1.03294e-21
1.04051e-05
-5.7601e-18
-1.1798e-21
-6.57014e-20
1.07657e-21
1.08523e-05
-5.75227e-18
-1.2827e-21
-7.22564e-20
1.12076e-21
1.13148e-05
-5.74872e-18
-1.39054e-21
-7.83013e-20
1.16489e-21
1.17928e-05
-5.74182e-18
-1.50272e-21
-8.35391e-20
1.20846e-21
1.22865e-05
-5.73599e-18
-1.61966e-21
-9.0556e-20
1.25186e-21
1.27962e-05
-5.72854e-18
-1.74145e-21
-9.92317e-20
1.29489e-21
1.33222e-05
-5.71938e-18
-1.86825e-21
-1.07722e-19
1.33744e-21
1.38645e-05
-5.71056e-18
-2.00069e-21
-1.18128e-19
1.38018e-21
1.44234e-05
-5.70249e-18
-2.1382e-21
-1.25313e-19
1.42208e-21
1.49992e-05
-5.68836e-18
-2.27964e-21
-1.37322e-19
1.46236e-21
1.5592e-05
-5.67857e-18
-2.42696e-21
-1.46836e-19
1.50274e-21
1.62019e-05
-5.66869e-18
-2.57872e-21
-1.56115e-19
1.54175e-21
1.68291e-05
-5.65626e-18
-2.73416e-21
-1.6897e-19
1.57797e-21
1.74739e-05
-5.64626e-18
-2.8936e-21
-1.83099e-19
1.61351e-21
1.81363e-05
-5.63202e-18
-3.05648e-21
-1.95894e-19
1.64805e-21
1.88165e-05
-5.61898e-18
-3.22359e-21
-2.08881e-19
1.68174e-21
1.95147e-05
-5.60638e-18
-3.39376e-21
-2.17777e-19
1.71363e-21
2.02311e-05
-5.59692e-18
-3.56742e-21
-2.26817e-19
1.74081e-21
2.09658e-05
-5.59018e-18
-3.74185e-21
-2.39673e-19
1.76199e-21
2.1719e-05
-5.57758e-18
-3.91672e-21
-2.50436e-19
1.78012e-21
2.24909e-05
-5.56156e-18
-4.09422e-21
-2.65921e-19
1.79467e-21
2.32817e-05
-5.54472e-18
-4.27492e-21
-2.79438e-19
1.80741e-21
2.40916e-05
-5.52511e-18
-4.45946e-21
-2.9659e-19
1.81717e-21
2.49208e-05
-5.50885e-18
-4.64796e-21
-3.13224e-19
1.82704e-21
2.57697e-05
-5.48751e-18
-4.83734e-21
-3.22681e-19
1.83487e-21
2.66383e-05
-5.47081e-18
-5.03216e-21
-3.38819e-19
1.83818e-21
2.75271e-05
-5.44975e-18
-5.22734e-21
-3.55548e-19
1.84119e-21
2.84362e-05
-5.43276e-18
-5.42482e-21
-3.70069e-19
1.84281e-21
2.93661e-05
-5.41612e-18
-5.62266e-21
-3.85485e-19
1.83877e-21
3.03169e-05
-5.39017e-18
-5.81947e-21
-4.00951e-19
1.83083e-21
3.12891e-05
-5.36281e-18
-6.02044e-21
-4.23011e-19
1.81827e-21
3.22829e-05
-5.33356e-18
-6.2256e-21
-4.4974e-19
1.80852e-21
3.32988e-05
-5.29226e-18
-6.43179e-21
-4.76079e-19
1.79893e-21
3.43371e-05
-5.27612e-18
-6.64935e-21
-4.79051e-19
1.78757e-21
3.53982e-05
-5.25727e-18
-6.85833e-21
-4.96233e-19
1.761e-21
3.64826e-05
-5.23777e-18
-7.06383e-21
-5.09934e-19
1.7276e-21
3.75906e-05
-5.21314e-18
-7.26002e-21
-5.24818e-19
1.68012e-21
3.87228e-05
-5.19287e-18
-7.46361e-21
-5.41599e-19
1.62016e-21
3.98795e-05
-5.17944e-18
-7.66812e-21
-5.62733e-19
1.55756e-21
4.10612e-05
-5.14751e-18
-7.86997e-21
-5.78438e-19
1.49485e-21
4.22685e-05
-5.12743e-18
-8.08162e-21
-5.96725e-19
1.42594e-21
4.35019e-05
-5.09116e-18
-8.28716e-21
-6.1412e-19
1.35736e-21
4.47618e-05
-5.06936e-18
-8.49697e-21
-6.35371e-19
1.28525e-21
4.60489e-05
-5.04396e-18
-8.69381e-21
-6.5829e-19
1.21356e-21
4.73636e-05
-5.01271e-18
-8.88877e-21
-6.80309e-19
1.14042e-21
4.87065e-05
-4.98555e-18
-9.07709e-21
-7.07415e-19
1.06727e-21
5.00783e-05
-4.95523e-18
-9.25523e-21
-7.29105e-19
9.83833e-22
5.14795e-05
-4.92061e-18
-9.42695e-21
-7.62652e-19
8.84791e-22
5.29108e-05
-4.88552e-18
-9.58775e-21
-7.89119e-19
7.81624e-22
5.43727e-05
-4.83161e-18
-9.74376e-21
-8.31392e-19
6.83975e-22
5.5866e-05
-4.79628e-18
-9.92527e-21
-8.53616e-19
6.17439e-22
5.73913e-05
-4.75613e-18
-1.01023e-20
-8.78127e-19
5.45747e-22
5.89492e-05
-4.71783e-18
-1.02832e-20
-9.06689e-19
4.81218e-22
6.05406e-05
-4.67674e-18
-1.04472e-20
-9.34252e-19
4.02234e-22
6.2166e-05
-4.67815e-18
-1.06138e-20
-9.47135e-19
3.20185e-22
6.38262e-05
-4.65406e-18
-1.07023e-20
-9.75656e-19
2.33276e-22
6.5522e-05
-4.60952e-18
-1.07718e-20
-9.87707e-19
1.73752e-22
6.72541e-05
-4.582e-18
-1.08526e-20
-1.00295e-18
1.01319e-22
6.90233e-05
-4.56487e-18
-1.0958e-20
-1.01063e-18
3.42017e-23
7.08305e-05
-4.53004e-18
-1.10851e-20
-1.02269e-18
-4.92046e-23
7.26763e-05
-4.49923e-18
-1.12428e-20
-1.04307e-18
-1.48401e-22
7.45617e-05
-4.4788e-18
-1.14047e-20
-1.07071e-18
-2.58359e-22
7.64875e-05
-4.44372e-18
-1.15738e-20
-1.09019e-18
-3.46053e-22
7.84546e-05
-4.39908e-18
-1.17916e-20
-1.12262e-18
-4.51134e-22
8.04638e-05
-4.36785e-18
-1.19887e-20
-1.13439e-18
-5.58027e-22
8.25161e-05
-4.31812e-18
-1.21507e-20
-1.15319e-18
-7.27478e-22
8.46124e-05
-4.28426e-18
-1.23217e-20
-1.18069e-18
-8.7443e-22
8.67537e-05
-4.24823e-18
-1.24977e-20
-1.19885e-18
-9.74567e-22
8.89408e-05
-4.21841e-18
-1.26603e-20
-1.21737e-18
-1.05931e-21
9.11748e-05
-4.17849e-18
-1.28207e-20
-1.22328e-18
-1.13553e-21
9.34567e-05
-4.14155e-18
-1.29703e-20
-1.24178e-18
-1.21421e-21
9.57875e-05
-4.10289e-18
-1.30932e-20
-1.25575e-18
-1.3271e-21
9.81683e-05
-4.04851e-18
-1.32559e-20
-1.3012e-18
-1.49455e-21
0.0001006
-3.98884e-18
-1.34602e-20
-1.33066e-18
-1.66158e-21
0.000103084
-3.95245e-18
-1.37364e-20
-1.36407e-18
-1.79644e-21
0.000105621
-3.93631e-18
-1.39952e-20
-1.35595e-18
-1.89139e-21
0.000108213
-3.87669e-18
-1.4206e-20
-1.38709e-18
-2.06322e-21
0.00011086
-3.83367e-18
-1.45148e-20
-1.40108e-18
-2.23378e-21
0.000113564
-3.78794e-18
-1.47338e-20
-1.43323e-18
-2.47233e-21
0.000116325
-3.74167e-18
-1.49772e-20
-1.46102e-18
-2.72347e-21
0.000119146
-3.70269e-18
-1.51782e-20
-1.47626e-18
-2.98061e-21
0.000122028
-3.64165e-18
-1.53191e-20
-1.49124e-18
-3.26866e-21
0.000124971
-3.60489e-18
-1.54787e-20
-1.51668e-18
-3.65506e-21
0.000127977
-3.5575e-18
-1.56537e-20
-1.5396e-18
-4.02567e-21
0.000131047
-3.54658e-18
-1.58456e-20
-1.53973e-18
-4.556e-21
0.000134183
-3.5004e-18
-1.57783e-20
-1.5528e-18
-5.20534e-21
0.000137386
-3.42158e-18
-1.57041e-20
-1.59195e-18
-5.84148e-21
0.000140658
-3.37896e-18
-1.58339e-20
-1.62683e-18
-6.18569e-21
0.000144
-3.32522e-18
-1.60476e-20
-1.62353e-18
-6.38687e-21
0.000147413
-3.30101e-18
-1.62211e-20
-1.64047e-18
-6.87408e-21
0.000150899
-3.24128e-18
-1.62714e-20
-1.64226e-18
-7.39145e-21
0.000154459
-3.20046e-18
-1.63005e-20
-1.64954e-18
-7.75105e-21
0.000158096
-3.14773e-18
-1.6455e-20
-1.67989e-18
-8.07864e-21
0.00016181
-3.09974e-18
-1.64772e-20
-1.68087e-18
-8.44643e-21
0.000165603
-3.0426e-18
-1.64679e-20
-1.6792e-18
-8.64299e-21
0.000169477
-3.01499e-18
-1.65448e-20
-1.70524e-18
-8.74526e-21
0.000173434
-2.96858e-18
-1.65429e-20
-1.69671e-18
-8.83978e-21
0.000177476
-2.92506e-18
-1.65689e-20
-1.7044e-18
-8.92798e-21
0.000181603
-2.89606e-18
-1.66948e-20
-1.68234e-18
-9.2866e-21
0.000185818
-2.82153e-18
-1.67524e-20
-1.69437e-18
-9.82857e-21
0.000190123
-2.78942e-18
-1.68952e-20
-1.68154e-18
-1.02164e-20
0.00019452
-2.76039e-18
-1.70162e-20
-1.70859e-18
-1.10946e-20
0.00019901
-2.7102e-18
-1.69641e-20
-1.73845e-18
-1.18419e-20
0.000203595
-2.64559e-18
-1.70588e-20
-1.74072e-18
-1.23192e-20
0.000208278
-2.65168e-18
-1.75069e-20
-1.73664e-18
-1.24859e-20
0.00021306
-2.59654e-18
-1.74452e-20
-1.75171e-18
-1.25492e-20
0.000217943
-2.58517e-18
-1.74607e-20
-1.72014e-18
-1.24081e-20
0.00022293
-2.53018e-18
-1.77345e-20
-1.71018e-18
-1.22266e-20
0.000228023
-2.49257e-18
-1.81351e-20
-1.71401e-18
-1.23141e-20
0.000233224
-2.45478e-18
-1.86124e-20
-1.7313e-18
-1.25166e-20
0.000238534
-2.41727e-18
-1.90818e-20
-1.72794e-18
-1.23354e-20
0.000243957
-2.40678e-18
-1.96201e-20
-1.70284e-18
-1.25739e-20
0.000249494
-2.31167e-18
-1.95864e-20
-1.70411e-18
-1.32218e-20
0.000255148
-2.28817e-18
-1.96792e-20
-1.71798e-18
-1.40544e-20
0.000260921
-2.25675e-18
-1.9089e-20
-1.7208e-18
-1.45658e-20
0.000266816
-2.18688e-18
-1.79569e-20
-1.71691e-18
-1.49494e-20
0.000272835
-2.15664e-18
-1.66957e-20
-1.72072e-18
-1.46991e-20
0.000278981
-2.12948e-18
-1.49594e-20
-1.71044e-18
-1.42489e-20
0.000285255
-2.12136e-18
-1.48592e-20
-1.66793e-18
-1.35277e-20
0.000291662
-2.08206e-18
-1.45796e-20
-1.7059e-18
-1.42698e-20
0.000298202
-2.01279e-18
-1.47642e-20
-1.74993e-18
-1.54517e-20
0.00030488
-1.99325e-18
-1.59283e-20
-1.78965e-18
-1.63784e-20
0.000311697
-1.98147e-18
-1.71378e-20
-1.77574e-18
-1.60321e-20
0.000318657
-1.94751e-18
-1.76128e-20
-1.80554e-18
-1.67249e-20
0.000325762
-1.92011e-18
-1.90785e-20
-1.82511e-18
-1.6623e-20
0.000333015
-1.92032e-18
-2.016e-20
-1.85057e-18
-1.75422e-20
0.000340419
-1.94024e-18
-2.12413e-20
-1.90891e-18
-1.87535e-20
0.000347977
-1.8964e-18
-2.20516e-20
-1.9354e-18
-1.97322e-20
0.000355692
-1.947e-18
-2.31042e-20
-1.85914e-18
-1.777e-20
0.000363567
-1.94988e-18
-2.21977e-20
-1.8681e-18
-1.78645e-20
0.000371605
-1.93487e-18
-1.94739e-20
-1.84387e-18
-1.78282e-20
0.000379809
-1.92021e-18
-1.90562e-20
-1.82751e-18
-1.741e-20
0.000388182
-1.90244e-18
-1.87777e-20
-1.86162e-18
-1.67906e-20
0.000396728
-1.81383e-18
-1.77782e-20
-1.74792e-18
-1.50227e-20
0.000405449
-1.82496e-18
-1.83183e-20
-1.75326e-18
-1.57763e-20
0.000414349
-1.69231e-18
-1.99203e-20
-1.66364e-18
-1.65523e-20
0.000423432
-1.65251e-18
-2.22691e-20
-1.65534e-18
-1.69258e-20
0.0004327
-1.68947e-18
-2.34876e-20
-1.58215e-18
-1.77839e-20
0.000442157
-1.67814e-18
-2.3068e-20
-1.58822e-18
-2.23944e-20
0.000451806
-1.60729e-18
-2.44323e-20
-1.60337e-18
-2.62456e-20
0.000461651
-1.63351e-18
-2.59285e-20
-1.48845e-18
-2.86317e-20
0.000471696
-1.5772e-18
-2.8622e-20
-1.4827e-18
-3.17732e-20
0.000481943
-1.55082e-18
-3.03317e-20
-1.4861e-18
-3.47521e-20
0.000492397
-1.63306e-18
-3.55239e-20
-1.54088e-18
-3.43555e-20
0.00050306
-1.6126e-18
-3.64543e-20
-1.57021e-18
-3.39237e-20
0.000513937
-1.61874e-18
-3.51247e-20
-1.48829e-18
-3.56841e-20
0.000525031
-1.6018e-18
-3.50131e-20
-1.52247e-18
-4.10797e-20
0.000536345
-1.61557e-18
-3.58322e-20
-1.53777e-18
-4.29192e-20
0.000547883
-1.69369e-18
-4.07533e-20
-1.4434e-18
-3.65989e-20
0.000559649
-1.60475e-18
-4.02222e-20
-1.52825e-18
-3.38024e-20
0.000571646
-1.50111e-18
-4.36594e-20
-1.56295e-18
-3.1697e-20
0.000583877
-1.58006e-18
-4.89168e-20
-1.56783e-18
-3.3123e-20
0.000596347
-1.51229e-18
-4.48238e-20
-1.61695e-18
-3.31899e-20
0.000609058
-1.51892e-18
-4.58329e-20
-1.58522e-18
-3.32008e-20
0.000622013
-1.50505e-18
-5.11299e-20
-1.57695e-18
-3.46973e-20
0.000635217
-1.50704e-18
-5.3069e-20
-1.44891e-18
-3.1352e-20
0.000648672
-1.57592e-18
-5.02423e-20
-1.46487e-18
-3.70056e-20
0.000662382
-1.41423e-18
-4.8153e-20
-1.51029e-18
-4.20852e-20
0.000676348
-1.43527e-18
-5.47283e-20
-1.44477e-18
-4.53904e-20
0.000690575
-1.32716e-18
-5.90102e-20
-1.45415e-18
-4.73526e-20
0.000705065
-1.44722e-18
-7.3183e-20
-1.53077e-18
-4.50104e-20
0.000719819
-1.46971e-18
-6.97273e-20
-1.5351e-18
-4.0344e-20
0.000734841
-1.36635e-18
-6.01762e-20
-1.53859e-18
-3.44999e-20
0.000750132
-1.30106e-18
-5.95585e-20
-1.50354e-18
-2.70573e-20
0.000765694
-1.43153e-18
-6.43454e-20
-1.3957e-18
-2.68891e-20
0.000781528
-1.41243e-18
-6.9254e-20
-1.54578e-18
-3.66054e-20
0.000797634
-1.35959e-18
-6.14542e-20
-1.64728e-18
-3.48717e-20
0.000814014
-1.43473e-18
-6.64298e-20
-1.51206e-18
-2.89621e-20
0.000830667
-1.41593e-18
-6.35746e-20
-1.60746e-18
-3.21173e-20
0.000847591
-1.4342e-18
-6.08774e-20
-1.53217e-18
-1.93402e-20
0.000864787
-1.52143e-18
-5.67452e-20
-1.39651e-18
-1.42822e-20
0.000882251
-1.50626e-18
-6.48312e-20
-1.29076e-18
-1.5774e-20
0.00089998
-1.48623e-18
-6.38773e-20
-1.16146e-18
-2.04202e-20
0.000917971
-1.61632e-18
-5.69556e-20
-1.28372e-18
-2.84724e-20
0.000936218
-1.27307e-18
-3.06526e-20
-1.24337e-18
-2.56416e-20
0.000954716
-1.19063e-18
-3.61875e-20
-1.16968e-18
-1.63199e-20
0.000973458
-1.09159e-18
-3.38629e-20
-1.13804e-18
-1.03261e-20
0.000992434
-1.02841e-18
-4.10219e-20
-1.12728e-18
-1.35277e-20
0.00101164
-1.12652e-18
-6.28636e-20
-9.71377e-19
-5.53299e-21
0.00103105
-9.19678e-19
-5.61768e-20
-9.48152e-19
-3.01495e-21
0.00105067
-9.86256e-19
-2.89756e-20
-9.53412e-19
1.29839e-20
0.00107048
1.88829e-21
-8.57545e-19
2.147e-20
-7.93005e-19
1.11349e-08
-4.0217e-23
1.01191e-23
3.42356e-08
8.29244e-24
3.21334e-23
5.86258e-08
6.16165e-23
5.31459e-23
8.43614e-08
1.30487e-22
5.96209e-23
1.11501e-07
2.043e-22
6.65107e-23
1.40105e-07
2.67921e-22
1.03e-22
1.70236e-07
3.80249e-22
1.8189e-22
2.01961e-07
4.32934e-22
1.96247e-22
2.35348e-07
5.68332e-22
2.0765e-22
2.70466e-07
6.29845e-22
2.83798e-22
3.07391e-07
7.60974e-22
2.96463e-22
3.46198e-07
8.45015e-22
3.1702e-22
3.86967e-07
9.82617e-22
3.36192e-22
4.29781e-07
9.86049e-22
4.10319e-22
4.74727e-07
1.08754e-21
4.99474e-22
5.21892e-07
1.17749e-21
6.21252e-22
5.71371e-07
1.34257e-21
6.68912e-22
6.2326e-07
1.47052e-21
7.52453e-22
6.77659e-07
1.60251e-21
7.26368e-22
7.34672e-07
1.678e-21
9.16462e-22
7.94408e-07
1.82032e-21
9.17337e-22
8.56978e-07
1.93867e-21
1.18371e-21
9.22501e-07
2.03903e-21
1.18856e-21
9.91096e-07
2.34868e-21
1.23965e-21
1.06289e-06
2.68491e-21
1.10486e-21
1.13802e-06
2.65683e-21
1.06719e-21
1.21661e-06
2.92299e-21
1.40902e-21
1.2988e-06
2.99445e-21
1.40977e-21
1.38475e-06
3.12984e-21
1.51856e-21
1.47461e-06
3.28434e-21
1.51429e-21
1.56853e-06
3.29097e-21
1.59051e-21
1.66668e-06
3.15651e-21
1.90262e-21
1.76922e-06
3.11241e-21
2.1679e-21
1.87634e-06
3.24014e-21
2.40851e-21
1.98821e-06
3.10465e-21
2.80165e-21
2.10503e-06
3.56018e-21
2.83175e-21
2.22699e-06
4.11415e-21
3.04862e-21
2.35429e-06
4.1539e-21
3.15962e-21
2.48715e-06
3.98654e-21
3.74542e-21
2.62579e-06
4.14111e-21
4.31496e-21
2.77042e-06
4.43779e-21
4.2221e-21
2.92129e-06
4.58432e-21
4.49055e-21
3.07864e-06
5.03887e-21
4.86e-21
3.24271e-06
5.22938e-21
5.5521e-21
3.41376e-06
5.0071e-21
6.00504e-21
3.59206e-06
4.63125e-21
6.4923e-21
3.77788e-06
4.0878e-21
7.0802e-21
3.9715e-06
4.53002e-21
7.01207e-21
4.17322e-06
4.23661e-21
7.08038e-21
4.38332e-06
4.95604e-21
8.38312e-21
4.60213e-06
4.56637e-21
8.28042e-21
4.82993e-06
4.44283e-21
9.20403e-21
5.06707e-06
4.01313e-21
9.37226e-21
5.31386e-06
3.60354e-21
9.76572e-21
5.57063e-06
3.94514e-21
1.01828e-20
5.83771e-06
3.66158e-21
9.83687e-21
6.11546e-06
4.10829e-21
9.75079e-21
6.40421e-06
3.9289e-21
1.12869e-20
6.70432e-06
2.74699e-21
1.22714e-20
7.01612e-06
2.56213e-21
1.25453e-20
7.33996e-06
3.04006e-21
1.23055e-20
7.6762e-06
2.595e-21
1.23987e-20
8.02517e-06
1.91872e-21
1.33018e-20
8.38722e-06
1.77038e-21
1.33237e-20
8.76268e-06
-1.07282e-23
1.61987e-20
9.15188e-06
-9.9644e-22
1.63981e-20
9.55514e-06
-1.02061e-21
1.70722e-20
9.97277e-06
-1.21828e-21
1.80258e-20
1.04051e-05
-2.85218e-21
1.9101e-20
1.08523e-05
-3.47552e-21
2.04312e-20
1.13148e-05
-4.92139e-21
1.83704e-20
1.17928e-05
-5.21179e-21
1.87516e-20
1.22865e-05
-7.49421e-21
1.93583e-20
1.27962e-05
-1.01103e-20
1.77613e-20
1.33222e-05
-1.40969e-20
1.98562e-20
1.38645e-05
-1.68899e-20
2.00042e-20
1.44234e-05
-1.78639e-20
2.07178e-20
1.49992e-05
-2.18593e-20
2.06454e-20
1.5592e-05
-2.57608e-20
2.06771e-20
1.62019e-05
-2.78897e-20
1.99811e-20
1.68291e-05
-2.91809e-20
2.17273e-20
1.74739e-05
-3.37789e-20
2.1481e-20
1.81363e-05
-3.8421e-20
2.57113e-20
1.88165e-05
-3.84121e-20
2.72415e-20
1.95147e-05
-3.93287e-20
2.688e-20
2.02311e-05
-3.48395e-20
2.55472e-20
2.09658e-05
-3.31781e-20
3.06665e-20
2.1719e-05
-3.51598e-20
3.56346e-20
2.24909e-05
-3.7553e-20
3.81267e-20
2.32817e-05
-4.09829e-20
3.77653e-20
2.40916e-05
-4.24773e-20
4.02343e-20
2.49208e-05
-4.07921e-20
3.79604e-20
2.57697e-05
-4.68261e-20
3.74426e-20
2.66383e-05
-4.84826e-20
4.32996e-20
2.75271e-05
-5.13463e-20
5.13218e-20
2.84362e-05
-5.40498e-20
4.97362e-20
2.93661e-05
-5.58733e-20
4.85203e-20
3.03169e-05
-5.95832e-20
4.80254e-20
3.12891e-05
-6.25028e-20
5.3905e-20
3.22829e-05
-5.91416e-20
5.07261e-20
3.32988e-05
-6.52226e-20
4.76131e-20
3.43371e-05
-6.28238e-20
4.29808e-20
3.53982e-05
-6.65208e-20
4.1663e-20
3.64826e-05
-5.93344e-20
3.94876e-20
3.75906e-05
-6.98865e-20
3.6831e-20
3.87228e-05
-7.14848e-20
3.78088e-20
3.98795e-05
-7.51331e-20
3.87156e-20
4.10612e-05
-8.33507e-20
3.86479e-20
4.22685e-05
-8.86764e-20
3.77537e-20
4.35019e-05
-9.4282e-20
3.13253e-20
4.47618e-05
-9.22962e-20
3.44e-20
4.60489e-05
-9.73501e-20
3.52211e-20
4.73636e-05
-9.25785e-20
3.88189e-20
4.87065e-05
-9.32326e-20
3.3945e-20
5.00783e-05
-9.61613e-20
3.29193e-20
5.14795e-05
-9.00904e-20
3.03394e-20
5.29108e-05
-9.26549e-20
3.69534e-20
5.43727e-05
-1.10281e-19
4.47704e-20
5.5866e-05
-1.18134e-19
3.72271e-20
5.73913e-05
-1.22021e-19
3.87027e-20
5.89492e-05
-1.058e-19
2.33902e-20
6.05406e-05
-1.07936e-19
1.59563e-20
6.2166e-05
-9.06123e-20
1.05807e-20
6.38262e-05
-9.38488e-20
1.44585e-20
6.5522e-05
-9.47883e-20
7.37603e-21
6.72541e-05
-1.12367e-19
1.10723e-20
6.90233e-05
-1.29245e-19
1.3248e-20
7.08305e-05
-1.33216e-19
2.15957e-20
7.26763e-05
-1.25898e-19
1.44312e-20
7.45617e-05
-1.33806e-19
1.34428e-20
7.64875e-05
-1.59024e-19
1.25164e-20
7.84546e-05
-1.43827e-19
1.42946e-20
8.04638e-05
-1.42005e-19
-1.48221e-20
8.25161e-05
-1.51676e-19
-2.06013e-20
8.46124e-05
-1.74798e-19
-1.08563e-20
8.67537e-05
-1.83218e-19
3.93913e-22
8.89408e-05
-2.0694e-19
-2.23241e-21
9.11748e-05
-2.13734e-19
-4.795e-21
9.34567e-05
-2.11041e-19
-2.82469e-20
9.57875e-05
-2.39054e-19
-4.15346e-20
9.81683e-05
-2.45934e-19
-6.60282e-20
0.0001006
-2.50187e-19
-7.24477e-20
0.000103084
-2.42232e-19
-8.03938e-20
0.000105621
-2.42443e-19
-9.01348e-20
0.000108213
-2.57256e-19
-1.14411e-19
0.00011086
-2.42639e-19
-1.37817e-19
0.000113564
-2.74127e-19
-1.46613e-19
0.000116325
-2.79883e-19
-1.49537e-19
0.000119146
-2.92009e-19
-1.59086e-19
0.000122028
-3.11813e-19
-1.94406e-19
0.000124971
-3.42205e-19
-1.87126e-19
0.000127977
-3.47108e-19
-2.09697e-19
0.000131047
-3.17531e-19
-2.05919e-19
0.000134183
-3.18735e-19
-2.05121e-19
0.000137386
-3.38675e-19
-1.85753e-19
0.000140658
-3.69577e-19
-1.87599e-19
0.000144
-3.57967e-19
-2.24735e-19
0.000147413
-3.59567e-19
-2.30633e-19
0.000150899
-3.50987e-19
-2.03074e-19
0.000154459
-3.89248e-19
-1.90142e-19
0.000158096
-3.64729e-19
-2.20074e-19
0.00016181
-3.61639e-19
-2.14472e-19
0.000165603
-3.67006e-19
-2.03768e-19
0.000169477
-3.65942e-19
-2.28503e-19
0.000173434
-3.6059e-19
-2.0842e-19
0.000177476
-3.74252e-19
-2.2993e-19
0.000181603
-3.7836e-19
-2.43621e-19
0.000185818
-3.64443e-19
-2.40673e-19
0.000190123
-3.76281e-19
-2.67679e-19
0.00019452
-3.63793e-19
-2.67589e-19
0.00019901
-3.7432e-19
-2.80907e-19
0.000203595
-3.95896e-19
-2.51738e-19
0.000208278
-3.72583e-19
-2.54214e-19
0.00021306
-3.73594e-19
-2.74255e-19
0.000217943
-4.50314e-19
-2.61223e-19
0.00022293
-4.64561e-19
-2.96961e-19
0.000228023
-4.84103e-19
-3.32939e-19
0.000233224
-4.79401e-19
-3.30557e-19
0.000238534
-4.95597e-19
-3.7562e-19
0.000243957
-5.00892e-19
-3.94333e-19
0.000249494
-4.9025e-19
-4.14108e-19
0.000255148
-4.8236e-19
-4.42984e-19
0.000260921
-4.79346e-19
-4.72547e-19
0.000266816
-4.55071e-19
-3.92123e-19
0.000272835
-4.06622e-19
-3.98408e-19
0.000278981
-5.01322e-19
-4.22372e-19
0.000285255
-4.90467e-19
-4.80665e-19
0.000291662
-5.13045e-19
-5.0844e-19
0.000298202
-5.42075e-19
-5.32869e-19
0.00030488
-5.56436e-19
-4.97228e-19
0.000311697
-5.30979e-19
-5.58161e-19
0.000318657
-5.99851e-19
-5.43596e-19
0.000325762
-5.7148e-19
-6.03948e-19
0.000333015
-5.71321e-19
-6.08814e-19
0.000340419
-5.85671e-19
-6.46288e-19
0.000347977
-5.62126e-19
-5.56217e-19
0.000355692
-5.26925e-19
-5.99757e-19
0.000363567
-4.70371e-19
-5.87129e-19
0.000371605
-5.75251e-19
-5.40022e-19
0.000379809
-5.75679e-19
-5.70958e-19
0.000388182
-5.67973e-19
-6.37999e-19
0.000396728
-5.97029e-19
-6.43627e-19
0.000405449
-6.92741e-19
-6.72681e-19
0.000414349
-6.36699e-19
-6.46956e-19
0.000423432
-6.13349e-19
-6.98871e-19
0.0004327
-6.51029e-19
-7.06998e-19
0.000442157
-7.46801e-19
-6.42901e-19
0.000451806
-6.98217e-19
-6.24923e-19
0.000461651
-7.86986e-19
-5.77476e-19
0.000471696
-7.36195e-19
-6.7631e-19
0.000481943
-8.52887e-19
-6.62842e-19
0.000492397
-8.69245e-19
-7.41195e-19
0.00050306
-8.54613e-19
-8.33765e-19
0.000513937
-9.11175e-19
-8.10447e-19
0.000525031
-8.74729e-19
-7.72075e-19
0.000536345
-9.41727e-19
-6.8031e-19
0.000547883
-8.88124e-19
-7.04236e-19
0.000559649
-9.10495e-19
-7.94344e-19
0.000571646
-8.50478e-19
-9.09479e-19
0.000583877
-7.15103e-19
-8.1325e-19
0.000596347
-7.42191e-19
-8.06895e-19
0.000609058
-8.47943e-19
-8.63911e-19
0.000622013
-7.75827e-19
-7.70041e-19
0.000635217
-6.93559e-19
-7.59471e-19
0.000648672
-7.95347e-19
-7.6439e-19
0.000662382
-8.20401e-19
-7.9066e-19
0.000676348
-8.24057e-19
-8.02069e-19
0.000690575
-8.63637e-19
-8.21757e-19
0.000705065
-6.92797e-19
-7.45634e-19
0.000719819
-6.30337e-19
-6.81877e-19
0.000734841
-6.56645e-19
-6.93362e-19
0.000750132
-6.3786e-19
-7.02851e-19
0.000765694
-7.59078e-19
-7.10303e-19
0.000781528
-5.52357e-19
-7.13331e-19
0.000797634
-6.05107e-19
-7.09402e-19
0.000814014
-6.08443e-19
-7.15741e-19
0.000830667
-6.55912e-19
-7.57205e-19
0.000847591
-6.68624e-19
-8.23572e-19
0.000864787
-9.32981e-19
-7.41559e-19
0.000882251
-9.18823e-19
-7.82732e-19
0.00089998
-9.15203e-19
-8.70635e-19
0.000917971
-8.79304e-19
-9.17051e-19
0.000936218
-8.54153e-19
-7.84296e-19
0.000954716
-7.95357e-19
-8.24282e-19
0.000973458
-8.46628e-19
-9.27955e-19
0.000992434
-9.12184e-19
-7.91774e-19
0.00101164
-8.39725e-19
-7.20497e-19
0.00103105
-5.39148e-19
-6.45014e-19
0.00105067
-5.44117e-19
-6.31278e-19
0.00107048
-8.57078e-19
-5.79035e-19
0.00107048
-9.80596e-19
-2.74374e-20
-9.04429e-19
1.09969e-20
0.00105067
-1.02109e-18
-2.91385e-20
-7.95204e-19
1.35492e-20
0.00103105
-8.90268e-19
-1.02707e-20
-8.62641e-19
2.59826e-21
0.00101164
-7.25837e-19
1.53599e-21
-7.62418e-19
-1.17059e-20
0.000992434
-7.44465e-19
-1.96271e-21
-6.63372e-19
-3.33349e-20
0.000973458
-6.13354e-19
-1.32822e-20
-8.29337e-19
-2.60804e-20
0.000954716
-7.36386e-19
-1.66938e-20
-7.98964e-19
-1.95365e-20
0.000936218
-7.25996e-19
-1.01607e-20
-8.20251e-19
-1.01799e-20
0.000917971
-7.21877e-19
-1.49833e-20
-7.7318e-19
-4.70479e-21
0.00089998
-8.7652e-19
-2.01028e-20
-8.25432e-19
-1.97754e-20
0.000882251
-7.88948e-19
-1.22835e-20
-7.41634e-19
-2.81007e-20
0.000864787
-7.69012e-19
-2.31302e-20
-7.33647e-19
-3.09013e-20
0.000847591
-7.23104e-19
-1.29961e-20
-6.91145e-19
-2.12176e-20
0.000830667
-6.72867e-19
-7.18605e-21
-7.56402e-19
-1.44831e-20
0.000814014
-6.18925e-19
-1.32632e-20
-7.76392e-19
-7.38727e-21
0.000797634
-6.67655e-19
-2.18434e-20
-7.17135e-19
1.4756e-21
0.000781528
-6.43642e-19
-1.52515e-20
-5.11271e-19
7.65543e-21
0.000765694
-5.66086e-19
-1.15504e-20
-3.24863e-19
4.37423e-21
0.000750132
-3.52648e-19
-9.69471e-21
-4.99057e-19
-8.738e-21
0.000734841
-3.90874e-19
-1.01431e-20
-4.83374e-19
-9.40664e-21
0.000719819
-4.35695e-19
-8.42725e-21
-5.26288e-19
-2.03221e-20
0.000705065
-4.63448e-19
-1.72894e-20
-5.34848e-19
-2.07903e-20
0.000690575
-3.93909e-19
-2.05471e-20
-4.36051e-19
-2.21646e-20
0.000676348
-4.47626e-19
-2.38347e-20
-4.07666e-19
-2.42784e-20
0.000662382
-4.60625e-19
-2.45887e-20
-2.99453e-19
-2.47081e-20
0.000648672
-4.18378e-19
-1.85044e-20
-3.00942e-19
-2.42364e-20
0.000635217
-3.97443e-19
-1.58949e-20
-3.5824e-19
-1.7274e-20
0.000622013
-3.01533e-19
-1.11063e-20
-3.83385e-19
-1.05181e-20
0.000609058
-3.64399e-19
-9.38135e-21
-4.01876e-19
-5.22933e-21
0.000596347
-3.21866e-19
-7.52067e-21
-3.30799e-19
-4.39297e-22
0.000583877
-3.86586e-19
-8.57238e-21
-3.45145e-19
-3.00049e-22
0.000571646
-3.56265e-19
-3.46439e-21
-3.35731e-19
3.34487e-21
0.000559649
-2.6322e-19
-3.68258e-21
-3.45781e-19
7.10341e-21
0.000547883
-3.28751e-19
-5.04595e-21
-2.79862e-19
5.4522e-21
0.000536345
-2.91954e-19
-1.18778e-21
-3.08231e-19
1.36702e-21
0.000525031
-3.61186e-19
-1.96107e-21
-3.14259e-19
-3.33482e-21
0.000513937
-3.37811e-19
-2.71564e-21
-3.06568e-19
-5.27716e-21
0.00050306
-3.16566e-19
-1.1576e-21
-3.74079e-19
-6.4798e-21
0.000492397
-2.62613e-19
-5.26557e-22
-3.93584e-19
-7.28412e-21
0.000481943
-1.88056e-19
-3.04264e-21
-3.36557e-19
-7.52429e-21
0.000471696
-2.58688e-19
-5.95139e-21
-2.39678e-19
-5.44559e-21
0.000461651
-2.82391e-19
-5.28009e-21
-2.83226e-19
-4.30002e-21
0.000451806
-2.14008e-19
-5.01417e-21
-1.58572e-19
-2.32903e-21
0.000442157
-2.34262e-19
-5.64401e-21
-1.76464e-19
-2.44668e-21
0.0004327
-1.80721e-19
-4.07313e-21
-1.98448e-19
-1.05601e-21
0.000423432
-2.03341e-19
-4.5249e-21
-1.8589e-19
-6.48176e-22
0.000414349
-1.67523e-19
-1.7044e-21
-2.1002e-19
-4.03116e-21
0.000405449
-1.47125e-19
-1.01632e-21
-1.98763e-19
-6.02983e-21
0.000396728
-1.33159e-19
5.85452e-23
-2.06434e-19
-6.62557e-21
0.000388182
-1.25372e-19
-4.61033e-22
-1.83085e-19
-7.76321e-21
0.000379809
-1.69471e-19
5.29528e-23
-1.22419e-19
-8.40525e-21
0.000371605
-1.18662e-19
-6.92346e-22
-1.43767e-19
-8.45171e-21
0.000363567
-1.27294e-19
-1.858e-21
-1.63676e-19
-6.9645e-21
0.000355692
-1.1092e-19
-1.7659e-21
-1.42247e-19
-5.72953e-21
0.000347977
-1.2289e-19
-2.40191e-21
-1.18679e-19
-5.4411e-21
0.000340419
-9.24327e-20
-1.60721e-21
-1.3014e-19
-4.6944e-21
0.000333015
-6.23487e-20
-1.00465e-21
-1.19801e-19
-3.42336e-21
0.000325762
-9.9013e-20
-2.5603e-21
-4.21873e-20
-2.16472e-21
0.000318657
-1.2e-19
-4.09401e-21
-4.84604e-20
-2.44124e-21
0.000311697
-1.26492e-19
-4.34931e-21
-9.49042e-20
-3.22106e-21
0.00030488
-7.53399e-20
-4.179e-21
-1.53399e-19
-3.7605e-21
0.000298202
-1.20655e-19
-3.9145e-21
-1.69326e-19
-3.65237e-21
0.000291662
-1.02127e-19
-2.73087e-21
-1.60763e-19
-3.41651e-21
0.000285255
-1.52775e-19
-2.83915e-21
-1.04465e-19
-3.01392e-21
0.000278981
-1.07341e-19
-1.68246e-21
-1.17094e-19
-2.92729e-21
0.000272835
-9.64863e-20
-1.48971e-21
-5.7823e-20
-2.74537e-21
0.000266816
-1.28873e-19
-1.31459e-21