/*--------------------------------*- C++ -*----------------------------------*\
| =========                 |                                                 |
| \\      /  F ield         | OpenFOAM: The Open Source CFD Toolbox           |
|  \\    /   O peration     | Version:  2106                                  |
|   \\  /    A nd           | Website:  www.openfoam.com                      |
|    \\/     M anipulation  |                                                 |
\*---------------------------------------------------------------------------*/
FoamFile
{
    version     2.0;
    format      ascii;
    arch        "LSB;label=32;scalar=64";
    class       volSymmTensorField;
    location    "10050";
    object      turbulenceProperties:R;
}
// * * * * * * * * * * * * * * * * * * * * * * * * * * * * * * * * * * * * * //

dimensions      [0 2 -2 0 0 0 0];

internalField   nonuniform List<symmTensor> 
2000
(
(3.13761e-08 -1.87144e-13 -3.46368e-16 3.13761e-08 1.59006e-28 3.13761e-08)
(3.13761e-08 -1.87144e-13 -3.46368e-16 3.13761e-08 -1.70109e-31 3.13761e-08)
(4.75474e-09 -1.6337e-13 -9.12802e-16 4.75474e-09 -1.98254e-44 4.75474e-09)
(4.75474e-09 -1.6337e-13 -9.12802e-16 4.75474e-09 -1.89021e-31 4.75474e-09)
(2.52897e-09 -2.57278e-13 -1.99453e-15 2.52897e-09 2.34639e-29 2.52897e-09)
(2.52897e-09 -2.57278e-13 -1.99453e-15 2.52897e-09 -2.38978e-31 2.52897e-09)
(4.90087e-09 -1.06159e-12 -8.38353e-15 4.90087e-09 1.68588e-27 4.90087e-09)
(4.90087e-09 -1.06159e-12 -8.38353e-15 4.90087e-09 -1.96904e-30 4.90087e-09)
(1.16975e-08 -4.48909e-12 -3.61126e-14 1.16975e-08 3.14239e-27 1.16975e-08)
(1.16975e-08 -4.48909e-12 -3.61126e-14 1.16975e-08 -9.31768e-30 1.16975e-08)
(2.47432e-08 -1.50143e-11 -1.23037e-13 2.47432e-08 5.23082e-27 2.47432e-08)
(2.47432e-08 -1.50143e-11 -1.23037e-13 2.47432e-08 -3.41611e-29 2.47432e-08)
(4.65294e-08 -4.13667e-11 -3.45313e-13 4.65294e-08 7.3599e-27 4.65294e-08)
(4.65294e-08 -4.13667e-11 -3.45313e-13 4.65294e-08 -9.93875e-29 4.65294e-08)
(8.00361e-08 -9.87473e-11 -8.39688e-13 8.00361e-08 9.59472e-27 8.00361e-08)
(8.00361e-08 -9.87473e-11 -8.39688e-13 8.00361e-08 -2.40599e-28 8.00361e-08)
(1.28716e-07 -2.11659e-10 -1.83342e-12 1.28716e-07 2.04111e-26 1.28716e-07)
(1.28716e-07 -2.11659e-10 -1.83342e-12 1.28716e-07 -5.56838e-28 1.28716e-07)
(1.96516e-07 -4.17464e-10 -3.68361e-12 1.96516e-07 3.96743e-26 1.96516e-07)
(1.96516e-07 -4.17464e-10 -3.68361e-12 1.96516e-07 -1.20132e-27 1.96516e-07)
(2.87907e-07 -7.70788e-10 -6.9282e-12 2.87907e-07 7.31591e-26 2.87907e-07)
(2.87907e-07 -7.70788e-10 -6.9282e-12 2.87907e-07 -2.25722e-27 2.87907e-07)
(4.07928e-07 -1.34893e-09 -1.23511e-11 4.07928e-07 1.28139e-25 4.07928e-07)
(4.07928e-07 -1.34893e-09 -1.23511e-11 4.07928e-07 -3.88287e-27 4.07928e-07)
(5.62227e-07 -2.25842e-09 -2.10646e-11 5.62227e-07 2.15318e-25 5.62227e-07)
(5.62227e-07 -2.25842e-09 -2.10646e-11 5.62227e-07 -6.69226e-27 5.62227e-07)
(7.57115e-07 -3.643e-09 -3.46128e-11 7.57115e-07 3.4902e-25 7.57115e-07)
(7.57115e-07 -3.643e-09 -3.46128e-11 7.57115e-07 -1.20392e-26 7.57115e-07)
(9.99612e-07 -5.69306e-09 -5.51004e-11 9.99612e-07 5.48065e-25 9.99612e-07)
(9.99612e-07 -5.69306e-09 -5.51004e-11 9.99612e-07 -1.98767e-26 9.99612e-07)
(1.29751e-06 -8.65709e-09 -8.53516e-11 1.29751e-06 8.39118e-25 1.29751e-06)
(1.29751e-06 -8.65709e-09 -8.53516e-11 1.29751e-06 -3.06052e-26 1.29751e-06)
(1.65945e-06 -1.28551e-08 -1.29106e-10 1.65945e-06 1.25352e-24 1.65945e-06)
(1.65945e-06 -1.28551e-08 -1.29106e-10 1.65945e-06 -4.75295e-26 1.65945e-06)
(2.09495e-06 -1.86945e-08 -1.91256e-10 2.09495e-06 1.82885e-24 2.09495e-06)
(2.09495e-06 -1.86945e-08 -1.91256e-10 2.09495e-06 -7.13202e-26 2.09495e-06)
(2.61453e-06 -2.66889e-08 -2.7814e-10 2.61453e-06 2.62095e-24 2.61453e-06)
(2.61453e-06 -2.66889e-08 -2.7814e-10 2.61453e-06 -1.09116e-25 2.61453e-06)
(3.22973e-06 -3.74802e-08 -3.97892e-10 3.22973e-06 3.69857e-24 3.22973e-06)
(3.22973e-06 -3.74802e-08 -3.97892e-10 3.22973e-06 -1.55319e-25 3.22973e-06)
(3.95326e-06 -5.18639e-08 -5.60865e-10 3.95326e-06 5.13148e-24 3.95326e-06)
(3.95326e-06 -5.18639e-08 -5.60865e-10 3.95326e-06 -1.96501e-25 3.95326e-06)
(4.79903e-06 -7.08193e-08 -7.80145e-10 4.79903e-06 7.02935e-24 4.79903e-06)
(4.79903e-06 -7.08193e-08 -7.80145e-10 4.79903e-06 -2.81962e-25 4.79903e-06)
(5.78229e-06 -9.55441e-08 -1.07216e-09 5.78229e-06 9.54317e-24 5.78229e-06)
(5.78229e-06 -9.55441e-08 -1.07216e-09 5.78229e-06 -4.7444e-25 5.78229e-06)
(6.9197e-06 -1.27494e-07 -1.45739e-09 6.9197e-06 1.27676e-23 6.9197e-06)
(6.9197e-06 -1.27494e-07 -1.45739e-09 6.9197e-06 -6.45723e-25 6.9197e-06)
(8.22945e-06 -1.68431e-07 -1.96126e-09 8.22945e-06 1.68905e-23 8.22945e-06)
(8.22945e-06 -1.68431e-07 -1.96126e-09 8.22945e-06 -8.16754e-25 8.22945e-06)
(9.7314e-06 -2.20473e-07 -2.61517e-09 9.7314e-06 2.21811e-23 9.7314e-06)
(9.7314e-06 -2.20473e-07 -2.61517e-09 9.7314e-06 -1.181e-24 9.7314e-06)
(1.14472e-05 -2.86158e-07 -3.45764e-09 1.14472e-05 2.88511e-23 1.14472e-05)
(1.14472e-05 -2.86158e-07 -3.45764e-09 1.14472e-05 -1.58448e-24 1.14472e-05)
(1.34003e-05 -3.68514e-07 -4.53584e-09 1.34003e-05 3.72396e-23 1.34003e-05)
(1.34003e-05 -3.68514e-07 -4.53584e-09 1.34003e-05 -2.21645e-24 1.34003e-05)
(1.56162e-05 -4.71136e-07 -5.90717e-09 1.56162e-05 4.754e-23 1.56162e-05)
(1.56162e-05 -4.71136e-07 -5.90717e-09 1.56162e-05 -2.82042e-24 1.56162e-05)
(1.81229e-05 -5.98281e-07 -7.6413e-09 1.81229e-05 6.03976e-23 1.81229e-05)
(1.81229e-05 -5.98281e-07 -7.6413e-09 1.81229e-05 -3.52559e-24 1.81229e-05)
(2.09502e-05 -7.54965e-07 -9.82241e-09 2.09502e-05 7.65087e-23 2.09502e-05)
(2.09502e-05 -7.54965e-07 -9.82241e-09 2.09502e-05 -4.61621e-24 2.09502e-05)
(2.4131e-05 -9.47087e-07 -1.25519e-08 2.4131e-05 9.6353e-23 2.4131e-05)
(2.4131e-05 -9.47087e-07 -1.25519e-08 2.4131e-05 -4.88844e-24 2.4131e-05)
(2.77003e-05 -1.18155e-06 -1.59515e-08 2.77003e-05 1.20408e-22 2.77003e-05)
(2.77003e-05 -1.18155e-06 -1.59515e-08 2.77003e-05 -5.30378e-24 2.77003e-05)
(3.16964e-05 -1.46643e-06 -2.01667e-08 3.16964e-05 1.49483e-22 3.16964e-05)
(3.16964e-05 -1.46643e-06 -2.01667e-08 3.16964e-05 -5.95638e-24 3.16964e-05)
(3.61605e-05 -1.8111e-06 -2.53714e-08 3.61605e-05 1.85008e-22 3.61605e-05)
(3.61605e-05 -1.8111e-06 -2.53714e-08 3.61605e-05 -8.12934e-24 3.61605e-05)
(4.1137e-05 -2.22645e-06 -3.17719e-08 4.1137e-05 2.28687e-22 4.1137e-05)
(4.1137e-05 -2.22645e-06 -3.17719e-08 4.1137e-05 -9.90542e-24 4.1137e-05)
(4.66738e-05 -2.72511e-06 -3.9613e-08 4.66738e-05 2.8148e-22 4.66738e-05)
(4.66738e-05 -2.72511e-06 -3.9613e-08 4.66738e-05 -1.02318e-23 4.66738e-05)
(5.28223e-05 -3.32159e-06 -4.91842e-08 5.28223e-05 3.4341e-22 5.28223e-05)
(5.28223e-05 -3.32159e-06 -4.91842e-08 5.28223e-05 -1.0601e-23 5.28223e-05)
(5.9638e-05 -4.03263e-06 -6.08264e-08 5.9638e-05 4.18166e-22 5.9638e-05)
(5.9638e-05 -4.03263e-06 -6.08264e-08 5.9638e-05 -1.32026e-23 5.9638e-05)
(6.71804e-05 -4.8774e-06 -7.49404e-08 6.71804e-05 5.09257e-22 6.71804e-05)
(6.71804e-05 -4.8774e-06 -7.49404e-08 6.71804e-05 -2.16151e-23 6.71804e-05)
(7.5513e-05 -5.87785e-06 -9.19957e-08 7.5513e-05 6.14278e-22 7.5513e-05)
(7.5513e-05 -5.87785e-06 -9.19957e-08 7.5513e-05 -3.56981e-23 7.5513e-05)
(8.47043e-05 -7.05896e-06 -1.12541e-07 8.47043e-05 7.512e-22 8.47043e-05)
(8.47043e-05 -7.05896e-06 -1.12541e-07 8.47043e-05 -3.93424e-23 8.47043e-05)
(9.4827e-05 -8.44915e-06 -1.37215e-07 9.4827e-05 8.8896e-22 9.4827e-05)
(9.4827e-05 -8.44915e-06 -1.37215e-07 9.4827e-05 -4.29244e-23 9.4827e-05)
(0.000105959 -1.00806e-05 -1.6676e-07 0.000105959 1.07181e-21 0.000105959)
(0.000105959 -1.00806e-05 -1.6676e-07 0.000105959 -4.9248e-23 0.000105959)
(0.000118183 -1.19897e-05 -2.02036e-07 0.000118183 1.26366e-21 0.000118183)
(0.000118183 -1.19897e-05 -2.02036e-07 0.000118183 -5.77687e-23 0.000118183)
(0.000131587 -1.42172e-05 -2.44032e-07 0.000131587 1.49791e-21 0.000131587)
(0.000131587 -1.42172e-05 -2.44032e-07 0.000131587 -6.05649e-23 0.000131587)
(0.000146265 -1.6809e-05 -2.93891e-07 0.000146265 1.77345e-21 0.000146265)
(0.000146265 -1.6809e-05 -2.93891e-07 0.000146265 -6.46777e-23 0.000146265)
(0.000162314 -1.98162e-05 -3.52918e-07 0.000162314 2.10135e-21 0.000162314)
(0.000162314 -1.98162e-05 -3.52918e-07 0.000162314 -1.01211e-22 0.000162314)
(0.000179841 -2.32958e-05 -4.22606e-07 0.000179841 2.48609e-21 0.000179841)
(0.000179841 -2.32958e-05 -4.22606e-07 0.000179841 -1.29408e-22 0.000179841)
(0.000198953 -2.73107e-05 -5.04653e-07 0.000198953 2.8959e-21 0.000198953)
(0.000198953 -2.73107e-05 -5.04653e-07 0.000198953 -7.53434e-23 0.000198953)
(0.000219767 -3.19304e-05 -6.00982e-07 0.000219767 3.37601e-21 0.000219767)
(0.000219767 -3.19304e-05 -6.00982e-07 0.000219767 -4.73211e-23 0.000219767)
(0.000242402 -3.72311e-05 -7.13766e-07 0.000242402 3.97761e-21 0.000242402)
(0.000242402 -3.72311e-05 -7.13766e-07 0.000242402 -1.14912e-22 0.000242402)
(0.000266984 -4.32956e-05 -8.45442e-07 0.000266984 4.66475e-21 0.000266984)
(0.000266984 -4.32956e-05 -8.45442e-07 0.000266984 -1.37272e-22 0.000266984)
(0.000293642 -5.02143e-05 -9.98736e-07 0.000293642 5.43862e-21 0.000293642)
(0.000293642 -5.02143e-05 -9.98736e-07 0.000293642 -7.97979e-23 0.000293642)
(0.000322511 -5.8084e-05 -1.17668e-06 0.000322511 6.3045e-21 0.000322511)
(0.000322511 -5.8084e-05 -1.17668e-06 0.000322511 -6.1963e-24 0.000322511)
(0.000353727 -6.70087e-05 -1.38263e-06 0.000353727 7.29306e-21 0.000353727)
(0.000353727 -6.70087e-05 -1.38263e-06 0.000353727 7.74049e-23 0.000353727)
(0.00038743 -7.70989e-05 -1.62028e-06 0.00038743 8.3499e-21 0.00038743)
(0.00038743 -7.70989e-05 -1.62028e-06 0.00038743 9.28561e-23 0.00038743)
(0.000423763 -8.84708e-05 -1.89366e-06 0.000423763 9.63305e-21 0.000423763)
(0.000423763 -8.84708e-05 -1.89366e-06 0.000423763 8.06092e-23 0.000423763)
(0.000462868 -0.000101246 -2.20716e-06 0.000462868 1.10501e-20 0.000462868)
(0.000462868 -0.000101246 -2.20716e-06 0.000462868 2.40801e-22 0.000462868)
(0.000504887 -0.00011555 -2.56549e-06 0.000504887 1.25274e-20 0.000504887)
(0.000504887 -0.00011555 -2.56549e-06 0.000504887 6.33986e-22 0.000504887)
(0.000549958 -0.000131511 -2.97373e-06 0.000549958 1.43468e-20 0.000549958)
(0.000549958 -0.000131511 -2.97373e-06 0.000549958 9.57905e-22 0.000549958)
(0.000598219 -0.000149258 -3.43724e-06 0.000598219 1.62021e-20 0.000598219)
(0.000598219 -0.000149258 -3.43724e-06 0.000598219 8.0225e-22 0.000598219)
(0.000649798 -0.000168921 -3.96167e-06 0.000649798 1.79518e-20 0.000649798)
(0.000649798 -0.000168921 -3.96167e-06 0.000649798 1.09732e-21 0.000649798)
(0.00070482 -0.000190626 -4.55292e-06 0.00070482 2.01528e-20 0.00070482)
(0.00070482 -0.000190626 -4.55292e-06 0.00070482 1.89144e-21 0.00070482)
(0.000763397 -0.000214493 -5.21706e-06 0.000763397 2.23291e-20 0.000763397)
(0.000763397 -0.000214493 -5.21706e-06 0.000763397 2.55044e-21 0.000763397)
(0.000825629 -0.000240635 -5.96032e-06 0.000825629 2.49633e-20 0.000825629)
(0.000825629 -0.000240635 -5.96032e-06 0.000825629 3.47039e-21 0.000825629)
(0.000891603 -0.000269155 -6.78894e-06 0.000891603 2.83466e-20 0.000891603)
(0.000891603 -0.000269155 -6.78894e-06 0.000891603 4.39705e-21 0.000891603)
(0.00096139 -0.000300141 -7.70916e-06 0.00096139 3.11509e-20 0.00096139)
(0.00096139 -0.000300141 -7.70916e-06 0.00096139 4.91959e-21 0.00096139)
(0.00103504 -0.000333667 -8.72709e-06 0.00103504 3.41934e-20 0.00103504)
(0.00103504 -0.000333667 -8.72709e-06 0.00103504 5.73204e-21 0.00103504)
(0.00111258 -0.000369786 -9.84861e-06 0.00111258 3.78092e-20 0.00111258)
(0.00111258 -0.000369786 -9.84861e-06 0.00111258 7.44453e-21 0.00111258)
(0.00119403 -0.000408533 -1.10793e-05 0.00119403 4.04335e-20 0.00119403)
(0.00119403 -0.000408533 -1.10793e-05 0.00119403 9.5793e-21 0.00119403)
(0.00127936 -0.000449917 -1.24244e-05 0.00127936 4.36338e-20 0.00127936)
(0.00127936 -0.000449917 -1.24244e-05 0.00127936 1.18956e-20 0.00127936)
(0.00136853 -0.000493924 -1.38884e-05 0.00136853 4.74235e-20 0.00136853)
(0.00136853 -0.000493924 -1.38884e-05 0.00136853 1.4615e-20 0.00136853)
(0.00146148 -0.000540514 -1.54756e-05 0.00146148 5.1663e-20 0.00146148)
(0.00146148 -0.000540514 -1.54756e-05 0.00146148 1.77718e-20 0.00146148)
(0.0015581 -0.00058962 -1.71893e-05 0.0015581 5.65733e-20 0.0015581)
(0.0015581 -0.00058962 -1.71893e-05 0.0015581 1.99971e-20 0.0015581)
(0.00165828 -0.00064115 -1.90323e-05 0.00165828 5.98231e-20 0.00165828)
(0.00165828 -0.00064115 -1.90323e-05 0.00165828 2.25973e-20 0.00165828)
(0.00176185 -0.000694988 -2.10064e-05 0.00176185 6.25056e-20 0.00176185)
(0.00176185 -0.000694988 -2.10064e-05 0.00176185 2.78066e-20 0.00176185)
(0.00186865 -0.000750994 -2.3113e-05 0.00186865 7.27074e-20 0.00186865)
(0.00186865 -0.000750994 -2.3113e-05 0.00186865 3.43898e-20 0.00186865)
(0.00197848 -0.000809004 -2.53522e-05 0.00197848 8.07233e-20 0.00197848)
(0.00197848 -0.000809004 -2.53522e-05 0.00197848 4.24288e-20 0.00197848)
(0.00209111 -0.000868839 -2.77239e-05 0.00209111 7.49627e-20 0.00209111)
(0.00209111 -0.000868839 -2.77239e-05 0.00209111 5.15366e-20 0.00209111)
(0.0022063 -0.000930303 -3.02268e-05 0.0022063 8.43714e-20 0.0022063)
(0.0022063 -0.000930303 -3.02268e-05 0.0022063 5.7769e-20 0.0022063)
(0.00232379 -0.000993186 -3.28591e-05 0.00232379 8.89242e-20 0.00232379)
(0.00232379 -0.000993186 -3.28591e-05 0.00232379 6.40616e-20 0.00232379)
(0.00244331 -0.00105727 -3.56185e-05 0.00244331 9.8686e-20 0.00244331)
(0.00244331 -0.00105727 -3.56185e-05 0.00244331 8.0871e-20 0.00244331)
(0.00256458 -0.00112234 -3.85019e-05 0.00256458 1.05495e-19 0.00256458)
(0.00256458 -0.00112234 -3.85019e-05 0.00256458 9.87713e-20 0.00256458)
(0.00268729 -0.00118816 -4.15059e-05 0.00268729 1.07611e-19 0.00268729)
(0.00268729 -0.00118816 -4.15059e-05 0.00268729 1.13047e-19 0.00268729)
(0.00281117 -0.00125451 -4.46266e-05 0.00281117 1.0739e-19 0.00281117)
(0.00281117 -0.00125451 -4.46266e-05 0.00281117 1.31455e-19 0.00281117)
(0.0029359 -0.00132117 -4.78598e-05 0.0029359 1.0573e-19 0.0029359)
(0.0029359 -0.00132117 -4.78598e-05 0.0029359 1.51555e-19 0.0029359)
(0.00306119 -0.00138793 -5.12013e-05 0.00306119 1.12268e-19 0.00306119)
(0.00306119 -0.00138793 -5.12013e-05 0.00306119 1.67488e-19 0.00306119)
(0.00318676 -0.00145459 -5.46465e-05 0.00318676 1.33795e-19 0.00318676)
(0.00318676 -0.00145459 -5.46465e-05 0.00318676 1.7159e-19 0.00318676)
(0.00331232 -0.00152095 -5.81909e-05 0.00331232 1.48756e-19 0.00331232)
(0.00331232 -0.00152095 -5.81909e-05 0.00331232 1.89311e-19 0.00331232)
(0.00343759 -0.00158683 -6.18299e-05 0.00343759 1.54359e-19 0.00343759)
(0.00343759 -0.00158683 -6.18299e-05 0.00343759 2.15461e-19 0.00343759)
(0.00356232 -0.00165208 -6.55591e-05 0.00356232 1.68129e-19 0.00356232)
(0.00356232 -0.00165208 -6.55591e-05 0.00356232 2.34825e-19 0.00356232)
(0.00368626 -0.00171653 -6.93741e-05 0.00368626 1.80685e-19 0.00368626)
(0.00368626 -0.00171653 -6.93741e-05 0.00368626 2.83878e-19 0.00368626)
(0.00380917 -0.00178006 -7.32708e-05 0.00380917 1.94795e-19 0.00380917)
(0.00380917 -0.00178006 -7.32708e-05 0.00380917 3.21489e-19 0.00380917)
(0.00393083 -0.00184253 -7.72453e-05 0.00393083 2.2207e-19 0.00393083)
(0.00393083 -0.00184253 -7.72453e-05 0.00393083 3.32047e-19 0.00393083)
(0.00405105 -0.00190385 -8.12938e-05 0.00405105 2.29087e-19 0.00405105)
(0.00405105 -0.00190385 -8.12938e-05 0.00405105 3.66285e-19 0.00405105)
(0.00416963 -0.00196392 -8.54129e-05 0.00416963 2.38924e-19 0.00416963)
(0.00416963 -0.00196392 -8.54129e-05 0.00416963 4.18294e-19 0.00416963)
(0.00428642 -0.00202267 -8.95994e-05 0.00428642 2.7703e-19 0.00428642)
(0.00428642 -0.00202267 -8.95994e-05 0.00428642 4.59718e-19 0.00428642)
(0.00440125 -0.00208002 -9.38503e-05 0.00440125 3.16819e-19 0.00440125)
(0.00440125 -0.00208002 -9.38503e-05 0.00440125 4.90278e-19 0.00440125)
(0.004514 -0.00213592 -9.8163e-05 0.004514 3.29032e-19 0.004514)
(0.004514 -0.00213592 -9.8163e-05 0.004514 5.30711e-19 0.004514)
(0.00462454 -0.00219033 -0.000102535 0.00462454 3.79007e-19 0.00462454)
(0.00462454 -0.00219033 -0.000102535 0.00462454 5.84291e-19 0.00462454)
(0.00473277 -0.00224322 -0.000106965 0.00473277 3.71317e-19 0.00473277)
(0.00473277 -0.00224322 -0.000106965 0.00473277 7.23807e-19 0.00473277)
(0.00483861 -0.00229457 -0.00011145 0.00483861 3.33112e-19 0.00483861)
(0.00483861 -0.00229457 -0.00011145 0.00483861 8.60912e-19 0.00483861)
(0.00494197 -0.00234435 -0.000115989 0.00494197 3.81827e-19 0.00494197)
(0.00494197 -0.00234435 -0.000115989 0.00494197 9.05959e-19 0.00494197)
(0.0050428 -0.00239256 -0.000120581 0.0050428 4.37241e-19 0.0050428)
(0.0050428 -0.00239256 -0.000120581 0.0050428 9.57472e-19 0.0050428)
(0.00514104 -0.0024392 -0.000125224 0.00514104 4.57902e-19 0.00514104)
(0.00514104 -0.0024392 -0.000125224 0.00514104 9.98302e-19 0.00514104)
(0.00523666 -0.00248428 -0.000129917 0.00523666 4.43324e-19 0.00523666)
(0.00523666 -0.00248428 -0.000129917 0.00523666 1.02943e-18 0.00523666)
(0.00532963 -0.0025278 -0.000134661 0.00532963 5.089e-19 0.00532963)
(0.00532963 -0.0025278 -0.000134661 0.00532963 1.11502e-18 0.00532963)
(0.00541993 -0.00256978 -0.000139453 0.00541993 5.77821e-19 0.00541993)
(0.00541993 -0.00256978 -0.000139453 0.00541993 1.18675e-18 0.00541993)
(0.00550756 -0.00261025 -0.000144295 0.00550756 6.20501e-19 0.00550756)
(0.00550756 -0.00261025 -0.000144295 0.00550756 1.2695e-18 0.00550756)
(0.0055925 -0.00264921 -0.000149185 0.0055925 6.31896e-19 0.0055925)
(0.0055925 -0.00264921 -0.000149185 0.0055925 1.39225e-18 0.0055925)
(0.00567477 -0.00268669 -0.000154123 0.00567477 1.76445e-18 0.00567477)
(0.00567477 -0.00268669 -0.000154123 0.00567477 1.48633e-18 0.00567477)
(0.00575437 -0.00272272 -0.00015911 0.00575437 3.48974e-18 0.00575437)
(0.00575437 -0.00272272 -0.00015911 0.00575437 1.60319e-18 0.00575437)
(0.00583133 -0.00275733 -0.000164146 0.00583133 4.16532e-18 0.00583133)
(0.00583133 -0.00275733 -0.000164146 0.00583133 1.78189e-18 0.00583133)
(0.00590566 -0.00279055 -0.00016923 0.00590566 4.49714e-18 0.00590566)
(0.00590566 -0.00279055 -0.00016923 0.00590566 2.00532e-18 0.00590566)
(0.0059774 -0.0028224 -0.000174364 0.0059774 4.49232e-18 0.0059774)
(0.0059774 -0.0028224 -0.000174364 0.0059774 2.11086e-18 0.0059774)
(0.00604656 -0.00285292 -0.000179547 0.00604656 4.45106e-18 0.00604656)
(0.00604656 -0.00285292 -0.000179547 0.00604656 2.2157e-18 0.00604656)
(0.00611319 -0.00288214 -0.00018478 0.00611319 4.79736e-18 0.00611319)
(0.00611319 -0.00288214 -0.00018478 0.00611319 2.39358e-18 0.00611319)
(0.00617732 -0.00291008 -0.000190064 0.00617732 5.30911e-18 0.00617732)
(0.00617732 -0.00291008 -0.000190064 0.00617732 2.63443e-18 0.00617732)
(0.00623899 -0.00293679 -0.000195398 0.00623899 5.51665e-18 0.00623899)
(0.00623899 -0.00293679 -0.000195398 0.00623899 2.85248e-18 0.00623899)
(0.00629823 -0.00296229 -0.000200784 0.00629823 5.3194e-18 0.00629823)
(0.00629823 -0.00296229 -0.000200784 0.00629823 2.99394e-18 0.00629823)
(0.00635509 -0.00298661 -0.000206222 0.00635509 5.55919e-18 0.00635509)
(0.00635509 -0.00298661 -0.000206222 0.00635509 3.30917e-18 0.00635509)
(0.00640961 -0.00300978 -0.000211713 0.00640961 5.78469e-18 0.00640961)
(0.00640961 -0.00300978 -0.000211713 0.00640961 3.66269e-18 0.00640961)
(0.00646183 -0.00303183 -0.000217258 0.00646183 5.95045e-18 0.00646183)
(0.00646183 -0.00303183 -0.000217258 0.00646183 3.78589e-18 0.00646183)
(0.00651179 -0.0030528 -0.000222857 0.00651179 6.64488e-18 0.00651179)
(0.00651179 -0.0030528 -0.000222857 0.00651179 3.90085e-18 0.00651179)
(0.00655955 -0.0030727 -0.00022851 0.00655955 7.18454e-18 0.00655955)
(0.00655955 -0.0030727 -0.00022851 0.00655955 4.21042e-18 0.00655955)
(0.00660513 -0.00309158 -0.000234219 0.00660513 7.54563e-18 0.00660513)
(0.00660513 -0.00309158 -0.000234219 0.00660513 4.49466e-18 0.00660513)
(0.00664859 -0.00310944 -0.000239984 0.00664859 7.9824e-18 0.00664859)
(0.00664859 -0.00310944 -0.000239984 0.00664859 4.74752e-18 0.00664859)
(0.00668996 -0.00312633 -0.000245806 0.00668996 5.84664e-18 0.00668996)
(0.00668996 -0.00312633 -0.000245806 0.00668996 4.97483e-18 0.00668996)
(0.00672929 -0.00314227 -0.000251686 0.00672929 5.16587e-19 0.00672929)
(0.00672929 -0.00314227 -0.000251686 0.00672929 5.02945e-18 0.00672929)
(0.00676663 -0.00315727 -0.000257624 0.00676663 -1.10093e-18 0.00676663)
(0.00676663 -0.00315727 -0.000257624 0.00676663 5.32655e-18 0.00676663)
(0.006802 -0.00317137 -0.00026362 0.006802 -5.87198e-19 0.006802)
(0.006802 -0.00317137 -0.00026362 0.006802 5.57247e-18 0.006802)
(0.00683546 -0.00318458 -0.000269676 0.00683546 -5.35834e-19 0.00683546)
(0.00683546 -0.00318458 -0.000269676 0.00683546 6.94327e-18 0.00683546)
(0.00686704 -0.00319693 -0.000275792 0.00686704 -4.21015e-19 0.00686704)
(0.00686704 -0.00319693 -0.000275792 0.00686704 9.10135e-18 0.00686704)
(0.00689678 -0.00320844 -0.000281968 0.00689678 2.76611e-20 0.00689678)
(0.00689678 -0.00320844 -0.000281968 0.00689678 9.46446e-18 0.00689678)
(0.00692472 -0.00321913 -0.000288205 0.00692472 -1.59892e-19 0.00692472)
(0.00692472 -0.00321913 -0.000288205 0.00692472 9.03778e-18 0.00692472)
(0.00695089 -0.00322902 -0.000294504 0.00695089 -3.82854e-19 0.00695089)
(0.00695089 -0.00322902 -0.000294504 0.00695089 8.61265e-18 0.00695089)
(0.00697533 -0.00323812 -0.000300864 0.00697533 -4.59076e-19 0.00697533)
(0.00697533 -0.00323812 -0.000300864 0.00697533 8.23079e-18 0.00697533)
(0.00699807 -0.00324646 -0.000307287 0.00699807 -6.82726e-19 0.00699807)
(0.00699807 -0.00324646 -0.000307287 0.00699807 8.68965e-18 0.00699807)
(0.00701915 -0.00325405 -0.000313772 0.00701915 -1.00631e-18 0.00701915)
(0.00701915 -0.00325405 -0.000313772 0.00701915 9.7292e-18 0.00701915)
(0.0070386 -0.0032609 -0.00032032 0.0070386 -3.17159e-19 0.0070386)
(0.0070386 -0.0032609 -0.00032032 0.0070386 1.05182e-17 0.0070386)
(0.00705645 -0.00326704 -0.000326931 0.00705645 1.16804e-18 0.00705645)
(0.00705645 -0.00326704 -0.000326931 0.00705645 1.07937e-17 0.00705645)
(0.00707272 -0.00327246 -0.000333605 0.00707272 1.54044e-18 0.00707272)
(0.00707272 -0.00327246 -0.000333605 0.00707272 1.1006e-17 0.00707272)
(0.00708746 -0.0032772 -0.000340343 0.00708746 1.7799e-18 0.00708746)
(0.00708746 -0.0032772 -0.000340343 0.00708746 1.15785e-17 0.00708746)
(0.00710068 -0.00328126 -0.000347143 0.00710068 2.32586e-18 0.00710068)
(0.00710068 -0.00328126 -0.000347143 0.00710068 1.24458e-17 0.00710068)
(0.0071124 -0.00328466 -0.000354007 0.0071124 1.55641e-18 0.0071124)
(0.0071124 -0.00328466 -0.000354007 0.0071124 1.33711e-17 0.0071124)
(0.00712267 -0.00328739 -0.000360934 0.00712267 1.0723e-18 0.00712267)
(0.00712267 -0.00328739 -0.000360934 0.00712267 1.43543e-17 0.00712267)
(0.00713149 -0.00328949 -0.000367924 0.00713149 8.80969e-19 0.00713149)
(0.00713149 -0.00328949 -0.000367924 0.00713149 1.50521e-17 0.00713149)
(0.0071389 -0.00329095 -0.000374977 0.0071389 2.89882e-19 0.0071389)
(0.0071389 -0.00329095 -0.000374977 0.0071389 1.56221e-17 0.0071389)
(0.00714492 -0.00329178 -0.000382091 0.00714492 4.78979e-19 0.00714492)
(0.00714492 -0.00329178 -0.000382091 0.00714492 1.69638e-17 0.00714492)
(0.00714955 -0.003292 -0.000389267 0.00714955 6.20163e-19 0.00714955)
(0.00714955 -0.003292 -0.000389267 0.00714955 1.80435e-17 0.00714955)
(0.00715284 -0.00329161 -0.000396505 0.00715284 2.91809e-19 0.00715284)
(0.00715284 -0.00329161 -0.000396505 0.00715284 1.90262e-17 0.00715284)
(0.00715479 -0.00329062 -0.000403803 0.00715479 -8.23574e-19 0.00715479)
(0.00715479 -0.00329062 -0.000403803 0.00715479 2.09226e-17 0.00715479)
(0.00715542 -0.00328903 -0.00041116 0.00715542 -2.3324e-18 0.00715542)
(0.00715542 -0.00328903 -0.00041116 0.00715542 2.16954e-17 0.00715542)
(0.00715475 -0.00328686 -0.000418576 0.00715475 -2.83695e-19 0.00715475)
(0.00715475 -0.00328686 -0.000418576 0.00715475 2.05904e-17 0.00715475)
(0.00715279 -0.00328411 -0.00042605 0.00715279 1.27089e-18 0.00715279)
(0.00715279 -0.00328411 -0.00042605 0.00715279 1.93439e-17 0.00715279)
(0.00714956 -0.00328078 -0.000433581 0.00714956 1.08518e-18 0.00714956)
(0.00714956 -0.00328078 -0.000433581 0.00714956 2.04217e-17 0.00714956)
(0.00714508 -0.00327689 -0.000441167 0.00714508 -5.41799e-20 0.00714508)
(0.00714508 -0.00327689 -0.000441167 0.00714508 2.24856e-17 0.00714508)
(0.00713935 -0.00327242 -0.000448806 0.00713935 -6.54685e-19 0.00713935)
(0.00713935 -0.00327242 -0.000448806 0.00713935 2.25974e-17 0.00713935)
(0.00713239 -0.0032674 -0.000456498 0.00713239 2.95628e-19 0.00713239)
(0.00713239 -0.0032674 -0.000456498 0.00713239 2.16618e-17 0.00713239)
(0.0071242 -0.00326181 -0.000464241 0.0071242 2.67842e-19 0.0071242)
(0.0071242 -0.00326181 -0.000464241 0.0071242 2.22788e-17 0.0071242)
(0.00711481 -0.00325567 -0.000472033 0.00711481 -2.01878e-19 0.00711481)
(0.00711481 -0.00325567 -0.000472033 0.00711481 2.25975e-17 0.00711481)
(0.00710422 -0.00324898 -0.000479871 0.00710422 4.8639e-20 0.00710422)
(0.00710422 -0.00324898 -0.000479871 0.00710422 2.19451e-17 0.00710422)
(0.00709243 -0.00324173 -0.000487754 0.00709243 -1.04642e-19 0.00709243)
(0.00709243 -0.00324173 -0.000487754 0.00709243 2.19468e-17 0.00709243)
(0.00707946 -0.00323394 -0.000495679 0.00707946 -5.96369e-19 0.00707946)
(0.00707946 -0.00323394 -0.000495679 0.00707946 2.24914e-17 0.00707946)
(0.00706532 -0.0032256 -0.000503643 0.00706532 1.79147e-19 0.00706532)
(0.00706532 -0.0032256 -0.000503643 0.00706532 2.41917e-17 0.00706532)
(0.00705 -0.00321671 -0.000511645 0.00705 1.77041e-19 0.00705)
(0.00705 -0.00321671 -0.000511645 0.00705 2.61923e-17 0.00705)
(0.00703352 -0.00320728 -0.00051968 0.00703352 1.13062e-18 0.00703352)
(0.00703352 -0.00320728 -0.00051968 0.00703352 2.71735e-17 0.00703352)
(0.00701588 -0.0031973 -0.000527746 0.00701588 1.34694e-18 0.00701588)
(0.00701588 -0.0031973 -0.000527746 0.00701588 2.87871e-17 0.00701588)
(0.00699708 -0.00318677 -0.00053584 0.00699708 -4.97859e-19 0.00699708)
(0.00699708 -0.00318677 -0.00053584 0.00699708 3.07004e-17 0.00699708)
(0.00697713 -0.0031757 -0.000543957 0.00697713 -1.24978e-19 0.00697713)
(0.00697713 -0.0031757 -0.000543957 0.00697713 3.03984e-17 0.00697713)
(0.00695603 -0.00316408 -0.000552094 0.00695603 3.08369e-18 0.00695603)
(0.00695603 -0.00316408 -0.000552094 0.00695603 2.88639e-17 0.00695603)
(0.00693378 -0.00315192 -0.000560247 0.00693378 2.55841e-18 0.00693378)
(0.00693378 -0.00315192 -0.000560247 0.00693378 2.73959e-17 0.00693378)
(0.00691039 -0.0031392 -0.000568411 0.00691039 -2.31801e-18 0.00691039)
(0.00691039 -0.0031392 -0.000568411 0.00691039 2.70093e-17 0.00691039)
(0.00688586 -0.00312593 -0.000576582 0.00688586 1.02373e-18 0.00688586)
(0.00688586 -0.00312593 -0.000576582 0.00688586 2.66973e-17 0.00688586)
(0.00686018 -0.00311211 -0.000584755 0.00686018 1.84887e-18 0.00686018)
(0.00686018 -0.00311211 -0.000584755 0.00686018 2.82436e-17 0.00686018)
(0.00683336 -0.00309773 -0.000592924 0.00683336 3.60447e-18 0.00683336)
(0.00683336 -0.00309773 -0.000592924 0.00683336 3.0746e-17 0.00683336)
(0.0068054 -0.00308279 -0.000601084 0.0068054 3.60137e-18 0.0068054)
(0.0068054 -0.00308279 -0.000601084 0.0068054 3.06698e-17 0.0068054)
(0.00677629 -0.00306728 -0.00060923 0.00677629 2.92062e-18 0.00677629)
(0.00677629 -0.00306728 -0.00060923 0.00677629 3.18179e-17 0.00677629)
(0.00674603 -0.00305122 -0.000617354 0.00674603 2.16919e-18 0.00674603)
(0.00674603 -0.00305122 -0.000617354 0.00674603 3.50851e-17 0.00674603)
(0.00671462 -0.00303458 -0.00062545 0.00671462 1.03383e-18 0.00671462)
(0.00671462 -0.00303458 -0.00062545 0.00671462 3.75761e-17 0.00671462)
(0.00668206 -0.00301737 -0.000633512 0.00668206 4.29688e-19 0.00668206)
(0.00668206 -0.00301737 -0.000633512 0.00668206 3.85234e-17 0.00668206)
(0.00664835 -0.00299958 -0.000641532 0.00664835 -6.51326e-18 0.00664835)
(0.00664835 -0.00299958 -0.000641532 0.00664835 3.84972e-17 0.00664835)
(0.00661348 -0.00298121 -0.000649502 0.00661348 -3.57928e-18 0.00661348)
(0.00661348 -0.00298121 -0.000649502 0.00661348 3.26445e-17 0.00661348)
(0.00657744 -0.00296225 -0.000657414 0.00657744 -7.16558e-18 0.00657744)
(0.00657744 -0.00296225 -0.000657414 0.00657744 2.83004e-17 0.00657744)
(0.00654024 -0.0029427 -0.00066526 0.00654024 -4.85981e-18 0.00654024)
(0.00654024 -0.0029427 -0.00066526 0.00654024 2.70313e-17 0.00654024)
(0.00650187 -0.00292255 -0.00067303 0.00650187 -1.08939e-18 0.00650187)
(0.00650187 -0.00292255 -0.00067303 0.00650187 3.10446e-17 0.00650187)
(0.00646232 -0.0029018 -0.000680716 0.00646232 -5.04726e-19 0.00646232)
(0.00646232 -0.0029018 -0.000680716 0.00646232 3.46448e-17 0.00646232)
(0.00642158 -0.00288044 -0.000688306 0.00642158 6.51904e-18 0.00642158)
(0.00642158 -0.00288044 -0.000688306 0.00642158 2.7431e-17 0.00642158)
(0.00637966 -0.00285847 -0.000695791 0.00637966 7.90115e-18 0.00637966)
(0.00637966 -0.00285847 -0.000695791 0.00637966 1.83123e-17 0.00637966)
(0.00633654 -0.00283587 -0.000703159 0.00633654 2.78427e-18 0.00633654)
(0.00633654 -0.00283587 -0.000703159 0.00633654 1.50409e-17 0.00633654)
(0.00629223 -0.00281265 -0.000710399 0.00629223 4.94068e-18 0.00629223)
(0.00629223 -0.00281265 -0.000710399 0.00629223 1.37893e-17 0.00629223)
(0.0062467 -0.00278879 -0.000717499 0.0062467 7.52033e-18 0.0062467)
(0.0062467 -0.00278879 -0.000717499 0.0062467 1.03804e-17 0.0062467)
(0.00619997 -0.00276428 -0.000724446 0.00619997 4.93968e-18 0.00619997)
(0.00619997 -0.00276428 -0.000724446 0.00619997 1.0027e-17 0.00619997)
(0.00615201 -0.00273913 -0.000731226 0.00615201 2.57576e-18 0.00615201)
(0.00615201 -0.00273913 -0.000731226 0.00615201 6.43733e-18 0.00615201)
(0.00610282 -0.00271332 -0.000737825 0.00610282 4.0898e-18 0.00610282)
(0.00610282 -0.00271332 -0.000737825 0.00610282 -2.74659e-18 0.00610282)
(0.00605241 -0.00268685 -0.00074423 0.00605241 1.36543e-18 0.00605241)
(0.00605241 -0.00268685 -0.00074423 0.00605241 -1.80908e-18 0.00605241)
(0.00600075 -0.0026597 -0.000750423 0.00600075 -9.50548e-18 0.00600075)
(0.00600075 -0.0026597 -0.000750423 0.00600075 4.15433e-18 0.00600075)
(0.00594784 -0.00263187 -0.000756389 0.00594784 -7.33612e-18 0.00594784)
(0.00594784 -0.00263187 -0.000756389 0.00594784 5.72244e-18 0.00594784)
(0.00589369 -0.00260335 -0.000762112 0.00589369 -2.14587e-18 0.00589369)