/*--------------------------------*- C++ -*----------------------------------*\
| =========                 |                                                 |
| \\      /  F ield         | OpenFOAM: The Open Source CFD Toolbox           |
|  \\    /   O peration     | Version:  2106                                  |
|   \\  /    A nd           | Website:  www.openfoam.com                      |
|    \\/     M anipulation  |                                                 |
\*---------------------------------------------------------------------------*/
FoamFile
{
    version     2.0;
    format      ascii;
    arch        "LSB;label=32;scalar=64";
    class       volVectorField;
    location    "10050";
    object      U;
}
// * * * * * * * * * * * * * * * * * * * * * * * * * * * * * * * * * * * * * //

dimensions      [0 1 -1 0 0 0 0];

internalField   nonuniform List<vector> 
2000
(
(0.00120336 -7.79837e-16 -4.80828e-18)
(0.00120336 2.476e-19 -6.72435e-22)
(0.00363208 -2.54765e-15 -5.10914e-18)
(0.00363208 -3.09664e-19 5.10068e-21)
(0.00610567 -2.49636e-15 1.63523e-20)
(0.00610567 1.82839e-21 6.24386e-21)
(0.00862495 -2.3276e-15 -3.18805e-18)
(0.00862495 2.61267e-20 1.05286e-20)
(0.0111907 -2.30785e-15 -5.40829e-18)
(0.0111907 6.02069e-20 1.54956e-20)
(0.0138039 -2.3195e-15 -6.48765e-18)
(0.0138039 9.12118e-20 2.09551e-20)
(0.0164653 -2.32416e-15 -7.16625e-18)
(0.0164653 1.22872e-19 2.69945e-20)
(0.0191758 -2.32457e-15 -7.4327e-18)
(0.0191758 1.73919e-19 3.31124e-20)
(0.0219362 -2.32428e-15 -7.69777e-18)
(0.0219362 2.14492e-19 3.96435e-20)
(0.0247476 -2.32424e-15 -7.96497e-18)
(0.0247476 2.58085e-19 4.70293e-20)
(0.0276108 -2.32429e-15 -8.23613e-18)
(0.0276108 3.13006e-19 5.50167e-20)
(0.0305267 -2.32435e-15 -8.51244e-18)
(0.0305267 3.67249e-19 6.29853e-20)
(0.0334963 -2.32439e-15 -8.7946e-18)
(0.0334963 4.03088e-19 7.13098e-20)
(0.0365207 -2.32443e-15 -9.08308e-18)
(0.0365207 4.30404e-19 8.02463e-20)
(0.0396007 -2.32449e-15 -9.3783e-18)
(0.0396007 4.92116e-19 9.03302e-20)
(0.0427374 -2.32456e-15 -9.68032e-18)
(0.0427374 5.24223e-19 1.01342e-19)
(0.0459318 -2.32469e-15 -9.98944e-18)
(0.0459318 5.33288e-19 1.12535e-19)
(0.049185 -2.32485e-15 -1.03058e-17)
(0.049185 6.06757e-19 1.23717e-19)
(0.0524979 -2.32497e-15 -1.06294e-17)
(0.0524979 6.64191e-19 1.36433e-19)
(0.0558717 -2.32508e-15 -1.09602e-17)
(0.0558717 6.95025e-19 1.50428e-19)
(0.0593075 -2.32521e-15 -1.12986e-17)
(0.0593075 7.66371e-19 1.63137e-19)
(0.0628064 -2.3253e-15 -1.16446e-17)
(0.0628064 7.97746e-19 1.76029e-19)
(0.0663696 -2.32538e-15 -1.19979e-17)
(0.0663696 8.05608e-19 1.911e-19)
(0.069998 -2.32554e-15 -1.23592e-17)
(0.069998 9.39625e-19 2.08781e-19)
(0.0736931 -2.32567e-15 -1.27283e-17)
(0.0736931 1.02635e-18 2.26221e-19)
(0.0774558 -2.32575e-15 -1.31052e-17)
(0.0774558 1.06711e-18 2.44004e-19)
(0.0812875 -2.32586e-15 -1.34899e-17)
(0.0812875 1.1768e-18 2.64344e-19)
(0.0851893 -2.32596e-15 -1.38823e-17)
(0.0851893 1.23502e-18 2.85435e-19)
(0.0891625 -2.3261e-15 -1.42824e-17)
(0.0891625 1.32892e-18 3.09441e-19)
(0.0932083 -2.32613e-15 -1.46909e-17)
(0.0932083 1.32641e-18 3.33436e-19)
(0.0973281 -2.32603e-15 -1.51067e-17)
(0.0973281 1.35511e-18 3.56823e-19)
(0.101523 -2.3261e-15 -1.55311e-17)
(0.101523 1.50725e-18 3.8035e-19)
(0.105794 -2.32623e-15 -1.59646e-17)
(0.105794 1.46562e-18 4.00488e-19)
(0.110144 -2.32633e-15 -1.64069e-17)
(0.110144 1.40294e-18 4.17904e-19)
(0.114572 -2.32636e-15 -1.68585e-17)
(0.114572 1.27128e-18 4.34422e-19)
(0.119081 -2.32633e-15 -1.73199e-17)
(0.119081 1.10671e-18 4.54393e-19)
(0.123672 -2.32641e-15 -1.7791e-17)
(0.123672 1.13571e-18 4.70209e-19)
(0.128346 -2.32656e-15 -1.82726e-17)
(0.128346 1.2992e-18 4.8445e-19)
(0.133104 -2.32659e-15 -1.87652e-17)
(0.133104 1.29304e-18 5.00053e-19)
(0.137948 -2.32647e-15 -1.92683e-17)
(0.137948 1.18006e-18 5.14035e-19)
(0.14288 -2.32642e-15 -1.97823e-17)
(0.14288 1.03767e-18 5.32897e-19)
(0.1479 -2.32644e-15 -2.03068e-17)
(0.1479 8.81121e-19 5.52663e-19)
(0.153009 -2.32695e-15 -2.08443e-17)
(0.153009 8.02039e-19 5.68943e-19)
(0.15821 -2.32657e-15 -2.13917e-17)
(0.15821 5.27068e-19 5.83856e-19)
(0.163504 -2.32647e-15 -2.19476e-17)
(0.163504 3.8912e-19 5.99292e-19)
(0.168891 -2.32644e-15 -2.25141e-17)
(0.168891 3.21075e-19 6.12752e-19)
(0.174373 -2.32643e-15 -2.30916e-17)
(0.174373 -1.02323e-19 6.20244e-19)
(0.179951 -2.32627e-15 -2.36809e-17)
(0.179951 -5.81333e-19 6.33602e-19)
(0.185626 -2.32586e-15 -2.4279e-17)
(0.185626 -1.26643e-18 6.58367e-19)
(0.191398 -2.32568e-15 -2.4888e-17)
(0.191398 -1.67341e-18 6.81503e-19)
(0.19727 -2.3257e-15 -2.55072e-17)
(0.19727 -1.73566e-18 6.76751e-19)
(0.203241 -2.32541e-15 -2.61401e-17)
(0.203241 -2.09603e-18 6.85533e-19)
(0.209313 -2.32489e-15 -2.67828e-17)
(0.209313 -2.83354e-18 6.99361e-19)
(0.215485 -2.32433e-15 -2.74391e-17)
(0.215485 -3.83453e-18 7.15272e-19)
(0.221757 -2.32379e-15 -2.81087e-17)
(0.221757 -4.54794e-18 7.21038e-19)
(0.228131 -2.32317e-15 -2.87899e-17)
(0.228131 -4.93895e-18 7.21112e-19)
(0.234606 -2.32269e-15 -2.94819e-17)
(0.234606 -5.38332e-18 7.15922e-19)
(0.241181 -2.32187e-15 -3.01833e-17)
(0.241181 -6.08005e-18 7.21277e-19)
(0.247856 -2.32079e-15 -3.08895e-17)
(0.247856 -7.32075e-18 7.23045e-19)
(0.25463 -2.31989e-15 -3.16044e-17)
(0.25463 -8.50498e-18 7.17411e-19)
(0.261502 -2.31855e-15 -3.23292e-17)
(0.261502 -9.54797e-18 6.8794e-19)
(0.26847 -2.31696e-15 -3.30538e-17)
(0.26847 -1.0952e-17 6.69362e-19)
(0.275532 -2.31574e-15 -3.37796e-17)
(0.275532 -1.2459e-17 6.80675e-19)
(0.282685 -2.3143e-15 -3.45074e-17)
(0.282685 -1.46265e-17 6.62177e-19)
(0.289928 -2.3131e-15 -3.52332e-17)
(0.289928 -1.67722e-17 6.46939e-19)
(0.297256 -2.31182e-15 -3.5966e-17)
(0.297256 -1.8327e-17 6.2019e-19)
(0.304667 -2.30964e-15 -3.66993e-17)
(0.304667 -2.01031e-17 5.79707e-19)
(0.312156 -2.3074e-15 -3.74255e-17)
(0.312156 -2.24059e-17 5.42301e-19)
(0.319719 -2.30516e-15 -3.81471e-17)
(0.319719 -2.48506e-17 5.29584e-19)
(0.327352 -2.30244e-15 -3.88657e-17)
(0.327352 -2.75375e-17 5.12388e-19)
(0.335048 -2.30017e-15 -3.95699e-17)
(0.335048 -3.03726e-17 4.81421e-19)
(0.342803 -2.29802e-15 -4.02727e-17)
(0.342803 -3.21974e-17 4.51041e-19)
(0.35061 -2.29561e-15 -4.09607e-17)
(0.35061 -3.45736e-17 4.11901e-19)
(0.358464 -2.29288e-15 -4.16411e-17)
(0.358464 -3.83271e-17 3.63645e-19)
(0.366358 -2.28949e-15 -4.23095e-17)
(0.366358 -4.14254e-17 3.35599e-19)
(0.374286 -2.28626e-15 -4.29621e-17)
(0.374286 -4.51139e-17 3.24967e-19)
(0.38224 -2.28341e-15 -4.35995e-17)
(0.38224 -4.85401e-17 3.32913e-19)
(0.390215 -2.27822e-15 -4.42228e-17)
(0.390215 -5.23974e-17 2.85411e-19)
(0.398203 -2.27199e-15 -4.4825e-17)
(0.398203 -5.68663e-17 2.75168e-19)
(0.406197 -2.26918e-15 -4.54274e-17)
(0.406197 -6.05587e-17 2.22126e-19)
(0.414191 -2.26494e-15 -4.60251e-17)
(0.414191 -6.5299e-17 1.59333e-19)
(0.422179 -2.26072e-15 -4.66009e-17)
(0.422179 -6.98109e-17 1.53549e-19)
(0.430153 -2.25557e-15 -4.71752e-17)
(0.430153 -7.56188e-17 1.3962e-19)
(0.438108 -2.25002e-15 -4.774e-17)
(0.438108 -8.14187e-17 4.72862e-20)
(0.446039 -2.24494e-15 -4.82867e-17)
(0.446039 -8.53136e-17 -3.28568e-20)
(0.453939 -2.24061e-15 -4.88183e-17)
(0.453939 -8.8476e-17 -1.48384e-19)
(0.461803 -2.23731e-15 -4.93274e-17)
(0.461803 -9.32383e-17 -3.06007e-19)
(0.469627 -2.2338e-15 -4.98334e-17)
(0.469627 -9.88274e-17 -4.58156e-19)
(0.477406 -2.22797e-15 -5.03305e-17)
(0.477406 -1.03091e-16 -5.99275e-19)
(0.485136 -2.22106e-15 -5.08201e-17)
(0.485136 -1.08916e-16 -6.30246e-19)
(0.492814 -2.2143e-15 -5.13067e-17)
(0.492814 -1.1567e-16 -7.24349e-19)
(0.500435 -2.20684e-15 -5.17799e-17)
(0.500435 -1.21535e-16 -7.45312e-19)
(0.507998 -2.19933e-15 -5.22576e-17)
(0.507998 -1.27175e-16 -7.76447e-19)
(0.515499 -2.192e-15 -5.27558e-17)
(0.515499 -1.32494e-16 -9.6922e-19)
(0.522937 -2.18371e-15 -5.32873e-17)
(0.522937 -1.38914e-16 -1.04828e-18)
(0.530309 -2.17639e-15 -5.38425e-17)
(0.530309 -1.44998e-16 -1.10586e-18)
(0.537614 -2.16978e-15 -5.44257e-17)
(0.537614 -1.5128e-16 -1.21725e-18)
(0.54485 -2.16126e-15 -5.50339e-17)
(0.54485 -1.57257e-16 -1.31971e-18)
(0.552018 -2.15058e-15 -5.56406e-17)
(0.552018 -1.64596e-16 -1.4188e-18)
(0.559115 -2.13958e-15 -5.62379e-17)
(0.559115 -1.74773e-16 -1.42725e-18)
(0.566141 -2.12554e-15 -5.67995e-17)
(0.566141 -1.85156e-16 -1.35223e-18)
(0.573096 -2.11355e-15 -5.73362e-17)
(0.573096 -1.90051e-16 -1.26667e-18)
(0.579981 -2.10651e-15 -5.79417e-17)
(0.579981 -1.953e-16 -1.73599e-18)
(0.586794 -2.09863e-15 -5.86385e-17)
(0.586794 -2.01743e-16 -2.02766e-18)
(0.593536 -2.08945e-15 -5.93652e-17)
(0.593536 -2.07313e-16 -2.33692e-18)
(0.600208 -2.08086e-15 -6.01609e-17)
(0.600208 -2.14031e-16 -2.55418e-18)
(0.60681 -2.07446e-15 -6.0971e-17)
(0.60681 -2.20425e-16 -2.6318e-18)
(0.613343 -2.06593e-15 -6.18316e-17)
(0.613343 -2.28922e-16 -2.59105e-18)
(0.619807 -2.05526e-15 -6.26738e-17)
(0.619807 -2.35265e-16 -2.64598e-18)
(0.626203 -2.04362e-15 -6.35595e-17)
(0.626203 -2.41643e-16 -2.54725e-18)
(0.632532 -2.03206e-15 -6.44054e-17)
(0.632532 -2.49746e-16 -2.49995e-18)
(0.638795 -2.02279e-15 -6.52545e-17)
(0.638795 -2.59055e-16 -2.44482e-18)
(0.644993 -2.0116e-15 -7.15705e-17)
(0.644993 -2.6685e-16 -2.33391e-18)
(0.651127 -1.99968e-15 -7.97633e-17)
(0.651127 -2.76712e-16 -2.30976e-18)
(0.657198 -1.9881e-15 -8.85878e-17)
(0.657198 -2.88028e-16 -2.37723e-18)
(0.663207 -1.97504e-15 -9.78231e-17)
(0.663207 -2.9863e-16 -2.60955e-18)
(0.669155 -1.96109e-15 -1.05987e-16)
(0.669155 -3.09699e-16 -2.43644e-18)
(0.675043 -1.9436e-15 -1.14529e-16)
(0.675043 -3.24029e-16 -2.49595e-18)
(0.680872 -1.92566e-15 -1.23241e-16)
(0.680872 -3.3812e-16 -2.25202e-18)
(0.686644 -1.90963e-15 -1.33353e-16)
(0.686644 -3.46785e-16 -2.40755e-18)
(0.69236 -1.89493e-15 -1.4267e-16)
(0.69236 -3.5554e-16 -2.30544e-18)
(0.69802 -1.87953e-15 -1.51776e-16)
(0.69802 -3.68749e-16 -2.23035e-18)
(0.703627 -1.87011e-15 -1.61512e-16)
(0.703627 -3.76908e-16 -2.31723e-18)
(0.70918 -1.86595e-15 -1.71901e-16)
(0.70918 -3.85497e-16 -2.67277e-18)
(0.714681 -1.85254e-15 -1.82612e-16)
(0.714681 -3.92367e-16 -2.36516e-18)
(0.720132 -1.83764e-15 -1.93778e-16)
(0.720132 -3.97879e-16 -2.4457e-18)
(0.725533 -1.82863e-15 -2.05767e-16)
(0.725533 -4.0268e-16 -2.52489e-18)
(0.730885 -1.81884e-15 -2.18661e-16)
(0.730885 -4.05114e-16 -2.89601e-18)
(0.73619 -1.80647e-15 -2.31609e-16)
(0.73619 -4.15089e-16 -3.40663e-18)
(0.741448 -1.79577e-15 -2.36386e-16)
(0.741448 -4.22673e-16 -3.63019e-18)
(0.74666 -1.78523e-15 -2.33637e-16)
(0.74666 -4.31519e-16 -3.32844e-18)
(0.751828 -1.76904e-15 -2.3104e-16)
(0.751828 -4.4262e-16 -3.41768e-18)
(0.756953 -1.75326e-15 -2.29033e-16)
(0.756953 -4.52875e-16 -3.18494e-18)
(0.762035 -1.73757e-15 -2.26636e-16)
(0.762035 -4.57919e-16 -6.52124e-18)
(0.767075 -1.71995e-15 -2.24988e-16)
(0.767075 -4.6492e-16 -1.1866e-17)
(0.772075 -1.70642e-15 -2.23614e-16)
(0.772075 -4.76225e-16 -1.52865e-17)
(0.777035 -1.69384e-15 -2.22059e-16)
(0.777035 -4.83791e-16 -1.83543e-17)
(0.781956 -1.67875e-15 -2.20136e-16)
(0.781956 -4.88309e-16 -1.94776e-17)
(0.786839 -1.66384e-15 -2.1785e-16)
(0.786839 -4.90687e-16 -2.04456e-17)
(0.791684 -1.64922e-15 -2.15255e-16)
(0.791684 -5.01295e-16 -2.1937e-17)
(0.796494 -1.63049e-15 -2.12028e-16)
(0.796494 -5.13374e-16 -2.42522e-17)
(0.801267 -1.60703e-15 -2.10645e-16)
(0.801267 -5.24029e-16 -2.64686e-17)
(0.806006 -1.58811e-15 -2.1073e-16)
(0.806006 -5.39268e-16 -2.80925e-17)
(0.810711 -1.57786e-15 -2.11224e-16)
(0.810711 -5.44329e-16 -2.90352e-17)
(0.815382 -1.56336e-15 -2.13704e-16)
(0.815382 -5.48951e-16 -3.10927e-17)
(0.820021 -1.5431e-15 -2.1473e-16)
(0.820021 -5.56223e-16 -3.30462e-17)
(0.824627 -1.52402e-15 -2.13975e-16)
(0.824627 -5.6615e-16 -3.5905e-17)
(0.829203 -1.50626e-15 -2.13523e-16)
(0.829203 -5.80316e-16 -3.88274e-17)
(0.833748 -1.48944e-15 -2.12424e-16)
(0.833748 -5.86697e-16 -4.17148e-17)
(0.838262 -1.46809e-15 -2.10467e-16)
(0.838262 -5.94659e-16 -4.49078e-17)
(0.842748 -1.44744e-15 -2.08763e-16)
(0.842748 -6.03161e-16 -4.92963e-17)
(0.847205 -1.43254e-15 -2.07255e-16)
(0.847205 -6.09494e-16 -5.32998e-17)
(0.851633 -1.42033e-15 -2.05951e-16)
(0.851633 -6.16702e-16 -5.92161e-17)
(0.856034 -1.40825e-15 -2.01319e-16)
(0.856034 -6.20302e-16 -6.6416e-17)
(0.860408 -1.38516e-15 -1.967e-16)
(0.860408 -6.27019e-16 -7.31668e-17)
(0.864755 -1.36072e-15 -1.94691e-16)
(0.864755 -6.44796e-16 -7.60584e-17)
(0.869077 -1.34063e-15 -1.93704e-16)
(0.869077 -6.47439e-16 -7.7093e-17)
(0.873373 -1.32479e-15 -1.9221e-16)
(0.873373 -6.51998e-16 -8.14535e-17)
(0.877643 -1.30892e-15 -1.89273e-16)
(0.877643 -6.61472e-16 -8.5979e-17)
(0.881889 -1.28895e-15 -1.86136e-16)
(0.881889 -6.55399e-16 -8.85097e-17)
(0.886111 -1.26971e-15 -1.84457e-16)
(0.886111 -6.66797e-16 -9.05601e-17)
(0.89031 -1.24895e-15 -1.81322e-16)
(0.89031 -6.73153e-16 -9.29479e-17)
(0.894485 -1.22869e-15 -1.77898e-16)
(0.894485 -6.72981e-16 -9.33681e-17)
(0.898637 -1.21078e-15 -1.75454e-16)
(0.898637 -6.77141e-16 -9.27417e-17)
(0.902766 -1.19578e-15 -1.7222e-16)
(0.902766 -6.76491e-16 -9.20262e-17)
(0.906873 -1.1792e-15 -1.69329e-16)
(0.906873 -6.82409e-16 -9.12412e-17)
(0.910959 -1.1642e-15 -1.6749e-16)
(0.910959 -6.80295e-16 -9.31671e-17)
(0.915023 -1.14262e-15 -1.64987e-16)
(0.915023 -6.74195e-16 -9.67974e-17)
(0.919066 -1.12182e-15 -1.63344e-16)
(0.919066 -6.7385e-16 -9.87735e-17)
(0.923088 -1.1099e-15 -1.615e-16)
(0.923088 -6.78464e-16 -1.05298e-16)
(0.927089 -1.09483e-15 -1.58055e-16)
(0.927089 -6.91112e-16 -1.10331e-16)
(0.93107 -1.07015e-15 -1.56025e-16)
(0.93107 -6.9759e-16 -1.12675e-16)
(0.935031 -1.05215e-15 -1.57189e-16)
(0.935031 -6.95816e-16 -1.12107e-16)
(0.938972 -1.0513e-15 -1.53765e-16)
(0.938972 -6.93786e-16 -1.10611e-16)
(0.942893 -1.03586e-15 -1.51081e-16)
(0.942893 -6.9162e-16 -1.07362e-16)
(0.946795 -1.02392e-15 -1.50638e-16)
(0.946795 -6.86457e-16 -1.03854e-16)
(0.950678 -1.00489e-15 -1.51218e-16)
(0.950678 -6.88884e-16 -1.02681e-16)
(0.954542 -9.87277e-16 -1.52354e-16)
(0.954542 -6.87073e-16 -1.02456e-16)
(0.958386 -9.74992e-16 -1.53334e-16)
(0.958386 -6.91617e-16 -9.91226e-17)
(0.962213 -9.61614e-16 -1.54771e-16)
(0.962213 -6.83918e-16 -9.91876e-17)
(0.96602 -9.42815e-16 -1.51674e-16)
(0.96602 -6.80506e-16 -1.02387e-16)
(0.969809 -9.20554e-16 -1.496e-16)
(0.969809 -6.89268e-16 -1.0684e-16)
(0.973579 -9.16635e-16 -1.42454e-16)
(0.973579 -6.84818e-16 -1.08699e-16)
(0.977332 -8.85978e-16 -1.3155e-16)
(0.977332 -6.91567e-16 -1.09517e-16)
(0.981065 -8.68244e-16 -1.2007e-16)
(0.981065 -6.88269e-16 -1.0571e-16)
(0.984781 -8.57312e-16 -1.05611e-16)
(0.984781 -6.80734e-16 -1.00595e-16)
(0.988478 -8.49389e-16 -1.02982e-16)
(0.988478 -6.71877e-16 -9.37533e-17)
(0.992158 -8.4274e-16 -9.91921e-17)
(0.992158 -6.76448e-16 -9.70846e-17)
(0.995818 -8.19054e-16 -9.86072e-17)
(0.995818 -6.95419e-16 -1.03199e-16)
(0.999461 -8.01862e-16 -1.04432e-16)
(0.999461 -7.06477e-16 -1.07384e-16)
(1.00309 -7.95468e-16 -1.10304e-16)
(1.00309 -7.14774e-16 -1.03187e-16)
(1.00669 -7.86266e-16 -1.11284e-16)
(1.00669 -7.16565e-16 -1.05674e-16)
(1.01028 -7.71138e-16 -1.18335e-16)
(1.01028 -7.21603e-16 -1.03105e-16)
(1.01385 -7.67664e-16 -1.22752e-16)
(1.01385 -7.35609e-16 -1.06812e-16)
(1.0174 -7.75443e-16 -1.26966e-16)
(1.0174 -7.61145e-16 -1.12095e-16)
(1.02093 -7.67178e-16 -1.29394e-16)
(1.02093 -7.62689e-16 -1.15784e-16)
(1.02444 -7.7225e-16 -1.33086e-16)
(1.02444 -7.53958e-16 -1.0236e-16)
(1.02793 -7.78658e-16 -1.25522e-16)
(1.02793 -7.53447e-16 -1.01018e-16)
(1.0314 -7.74332e-16 -1.08101e-16)
(1.0314 -7.37582e-16 -9.89659e-17)
(1.03486 -7.70957e-16 -1.03844e-16)
(1.03486 -7.41672e-16 -9.48734e-17)
(1.03829 -7.65816e-16 -1.00452e-16)
(1.03829 -7.39239e-16 -8.98211e-17)
(1.0417 -7.44121e-16 -9.33618e-17)
(1.0417 -7.1706e-16 -7.88913e-17)
(1.04509 -7.29146e-16 -9.44355e-17)
(1.04509 -6.99109e-16 -8.13306e-17)
(1.04846 -7.05282e-16 -1.00812e-16)
(1.04846 -6.96133e-16 -8.37673e-17)
(1.05181 -6.6876e-16 -1.10634e-16)
(1.05181 -6.98189e-16 -8.40879e-17)
(1.05514 -6.68348e-16 -1.14549e-16)
(1.05514 -6.33295e-16 -8.67319e-17)
(1.05844 -6.72876e-16 -1.10441e-16)
(1.05844 -6.58725e-16 -1.07216e-16)
(1.06172 -6.56678e-16 -1.14829e-16)
(1.06172 -6.64019e-16 -1.23352e-16)
(1.06498 -6.67535e-16 -1.19628e-16)
(1.06498 -6.13131e-16 -1.321e-16)
(1.06821 -6.40655e-16 -1.29636e-16)
(1.06821 -5.9723e-16 -1.43908e-16)
(1.07142 -6.21988e-16 -1.34862e-16)
(1.07142 -5.90377e-16 -1.54516e-16)
(1.0746 -6.47193e-16 -1.55053e-16)
(1.0746 -6.03923e-16 -1.49954e-16)
(1.07775 -6.47201e-16 -1.56198e-16)
(1.07775 -6.46683e-16 -1.45355e-16)
(1.08088 -6.43364e-16 -1.47744e-16)
(1.08088 -6.05819e-16 -1.50097e-16)
(1.08397 -6.46932e-16 -1.44575e-16)
(1.08397 -6.18548e-16 -1.69625e-16)
(1.08704 -6.47794e-16 -1.45246e-16)
(1.08704 -6.16452e-16 -1.73973e-16)
(1.09008 -6.49386e-16 -1.62167e-16)
(1.09008 -5.78429e-16 -1.45636e-16)
(1.09308 -6.58437e-16 -1.57121e-16)
(1.09308 -6.02955e-16 -1.32043e-16)
(1.09605 -6.19468e-16 -1.67422e-16)
(1.09605 -6.75725e-16 -1.2155e-16)
(1.09899 -6.7057e-16 -1.84145e-16)
(1.09899 -6.14911e-16 -1.2469e-16)
(1.10189 -6.21006e-16 -1.65646e-16)
(1.10189 -6.41469e-16 -1.22653e-16)
(1.10476 -6.08942e-16 -1.66271e-16)
(1.10476 -6.47585e-16 -1.20444e-16)
(1.10758 -6.08125e-16 -1.82088e-16)
(1.10758 -6.24999e-16 -1.23567e-16)
(1.11037 -5.9891e-16 -1.85531e-16)
(1.11037 -5.9486e-16 -1.09607e-16)
(1.11311 -6.1353e-16 -1.7243e-16)
(1.11311 -5.77643e-16 -1.27002e-16)
(1.11581 -5.99504e-16 -1.62231e-16)
(1.11581 -6.10996e-16 -1.41788e-16)
(1.11846 -5.67354e-16 -1.81005e-16)
(1.11846 -6.2269e-16 -1.50121e-16)
(1.12105 -5.45085e-16 -1.9159e-16)
(1.12105 -5.56609e-16 -1.53741e-16)
(1.1236 -5.92635e-16 -2.33251e-16)
(1.1236 -6.02119e-16 -1.43459e-16)
(1.1261 -5.88587e-16 -2.18165e-16)
(1.1261 -6.37388e-16 -1.26229e-16)
(1.12853 -5.60247e-16 -1.84831e-16)
(1.12853 -5.98395e-16 -1.05966e-16)
(1.1309 -5.37652e-16 -1.79581e-16)
(1.1309 -6.10313e-16 -8.15835e-17)
(1.13321 -6.03636e-16 -1.9046e-16)
(1.13321 -5.8482e-16 -7.95905e-17)
(1.13545 -5.34344e-16 -2.01232e-16)
(1.13545 -5.88979e-16 -1.06365e-16)
(1.13761 -5.53681e-16 -1.75296e-16)
(1.13761 -6.33867e-16 -9.94705e-17)
(1.1397 -5.72123e-16 -1.86017e-16)
(1.1397 -6.26908e-16 -8.10996e-17)
(1.1417 -5.50536e-16 -1.74759e-16)
(1.1417 -6.34241e-16 -8.82869e-17)
(1.14362 -5.6831e-16 -1.82367e-16)
(1.14362 -6.29455e-16 -5.21897e-17)
(1.14544 -5.95624e-16 -2.27902e-16)
(1.14544 -5.75047e-16 -3.78345e-17)
(1.14716 -6.23787e-16 -1.9191e-16)
(1.14716 -5.43286e-16 -4.10205e-17)
(1.14876 -6.03357e-16 -1.6307e-16)
(1.14876 -5.02005e-16 -5.21301e-17)
(1.15026 -6.17649e-16 -1.42736e-16)
(1.15026 -4.8443e-16 -7.13544e-17)
(1.15163 -5.84588e-16 -7.54103e-17)
(1.15163 -5.06067e-16 -6.30825e-17)
(1.15286 -4.98123e-16 -8.73958e-17)
(1.15286 -4.68438e-16 -3.9414e-17)
(1.15395 -4.45047e-16 -8.02829e-17)
(1.15395 -4.57283e-16 -2.44813e-17)
(1.15489 -4.20147e-16 -9.54737e-17)
(1.15489 -4.50712e-16 -2.04263e-17)
(1.15566 -4.58878e-16 -1.43627e-16)
(1.15566 -4.22216e-16 -1.26414e-17)
(1.15626 -3.98629e-16 -1.25997e-16)
(1.15626 -3.66495e-16 -6.76213e-18)
(1.15667 -3.74719e-16 -6.37976e-17)
(1.15667 -4.04743e-16 2.85875e-17)
(1.15688 -4.07117e-16 1.13281e-17)
(1.15688 -3.5617e-16 4.64056e-17)
(0.00120336 1.27805e-19 1.62779e-19)
(0.00120336 3.47494e-20 2.24786e-18)
(0.00363208 -1.49987e-19 1.00465e-19)
(0.00363208 -3.18311e-20 2.90379e-18)
(0.00610567 1.34338e-20 9.95108e-20)
(0.00610567 1.4994e-20 3.02355e-18)
(0.00862495 3.54513e-20 9.62319e-20)
(0.00862495 2.12935e-20 3.15336e-18)
(0.0111907 6.5462e-20 9.04278e-20)
(0.0111907 2.177e-20 3.29401e-18)
(0.0138039 9.65928e-20 8.18058e-20)
(0.0138039 3.35071e-20 3.44634e-18)
(0.0164653 1.29593e-19 6.99714e-20)
(0.0164653 5.81648e-20 3.61149e-18)
(0.0191758 1.66658e-19 5.45997e-20)
(0.0191758 7.0775e-20 3.79035e-18)
(0.0219362 2.05298e-19 3.54461e-20)
(0.0219362 8.23363e-20 3.98359e-18)
(0.0247476 2.42128e-19 1.26344e-20)
(0.0247476 1.04007e-19 4.19184e-18)
(0.0276108 2.81785e-19 -1.47162e-20)
(0.0276108 1.12054e-19 4.41597e-18)
(0.0305267 3.2859e-19 -4.64948e-20)
(0.0305267 1.22681e-19 4.65676e-18)
(0.0334963 3.7155e-19 -8.30591e-20)
(0.0334963 1.33646e-19 4.91519e-18)
(0.0365207 3.96153e-19 -1.24449e-19)
(0.0365207 1.47978e-19 5.19226e-18)
(0.0396007 4.26753e-19 -1.7172e-19)
(0.0396007 1.74658e-19 5.48892e-18)
(0.0427374 4.60331e-19 -2.24614e-19)
(0.0427374 2.2901e-19 5.80556e-18)
(0.0459318 5.12131e-19 -2.83345e-19)
(0.0459318 2.52807e-19 6.14343e-18)
(0.049185 5.73593e-19 -3.47443e-19)
(0.049185 2.81389e-19 6.50288e-18)
(0.0524979 6.1535e-19 -4.17035e-19)
(0.0524979 3.15368e-19 6.88437e-18)
(0.0558717 6.59283e-19 -4.92119e-19)
(0.0558717 3.15204e-19 7.2888e-18)
(0.0593075 7.02432e-19 -5.74328e-19)
(0.0593075 3.57666e-19 7.71803e-18)
(0.0628064 7.59239e-19 -6.62403e-19)
(0.0628064 4.36126e-19 8.17226e-18)
(0.0663696 7.9603e-19 -7.57944e-19)
(0.0663696 4.86552e-19 8.65403e-18)
(0.069998 8.78321e-19 -8.60806e-19)
(0.069998 4.87516e-19 9.16307e-18)
(0.0736931 1.02477e-18 -9.71006e-19)
(0.0736931 4.5952e-19 9.7001e-18)
(0.0774558 1.09327e-18 -1.08735e-18)
(0.0774558 4.24692e-19 1.02669e-17)
(0.0812875 1.12632e-18 -1.21085e-18)
(0.0812875 4.87506e-19 1.08647e-17)
(0.0851893 1.19579e-18 -1.34098e-18)
(0.0851893 5.31568e-19 1.14951e-17)
(0.0891625 1.23239e-18 -1.47561e-18)
(0.0891625 5.88479e-19 1.21572e-17)
(0.0932083 1.27922e-18 -1.61364e-18)
(0.0932083 6.28983e-19 1.28488e-17)
(0.0973281 1.32544e-18 -1.7547e-18)
(0.0973281 6.12901e-19 1.35721e-17)
(0.101523 1.28657e-18 -1.90001e-18)
(0.101523 7.20208e-19 1.43281e-17)
(0.105794 1.25064e-18 -2.05165e-18)
(0.105794 8.59081e-19 1.51179e-17)
(0.110144 1.26927e-18 -2.21101e-18)
(0.110144 9.13964e-19 1.59446e-17)
(0.114572 1.24631e-18 -2.37864e-18)
(0.114572 1.0619e-18 1.68093e-17)
(0.119081 1.30766e-18 -2.5585e-18)
(0.119081 1.13219e-18 1.77175e-17)
(0.123672 1.54102e-18 -2.74792e-18)
(0.123672 1.14481e-18 1.86647e-17)
(0.128346 1.67762e-18 -2.94771e-18)
(0.128346 1.30838e-18 1.96505e-17)
(0.133104 1.63117e-18 -3.16103e-18)
(0.133104 1.35444e-18 2.06773e-17)
(0.137948 1.62923e-18 -3.39343e-18)
(0.137948 1.52549e-18 2.17486e-17)
(0.14288 1.7669e-18 -3.64034e-18)
(0.14288 1.77485e-18 2.28667e-17)
(0.1479 1.84684e-18 -3.89484e-18)
(0.1479 1.69781e-18 2.40283e-17)
(0.153009 1.96117e-18 -4.15785e-18)
(0.153009 1.82878e-18 2.52335e-17)
(0.15821 2.09737e-18 -4.42228e-18)
(0.15821 2.02472e-18 2.6479e-17)
(0.163504 2.04166e-18 -4.68491e-18)
(0.163504 2.31011e-18 2.77641e-17)
(0.168891 1.96423e-18 -4.94198e-18)
(0.168891 2.65173e-18 2.90827e-17)
(0.174373 1.71997e-18 -5.19708e-18)
(0.174373 2.61281e-18 3.04333e-17)
(0.179951 1.64046e-18 -5.4521e-18)
(0.179951 2.78477e-18 3.18236e-17)
(0.185626 1.75426e-18 -5.6925e-18)
(0.185626 3.00898e-18 3.32547e-17)
(0.191398 1.79803e-18 -5.93093e-18)
(0.191398 3.14489e-18 3.47303e-17)
(0.19727 1.87289e-18 -6.17874e-18)
(0.19727 3.19788e-18 3.62406e-17)
(0.203241 1.83225e-18 -6.43341e-18)
(0.203241 3.63214e-18 3.77848e-17)
(0.209313 1.71786e-18 -6.70077e-18)
(0.209313 3.7729e-18 3.9375e-17)
(0.215485 1.55564e-18 -6.9832e-18)
(0.215485 3.63224e-18 4.10144e-17)
(0.221757 1.53293e-18 -7.275e-18)
(0.221757 4.09577e-18 4.26888e-17)
(0.228131 1.5557e-18 -7.56367e-18)
(0.228131 3.9841e-18 4.43874e-17)
(0.234606 1.55276e-18 -7.84766e-18)
(0.234606 3.86951e-18 4.60999e-17)
(0.241181 1.62484e-18 -8.11663e-18)
(0.241181 4.26971e-18 4.78328e-17)
(0.247856 1.3577e-18 -8.38743e-18)
(0.247856 4.71558e-18 4.95943e-17)
(0.25463 1.05117e-18 -8.66425e-18)
(0.25463 4.87758e-18 5.13726e-17)
(0.261502 1.18188e-18 -8.92638e-18)
(0.261502 4.85875e-18 5.31307e-17)
(0.26847 1.07612e-18 -9.14817e-18)
(0.26847 5.01852e-18 5.486e-17)
(0.275532 8.9501e-19 -9.33361e-18)
(0.275532 5.12626e-18 5.6585e-17)
(0.282685 8.06406e-19 -9.49375e-18)
(0.282685 5.43635e-18 5.82804e-17)
(0.289928 3.29919e-19 -9.61275e-18)
(0.289928 5.90579e-18 5.9939e-17)
(0.297256 -2.74689e-19 -9.73405e-18)
(0.297256 6.51617e-18 6.15766e-17)
(0.304667 -4.29635e-19 -9.82639e-18)
(0.304667 6.91186e-18 6.31477e-17)
(0.312156 -4.2827e-19 -9.89772e-18)
(0.312156 7.04036e-18 6.46641e-17)
(0.319719 -7.26162e-19 -9.96396e-18)
(0.319719 7.09339e-18 6.61604e-17)
(0.327352 -1.26459e-18 -1.00191e-17)
(0.327352 7.88933e-18 6.76136e-17)
(0.335048 -1.77279e-18 -1.00291e-17)
(0.335048 8.09486e-18 6.89881e-17)
(0.342803 -2.00797e-18 -9.98351e-18)
(0.342803 7.34325e-18 7.02573e-17)
(0.35061 -2.55015e-18 -9.91146e-18)
(0.35061 7.74333e-18 7.14468e-17)
(0.358464 -3.45435e-18 -9.8388e-18)
(0.358464 7.42271e-18 7.2548e-17)
(0.366358 -4.85154e-18 -9.74821e-18)
(0.366358 7.20545e-18 7.35591e-17)
(0.374286 -6.23525e-18 -9.67749e-18)
(0.374286 7.52899e-18 7.45188e-17)
(0.38224 -6.8926e-18 -9.54661e-18)
(0.38224 8.90266e-18 7.53739e-17)
(0.390215 -8.06166e-18 -9.35286e-18)
(0.390215 8.63508e-18 7.60886e-17)
(0.398203 -9.5401e-18 -9.19561e-18)
(0.398203 7.36537e-18 7.67571e-17)
(0.406197 -1.06414e-17 -9.05438e-18)
(0.406197 8.37118e-18 7.73065e-17)
(0.414191 -1.13259e-17 -8.84979e-18)
(0.414191 8.48868e-18 7.76726e-17)
(0.422179 -1.24871e-17 -8.61318e-18)
(0.422179 8.80968e-18 7.79666e-17)
(0.430153 -1.46015e-17 -8.3693e-18)
(0.430153 9.62712e-18 7.81763e-17)
(0.438108 -1.55199e-17 -8.2099e-18)
(0.438108 1.00875e-17 7.83124e-17)
(0.446039 -1.54766e-17 -8.03915e-18)
(0.446039 1.04091e-17 7.83351e-17)
(0.453939 -1.49695e-17 -7.78302e-18)
(0.453939 1.11136e-17 7.81195e-17)
(0.461803 -1.34439e-17 -7.36224e-18)
(0.461803 1.11972e-17 7.76211e-17)
(0.469627 -1.36343e-17 -6.94714e-18)
(0.469627 1.29001e-17 7.69828e-17)
(0.477406 -1.46905e-17 -6.54697e-18)
(0.477406 1.51877e-17 7.61897e-17)
(0.485136 -1.56052e-17 -6.1455e-18)
(0.485136 1.54935e-17 7.53244e-17)
(0.492814 -1.69007e-17 -5.77813e-18)
(0.492814 1.53527e-17 7.43435e-17)
(0.500435 -1.67268e-17 -5.47721e-18)
(0.500435 1.57908e-17 7.33775e-17)
(0.507998 -1.73761e-17 -5.1347e-18)
(0.507998 1.53552e-17 7.23416e-17)
(0.515499 -1.91158e-17 -4.93642e-18)
(0.515499 1.516e-17 7.11441e-17)
(0.522937 -1.98606e-17 -4.85911e-18)
(0.522937 1.86539e-17 6.99547e-17)
(0.530309 -2.08672e-17 -4.85454e-18)
(0.530309 2.1197e-17 6.87335e-17)
(0.537614 -2.20377e-17 -4.78857e-18)
(0.537614 1.93119e-17 6.73261e-17)
(0.54485 -2.31328e-17 -4.69204e-18)
(0.54485 1.92204e-17 6.58069e-17)
(0.552018 -2.43292e-17 -4.57943e-18)
(0.552018 2.10757e-17 6.41576e-17)
(0.559115 -2.4529e-17 -4.60328e-18)
(0.559115 1.99745e-17 6.26442e-17)
(0.566141 -2.48828e-17 -4.46942e-18)
(0.566141 1.97961e-17 6.11702e-17)
(0.573096 -2.57304e-17 -4.29065e-18)
(0.573096 1.9513e-17 5.96702e-17)
(0.579981 -2.59422e-17 -4.02941e-18)
(0.579981 1.60198e-17 5.77062e-17)
(0.586794 -2.51632e-17 -3.94029e-18)
(0.586794 1.52469e-17 5.55741e-17)
(0.593536 -2.57422e-17 -3.61127e-18)
(0.593536 1.62145e-17 5.30564e-17)
(0.600208 -2.80457e-17 -3.36794e-18)
(0.600208 1.49782e-17 5.02255e-17)
(0.60681 -2.93461e-17 -3.17459e-18)
(0.60681 1.48172e-17 4.73998e-17)
(0.613343 -3.12291e-17 -3.00752e-18)
(0.613343 1.53237e-17 4.4658e-17)
(0.619807 -3.44543e-17 -2.8267e-18)
(0.619807 1.5986e-17 4.18188e-17)
(0.626203 -3.64374e-17 -2.55943e-18)
(0.626203 1.36358e-17 3.90781e-17)
(0.632532 -3.77333e-17 -2.12786e-18)
(0.632532 1.2333e-17 3.63238e-17)
(0.638795 -3.8615e-17 -1.47971e-18)
(0.638795 1.42277e-17 3.36693e-17)
(0.644993 -3.76827e-17 -7.80341e-19)
(0.644993 1.50075e-17 3.10603e-17)
(0.651127 -3.71117e-17 3.63281e-20)
(0.651127 1.45258e-17 2.85353e-17)
(0.657198 -3.80633e-17 1.07428e-18)
(0.657198 1.3004e-17 2.58225e-17)
(0.663207 -3.72791e-17 2.2278e-18)
(0.663207 1.26334e-17 2.27974e-17)
(0.669155 -3.60466e-17 3.79481e-18)
(0.669155 1.53882e-17 1.97702e-17)
(0.675043 -4.02811e-17 5.15591e-18)
(0.675043 1.63374e-17 1.69832e-17)
(0.680872 -4.62465e-17 5.72036e-18)
(0.680872 1.52959e-17 1.50502e-17)
(0.686644 -4.83115e-17 6.22549e-18)
(0.686644 1.47003e-17 1.30589e-17)
(0.69236 -4.55745e-17 6.63133e-18)
(0.69236 1.2717e-17 1.13038e-17)
(0.69802 -4.29032e-17 7.9437e-18)
(0.69802 9.20009e-18 9.27535e-18)
(0.703627 -3.94209e-17 9.21828e-18)
(0.703627 5.06573e-18 7.24803e-18)
(0.70918 -3.68945e-17 1.08074e-17)
(0.70918 3.53627e-18 5.18391e-18)
(0.714681 -3.8197e-17 1.21407e-17)
(0.714681 4.45197e-18 3.7904e-18)
(0.720132 -4.19369e-17 1.37376e-17)
(0.720132 4.09903e-18 2.16977e-18)
(0.725533 -4.78995e-17 1.45516e-17)
(0.725533 3.60327e-18 7.19016e-19)
(0.730885 -5.19647e-17 1.47163e-17)
(0.730885 8.06486e-18 -1.01546e-18)
(0.73619 -5.2227e-17 1.45847e-17)
(0.73619 8.07347e-18 -3.00651e-18)
(0.741448 -5.17774e-17 1.47062e-17)
(0.741448 4.19346e-18 -5.13829e-18)
(0.74666 -5.79929e-17 1.44301e-17)
(0.74666 4.10172e-18 -4.98125e-18)
(0.751828 -6.03724e-17 1.36888e-17)
(0.751828 5.95459e-18 -3.37754e-18)
(0.756953 -5.67034e-17 1.39685e-17)
(0.756953 1.70905e-18 -8.59134e-19)
(0.762035 -5.86026e-17 1.5649e-17)
(0.762035 -7.43259e-18 5.97208e-19)
(0.767075 -6.55034e-17 1.74319e-17)
(0.767075 -7.28806e-18 8.0935e-19)
(0.772075 -7.16864e-17 1.85109e-17)
(0.772075 -1.48469e-18 1.35582e-18)
(0.777035 -7.79306e-17 1.93534e-17)
(0.777035 7.98074e-20 1.91317e-18)
(0.781956 -8.49837e-17 1.9702e-17)
(0.781956 -1.14522e-18 2.18014e-18)
(0.786839 -8.47182e-17 1.98939e-17)
(0.786839 -5.75955e-18 2.60462e-18)
(0.791684 -8.98363e-17 2.07607e-17)
(0.791684 -1.66911e-17 2.46291e-18)
(0.796494 -9.87315e-17 2.11748e-17)
(0.796494 -2.16782e-17 2.35807e-18)
(0.801267 -9.87922e-17 2.26958e-17)
(0.801267 -2.51976e-17 1.2058e-18)
(0.806006 -9.83876e-17 2.40149e-17)
(0.806006 -3.12836e-17 1.21023e-18)
(0.810711 -9.75798e-17 2.54151e-17)
(0.810711 -3.39683e-17 1.53771e-18)
(0.815382 -9.90354e-17 2.66262e-17)
(0.815382 -4.06977e-17 1.69064e-18)
(0.820021 -9.8952e-17 2.75965e-17)
(0.820021 -5.09342e-17 1.3052e-18)
(0.824627 -1.0358e-16 3.00524e-17)
(0.824627 -5.67684e-17 8.88597e-19)
(0.829203 -1.11663e-16 3.16186e-17)
(0.829203 -5.98766e-17 1.03407e-18)
(0.833748 -1.14126e-16 3.30169e-17)
(0.833748 -5.93631e-17 1.34526e-18)
(0.838262 -1.20007e-16 3.36994e-17)
(0.838262 -7.19032e-17 1.7686e-18)
(0.842748 -1.31605e-16 3.44229e-17)
(0.842748 -8.16209e-17 1.28613e-18)
(0.847205 -1.38371e-16 3.41727e-17)
(0.847205 -7.66425e-17 1.27989e-18)
(0.851633 -1.32278e-16 3.59772e-17)
(0.851633 -8.25218e-17 -8.799e-19)
(0.856034 -1.27105e-16 3.95919e-17)