/*--------------------------------*- C++ -*----------------------------------*\
| =========                 |                                                 |
| \\      /  F ield         | OpenFOAM: The Open Source CFD Toolbox           |
|  \\    /   O peration     | Version:  2106                                  |
|   \\  /    A nd           | Website:  www.openfoam.com                      |
|    \\/     M anipulation  |                                                 |
\*---------------------------------------------------------------------------*/
FoamFile
{
    version     2.0;
    format      ascii;
    arch        "LSB;label=32;scalar=64";
    class       volTensorField;
    location    "10060";
    object      grad(U);
}
// * * * * * * * * * * * * * * * * * * * * * * * * * * * * * * * * * * * * * //

dimensions      [0 0 -1 0 0 0 0];

internalField   nonuniform List<tensor> 
2000
(
(0 -5.45301e-26 1.77852e-31 61.5571 -6.28661e-12 -2.42865e-13 0.113931 -5.81537e-15 -1.48985e-16)
(0 -4.2049e-28 -1.77852e-31 61.5571 0 4.78718e-18 0.113931 -1.05122e-28 2.18543e-16)
(-1.12328e-16 0 7.93161e-31 61.5455 0 -3.83651e-14 0.343875 0 -1.4465e-16)
(0 -2.55404e-29 -6.9837e-31 61.5455 -5.06992e-15 7.56915e-18 0.343875 -1.26138e-17 3.6586e-16)
(-1.40211e-17 2.45457e-30 -1.43364e-31 61.5336 7.33236e-13 -1.82856e-14 0.477034 -4.25157e-15 -1.36193e-16)
(0 3.13405e-30 2.93817e-31 61.5336 -4.199e-15 1.82776e-18 0.477034 -1.93233e-17 3.79622e-16)
(-4.59e-17 -4.32915e-30 -4.16754e-32 61.5213 4.1133e-13 -1.81632e-14 0.48584 -7.03889e-15 -1.48168e-16)
(1.836e-16 9.22985e-30 2.88433e-31 61.5213 -5.1e-15 7.69659e-18 0.48584 -2.96746e-17 3.93949e-16)
(0 9.06071e-30 2.83147e-31 61.5079 -7.10372e-14 -1.91485e-14 0.494795 -4.57484e-16 -1.57179e-16)
(0 -3.02024e-30 -9.43824e-32 61.5079 -5.38772e-15 1.69262e-17 0.494795 -4.07679e-17 4.08864e-16)
(0 -5.60386e-28 9.26529e-31 61.4921 -1.55401e-14 -1.97368e-14 0.503887 -6.30905e-17 -1.63394e-16)
(-4.45762e-16 -1.18596e-29 -9.26529e-31 61.4921 -5.44688e-15 2.38516e-17 0.503887 -5.26146e-17 4.24385e-16)
(2.04813e-16 -5.68803e-30 -3.6382e-31 61.4711 1.37538e-27 -2.00961e-14 0.51309 0 -1.69101e-16)
(5.80511e-16 8.73169e-30 3.6382e-31 61.4711 -5.19791e-15 2.32841e-17 0.51309 -6.44096e-17 4.40495e-16)
(0 5.71445e-30 0 61.4405 8.64117e-15 -2.03926e-14 0.522355 -6.9787e-17 -1.74593e-16)
(1.43556e-15 0 3.57153e-31 61.4405 -5.26201e-15 2.09414e-17 0.522355 -7.66427e-17 4.57166e-16)
(-2.14406e-16 2.82961e-30 7.22375e-32 61.3933 8.79059e-15 -2.06266e-14 0.531606 -7.58852e-17 -1.79528e-16)
(0 5.60974e-30 1.75304e-31 61.3933 -5.81526e-15 2.25952e-17 0.531606 -9.00804e-17 4.74342e-16)
(3.87517e-16 -8.26041e-30 -3.44184e-31 61.3192 8.73706e-15 -2.076e-14 0.54073 -7.50055e-17 -1.83526e-16)
(-3.87517e-16 8.26041e-30 5.16276e-31 61.3192 -6.11755e-15 3.13417e-17 0.54073 -1.04787e-16 4.91957e-16)
(3.80415e-16 -2.43271e-29 -1.68938e-30 61.204 8.98914e-15 -2.07493e-14 0.549567 -7.78e-17 -1.86101e-16)
(0 2.16241e-29 1.68938e-30 61.204 -6.14216e-15 3.95766e-17 0.549567 -1.20241e-16 5.09952e-16)
(3.23299e-16 5.13783e-30 2.45329e-31 61.0292 9.28334e-15 -2.05419e-14 0.557903 -8.2364e-17 -1.86642e-16)
(1.2932e-15 -2.65348e-30 -1.65843e-31 61.0292 -6.18327e-15 4.17686e-17 0.557903 -1.35173e-16 5.28111e-16)
(0 -2.60486e-30 3.25607e-31 60.7716 9.77947e-15 -2.00798e-14 0.56547 -8.61197e-17 -1.84493e-16)
(0 2.60486e-30 -3.25607e-31 60.7716 -6.4755e-15 3.69339e-17 0.56547 -1.50342e-16 5.46186e-16)
(-3.99299e-16 2.58304e-29 1.69594e-30 60.4046 1.06059e-14 -1.93074e-14 0.571951 -9.47238e-17 -1.78996e-16)
(0 -1.78999e-29 -1.43838e-30 60.4046 -6.74236e-15 4.51351e-17 0.571951 -1.6703e-16 5.63823e-16)
(-1.14486e-15 7.83246e-30 8.88498e-31 59.8992 9.79295e-15 -1.81862e-14 0.576994 -1.05071e-16 -1.6974e-16)
(0 0 -3.13783e-31 59.8992 -6.5072e-15 6.11617e-17 0.576994 -1.84772e-16 5.8082e-16)
(1.1715e-15 -1.51341e-29 -5.72734e-31 59.2268 8.96392e-15 -1.67008e-14 0.580243 -8.25547e-17 -1.56448e-16)
(-1.91149e-15 9.85707e-30 3.08033e-31 59.2268 -6.51717e-15 6.01906e-17 0.580243 -2.0201e-16 5.9659e-16)
(6.80919e-16 -1.20955e-29 -7.55972e-31 58.3624 9.14521e-15 -1.4871e-14 0.581371 -9.26811e-17 -1.39377e-16)
(-6.80919e-16 1.20955e-29 7.55972e-31 58.3624 -6.53242e-15 5.50614e-17 0.581371 -2.20393e-16 6.10672e-16)
(1.78543e-15 -2.46118e-29 -1.43619e-30 57.2882 9.43042e-15 -1.27506e-14 0.580125 -8.93075e-17 -1.1895e-16)
(1.56553e-15 1.66235e-29 8.90543e-31 57.2882 -6.62298e-15 5.14218e-17 0.580125 -2.38828e-16 6.22722e-16)
(-5.99269e-16 7.46479e-30 7.13907e-31 55.9968 1.00382e-14 -1.04238e-14 0.576359 -1.0201e-16 -9.61239e-17)
(-6.56192e-16 0 -2.91408e-31 55.9968 -6.93417e-15 6.21897e-17 0.576359 -2.5868e-16 6.32295e-16)
(6.40136e-16 -9.6647e-30 -1.37357e-31 54.4933 1.02751e-14 -8.00848e-15 0.570058 -1.05344e-16 -7.21432e-17)
(2.56055e-15 1.14427e-29 2.86068e-31 54.4933 -6.59197e-15 5.02959e-17 0.570058 -2.80578e-16 6.3926e-16)
(-6.80901e-16 2.79536e-30 1.42994e-31 52.7952 1.02814e-14 -5.62797e-15 0.561344 -1.10883e-16 -4.8252e-17)
(5.44721e-15 0 0 52.7952 -6.4091e-15 2.81629e-17 0.561344 -2.98071e-16 6.43369e-16)
(0 8.82175e-30 2.7568e-31 50.9311 9.72724e-15 -3.39764e-15 0.550462 -1.09451e-16 -2.57156e-17)
(2.88545e-15 -4.41088e-30 0 50.9311 -6.51004e-15 3.56555e-17 0.550462 -3.12764e-16 6.44977e-16)
(0 -1.29901e-29 -2.10236e-29 48.9373 9.32037e-15 -9.98664e-16 0.537743 -1.02849e-16 -5.55235e-18)
(3.0453e-15 1.29901e-29 2.70628e-31 48.9373 -6.27952e-15 3.69016e-17 0.537743 -3.30014e-16 6.44159e-16)
(0 4.2507e-30 2.18953e-47 46.8541 9.5881e-15 7.65703e-32 0.523572 -1.04442e-16 -2.12525e-47)
(3.20242e-15 0 -2.65669e-31 46.8541 -6.12671e-15 4.12264e-17 0.523572 -3.51177e-16 6.41128e-16)
(-8.39047e-16 -1.38941e-30 -3.69919e-31 44.7222 9.76676e-15 1.61543e-15 0.508349 -1.12847e-16 -1.17141e-17)
(0 8.34562e-30 7.82402e-31 44.7222 -5.52643e-15 5.12622e-17 0.508349 -3.73129e-16 6.36437e-16)
(0 -2.04817e-29 -1.53613e-30 42.5791 8.63103e-15 2.63366e-15 0.492451 -1.12539e-16 -2.56948e-17)
(3.50611e-15 2.04817e-29 1.53613e-30 42.5791 -4.67868e-15 4.36686e-17 0.492451 -3.89463e-16 6.30279e-16)
(2.1894e-16 -1.23994e-30 -3.55041e-31 40.4574 7.66181e-15 3.3427e-15 0.47622 -9.01511e-17 -3.63152e-17)
(0 8.04256e-30 5.0266e-31 40.4574 -4.90137e-15 2.70836e-17 0.47622 -4.04869e-16 6.22991e-16)
(-9.48253e-16 2.77823e-30 1.45928e-31 38.3834 8.87188e-15 3.78378e-15 0.459943 -9.33537e-17 -4.38007e-17)
(0 3.94759e-30 2.46724e-31 38.3834 -5.0505e-15 2.92804e-17 0.459943 -4.25957e-16 6.15136e-16)
(0 7.75051e-30 4.84407e-31 36.3772 1.00658e-14 4.00371e-15 0.44385 -1.23342e-16 -4.85437e-17)
(-1.09079e-15 -3.87525e-30 -2.42203e-31 36.3772 -5.29961e-15 3.42547e-17 0.44385 -4.43971e-16 6.06966e-16)
(-3.15698e-15 2.55919e-29 2.28321e-30 34.4533 9.76162e-15 4.04536e-15 0.428119 -1.26817e-16 -5.09671e-17)
(-2.99073e-15 -1.90212e-29 -1.90212e-30 34.4533 -5.60483e-15 2.5558e-17 0.428119 -4.64429e-16 5.98492e-16)
(1.0472e-15 9.70488e-31 -1.42421e-31 32.6207 9.25981e-15 3.94379e-15 0.41288 -1.20218e-16 -5.14372e-17)
(3.13764e-15 -3.73453e-30 0 32.6207 -4.95836e-15 1.43093e-17 0.41288 -4.86025e-16 5.90141e-16)
(0 7.33219e-30 9.16524e-31 30.8844 8.74201e-15 3.74007e-15 0.39822 -1.18535e-16 -5.02441e-17)
(0 -3.66609e-30 -6.87393e-31 30.8844 -5.04695e-15 1.20508e-17 0.39822 -5.05097e-16 5.82076e-16)
(-1.10747e-15 1.35556e-29 8.16168e-31 29.2462 7.81452e-15 3.46767e-15 0.384194 -1.1102e-16 -4.79746e-17)
(0 -1.07967e-29 -6.74796e-31 29.2462 -5.18259e-15 3.99389e-17 0.384194 -5.27251e-16 5.74525e-16)
(-1.13598e-15 -7.84068e-30 1.41173e-31 27.7052 7.38137e-15 3.14109e-15 0.370831 -9.79533e-17 -4.47806e-17)
(0 1.41319e-29 2.2081e-31 27.7052 -4.42918e-15 4.97506e-17 0.370831 -5.48423e-16 5.67579e-16)
(0 -1.38729e-29 -8.67056e-31 26.259 6.75596e-15 2.78118e-15 0.358142 -1.03287e-16 -4.07978e-17)
(4.65389e-15 1.38729e-29 8.67056e-31 26.259 -4.16131e-15 4.07302e-17 0.358142 -5.62747e-16 5.61235e-16)
(0 3.40467e-30 6.38376e-31 24.9038 5.46196e-15 2.40138e-15 0.346119 -8.41176e-17 -3.63818e-17)
(0 0 -4.25584e-31 24.9038 -3.37325e-15 6.36214e-17 0.346119 -5.79169e-16 5.55414e-16)
(1.21559e-15 5.86617e-31 2.75868e-31 23.6353 5.28564e-15 2.01696e-15 0.334748 -7.02383e-17 -3.14927e-17)
(4.86235e-15 -3.34228e-30 -4.17785e-31 23.6353 -1.9544e-15 5.43646e-17 0.334748 -5.93346e-16 5.50298e-16)
(-3.08736e-15 -1.36542e-29 -8.82821e-31 22.4486 4.91279e-15 1.64419e-15 0.324005 -8.21596e-17 -2.65737e-17)
(4.96122e-15 1.64052e-29 1.02532e-30 22.4486 -2.48158e-15 6.79593e-17 0.324005 -5.99745e-16 5.45168e-16)
(-3.07741e-15 -1.33525e-29 -1.06462e-30 21.3385 4.24839e-15 1.27769e-15 0.313864 -6.184e-17 -2.16366e-17)
(0 1.61046e-29 1.20784e-30 21.3385 -3.01968e-15 8.65217e-17 0.313864 -6.1782e-16 5.40939e-16)
(0 1.26476e-29 9.8809e-31 20.3001 4.70477e-15 9.20883e-16 0.304295 -6.52063e-17 -1.65155e-17)
(5.14921e-15 -1.26476e-29 -9.8809e-31 20.3001 -2.11344e-15 2.57771e-17 0.304295 -6.28888e-16 5.37129e-16)
(-2.61934e-15 1.48045e-29 8.72285e-31 19.3285 4.20712e-15 5.86933e-16 0.295266 -7.81994e-17 -1.14838e-17)
(5.23868e-15 -3.10395e-30 -3.87994e-31 19.3285 -2.2986e-15 2.36372e-17 0.295266 -6.29434e-16 5.33464e-16)
(0 -1.21883e-29 -5.71326e-31 18.4189 3.06774e-15 2.64648e-16 0.286747 -5.20804e-17 -6.68071e-18)
(0 1.21883e-29 5.71326e-31 18.4189 -3.01503e-15 6.38778e-17 0.286747 -6.48592e-16 5.30292e-16)
(1.68391e-15 -5.98247e-30 -5.60856e-31 17.5668 3.52255e-15 -4.66552e-17 0.278706 -4.48021e-17 -3.18283e-18)
(-1.68391e-15 5.98247e-30 5.60856e-31 17.5668 -3.72154e-15 5.79939e-17 0.278706 -6.64281e-16 5.27805e-16)
(-3.0258e-15 1.44895e-29 8.81495e-31 16.768 4.74963e-15 -3.3438e-16 0.271113 -6.88211e-17 -7.8257e-18)
(-5.49098e-15 -5.87284e-30 -3.67052e-31 16.768 -3.23181e-15 7.44625e-17 0.271113 -6.80443e-16 5.25565e-16)
(1.39255e-15 3.02591e-30 5.7304e-31 16.0187 5.28159e-15 -6.04926e-16 0.26394 -8.71068e-17 -1.2425e-17)
(3.94745e-15 0 -5.40489e-31 16.0187 -2.2326e-15 1.05427e-16 0.26394 -6.82258e-16 5.23858e-16)
(1.41181e-15 1.1412e-29 1.09007e-30 15.315 4.06655e-15 -8.65269e-16 0.25716 -8.93507e-17 -1.70626e-17)
(-5.64724e-15 -1.41489e-29 -1.23803e-30 15.315 -3.24099e-15 6.23776e-17 0.25716 -6.84704e-16 5.223e-16)
(1.33294e-16 -3.55115e-32 -3.72391e-31 14.6537 2.74488e-15 -1.11776e-15 0.250747 -4.86559e-17 -2.17276e-17)
(5.72217e-15 2.77793e-30 5.20862e-31 14.6537 -3.11083e-15 -3.33663e-17 0.250747 -7.10695e-16 5.21087e-16)
(0 -1.36351e-29 -1.02264e-30 14.0316 3.72406e-15 -1.35202e-15 0.244678 -4.64745e-17 -2.60548e-17)
(1.15903e-14 1.36351e-29 1.02264e-30 14.0316 -2.03802e-15 -8.01628e-17 0.244678 -7.20676e-16 5.20095e-16)
(1.46656e-15 -2.41504e-29 -1.48851e-30 13.4458 4.86361e-15 -1.56928e-15 0.238928 -8.53888e-17 -3.04344e-17)
(5.86624e-15 1.60623e-29 1.0039e-30 13.4458 -3.19622e-15 -2.10582e-17 0.238928 -7.25654e-16 5.19098e-16)
(-4.44276e-15 1.06152e-29 6.43785e-31 12.8937 4.40593e-15 -1.76199e-15 0.233478 -8.95995e-17 -3.41637e-17)
(-5.93558e-15 -2.628e-30 -1.6425e-31 12.8937 -4.38177e-15 7.2356e-17 0.233478 -7.51079e-16 5.18651e-16)
(2.90464e-15 -1.03194e-29 -4.8372e-31 12.3728 4.21159e-15 -1.94287e-15 0.228309 -7.16792e-17 -3.8396e-17)
(-2.90464e-15 7.73953e-30 4.8372e-31 12.3728 -3.19075e-15 8.42944e-17 0.228309 -7.80017e-16 5.1961e-16)
(-4.36875e-15 1.79225e-29 7.86632e-31 11.881 4.85353e-15 -2.10903e-15 0.223401 -8.5654e-17 -4.1828e-17)
(0 -7.5977e-30 -1.58285e-31 11.881 -2.11694e-15 3.94216e-17 0.223401 -7.83187e-16 5.20766e-16)
(1.39958e-15 -4.97232e-30 -4.66155e-31 11.4162 4.87268e-15 -2.25854e-15 0.218738 -9.90165e-17 -4.5688e-17)
(0 4.97232e-30 4.66155e-31 11.4162 -3.08396e-15 3.9277e-17 0.218738 -7.98963e-16 5.21976e-16)
(-1.37394e-15 1.2203e-29 7.62688e-31 10.9764 5.2341e-15 -2.40367e-15 0.214305 -8.96303e-17 -4.91837e-17)
(-4.82318e-15 -1.46436e-29 -9.15225e-31 10.9764 -3.42701e-15 9.92347e-17 0.214305 -8.27499e-16 5.24465e-16)
(2.15976e-16 9.26532e-30 4.40772e-31 10.5599 5.73999e-15 -2.53019e-15 0.210087 -1.17141e-16 -5.25422e-17)
(0 -4.79176e-30 0 10.5599 -2.57136e-15 1.00464e-16 0.210087 -8.36727e-16 5.27657e-16)
(-1.57987e-15 -4.34502e-30 -1.33989e-31 10.1652 5.08111e-15 -2.64756e-15 0.20607 -1.1353e-16 -5.58872e-17)
(0 7.05592e-30 2.93997e-31 10.1652 -2.93619e-15 3.58759e-17 0.20607 -8.57515e-16 5.30128e-16)
(-1.88962e-15 -8.43342e-30 -8.30608e-31 9.79084 4.3513e-15 -2.75738e-15 0.202242 -9.43269e-17 -5.91454e-17)
(6.3788e-15 6.92663e-30 5.77219e-31 9.79084 -3.86728e-15 -2.53385e-18 0.202242 -8.8051e-16 5.33268e-16)
(-1.60924e-15 -1.82482e-30 1.63772e-31 9.43538 4.53387e-15 -2.87478e-15 0.198592 -8.70864e-17 -6.30276e-17)
(0 4.53313e-30 0 9.43538 -5.48289e-15 -1.00487e-17 0.198592 -8.95178e-16 5.36301e-16)
(-5.75217e-15 2.32077e-29 2.27668e-30 9.09762 5.6068e-15 -2.99216e-15 0.195109 -1.0571e-16 -6.65012e-17)
(-3.98885e-15 -1.78003e-29 -1.9469e-30 9.09762 -6.91895e-15 1.0273e-16 0.195109 -9.28114e-16 5.40408e-16)
(1.6375e-15 1.04094e-29 3.80057e-31 8.77642 5.40548e-15 -3.10697e-15 0.191783 -1.37237e-16 -7.05115e-17)
(-6.55001e-15 -1.74741e-29 -1.09213e-30 8.77642 -5.43103e-15 2.09531e-16 0.191783 -9.68284e-16 5.46334e-16)
(-2.41419e-15 8.57693e-30 8.04087e-31 8.47072 3.60467e-15 -3.22105e-15 0.188604 -1.00735e-16 -7.41783e-17)
(-2.41419e-15 -4.28847e-30 -2.68029e-31 8.47072 -1.81179e-15 1.59354e-16 0.188604 -9.96401e-16 5.52319e-16)
(-9.5957e-16 -7.22884e-30 -4.52055e-31 8.17955 2.90644e-15 -3.32061e-15 0.185565 -6.07796e-17 -7.77657e-17)
(1.09481e-14 8.41976e-30 5.26235e-31 8.17955 2.25759e-17 1.48452e-17 0.185565 -9.92037e-16 5.56343e-16)
(-1.67804e-15 1.09624e-29 6.86508e-31 7.90201 3.74677e-15 -3.42231e-15 0.182657 -7.22901e-17 -8.1757e-17)
(6.71216e-15 -8.26547e-30 -5.16592e-31 7.90201 -2.73801e-15 -2.23838e-17 0.182657 -9.82662e-16 5.594e-16)
(0 -8.11401e-30 -2.53563e-31 7.63727 5.22185e-15 -3.52113e-15 0.179872 -1.02597e-16 -8.5431e-17)
(0 8.11401e-30 2.53563e-31 7.63727 -4.5441e-15 5.34319e-17 0.179872 -9.91518e-16 5.63869e-16)
(-3.94599e-15 6.66176e-30 6.71229e-31 7.38455 5.74073e-15 -3.59163e-15 0.177204 -1.45692e-16 -8.82787e-17)
(6.81581e-15 3.98266e-30 0 7.38455 -2.40249e-15 1.02772e-16 0.177204 -1.00576e-15 5.68885e-16)
(0 3.90968e-30 7.33065e-31 7.14315 4.63152e-15 -3.65572e-15 0.174647 -1.31789e-16 -9.18372e-17)
(-2.20095e-15 0 -4.8871e-31 7.14315 -7.97032e-16 1.97393e-16 0.174647 -1.00795e-15 5.74946e-16)
(-1.72906e-15 1.41929e-29 8.967e-31 6.91239 4.23723e-15 -3.72387e-15 0.172194 -9.60319e-17 -9.50565e-17)
(0 -7.67607e-30 -4.79755e-31 6.91239 -1.67009e-15 2.12813e-16 0.172194 -1.0051e-15 5.81121e-16)
(-2.12103e-15 1.13031e-29 4.70963e-31 6.69167 5.09568e-15 -3.77868e-15 0.169841 -1.16784e-16 -9.81257e-17)
(0 -7.53541e-30 -2.35482e-31 6.69167 -3.03591e-15 1.52167e-16 0.169841 -1.03109e-15 5.87038e-16)
(0 -1.84933e-29 -1.15583e-30 6.48042 5.70157e-15 -3.82914e-15 0.16758 -1.43942e-16 -1.01291e-16)
(7.01375e-15 1.84933e-29 1.15583e-30 6.48042 -3.85533e-15 9.86513e-17 0.16758 -1.06684e-15 5.94466e-16)
(0 1.45235e-29 1.81544e-30 6.27811 5.36364e-15 -3.86592e-15 0.165409 -1.53029e-16 -1.03792e-16)
(0 -1.45235e-29 -1.81544e-30 6.27811 -4.70514e-15 1.63197e-17 0.165409 -1.1001e-15 6.0118e-16)
(-1.77713e-15 9.78729e-30 1.86154e-31 6.08423 3.85335e-15 -3.90203e-15 0.163322 -1.31273e-16 -1.07077e-16)
(7.10853e-15 0 4.45544e-31 6.08423 -2.75271e-15 4.22335e-18 0.163322 -1.14219e-15 6.06085e-16)
(0 -1.39961e-29 -1.74952e-30 5.89833 2.50988e-15 -3.95187e-15 0.161314 -7.64278e-17 -1.10473e-16)
(7.15498e-15 1.39961e-29 1.74952e-30 5.89833 -4.26317e-16 1.39697e-16 0.161314 -1.1634e-15 6.10997e-16)
(-1.80021e-15 2.32727e-29 1.90788e-30 5.71999 2.21693e-15 -4.00141e-15 0.159383 -6.15833e-17 -1.13915e-16)
(-7.20082e-15 -2.06095e-29 -1.71746e-30 5.71999 -2.42549e-15 2.43428e-16 0.159383 -1.16122e-15 6.18877e-16)
(0 -1.01159e-29 -8.42994e-31 5.54879 2.16391e-15 -4.06781e-15 0.157524 -6.27287e-17 -1.18463e-16)
(-7.24609e-15 1.01159e-29 1.26449e-30 5.54879 -2.83649e-15 2.1124e-16 0.157524 -1.18705e-15 6.26517e-16)
(-3.64541e-15 2.01378e-30 5.98877e-31 5.38437 2.1165e-15 -4.0618e-15 0.155733 -6.08471e-17 -1.17854e-16)
(7.29081e-15 3.31018e-30 -2.06886e-31 5.38437 -7.05914e-16 6.39637e-17 0.155733 -1.19945e-15 6.34286e-16)
(-3.6675e-15 5.32064e-30 2.02008e-31 5.22637 2.74533e-15 -3.56605e-15 0.154008 -6.23086e-17 -9.32712e-17)
(0 0 2.03095e-31 5.22637 -1.2215e-15 -4.19547e-17 0.154008 -1.22007e-15 6.40766e-16)
(-1.7958e-15 -9.56994e-30 -7.97495e-31 5.07447 3.48686e-15 -3.29518e-15 0.152345 -1.00757e-16 -1.05789e-16)
(9.17446e-15 9.56994e-30 7.97495e-31 5.07447 -1.555e-15 1.20728e-16 0.152345 -1.24561e-15 6.44275e-16)
(-1.85546e-15 2.14348e-29 1.77004e-30 4.92836 3.27803e-15 -3.4202e-15 0.150741 -1.09844e-16 -1.04546e-16)
(-9.18473e-15 -1.56576e-29 -1.56576e-30 4.92836 -4.87186e-16 1.76172e-16 0.150741 -1.27102e-15 6.47311e-16)
(1.86613e-15 -1.18694e-29 -1.35934e-30 4.78775 3.17364e-15 -3.3449e-15 0.149194 -9.15906e-17 -1.05014e-16)
(0 9.22242e-30 1.1528e-30 4.78775 -8.8927e-16 1.47581e-16 0.149194 -1.28683e-15 6.52371e-16)
(1.87669e-15 -5.65872e-30 -9.61403e-31 4.65237 2.89909e-15 -3.50812e-15 0.147701 -1.07382e-16 -1.19e-16)
(-7.50677e-15 3.01781e-30 7.54452e-31 4.65237 -2.01462e-15 1.66947e-16 0.147701 -1.27434e-15 6.59032e-16)
(-3.77428e-15 1.12119e-29 1.52926e-30 4.52197 2.76895e-15 -3.68789e-15 0.14626 -7.7357e-17 -1.20767e-16)
(0 -2.96251e-30 -7.40627e-31 4.52197 -1.29686e-15 2.78707e-17 0.14626 -1.29564e-15 6.61257e-16)
(0 8.72466e-30 1.09058e-30 4.39631 3.96786e-15 -3.64045e-15 0.144867 -1.02889e-16 -1.20313e-16)
(0 -1.16329e-29 -1.45411e-30 4.39631 -1.64434e-15 1.11897e-16 0.144867 -1.29953e-15 6.60443e-16)
(1.90772e-15 -2.62483e-30 5.00787e-31 4.27516 4.80468e-15 -3.62795e-15 0.143522 -1.60409e-16 -1.24467e-16)
(-1.52618e-14 0 -7.13732e-31 4.27516 -3.42381e-15 3.51771e-16 0.143522 -1.31681e-15 6.63887e-16)
(1.91786e-15 -1.10259e-29 -1.26571e-30 4.15832 3.8975e-15 -3.70862e-15 0.142222 -1.63744e-16 -1.30441e-16)
(0 8.40784e-30 1.05098e-30 4.15832 -2.55175e-15 2.11178e-16 0.142222 -1.3508e-15 6.69547e-16)
(-3.09764e-15 -1.65075e-29 -1.71953e-30 4.04559 2.56199e-15 -3.81414e-15 0.140965 -1.03532e-16 -1.36613e-16)
(1.08093e-14 1.65075e-29 1.71953e-30 4.04559 -1.91697e-15 -8.08701e-17 0.140965 -1.36477e-15 6.70766e-16)
(4.97873e-15 -8.02713e-30 -5.57387e-31 3.93677 1.09666e-15 -3.80105e-15 0.139749 -7.55531e-17 -1.34414e-16)
(7.75142e-15 5.40168e-30 6.7521e-31 3.93677 -4.23985e-15 1.04333e-17 0.139749 -1.37028e-15 6.67408e-16)
(-9.1028e-16 -1.85986e-29 -2.54319e-30 3.8317 -4.18706e-17 -3.91271e-15 0.138573 -5.07403e-18 -1.49947e-16)
(0 1.59081e-29 2.31993e-30 3.8317 -6.5925e-15 1.48172e-16 0.138573 -1.41585e-15 6.65541e-16)
(-3.91498e-15 0 -1.83184e-30 3.7302 1.41995e-28 -4.06094e-15 0.137435 0 -1.5055e-16)
(7.82996e-15 1.56166e-29 2.27742e-30 3.7302 -4.84497e-15 2.57603e-17 0.137435 -1.45703e-15 6.65512e-16)
(1.96718e-15 -1.79405e-29 -2.46125e-30 3.63212 3.27151e-15 -4.02719e-15 0.136333 -1.41898e-16 -1.5303e-16)
(1.57374e-14 1.53304e-29 2.23568e-30 3.63212 -1.59656e-15 6.06857e-17 0.136333 -1.44386e-15 6.65939e-16)
(8.47248e-16 -2.40409e-30 -3.9939e-31 3.53731 2.05254e-15 -4.09589e-15 0.135266 -1.0435e-16 -1.61548e-16)
(-2.82403e-15 7.52474e-30 1.25412e-30 3.53731 -4.01589e-15 1.76836e-16 0.135266 -1.44447e-15 6.69169e-16)
(-3.97263e-15 5.24325e-30 4.6039e-31 3.44563 2.48904e-15 -4.25238e-15 0.134232 -5.27743e-17 -1.71151e-16)
(7.94526e-15 0 0 3.44563 -5.59464e-15 -1.77477e-17 0.134232 -1.51142e-15 6.70439e-16)
(-1.99577e-15 2.60639e-30 8.38554e-31 3.35694 4.59376e-15 -4.32611e-15 0.133231 -1.42744e-16 -1.73564e-16)
(7.98308e-15 2.41716e-30 0 3.35694 -4.67667e-15 -3.40112e-17 0.133231 -1.54479e-15 6.68991e-16)
(-2.67161e-15 1.18643e-29 5.93217e-31 3.27113 6.92824e-15 -4.23048e-15 0.13226 -2.24026e-16 -1.69766e-16)
(-2.67161e-15 -4.74574e-30 0 3.27113 -6.59936e-15 1.51184e-16 0.13226 -1.61696e-15 6.69458e-16)
(-6.082e-16 -1.18747e-29 -1.69668e-30 3.18806 7.99652e-15 -4.23382e-15 0.131319 -3.39368e-16 -1.80382e-16)
(1.06805e-14 9.31755e-30 1.45587e-30 3.18806 -7.70533e-15 4.17274e-17 0.131319 -1.7181e-15 6.68055e-16)
(2.0237e-15 -1.39839e-29 -1.95917e-30 3.10763 6.76833e-15 -4.36274e-15 0.130407 -3.21617e-16 -1.87123e-16)
(8.09478e-15 1.14335e-29 1.71503e-30 3.10763 -6.98091e-15 -1.06827e-16 0.130407 -1.78712e-15 6.67936e-16)
(-2.03287e-15 2.55466e-30 5.28256e-31 3.02973 5.31992e-15 -4.41377e-15 0.129522 -2.47749e-16 -1.91599e-16)
(8.13147e-15 4.4896e-30 0 3.02973 -6.60864e-15 -7.15682e-17 0.129522 -1.82404e-15 6.65496e-16)
(-4.39131e-16 -1.13719e-29 -1.35292e-30 2.95426 4.62282e-15 -4.45108e-15 0.128663 -2.08309e-16 -1.97466e-16)
(2.4811e-15 8.81465e-30 1.10183e-30 2.95426 -6.70957e-15 9.40355e-17 0.128663 -1.89535e-15 6.64998e-16)
(-2.05102e-15 1.12105e-29 1.8769e-30 2.88112 5.53398e-15 -4.58943e-15 0.12783 -1.95593e-16 -2.1125e-16)
(8.20407e-15 -8.65313e-30 -1.08164e-30 2.88112 -6.36697e-15 9.76718e-17 0.12783 -1.95059e-15 6.71611e-16)
(2.06e-15 -1.10284e-29 -7.91083e-31 2.81021 6.29865e-15 -4.65845e-15 0.127021 -2.98034e-16 -2.11225e-16)
(0 8.49456e-30 5.3091e-31 2.81021 -6.74636e-15 -1.61718e-16 0.127021 -1.99258e-15 6.75011e-16)
(-4.41611e-15 1.50361e-29 1.8299e-30 2.74146 5.43083e-15 -4.55839e-15 0.126236 -2.72958e-16 -2.0988e-16)
(8.27569e-15 -8.3389e-30 -1.04236e-30 2.74146 -6.00224e-15 -2.62329e-16 0.126236 -2.08609e-15 6.80694e-16)
(2.07779e-15 5.6582e-30 7.5176e-31 2.67477 3.22626e-15 -4.50781e-15 0.125473 -2.28346e-16 -2.1438e-16)
(6.00697e-15 -4.09305e-30 -5.11631e-31 2.67477 -2.36347e-15 6.1333e-17 0.125473 -2.11899e-15 6.88663e-16)
(0 4.01804e-30 5.02255e-31 2.61008 5.79821e-16 -4.63576e-15 0.124733 -7.38411e-17 -2.30169e-16)
(6.08443e-15 0 0 2.61008 7.66176e-16 4.67423e-16 0.124733 -2.10115e-15 6.99298e-16)
(0 -2.55921e-30 1.47916e-30 2.54729 9.96029e-29 -4.74805e-15 0.124013 -3.15544e-30 -2.33525e-16)
(-8.3814e-15 -3.94441e-30 -9.86104e-31 2.54729 -1.19052e-15 4.04462e-16 0.124013 -2.11559e-15 7.10712e-16)
(0 1.54885e-29 3.38812e-30 2.48635 3.03322e-15 -4.72432e-15 0.123314 -1.39554e-16 -2.3646e-16)
(8.41621e-15 -1.54885e-29 -3.38812e-30 2.48635 -2.94147e-15 1.49354e-16 0.123314 -2.14421e-15 7.20417e-16)
(-2.1127e-15 -2.02801e-29 -3.03516e-30 2.42718 2.64171e-15 -4.87742e-15 0.122634 -1.62391e-16 -2.57984e-16)
(0 2.28071e-29 3.80118e-30 2.42718 -2.19591e-15 1.58409e-17 0.122634 -2.14047e-15 7.2652e-16)
(-2.12131e-15 6.26408e-30 7.64443e-31 2.36972 1.46314e-15 -4.9805e-15 0.121974 -1.04769e-16 -2.56111e-16)
(8.48522e-15 0 0 2.36972 -2.53295e-15 -1.37015e-16 0.121974 -2.19802e-15 7.26347e-16)
(0 -7.32629e-30 -9.15786e-31 2.3139 1.17012e-15 -4.91492e-15 0.121331 -4.57179e-17 -2.60745e-16)
(0 7.32629e-30 9.15786e-31 2.3139 -3.10099e-15 -8.13648e-18 0.121331 -2.23593e-15 7.28837e-16)
(0 7.19204e-30 8.99004e-31 2.25967 2.32139e-15 -4.89634e-15 0.120707 -7.7617e-17 -2.63752e-16)
(-2.02438e-15 0 -4.49502e-31 2.25967 -3.54077e-15 1.18412e-16 0.120707 -2.27438e-15 7.38795e-16)
(2.14682e-15 -1.66371e-29 -4.28519e-30 2.20697 4.36434e-15 -5.11744e-15 0.120099 -1.71909e-16 -2.9492e-16)
(1.05746e-14 1.41205e-29 3.53012e-30 2.20697 -3.47871e-15 4.5631e-17 0.120099 -2.31716e-15 7.37541e-16)
(-1.74649e-15 7.9039e-30 1.84393e-30 2.15574 5.94123e-15 -5.25161e-15 0.119508 -3.05538e-16 -2.88744e-16)
(6.67009e-15 0 -4.33179e-31 2.15574 -3.8827e-15 -3.3108e-17 0.119508 -2.35772e-15 7.36358e-16)
(0 0 0 2.10593 4.93467e-15 -5.17668e-15 0.118932 -3.55295e-16 -2.9747e-16)
(8.65445e-15 3.40193e-30 8.50483e-31 2.10593 -4.22819e-15 -1.76343e-16 0.118932 -2.4113e-15 7.36516e-16)
(-4.34388e-15 4.98325e-30 6.74028e-31 2.0575 3.87663e-15 -5.21209e-15 0.118372 -2.02019e-16 -3.03746e-16)
(8.68777e-15 0 0 2.0575 -3.24212e-15 -3.36522e-16 0.118372 -2.44642e-15 7.38198e-16)
(2.18023e-15 -1.55873e-29 -3.2151e-30 2.01039 4.49055e-15 -5.15433e-15 0.117827 -2.45511e-16 -3.0183e-16)
(8.72093e-15 1.31136e-29 2.8686e-30 2.01039 -3.76671e-15 -1.50627e-16 0.117827 -2.47027e-15 7.42024e-16)
(0 1.60916e-29 2.41374e-30 1.96456 4.73795e-15 -5.15698e-15 0.117297 -2.82435e-16 -3.15513e-16)
(-8.75392e-15 -1.60916e-29 -2.41374e-30 1.96456 -5.15379e-15 3.60351e-16 0.117297 -2.54261e-15 7.53879e-16)
(0 3.15934e-30 7.89836e-31 1.91996 5.14444e-15 -5.2233e-15 0.11678 -2.84649e-16 -3.21364e-16)
(0 0 -7.89836e-31 1.91996 -4.67759e-15 2.01925e-16 0.11678 -2.63687e-15 7.69972e-16)
(-9.17807e-16 1.41537e-29 3.84473e-30 1.87656 5.96627e-15 -5.0866e-15 0.116276 -3.43099e-16 -3.10266e-16)
(-3.49192e-15 -9.30435e-30 -3.10145e-30 1.87656 -3.4021e-15 3.36491e-18 0.116276 -2.73051e-15 7.7395e-16)
(-2.213e-15 1.15326e-29 2.65348e-30 1.83432 3.45542e-15 -5.40558e-15 0.115786 -3.98396e-16 -3.74205e-16)
(-3.42793e-15 -3.04462e-30 -1.52231e-30 1.83432 -3.00796e-15 2.27849e-16 0.115786 -2.77217e-15 7.84304e-16)
(-3.36512e-15 4.07715e-31 3.73603e-30 1.79319 1.09889e-15 -5.36996e-15 0.115308 -3.54051e-17 -3.17324e-16)
(-8.88441e-15 -1.19553e-29 -2.98883e-30 1.79319 -4.3751e-15 2.83151e-16 0.115308 -2.84904e-15 7.91792e-16)
(7.76179e-15 1.07712e-30 6.86034e-31 1.75314 4.98287e-15 -5.17549e-15 0.114842 -3.26369e-16 -3.62538e-16)
(-3.30345e-15 0 -1.46703e-30 1.75314 -2.95004e-15 1.11828e-16 0.114842 -2.95611e-15 8.07471e-16)
(1.23148e-15 6.75109e-30 2.80396e-30 1.71413 5.58751e-15 -5.51488e-15 0.114388 -3.278e-16 -3.75093e-16)
(8.9488e-15 -1.15212e-29 -3.60036e-30 1.71413 -2.88399e-15 -1.31043e-16 0.114388 -2.97082e-15 8.06021e-16)
(-2.2452e-15 2.35844e-30 4.08887e-31 1.67614 5.3291e-15 -5.46784e-15 0.113945 -4.20281e-16 -3.6973e-16)
(8.98079e-15 2.82751e-30 7.06878e-31 1.67614 -5.76937e-15 2.066e-17 0.113945 -3.04764e-15 8.0025e-16)
(4.50633e-15 -4.72158e-30 -1.38962e-31 1.63912 4.96316e-15 -5.35098e-15 0.113513 -3.04621e-16 -3.72859e-16)
(0 0 -6.93924e-31 1.63912 -5.81577e-15 2.5099e-16 0.113513 -3.10949e-15 7.99307e-16)
(5.32899e-15 -2.33404e-30 -4.19312e-31 1.60305 5.27071e-15 -5.56186e-15 0.113092 -3.84862e-16 -4.1375e-16)
(9.0444e-15 5.44967e-30 6.81208e-31 1.60305 -5.88646e-15 1.93601e-16 0.113092 -3.16375e-15 8.04807e-16)
(-2.269e-15 5.00207e-30 2.44151e-30 1.56789 6.02781e-15 -5.56371e-15 0.112681 -3.59982e-16 -3.87179e-16)
(0 0 -6.68725e-31 1.56789 -5.7039e-15 1.67637e-16 0.112681 -3.27441e-15 8.20826e-16)
(0 -2.62588e-30 -1.31294e-30 1.53362 5.40744e-15 -5.44103e-15 0.11228 -5.09406e-16 -4.11177e-16)
(1.52585e-14 7.87765e-30 1.96941e-30 1.53362 -4.63989e-15 1.40649e-16 0.11228 -3.33915e-15 8.40417e-16)
(-2.28472e-15 -8.00041e-30 -4.06302e-30 1.50022 4.44691e-15 -5.77562e-15 0.111888 -2.81696e-16 -4.52231e-16)
(0 1.54666e-29 4.51109e-30 1.50022 -4.123e-15 1.0659e-18 0.111888 -3.43695e-15 8.56982e-16)
(0 -7.59159e-30 -3.79579e-30 1.46764 5.08397e-15 -5.85513e-15 0.111506 -3.83733e-16 -4.38888e-16)
(1.54912e-14 1.26526e-29 3.79579e-30 1.46764 -3.80481e-15 -7.16943e-17 0.111506 -3.5867e-15 8.63182e-16)
(-2.30033e-15 1.22041e-29 4.19864e-30 1.43588 5.12207e-15 -5.66217e-15 0.111133 -3.90186e-16 -4.39073e-16)
(0 -9.93663e-30 -3.72624e-30 1.43588 -4.51187e-15 -1.82123e-16 0.111133 -3.63395e-15 8.55586e-16)
(0 -4.87727e-30 -1.82898e-30 1.40489 6.74108e-15 -5.63273e-15 0.110768 -4.04155e-16 -4.50733e-16)
(9.23237e-15 4.87727e-30 1.82898e-30 1.40489 -6.40661e-15 -9.67676e-17 0.110768 -3.72618e-15 8.33323e-16)
(-3.79521e-16 -1.41644e-29 -5.27509e-30 1.37467 7.79873e-15 -5.77869e-15 0.110412 -6.63e-16 -4.79322e-16)
(2.1222e-14 1.19697e-29 4.7879e-30 1.37467 -7.18221e-15 1.57234e-16 0.110412 -3.89531e-15 8.2871e-16)
(-2.32354e-15 2.18647e-30 5.45575e-31 1.34518 7.52109e-15 -3.92497e-15 0.110064 -5.91149e-16 -1.61051e-16)
(9.29415e-15 0 1.17504e-30 1.34518 -7.5235e-15 1.11439e-16 0.110064 -4.04422e-15 8.55171e-16)
(-2.66249e-16 4.76217e-30 -4.36106e-30 1.31641 8.31369e-15 0 0.109724 -6.42052e-16 0)
(6.72742e-15 0 0 1.31641 -4.99472e-15 -2.17431e-17 0.109724 -4.18885e-15 8.56929e-16)
(-4.67776e-15 1.10253e-29 3.37787e-30 1.28833 9.42066e-15 1.81381e-16 0.109391 -7.46994e-16 -3.87072e-17)
(6.80565e-15 -2.26474e-30 -1.13237e-30 1.28833 -3.75737e-15 -1.61177e-16 0.109391 -4.21869e-15 8.4441e-16)
(-2.50315e-15 -2.22324e-30 -2.22324e-30 1.26092 8.54906e-15 -9.03119e-16 0.109065 -8.56277e-16 -1.49482e-16)
(2.12753e-14 4.44648e-30 3.33486e-30 1.26092 -5.44856e-15 -4.16253e-16 0.109065 -4.40561e-15 8.22334e-16)
(0 8.73e-30 2.1825e-30 1.23416 3.69574e-15 -1.31295e-15 0.108747 -6.22724e-16 -8.16116e-17)
(6.95924e-15 -4.365e-30 -1.09125e-30 1.23416 -2.33303e-15 1.50531e-16 0.108747 -4.52026e-15 8.26525e-16)
(-2.36172e-15 4.9103e-31 1.75162e-46 1.20804 5.33871e-16 -4.93038e-32 0.108435 -2.39952e-17 1.63554e-46)
(-2.41225e-15 -4.28501e-30 -2.14251e-30 1.20804 -1.32315e-15 5.26937e-16 0.108435 -4.46761e-15 8.67831e-16)
(2.36928e-15 2.05697e-30 2.60285e-30 1.18254 2.5367e-15 -9.47814e-18 0.10813 -2.48151e-16 -8.89324e-18)
(0 -4.20649e-30 -4.20649e-30 1.18254 -2.36694e-15 2.08e-16 0.10813 -4.55364e-15 8.87011e-16)
(0 4.12941e-30 3.09706e-30 1.15763 2.55646e-15 -7.55287e-17 0.107831 -2.16121e-16 -5.16271e-18)
(-2.32465e-15 0 -2.0647e-30 1.15763 -1.75462e-15 -1.99844e-16 0.107831 -4.60572e-15 9.00926e-16)
(-2.38435e-15 1.42912e-29 1.75162e-44 1.1333 2.34327e-15 1.57954e-29 0.107538 -2.61222e-16 0)
(0 -8.10748e-30 -5.06717e-30 1.1333 -1.41312e-15 -1.23234e-15 0.107538 -4.66169e-15 8.97018e-16)
(-2.39185e-15 6.11988e-30 9.28038e-31 1.10954 2.45271e-15 7.06142e-16 0.107251 -1.83372e-16 -3.4175e-17)
(-1.18077e-14 0 0 1.10954 -1.24794e-15 -2.16096e-15 0.107251 -4.72652e-15 8.66649e-16)
(-4.59852e-15 -1.78498e-30 -1.4391e-30 1.08632 3.66911e-15 1.0774e-15 0.10697 -2.92449e-16 -1.44272e-16)
(2.13939e-14 3.90653e-30 1.95327e-30 1.08632 -1.10514e-15 -1.56859e-15 0.10697 -4.74165e-15 8.04189e-16)
(0 -7.6699e-30 -2.87621e-30 1.06364 3.54233e-15 3.58507e-16 0.106693 -4.32398e-16 -6.74816e-17)
(9.62718e-15 7.6699e-30 2.87621e-30 1.06364 -2.46814e-15 -7.12859e-16 0.106693 -4.72172e-15 7.73276e-16)
(-2.41424e-15 5.86089e-30 -9.11501e-31 1.04147 2.7283e-15 7.71843e-17 0.106422 -2.77762e-16 -3.94859e-18)
(7.53762e-15 0 0 1.04147 -2.12124e-15 -1.33884e-15 0.106422 -4.87834e-15 7.60771e-16)
(0 3.69569e-30 2.77177e-30 1.01981 3.20954e-15 1.31172e-15 0.106156 -2.80561e-16 -1.02463e-16)
(7.60615e-15 0 -1.84784e-30 1.01981 -8.17485e-16 -2.0876e-15 0.106156 -4.90247e-15 7.19067e-16)