/*--------------------------------*- C++ -*----------------------------------*\
| =========                 |                                                 |
| \\      /  F ield         | OpenFOAM: The Open Source CFD Toolbox           |
|  \\    /   O peration     | Version:  2106                                  |
|   \\  /    A nd           | Website:  www.openfoam.com                      |
|    \\/     M anipulation  |                                                 |
\*---------------------------------------------------------------------------*/
FoamFile
{
    version     2.0;
    format      ascii;
    arch        "LSB;label=32;scalar=64";
    class       volVectorField;
    location    "10060";
    object      grad(T);
}
// * * * * * * * * * * * * * * * * * * * * * * * * * * * * * * * * * * * * * //

dimensions      [0 -1 0 1 0 0 0];

internalField   nonuniform List<vector> 
2000
(
(2.28849e-16 874.934 1.61918)
(-2.28849e-16 874.934 1.61918)
(0 874.932 4.88777)
(-8.98622e-16 874.932 4.88777)
(-1.96331e-15 874.927 6.78344)
(1.76431e-15 874.927 6.78344)
(-6.52136e-16 874.917 6.90995)
(2.60854e-15 874.917 6.90995)
(0 874.893 7.03867)
(0 874.893 7.03867)
(0 874.839 7.16945)
(-6.33601e-15 874.839 7.16945)
(3.277e-15 874.724 7.30197)
(8.25237e-15 874.724 7.30197)
(0 874.493 7.43569)
(2.04097e-14 874.493 7.43569)
(-3.04857e-15 874.064 7.56969)
(0 874.064 7.56969)
(0 873.313 7.70263)
(0 873.313 7.70263)
(6.08665e-15 872.072 7.83261)
(0 872.072 7.83261)
(4.59804e-15 870.117 7.95708)
(6.44192e-15 870.117 7.95708)
(0 867.172 8.07281)
(0 867.172 8.07281)
(-1.14381e-14 862.911 8.17594)
(0 862.911 8.17594)
(-6.23531e-15 856.978 8.26216)
(-1.13052e-14 856.978 8.26216)
(2.89958e-14 849.016 8.327)
(-2.71985e-14 849.016 8.327)
(0 838.698 8.36621)
(0 838.698 8.36621)
(1.59022e-14 825.774 8.37629)
(3.18044e-14 825.774 8.37629)
(-8.53529e-15 810.107 8.35489)
(-1.04991e-14 810.107 8.35489)
(-1.18419e-15 791.703 8.30111)
(4.67967e-14 791.703 8.30111)
(-9.71036e-15 770.713 8.21567)
(7.76828e-14 770.713 8.21567)
(0 747.427 8.10079)
(4.11855e-14 747.427 8.10079)
(0 722.24 7.9599)
(6.30129e-14 722.24 7.9599)
(1.91435e-14 695.614 7.79722)
(2.66683e-14 695.614 7.79722)
(-1.20189e-14 668.032 7.61739)
(0 668.032 7.61739)
(0 639.963 7.42502)
(5.02968e-14 639.963 7.42502)
(4.99299e-15 611.828 7.22441)
(0 611.828 7.22441)
(-1.3647e-14 583.991 7.01941)
(0 583.991 7.01941)
(1.74526e-14 556.744 6.81326)
(-1.74526e-14 556.744 6.81326)
(-3.17966e-14 530.311 6.60857)
(-7.57881e-14 530.311 6.60857)
(1.51503e-14 504.853 6.40743)
(6.06013e-14 504.853 6.40743)
(1.65106e-14 480.478 6.21136)
(-1.65106e-14 480.478 6.21136)
(1.28585e-16 457.247 6.02148)
(-1.62081e-14 457.247 6.02148)
(-3.24338e-14 435.187 5.83852)
(1.59111e-14 435.187 5.83852)
(-1.56195e-14 414.297 5.66295)
(8.34283e-14 414.297 5.66295)
(0 394.556 5.49498)
(-1.53333e-14 394.556 5.49498)
(1.7772e-14 375.93 5.33468)
(5.60356e-14 375.93 5.33468)
(-1.81633e-14 358.373 5.18196)
(7.26534e-14 358.373 5.18196)
(-1.85431e-14 341.836 5.03666)
(0 341.836 5.03666)
(0 326.264 4.89855)
(7.5647e-14 326.264 4.89855)
(-3.85397e-14 311.602 4.76735)
(7.70794e-14 311.602 4.76735)
(0 297.797 4.64276)
(0 297.797 4.64276)
(0 284.793 4.52446)
(2.69426e-14 284.793 4.52446)
(-2.02861e-14 272.54 4.41213)
(-1.07593e-13 272.54 4.41213)
(4.65713e-14 260.988 4.30546)
(5.64638e-14 260.988 4.30546)
(2.09198e-14 250.092 4.20413)
(-8.36793e-14 250.092 4.20413)
(3.79649e-15 239.807 4.10785)
(8.48996e-14 239.807 4.10785)
(-2.45629e-14 230.093 4.01631)
(1.72181e-13 230.093 4.01631)
(4.59262e-14 220.91 3.92926)
(8.72537e-14 220.91 3.92926)
(-2.20976e-14 212.225 3.84642)
(-8.83902e-14 212.225 3.84642)
(0 204.002 3.76755)
(0 204.002 3.76755)
(1.64084e-16 196.213 3.69241)
(-4.56227e-14 196.213 3.69241)
(0 188.828 3.6208)
(4.47867e-14 188.828 3.6208)
(0 181.821 3.5525)
(-9.26965e-14 181.821 3.5525)
(1.84953e-15 175.167 3.48732)
(-4.31603e-14 175.167 3.48732)
(-2.36803e-14 168.845 3.42508)
(0 168.845 3.42508)
(-2.70559e-14 162.832 3.36562)
(9.57049e-14 162.832 3.36562)
(-2.41676e-14 157.11 3.30877)
(0 157.11 3.30877)
(-8.72695e-15 151.661 3.2544)
(-1.37702e-13 151.661 3.2544)
(2.46378e-14 146.467 3.20235)
(-9.85513e-14 146.467 3.20235)
(-3.86271e-14 141.514 3.15251)
(0 141.514 3.15251)
(-5.01846e-14 136.787 3.10475)
(2.00739e-13 136.787 3.10475)
(-2.53141e-14 132.273 3.05897)
(1.01256e-13 132.273 3.05897)
(0 127.959 3.01505)
(3.65423e-14 127.959 3.01505)
(-6.16201e-14 123.834 2.9729)
(1.0299e-13 123.834 2.9729)
(0 119.887 2.93243)
(0 119.887 2.93243)
(-2.61683e-14 116.109 2.89355)
(-3.457e-14 116.109 2.89355)
(0 112.489 2.85618)
(0 112.489 2.85618)
(0 109.019 2.82024)
(1.0631e-13 109.019 2.82024)
(0 105.692 2.78567)
(0 105.692 2.78567)
(-2.69758e-14 102.499 2.75239)
(1.07903e-13 102.499 2.75239)
(0 99.4342 2.72034)
(1.08685e-13 99.4342 2.72034)
(-2.73643e-14 96.4898 2.68948)
(-1.09457e-13 96.4898 2.68948)
(0 93.6602 2.65973)
(-7.98483e-14 93.6602 2.65973)
(-5.54872e-14 90.9394 2.63104)
(1.10974e-13 90.9394 2.63104)
(-5.586e-14 88.3222 2.60338)
(0 88.3222 2.60338)
(0 85.8033 2.57669)
(1.12457e-13 85.8033 2.57669)
(-2.82967e-14 83.3779 2.55093)
(-1.41393e-13 83.3779 2.55093)
(2.84772e-14 81.0416 2.52605)
(0 81.0416 2.52605)
(2.86558e-14 78.7902 2.50203)
(-1.14623e-13 78.7902 2.50203)
(-5.76653e-14 76.6196 2.47881)
(-2.66839e-14 76.6196 2.47881)
(0 74.5261 2.45637)
(0 74.5261 2.45637)
(2.91812e-14 72.5061 2.43468)
(-2.84879e-13 72.5061 2.43468)
(2.93531e-14 70.5564 2.4137)
(0 70.5564 2.4137)
(0 68.6737 2.3934)
(1.18093e-13 68.6737 2.3934)
(2.96922e-14 66.8551 2.37376)
(1.18769e-13 66.8551 2.37376)
(-1.19566e-14 65.0978 2.35475)
(0 65.0978 2.35475)
(-6.00509e-14 63.3991 2.33634)
(1.20102e-13 63.3991 2.33634)
(3.01901e-14 61.7566 2.31851)
(2.4152e-13 61.7566 2.31851)
(-3.03533e-14 60.1678 2.30124)
(0 60.1678 2.30124)
(-6.10307e-14 58.6305 2.28451)
(1.22061e-13 58.6305 2.28451)
(-3.06761e-14 57.1425 2.26829)
(1.22704e-13 57.1425 2.26829)
(0 55.7018 2.25257)
(-4.27458e-14 55.7018 2.25257)
(3.09941e-14 54.3065 2.23733)
(1.23976e-13 54.3065 2.23733)
(3.11514e-14 52.9548 2.22255)
(1.24606e-13 52.9548 2.22255)
(-3.13076e-14 51.645 2.20821)
(1.2523e-13 51.645 2.20821)
(3.14628e-14 50.3753 2.1943)
(0 50.3753 2.1943)
(7.35333e-15 49.1442 2.1808)
(8.74974e-14 49.1442 2.1808)
(3.177e-14 47.9503 2.16769)
(0 47.9503 2.16769)
(-3.19222e-14 46.792 2.15497)
(1.27689e-13 46.792 2.15497)
(3.20735e-14 45.6682 2.14262)
(1.28294e-13 45.6682 2.14262)
(0 44.5773 2.13063)
(9.27039e-14 44.5773 2.13063)
(0 43.5184 2.11898)
(-1.29493e-13 43.5184 2.11898)
(3.48771e-14 42.49 2.10767)
(9.52104e-14 42.49 2.10767)
(-3.26696e-14 41.4913 2.09668)
(0 41.4913 2.09668)
(-3.28166e-14 40.521 2.086)
(1.31266e-13 40.521 2.086)
(3.29947e-14 39.5781 2.07562)
(0 39.5781 2.07562)
(0 38.6617 2.06553)
(-3.23901e-14 38.6617 2.06553)
(3.32529e-14 37.7709 2.05572)
(1.64808e-13 37.7709 2.05572)
(-2.90308e-14 36.9047 2.04618)
(1.02374e-13 36.9047 2.04618)
(0 36.0623 2.03691)
(1.34161e-13 36.0623 2.03691)
(-6.73655e-14 35.2429 2.0279)
(1.34731e-13 35.2429 2.0279)
(3.38247e-14 34.4457 2.01913)
(1.35299e-13 34.4457 2.01913)
(0 33.6699 2.0106)
(-1.35864e-13 33.6699 2.0106)
(0 32.9149 2.0023)
(0 32.9149 2.0023)
(-4.0558e-14 32.1799 1.99423)
(-2.79354e-14 32.1799 1.99423)
(2.04608e-14 31.4643 1.98637)
(-5.48469e-14 31.4643 1.98637)
(-5.38419e-14 30.7674 1.97872)
(-1.381e-13 30.7674 1.97872)
(1.22182e-13 30.0887 1.97128)
(-5.28553e-14 30.0887 1.97128)
(1.77156e-14 29.4275 1.96404)
(1.39205e-13 29.4275 1.96404)
(-3.49384e-14 28.7833 1.95699)
(1.39754e-13 28.7833 1.95699)
(7.01503e-14 28.1556 1.95013)
(-5.00025e-14 28.1556 1.95013)
(3.52114e-14 27.5438 1.94344)
(1.40846e-13 27.5438 1.94344)
(1.28396e-14 26.9474 1.93693)
(-4.81867e-14 26.9474 1.93693)
(0 26.366 1.93059)
(2.8386e-13 26.366 1.93059)
(-8.20542e-14 25.7991 1.92441)
(4.64369e-14 25.7991 1.92441)
(0 25.2462 1.9184)
(2.86013e-13 25.2462 1.9184)
(-3.58856e-14 24.7069 1.91253)
(0 24.7069 1.91253)
(0 24.1809 1.90682)
(1.44076e-13 24.1809 1.90682)
(3.61522e-14 23.6676 1.90125)
(2.89217e-13 23.6676 1.90125)
(-3.62848e-14 23.1668 1.89582)
(1.45139e-13 23.1668 1.89582)
(3.64171e-14 22.6781 1.89053)
(1.04109e-13 22.6781 1.89053)
(-7.3098e-14 22.201 1.88536)
(1.05398e-13 22.201 1.88536)
(-8.01007e-14 21.7353 1.88033)
(2.93444e-13 21.7353 1.88033)
(0 21.2807 1.87542)
(1.47247e-13 21.2807 1.87542)
(-3.69425e-14 20.8367 1.87063)
(-3.8596e-14 20.8367 1.87063)
(7.49617e-14 20.4032 1.86595)
(-3.78887e-14 20.4032 1.86595)
(3.71944e-14 19.9798 1.86138)
(-3.71944e-14 19.9798 1.86138)
(-3.73328e-14 19.5661 1.85692)
(0 19.5661 1.85692)
(-3.74623e-14 19.1621 1.85257)
(-1.49849e-13 19.1621 1.85257)
(-3.75914e-14 18.7673 1.84831)
(3.00731e-13 18.7673 1.84831)
(-6.90843e-14 18.3815 1.84415)
(2.19965e-13 18.3815 1.84415)
(-3.93961e-15 18.0044 1.84009)
(1.17486e-13 18.0044 1.84009)
(0 17.6359 1.83611)
(1.51908e-13 17.6359 1.83611)
(-7.07828e-14 17.2757 1.83222)
(1.85098e-13 17.2757 1.83222)
(0 16.9235 1.82841)
(1.5293e-13 16.9235 1.82841)
(-3.836e-14 16.5792 1.82468)
(0 16.5792 1.82468)
(-3.84871e-14 16.2424 1.82102)
(0 16.2424 1.82102)
(-3.8614e-14 15.9131 1.81744)
(0 15.9131 1.81744)
(3.87406e-14 15.5911 1.81392)
(-1.54962e-13 15.5911 1.81392)
(0 15.276 1.81047)
(-5.84911e-14 15.276 1.81047)
(5.74193e-14 14.9678 1.80709)
(-5.74193e-14 14.9678 1.80709)
(3.91189e-14 14.6662 1.80376)
(0 14.6662 1.80376)
(-3.92445e-14 14.3711 1.80048)
(1.56978e-13 14.3711 1.80048)
(-3.93699e-14 14.0823 1.79726)
(1.57479e-13 14.0823 1.79726)
(-3.9495e-14 13.7997 1.79408)
(0 13.7997 1.79408)
(0 13.523 1.79095)
(1.5848e-13 13.523 1.79095)
(-3.97446e-14 13.2522 1.78786)
(-2.10367e-13 13.2522 1.78786)
(3.98691e-14 12.987 1.78481)
(1.59477e-13 12.987 1.78481)
(3.99934e-14 12.7274 1.7818)
(1.59974e-13 12.7274 1.7818)
(4.01174e-14 12.4732 1.77881)
(0 12.4732 1.77881)
(0 12.2241 1.77585)
(1.60965e-13 12.2241 1.77585)
(-4.03649e-14 11.9802 1.77292)
(0 11.9802 1.77292)
(0 11.7413 1.77)
(1.61953e-13 11.7413 1.77)
(-4.06116e-14 11.5073 1.76711)
(-4.51482e-14 11.5073 1.76711)
(0 11.2779 1.76422)
(0 11.2779 1.76422)
(0 11.0532 1.76134)
(1.6343e-13 11.0532 1.76134)
(0 10.8329 1.75847)
(1.6392e-13 10.8329 1.75847)
(-4.11024e-14 10.6171 1.7556)
(0 10.6171 1.7556)
(-4.12247e-14 10.4055 1.75272)
(0 10.4055 1.75272)
(-4.13467e-14 10.198 1.74984)
(0 10.198 1.74984)
(8.2937e-14 9.99462 1.74694)
(1.65874e-13 9.99462 1.74694)
(-8.58315e-14 9.79517 1.74403)
(1.6636e-13 9.79517 1.74403)
(-3.82253e-14 9.59957 1.74109)
(1.66846e-13 9.59957 1.74109)
(-4.18328e-14 9.40771 1.73813)
(-3.75249e-14 9.40771 1.73813)
(-7.8791e-14 9.21951 1.73514)
(0 9.21951 1.73514)
(0 9.03488 1.73211)
(0 9.03488 1.73211)
(-3.54995e-14 8.85371 1.72904)
(2.0428e-13 8.85371 1.72904)
(-7.46661e-15 8.67593 1.72592)
(-2.04112e-13 8.67593 1.72592)
(0 8.50145 1.72275)
(0 8.50145 1.72275)
(-1.09723e-13 8.33017 1.71952)
(-3.40447e-13 8.33017 1.71952)
(-4.26756e-14 8.16203 1.71622)
(0 8.16203 1.71622)
(0 7.99694 1.71286)
(0 7.99694 1.71286)
(0 7.83482 1.70942)
(1.71658e-13 7.83482 1.70942)
(-8.60672e-14 7.67558 1.70589)
(3.44269e-13 7.67558 1.70589)
(0 7.51917 1.70227)
(1.7261e-13 7.51917 1.70227)
(-4.32711e-14 7.3655 1.69856)
(0 7.3655 1.69856)
(0 7.2145 1.69473)
(-1.73558e-13 7.2145 1.69473)
(1.44218e-14 7.0661 1.69079)
(-5.79294e-14 7.0661 1.69079)
(0 6.92023 1.68673)
(1.74502e-13 6.92023 1.68673)
(0 6.77682 1.68254)
(1.74973e-13 6.77682 1.68254)
(4.38605e-14 6.6358 1.67821)
(3.50884e-13 6.6358 1.67821)
(4.39775e-14 6.49711 1.67372)
(1.7591e-13 6.49711 1.67372)
(0 6.36068 1.66907)
(1.76377e-13 6.36068 1.66907)
(4.42108e-14 6.22645 1.66426)
(2.28688e-13 6.22645 1.66426)
(-4.4327e-14 6.09435 1.65925)
(3.54616e-13 6.09435 1.65925)
(-4.44428e-14 5.96431 1.65406)
(-1.77771e-13 5.96431 1.65406)
(0 5.83629 1.64865)
(0 5.83629 1.64865)
(3.47441e-15 5.71021 1.64303)
(-4.8148e-14 5.71021 1.64303)
(-8.95767e-14 5.58601 1.63717)
(-9.45313e-14 5.58601 1.63717)
(-4.49028e-14 5.46364 1.63106)
(1.79611e-13 5.46364 1.63106)
(0 5.34304 1.62468)
(0 5.34304 1.62468)
(-4.51305e-14 5.22414 1.61802)
(0 5.22414 1.61802)
(0 5.10688 1.61107)
(-4.38952e-14 5.10688 1.61107)
(4.53566e-14 4.99121 1.60379)
(3.62853e-13 4.99121 1.60379)
(9.09378e-14 4.87707 1.59618)
(-1.81876e-13 4.87707 1.59618)
(9.11616e-14 4.76439 1.58821)
(0 4.76439 1.58821)
(9.13843e-14 4.65311 1.57986)
(3.65537e-13 4.65311 1.57986)
(1.25839e-13 4.54319 1.5711)
(1.03176e-13 4.54319 1.5711)
(4.59133e-14 4.43454 1.56192)
(1.83653e-13 4.43454 1.56192)
(-4.6023e-14 4.32712 1.55227)
(1.84092e-13 4.32712 1.55227)
(-4.61321e-14 4.22087 1.54214)
(0 4.22087 1.54214)
(0 4.1157 1.53149)
(1.84962e-13 4.1157 1.53149)
(-9.26968e-14 4.01157 1.52029)
(1.12427e-13 4.01157 1.52029)
(-1.18085e-13 3.90841 1.50851)
(7.16298e-14 3.90841 1.50851)
(0 3.80615 1.4961)
(3.72496e-13 3.80615 1.4961)
(0 3.70471 1.48302)
(-6.90287e-14 3.70471 1.48302)
(4.67724e-14 3.60403 1.46923)
(-1.8709e-13 3.60403 1.46923)
(-1.96456e-14 3.50403 1.45467)
(6.6522e-14 3.50403 1.45467)
(-2.86558e-14 3.40463 1.43931)
(0 3.40463 1.43931)
(9.41631e-14 3.30576 1.42307)
(-6.41064e-14 3.30576 1.42307)
(0 3.20733 1.40591)
(1.88731e-13 3.20733 1.40591)
(0 3.10924 1.38774)
(1.89131e-13 3.10924 1.38774)
(4.73817e-14 3.0114 1.3685)
(1.89527e-13 3.0114 1.3685)
(0 2.91372 1.3481)
(-2.49453e-13 2.91372 1.3481)
(-4.75761e-14 2.81609 1.32647)
(0 2.81609 1.32647)
(-4.76713e-14 2.7184 1.3035)
(1.90685e-13 2.7184 1.3035)
(0 2.62052 1.27909)
(1.9106e-13 2.62052 1.27909)
(7.4322e-15 2.52234 1.25312)
(-1.9143e-13 2.52234 1.25312)
(4.79483e-14 2.42371 1.22547)
(3.2931e-13 2.42371 1.22547)
(5.32819e-14 2.32448 1.196)
(1.38868e-13 2.32448 1.196)
(-4.81247e-14 2.22451 1.16455)
(0 2.22451 1.16455)
(4.82102e-14 2.12362 1.13097)
(1.92841e-13 2.12362 1.13097)
(5.25186e-14 2.02163 1.09507)
(1.93175e-13 2.02163 1.09507)
(-4.8375e-14 1.91835 1.05665)
(1.935e-13 1.91835 1.05665)
(0 1.81359 1.01549)
(0 1.81359 1.01549)
(4.85306e-14 1.70711 0.97136)
(0 1.70711 0.97136)
(-9.72092e-14 1.5987 0.924003)
(1.94418e-13 1.5987 0.924003)
(9.19079e-14 1.48813 0.873149)
(0 1.48813 0.873149)
(4.51119e-14 1.37516 0.818509)
(0 1.37516 0.818509)
(4.88089e-14 1.25955 0.759783)
(1.95235e-13 1.25955 0.759783)
(-4.88704e-14 1.14108 0.696662)
(1.95481e-13 1.14108 0.696662)
(-9.16051e-14 1.01953 0.628835)
(0 1.01953 0.628835)
(8.379e-14 0.894714 0.555994)
(-8.379e-14 0.894714 0.555994)
(0 0.766495 0.477852)
(-1.96125e-13 0.766495 0.477852)
(-4.9076e-14 0.634772 0.394145)
(0 0.634772 0.394145)
(-8.87496e-14 0.499517 0.304652)
(2.75731e-13 0.499517 0.304652)
(-7.78151e-14 0.360774 0.209198)
(2.74416e-13 0.360774 0.209198)
(-4.91788e-14 0.218666 0.107667)
(0 0.218666 0.107667)
(-4.92012e-14 3.89669e-07 1.44227e-07)
(3.9372e-13 3.89834e-07 1.44288e-07)
(2.28849e-16 874.934 -1.61918)
(-2.28849e-16 874.934 -1.61918)
(-8.98622e-16 874.932 -4.88777)
(0 874.932 -4.88777)
(-3.97994e-16 874.927 -6.78344)
(0 874.927 -6.78344)
(6.52136e-16 874.917 -6.90995)
(0 874.917 -6.90995)
(-2.22749e-15 874.893 -7.03867)
(0 874.893 -7.03867)
(4.92218e-15 874.839 -7.16945)
(-3.33817e-15 874.839 -7.16945)
(0 874.724 -7.30197)
(-3.277e-15 874.724 -7.30197)
(1.15363e-14 874.493 -7.43569)
(-6.4339e-15 874.493 -7.43569)
(-9.36457e-15 874.064 -7.56969)
(1.21943e-14 874.064 -7.56969)
(3.55537e-15 873.313 -7.70263)
(-1.42215e-14 873.313 -7.70263)
(2.05698e-15 872.072 -7.83261)
(-1.62872e-14 872.072 -7.83261)
(4.59804e-15 870.117 -7.95708)
(0 870.117 -7.95708)
(-5.13411e-15 867.172 -8.07281)
(-2.05364e-14 867.172 -8.07281)
(1.15163e-14 862.911 -8.17594)
(-3.42361e-14 862.911 -8.17594)
(6.23531e-15 856.978 -8.26216)
(-2.49413e-14 856.978 -8.26216)
(0 849.016 -8.327)
(0 849.016 -8.327)
(7.37198e-15 838.698 -8.36621)
(-2.94879e-14 838.698 -8.36621)
(7.9511e-15 825.774 -8.37629)
(3.18044e-14 825.774 -8.37629)
(8.53529e-15 810.107 -8.35489)
(0 810.107 -8.35489)
(2.85517e-14 791.703 -8.30111)
(-1.03067e-14 791.703 -8.30111)
(9.71036e-15 770.713 -8.21567)
(2.87236e-14 770.713 -8.21567)
(1.02964e-14 747.427 -8.10079)
(3.12531e-14 747.427 -8.10079)
(-1.0878e-14 722.24 -7.9599)
(0 722.24 -7.9599)
(2.29059e-14 695.614 -7.79722)
(0 695.614 -7.79722)
(1.20189e-14 668.032 -7.61739)
(0 668.032 -7.61739)
(1.84483e-14 639.963 -7.42502)
(0 639.963 -7.42502)
(0 611.828 -7.22441)
(-1.81102e-14 611.828 -7.22441)
(2.7294e-14 583.991 -7.01941)
(0 583.991 -7.01941)
(1.41627e-14 556.744 -6.81326)
(5.66507e-14 556.744 -6.81326)
(2.93277e-14 530.311 -6.60857)
(0 530.311 -6.60857)
(1.51503e-14 504.853 -6.40743)
(0 504.853 -6.40743)
(1.56221e-14 480.478 -6.21136)
(0 480.478 -6.21136)
(1.60795e-14 457.247 -6.02148)
(-6.43179e-14 457.247 -6.02148)
(1.59111e-14 435.187 -5.83852)
(-8.20019e-14 435.187 -5.83852)
(1.56195e-14 414.297 -5.66295)
(0 414.297 -5.66295)
(3.27017e-14 394.556 -5.49498)
(-8.48071e-14 394.556 -5.49498)
(2.04917e-14 375.93 -5.33468)
(0 375.93 -5.33468)
(-1.81633e-14 358.373 -5.18196)
(-7.26534e-14 358.373 -5.18196)
(-1.85431e-14 341.836 -5.03666)
(-1.77356e-13 341.836 -5.03666)
(-1.89117e-14 326.264 -4.89855)
(0 326.264 -4.89855)
(-1.92699e-14 311.602 -4.76735)
(0 311.602 -4.76735)
(-1.96179e-14 297.797 -4.64276)
(-1.56944e-13 297.797 -4.64276)
(1.29704e-14 284.793 -4.52446)
(2.69426e-14 284.793 -4.52446)
(2.02861e-14 272.54 -4.41213)
(-8.11442e-14 272.54 -4.41213)
(4.1214e-14 260.988 -4.30546)
(5.64638e-14 260.988 -4.30546)
(4.64083e-14 250.092 -4.20413)
(-1.09168e-13 250.092 -4.20413)
(-4.24498e-14 239.807 -4.10785)
(-8.48996e-14 239.807 -4.10785)
(4.30453e-14 230.093 -4.01631)
(8.60906e-14 230.093 -4.01631)
(4.82256e-14 220.91 -3.92926)
(0 220.91 -3.92926)
(1.57336e-15 212.225 -3.84642)
(-2.00451e-13 212.225 -3.84642)
(2.23754e-14 204.002 -3.76755)
(-8.95016e-14 204.002 -3.76755)
(-1.64084e-16 196.213 -3.69241)
(2.28113e-14 196.213 -3.69241)
(2.23933e-14 188.828 -3.6208)
(-2.05701e-13 188.828 -3.6208)
(2.31741e-14 181.821 -3.5525)
(0 181.821 -3.5525)
(4.68594e-14 175.167 -3.48732)
(0 175.167 -3.48732)
(4.23694e-14 168.845 -3.42508)
(-1.37091e-13 168.845 -3.42508)
(3.12972e-15 162.832 -3.36562)
(0 162.832 -3.36562)
(6.49985e-14 157.11 -3.30877)
(-1.37501e-13 157.11 -3.30877)
(4.00826e-14 151.661 -3.2544)
(-1.37702e-13 151.661 -3.2544)
(0 146.467 -3.20235)
(-9.85513e-14 146.467 -3.20235)
(2.48669e-14 141.514 -3.15251)
(0 141.514 -3.15251)
(0 136.787 -3.10475)
(0 136.787 -3.10475)
(6.25385e-14 132.273 -3.05897)
(-3.72244e-14 132.273 -3.05897)
(2.55325e-14 127.959 -3.01505)
(0 127.959 -3.01505)
(3.58726e-14 123.834 -2.9729)
(-1.38863e-13 123.834 -2.9729)
(0 119.887 -2.93243)
(0 119.887 -2.93243)
(6.07383e-14 116.109 -2.89355)
(-1.39243e-13 116.109 -2.89355)
(3.39365e-14 112.489 -2.85618)
(-1.39434e-13 112.489 -2.85618)
(3.33146e-14 109.019 -2.82024)
(0 109.019 -2.82024)
(-5.94821e-14 105.692 -2.78567)
(2.46928e-13 105.692 -2.78567)
(0 102.499 -2.75239)
(0 102.499 -2.75239)
(2.71713e-14 99.4342 -2.72034)
(-1.08685e-13 99.4342 -2.72034)
(2.73643e-14 96.4898 -2.68948)
(-1.09457e-13 96.4898 -2.68948)
(3.0372e-14 93.6602 -2.65973)
(-2.20441e-13 93.6602 -2.65973)
(-2.77436e-14 90.9394 -2.63104)
(-2.98155e-14 90.9394 -2.63104)
(0 88.3222 -2.60338)
(0 88.3222 -2.60338)
(-5.74656e-14 85.8033 -2.57669)
(1.69923e-13 85.8033 -2.57669)
(-9.04745e-17 83.3779 -2.55093)
(-4.80954e-13 83.3779 -2.55093)
(5.69544e-14 81.0416 -2.52605)
(-1.13909e-13 81.0416 -2.52605)
(-2.86558e-14 78.7902 -2.50203)
(0 78.7902 -2.50203)
(-2.88326e-14 76.6196 -2.47881)
(-1.15331e-13 76.6196 -2.47881)
(-5.80155e-14 74.5261 -2.45637)
(-1.42226e-13 74.5261 -2.45637)
(-2.91812e-14 72.5061 -2.43468)
(-2.59165e-13 72.5061 -2.43468)
(5.87061e-14 70.5564 -2.4137)
(-1.17412e-13 70.5564 -2.4137)
(2.95234e-14 68.6737 -2.3934)
(1.18093e-13 68.6737 -2.3934)
(-4.8654e-14 66.8551 -2.37376)
(1.67423e-13 66.8551 -2.37376)
(-1.79029e-14 65.0978 -2.35475)
(-1.672e-13 65.0978 -2.35475)
(-1.06938e-13 63.3991 -2.33634)
(7.32147e-14 63.3991 -2.33634)
(3.01901e-14 61.7566 -2.31851)
(0 61.7566 -2.31851)
(-3.03533e-14 60.1678 -2.30124)
(0 60.1678 -2.30124)
(0 58.6305 -2.28451)
(0 58.6305 -2.28451)
(3.06761e-14 57.1425 -2.26829)
(1.22704e-13 57.1425 -2.26829)
(4.27458e-14 55.7018 -2.25257)
(-8.05969e-14 55.7018 -2.25257)
(4.19625e-14 54.3065 -2.23733)
(-4.19625e-14 54.3065 -2.23733)
(3.11514e-14 52.9548 -2.22255)
(8.3412e-14 52.9548 -2.22255)
(4.04387e-14 51.645 -2.20821)
(-4.04387e-14 51.645 -2.20821)
(0 50.3753 -2.1943)
(-2.51702e-13 50.3753 -2.1943)
(3.89702e-14 49.1442 -2.1808)
(-3.89702e-14 49.1442 -2.1808)
(3.177e-14 47.9503 -2.16769)
(-1.2708e-13 47.9503 -2.16769)
(3.19222e-14 46.792 -2.15497)
(0 46.792 -2.15497)
(6.89404e-14 45.6682 -2.14262)
(2.56588e-13 45.6682 -2.14262)
(6.84151e-14 44.5773 -2.13063)
(-3.61913e-14 44.5773 -2.13063)
(3.23733e-14 43.5184 -2.11898)
(-1.29493e-13 43.5184 -2.11898)
(-2.35522e-15 42.49 -2.10767)
(1.30087e-13 42.49 -2.10767)
(3.4238e-14 41.4913 -2.09668)
(0 41.4913 -2.09668)
(-3.28166e-14 40.521 -2.086)
(-1.31266e-13 40.521 -2.086)
(3.29947e-14 39.5781 -2.07562)
(-3.29947e-14 39.5781 -2.07562)
(0 38.6617 -2.06553)
(-3.23901e-14 38.6617 -2.06553)
(0 37.7709 -2.05572)
(0 37.7709 -2.05572)
(3.12139e-14 36.9047 -2.04618)
(-1.64801e-13 36.9047 -2.04618)
(-3.06419e-14 36.0623 -2.03691)
(-3.06419e-14 36.0623 -2.03691)
(0 35.2429 -2.0279)
(-3.00804e-14 35.2429 -2.0279)
(4.29551e-15 34.4457 -2.01913)
(-2.95292e-14 34.4457 -2.01913)
(-3.39659e-14 33.6699 -2.0106)
(0 33.6699 -2.0106)
(-3.41066e-14 32.9149 -2.0023)
(0 32.9149 -2.0023)
(6.31129e-15 32.1799 -1.99423)
(0 32.1799 -1.99423)
(0 31.4643 -1.98637)
(0 31.4643 -1.98637)
(-6.90501e-14 30.7674 -1.97872)
(-2.22358e-13 30.7674 -1.97872)
(0 30.0887 -1.97128)
(0 30.0887 -1.97128)
(3.48012e-14 29.4275 -1.96404)
(0 29.4275 -1.96404)
(-5.09359e-14 28.7833 -1.95699)
(1.39754e-13 28.7833 -1.95699)
(0 28.1556 -1.95013)
(-1.40301e-13 28.1556 -1.95013)
(0 27.5438 -1.94344)
(-1.40846e-13 27.5438 -1.94344)
(-3.53472e-14 26.9474 -1.93693)
(-1.41389e-13 26.9474 -1.93693)
(0 26.366 -1.93059)
(9.46261e-14 26.366 -1.93059)
(3.56173e-14 25.7991 -1.92441)
(4.64369e-14 25.7991 -1.92441)
(7.15033e-14 25.2462 -1.9184)
(1.43007e-13 25.2462 -1.9184)
(-3.58856e-14 24.7069 -1.91253)
(1.43542e-13 24.7069 -1.91253)
(-4.39306e-14 24.1809 -1.90682)
(-4.39306e-14 24.1809 -1.90682)
(3.61522e-14 23.6676 -1.90125)
(0 23.6676 -1.90125)
(-6.05047e-15 23.1668 -1.89582)
(1.87475e-13 23.1668 -1.89582)
(3.64171e-14 22.6781 -1.89053)
(1.04109e-13 22.6781 -1.89053)
(3.6549e-14 22.201 -1.88536)
(0 22.201 -1.88536)
(4.00503e-14 21.7353 -1.88033)
(-1.46722e-13 21.7353 -1.88033)
(7.61281e-14 21.2807 -1.87542)
(0 21.2807 -1.87542)
(1.65349e-15 20.8367 -1.87063)
(-3.8596e-14 20.8367 -1.87063)
(0 20.4032 -1.86595)
(0 20.4032 -1.86595)
(8.62915e-18 19.9798 -1.86138)
(0 19.9798 -1.86138)
(7.46657e-14 19.5661 -1.85692)
(0 19.5661 -1.85692)
(0 19.1621 -1.85257)
(0 19.1621 -1.85257)
(3.75914e-14 18.7673 -1.84831)
(3.35918e-13 18.7673 -1.84831)
(0 18.3815 -1.84415)
(0 18.3815 -1.84415)
(-1.05667e-13 18.0044 -1.84009)
(0 18.0044 -1.84009)
(-3.7977e-14 17.6359 -1.83611)
(0 17.6359 -1.83611)
(3.26778e-14 17.2757 -1.83222)
(0 17.2757 -1.83222)
(3.82326e-14 16.9235 -1.82841)
(0 16.9235 -1.82841)
(3.14912e-14 16.5792 -1.82468)
(0 16.5792 -1.82468)
(7.69743e-14 16.2424 -1.82102)
(-1.53949e-13 16.2424 -1.82102)
(7.7228e-14 15.9131 -1.81744)
(-1.54456e-13 15.9131 -1.81744)
(2.08424e-14 15.5911 -1.81392)
(-4.64887e-13 15.5911 -1.81392)
(-3.88669e-14 15.276 -1.81047)
(0 15.276 -1.81047)
(5.74193e-14 14.9678 -1.80709)
(9.85528e-14 14.9678 -1.80709)
(-5.63671e-14 14.6662 -1.80376)
(0 14.6662 -1.80376)
(3.92445e-14 14.3711 -1.80048)
(0 14.3711 -1.80048)
(-3.93699e-14 14.0823 -1.79726)
(-2.118e-13 14.0823 -1.79726)
(0 13.7997 -1.79408)
(0 13.7997 -1.79408)
(3.96199e-14 13.523 -1.79095)
(1.5848e-13 13.523 -1.79095)
(7.94893e-14 13.2522 -1.78786)
(-1.58979e-13 13.2522 -1.78786)
(0 12.987 -1.78481)
(-2.09923e-13 12.987 -1.78481)
(3.99934e-14 12.7274 -1.7818)
(0 12.7274 -1.7818)
(-4.86148e-14 12.4732 -1.77881)
(-1.6047e-13 12.4732 -1.77881)
(0 12.2241 -1.77585)
(-3.69654e-13 12.2241 -1.77585)
(0 11.9802 -1.77292)
(0 11.9802 -1.77292)
(8.09767e-14 11.7413 -1.77)
(1.61953e-13 11.7413 -1.77)
(4.06116e-14 11.5073 -1.76711)
(-4.51482e-14 11.5073 -1.76711)
(0 11.2779 -1.76422)
(2.07259e-13 11.2779 -1.76422)
(4.08574e-14 11.0532 -1.76134)
(-1.6343e-13 11.0532 -1.76134)
(0 10.8329 -1.75847)
(-1.6392e-13 10.8329 -1.75847)
(0 10.6171 -1.7556)
(0 10.6171 -1.7556)
(4.12247e-14 10.4055 -1.75272)
(-2.06059e-13 10.4055 -1.75272)
(8.26933e-14 10.198 -1.74984)
(-1.65387e-13 10.198 -1.74984)
(4.14685e-14 9.99462 -1.74694)
(1.26208e-13 9.99462 -1.74694)
(4.42414e-14 9.79517 -1.74403)
(1.27422e-13 9.79517 -1.74403)
(7.99369e-14 9.59957 -1.74109)
(-3.82253e-14 9.59957 -1.74109)
(-4.30791e-15 9.40771 -1.73813)
(-3.75249e-14 9.40771 -1.73813)
(4.19538e-14 9.21951 -1.73514)
(-1.67815e-13 9.21951 -1.73514)
(4.20746e-14 9.03488 -1.73211)
(1.32136e-13 9.03488 -1.73211)
(8.43904e-14 8.85371 -1.72904)
(0 8.85371 -1.72904)
(0 8.67593 -1.72592)
(1.69263e-13 8.67593 -1.72592)
(-4.24358e-14 8.50145 -1.72275)
(-1.69743e-13 8.50145 -1.72275)
(1.52279e-13 8.33017 -1.71952)
(-2.3739e-13 8.33017 -1.71952)
(-4.26756e-14 8.16203 -1.71622)
(-4.07341e-13 8.16203 -1.71622)
(1.07523e-13 7.99694 -1.71286)
(-2.35909e-13 7.99694 -1.71286)
(0 7.83482 -1.70942)
(1.08116e-13 7.83482 -1.70942)
(2.36897e-14 7.67558 -1.70589)
(1.72134e-13 7.67558 -1.70589)
(1.04387e-13 7.51917 -1.70227)
(-1.7261e-13 7.51917 -1.70227)
(-1.68412e-14 7.3655 -1.69856)
(0 7.3655 -1.69856)
(0 7.2145 -1.69473)
(-1.73558e-13 7.2145 -1.69473)
(0 7.0661 -1.69079)
(-1.7403e-13 7.0661 -1.69079)
(5.68679e-14 6.92023 -1.68673)
(-2.3137e-13 6.92023 -1.68673)
(0 6.77682 -1.68254)
(0 6.77682 -1.68254)
(4.38605e-14 6.6358 -1.67821)
(0 6.6358 -1.67821)
(4.39775e-14 6.49711 -1.67372)
(1.7591e-13 6.49711 -1.67372)
(4.40943e-14 6.36068 -1.66907)
(-5.28127e-14 6.36068 -1.66907)
(0 6.22645 -1.66426)
(1.76843e-13 6.22645 -1.66426)
(0 6.09435 -1.65925)
(-1.0179e-13 6.09435 -1.65925)
(9.99245e-14 5.96431 -1.65406)
(-2.77696e-13 5.96431 -1.65406)
(-4.90467e-14 5.83629 -1.64865)
(0 5.83629 -1.64865)
(5.16224e-14 5.71021 -1.64303)
(-9.62959e-14 5.71021 -1.64303)
(4.9743e-14 5.58601 -1.63717)
(-2.73685e-13 5.58601 -1.63717)
(4.78963e-14 5.46364 -1.63106)
(-2.7241e-13 5.46364 -1.63106)
(0 5.34304 -1.62468)
(0 5.34304 -1.62468)
(4.47146e-14 5.22414 -1.61802)
(-3.61044e-13 5.22414 -1.61802)
(0 5.10688 -1.61107)
(-1.80975e-13 5.10688 -1.61107)
(0 4.99121 -1.60379)
(0 4.99121 -1.60379)
(0 4.87707 -1.59618)
(-1.81876e-13 4.87707 -1.59618)
(-4.05471e-15 4.76439 -1.58821)
(0 4.76439 -1.58821)
(1.32149e-13 4.65311 -1.57986)
(1.01238e-13 4.65311 -1.57986)
(9.1606e-14 4.54319 -1.5711)
(0 4.54319 -1.5711)
(9.18266e-14 4.43454 -1.56192)
(-2.62223e-13 4.43454 -1.56192)
(8.45879e-14 4.32712 -1.55227)
(0 4.32712 -1.55227)
(-4.61321e-14 4.22087 -1.54214)
(-7.57164e-14 4.22087 -1.54214)
(0 4.1157 -1.53149)
(1.84962e-13 4.1157 -1.53149)
(-4.63484e-14 4.01157 -1.52029)
(1.85394e-13 4.01157 -1.52029)
(0 3.90841 -1.50851)
(-2.57452e-13 3.90841 -1.50851)
(0 3.80615 -1.4961)
(-2.56565e-13 3.80615 -1.4961)
(-1.15696e-13 3.70471 -1.48302)
(-1.8667e-13 3.70471 -1.48302)
(9.35448e-14 3.60403 -1.46923)
(-1.8709e-13 3.60403 -1.46923)
(4.68764e-14 3.50403 -1.45467)
(0 3.50403 -1.45467)
(0 3.40463 -1.43931)
(1.22615e-13 3.40463 -1.43931)
(0 3.30576 -1.42307)
(0 3.30576 -1.42307)
(0 3.20733 -1.40591)
(-2.51662e-13 3.20733 -1.40591)
(6.17784e-14 3.10924 -1.38774)
(-6.17784e-14 3.10924 -1.38774)
(-1.32646e-14 3.0114 -1.3685)
(1.89527e-13 3.0114 -1.3685)
(1.07015e-13 2.91372 -1.3481)
(-4.39371e-13 2.91372 -1.3481)
(0 2.81609 -1.32647)
(0 2.81609 -1.32647)
(-9.70181e-15 2.7184 -1.3035)
(0 2.7184 -1.3035)
(4.77651e-14 2.62052 -1.27909)
(-1.9106e-13 2.62052 -1.27909)
(-1.03147e-13 2.52234 -1.25312)
(1.9143e-13 2.52234 -1.25312)
(-1.26565e-14 2.42371 -1.22547)
(1.91793e-13 2.42371 -1.22547)
(4.27929e-14 2.32448 -1.196)
(0 2.32448 -1.196)
(-4.18079e-15 2.22451 -1.16455)
(0 2.22451 -1.16455)
(4.82102e-14 2.12362 -1.13097)
(0 2.12362 -1.13097)
(-2.11246e-15 2.02163 -1.09507)
(-2.93987e-13 2.02163 -1.09507)
(-5.05899e-14 1.91835 -1.05665)
(2.92465e-13 1.91835 -1.05665)
(0 1.81359 -1.01549)
(-2.90968e-13 1.81359 -1.01549)
(4.85306e-14 1.70711 -0.97136)
(-2.89494e-13 1.70711 -0.97136)
(9.54163e-14 1.5987 -0.924003)
(0 1.5987 -0.924003)
(9.19079e-14 1.48813 -0.873149)
(1.94703e-13 1.48813 -0.873149)
(0 1.37516 -0.818509)
(-3.89951e-13 1.37516 -0.818509)
(0 1.25955 -0.759783)
(-1.95235e-13 1.25955 -0.759783)
(9.2344e-14 1.14108 -0.696662)
(-2.38955e-13 1.14108 -0.696662)
(4.89281e-14 1.01953 -0.628835)
(1.10358e-13 1.01953 -0.628835)
(4.89819e-14 0.894714 -0.555994)
(-3.91855e-13 0.894714 -0.555994)
(9.80625e-14 0.766495 -0.477852)
(-1.96125e-13 0.766495 -0.477852)
(0 0.634772 -0.394145)
(0 0.634772 -0.394145)
(-8.87496e-14 0.499517 -0.304652)
(1.17196e-13 0.499517 -0.304652)
(0 0.360774 -0.209198)
(-2.74416e-13 0.360774 -0.209198)
(-4.91788e-14 0.218666 -0.107667)
(1.20326e-13 0.218666 -0.107667)
(4.92012e-14 3.89405e-07 -1.44129e-07)
(1.97025e-13 3.8968e-07 -1.44231e-07)
(4.92563e-14 -1.51712e-07 5.61549e-08)
(2.71794e-13 -9.73506e-08 3.6032e-08)
(0 -0.218665 0.107667)
(3.17041e-13 -0.218665 0.107667)
(-4.91502e-14 -0.360773 0.209198)
(-7.78151e-14 -0.360773 0.209198)
(7.92676e-14 -0.499517 0.304652)
(1.17196e-13 -0.499517 0.304652)
(0 -0.634772 0.394145)
(3.92608e-13 -0.634772 0.394145)
(3.32233e-14 -0.766494 0.477852)
(-2.7838e-13 -0.766494 0.477852)
(4.1895e-14 -0.894714 0.555994)
(0 -0.894714 0.555994)
(-6.25107e-15 -1.01953 0.628835)
(-2.38389e-13 -1.01953 0.628835)
(0 -1.14108 0.696662)
(0 -1.14108 0.696662)
(1.37379e-13 -1.25955 0.759783)
(0 -1.25955 0.759783)
(0 -1.37516 0.818509)
(1.94976e-13 -1.37516 0.818509)
(9.19079e-14 -1.48813 0.873149)
(1.94703e-13 -1.48813 0.873149)
(0 -1.5987 0.924003)
(0 -1.5987 0.924003)
(-4.85306e-14 -1.70711 0.97136)
(-1.94122e-13 -1.70711 0.97136)
(9.6908e-14 -1.81359 1.01549)
(-9.71514e-14 -1.81359 1.01549)
(-4.94825e-14 -1.91835 1.05665)
(4.94825e-14 -1.91835 1.05665)
(1.46993e-13 -2.02163 1.09507)
(1.42769e-13 -2.02163 1.09507)
(-4.82102e-14 -2.12362 1.13097)
(-2.95535e-13 -2.12362 1.13097)