/*--------------------------------*- C++ -*----------------------------------*\
| =========                 |                                                 |
| \\      /  F ield         | OpenFOAM: The Open Source CFD Toolbox           |
|  \\    /   O peration     | Version:  2106                                  |
|   \\  /    A nd           | Website:  www.openfoam.com                      |
|    \\/     M anipulation  |                                                 |
\*---------------------------------------------------------------------------*/
FoamFile
{
    version     2.0;
    format      ascii;
    arch        "LSB;label=32;scalar=64";
    class       volScalarField;
    location    "10060";
    object      p;
}
// * * * * * * * * * * * * * * * * * * * * * * * * * * * * * * * * * * * * * //

dimensions      [0 2 -2 0 0 0 0];

internalField   nonuniform List<scalar> 
2000
(
5.95242e-16
1.15861e-14
1.27804e-15
1.15862e-14
1.40633e-15
1.15863e-14
1.39443e-15
1.15865e-14
1.41606e-15
1.15868e-14
1.45433e-15
1.15872e-14
1.49248e-15
1.15876e-14
1.52899e-15
1.15882e-14
1.56464e-15
1.15888e-14
1.5994e-15
1.15896e-14
1.63319e-15
1.15904e-14
1.66615e-15
1.15912e-14
1.69823e-15
1.15922e-14
1.72958e-15
1.15932e-14
1.76017e-15
1.15943e-14
1.79015e-15
1.15955e-14
1.81966e-15
1.15967e-14
1.8489e-15
1.15979e-14
1.87786e-15
1.15993e-14
1.90658e-15
1.16008e-14
1.93529e-15
1.16024e-14
1.96397e-15
1.16043e-14
1.99271e-15
1.16063e-14
2.0218e-15
1.16086e-14
2.05111e-15
1.16111e-14
2.08073e-15
1.16138e-14
2.11069e-15
1.16168e-14
2.14134e-15
1.162e-14
2.1725e-15
1.16237e-14
2.20411e-15
1.16276e-14
2.23592e-15
1.16319e-14
2.26847e-15
1.16367e-14
2.30148e-15
1.1642e-14
2.33493e-15
1.16478e-14
2.36895e-15
1.16538e-14
2.40344e-15
1.16603e-14
2.43869e-15
1.16671e-14
2.47471e-15
1.16739e-14
2.51127e-15
1.1681e-14
2.54873e-15
1.16879e-14
2.58668e-15
1.16952e-14
2.6249e-15
1.17027e-14
2.66431e-15
1.17102e-14
2.70471e-15
1.17179e-14
2.74524e-15
1.17257e-14
2.78627e-15
1.17333e-14
2.82752e-15
1.17408e-14
2.86985e-15
1.17487e-14
2.91254e-15
1.17574e-14
2.95599e-15
1.17669e-14
2.99873e-15
1.17763e-14
3.04312e-15
1.17857e-14
3.08587e-15
1.17959e-14
3.12994e-15
1.1807e-14
3.17426e-15
1.18186e-14
3.21741e-15
1.18301e-14
3.26064e-15
1.18425e-14
3.30501e-15
1.18557e-14
3.34934e-15
1.18702e-14
3.39296e-15
1.18849e-14
3.43754e-15
1.18988e-14
3.48185e-15
1.19118e-14
3.5276e-15
1.19245e-14
3.57353e-15
1.19382e-14
3.62082e-15
1.19511e-14
3.66622e-15
1.19645e-14
3.71283e-15
1.19771e-14
3.75861e-15
1.19883e-14
3.80413e-15
1.20002e-14
3.84994e-15
1.20121e-14
3.89392e-15
1.20254e-14
3.93797e-15
1.20403e-14
3.9827e-15
1.20555e-14
4.02731e-15
1.20681e-14
4.07382e-15
1.20798e-14
4.11999e-15
1.20911e-14
4.16569e-15
1.21038e-14
4.21375e-15
1.21163e-14
4.25961e-15
1.21266e-14
4.30686e-15
1.21363e-14
4.35767e-15
1.21438e-14
4.40737e-15
1.21515e-14
4.45658e-15
1.21604e-14
4.50669e-15
1.21643e-14
4.55757e-15
1.21655e-14
4.60909e-15
1.2169e-14
4.66109e-15
1.21733e-14
4.71827e-15
1.21752e-14
4.77403e-15
1.21781e-14
4.82983e-15
1.21823e-14
4.88877e-15
1.21827e-14
4.94908e-15
1.2183e-14
5.00891e-15
1.21864e-14
5.06638e-15
1.21832e-14
5.12466e-15
1.21836e-14
5.18355e-15
1.21877e-14
5.24113e-15
1.21923e-14
5.30063e-15
1.21976e-14
5.36183e-15
1.22004e-14
5.42103e-15
1.22059e-14
5.47972e-15
1.22144e-14
5.53941e-15
1.22262e-14
5.60518e-15
1.22325e-14
5.67146e-15
1.22337e-14
5.73801e-15
1.2235e-14
5.80636e-15
1.22369e-14
5.87264e-15
1.22394e-14
5.942e-15
1.22447e-14
6.01418e-15
1.22402e-14
6.09076e-15
1.22406e-14
6.16046e-15
1.22407e-14
6.23215e-15
1.22426e-14
6.30369e-15
1.22484e-14
6.37474e-15
1.22583e-14
6.44684e-15
1.22652e-14
6.51777e-15
1.22674e-14
6.5853e-15
1.22783e-14
6.65658e-15
1.22833e-14
6.71991e-15
1.22862e-14
6.79381e-15
1.22799e-14
6.86279e-15
1.22796e-14
6.93023e-15
1.22858e-14
6.99954e-15
1.22873e-14
7.07415e-15
1.22881e-14
7.14217e-15
1.22887e-14
7.21468e-15
1.22892e-14
7.2913e-15
1.229e-14
7.36391e-15
1.22875e-14
7.43981e-15
1.22744e-14
7.51864e-15
1.22622e-14
7.59616e-15
1.22631e-14
7.67584e-15
1.22656e-14
7.74945e-15
1.22546e-14
7.82439e-15
1.22418e-14
7.87681e-15
1.22548e-14
7.94124e-15
1.2263e-14
8.0093e-15
1.22628e-14
8.08439e-15
1.22624e-14
8.15426e-15
1.2262e-14
8.22624e-15
1.22543e-14
8.29986e-15
1.22316e-14
8.37075e-15
1.22216e-14
8.44234e-15
1.22245e-14
8.51799e-15
1.22172e-14
8.60119e-15
1.21998e-14
8.67584e-15
1.21922e-14
8.74544e-15
1.21947e-14
8.81735e-15
1.21877e-14
8.89898e-15
1.21716e-14
8.97421e-15
1.217e-14
9.04259e-15
1.21438e-14
9.11164e-15
1.21167e-14
9.18893e-15
1.20809e-14
9.28216e-15
1.2052e-14
9.35988e-15
1.20375e-14
9.4219e-15
1.20216e-14
9.49152e-15
1.20045e-14
9.56068e-15
1.19938e-14
9.62912e-15
1.19581e-14
9.69684e-15
1.19362e-14
9.77161e-15
1.19279e-14
9.85328e-15
1.19172e-14
9.91845e-15
1.1896e-14
9.97494e-15
1.18874e-14
1.00382e-14
1.18838e-14
1.01002e-14
1.18536e-14
1.01611e-14
1.18198e-14
1.02288e-14
1.17971e-14
1.02958e-14
1.17925e-14
1.03543e-14
1.17824e-14
1.0412e-14
1.17586e-14
1.04691e-14
1.17358e-14
1.05182e-14
1.17135e-14
1.05825e-14
1.17062e-14
1.06314e-14
1.17056e-14
1.06958e-14
1.16726e-14
1.07306e-14
1.16367e-14
1.07744e-14
1.1612e-14
1.08201e-14
1.16051e-14
1.08908e-14
1.1592e-14
1.09646e-14
1.1586e-14
1.09972e-14
1.15548e-14
1.10197e-14
1.1527e-14
1.10625e-14
1.15013e-14
1.11113e-14
1.14612e-14
1.11529e-14
1.14641e-14
1.11881e-14
1.15085e-14
1.1231e-14
1.152e-14
1.12669e-14
1.14977e-14
1.12971e-14
1.1469e-14
1.13226e-14
1.14612e-14
1.13586e-14
1.14582e-14
1.13764e-14
1.14877e-14
1.14041e-14
1.15061e-14
1.14414e-14
1.15126e-14
1.14886e-14
1.15348e-14
1.15175e-14
1.15992e-14
1.1541e-14
1.162e-14
1.15721e-14
1.16691e-14
1.15952e-14
1.16894e-14
1.16101e-14
1.16944e-14
1.16165e-14
1.17537e-14
1.16679e-14
1.17566e-14
1.17234e-14
1.17567e-14
1.16864e-14
1.17795e-14
1.16924e-14
1.18142e-14
1.16826e-14
1.18346e-14
1.16951e-14
1.18158e-14
1.17298e-14
1.18106e-14
1.1762e-14
1.1829e-14
1.17929e-14
1.1841e-14
1.18103e-14
1.18581e-14
1.17859e-14
1.18545e-14
1.18654e-14
1.1886e-14
1.18645e-14
1.18951e-14
1.18606e-14
1.1933e-14
1.19275e-14
1.20028e-14
1.19324e-14
1.20543e-14
1.19259e-14
1.20667e-14
1.19583e-14
1.20692e-14
1.203e-14
1.2086e-14
1.20189e-14
1.21114e-14
1.20209e-14
1.21219e-14
1.20842e-14
1.21689e-14
1.21592e-14
1.21999e-14
1.22023e-14
1.22097e-14
1.22415e-14
1.22191e-14
1.22295e-14
1.22471e-14
1.22341e-14
1.22725e-14
1.22738e-14
1.22748e-14
1.22813e-14
1.22986e-14
1.22789e-14
1.23205e-14
1.22393e-14
1.23428e-14
1.21763e-14
1.23051e-14
1.21986e-14
1.23058e-14
1.21022e-14
1.23681e-14
1.20644e-14
1.23584e-14
1.2076e-14
1.23529e-14
1.20518e-14
1.23593e-14
1.20527e-14
1.23434e-14
1.20744e-14
1.23238e-14
1.21029e-14
1.22722e-14
1.22453e-14
1.22214e-14
1.22234e-14
1.22171e-14
1.22113e-14
1.2198e-14
1.21676e-14
1.21444e-14
1.20514e-14
1.21008e-14
1.2051e-14
1.206e-14
1.203e-14
1.20112e-14
1.19581e-14
1.19887e-14
8.2637e-15
8.89157e-15
8.2638e-15
8.89163e-15
8.26395e-15
8.89171e-15
8.2642e-15
8.89185e-15
8.26456e-15
8.89205e-15
8.26501e-15
8.89231e-15
8.26559e-15
8.89262e-15
8.26624e-15
8.89299e-15
8.26702e-15
8.89347e-15
8.26788e-15
8.89405e-15
8.26886e-15
8.8947e-15
8.26995e-15
8.89541e-15
8.27114e-15
8.89622e-15
8.27239e-15
8.89714e-15
8.27382e-15
8.89809e-15
8.27533e-15
8.89918e-15
8.27684e-15
8.90039e-15
8.27849e-15
8.90167e-15
8.28026e-15
8.90319e-15
8.28215e-15
8.9049e-15
8.28424e-15
8.90673e-15
8.28655e-15
8.90866e-15
8.28896e-15
8.91074e-15
8.29163e-15
8.91303e-15
8.2946e-15
8.91545e-15
8.29787e-15
8.91811e-15
8.30149e-15
8.92104e-15
8.30529e-15
8.92402e-15
8.30953e-15
8.92729e-15
8.31405e-15
8.93101e-15
8.319e-15
8.93501e-15
8.32441e-15
8.9393e-15
8.33023e-15
8.9439e-15
8.3364e-15
8.94889e-15
8.34318e-15
8.95392e-15
8.3505e-15
8.95944e-15
8.35848e-15
8.96525e-15
8.36664e-15
8.97169e-15
8.37515e-15
8.97843e-15
8.38419e-15
8.98512e-15
8.39379e-15
8.9923e-15
8.40357e-15
9.00039e-15
8.41413e-15
9.00841e-15
8.42489e-15
9.01698e-15
8.43625e-15
9.0261e-15
8.44823e-15
9.03579e-15
8.46152e-15
9.04517e-15
8.47503e-15
9.05468e-15
8.489e-15
9.0657e-15
8.50389e-15
9.07804e-15
8.51926e-15
9.08956e-15
8.53535e-15
9.10145e-15
8.55194e-15
9.11447e-15
8.56929e-15
9.12736e-15
8.58715e-15
9.14115e-15
8.60581e-15
9.15641e-15
8.62555e-15
9.17179e-15
8.64445e-15
9.18869e-15
8.66474e-15
9.20572e-15
8.68589e-15
9.22285e-15
8.7085e-15
9.24008e-15
8.73022e-15
9.2598e-15
8.75163e-15
9.27962e-15
8.77518e-15
9.29953e-15
8.79904e-15
9.3189e-15
8.82259e-15
9.33831e-15
8.84581e-15
9.35905e-15
8.87001e-15
9.37917e-15
8.8952e-15
9.39797e-15
8.92142e-15
9.41809e-15
8.94665e-15
9.44228e-15
8.97225e-15
9.46923e-15
8.99823e-15
9.49482e-15
9.0239e-15
9.51968e-15
9.05211e-15
9.5438e-15
9.07931e-15
9.56785e-15
9.10622e-15
9.5984e-15
9.13064e-15
9.63408e-15
9.15921e-15
9.66307e-15
9.18752e-15
9.69123e-15
9.21557e-15
9.72386e-15
9.24337e-15
9.75949e-15
9.27092e-15
9.7943e-15
9.29823e-15
9.82435e-15
9.3261e-15
9.85428e-15
9.35693e-15
9.89043e-15
9.38598e-15
9.9297e-15
9.41486e-15
9.96404e-15
9.44357e-15
9.99665e-15
9.47376e-15
1.00291e-14
9.50713e-15
1.00614e-14
9.54209e-15
1.00919e-14
9.57365e-15
1.01273e-14
9.60854e-15
1.01608e-14
9.64174e-15
1.01924e-14
9.67667e-15
1.02289e-14
9.71166e-15
1.02653e-14
9.75019e-15
1.02963e-14
9.78888e-15
1.03271e-14
9.82602e-15
1.03524e-14
9.8634e-15
1.03792e-14
9.90284e-15
1.04128e-14
9.94441e-15
1.0446e-14
9.98639e-15
1.04718e-14
1.00235e-14
1.05009e-14
1.00629e-14
1.0535e-14
1.01029e-14
1.05651e-14
1.01417e-14
1.05948e-14
1.01776e-14
1.06278e-14
1.02124e-14
1.0664e-14
1.02571e-14
1.06962e-14
1.02955e-14
1.07261e-14
1.03366e-14
1.07538e-14
1.03713e-14
1.07847e-14
1.04108e-14
1.08169e-14
1.04535e-14
1.08469e-14
1.0488e-14
1.08838e-14
1.05257e-14
1.09202e-14
1.0563e-14
1.09486e-14
1.05961e-14
1.09803e-14
1.06366e-14
1.1019e-14
1.06729e-14
1.10649e-14
1.07053e-14
1.11028e-14
1.07415e-14
1.11287e-14
1.07737e-14
1.11542e-14
1.08022e-14
1.11793e-14
1.08348e-14
1.12117e-14
1.08676e-14
1.12513e-14
1.08968e-14
1.12907e-14
1.09224e-14
1.1322e-14
1.09524e-14
1.13415e-14
1.09828e-14
1.13764e-14
1.10138e-14
1.14112e-14
1.10375e-14
1.14459e-14
1.10697e-14
1.14768e-14
1.11066e-14
1.14999e-14
1.11483e-14
1.15232e-14
1.11833e-14
1.15504e-14
1.12078e-14
1.15777e-14
1.12493e-14
1.15973e-14
1.12885e-14
1.16169e-14
1.13333e-14
1.16525e-14
1.13841e-14
1.16843e-14
1.14134e-14
1.17084e-14
1.14411e-14
1.17287e-14
1.14673e-14
1.17534e-14
1.14882e-14
1.17823e-14
1.15235e-14
1.18158e-14
1.15576e-14
1.18499e-14
1.15827e-14
1.18691e-14
1.16146e-14
1.18656e-14
1.1646e-14
1.18707e-14
1.16771e-14
1.18923e-14
1.16924e-14
1.19149e-14
1.17074e-14
1.19387e-14
1.17223e-14
1.19481e-14
1.17292e-14
1.19671e-14
1.17439e-14
1.20037e-14
1.17583e-14
1.20348e-14
1.17722e-14
1.20531e-14
1.17936e-14
1.20827e-14
1.17988e-14
1.21159e-14
1.18187e-14
1.21143e-14
1.18223e-14
1.21093e-14
1.18332e-14
1.21245e-14
1.1859e-14
1.21367e-14
1.18843e-14
1.21697e-14
1.19091e-14
1.21928e-14
1.19335e-14
1.21912e-14
1.19577e-14
1.22114e-14
1.1982e-14
1.22072e-14
1.20067e-14
1.22018e-14
1.20401e-14
1.2203e-14
1.20521e-14
1.22184e-14
1.2058e-14
1.22407e-14
1.2073e-14
1.224e-14
1.20819e-14
1.22319e-14
1.20852e-14
1.22397e-14
1.21056e-14
1.22564e-14
1.21281e-14
1.23054e-14
1.21444e-14
1.235e-14
1.21537e-14
1.23767e-14
1.21709e-14
1.23569e-14
1.2197e-14
1.23359e-14
1.22031e-14
1.23282e-14
1.21746e-14
1.23493e-14
1.22147e-14
1.23713e-14
1.22193e-14
1.23939e-14
1.22328e-14
1.24036e-14
1.22552e-14
1.24015e-14
1.22727e-14
1.23881e-14
1.22864e-14
1.23778e-14
1.2312e-14
1.23706e-14
1.23366e-14
1.23946e-14
1.23605e-14
1.24067e-14
1.23701e-14
1.24654e-14
1.23779e-14
1.25158e-14
1.24403e-14
1.25169e-14
1.24455e-14
1.25533e-14
1.245e-14
1.25837e-14
1.24529e-14
1.26105e-14
1.24533e-14
1.2622e-14
1.24795e-14
1.26332e-14
1.25458e-14
1.26023e-14
1.25454e-14
1.25815e-14
1.25514e-14
1.25833e-14
1.25648e-14
1.2552e-14
1.25897e-14
1.254e-14
1.25605e-14
1.25599e-14
1.25427e-14
1.26022e-14
1.25319e-14
1.26174e-14
1.25531e-14
1.25682e-14
1.25306e-14
1.25305e-14
1.25609e-14
1.25434e-14
1.25907e-14
1.26054e-14
1.26199e-14
1.2615e-14
1.26523e-14
1.25977e-14
1.25866e-14
1.26001e-14
1.25474e-14
1.25741e-14
1.25852e-14
1.25466e-14
1.25769e-14
1.25631e-14
1.26212e-14
1.26005e-14
1.26198e-14
1.26083e-14
1.26496e-14
1.26394e-14
1.26593e-14
1.26685e-14
1.26951e-14
1.26736e-14
1.27359e-14
1.27024e-14
1.27348e-14
1.27304e-14
1.27648e-14
1.27132e-14
1.2761e-14
1.26929e-14
1.27494e-14
1.27154e-14
1.27259e-14
1.27371e-14
1.26845e-14
1.27177e-14
1.2671e-14
1.26831e-14
1.25986e-14
1.26318e-14
1.25764e-14
1.26351e-14
1.25368e-14
1.26231e-14
1.24534e-14
1.25094e-14
1.24168e-14
1.24659e-14
1.24503e-14
1.24869e-14
1.24236e-14
1.24603e-14
1.24017e-14
1.23869e-14
1.23685e-14
1.23673e-14
1.23488e-14
1.23407e-14
1.23226e-14
1.22819e-14
1.22745e-14
1.22016e-14
1.22564e-14
1.2177e-14
1.21958e-14
1.21422e-14
1.21239e-14
1.21045e-14
1.20262e-14
1.20305e-14
1.19119e-14
1.19254e-14
1.19335e-14
1.19413e-14
1.19012e-14
1.19096e-14
1.18565e-14
1.18711e-14
1.18153e-14
1.18508e-14
1.18424e-14
1.18576e-14
1.17904e-14
1.18893e-14
1.17932e-14
1.18276e-14
1.17395e-14
1.17688e-14
1.16539e-14
1.17108e-14
1.16409e-14
1.16567e-14
1.16003e-14
1.16014e-14
1.15971e-14
1.15881e-14
1.15938e-14
1.1571e-14
1.15264e-14
1.15048e-14
1.14622e-14
1.14569e-14
1.1444e-14
1.14532e-14
1.14229e-14
1.14498e-14
1.13961e-14
1.13796e-14
1.13708e-14
1.13088e-14
1.1357e-14
1.12556e-14
1.12869e-14
1.12123e-14
1.12269e-14
1.11827e-14
1.11972e-14
1.11703e-14
1.11734e-14
1.11527e-14
1.11776e-14
1.11078e-14
1.11151e-14
1.1105e-14
1.10544e-14
1.10758e-14
1.10165e-14
1.10233e-14
1.10031e-14
1.09716e-14
1.09921e-14
1.09683e-14
1.09539e-14
1.0963e-14
1.09132e-14
1.09596e-14
1.08414e-14
1.09358e-14
1.08114e-14
1.09219e-14
1.0824e-14
1.08921e-14
1.08057e-14
1.08677e-14
1.07564e-14
1.08465e-14
1.07549e-14
1.08306e-14
1.07496e-14
1.08188e-14
1.07138e-14
1.07694e-14
1.06902e-14
1.0736e-14
1.07075e-14
1.07319e-14
1.06837e-14
1.07012e-14
1.06597e-14
1.06985e-14
1.06483e-14
1.06571e-14
1.06372e-14
1.06443e-14
1.05847e-14
1.06309e-14
1.05582e-14
1.0605e-14
1.05436e-14
1.05947e-14
1.05116e-14
1.05856e-14
1.04752e-14
1.05791e-14
1.04769e-14
1.05335e-14
1.04907e-14
1.04609e-14
1.04779e-14
1.04006e-14
1.04395e-14
1.04224e-14
1.04455e-14
1.04713e-14
1.04223e-14
1.04768e-14
1.04124e-14
1.04545e-14
1.04013e-14
1.04185e-14
1.04046e-14
1.04267e-14
1.04073e-14
1.045e-14
1.04092e-14
1.04594e-14
1.041e-14
1.04554e-14
1.04097e-14
1.04524e-14
1.03938e-14
1.04653e-14
1.03763e-14
1.04796e-14
1.03716e-14
1.0481e-14
1.03796e-14
1.04695e-14
1.03861e-14
1.04445e-14
1.0346e-14
1.04204e-14
1.03195e-14
1.04128e-14
1.03212e-14
1.04376e-14
1.03126e-14
1.04495e-14
1.03012e-14
1.04409e-14
1.03022e-14
1.04344e-14
1.03082e-14
1.0453e-14
1.03193e-14
1.0443e-14
1.03282e-14
1.03963e-14
1.03283e-14
1.04044e-14
1.03195e-14
1.04286e-14
1.03246e-14
1.04462e-14
1.03202e-14
1.04574e-14
1.0314e-14
1.04544e-14
1.03137e-14
1.04454e-14
1.03116e-14
1.04455e-14
1.03157e-14
1.04393e-14
1.03105e-14
1.04421e-14
1.02958e-14
1.04381e-14
1.02951e-14
1.04353e-14
1.02928e-14
1.04492e-14
1.02809e-14
1.048e-14
1.02826e-14
1.04811e-14
1.02822e-14
1.0468e-14
1.02798e-14
1.048e-14
1.02754e-14
1.04935e-14
1.02689e-14
1.05165e-14
1.02681e-14
1.05335e-14
1.02808e-14
1.05446e-14
1.02913e-14
1.05418e-14
1.02919e-14
1.05406e-14
1.02985e-14
1.05488e-14
1.03033e-14
1.05507e-14
1.03063e-14
1.05541e-14
1.03115e-14
1.05668e-14
1.0323e-14
1.0577e-14
1.03369e-14
1.05649e-14
1.03338e-14
1.0562e-14
1.03373e-14
1.05602e-14
1.03435e-14
1.05595e-14
1.03525e-14
1.05599e-14
1.03567e-14
1.0573e-14
1.03559e-14
1.05793e-14
1.0358e-14
1.05788e-14
1.03593e-14
1.05792e-14
1.03557e-14
1.05648e-14
1.03629e-14
1.05552e-14
1.03617e-14
1.0554e-14
1.03596e-14
1.05614e-14
1.03568e-14
1.05772e-14
1.03571e-14
1.05743e-14
1.03604e-14
1.05721e-14
1.03591e-14
1.05667e-14
1.03649e-14
1.05736e-14
1.03661e-14
1.05849e-14
1.03666e-14
1.05776e-14
1.03626e-14
1.05631e-14
1.03696e-14
1.05569e-14
1.0376e-14
1.05664e-14
1.03781e-14
1.05611e-14
1.03797e-14
1.05485e-14
1.0381e-14
1.05439e-14
1.03856e-14
1.05434e-14
1.03861e-14
1.05357e-14
1.03788e-14
1.05245e-14
1.0375e-14
1.0521e-14
1.03709e-14
1.05215e-14
1.03646e-14
1.05259e-14
1.03637e-14
1.05231e-14
1.03569e-14
1.05169e-14
1.03536e-14
1.05109e-14
1.03519e-14
1.05087e-14
1.03518e-14
1.0505e-14
1.0346e-14
1.05032e-14
1.03419e-14
1.05017e-14
1.03411e-14
1.04985e-14
1.03383e-14
1.04973e-14
1.03335e-14
1.04962e-14
1.03268e-14
1.04936e-14
1.03235e-14
1.04947e-14
1.03235e-14
1.04959e-14
1.03216e-14
1.04903e-14
1.03195e-14
1.04832e-14
1.0319e-14
1.04779e-14
1.03166e-14
1.04762e-14
1.03175e-14
1.04764e-14
1.03166e-14
1.04783e-14
1.03139e-14
1.04736e-14
1.03177e-14
1.04674e-14
1.03181e-14
1.04646e-14
1.03168e-14
1.0462e-14
1.03154e-14
1.04594e-14
1.03139e-14
1.04569e-14
1.03123e-14
1.04545e-14
1.03107e-14
1.04522e-14
1.0309e-14
1.04515e-14
1.03073e-14
1.04477e-14
1.03031e-14
1.04479e-14
1.02997e-14
1.04513e-14
1.02994e-14
1.04539e-14
1.0299e-14
1.04558e-14
1.02955e-14
1.04562e-14
1.02942e-14
1.04567e-14
1.02929e-14
1.0458e-14
1.02923e-14
1.04607e-14
1.02916e-14
1.04649e-14
1.02894e-14
1.04663e-14
1.02872e-14
1.04663e-14
1.02842e-14
1.0467e-14
1.0284e-14
1.04671e-14
1.02838e-14
1.04686e-14
1.02828e-14
1.04681e-14
1.02824e-14
1.04656e-14
1.02826e-14
1.04659e-14
1.02822e-14
1.04675e-14
1.02823e-14
1.04666e-14
1.0283e-14
1.04651e-14
1.02836e-14
1.04661e-14
1.02842e-14
1.04678e-14
1.0286e-14
1.04659e-14
1.02871e-14
1.0464e-14
1.02869e-14
1.0464e-14
1.02874e-14
1.04646e-14
1.02883e-14
1.04646e-14
1.02889e-14
1.04649e-14
1.02886e-14
1.04661e-14
1.02881e-14
1.04667e-14
1.02886e-14
1.04669e-14
1.02885e-14
1.04665e-14
1.02894e-14
1.04659e-14
1.02902e-14
1.04652e-14
1.02905e-14
1.04628e-14
1.02908e-14
1.04612e-14
1.02915e-14
1.04612e-14
1.02922e-14
1.04608e-14
1.02924e-14
1.04593e-14
1.02926e-14
1.04582e-14
1.02928e-14
1.04572e-14
1.02927e-14
1.04568e-14
1.02928e-14
1.04559e-14
1.02927e-14
1.04546e-14
1.0293e-14
1.04538e-14
1.02932e-14
1.04534e-14
1.02936e-14
1.04529e-14
1.02934e-14
1.04524e-14
1.02934e-14
1.04521e-14
1.02935e-14
1.04516e-14
1.02936e-14
1.0451e-14
1.02937e-14
1.04505e-14
1.02937e-14
1.04501e-14
1.02937e-14
1.04499e-14
1.02937e-14
1.04496e-14
1.02937e-14
1.04493e-14
1.02937e-14
1.04492e-14
1.02936e-14
1.04492e-14
1.02936e-14
1.0449e-14
1.02936e-14
1.04488e-14
1.02936e-14
1.04486e-14
1.02936e-14
1.04484e-14
1.02936e-14
1.04483e-14
1.02935e-14
1.04482e-14
1.02935e-14
1.04481e-14
1.02935e-14
1.0448e-14
1.02935e-14
1.04479e-14
1.02934e-14
1.04479e-14
1.02934e-14
1.04478e-14
1.02933e-14
1.04478e-14
1.02933e-14
1.04477e-14
1.02933e-14
1.04477e-14
1.02932e-14
1.04476e-14
1.02932e-14
1.04476e-14
1.02932e-14
1.04476e-14
1.02932e-14
1.04475e-14
1.02932e-14
1.04475e-14
1.02932e-14
1.04475e-14
1.02932e-14
1.04475e-14
1.02932e-14
1.04475e-14
1.02932e-14
1.04474e-14
1.02932e-14
1.04475e-14
1.02932e-14
1.04474e-14
1.20234e-14
1.2007e-14
1.1997e-14
1.199e-14
1.19808e-14
1.19777e-14
1.19755e-14
1.19297e-14
1.19085e-14
1.18774e-14
1.19255e-14
1.18646e-14
1.18998e-14
1.19269e-14
1.18355e-14
1.18665e-14
1.17688e-14
1.18164e-14
1.17174e-14
1.17805e-14
1.16596e-14
1.16958e-14
1.16873e-14
1.16439e-14
1.16165e-14
1.16106e-14
1.15709e-14
1.15549e-14
1.15259e-14
1.15179e-14
1.14818e-14
1.14804e-14
1.14627e-14
1.1468e-14
1.14442e-14
1.14335e-14
1.14046e-14
1.13482e-14
1.13252e-14
1.12763e-14
1.12973e-14
1.12678e-14
1.12692e-14
1.12317e-14
1.12199e-14
1.12165e-14
1.11454e-14
1.12028e-14
1.11605e-14
1.11478e-14
1.11513e-14
1.11158e-14
1.10939e-14
1.11055e-14
1.10592e-14
1.10709e-14
1.10235e-14
1.10115e-14
1.10147e-14
1.09757e-14
1.10618e-14
1.09621e-14
1.09912e-14
1.09391e-14
1.09265e-14
1.09103e-14
1.09159e-14
1.0878e-14
1.08585e-14
1.08665e-14
1.08019e-14
1.088e-14
1.07918e-14
1.08991e-14
1.07465e-14
1.08734e-14
1.07188e-14
1.08574e-14
1.07076e-14
1.08515e-14
1.06446e-14
1.08014e-14
1.06105e-14
1.07619e-14
1.06474e-14
1.07459e-14
1.06492e-14
1.07221e-14
1.06322e-14
1.06612e-14
1.06127e-14
1.06424e-14
1.05908e-14
1.06808e-14
1.05771e-14
1.06544e-14
1.05594e-14
1.06322e-14
1.0581e-14
1.06423e-14
1.05579e-14
1.06134e-14
1.05047e-14
1.05875e-14
1.04772e-14
1.05507e-14
1.04323e-14
1.05027e-14
1.04412e-14
1.05014e-14
1.04327e-14
1.05043e-14
1.03923e-14
1.05111e-14
1.03907e-14
1.04936e-14
1.03997e-14
1.0465e-14
1.03918e-14
1.04534e-14
1.03966e-14
1.04589e-14
1.03846e-14
1.04667e-14
1.03847e-14
1.04624e-14
1.03972e-14
1.04602e-14
1.0378e-14
1.04746e-14
1.03709e-14
1.0492e-14
1.03605e-14
1.05126e-14
1.03613e-14
1.05072e-14
1.03435e-14
1.04904e-14
1.03523e-14
1.0477e-14
1.03581e-14
1.04362e-14
1.03624e-14
1.04123e-14
1.03509e-14
1.04274e-14
1.03535e-14
1.04593e-14
1.03545e-14
1.04703e-14
1.03463e-14
1.04682e-14
1.0344e-14
1.04686e-14
1.034e-14
1.04557e-14
1.03343e-14
1.0437e-14
1.03348e-14
1.04665e-14
1.03334e-14
1.04986e-14
1.03297e-14
1.05024e-14
1.03238e-14
1.05013e-14
1.0331e-14
1.04794e-14
1.03287e-14
1.04673e-14
1.03248e-14
1.04727e-14
1.03348e-14
1.04878e-14
1.03354e-14
1.04971e-14
1.03344e-14
1.05085e-14
1.03317e-14
1.05142e-14
1.03352e-14
1.05223e-14
1.03371e-14
1.05247e-14
1.03453e-14
1.05212e-14
1.03601e-14
1.05195e-14
1.03502e-14
1.05194e-14
1.03471e-14
1.05288e-14
1.03349e-14
1.05398e-14
1.0345e-14
1.05446e-14
1.03459e-14
1.05668e-14
1.03534e-14
1.05749e-14
1.03675e-14
1.05768e-14
1.03646e-14
1.05802e-14
1.03684e-14
1.05772e-14
1.03632e-14
1.05756e-14
1.03569e-14
1.05794e-14
1.03534e-14
1.05844e-14
1.03604e-14
1.05751e-14
1.03703e-14
1.05708e-14
1.03596e-14
1.05716e-14
1.03557e-14
1.05577e-14
1.03588e-14
1.05527e-14
1.03609e-14
1.05564e-14
1.03622e-14
1.05649e-14
1.03626e-14
1.05742e-14
1.03661e-14
1.05727e-14
1.03766e-14
1.05719e-14
1.03824e-14
1.0572e-14
1.03953e-14
1.0565e-14
1.03999e-14
1.05664e-14
1.04078e-14
1.05684e-14
1.04115e-14
1.05592e-14
1.04147e-14
1.05622e-14
1.04175e-14
1.05695e-14
1.04161e-14
1.05772e-14
1.04181e-14
1.05777e-14
1.0416e-14
1.05709e-14
1.04135e-14
1.05722e-14
1.04068e-14
1.05854e-14
1.04074e-14
1.05914e-14
1.04075e-14
1.05903e-14
1.04073e-14
1.0582e-14
1.04029e-14
1.05817e-14
1.0402e-14
1.05894e-14
1.03969e-14
1.05863e-14
1.03915e-14
1.05835e-14
1.0382e-14
1.05812e-14
1.03815e-14
1.05812e-14
1.03825e-14
1.05779e-14
1.03721e-14
1.05713e-14
1.03614e-14
1.0578e-14
1.03632e-14
1.05795e-14
1.03611e-14
1.05741e-14
1.03605e-14
1.05637e-14
1.03559e-14
1.0559e-14
1.03566e-14
1.0551e-14
1.03587e-14
1.05434e-14
1.03535e-14
1.05415e-14
1.03463e-14
1.05416e-14
1.0339e-14
1.05402e-14
1.03331e-14
1.05444e-14
1.03271e-14
1.0547e-14
1.03227e-14
1.05464e-14
1.03146e-14
1.05461e-14
1.03114e-14
1.05442e-14
1.03064e-14
1.0541e-14
1.03011e-14
1.05414e-14
1.02957e-14
1.05437e-14
1.02917e-14
1.05429e-14
1.02876e-14
1.05441e-14
1.02783e-14
1.05487e-14
1.02689e-14
1.05519e-14
1.02625e-14
1.05537e-14
1.02593e-14
1.05557e-14
1.02542e-14
1.0558e-14
1.02506e-14
1.05604e-14
1.02452e-14
1.05631e-14
1.02443e-14
1.05628e-14
1.02409e-14
1.05643e-14
1.02381e-14
1.05684e-14
1.02382e-14
1.0568e-14
1.02381e-14
1.0567e-14
1.02386e-14
1.05655e-14
1.02381e-14
1.05665e-14
1.02361e-14
1.05691e-14
1.02368e-14
1.05689e-14
1.02373e-14
1.05689e-14
1.02384e-14
1.05676e-14
1.02393e-14
1.05643e-14
1.02394e-14
1.05592e-14
1.02394e-14
1.0557e-14
1.02399e-14
1.05556e-14
1.02416e-14
1.05504e-14
1.02432e-14
1.05453e-14
1.02454e-14
1.05437e-14
1.02448e-14
1.05429e-14
1.02429e-14
1.05428e-14
1.02427e-14
1.05428e-14
1.02425e-14
1.05423e-14
1.02435e-14
1.05413e-14
1.02437e-14
1.05392e-14
1.02456e-14
1.05378e-14
1.02474e-14
1.05371e-14
1.0248e-14
1.05347e-14
1.02502e-14
1.05319e-14
1.02522e-14
1.05306e-14
1.02534e-14
1.05305e-14
1.02542e-14
1.05299e-14
1.02547e-14
1.05296e-14
1.02561e-14
1.05294e-14
1.02577e-14
1.05295e-14
1.02575e-14
1.05309e-14
1.0258e-14
1.05316e-14
1.02587e-14
1.05313e-14
1.02597e-14
1.05309e-14
1.02605e-14
1.05315e-14
1.02603e-14
1.05318e-14
1.02614e-14
1.05318e-14
1.02617e-14
1.05308e-14
1.02621e-14
1.05299e-14
1.02626e-14
1.05296e-14
1.0263e-14
1.05297e-14
1.02632e-14
1.05295e-14
1.02632e-14
1.05291e-14
1.02633e-14
1.05288e-14
1.02636e-14
1.05289e-14
1.02637e-14
1.05291e-14
1.02637e-14
1.05294e-14
1.02642e-14
1.05294e-14
1.02645e-14
1.05293e-14
1.02644e-14
1.05293e-14
1.02645e-14
1.05292e-14
1.02647e-14
1.05292e-14
1.02648e-14
1.05292e-14
1.0265e-14
1.05292e-14
1.0265e-14
1.05293e-14
1.0265e-14
1.05292e-14
1.02651e-14
1.05291e-14
1.02652e-14
1.0529e-14
1.02652e-14
1.05291e-14
1.02652e-14
1.05291e-14
1.02654e-14
1.0529e-14
1.02655e-14
1.0529e-14
1.02655e-14
1.05291e-14
1.02655e-14
1.0529e-14
1.02657e-14
1.05289e-14
1.02658e-14
1.05289e-14
1.02658e-14
1.05289e-14
1.02659e-14
1.05289e-14
1.0266e-14
1.05288e-14
1.0266e-14
1.05288e-14
1.02661e-14
1.05287e-14
1.02661e-14
1.05287e-14
1.02661e-14
1.05287e-14
1.02662e-14
1.05287e-14
1.02662e-14
1.05287e-14
1.02662e-14
1.05287e-14
1.02662e-14
1.05287e-14
1.02662e-14
1.05287e-14
1.02662e-14
1.05287e-14
1.02662e-14
1.05287e-14
)
;

boundaryField
{
    walls
    {
        type            zeroGradient;
    }
    inlet
    {
        type            cyclic;
    }
    outlet
    {
        type            cyclic;
    }
    sides
    {
        type            empty;
    }
}


// ************************************************************************* //
