/*--------------------------------*- C++ -*----------------------------------*\
| =========                 |                                                 |
| \\      /  F ield         | OpenFOAM: The Open Source CFD Toolbox           |
|  \\    /   O peration     | Version:  2106                                  |
|   \\  /    A nd           | Website:  www.openfoam.com                      |
|    \\/     M anipulation  |                                                 |
\*---------------------------------------------------------------------------*/
FoamFile
{
    version     2.0;
    format      ascii;
    arch        "LSB;label=32;scalar=64";
    class       volSymmTensorField;
    location    "10060";
    object      turbulenceProperties:R;
}
// * * * * * * * * * * * * * * * * * * * * * * * * * * * * * * * * * * * * * //

dimensions      [0 2 -2 0 0 0 0];

internalField   nonuniform List<symmTensor> 
2000
(
(7.05863e-07 -1.7439e-10 -3.22763e-13 7.05863e-07 7.04506e-25 7.05863e-07)
(7.05863e-07 -1.7439e-10 -3.22763e-13 7.05863e-07 -1.3562e-29 7.05863e-07)
(1.4814e-07 -2.10834e-10 -1.178e-12 1.4814e-07 1.31425e-25 1.4814e-07)
(1.4814e-07 -2.10834e-10 -1.178e-12 1.4814e-07 1.72813e-29 1.4814e-07)
(3.55563e-07 -1.49825e-09 -1.16151e-11 3.55563e-07 5.48746e-25 3.55563e-07)
(3.55563e-07 -1.49825e-09 -1.16151e-11 3.55563e-07 4.25989e-28 3.55563e-07)
(1.21909e-06 -1.09365e-08 -8.63662e-11 1.21909e-06 4.4801e-24 1.21909e-06)
(1.21909e-06 -1.09365e-08 -8.63662e-11 1.21909e-06 3.90696e-27 1.21909e-06)
(3.18814e-06 -5.06542e-08 -4.07483e-10 3.18814e-06 1.61463e-23 3.18814e-06)
(3.18814e-06 -5.06542e-08 -4.07483e-10 3.18814e-06 1.96346e-26 3.18814e-06)
(6.86136e-06 -1.72247e-07 -1.41145e-09 6.86136e-06 5.54618e-23 6.86136e-06)
(6.86136e-06 -1.72247e-07 -1.41145e-09 6.86136e-06 8.05686e-26 6.86136e-06)
(1.29547e-05 -4.75813e-07 -3.97153e-09 1.29547e-05 1.55553e-22 1.29547e-05)
(1.29547e-05 -4.75813e-07 -3.97153e-09 1.29547e-05 3.18329e-25 1.29547e-05)
(2.22978e-05 -1.13381e-06 -9.63941e-09 2.22978e-05 3.77608e-22 2.22978e-05)
(2.22978e-05 -1.13381e-06 -9.63941e-09 2.22978e-05 1.0279e-24 2.22978e-05)
(3.58323e-05 -2.41906e-06 -2.09467e-08 3.58323e-05 8.15736e-22 3.58323e-05)
(3.58323e-05 -2.41906e-06 -2.09467e-08 3.58323e-05 2.6591e-24 3.58323e-05)
(5.46066e-05 -4.73497e-06 -4.17543e-08 5.46066e-05 1.60885e-21 5.46066e-05)
(5.46066e-05 -4.73497e-06 -4.17543e-08 5.46066e-05 5.67137e-24 5.46066e-05)
(7.97628e-05 -8.64392e-06 -7.7616e-08 7.97628e-05 2.94144e-21 7.97628e-05)
(7.97628e-05 -8.64392e-06 -7.7616e-08 7.97628e-05 1.13923e-23 7.97628e-05)
(0.000112512 -1.48875e-05 -1.36095e-07 0.000112512 5.03109e-21 0.000112512)
(0.000112512 -1.48875e-05 -1.36095e-07 0.000112512 2.27852e-23 0.000112512)
(0.000154093 -2.43893e-05 -2.26939e-07 0.000154093 8.09314e-21 0.000154093)
(0.000154093 -2.43893e-05 -2.26939e-07 0.000154093 4.55139e-23 0.000154093)
(0.000205717 -3.82305e-05 -3.61992e-07 0.000205717 1.22797e-20 0.000205717)
(0.000205717 -3.82305e-05 -3.61992e-07 0.000205717 7.71483e-23 0.000205717)
(0.000268485 -5.75882e-05 -5.54733e-07 0.000268485 1.75856e-20 0.000268485)
(0.000268485 -5.75882e-05 -5.54733e-07 0.000268485 1.18841e-22 0.000268485)
(0.000343301 -8.36339e-05 -8.19358e-07 0.000343301 2.36997e-20 0.000343301)
(0.000343301 -8.36339e-05 -8.19358e-07 0.000343301 2.00263e-22 0.000343301)
(0.000430762 -0.000117398 -1.16945e-06 0.000430762 3.01001e-20 0.000430762)
(0.000430762 -0.000117398 -1.16945e-06 0.000430762 3.3257e-22 0.000430762)
(0.000531072 -0.000159622 -1.6164e-06 0.000531072 3.57757e-20 0.000531072)
(0.000531072 -0.000159622 -1.6164e-06 0.000531072 5.22169e-22 0.000531072)
(0.000643969 -0.000210624 -2.16789e-06 0.000643969 3.95911e-20 0.000643969)
(0.000643969 -0.000210624 -2.16789e-06 0.000643969 7.39069e-22 0.000643969)
(0.000768693 -0.000270214 -2.82673e-06 0.000768693 4.02338e-20 0.000768693)
(0.000768693 -0.000270214 -2.82673e-06 0.000768693 1.1419e-21 0.000768693)
(0.000904012 -0.000337688 -3.59047e-06 0.000904012 3.67068e-20 0.000904012)
(0.000904012 -0.000337688 -3.59047e-06 0.000904012 1.72639e-21 0.000904012)
(0.00104829 -0.000411888 -4.45168e-06 0.00104829 2.83625e-20 0.00104829)
(0.00104829 -0.000411888 -4.45168e-06 0.00104829 2.24102e-21 0.00104829)
(0.00119962 -0.000491335 -5.39899e-06 0.00119962 1.10593e-20 0.00119962)
(0.00119962 -0.000491335 -5.39899e-06 0.00119962 2.94288e-21 0.00119962)
(0.00135594 -0.000574387 -6.41849e-06 0.00135594 1.28036e-21 0.00135594)
(0.00135594 -0.000574387 -6.41849e-06 0.00135594 3.7997e-21 0.00135594)
(0.00151515 -0.000659395 -7.49521e-06 0.00151515 -2.21545e-20 0.00151515)
(0.00151515 -0.000659395 -7.49521e-06 0.00151515 4.74568e-21 0.00151515)
(0.00167531 -0.000744834 -8.61442e-06 0.00167531 -4.41018e-20 0.00167531)
(0.00167531 -0.000744834 -8.61442e-06 0.00167531 6.04895e-21 0.00167531)
(0.00183461 -0.000829386 -9.76263e-06 0.00183461 -6.66781e-20 0.00183461)
(0.00183461 -0.000829386 -9.76263e-06 0.00183461 7.74469e-21 0.00183461)
(0.00199155 -0.000911984 -1.09282e-05 0.00199155 -8.76841e-20 0.00199155)
(0.00199155 -0.000911984 -1.09282e-05 0.00199155 9.42498e-21 0.00199155)
(0.00214487 -0.000991816 -1.21015e-05 0.00214487 -1.05797e-19 0.00214487)
(0.00214487 -0.000991816 -1.21015e-05 0.00214487 1.11708e-20 0.00214487)
(0.00229359 -0.00106831 -1.32749e-05 0.00229359 -1.21504e-19 0.00229359)
(0.00229359 -0.00106831 -1.32749e-05 0.00229359 1.36083e-20 0.00229359)
(0.00243699 -0.00114111 -1.4443e-05 0.00243699 -1.33753e-19 0.00243699)
(0.00243699 -0.00114111 -1.4443e-05 0.00243699 1.65011e-20 0.00243699)
(0.00257457 -0.00121001 -1.56017e-05 0.00257457 -1.41887e-19 0.00257457)
(0.00257457 -0.00121001 -1.56017e-05 0.00257457 1.93168e-20 0.00257457)
(0.00270603 -0.00127495 -1.67484e-05 0.00270603 -1.46328e-19 0.00270603)
(0.00270603 -0.00127495 -1.67484e-05 0.00270603 2.12437e-20 0.00270603)
(0.00283121 -0.00133596 -1.78817e-05 0.00283121 -1.46741e-19 0.00283121)
(0.00283121 -0.00133596 -1.78817e-05 0.00283121 2.40462e-20 0.00283121)
(0.0029501 -0.00139315 -1.90009e-05 0.0029501 -1.42073e-19 0.0029501)
(0.0029501 -0.00139315 -1.90009e-05 0.0029501 2.76952e-20 0.0029501)
(0.00306278 -0.00144667 -2.01061e-05 0.00306278 -1.3461e-19 0.00306278)
(0.00306278 -0.00144667 -2.01061e-05 0.00306278 2.99483e-20 0.00306278)
(0.00316939 -0.0014967 -2.11979e-05 0.00316939 -1.23276e-19 0.00316939)
(0.00316939 -0.0014967 -2.11979e-05 0.00316939 3.41309e-20 0.00316939)
(0.00327013 -0.00154345 -2.22769e-05 0.00327013 -1.07397e-19 0.00327013)
(0.00327013 -0.00154345 -2.22769e-05 0.00327013 3.65628e-20 0.00327013)
(0.00336523 -0.0015871 -2.33444e-05 0.00336523 -9.04316e-20 0.00336523)
(0.00336523 -0.0015871 -2.33444e-05 0.00336523 3.95165e-20 0.00336523)
(0.00345496 -0.00162787 -2.44015e-05 0.00345496 -6.86169e-20 0.00345496)
(0.00345496 -0.00162787 -2.44015e-05 0.00345496 4.83636e-20 0.00345496)
(0.00353958 -0.00166596 -2.54495e-05 0.00353958 -4.38486e-20 0.00353958)
(0.00353958 -0.00166596 -2.54495e-05 0.00353958 5.22147e-20 0.00353958)
(0.00361937 -0.00170155 -2.64898e-05 0.00361937 -1.96371e-20 0.00361937)
(0.00361937 -0.00170155 -2.64898e-05 0.00361937 5.40162e-20 0.00361937)
(0.00369459 -0.00173482 -2.75238e-05 0.00369459 9.03193e-21 0.00369459)
(0.00369459 -0.00173482 -2.75238e-05 0.00369459 5.98743e-20 0.00369459)
(0.00376551 -0.00176595 -2.85527e-05 0.00376551 4.24637e-20 0.00376551)
(0.00376551 -0.00176595 -2.85527e-05 0.00376551 6.38197e-20 0.00376551)
(0.00383239 -0.00179509 -2.95778e-05 0.00383239 7.7551e-20 0.00383239)
(0.00383239 -0.00179509 -2.95778e-05 0.00383239 6.46411e-20 0.00383239)
(0.00389546 -0.00182239 -3.06005e-05 0.00389546 1.13594e-19 0.00389546)
(0.00389546 -0.00182239 -3.06005e-05 0.00389546 7.40531e-20 0.00389546)
(0.00395498 -0.00184799 -3.1622e-05 0.00395498 1.47098e-19 0.00395498)
(0.00395498 -0.00184799 -3.1622e-05 0.00395498 9.38343e-20 0.00395498)
(0.00401114 -0.001872 -3.26433e-05 0.00401114 1.86578e-19 0.00401114)
(0.00401114 -0.001872 -3.26433e-05 0.00401114 1.06843e-19 0.00401114)
(0.00406418 -0.00189455 -3.36657e-05 0.00406418 2.33148e-19 0.00406418)
(0.00406418 -0.00189455 -3.36657e-05 0.00406418 1.05214e-19 0.00406418)
(0.00411427 -0.00191574 -3.46901e-05 0.00411427 2.75108e-19 0.00411427)
(0.00411427 -0.00191574 -3.46901e-05 0.00411427 1.00844e-19 0.00411427)
(0.0041616 -0.00193567 -3.57177e-05 0.0041616 3.15166e-19 0.0041616)
(0.0041616 -0.00193567 -3.57177e-05 0.0041616 1.08842e-19 0.0041616)
(0.00420634 -0.00195442 -3.67493e-05 0.00420634 3.61024e-19 0.00420634)
(0.00420634 -0.00195442 -3.67493e-05 0.00420634 1.22349e-19 0.00420634)
(0.00424866 -0.00197208 -3.77858e-05 0.00424866 4.07256e-19 0.00424866)
(0.00424866 -0.00197208 -3.77858e-05 0.00424866 1.31232e-19 0.00424866)
(0.0042887 -0.00198872 -3.88282e-05 0.0042887 4.51741e-19 0.0042887)
(0.0042887 -0.00198872 -3.88282e-05 0.0042887 1.31948e-19 0.0042887)
(0.0043266 -0.00200442 -3.98773e-05 0.0043266 5.02499e-19 0.0043266)
(0.0043266 -0.00200442 -3.98773e-05 0.0043266 1.39753e-19 0.0043266)
(0.00436249 -0.00201923 -4.09338e-05 0.00436249 5.48463e-19 0.00436249)
(0.00436249 -0.00201923 -4.09338e-05 0.00436249 1.63211e-19 0.00436249)
(0.00439648 -0.00203321 -4.19986e-05 0.00439648 5.92199e-19 0.00439648)
(0.00439648 -0.00203321 -4.19986e-05 0.00439648 1.83377e-19 0.00439648)
(0.0044287 -0.00204642 -4.30723e-05 0.0044287 6.42394e-19 0.0044287)
(0.0044287 -0.00204642 -4.30723e-05 0.0044287 1.96333e-19 0.0044287)
(0.00445924 -0.00205891 -4.41556e-05 0.00445924 7.01087e-19 0.00445924)
(0.00445924 -0.00205891 -4.41556e-05 0.00445924 1.86795e-19 0.00445924)
(0.00448819 -0.00207072 -4.52494e-05 0.00448819 7.6544e-19 0.00448819)
(0.00448819 -0.00207072 -4.52494e-05 0.00448819 1.79021e-19 0.00448819)
(0.00451566 -0.00208189 -4.6354e-05 0.00451566 8.16409e-19 0.00451566)
(0.00451566 -0.00208189 -4.6354e-05 0.00451566 2.05725e-19 0.00451566)
(0.00454171 -0.00209246 -4.74703e-05 0.00454171 8.65012e-19 0.00454171)
(0.00454171 -0.00209246 -4.74703e-05 0.00454171 2.49981e-19 0.00454171)
(0.00456644 -0.00210246 -4.85989e-05 0.00456644 9.29797e-19 0.00456644)
(0.00456644 -0.00210246 -4.85989e-05 0.00456644 2.6741e-19 0.00456644)
(0.00458991 -0.00211194 -4.97402e-05 0.00458991 1.00207e-18 0.00458991)
(0.00458991 -0.00211194 -4.97402e-05 0.00458991 2.5941e-19 0.00458991)
(0.00461218 -0.00212092 -5.08949e-05 0.00461218 1.0734e-18 0.00461218)
(0.00461218 -0.00212092 -5.08949e-05 0.00461218 2.59347e-19 0.00461218)
(0.00463332 -0.00212942 -5.20636e-05 0.00463332 1.12908e-18 0.00463332)
(0.00463332 -0.00212942 -5.20636e-05 0.00463332 2.41633e-19 0.00463332)
(0.0046534 -0.00213748 -5.32467e-05 0.0046534 1.18121e-18 0.0046534)
(0.0046534 -0.00213748 -5.32467e-05 0.0046534 2.44994e-19 0.0046534)
(0.00467245 -0.00214511 -5.44449e-05 0.00467245 1.24875e-18 0.00467245)
(0.00467245 -0.00214511 -5.44449e-05 0.00467245 2.81752e-19 0.00467245)
(0.00469054 -0.00215235 -5.56585e-05 0.00469054 1.31958e-18 0.00469054)
(0.00469054 -0.00215235 -5.56585e-05 0.00469054 3.21567e-19 0.00469054)
(0.00470771 -0.0021592 -5.68883e-05 0.00470771 1.38222e-18 0.00470771)
(0.00470771 -0.0021592 -5.68883e-05 0.00470771 3.7274e-19 0.00470771)
(0.004724 -0.00216569 -5.81345e-05 0.004724 1.43566e-18 0.004724)
(0.004724 -0.00216569 -5.81345e-05 0.004724 4.05062e-19 0.004724)
(0.00473946 -0.00217184 -5.93979e-05 0.00473946 1.48327e-18 0.00473946)
(0.00473946 -0.00217184 -5.93979e-05 0.00473946 3.7694e-19 0.00473946)
(0.00475412 -0.00217766 -6.06787e-05 0.00475412 1.54682e-18 0.00475412)
(0.00475412 -0.00217766 -6.06787e-05 0.00475412 3.49412e-19 0.00475412)
(0.00476802 -0.00218317 -6.19775e-05 0.00476802 1.62516e-18 0.00476802)
(0.00476802 -0.00218317 -6.19775e-05 0.00476802 3.83931e-19 0.00476802)
(0.00478119 -0.00218838 -6.32949e-05 0.00478119 1.67557e-18 0.00478119)
(0.00478119 -0.00218838 -6.32949e-05 0.00478119 4.61499e-19 0.00478119)
(0.00479367 -0.00219331 -6.46311e-05 0.00479367 1.52268e-18 0.00479367)
(0.00479367 -0.00219331 -6.46311e-05 0.00479367 5.29624e-19 0.00479367)
(0.00480547 -0.00219796 -6.59868e-05 0.00480547 1.47092e-18 0.00480547)
(0.00480547 -0.00219796 -6.59868e-05 0.00480547 4.87234e-19 0.00480547)
(0.00481664 -0.00220236 -6.73623e-05 0.00481664 1.57749e-18 0.00481664)
(0.00481664 -0.00220236 -6.73623e-05 0.00481664 4.89258e-19 0.00481664)
(0.0048272 -0.0022065 -6.87582e-05 0.0048272 1.58375e-18 0.0048272)
(0.0048272 -0.0022065 -6.87582e-05 0.0048272 5.25037e-19 0.0048272)
(0.00483716 -0.0022104 -7.01748e-05 0.00483716 1.71778e-18 0.00483716)
(0.00483716 -0.0022104 -7.01748e-05 0.00483716 5.26136e-19 0.00483716)
(0.00484656 -0.00221408 -7.16126e-05 0.00484656 1.84357e-18 0.00484656)
(0.00484656 -0.00221408 -7.16126e-05 0.00484656 6.20735e-19 0.00484656)
(0.0048554 -0.00221753 -7.30721e-05 0.0048554 1.88817e-18 0.0048554)
(0.0048554 -0.00221753 -7.30721e-05 0.0048554 5.99053e-19 0.0048554)
(0.00486373 -0.00222077 -7.45538e-05 0.00486373 1.9679e-18 0.00486373)
(0.00486373 -0.00222077 -7.45538e-05 0.00486373 5.01298e-19 0.00486373)
(0.00487154 -0.0022238 -7.60579e-05 0.00487154 2.07087e-18 0.00487154)
(0.00487154 -0.0022238 -7.60579e-05 0.00487154 6.09453e-19 0.00487154)
(0.00487886 -0.00222663 -7.75851e-05 0.00487886 2.15623e-18 0.00487886)
(0.00487886 -0.00222663 -7.75851e-05 0.00487886 7.95659e-19 0.00487886)
(0.00488571 -0.00222927 -7.91357e-05 0.00488571 2.1952e-18 0.00488571)
(0.00488571 -0.00222927 -7.91357e-05 0.00488571 7.70038e-19 0.00488571)
(0.0048921 -0.00223173 -8.07102e-05 0.0048921 2.28186e-18 0.0048921)
(0.0048921 -0.00223173 -8.07102e-05 0.0048921 7.38342e-19 0.0048921)
(0.00489804 -0.002234 -8.2309e-05 0.00489804 2.43208e-18 0.00489804)
(0.00489804 -0.002234 -8.2309e-05 0.00489804 8.57179e-19 0.00489804)
(0.00490355 -0.00223609 -8.39325e-05 0.00490355 2.56667e-18 0.00490355)
(0.00490355 -0.00223609 -8.39325e-05 0.00490355 8.51542e-19 0.00490355)
(0.00490863 -0.00223802 -8.55812e-05 0.00490863 2.65745e-18 0.00490863)
(0.00490863 -0.00223802 -8.55812e-05 0.00490863 8.02019e-19 0.00490863)
(0.00491332 -0.00223978 -8.72556e-05 0.00491332 2.7985e-18 0.00491332)
(0.00491332 -0.00223978 -8.72556e-05 0.00491332 9.94013e-19 0.00491332)
(0.0049176 -0.00224138 -8.89559e-05 0.0049176 2.98378e-18 0.0049176)
(0.0049176 -0.00224138 -8.89559e-05 0.0049176 1.05414e-18 0.0049176)
(0.0049215 -0.00224282 -9.06828e-05 0.0049215 3.05419e-18 0.0049215)
(0.0049215 -0.00224282 -9.06828e-05 0.0049215 1.005e-18 0.0049215)
(0.00492502 -0.0022441 -9.24365e-05 0.00492502 3.2191e-18 0.00492502)
(0.00492502 -0.0022441 -9.24365e-05 0.00492502 1.18001e-18 0.00492502)
(0.00492817 -0.00224524 -9.42176e-05 0.00492817 3.38441e-18 0.00492817)
(0.00492817 -0.00224524 -9.42176e-05 0.00492817 1.36836e-18 0.00492817)
(0.00493096 -0.00224622 -9.60265e-05 0.00493096 3.45602e-18 0.00493096)
(0.00493096 -0.00224622 -9.60265e-05 0.00493096 1.40539e-18 0.00493096)
(0.0049334 -0.00224707 -9.78636e-05 0.0049334 3.54403e-18 0.0049334)
(0.0049334 -0.00224707 -9.78636e-05 0.0049334 1.37012e-18 0.0049334)
(0.0049355 -0.00224777 -9.97292e-05 0.0049355 3.73314e-18 0.0049355)
(0.0049355 -0.00224777 -9.97292e-05 0.0049355 1.4456e-18 0.0049355)
(0.00493726 -0.00224833 -0.000101624 0.00493726 3.96547e-18 0.00493726)
(0.00493726 -0.00224833 -0.000101624 0.00493726 1.72356e-18 0.00493726)
(0.00493869 -0.00224875 -0.000103548 0.00493869 3.96304e-18 0.00493869)
(0.00493869 -0.00224875 -0.000103548 0.00493869 1.92635e-18 0.00493869)
(0.00493979 -0.00224904 -0.000105502 0.00493979 3.98232e-18 0.00493979)
(0.00493979 -0.00224904 -0.000105502 0.00493979 1.73015e-18 0.00493979)
(0.00494057 -0.0022492 -0.000107487 0.00494057 4.05844e-18 0.00494057)
(0.00494057 -0.0022492 -0.000107487 0.00494057 1.40784e-18 0.00494057)
(0.00494104 -0.00224923 -0.000109502 0.00494104 4.19247e-18 0.00494104)
(0.00494104 -0.00224923 -0.000109502 0.00494104 1.51091e-18 0.00494104)
(0.0049412 -0.00224913 -0.000111548 0.0049412 4.3998e-18 0.0049412)
(0.0049412 -0.00224913 -0.000111548 0.0049412 1.80453e-18 0.0049412)
(0.00494105 -0.00224889 -0.000113626 0.00494105 4.66961e-18 0.00494105)
(0.00494105 -0.00224889 -0.000113626 0.00494105 1.96857e-18 0.00494105)
(0.00494061 -0.00224854 -0.000115736 0.00494061 4.82522e-18 0.00494061)
(0.00494061 -0.00224854 -0.000115736 0.00494061 2.21563e-18 0.00494061)
(0.00493986 -0.00224805 -0.000117879 0.00493986 4.81947e-18 0.00493986)
(0.00493986 -0.00224805 -0.000117879 0.00493986 2.18021e-18 0.00493986)
(0.00493882 -0.00224745 -0.000120054 0.00493882 4.94705e-18 0.00493882)
(0.00493882 -0.00224745 -0.000120054 0.00493882 2.14431e-18 0.00493882)
(0.0049375 -0.00224672 -0.000122262 0.0049375 5.38461e-18 0.0049375)
(0.0049375 -0.00224672 -0.000122262 0.0049375 2.31244e-18 0.0049375)
(0.00493588 -0.00224586 -0.000124504 0.00493588 5.78948e-18 0.00493588)
(0.00493588 -0.00224586 -0.000124504 0.00493588 2.49078e-18 0.00493588)
(0.00493398 -0.00224489 -0.00012678 0.00493398 5.897e-18 0.00493398)
(0.00493398 -0.00224489 -0.00012678 0.00493398 2.75838e-18 0.00493398)
(0.00493179 -0.00224379 -0.00012909 0.00493179 5.90433e-18 0.00493179)
(0.00493179 -0.00224379 -0.00012909 0.00493179 3.03492e-18 0.00493179)
(0.00492933 -0.00224257 -0.000131436 0.00492933 6.02349e-18 0.00492933)
(0.00492933 -0.00224257 -0.000131436 0.00492933 2.92359e-18 0.00492933)
(0.00492658 -0.00224124 -0.000133816 0.00492658 6.20548e-18 0.00492658)
(0.00492658 -0.00224124 -0.000133816 0.00492658 2.4896e-18 0.00492658)
(0.00492356 -0.00223978 -0.000136232 0.00492356 6.42543e-18 0.00492356)
(0.00492356 -0.00223978 -0.000136232 0.00492356 2.84054e-18 0.00492356)
(0.00492026 -0.0022382 -0.000138684 0.00492026 6.47607e-18 0.00492026)
(0.00492026 -0.0022382 -0.000138684 0.00492026 3.2527e-18 0.00492026)
(0.00491669 -0.0022365 -0.000141172 0.00491669 7.07652e-18 0.00491669)
(0.00491669 -0.0022365 -0.000141172 0.00491669 3.10218e-18 0.00491669)
(0.00491284 -0.00223468 -0.000143697 0.00491284 6.7362e-18 0.00491284)
(0.00491284 -0.00223468 -0.000143697 0.00491284 3.19763e-18 0.00491284)
(0.00490873 -0.00223274 -0.000146259 0.00490873 7.007e-18 0.00490873)
(0.00490873 -0.00223274 -0.000146259 0.00490873 3.6224e-18 0.00490873)
(0.00490434 -0.00223069 -0.000148858 0.00490434 7.60337e-18 0.00490434)
(0.00490434 -0.00223069 -0.000148858 0.00490434 4.03661e-18 0.00490434)
(0.00489968 -0.00222851 -0.000151495 0.00489968 7.82854e-18 0.00489968)
(0.00489968 -0.00222851 -0.000151495 0.00489968 4.02451e-18 0.00489968)
(0.00489474 -0.00222621 -0.00015417 0.00489474 7.68128e-18 0.00489474)
(0.00489474 -0.00222621 -0.00015417 0.00489474 3.88234e-18 0.00489474)
(0.00488954 -0.00222378 -0.000156884 0.00488954 8.24942e-18 0.00488954)
(0.00488954 -0.00222378 -0.000156884 0.00488954 4.12025e-18 0.00488954)
(0.00488407 -0.00222124 -0.000159636 0.00488407 8.39213e-18 0.00488407)
(0.00488407 -0.00222124 -0.000159636 0.00488407 4.40138e-18 0.00488407)
(0.00487832 -0.00221857 -0.000162426 0.00487832 8.60802e-18 0.00487832)
(0.00487832 -0.00221857 -0.000162426 0.00487832 4.62702e-18 0.00487832)
(0.0048723 -0.00221578 -0.000165256 0.0048723 8.9465e-18 0.0048723)
(0.0048723 -0.00221578 -0.000165256 0.0048723 5.07472e-18 0.0048723)
(0.00486601 -0.00221287 -0.000168126 0.00486601 9.40679e-18 0.00486601)
(0.00486601 -0.00221287 -0.000168126 0.00486601 5.51602e-18 0.00486601)
(0.00485945 -0.00220983 -0.000171035 0.00485945 9.31467e-18 0.00485945)
(0.00485945 -0.00220983 -0.000171035 0.00485945 5.873e-18 0.00485945)
(0.00485262 -0.00220667 -0.000173984 0.00485262 9.48217e-18 0.00485262)
(0.00485262 -0.00220667 -0.000173984 0.00485262 6.00472e-18 0.00485262)
(0.00484551 -0.00220338 -0.000176974 0.00484551 1.0325e-17 0.00484551)
(0.00484551 -0.00220338 -0.000176974 0.00484551 5.99157e-18 0.00484551)
(0.00483813 -0.00219997 -0.000180004 0.00483813 7.38587e-18 0.00483813)
(0.00483813 -0.00219997 -0.000180004 0.00483813 6.43184e-18 0.00483813)
(0.00483047 -0.00219642 -0.000183074 0.00483047 1.07126e-18 0.00483047)
(0.00483047 -0.00219642 -0.000183074 0.00483047 7.02537e-18 0.00483047)
(0.00482253 -0.00219275 -0.000186185 0.00482253 9.62682e-19 0.00482253)
(0.00482253 -0.00219275 -0.000186185 0.00482253 7.45459e-18 0.00482253)
(0.00481431 -0.00218894 -0.000189337 0.00481431 3.0543e-18 0.00481431)
(0.00481431 -0.00218894 -0.000189337 0.00481431 8.37073e-18 0.00481431)
(0.00480582 -0.00218501 -0.00019253 0.00480582 3.427e-18 0.00480582)
(0.00480582 -0.00218501 -0.00019253 0.00480582 7.73633e-18 0.00480582)
(0.00479704 -0.00218094 -0.000195764 0.00479704 4.33198e-20 0.00479704)
(0.00479704 -0.00218094 -0.000195764 0.00479704 7.1143e-18 0.00479704)
(0.00478797 -0.00217674 -0.000199039 0.00478797 4.74226e-19 0.00478797)
(0.00478797 -0.00217674 -0.000199039 0.00478797 7.99917e-18 0.00478797)
(0.00477863 -0.0021724 -0.000202355 0.00477863 5.47309e-19 0.00477863)
(0.00477863 -0.0021724 -0.000202355 0.00477863 9.01809e-18 0.00477863)
(0.00476899 -0.00216792 -0.000205713 0.00476899 4.99699e-19 0.00476899)
(0.00476899 -0.00216792 -0.000205713 0.00476899 1.12748e-17 0.00476899)
(0.00475907 -0.0021633 -0.000209112 0.00475907 -1.01926e-18 0.00475907)
(0.00475907 -0.0021633 -0.000209112 0.00475907 1.34288e-17 0.00475907)
(0.00474885 -0.00215855 -0.000212552 0.00474885 -1.55971e-18 0.00474885)
(0.00474885 -0.00215855 -0.000212552 0.00474885 1.25386e-17 0.00474885)
(0.00473834 -0.00215365 -0.000216033 0.00473834 1.49613e-19 0.00473834)
(0.00473834 -0.00215365 -0.000216033 0.00473834 1.10039e-17 0.00473834)
(0.00472753 -0.00214861 -0.000219555 0.00472753 4.13802e-19 0.00472753)
(0.00472753 -0.00214861 -0.000219555 0.00472753 1.28263e-17 0.00472753)
(0.00471643 -0.00214342 -0.000223118 0.00471643 -2.16728e-18 0.00471643)
(0.00471643 -0.00214342 -0.000223118 0.00471643 1.46916e-17 0.00471643)
(0.00470502 -0.00213809 -0.000226721 0.00470502 -1.92837e-18 0.00470502)
(0.00470502 -0.00213809 -0.000226721 0.00470502 1.41278e-17 0.00470502)
(0.00469331 -0.00213261 -0.000230365 0.00469331 -6.158e-20 0.00469331)
(0.00469331 -0.00213261 -0.000230365 0.00469331 1.33693e-17 0.00469331)
(0.00468129 -0.00212697 -0.00023405 0.00468129 2.10036e-19 0.00468129)
(0.00468129 -0.00212697 -0.00023405 0.00468129 1.49276e-17 0.00468129)
(0.00466896 -0.00212119 -0.000237774 0.00466896 -2.72007e-18 0.00466896)
(0.00466896 -0.00212119 -0.000237774 0.00466896 1.64318e-17 0.00466896)
(0.00465632 -0.00211524 -0.000241538 0.00465632 -1.73148e-18 0.00465632)
(0.00465632 -0.00211524 -0.000241538 0.00465632 1.54135e-17 0.00465632)
(0.00464336 -0.00210914 -0.000245341 0.00464336 -2.06638e-18 0.00464336)
(0.00464336 -0.00210914 -0.000245341 0.00464336 1.7414e-17 0.00464336)
(0.00463009 -0.00210289 -0.000249183 0.00463009 -4.17133e-18 0.00463009)
(0.00463009 -0.00210289 -0.000249183 0.00463009 1.92097e-17 0.00463009)
(0.00461649 -0.00209647 -0.000253063 0.00461649 -6.67846e-18 0.00461649)
(0.00461649 -0.00209647 -0.000253063 0.00461649 1.8576e-17 0.00461649)
(0.00460256 -0.00208989 -0.00025698 0.00460256 -7.69791e-18 0.00460256)
(0.00460256 -0.00208989 -0.00025698 0.00460256 1.83532e-17 0.00460256)
(0.00458831 -0.00208314 -0.000260935 0.00458831 -4.60399e-18 0.00458831)
(0.00458831 -0.00208314 -0.000260935 0.00458831 1.72518e-17 0.00458831)
(0.00457372 -0.00207622 -0.000264926 0.00457372 -4.43831e-18 0.00457372)
(0.00457372 -0.00207622 -0.000264926 0.00457372 1.84876e-17 0.00457372)
(0.0045588 -0.00206913 -0.000268952 0.0045588 -4.38378e-18 0.0045588)
(0.0045588 -0.00206913 -0.000268952 0.0045588 2.06256e-17 0.0045588)
(0.00454354 -0.00206187 -0.000273014 0.00454354 -3.41404e-18 0.00454354)
(0.00454354 -0.00206187 -0.000273014 0.00454354 2.0143e-17 0.00454354)
(0.00452793 -0.00205443 -0.000277109 0.00452793 -5.73711e-18 0.00452793)
(0.00452793 -0.00205443 -0.000277109 0.00452793 2.58227e-17 0.00452793)
(0.00451198 -0.00204682 -0.000281237 0.00451198 -6.76885e-18 0.00451198)
(0.00451198 -0.00204682 -0.000281237 0.00451198 3.08788e-17 0.00451198)
(0.00449567 -0.00203902 -0.000285398 0.00449567 -4.7886e-18 0.00449567)
(0.00449567 -0.00203902 -0.000285398 0.00449567 2.9243e-17 0.00449567)
(0.004479 -0.00203104 -0.000289589 0.004479 -4.85181e-18 0.004479)
(0.004479 -0.00203104 -0.000289589 0.004479 3.03909e-17 0.004479)
(0.00446198 -0.00202288 -0.00029381 0.00446198 -6.24954e-18 0.00446198)
(0.00446198 -0.00202288 -0.00029381 0.00446198 3.01202e-17 0.00446198)
(0.00444459 -0.00201452 -0.000298059 0.00444459 -5.07681e-18 0.00444459)
(0.00444459 -0.00201452 -0.000298059 0.00444459 2.87023e-17 0.00444459)
(0.00442683 -0.00200597 -0.000302335 0.00442683 -3.06071e-18 0.00442683)
(0.00442683 -0.00200597 -0.000302335 0.00442683 2.82711e-17 0.00442683)
(0.00440869 -0.00199723 -0.000306636 0.00440869 -5.45373e-18 0.00440869)
(0.00440869 -0.00199723 -0.000306636 0.00440869 3.1926e-17 0.00440869)
(0.00439018 -0.00198829 -0.000310961 0.00439018 -2.54404e-18 0.00439018)
(0.00439018 -0.00198829 -0.000310961 0.00439018 3.70542e-17 0.00439018)
(0.00437128 -0.00197915 -0.000315309 0.00437128 1.48816e-18 0.00437128)
(0.00437128 -0.00197915 -0.000315309 0.00437128 3.82711e-17 0.00437128)
(0.004352 -0.0019698 -0.000319677 0.004352 1.00078e-19 0.004352)
(0.004352 -0.0019698 -0.000319677 0.004352 3.34631e-17 0.004352)
(0.00433232 -0.00196024 -0.000324063 0.00433232 9.56136e-19 0.00433232)
(0.00433232 -0.00196024 -0.000324063 0.00433232 3.33192e-17 0.00433232)
(0.00431224 -0.00195048 -0.000328466 0.00431224 5.94321e-19 0.00431224)
(0.00431224 -0.00195048 -0.000328466 0.00431224 3.55426e-17 0.00431224)
(0.00429176 -0.0019405 -0.000332883 0.00429176 2.07144e-18 0.00429176)
(0.00429176 -0.0019405 -0.000332883 0.00429176 3.67936e-17 0.00429176)
(0.00427086 -0.0019303 -0.000337312 0.00427086 4.19025e-18 0.00427086)
(0.00427086 -0.0019303 -0.000337312 0.00427086 3.78697e-17 0.00427086)
(0.00424956 -0.00191988 -0.000341751 0.00424956 9.0746e-19 0.00424956)
(0.00424956 -0.00191988 -0.000341751 0.00424956 3.77686e-17 0.00424956)
(0.00422783 -0.00190923 -0.000346196 0.00422783 -2.67636e-19 0.00422783)
(0.00422783 -0.00190923 -0.000346196 0.00422783 3.72807e-17 0.00422783)
(0.00420568 -0.00189835 -0.000350646 0.00420568 -3.9056e-19 0.00420568)
(0.00420568 -0.00189835 -0.000350646 0.00420568 3.21407e-17 0.00420568)
(0.00418309 -0.00188725 -0.000355097 0.00418309 3.04759e-18 0.00418309)
(0.00418309 -0.00188725 -0.000355097 0.00418309 2.8554e-17 0.00418309)
(0.00416007 -0.0018759 -0.000359546 0.00416007 -1.89806e-18 0.00416007)
(0.00416007 -0.0018759 -0.000359546 0.00416007 2.9287e-17 0.00416007)
(0.00413661 -0.00186432 -0.00036399 0.00413661 1.5925e-18 0.00413661)
(0.00413661 -0.00186432 -0.00036399 0.00413661 3.09427e-17 0.00413661)
(0.0041127 -0.00185249 -0.000368425 0.0041127 2.07932e-19 0.0041127)
(0.0041127 -0.00185249 -0.000368425 0.0041127 3.40147e-17 0.0041127)
(0.00408833 -0.00184042 -0.000372849 0.00408833 -1.19982e-19 0.00408833)
(0.00408833 -0.00184042 -0.000372849 0.00408833 3.62028e-17 0.00408833)
(0.0040635 -0.00182809 -0.000377256 0.0040635 -5.83034e-19 0.0040635)
(0.0040635 -0.00182809 -0.000377256 0.0040635 3.83213e-17 0.0040635)
(0.0040382 -0.0018155 -0.000381644 0.0040382 3.72222e-18 0.0040382)
(0.0040382 -0.0018155 -0.000381644 0.0040382 3.38974e-17 0.0040382)
(0.00401243 -0.00180265 -0.000386007 0.00401243 6.1444e-18 0.00401243)
(0.00401243 -0.00180265 -0.000386007 0.00401243 3.25124e-17 0.00401243)
(0.00398618 -0.00178954 -0.000390342 0.00398618 9.50691e-19 0.00398618)
(0.00398618 -0.00178954 -0.000390342 0.00398618 2.82147e-17 0.00398618)
(0.00395944 -0.00177616 -0.000394643 0.00395944 -6.01078e-18 0.00395944)
(0.00395944 -0.00177616 -0.000394643 0.00395944 3.17719e-17 0.00395944)
(0.0039322 -0.0017625 -0.000398906 0.0039322 -2.59619e-18 0.0039322)
(0.0039322 -0.0017625 -0.000398906 0.0039322 3.28268e-17 0.0039322)
(0.00390447 -0.00174857 -0.000403126 0.00390447 2.32211e-18 0.00390447)
(0.00390447 -0.00174857 -0.000403126 0.00390447 3.06055e-17 0.00390447)
(0.00387623 -0.00173435 -0.000407297 0.00387623 2.43301e-18 0.00387623)
(0.00387623 -0.00173435 -0.000407297 0.00387623 2.50943e-17 0.00387623)
(0.00384748 -0.00171984 -0.000411413 0.00384748 3.21746e-18 0.00384748)
(0.00384748 -0.00171984 -0.000411413 0.00384748 1.97481e-17 0.00384748)
(0.00381821 -0.00170504 -0.000415469 0.00381821 3.00385e-18 0.00381821)
(0.00381821 -0.00170504 -0.000415469 0.00381821 1.38005e-17 0.00381821)
(0.00378841 -0.00168994 -0.000419458 0.00378841 3.44191e-18 0.00378841)
(0.00378841 -0.00168994 -0.000419458 0.00378841 7.7941e-18 0.00378841)
(0.00375808 -0.00167454 -0.000423373 0.00375808 4.46175e-18 0.00375808)
(0.00375808 -0.00167454 -0.000423373 0.00375808 5.73031e-18 0.00375808)
(0.00372721 -0.00165883 -0.000427207 0.00372721 8.20429e-18 0.00372721)
(0.00372721 -0.00165883 -0.000427207 0.00372721 1.31467e-17 0.00372721)
(0.00369579 -0.0016428 -0.000430954 0.00369579 8.51175e-18 0.00369579)
(0.00369579 -0.0016428 -0.000430954 0.00369579 1.45692e-17 0.00369579)
(0.00366382 -0.00162645 -0.000434605 0.00366382 6.79714e-18 0.00366382)
(0.00366382 -0.00162645 -0.000434605 0.00366382 1.20275e-17 0.00366382)
(0.00363129 -0.00160978 -0.000438153 0.00363129 1.19233e-18 0.00363129)
(0.00363129 -0.00160978 -0.000438153 0.00363129 1.69132e-17 0.00363129)
(0.00359819 -0.00159278 -0.000441589 0.00359819 1.50873e-18 0.00359819)
(0.00359819 -0.00159278 -0.000441589 0.00359819 8.33187e-18 0.00359819)
(0.00356452 -0.00157544 -0.000444904 0.00356452 2.01153e-18 0.00356452)
(0.00356452 -0.00157544 -0.000444904 0.00356452 -1.38148e-18 0.00356452)
(0.00353027 -0.00155776 -0.000448089 0.00353027 -2.80526e-19 0.00353027)
(0.00353027 -0.00155776 -0.000448089 0.00353027 6.9735e-18 0.00353027)
(0.00349544 -0.00153973 -0.000451134 0.00349544 4.97657e-18 0.00349544)
(0.00349544 -0.00153973 -0.000451134 0.00349544 1.28674e-17 0.00349544)
(0.00346002 -0.00152135 -0.00045403 0.00346002 8.21251e-18 0.00346002)
(0.00346002 -0.00152135 -0.00045403 0.00346002 1.51795e-18 0.00346002)
(0.00342401 -0.0015026 -0.000456765 0.00342401 3.99518e-18 0.00342401)
(0.00342401 -0.0015026 -0.000456765 0.00342401 1.2408e-17 0.00342401)