/*--------------------------------*- C++ -*----------------------------------*\
| =========                 |                                                 |
| \\      /  F ield         | OpenFOAM: The Open Source CFD Toolbox           |
|  \\    /   O peration     | Version:  2106                                  |
|   \\  /    A nd           | Website:  www.openfoam.com                      |
|    \\/     M anipulation  |                                                 |
\*---------------------------------------------------------------------------*/
FoamFile
{
    version     2.0;
    format      ascii;
    arch        "LSB;label=32;scalar=64";
    class       volVectorField;
    location    "10060";
    object      U;
}
// * * * * * * * * * * * * * * * * * * * * * * * * * * * * * * * * * * * * * //

dimensions      [0 1 -1 0 0 0 0];

internalField   nonuniform List<vector> 
2000
(
(0.00569653 -5.81611e-16 -2.10078e-17)
(0.00569653 1.00107e-19 -5.73139e-22)
(0.0171938 -2.29948e-15 -6.933e-17)
(0.0171938 -1.14937e-18 2.37224e-21)
(0.0289034 -2.19319e-15 -7.29463e-17)
(0.0289034 -1.80595e-18 2.25236e-21)
(0.0408292 -2.01721e-15 -7.63511e-17)
(0.0408292 -2.7649e-18 3.08303e-21)
(0.0529752 -2.03404e-15 -8.00553e-17)
(0.0529752 -3.80202e-18 5.2762e-21)
(0.0653451 -2.04548e-15 -8.39847e-17)
(0.0653451 -4.91284e-18 9.85093e-21)
(0.0779423 -2.04705e-15 -8.80696e-17)
(0.0779423 -6.01328e-18 1.49646e-20)
(0.0907695 -2.04531e-15 -9.22971e-17)
(0.0907695 -7.06203e-18 1.94748e-20)
(0.103828 -2.04341e-15 -9.66619e-17)
(0.103828 -8.23119e-18 2.37851e-20)
(0.117119 -2.04154e-15 -1.0115e-16)
(0.117119 -9.55911e-18 2.91816e-20)
(0.130637 -2.03959e-15 -1.05738e-16)
(0.130637 -1.09057e-17 3.75135e-20)
(0.144376 -2.03753e-15 -1.10391e-16)
(0.144376 -1.22947e-17 4.68148e-20)
(0.158324 -2.03538e-15 -1.15057e-16)
(0.158324 -1.37109e-17 5.64643e-20)
(0.17246 -2.03301e-15 -1.19669e-16)
(0.17246 -1.52886e-17 6.38611e-20)
(0.186759 -2.03038e-15 -1.24144e-16)
(0.186759 -1.68849e-17 7.77709e-20)
(0.201184 -2.02832e-15 -1.28388e-16)
(0.201184 -1.84082e-17 9.32031e-20)
(0.21569 -2.026e-15 -1.32299e-16)
(0.21569 -2.00696e-17 1.07158e-19)
(0.230224 -2.02377e-15 -1.35783e-16)
(0.230224 -2.16579e-17 1.20596e-19)
(0.244727 -2.02122e-15 -1.38757e-16)
(0.244727 -2.34282e-17 1.33215e-19)
(0.259136 -2.01859e-15 -1.4116e-16)
(0.259136 -2.52386e-17 1.52771e-19)
(0.273388 -2.01582e-15 -1.42964e-16)
(0.273388 -2.6894e-17 1.59551e-19)
(0.287421 -2.01308e-15 -1.4417e-16)
(0.287421 -2.86737e-17 1.67874e-19)
(0.301183 -2.01051e-15 -1.44813e-16)
(0.301183 -3.0447e-17 1.79037e-19)
(0.314627 -2.0079e-15 -1.44952e-16)
(0.314627 -3.21644e-17 1.88374e-19)
(0.327716 -2.00508e-15 -1.44659e-16)
(0.327716 -3.39173e-17 2.0243e-19)
(0.340425 -2.00226e-15 -1.44016e-16)
(0.340425 -3.53498e-17 2.17962e-19)
(0.352736 -2.00001e-15 -1.43109e-16)
(0.352736 -3.66658e-17 2.28043e-19)
(0.364641 -1.99767e-15 -1.42014e-16)
(0.364641 -3.8287e-17 2.34139e-19)
(0.37614 -1.99459e-15 -1.408e-16)
(0.37614 -3.97443e-17 2.45953e-19)
(0.387236 -1.99142e-15 -1.39526e-16)
(0.387236 -4.15827e-17 2.55397e-19)
(0.397939 -1.98842e-15 -1.3824e-16)
(0.397939 -4.329e-17 2.62101e-19)
(0.408261 -1.98545e-15 -1.36984e-16)
(0.408261 -4.4777e-17 2.64583e-19)
(0.418217 -1.98268e-15 -1.35784e-16)
(0.418217 -4.66074e-17 2.70042e-19)
(0.427821 -1.98023e-15 -1.34665e-16)
(0.427821 -4.8242e-17 2.91446e-19)
(0.437092 -1.97765e-15 -1.33645e-16)
(0.437092 -4.96231e-17 3.0386e-19)
(0.446046 -1.97554e-15 -1.32735e-16)
(0.446046 -5.11317e-17 3.19751e-19)
(0.454699 -1.97379e-15 -1.31948e-16)
(0.454699 -5.20024e-17 3.48969e-19)
(0.463067 -1.97173e-15 -1.31284e-16)
(0.463067 -5.25363e-17 3.58729e-19)
(0.471168 -1.97019e-15 -1.30743e-16)
(0.471168 -5.38303e-17 3.99116e-19)
(0.479014 -1.96856e-15 -1.3033e-16)
(0.479014 -5.47902e-17 4.23248e-19)
(0.486622 -1.9666e-15 -1.30043e-16)
(0.486622 -5.54365e-17 4.18475e-19)
(0.494003 -1.9653e-15 -1.29876e-16)
(0.494003 -5.65776e-17 4.41841e-19)
(0.501172 -1.96418e-15 -1.29835e-16)
(0.501172 -5.78195e-17 4.68979e-19)
(0.50814 -1.96246e-15 -1.29914e-16)
(0.50814 -5.95775e-17 4.88445e-19)
(0.514917 -1.96028e-15 -1.3011e-16)
(0.514917 -6.0461e-17 5.30233e-19)
(0.521516 -1.95805e-15 -1.30421e-16)
(0.521516 -6.1443e-17 5.76534e-19)
(0.527945 -1.95683e-15 -1.30847e-16)
(0.527945 -6.32257e-17 5.82931e-19)
(0.534214 -1.95567e-15 -1.3139e-16)
(0.534214 -6.41308e-17 5.47229e-19)
(0.54033 -1.95353e-15 -1.32042e-16)
(0.54033 -6.50247e-17 5.12169e-19)
(0.546304 -1.95129e-15 -1.32803e-16)
(0.546304 -6.70152e-17 5.28769e-19)
(0.552141 -1.9495e-15 -1.33657e-16)
(0.552141 -6.9039e-17 5.78761e-19)
(0.557848 -1.94736e-15 -1.34617e-16)
(0.557848 -6.99827e-17 6.07231e-19)
(0.563433 -1.94489e-15 -1.35662e-16)
(0.563433 -7.10525e-17 6.16053e-19)
(0.568902 -1.94264e-15 -1.36805e-16)
(0.568902 -7.29769e-17 6.45454e-19)
(0.574259 -1.93972e-15 -1.38034e-16)
(0.574259 -7.44285e-17 7.14303e-19)
(0.579512 -1.93688e-15 -1.39348e-16)
(0.579512 -7.55577e-17 7.46058e-19)
(0.584663 -1.93452e-15 -1.40745e-16)
(0.584663 -7.74409e-17 7.50774e-19)
(0.589719 -1.93234e-15 -1.42224e-16)
(0.589719 -7.95925e-17 7.43304e-19)
(0.594684 -1.9297e-15 -1.43799e-16)
(0.594684 -8.32787e-17 7.40141e-19)
(0.599562 -1.92627e-15 -1.45462e-16)
(0.599562 -8.70796e-17 8.5555e-19)
(0.604357 -1.92375e-15 -1.47225e-16)
(0.604357 -8.92495e-17 9.7108e-19)
(0.609072 -1.92223e-15 -1.49079e-16)
(0.609072 -8.90923e-17 1.03398e-18)
(0.613711 -1.92042e-15 -1.51023e-16)
(0.613711 -8.92264e-17 9.87042e-19)
(0.618277 -1.91786e-15 -1.53067e-16)
(0.618277 -9.23094e-17 1.00853e-18)
(0.622774 -1.91422e-15 -1.55203e-16)
(0.622774 -9.46121e-17 1.05065e-18)
(0.627204 -1.91092e-15 -1.5741e-16)
(0.627204 -9.51981e-17 1.13315e-18)
(0.63157 -1.90852e-15 -1.59706e-16)
(0.63157 -9.55919e-17 1.29447e-18)
(0.635875 -1.9056e-15 -1.62082e-16)
(0.635875 -9.73054e-17 1.3996e-18)
(0.640121 -1.902e-15 -1.64535e-16)
(0.640121 -9.94757e-17 1.48878e-18)
(0.644311 -1.89818e-15 -1.67068e-16)
(0.644311 -1.0233e-16 1.52756e-18)
(0.648446 -1.8949e-15 -1.69662e-16)
(0.648446 -1.0572e-16 1.5099e-18)
(0.652529 -1.89298e-15 -1.72339e-16)
(0.652529 -1.0602e-16 1.53365e-18)
(0.656562 -1.89145e-15 -1.75101e-16)
(0.656562 -1.06307e-16 1.70348e-18)
(0.660546 -1.88988e-15 -1.77949e-16)
(0.660546 -1.09447e-16 1.87488e-18)
(0.664484 -1.88836e-15 -1.80911e-16)
(0.664484 -1.10336e-16 2.00472e-18)
(0.668378 -1.8868e-15 -1.83857e-16)
(0.668378 -1.10466e-16 1.96637e-18)
(0.672228 -1.88428e-15 -1.86189e-16)
(0.672228 -1.1216e-16 1.94269e-18)
(0.676037 -1.88153e-15 -1.88833e-16)
(0.676037 -1.12804e-16 2.15073e-18)
(0.679805 -1.87924e-15 -1.91447e-16)
(0.679805 -1.12904e-16 2.21221e-18)
(0.683535 -1.87656e-15 -1.94072e-16)
(0.683535 -1.14208e-16 2.38289e-18)
(0.687227 -1.87462e-15 -1.97047e-16)
(0.687227 -1.16124e-16 2.47787e-18)
(0.690884 -1.87205e-15 -2.00067e-16)
(0.690884 -1.16299e-16 2.42683e-18)
(0.694506 -1.86804e-15 -2.03074e-16)
(0.694506 -1.18869e-16 2.6658e-18)
(0.698094 -1.86395e-15 -2.06186e-16)
(0.698094 -1.22079e-16 3.02117e-18)
(0.701649 -1.86136e-15 -2.09447e-16)
(0.701649 -1.23234e-16 3.02536e-18)
(0.705173 -1.85947e-15 -2.12862e-16)
(0.705173 -1.25444e-16 2.87825e-18)
(0.708667 -1.85942e-15 -2.16223e-16)
(0.708667 -1.30821e-16 3.04687e-18)
(0.712131 -1.85955e-15 -2.19971e-16)
(0.712131 -1.37427e-16 3.14669e-18)
(0.715567 -1.856e-15 -2.23735e-16)
(0.715567 -1.39744e-16 3.09311e-18)
(0.718976 -1.85339e-15 -2.27561e-16)
(0.718976 -1.40421e-16 3.26311e-18)
(0.722357 -1.85207e-15 -2.316e-16)
(0.722357 -1.47513e-16 3.43256e-18)
(0.725713 -1.84851e-15 -2.35878e-16)
(0.725713 -1.5133e-16 3.22492e-18)
(0.729044 -1.8429e-15 -2.40218e-16)
(0.729044 -1.56844e-16 3.36805e-18)
(0.73235 -1.83442e-15 -2.44462e-16)
(0.73235 -1.64743e-16 3.53188e-18)
(0.735633 -1.82638e-15 -2.48971e-16)
(0.735633 -1.72772e-16 3.45205e-18)
(0.738894 -1.82019e-15 -2.53649e-16)
(0.738894 -1.79429e-16 3.30634e-18)
(0.742132 -1.81498e-15 -2.58439e-16)
(0.742132 -1.86955e-16 3.29983e-18)
(0.745348 -1.81009e-15 -2.63376e-16)
(0.745348 -1.94086e-16 3.51384e-18)
(0.748544 -1.80264e-15 -2.68657e-16)
(0.748544 -2.01125e-16 3.51526e-18)
(0.751719 -1.79581e-15 -2.73938e-16)
(0.751719 -2.09393e-16 3.14374e-18)
(0.754875 -1.79011e-15 -2.79185e-16)
(0.754875 -2.14962e-16 2.91067e-18)
(0.758012 -1.78826e-15 -2.84544e-16)
(0.758012 -2.14901e-16 3.29373e-18)
(0.76113 -1.78874e-15 -2.90299e-16)
(0.76113 -2.1311e-16 4.0342e-18)
(0.764231 -1.78525e-15 -2.96137e-16)
(0.764231 -2.17868e-16 4.27655e-18)
(0.767314 -1.78119e-15 -3.02048e-16)
(0.767314 -2.20405e-16 4.40457e-18)
(0.770379 -1.77857e-15 -3.08498e-16)
(0.770379 -2.23436e-16 4.31467e-18)
(0.773429 -1.77743e-15 -3.14901e-16)
(0.773429 -2.26946e-16 4.04937e-18)
(0.776462 -1.77549e-15 -3.21419e-16)
(0.776462 -2.31598e-16 4.29803e-18)
(0.77948 -1.77119e-15 -3.28013e-16)
(0.77948 -2.36429e-16 4.36478e-18)
(0.782482 -1.76355e-15 -3.35386e-16)
(0.782482 -2.41086e-16 4.42242e-18)
(0.78547 -1.75467e-15 -3.42605e-16)
(0.78547 -2.47232e-16 4.27084e-18)
(0.788443 -1.74962e-15 -3.50041e-16)
(0.788443 -2.53051e-16 3.92143e-18)
(0.791403 -1.74348e-15 -3.57635e-16)
(0.791403 -2.56559e-16 3.29795e-18)
(0.794348 -1.73642e-15 -3.65181e-16)
(0.794348 -2.64153e-16 3.4865e-18)
(0.797281 -1.7293e-15 -3.73069e-16)
(0.797281 -2.71982e-16 4.38272e-18)
(0.8002 -1.72072e-15 -3.81103e-16)
(0.8002 -2.78397e-16 4.09098e-18)
(0.803107 -1.71076e-15 -3.88859e-16)
(0.803107 -2.82524e-16 4.39871e-18)
(0.806002 -1.70988e-15 -3.98214e-16)
(0.806002 -2.87923e-16 4.81261e-18)
(0.808884 -1.70172e-15 -4.06148e-16)
(0.808884 -2.96651e-16 5.31178e-18)
(0.811755 -1.69353e-15 -4.15211e-16)
(0.811755 -2.97532e-16 5.17374e-18)
(0.814615 -1.68302e-15 -4.24588e-16)
(0.814615 -3.06367e-16 4.87215e-18)
(0.817464 -1.6754e-15 -4.33832e-16)
(0.817464 -3.172e-16 5.25039e-18)
(0.820302 -1.66578e-15 -4.43153e-16)
(0.820302 -3.26529e-16 5.74397e-18)
(0.823129 -1.65678e-15 -4.53497e-16)
(0.823129 -3.38023e-16 5.93176e-18)
(0.825946 -1.64405e-15 -4.63176e-16)
(0.825946 -3.47041e-16 6.34959e-18)
(0.828753 -1.637e-15 -4.73456e-16)
(0.828753 -3.55028e-16 6.44456e-18)
(0.83155 -1.62741e-15 -4.84761e-16)
(0.83155 -3.62437e-16 6.35183e-18)
(0.834338 -1.61766e-15 -4.95734e-16)
(0.834338 -3.69504e-16 6.17092e-18)
(0.837116 -1.60755e-15 -5.0671e-16)
(0.837116 -3.79959e-16 5.64264e-18)
(0.839885 -1.59098e-15 -5.17979e-16)
(0.839885 -3.94843e-16 5.7951e-18)
(0.842646 -1.5762e-15 -5.29962e-16)
(0.842646 -4.08841e-16 6.27817e-18)
(0.845397 -1.56015e-15 -5.33988e-16)
(0.845397 -4.25698e-16 6.24697e-18)
(0.84814 -1.54147e-15 -5.3302e-16)
(0.84814 -4.29569e-16 6.18714e-18)
(0.850875 -1.52007e-15 -5.33228e-16)
(0.850875 -4.41751e-16 5.55637e-18)
(0.853602 -1.5045e-15 -5.36965e-16)
(0.853602 -4.53161e-16 4.37915e-18)
(0.85632 -1.5039e-15 -5.39005e-16)
(0.85632 -4.51928e-16 6.24872e-18)
(0.859031 -1.49769e-15 -5.3883e-16)
(0.859031 -4.59187e-16 6.73471e-18)
(0.861734 -1.49229e-15 -5.39052e-16)
(0.861734 -4.62731e-16 7.20086e-18)
(0.86443 -1.48576e-15 -5.39181e-16)
(0.86443 -4.67381e-16 5.78525e-18)
(0.867119 -1.48118e-15 -5.38327e-16)
(0.867119 -4.6942e-16 1.31779e-18)
(0.8698 -1.47386e-15 -5.3472e-16)
(0.8698 -4.73439e-16 -4.68732e-18)
(0.872474 -1.46305e-15 -5.33033e-16)
(0.872474 -4.74844e-16 -6.37546e-18)
(0.875142 -1.45611e-15 -5.32934e-16)
(0.875142 -4.85923e-16 -8.26924e-18)
(0.877802 -1.4491e-15 -5.30373e-16)
(0.877802 -4.85591e-16 -1.32533e-17)
(0.880456 -1.43936e-15 -5.26083e-16)
(0.880456 -4.90229e-16 -1.91568e-17)
(0.883103 -1.42235e-15 -5.2354e-16)
(0.883103 -4.99644e-16 -2.18449e-17)
(0.885744 -1.4029e-15 -5.22262e-16)
(0.885744 -5.1349e-16 -2.46691e-17)
(0.888379 -1.40182e-15 -5.19764e-16)
(0.888379 -5.16529e-16 -2.98507e-17)
(0.891007 -1.3879e-15 -5.15252e-16)
(0.891007 -5.22981e-16 -3.55725e-17)
(0.89363 -1.37533e-15 -5.12297e-16)
(0.89363 -5.42633e-16 -3.74845e-17)
(0.896246 -1.36591e-15 -5.07172e-16)
(0.896246 -5.33726e-16 -4.65137e-17)
(0.898856 -1.36142e-15 -4.99673e-16)
(0.898856 -5.42647e-16 -5.2134e-17)
(0.901461 -1.35985e-15 -4.8945e-16)
(0.901461 -5.51738e-16 -5.8792e-17)
(0.90406 -1.33701e-15 -4.8013e-16)
(0.90406 -5.70022e-16 -6.27387e-17)
(0.906653 -1.32375e-15 -4.72258e-16)
(0.906653 -5.79585e-16 -6.4974e-17)
(0.90924 -1.31755e-15 -4.6568e-16)
(0.90924 -5.88181e-16 -7.0569e-17)
(0.911822 -1.30485e-15 -4.59698e-16)
(0.911822 -5.95666e-16 -7.6048e-17)
(0.914398 -1.29575e-15 -4.53774e-16)
(0.914398 -6.0923e-16 -7.94421e-17)
(0.916969 -1.28593e-15 -4.42822e-16)
(0.916969 -6.20309e-16 -9.76864e-17)
(0.919534 -1.27327e-15 -4.34107e-16)
(0.919534 -6.26046e-16 -1.1156e-16)
(0.922094 -1.26011e-15 -4.27255e-16)
(0.922094 -6.42142e-16 -1.24865e-16)
(0.924648 -1.24241e-15 -4.1811e-16)
(0.924648 -6.49022e-16 -1.40089e-16)
(0.927198 -1.22421e-15 -4.06317e-16)
(0.927198 -6.56283e-16 -1.52532e-16)
(0.929742 -1.20981e-15 -3.99933e-16)
(0.929742 -6.64098e-16 -1.61162e-16)
(0.93228 -1.20002e-15 -3.94223e-16)
(0.93228 -6.60757e-16 -1.72144e-16)
(0.934814 -1.18708e-15 -3.83022e-16)
(0.934814 -6.69203e-16 -1.8918e-16)
(0.937342 -1.17517e-15 -3.83806e-16)
(0.937342 -6.77504e-16 -2.11599e-16)
(0.939865 -1.16438e-15 -3.81629e-16)
(0.939865 -6.78733e-16 -2.30097e-16)
(0.942383 -1.14828e-15 -3.80566e-16)
(0.942383 -6.85367e-16 -2.39652e-16)
(0.944895 -1.13668e-15 -3.78745e-16)
(0.944895 -6.92047e-16 -2.55294e-16)
(0.947402 -1.12212e-15 -3.78198e-16)
(0.947402 -6.9946e-16 -2.70222e-16)
(0.949904 -1.10037e-15 -3.79103e-16)
(0.949904 -7.01652e-16 -2.85128e-16)
(0.952401 -1.09376e-15 -3.81455e-16)
(0.952401 -6.98589e-16 -3.01445e-16)
(0.954892 -1.07905e-15 -3.79945e-16)
(0.954892 -6.90192e-16 -3.16432e-16)
(0.957378 -1.06541e-15 -3.73699e-16)
(0.957378 -6.81112e-16 -3.31042e-16)
(0.959858 -1.04417e-15 -3.73942e-16)
(0.959858 -6.77408e-16 -3.34231e-16)
(0.962333 -1.03546e-15 -3.67537e-16)
(0.962333 -6.82458e-16 -3.35701e-16)
(0.964802 -1.02171e-15 -3.65637e-16)
(0.964802 -6.81777e-16 -3.38922e-16)
(0.967266 -1.02032e-15 -3.66399e-16)
(0.967266 -6.86959e-16 -3.42947e-16)
(0.969724 -1.00832e-15 -3.65102e-16)
(0.969724 -6.95192e-16 -3.52012e-16)
(0.972176 -9.79951e-16 -3.56354e-16)
(0.972176 -7.04695e-16 -3.59033e-16)
(0.974623 -9.51713e-16 -3.51855e-16)
(0.974623 -7.12915e-16 -3.72136e-16)
(0.977063 -9.26922e-16 -3.54553e-16)
(0.977063 -7.1398e-16 -3.73674e-16)
(0.979497 -9.17325e-16 -3.57847e-16)
(0.979497 -7.23078e-16 -3.67351e-16)
(0.981926 -9.07383e-16 -3.52868e-16)
(0.981926 -7.2031e-16 -3.65533e-16)
(0.984347 -9.03455e-16 -3.36908e-16)
(0.984347 -7.24649e-16 -3.70937e-16)
(0.986763 -9.00518e-16 -3.44176e-16)
(0.986763 -7.31144e-16 -3.74567e-16)
(0.989172 -8.83438e-16 -3.4187e-16)
(0.989172 -7.38453e-16 -3.77164e-16)
(0.991574 -8.72967e-16 -3.42923e-16)
(0.991574 -7.57995e-16 -3.77519e-16)
(0.993969 -8.6857e-16 -3.45845e-16)
(0.993969 -7.63329e-16 -3.72252e-16)
(0.996357 -8.6043e-16 -3.49208e-16)
(0.996357 -7.72171e-16 -3.64851e-16)
(0.998738 -8.51118e-16 -3.51502e-16)
(0.998738 -7.79407e-16 -3.503e-16)
(1.00111 -8.33079e-16 -3.57191e-16)
(1.00111 -7.77715e-16 -3.44885e-16)
(1.00348 -8.38377e-16 -3.6566e-16)
(1.00348 -7.9345e-16 -3.59481e-16)
(1.00584 -8.34001e-16 -3.81735e-16)
(1.00584 -8.06125e-16 -3.63063e-16)
(1.00818 -8.27629e-16 -3.86068e-16)
(1.00818 -7.9432e-16 -3.79488e-16)
(1.01053 -8.28016e-16 -3.70853e-16)
(1.01053 -7.84006e-16 -3.94167e-16)
(1.01286 -8.1751e-16 -3.9082e-16)
(1.01286 -8.24054e-16 -3.8422e-16)
(1.01518 -8.04504e-16 -3.84428e-16)
(1.01518 -8.19012e-16 -3.90232e-16)
(1.0175 -7.90639e-16 -3.81655e-16)
(1.0175 -7.99839e-16 -4.0213e-16)
(1.0198 -7.76805e-16 -3.9133e-16)
(1.0198 -8.03872e-16 -4.17607e-16)
(1.0221 -7.63638e-16 -3.90193e-16)
(1.0221 -7.56188e-16 -4.18754e-16)
(1.02438 -7.79592e-16 -3.93827e-16)
(1.02438 -7.41224e-16 -4.26424e-16)
(1.02665 -7.37367e-16 -4.20445e-16)
(1.02665 -7.47385e-16 -4.14896e-16)
(1.02892 -7.15432e-16 -4.3531e-16)
(1.02892 -7.13657e-16 -4.00291e-16)
(1.03117 -6.83135e-16 -4.48154e-16)
(1.03117 -6.85456e-16 -4.01406e-16)
(1.03341 -6.65564e-16 -4.61074e-16)
(1.03341 -7.10065e-16 -3.95525e-16)
(1.03563 -6.72348e-16 -4.80235e-16)
(1.03563 -6.68629e-16 -3.91591e-16)
(1.03785 -6.70032e-16 -4.58257e-16)
(1.03785 -6.33038e-16 -4.13485e-16)
(1.04004 -6.54208e-16 -4.42773e-16)
(1.04004 -6.36489e-16 -4.42981e-16)
(1.04223 -6.27834e-16 -4.3076e-16)
(1.04223 -6.11794e-16 -4.52588e-16)
(1.0444 -6.11776e-16 -4.49757e-16)
(1.0444 -6.01102e-16 -4.35047e-16)
(1.04656 -5.96068e-16 -4.47531e-16)
(1.04656 -6.20894e-16 -4.44483e-16)
(1.0487 -6.17944e-16 -4.57911e-16)
(1.0487 -6.20925e-16 -4.24027e-16)
(1.05082 -6.13783e-16 -4.6538e-16)
(1.05082 -6.40543e-16 -4.63336e-16)
(1.05292 -5.93085e-16 -4.89958e-16)
(1.05292 -6.24847e-16 -4.79068e-16)
(1.05501 -5.99811e-16 -5.02956e-16)
(1.05501 -5.92941e-16 -4.4002e-16)
(1.05707 -5.62362e-16 -4.48837e-16)
(1.05707 -6.06497e-16 -4.10942e-16)
(1.05912 -5.54415e-16 -4.32716e-16)
(1.05912 -5.82721e-16 -3.84359e-16)
(1.06114 -5.97085e-16 -4.5685e-16)
(1.06114 -5.72645e-16 -3.56985e-16)
(1.06315 -5.81824e-16 -4.34014e-16)
(1.06315 -5.96589e-16 -3.49093e-16)
(1.06512 -5.68449e-16 -4.62463e-16)
(1.06512 -5.87061e-16 -3.68025e-16)
(1.06708 -5.3398e-16 -4.57884e-16)
(1.06708 -5.6354e-16 -3.74983e-16)
(1.069 -6.01402e-16 -4.56174e-16)
(1.069 -5.24508e-16 -3.92289e-16)
(1.0709 -5.79617e-16 -4.26841e-16)
(1.0709 -5.33187e-16 -3.87764e-16)
(1.07277 -5.628e-16 -4.18922e-16)
(1.07277 -5.63216e-16 -3.84456e-16)
(1.07461 -5.3074e-16 -4.46105e-16)
(1.07461 -5.42266e-16 -4.08084e-16)
(1.07642 -4.99361e-16 -4.44424e-16)
(1.07642 -4.9162e-16 -4.27618e-16)
(1.07819 -4.896e-16 -4.73458e-16)
(1.07819 -5.20598e-16 -3.99577e-16)
(1.07992 -4.73316e-16 -4.84452e-16)
(1.07992 -5.13439e-16 -3.80694e-16)
(1.08161 -4.43424e-16 -4.82266e-16)
(1.08161 -4.69465e-16 -3.9312e-16)
(1.08327 -4.34498e-16 -4.58804e-16)
(1.08327 -4.77005e-16 -4.12494e-16)
(1.08488 -4.3218e-16 -4.87317e-16)
(1.08488 -4.41627e-16 -3.92367e-16)
(1.08644 -4.47676e-16 -4.98643e-16)
(1.08644 -4.19988e-16 -4.62813e-16)
(1.08795 -4.12308e-16 -4.51461e-16)
(1.08795 -4.5151e-16 -4.24288e-16)
(1.08941 -3.74257e-16 -5.03067e-16)
(1.08941 -4.64408e-16 -4.94227e-16)
(1.09081 -4.65122e-16 -5.18937e-16)
(1.09081 -4.75649e-16 -5.16563e-16)
(1.09215 -4.50424e-16 -4.48838e-16)
(1.09215 -4.5708e-16 -4.05686e-16)
(1.09342 -4.84859e-16 -4.18088e-16)
(1.09342 -4.39431e-16 -3.80118e-16)
(1.09462 -4.67868e-16 -4.87016e-16)
(1.09462 -4.51231e-16 -4.19475e-16)
(1.09575 -5.05811e-16 -4.4016e-16)
(1.09575 -4.34161e-16 -4.10815e-16)
(1.09679 -4.88939e-16 -4.07319e-16)
(1.09679 -3.86652e-16 -3.28147e-16)
(1.09775 -4.8555e-16 -3.06263e-16)
(1.09775 -4.31441e-16 -2.29159e-16)
(1.09862 -3.97353e-16 -2.11559e-16)
(1.09862 -4.13698e-16 -1.845e-16)
(1.09938 -3.51414e-16 -2.20717e-16)
(1.09938 -3.89078e-16 -1.30383e-16)
(1.10004 -3.3185e-16 -2.08338e-16)
(1.10004 -3.57816e-16 -9.94636e-17)
(1.10058 -4.56232e-16 -2.85219e-16)
(1.10058 -3.36286e-16 -1.69616e-16)
(1.101 -3.342e-16 -2.77782e-16)
(1.101 -3.05962e-16 -1.6498e-16)
(1.10129 -3.12245e-16 -1.89517e-16)
(1.10129 -3.24884e-16 -1.82922e-16)
(1.10143 -3.08981e-16 -1.06353e-16)
(1.10143 -3.11476e-16 -1.2886e-16)
(0.00569653 7.38461e-20 6.10929e-18)
(0.00569653 5.24667e-20 2.18549e-17)
(0.0171938 -4.44572e-19 2.07128e-17)
(0.0171938 -1.12007e-19 3.65836e-17)
(0.0289034 -6.71203e-19 2.14864e-17)
(0.0289034 -1.26376e-19 3.796e-17)
(0.0408292 -1.06544e-18 2.22854e-17)
(0.0408292 -2.02557e-19 3.93919e-17)
(0.0529752 -1.47326e-18 2.31096e-17)
(0.0529752 -2.74772e-19 4.08812e-17)
(0.0653451 -1.87668e-18 2.39596e-17)
(0.0653451 -3.4862e-19 4.24287e-17)
(0.0779423 -2.2754e-18 2.48346e-17)
(0.0779423 -4.2768e-19 4.40345e-17)
(0.0907695 -2.67834e-18 2.57343e-17)
(0.0907695 -6.02233e-19 4.56971e-17)
(0.103828 -3.12705e-18 2.66565e-17)
(0.103828 -7.76843e-19 4.74104e-17)
(0.117119 -3.61532e-18 2.75973e-17)
(0.117119 -9.19632e-19 4.91665e-17)
(0.130637 -4.08585e-18 2.85489e-17)
(0.130637 -1.11834e-18 5.09577e-17)
(0.144376 -4.61239e-18 2.95005e-17)
(0.144376 -1.22259e-18 5.27643e-17)
(0.158324 -5.19806e-18 3.04374e-17)
(0.158324 -1.32334e-18 5.45621e-17)
(0.17246 -5.78076e-18 3.13456e-17)
(0.17246 -1.41447e-18 5.63185e-17)
(0.186759 -6.33107e-18 3.22015e-17)
(0.186759 -1.5923e-18 5.80042e-17)
(0.201184 -6.76802e-18 3.29865e-17)
(0.201184 -1.79286e-18 5.95658e-17)
(0.21569 -7.19515e-18 3.36784e-17)
(0.21569 -1.96971e-18 6.09601e-17)
(0.230224 -7.66104e-18 3.42477e-17)
(0.230224 -2.22486e-18 6.21516e-17)
(0.244727 -8.22509e-18 3.46837e-17)
(0.244727 -2.43978e-18 6.30963e-17)
(0.259136 -8.88617e-18 3.49694e-17)
(0.259136 -2.81923e-18 6.37732e-17)
(0.273388 -9.53946e-18 3.51001e-17)
(0.273388 -2.91316e-18 6.41774e-17)
(0.287421 -9.95616e-18 3.5075e-17)
(0.287421 -2.6027e-18 6.43298e-17)
(0.301183 -1.06149e-17 3.49052e-17)
(0.301183 -2.55432e-18 6.42369e-17)
(0.314627 -1.13215e-17 3.46022e-17)
(0.314627 -2.95327e-18 6.39244e-17)
(0.327716 -1.18623e-17 3.41888e-17)
(0.327716 -3.39564e-18 6.34413e-17)
(0.340425 -1.26508e-17 3.36831e-17)
(0.340425 -3.59643e-18 6.28099e-17)
(0.352736 -1.31715e-17 3.3106e-17)
(0.352736 -3.82105e-18 6.2071e-17)
(0.364641 -1.35873e-17 3.2481e-17)
(0.364641 -4.3087e-18 6.12795e-17)
(0.37614 -1.41336e-17 3.18221e-17)
(0.37614 -4.65271e-18 6.04507e-17)
(0.387236 -1.46957e-17 3.11524e-17)
(0.387236 -4.86014e-18 5.95938e-17)
(0.397939 -1.53074e-17 3.04708e-17)
(0.397939 -5.31254e-18 5.8752e-17)
(0.408261 -1.58786e-17 2.9789e-17)
(0.408261 -5.73262e-18 5.7943e-17)
(0.418217 -1.63578e-17 2.91177e-17)
(0.418217 -6.11774e-18 5.71824e-17)
(0.427821 -1.70709e-17 2.8461e-17)
(0.427821 -6.60028e-18 5.64665e-17)
(0.437092 -1.81733e-17 2.78077e-17)
(0.437092 -6.65156e-18 5.58197e-17)
(0.446046 -1.89492e-17 2.71658e-17)
(0.446046 -6.78518e-18 5.52217e-17)
(0.454699 -1.8903e-17 2.65369e-17)
(0.454699 -7.33219e-18 5.46808e-17)
(0.463067 -1.87782e-17 2.59425e-17)
(0.463067 -7.43814e-18 5.41581e-17)
(0.471168 -1.9039e-17 2.53735e-17)
(0.471168 -7.9517e-18 5.36948e-17)
(0.479014 -1.95637e-17 2.48272e-17)
(0.479014 -8.09854e-18 5.32897e-17)
(0.486622 -2.01556e-17 2.43048e-17)
(0.486622 -7.5069e-18 5.29279e-17)
(0.494003 -2.08849e-17 2.38252e-17)
(0.494003 -8.28164e-18 5.25874e-17)
(0.501172 -2.12113e-17 2.3362e-17)
(0.501172 -8.60862e-18 5.23115e-17)
(0.50814 -2.15639e-17 2.29259e-17)
(0.50814 -8.46673e-18 5.20681e-17)
(0.514917 -2.23127e-17 2.25014e-17)
(0.514917 -7.76476e-18 5.18555e-17)
(0.521516 -2.30745e-17 2.2095e-17)
(0.521516 -7.02741e-18 5.16535e-17)
(0.527945 -2.41574e-17 2.16893e-17)
(0.527945 -7.84387e-18 5.15258e-17)
(0.534214 -2.46279e-17 2.12992e-17)
(0.534214 -7.93676e-18 5.14622e-17)
(0.54033 -2.50592e-17 2.09247e-17)
(0.54033 -7.54071e-18 5.13976e-17)
(0.546304 -2.57236e-17 2.05538e-17)
(0.546304 -8.09264e-18 5.13363e-17)
(0.552141 -2.59206e-17 2.01851e-17)
(0.552141 -8.96273e-18 5.13823e-17)
(0.557848 -2.63138e-17 1.98325e-17)
(0.557848 -8.33599e-18 5.14693e-17)
(0.563433 -2.68151e-17 1.94836e-17)
(0.563433 -8.84379e-18 5.15816e-17)
(0.568902 -2.72294e-17 1.91318e-17)
(0.568902 -9.77298e-18 5.18011e-17)
(0.574259 -2.76908e-17 1.87867e-17)
(0.574259 -9.2442e-18 5.20514e-17)
(0.579512 -2.7885e-17 1.84609e-17)
(0.579512 -1.01938e-17 5.22668e-17)
(0.584663 -2.76122e-17 1.81584e-17)
(0.584663 -1.06101e-17 5.2576e-17)
(0.589719 -2.7913e-17 1.79103e-17)
(0.589719 -9.92528e-18 5.28868e-17)
(0.594684 -2.91127e-17 1.83342e-17)
(0.594684 -9.53269e-18 5.33007e-17)
(0.599562 -3.02265e-17 1.87895e-17)
(0.599562 -9.74874e-18 5.37779e-17)
(0.604357 -3.03945e-17 1.91773e-17)
(0.604357 -1.03906e-17 5.42608e-17)
(0.609072 -2.96919e-17 1.9778e-17)
(0.609072 -1.01114e-17 5.46003e-17)
(0.613711 -3.01701e-17 2.04099e-17)
(0.613711 -9.03984e-18 5.4953e-17)
(0.618277 -3.12849e-17 2.09405e-17)
(0.618277 -6.84232e-18 5.53784e-17)
(0.622774 -3.08487e-17 2.14299e-17)
(0.622774 -5.9639e-18 5.58379e-17)
(0.627204 -3.07088e-17 2.1971e-17)
(0.627204 -5.59696e-18 5.63614e-17)
(0.63157 -3.13454e-17 2.26088e-17)
(0.63157 -4.91812e-18 5.68177e-17)
(0.635875 -3.21536e-17 2.31748e-17)
(0.635875 -5.80387e-18 5.73042e-17)
(0.640121 -3.29198e-17 2.36177e-17)
(0.640121 -7.20878e-18 5.79578e-17)
(0.644311 -3.32214e-17 2.40676e-17)
(0.644311 -7.67983e-18 5.85905e-17)
(0.648446 -3.39434e-17 2.48168e-17)
(0.648446 -8.49926e-18 5.90986e-17)
(0.652529 -3.38585e-17 2.57032e-17)
(0.652529 -1.03198e-17 5.95661e-17)
(0.656562 -3.3734e-17 2.64989e-17)
(0.656562 -9.81523e-18 6.01842e-17)
(0.660546 -3.46408e-17 2.7296e-17)
(0.660546 -9.25832e-18 6.07768e-17)
(0.664484 -3.58906e-17 2.78956e-17)
(0.664484 -9.6093e-18 6.14239e-17)
(0.668378 -3.63962e-17 2.8576e-17)
(0.668378 -1.15409e-17 6.21103e-17)
(0.672228 -3.49862e-17 2.96581e-17)
(0.672228 -1.2401e-17 6.24848e-17)
(0.676037 -3.58583e-17 3.11793e-17)
(0.676037 -1.42979e-17 6.25803e-17)
(0.679805 -3.72746e-17 3.2118e-17)
(0.679805 -1.57783e-17 6.30249e-17)
(0.683535 -3.71558e-17 3.30486e-17)
(0.683535 -1.32259e-17 6.35203e-17)
(0.687227 -3.79115e-17 3.42533e-17)
(0.687227 -1.34399e-17 6.36478e-17)
(0.690884 -3.86933e-17 3.57095e-17)
(0.690884 -1.36542e-17 6.36175e-17)
(0.694506 -3.93898e-17 3.71851e-17)
(0.694506 -1.28124e-17 6.37229e-17)
(0.698094 -3.89314e-17 3.84157e-17)
(0.698094 -1.3001e-17 6.39335e-17)
(0.701649 -3.91495e-17 3.96248e-17)
(0.701649 -1.32434e-17 6.40512e-17)
(0.705173 -3.99206e-17 4.10509e-17)
(0.705173 -1.15838e-17 6.38625e-17)
(0.708667 -3.74679e-17 4.28532e-17)
(0.708667 -1.07636e-17 6.35072e-17)
(0.712131 -3.707e-17 4.438e-17)
(0.712131 -8.27561e-18 6.34045e-17)
(0.715567 -3.89453e-17 4.58921e-17)
(0.715567 -4.64159e-18 6.35008e-17)
(0.718976 -3.94729e-17 4.73514e-17)
(0.718976 -4.02631e-18 6.36538e-17)
(0.722357 -4.22842e-17 4.86115e-17)
(0.722357 -3.62962e-18 6.36113e-17)
(0.725713 -4.3869e-17 4.97179e-17)
(0.725713 -3.14904e-18 6.36742e-17)
(0.729044 -4.26098e-17 5.1467e-17)
(0.729044 -4.85253e-18 6.35777e-17)
(0.73235 -4.21452e-17 5.28989e-17)
(0.73235 -7.06639e-18 6.32736e-17)
(0.735633 -4.35129e-17 5.43377e-17)
(0.735633 -5.93986e-18 6.33415e-17)
(0.738894 -4.54135e-17 5.60342e-17)
(0.738894 -2.97428e-18 6.32433e-17)
(0.742132 -4.85582e-17 5.77643e-17)
(0.742132 -2.58042e-18 6.31999e-17)
(0.745348 -5.22736e-17 5.89058e-17)
(0.745348 -9.7322e-19 6.36473e-17)
(0.748544 -5.30136e-17 6.00604e-17)
(0.748544 1.86663e-18 6.39858e-17)
(0.751719 -5.29196e-17 6.10202e-17)
(0.751719 7.83753e-19 6.49257e-17)
(0.754875 -5.42681e-17 6.2109e-17)
(0.754875 3.06336e-18 6.59556e-17)
(0.758012 -5.58718e-17 6.35209e-17)
(0.758012 4.78626e-18 6.6636e-17)
(0.76113 -5.53713e-17 6.47185e-17)
(0.76113 1.55107e-18 6.7037e-17)
(0.764231 -5.51094e-17 6.53313e-17)
(0.764231 3.44695e-18 6.77651e-17)
(0.767314 -5.5935e-17 6.66533e-17)
(0.767314 6.35787e-18 6.82474e-17)
(0.770379 -5.68073e-17 6.8153e-17)
(0.770379 3.63321e-18 6.83201e-17)
(0.773429 -5.75632e-17 6.93428e-17)
(0.773429 3.35243e-18 6.88343e-17)
(0.776462 -5.79463e-17 7.06117e-17)
(0.776462 4.15964e-18 6.95815e-17)
(0.77948 -5.94017e-17 7.24028e-17)
(0.77948 4.71295e-18 6.93894e-17)
(0.782482 -6.29677e-17 7.45123e-17)
(0.782482 5.31401e-18 6.92134e-17)
(0.78547 -6.60524e-17 7.54514e-17)
(0.78547 6.10247e-18 6.93807e-17)
(0.788443 -6.59912e-17 7.68226e-17)
(0.788443 8.40958e-18 6.98984e-17)
(0.791403 -6.35525e-17 7.77666e-17)
(0.791403 9.53273e-18 7.09045e-17)
(0.794348 -6.27361e-17 7.9663e-17)
(0.794348 9.89219e-18 7.19014e-17)
(0.797281 -6.36707e-17 8.12315e-17)
(0.797281 8.29567e-18 7.26145e-17)
(0.8002 -6.07486e-17 8.22819e-17)
(0.8002 5.34602e-18 7.3304e-17)
(0.803107 -5.75914e-17 8.48124e-17)
(0.803107 5.30744e-18 7.40317e-17)
(0.806002 -5.67209e-17 8.69123e-17)
(0.806002 3.01886e-18 7.43666e-17)
(0.808884 -5.70533e-17 8.85109e-17)
(0.808884 1.03982e-18 7.54354e-17)
(0.811755 -5.78533e-17 9.07685e-17)
(0.811755 4.50494e-19 7.54284e-17)
(0.814615 -5.84453e-17 9.2981e-17)
(0.814615 1.60317e-18 7.51529e-17)
(0.817464 -5.6188e-17 9.64667e-17)
(0.817464 6.25046e-18 7.46803e-17)
(0.820302 -5.456e-17 9.96321e-17)
(0.820302 1.01549e-17 7.47368e-17)
(0.823129 -5.61148e-17 1.01086e-16)
(0.823129 1.05814e-17 7.61508e-17)
(0.825946 -5.61196e-17 1.0306e-16)
(0.825946 1.31255e-17 7.76921e-17)
(0.828753 -5.617e-17 1.05362e-16)
(0.828753 1.13334e-17 7.92536e-17)
(0.83155 -5.57553e-17 1.07932e-16)
(0.83155 3.76753e-18 7.99664e-17)
(0.834338 -5.52317e-17 1.11424e-16)
(0.834338 6.10857e-18 7.93877e-17)
(0.837116 -5.6481e-17 1.15389e-16)
(0.837116 7.34076e-18 7.76897e-17)
(0.839885 -5.67509e-17 1.18991e-16)
(0.839885 5.31194e-18 7.70759e-17)
(0.842646 -5.84366e-17 1.20728e-16)
(0.842646 4.41862e-18 7.92389e-17)
(0.845397 -5.96929e-17 1.24344e-16)
(0.845397 6.81276e-18 7.94459e-17)
(0.84814 -5.76418e-17 1.28105e-16)
(0.84814 7.70011e-18 7.82538e-17)
(0.850875 -6.06893e-17 1.32964e-16)
(0.850875 1.18963e-18 7.6677e-17)
(0.853602 -6.72543e-17 1.36693e-16)
(0.853602 1.13574e-18 7.82733e-17)
(0.85632 -7.36108e-17 1.388e-16)
(0.85632 5.16709e-18 8.05344e-17)
(0.859031 -7.60172e-17 1.40169e-16)
(0.859031 3.82346e-18 8.19664e-17)
(0.861734 -7.3644e-17 1.42849e-16)
(0.861734 2.15878e-18 8.28917e-17)
(0.86443 -7.52031e-17 1.47357e-16)
(0.86443 1.21179e-18 8.39166e-17)
(0.867119 -7.94992e-17 1.48347e-16)
(0.867119 -3.23188e-18 8.53471e-17)
(0.8698 -8.41203e-17 1.498e-16)
(0.8698 -7.26314e-19 8.51062e-17)
(0.872474 -8.59773e-17 1.52523e-16)
(0.872474 2.67237e-18 8.37031e-17)
(0.875142 -8.21507e-17 1.53709e-16)
(0.875142 -1.91063e-18 8.43464e-17)
(0.877802 -7.6451e-17 1.57221e-16)
(0.877802 -4.65623e-18 8.51599e-17)
(0.880456 -7.37351e-17 1.60279e-16)
(0.880456 -7.23302e-18 8.53956e-17)
(0.883103 -7.48354e-17 1.64437e-16)
(0.883103 -1.15161e-17 8.59621e-17)
(0.885744 -8.04777e-17 1.70359e-16)
(0.885744 -1.3717e-17 8.70992e-17)
(0.888379 -8.65475e-17 1.74377e-16)
(0.888379 -1.582e-17 8.61336e-17)
(0.891007 -8.77533e-17 1.78574e-16)
(0.891007 -1.22128e-17 8.357e-17)
(0.89363 -8.9763e-17 1.82377e-16)
(0.89363 -1.33951e-17 8.53825e-17)
(0.896246 -9.4801e-17 1.81451e-16)
(0.896246 -2.37038e-17 8.75952e-17)
(0.898856 -9.52733e-17 1.82e-16)
(0.898856 -1.90337e-17 8.59328e-17)
(0.901461 -8.88571e-17 1.84917e-16)
(0.901461 -1.79466e-17 7.66015e-17)
(0.90406 -8.16355e-17 1.90337e-16)
(0.90406 -1.68752e-17 6.84273e-17)
(0.906653 -8.12995e-17 1.96422e-16)
(0.906653 -2.05258e-17 6.37531e-17)