/*--------------------------------*- C++ -*----------------------------------*\
| =========                 |                                                 |
| \\      /  F ield         | OpenFOAM: The Open Source CFD Toolbox           |
|  \\    /   O peration     | Version:  2106                                  |
|   \\  /    A nd           | Website:  www.openfoam.com                      |
|    \\/     M anipulation  |                                                 |
\*---------------------------------------------------------------------------*/
FoamFile
{
    version     2.0;
    format      ascii;
    arch        "LSB;label=32;scalar=64";
    class       volTensorField;
    location    "10070";
    object      grad(U);
}
// * * * * * * * * * * * * * * * * * * * * * * * * * * * * * * * * * * * * * //

dimensions      [0 0 -1 0 0 0 0];

internalField   nonuniform List<tensor> 
2000
(
(-1.43031e-17 -8.8858e-26 3.04888e-31 61.5687 -6.84184e-12 -5.21184e-13 0.113952 -6.33042e-15 -3.47524e-16)
(1.43031e-17 -5.81655e-28 -3.48528e-27 61.5687 -6.94742e-16 -9.84368e-14 0.113952 5.51745e-19 -1.20309e-16)
(0 -5.60519e-45 1.03618e-30 61.557 0 -7.08224e-14 0.343939 -3.15544e-30 -2.67026e-16)
(0 -2.87329e-29 -7.98137e-31 61.557 -8.51427e-15 -7.60351e-14 0.343939 -1.98163e-17 -7.12049e-16)
(-1.40237e-17 -3.87403e-30 1.28031e-31 61.5451 9.18321e-13 -3.41157e-14 0.477124 -8.58384e-15 -2.56999e-16)
(0 9.40214e-30 3.91756e-31 61.5451 -8.72678e-15 -7.20831e-15 0.477124 -3.68161e-17 -7.38704e-16)
(-4.59087e-17 -4.43369e-31 1.33578e-31 61.5328 3.85906e-13 -3.36051e-14 0.485931 -5.49574e-15 -2.69023e-16)
(1.83635e-16 6.15323e-30 3.84577e-31 61.5328 -9.51328e-15 -7.31585e-15 0.485931 -5.78138e-17 -7.66241e-16)
(0 9.06071e-30 3.7753e-31 61.5194 3.4076e-14 -3.45061e-14 0.494888 -4.97372e-16 -2.81181e-16)
(0 -6.04048e-30 0 61.5194 -9.75024e-15 -7.43882e-15 0.494888 -7.97508e-17 -7.94714e-16)
(0 2.96489e-29 7.41223e-31 61.5036 3.82211e-15 -3.52625e-14 0.503981 -4.16494e-17 -2.91559e-16)
(-4.45846e-16 -2.96489e-29 -7.41223e-31 61.5036 -1.01369e-14 -7.56182e-15 0.503981 -1.02694e-16 -8.24158e-16)
(2.04813e-16 -4.0725e-28 -3.6382e-31 61.4826 4.88958e-15 -3.58426e-14 0.513185 -2.02216e-17 -3.01462e-16)
(5.8062e-16 8.73169e-30 7.2764e-31 61.4826 -1.04571e-14 -7.67272e-15 0.513185 -1.27142e-16 -8.54564e-16)
(0 2.85723e-30 0 61.452 1.91866e-14 -3.63336e-14 0.522451 -1.60189e-16 -3.10897e-16)
(1.43583e-15 0 3.57153e-31 61.452 -1.0648e-14 -7.76719e-15 0.522451 -1.52911e-16 -8.85869e-16)
(-2.14447e-16 3.34962e-30 8.68914e-31 61.4047 1.87835e-14 -3.67008e-14 0.531704 -1.63159e-16 -3.19184e-16)
(0 2.80487e-30 0 61.4047 -1.0982e-14 -7.84146e-15 0.531704 -1.80247e-16 -9.1799e-16)
(3.87517e-16 -1.37674e-29 -6.88368e-31 61.3305 1.85609e-14 -3.68672e-14 0.540829 -1.59241e-16 -3.25549e-16)
(-3.87517e-16 1.37674e-29 6.88368e-31 61.3305 -1.1509e-14 -7.86715e-15 0.540829 -2.09709e-16 -9.50854e-16)
(1.14125e-15 -3.24362e-29 -2.02726e-30 61.2152 1.90339e-14 -3.67467e-14 0.549667 -1.65378e-16 -3.29045e-16)
(0 3.24362e-29 2.02726e-30 61.2152 -1.17655e-14 -7.81164e-15 0.549667 -2.39932e-16 -9.84196e-16)
(3.2336e-16 7.27763e-30 8.01007e-31 61.0402 1.98375e-14 -3.6239e-14 0.558004 -1.73747e-16 -3.28518e-16)
(9.19994e-16 -1.06139e-29 -6.63371e-31 61.0402 -1.18949e-14 -7.67182e-15 0.558004 -2.68838e-16 -1.01758e-15)
(0 0 0 60.7825 2.07298e-14 -3.52373e-14 0.565571 -1.86327e-16 -3.22756e-16)
(0 0 0 60.7825 -1.21455e-14 -7.42199e-15 0.565571 -2.99773e-16 -1.05062e-15)
(-3.99374e-16 2.88955e-29 2.77226e-30 60.4153 2.13897e-14 -3.36449e-14 0.572051 -1.96941e-16 -3.10634e-16)
(0 -2.55712e-29 -1.91784e-30 60.4153 -1.21146e-14 -7.03676e-15 0.572051 -3.32723e-16 -1.08268e-15)
(-1.85152e-15 1.83797e-29 8.5431e-31 59.9096 2.19658e-14 -3.13904e-14 0.577093 -2.0589e-16 -2.91272e-16)
(0 -1.00411e-29 0 59.9096 -1.25372e-14 -6.49603e-15 0.577093 -3.65069e-16 -1.1131e-15)
(1.17159e-15 -1.80971e-29 -2.08709e-30 59.2368 2.16635e-14 -2.84499e-14 0.580339 -2.15516e-16 -2.64349e-16)
(-1.91185e-15 9.85707e-30 1.23213e-30 59.2368 -1.31785e-14 -5.80806e-15 0.580339 -4.00534e-16 -1.14092e-15)
(6.80919e-16 -9.67644e-30 -1.20955e-30 58.3719 2.11751e-14 -2.48676e-14 0.581464 -2.07685e-16 -2.30283e-16)
(0 9.67644e-30 6.04777e-31 58.3719 -1.2906e-14 -4.9826e-15 0.581464 -4.38861e-16 -1.1655e-15)
(1.78563e-15 -2.56017e-29 -2.90203e-30 57.2972 2.20291e-14 -2.07522e-14 0.580215 -2.13825e-16 -1.90093e-16)
(1.56594e-15 1.89982e-29 2.37478e-30 57.2972 -1.29457e-14 -4.04434e-15 0.580215 -4.76242e-16 -1.18586e-15)
(-5.99379e-16 7.95591e-30 2.75447e-31 56.0053 2.3213e-14 -1.6275e-14 0.576444 -2.32988e-16 -1.45628e-16)
(-6.56192e-16 0 0 56.0053 -1.38914e-14 -3.02763e-15 0.576444 -5.16449e-16 -1.20159e-15)
(6.40253e-16 -7.86252e-30 -8.58447e-31 54.5011 2.3515e-14 -1.16599e-14 0.570138 -2.46563e-16 -9.9253e-17)
(2.56101e-15 4.57709e-30 1.14427e-30 54.5011 -1.38191e-14 -1.967e-15 0.570138 -5.59751e-16 -1.21212e-15)
(-6.81024e-16 7.77248e-30 2.9581e-31 52.8024 2.31251e-14 -7.14739e-15 0.561419 -2.4818e-16 -5.35035e-17)
(5.44819e-15 -4.49321e-30 0 52.8024 -1.30058e-14 -9.46255e-16 0.561419 -5.99235e-16 -1.21725e-15)
(0 8.82175e-30 -5.02062e-29 50.9377 2.26402e-14 -1.96101e-15 0.550531 -2.4742e-16 -1.0703e-17)
(2.88597e-15 -4.41088e-30 0 50.9377 -1.31321e-14 4.7208e-18 0.550531 -6.35749e-16 -1.21732e-15)
(1.2188e-15 -8.6601e-30 0 48.9433 2.25453e-14 0 0.537807 -2.46846e-16 0)
(3.04583e-15 8.6601e-30 5.41256e-31 48.9433 -1.32262e-14 8.38655e-16 0.537807 -6.76071e-16 -1.21244e-15)
(0 8.5014e-30 1.06268e-30 46.8596 2.29963e-14 3.82811e-15 0.523632 -2.54613e-16 -2.73668e-17)
(3.20297e-15 -4.2507e-30 -5.31338e-31 46.8596 -1.3366e-14 1.53506e-15 0.523632 -7.1841e-16 -1.20347e-15)
(-8.39191e-16 -9.1873e-31 -2.25708e-31 44.7272 2.24785e-14 6.27694e-15 0.508404 -2.66459e-16 -5.96548e-17)
(0 8.34562e-30 1.0432e-30 44.7272 -1.35611e-14 2.0796e-15 0.508404 -7.62532e-16 -1.19081e-15)
(0 -2.04817e-29 -1.53613e-30 42.5837 2.13798e-14 8.0843e-15 0.492503 -2.52149e-16 -8.54374e-17)
(3.5067e-15 2.04817e-29 1.53613e-30 42.5837 -1.32634e-14 2.46711e-15 0.492503 -8.0379e-16 -1.17539e-15)
(2.18787e-16 -4.79725e-30 -2.17537e-31 40.4615 2.09535e-14 9.31023e-15 0.476268 -2.50431e-16 -1.04787e-16)
(0 8.04256e-30 5.0266e-31 40.4615 -1.35482e-14 2.78526e-15 0.476268 -8.43134e-16 -1.15809e-15)
(-9.48409e-16 -7.08519e-31 2.80359e-31 38.3872 2.08981e-14 1.00325e-14 0.459988 -2.51346e-16 -1.18288e-16)
(0 7.89518e-30 4.93449e-31 38.3872 -1.30121e-14 2.99216e-15 0.459988 -8.87855e-16 -1.13896e-15)
(0 7.75051e-30 4.84407e-31 36.3808 2.11106e-14 1.03347e-14 0.443892 -2.58502e-16 -1.26518e-16)
(0 -3.87525e-30 0 36.3808 -1.23382e-14 3.04526e-15 0.443892 -9.27282e-16 -1.11888e-15)
(-4.22794e-15 3.74632e-29 3.12551e-30 34.4566 2.06945e-14 1.03042e-14 0.428159 -2.66147e-16 -1.30326e-16)
(-2.99138e-15 -3.04339e-29 -1.90212e-30 34.4566 -1.24143e-14 3.01476e-15 0.428159 -9.69281e-16 -1.09844e-15)
(1.04737e-15 -3.22042e-30 -2.69073e-31 32.6238 1.98339e-14 1.00142e-14 0.412918 -2.57613e-16 -1.30504e-16)
(3.1383e-15 0 0 32.6238 -1.19687e-14 2.95412e-15 0.412918 -1.01305e-15 -1.07808e-15)
(0 7.33219e-30 9.16524e-31 30.8873 1.92115e-14 9.53339e-15 0.398256 -2.53779e-16 -1.2769e-16)
(-1.03191e-15 -3.66609e-30 -9.16524e-31 30.8873 -1.17307e-14 2.87071e-15 0.398256 -1.05491e-15 -1.05796e-15)
(-1.10764e-15 1.04083e-29 1.16372e-30 29.2489 1.85512e-14 8.9246e-15 0.384229 -2.50817e-16 -1.22675e-16)
(0 -7.19783e-30 -8.99729e-31 29.2489 -1.18694e-14 2.73896e-15 0.384229 -1.09811e-15 -1.03836e-15)
(-1.13615e-15 -3.86023e-30 -6.21155e-31 27.7077 1.80752e-14 8.23334e-15 0.370865 -2.45511e-16 -1.1606e-16)
(0 1.05989e-29 1.32486e-30 27.7077 -1.14729e-14 2.61936e-15 0.370865 -1.14385e-15 -1.01972e-15)
(0 -2.08093e-29 -1.73411e-30 26.2614 1.79057e-14 7.49365e-15 0.358174 -2.47172e-16 -1.0828e-16)
(4.6546e-15 2.08093e-29 1.73411e-30 26.2614 -1.11809e-14 2.50172e-15 0.358174 -1.18387e-15 -1.00156e-15)
(0 1.0214e-29 8.51168e-31 24.9061 1.81043e-14 6.73766e-15 0.346151 -2.50012e-16 -9.97042e-17)
(0 -6.80934e-30 -4.25584e-31 24.9061 -1.1768e-14 2.35858e-15 0.346151 -1.22961e-15 -9.84187e-16)
(1.21577e-15 3.50021e-30 -2.58611e-31 23.6375 1.84417e-14 5.98786e-15 0.334779 -2.62157e-16 -9.07789e-17)
(4.86307e-15 -6.68456e-30 0 23.6375 -1.15392e-14 2.20842e-15 0.334779 -1.28425e-15 -9.67382e-16)
(-1.24049e-15 -9.94852e-30 -9.72329e-31 22.4506 1.84026e-14 5.25094e-15 0.324035 -2.69244e-16 -8.16565e-17)
(4.96196e-15 1.64052e-29 1.23039e-30 22.4506 -1.13205e-14 2.07087e-15 0.324035 -1.33295e-15 -9.51559e-16)
(-1.26438e-15 -1.29364e-29 -1.35265e-30 21.3405 1.87305e-14 4.53542e-15 0.313894 -2.70877e-16 -7.23698e-17)
(-1.81321e-15 1.93255e-29 1.61046e-30 21.3405 -1.1941e-14 2.00233e-15 0.313894 -1.38668e-15 -9.36789e-16)
(0 2.21332e-29 1.18571e-30 20.302 1.84489e-14 3.85182e-15 0.304324 -2.89285e-16 -6.31416e-17)
(5.14996e-15 -2.21332e-29 -1.18571e-30 20.302 -1.19246e-14 1.92053e-15 0.304324 -1.44203e-15 -9.22009e-16)
(-2.61972e-15 1.87212e-29 1.29224e-30 19.3303 1.69245e-14 3.20036e-15 0.295294 -2.72427e-16 -5.40832e-17)
(5.23944e-15 -9.31184e-30 0 19.3303 -1.10887e-14 1.81466e-15 0.295294 -1.49298e-15 -9.08074e-16)
(1.71535e-15 -3.04707e-30 -1.14265e-30 18.4206 1.51885e-14 2.58151e-15 0.286774 -2.52453e-16 -4.51214e-17)
(-1.71535e-15 3.04707e-30 7.61767e-31 18.4206 -1.02291e-14 1.74133e-15 0.286774 -1.55069e-15 -8.94947e-16)
(1.68391e-15 -8.9737e-30 -1.12171e-30 17.5685 1.44009e-14 1.99167e-15 0.278732 -2.27318e-16 -3.6381e-17)
(-1.68391e-15 8.9737e-30 1.12171e-30 17.5685 -1.05952e-14 1.65056e-15 0.278732 -1.60658e-15 -8.82084e-16)
(-1.37294e-15 6.07462e-30 9.94535e-31 16.7697 1.57166e-14 1.43578e-15 0.271139 -2.36374e-16 -2.76561e-17)
(-5.49177e-15 0 -3.67052e-31 16.7697 -1.02016e-14 1.55613e-15 0.271139 -1.66073e-15 -8.7001e-16)
(1.39275e-15 5.52254e-30 8.19317e-31 16.0202 1.66176e-14 9.17389e-16 0.263966 -2.79433e-16 -1.93517e-17)
(3.94824e-15 -2.88261e-30 -1.08098e-30 16.0202 -9.30355e-15 1.44319e-15 0.263966 -1.69934e-15 -8.58083e-16)
(1.41201e-15 1.10305e-29 1.15179e-30 15.3165 1.47101e-14 4.29099e-16 0.257185 -2.75659e-16 -1.12194e-17)
(-5.64804e-15 -1.41489e-29 -1.41489e-30 15.3165 -9.90554e-15 1.34737e-15 0.257185 -1.74206e-15 -8.47254e-16)
(-1.43074e-15 3.42376e-31 -8.26649e-32 14.6551 1.21574e-14 -3.77223e-17 0.250772 -2.24447e-16 -4.69114e-18)
(5.72298e-15 2.77793e-30 3.47242e-31 14.6551 -8.6018e-15 1.29624e-15 0.250772 -1.80403e-15 -8.37128e-16)
(0 -1.63622e-29 -1.70439e-30 14.0329 1.17065e-14 -4.83012e-16 0.244701 -1.9673e-16 -1.24365e-17)
(1.15919e-14 1.63622e-29 1.70439e-30 14.0329 -6.26789e-15 1.15713e-15 0.244701 -1.8443e-15 -8.27021e-16)
(2.97381e-15 -2.185e-29 -2.272e-30 13.4471 1.16612e-14 -9.04518e-16 0.238952 -2.16835e-16 -2.01714e-17)
(5.86706e-15 1.60623e-29 1.33853e-30 13.4471 -6.25404e-15 9.68707e-16 0.238952 -1.87584e-15 -8.18119e-16)
(-1.4841e-15 1.09919e-29 1.24989e-30 12.895 1.11851e-14 -1.30067e-15 0.233501 -2.02497e-16 -2.75565e-17)
(-5.93641e-15 -2.628e-30 -3.285e-31 12.895 -6.94299e-15 9.31724e-16 0.233501 -1.9163e-15 -8.11554e-16)
(1.45232e-15 -1.54791e-29 -9.67441e-31 12.3741 1.12498e-14 -1.67055e-15 0.228331 -2.07397e-16 -3.48668e-17)
(0 1.03194e-29 9.67441e-31 12.3741 -6.47907e-15 9.38708e-16 0.228331 -1.96216e-15 -8.04565e-16)
(-2.94326e-15 1.32258e-29 1.53185e-30 11.8822 1.12746e-14 -2.01861e-15 0.223423 -2.12567e-16 -4.19528e-17)
(-2.85142e-15 -5.06514e-30 -6.33142e-31 11.8822 -6.34353e-15 7.5059e-16 0.223423 -1.99472e-15 -7.97262e-16)
(1.39958e-15 -1.4917e-29 -6.2154e-31 11.4173 1.18419e-14 -2.35191e-15 0.218759 -2.16165e-16 -4.92109e-17)
(0 1.4917e-29 6.2154e-31 11.4173 -7.75667e-15 6.3207e-16 0.218759 -2.0383e-15 -7.92571e-16)
(-2.74787e-15 1.95248e-29 9.15225e-31 10.9774 1.29269e-14 -2.66795e-15 0.214326 -2.42752e-16 -5.61197e-17)
(-3.4501e-15 -1.95248e-29 -1.2203e-30 10.9774 -7.19968e-15 6.34241e-16 0.214326 -2.09402e-15 -7.87761e-16)
(2.1619e-16 6.51342e-30 9.28748e-31 10.5609 1.31484e-14 -2.95736e-15 0.210107 -2.67521e-16 -6.28061e-17)
(0 -4.79176e-30 -5.98969e-31 10.5609 -5.51913e-15 4.85463e-16 0.210107 -2.12463e-15 -7.83176e-16)
(-1.58009e-15 -1.64021e-30 -3.17082e-31 10.1662 1.18518e-14 -3.2283e-15 0.206089 -2.60887e-16 -6.94309e-17)
(0 9.4079e-30 1.17599e-30 10.1662 -5.99785e-15 3.8364e-16 0.206089 -2.16014e-15 -7.80576e-16)
(-1.89005e-15 -7.7256e-30 -1.18594e-30 9.79176 1.13621e-14 -3.49084e-15 0.202261 -2.2402e-16 -7.6225e-17)
(6.37967e-15 9.2355e-30 1.15444e-30 9.79176 -7.03658e-15 3.47361e-16 0.202261 -2.19292e-15 -7.77567e-16)
(-1.60946e-15 7.5876e-30 2.75164e-31 9.43626 1.25989e-14 -3.7316e-15 0.198611 -2.50102e-16 -8.23711e-17)
(0 -4.53313e-30 0 9.43626 -8.39705e-15 3.51958e-16 0.198611 -2.23273e-15 -7.75819e-16)
(-3.24745e-15 2.38846e-29 2.22418e-30 9.09846 1.43476e-14 -3.94281e-15 0.195127 -2.85499e-16 -8.83235e-17)
(-6.4949e-15 -1.78003e-29 -1.66877e-30 9.09846 -9.53435e-15 4.34199e-16 0.195127 -2.2939e-15 -7.74393e-16)
(1.63773e-15 1.00799e-29 8.11675e-31 8.77722 1.58816e-14 -4.13494e-15 0.1918 -3.35913e-16 -9.40244e-17)
(-6.5509e-15 -1.74741e-29 -1.63819e-30 8.77722 -9.74655e-15 3.9541e-16 0.1918 -2.366e-15 -7.72493e-16)
(-2.41419e-15 1.28654e-29 1.07212e-30 8.47148 1.5466e-14 -4.30749e-15 0.188621 -3.64516e-16 -9.94732e-17)
(0 -4.28847e-30 0 8.47148 -9.45718e-15 2.2131e-16 0.188621 -2.43901e-15 -7.71011e-16)
(-3.32997e-15 -6.61808e-30 -4.79815e-31 8.18027 1.37362e-14 -4.46937e-15 0.185581 -3.29734e-16 -1.05042e-16)
(1.33199e-14 1.26296e-29 1.05247e-30 8.18027 -8.83735e-15 1.94323e-16 0.185581 -2.49202e-15 -7.71794e-16)
(-1.67827e-15 1.53994e-29 1.32266e-30 7.90269 1.25543e-14 -4.62469e-15 0.182672 -2.98377e-16 -1.10527e-16)
(6.71307e-15 -1.23982e-29 -1.03318e-30 7.90269 -8.6037e-15 3.36207e-16 0.182672 -2.54818e-15 -7.72341e-16)
(2.28389e-15 -8.11401e-30 -1.01425e-30 7.63791 1.29206e-14 -4.7789e-15 0.179887 -2.86565e-16 -1.1639e-16)
(0 8.11401e-30 1.01425e-30 7.63791 -8.32623e-15 4.25897e-16 0.179887 -2.60201e-15 -7.73326e-16)
(-3.94622e-15 -1.00242e-30 2.9622e-31 7.38516 1.45377e-14 -4.91635e-15 0.177219 -3.27172e-16 -1.21401e-16)
(6.81672e-15 7.96532e-30 4.97833e-31 7.38516 -7.46838e-15 4.27254e-16 0.177219 -2.66285e-15 -7.73334e-16)
(0 3.90968e-30 4.8871e-31 7.14372 1.46612e-14 -5.0355e-15 0.174661 -3.76292e-16 -1.267e-16)
(-2.20095e-15 0 0 7.14372 -6.83314e-15 3.38426e-16 0.174661 -2.72584e-15 -7.73862e-16)
(-1.72929e-15 1.06334e-29 1.26286e-30 6.91293 1.32899e-14 -5.16672e-15 0.172208 -3.45643e-16 -1.32622e-16)
(-2.16062e-15 -7.67607e-30 -4.79755e-31 6.91293 -7.71307e-15 3.39524e-16 0.172208 -2.78116e-15 -7.76661e-16)
(0 7.53541e-30 9.41926e-31 6.69218 1.22924e-14 -5.29971e-15 0.169853 -3.21018e-16 -1.38335e-16)
(0 -3.76771e-30 -4.70963e-31 6.69218 -7.45822e-15 4.92337e-16 0.169853 -2.86317e-15 -7.79743e-16)
(0 -1.84933e-29 -1.387e-30 6.48089 1.10378e-14 -5.4329e-15 0.167592 -3.07201e-16 -1.44619e-16)
(7.01467e-15 1.84933e-29 1.387e-30 6.48089 -5.33313e-15 4.28594e-16 0.167592 -2.93635e-15 -7.80369e-16)
(0 1.45235e-29 2.2693e-30 6.27855 9.59912e-15 -5.56267e-15 0.16542 -2.67179e-16 -1.50496e-16)
(0 -1.45235e-29 -3.80606e-30 6.27855 -5.00754e-15 -8.19676e-30 0.16542 -2.99028e-15 -7.81886e-16)
(-1.77737e-15 6.50449e-30 7.64628e-31 6.08464 9.31814e-15 -5.69149e-15 0.163332 -2.41751e-16 -1.57094e-16)
(7.10947e-15 0 0 6.08464 -4.38316e-15 -9.06031e-17 0.163332 -3.04166e-15 -7.87334e-16)
(0 -1.74952e-29 -1.74952e-30 5.89871 9.73365e-15 -5.81907e-15 0.161324 -2.61923e-16 -1.63254e-16)
(7.15592e-15 1.74952e-29 1.74952e-30 5.89871 -4.68287e-15 -5.49326e-17 0.161324 -3.07997e-15 -7.93908e-16)
(-1.80044e-15 2.00981e-29 2.47464e-30 5.72034 9.70153e-15 -5.93488e-15 0.159392 -2.73945e-16 -1.69568e-16)
(-7.20177e-15 -1.71746e-29 -2.14682e-30 5.72034 -7.25374e-15 1.50556e-16 0.159392 -3.13036e-15 -8.02484e-16)
(0 -6.74395e-30 -4.21497e-31 5.54911 9.54197e-15 -6.06506e-15 0.157532 -2.69975e-16 -1.7691e-16)
(-7.24704e-15 6.74395e-30 4.21497e-31 5.54911 -6.06369e-15 2.83015e-16 0.157532 -3.1977e-15 -8.0881e-16)
(-3.64588e-15 5.82621e-30 2.61194e-31 5.38466 9.23503e-15 -6.18488e-15 0.155741 -2.7507e-16 -1.82994e-16)
(7.29176e-15 0 4.13773e-31 5.38466 -4.01439e-15 2.77416e-16 0.155741 -3.22675e-15 -8.15706e-16)
(-3.66797e-15 5.81839e-30 1.09172e-30 5.22664 8.48026e-15 -6.28642e-15 0.154015 -2.62122e-16 -1.89651e-16)
(0 0 -4.06191e-31 5.22664 -3.63852e-15 4.54295e-17 0.154015 -3.2657e-15 -8.19454e-16)
(0 -6.37996e-30 -7.97495e-31 5.07471 8.19475e-15 -6.40859e-15 0.152352 -2.40284e-16 -1.97335e-16)
(7.37961e-15 6.37996e-30 0 5.07471 -3.1514e-15 -1.10675e-46 0.152352 -3.28669e-15 -8.25462e-16)
(-3.61859e-15 2.48205e-29 3.09375e-30 4.92857 8.98356e-15 -6.52257e-15 0.150747 -2.54601e-16 -2.03873e-16)
(-7.42279e-15 -1.56576e-29 -1.9572e-30 4.92857 -4.33742e-15 1.4441e-16 0.150747 -3.32966e-15 -8.37854e-16)
(3.59696e-15 -1.21079e-29 -1.12812e-30 4.78794 1.00289e-14 -6.6238e-15 0.1492 -2.98304e-16 -2.11171e-16)
(-1.73059e-15 9.22242e-30 7.68535e-31 4.78794 -5.09999e-15 4.63957e-16 0.1492 -3.40927e-15 -8.45423e-16)
(1.87693e-15 -1.1925e-29 -1.12014e-30 4.65254 1.01013e-14 -6.73077e-15 0.147706 -3.30294e-16 -2.18446e-16)
(-7.50773e-15 9.05342e-30 7.54452e-31 4.65254 -5.34408e-15 1.02878e-16 0.147706 -3.45052e-15 -8.49704e-16)
(-5.44251e-15 1.46189e-29 7.43892e-31 4.52211 9.88857e-15 -6.82468e-15 0.146264 -3.14209e-16 -2.25291e-16)
(0 -5.92501e-30 0 4.52211 -5.11194e-15 0 0.146264 -3.51635e-15 -8.57342e-16)
(-1.63718e-15 2.90822e-30 1.45411e-30 4.39643 1.01749e-14 -6.90493e-15 0.144871 -3.28784e-16 -2.32041e-16)
(1.63718e-15 -8.72466e-30 -2.18116e-30 4.39643 -4.95413e-15 7.55226e-17 0.144871 -3.55965e-15 -8.68639e-16)
(1.90796e-15 9.48989e-33 -3.84938e-31 4.27526 9.38269e-15 -6.98312e-15 0.143525 -3.45186e-16 -2.39104e-16)
(-1.84781e-14 -2.85493e-30 0 4.27526 -4.78318e-15 4.40045e-16 0.143525 -3.59879e-15 -8.82701e-16)
(1.9181e-15 -8.45181e-30 -1.79298e-30 4.1584 8.24545e-15 -7.07643e-15 0.142224 -2.87233e-16 -2.47257e-16)
(0 5.60522e-30 1.40131e-30 4.1584 -3.39083e-15 4.45161e-16 0.142224 -3.64884e-15 -8.90065e-16)
(0 -1.37563e-29 -2.75125e-30 4.04565 7.14581e-15 -7.17024e-15 0.140967 -2.79314e-16 -2.54742e-16)
(7.71258e-15 1.37563e-29 2.75125e-30 4.04565 -3.58279e-15 1.60006e-16 0.140967 -3.68896e-15 -8.99908e-16)
(4.97897e-15 -8.24149e-30 -1.75624e-30 3.93681 5.52604e-15 -7.25994e-15 0.13975 -2.20361e-16 -2.63031e-16)
(7.75239e-15 5.40168e-30 -1.26314e-31 3.93681 -5.00105e-15 4.09876e-46 0.13975 -3.74345e-15 -9.1019e-16)
(-3.89591e-15 -1.81824e-29 -2.48855e-30 3.83172 5.22951e-15 -7.36539e-15 0.138573 -1.73257e-16 -2.72073e-16)
(2.98515e-15 1.59081e-29 2.65135e-30 3.83172 -6.19937e-15 -3.53921e-18 0.138573 -3.84409e-15 -9.26286e-16)
(-3.91546e-15 -9.95556e-30 -2.41251e-30 3.7302 7.70554e-15 -7.45694e-15 0.137435 -2.06924e-16 -2.79779e-16)
(1.07614e-14 1.30138e-29 3.25345e-30 3.7302 -5.49416e-15 1.25648e-16 0.137435 -3.91824e-15 -9.39048e-16)
(1.96742e-15 -1.81297e-29 -1.53473e-29 3.6321 9.95929e-15 0 0.136332 -3.64712e-16 -3.9443e-31)
(1.57394e-14 1.53304e-29 2.55507e-30 3.6321 -5.29114e-15 3.61213e-16 0.136332 -3.94443e-15 -9.53837e-16)
(-1.97703e-15 2.78746e-30 4.30969e-31 3.53728 8.87129e-15 7.20436e-15 0.135264 -3.86187e-16 -2.10564e-16)
(0 5.01649e-30 6.27062e-31 3.53728 -6.55579e-15 6.17602e-16 0.135264 -4.01895e-15 -9.6495e-16)
(-3.97311e-15 5.59221e-30 7.99938e-31 3.44558 7.8764e-15 8.75464e-15 0.13423 -2.94134e-16 -3.43847e-16)
(7.94623e-15 0 0 3.44558 -5.13801e-15 8.14156e-16 0.13423 -4.09517e-15 -9.78162e-16)
(-1.99601e-15 2.78584e-30 3.8827e-31 3.35688 7.60167e-15 8.49359e-15 0.133228 -3.22195e-16 -3.40889e-16)
(7.98404e-15 4.83433e-30 6.04291e-31 3.35688 -4.02938e-15 7.53905e-16 0.133228 -4.13206e-15 -9.84505e-16)
(0 9.49148e-30 2.37287e-30 3.27104 7.34899e-15 8.41529e-15 0.132256 -2.83124e-16 -3.3581e-16)
(-2.67161e-15 -4.74574e-30 -5.93217e-31 3.27104 -4.63446e-15 6.15013e-16 0.132256 -4.20453e-15 -9.96955e-16)
(2.0147e-15 -1.20945e-29 -1.52778e-30 3.18796 8.10854e-15 8.43153e-15 0.131315 -3.13635e-16 -3.4732e-16)
(8.05879e-15 9.31755e-30 1.16469e-30 3.18796 -4.86667e-15 9.36749e-16 0.131315 -4.28235e-15 -1.00901e-15)
(2.02394e-15 -1.64853e-29 -2.63738e-30 3.10752 8.25972e-15 8.2036e-15 0.130402 -3.57179e-16 -3.4982e-16)
(8.09575e-15 1.37202e-29 2.2867e-30 3.10752 -4.73155e-15 1.16785e-15 0.130402 -4.32269e-15 -1.01335e-15)
(-2.03311e-15 2.75948e-30 3.40048e-31 3.02961 7.82217e-15 7.89134e-15 0.129516 -3.38305e-16 -3.41031e-16)
(8.13243e-15 4.4896e-30 0 3.02961 -4.97318e-15 1.20386e-15 0.129516 -4.35226e-15 -1.02029e-15)
(2.04221e-15 -1.1569e-29 -1.98187e-30 2.95412 7.39495e-15 7.73965e-15 0.128657 -3.32748e-16 -3.35962e-16)
(0 8.81465e-30 1.65275e-30 2.95412 -4.81757e-15 1.48497e-15 0.128657 -4.43489e-15 -1.02929e-15)
(-2.05126e-15 1.14049e-29 1.9395e-30 2.88096 8.40632e-15 7.69532e-15 0.127823 -3.13367e-16 -3.405e-16)
(5.76939e-15 -4.32656e-30 -1.08164e-30 2.88096 -4.35498e-15 1.66572e-15 0.127823 -4.49076e-15 -1.03117e-15)
(-3.30768e-16 -1.12163e-29 -1.36668e-30 2.81005 9.73685e-15 7.33922e-15 0.127013 -4.36168e-16 -3.44638e-16)
(2.39101e-15 8.49456e-30 1.06182e-30 2.81005 -6.00115e-15 1.87065e-15 0.127013 -4.54541e-15 -1.03788e-15)
(-2.06916e-15 6.87536e-30 1.33989e-30 2.74128 8.76562e-15 6.93221e-15 0.126227 -4.46967e-16 -3.20735e-16)
(8.27664e-15 0 -5.21181e-31 2.74128 -5.71685e-15 2.2703e-15 0.126227 -4.68103e-15 -1.03679e-15)
(2.07803e-15 1.38405e-30 7.36315e-31 2.67459 7.81551e-15 6.77381e-15 0.125464 -3.62041e-16 -3.19673e-16)
(6.00792e-15 0 -5.11631e-31 2.67459 -3.11811e-15 2.15289e-15 0.125464 -4.74947e-15 -1.0248e-15)
(0 4.01804e-30 1.00451e-30 2.60988 7.40755e-15 6.52696e-15 0.124723 -3.73563e-16 -3.17775e-16)
(6.08538e-15 0 -5.02255e-31 2.60988 -3.51179e-15 1.95804e-15 0.124723 -4.7894e-15 -1.02461e-15)
(0 3.94441e-30 9.86104e-31 2.54709 6.45539e-15 6.46241e-15 0.124003 -3.3621e-16 -3.07833e-16)
(-1.06029e-14 -3.94441e-30 -4.93052e-31 2.54709 -4.00833e-15 2.17711e-15 0.124003 -4.89778e-15 -1.02539e-15)
(2.17982e-15 1.54885e-29 1.93607e-30 2.48614 6.33724e-15 6.52755e-15 0.123303 -2.93789e-16 -3.23388e-16)
(6.23734e-15 -1.54885e-29 -1.93607e-30 2.48614 -3.96766e-15 2.43538e-15 0.123303 -4.95822e-15 -1.01586e-15)
(2.69325e-17 -8.72721e-30 -2.13217e-30 2.42696 6.82498e-15 6.38033e-15 0.122623 -3.37016e-16 -3.25973e-16)
(0 1.52047e-29 2.37574e-30 2.42696 -5.40201e-15 2.47792e-15 0.122623 -5.02344e-15 -9.99844e-16)
(-2.12154e-15 -1.06685e-30 2.33568e-31 2.36949 7.13487e-15 6.05281e-15 0.121961 -3.54746e-16 -3.20517e-16)
(8.48616e-15 7.46305e-30 -1.3733e-31 2.36949 -4.86921e-15 -5.32481e-30 0.121961 -5.15194e-15 -9.89564e-16)
(2.06217e-15 -7.32629e-30 -9.15786e-31 2.31366 7.6106e-15 5.70104e-15 0.121318 -3.82002e-16 -3.04131e-16)
(0 7.32629e-30 9.15786e-31 2.31366 -6.24212e-15 -1.20163e-16 0.121318 -5.23215e-15 -1.01504e-15)
(0 3.59602e-30 4.49502e-31 2.25942 7.66916e-15 3.9071e-15 0.120693 -4.18605e-16 -2.9526e-16)
(0 0 0 2.25942 -5.77978e-15 -1.64052e-16 0.120693 -5.36213e-15 -1.0394e-15)
(4.13434e-15 -1.32149e-29 -2.00327e-30 2.20671 8.44682e-15 2.28777e-15 0.120085 -4.02727e-16 -1.21641e-16)
(8.58823e-15 1.05904e-29 1.76506e-30 2.20671 -3.156e-15 -1.15404e-16 0.120085 -5.43418e-15 -1.03939e-15)
(2.04606e-16 1.1265e-29 1.06665e-30 2.15547 9.45823e-15 2.30803e-15 0.119493 -5.20024e-16 -1.28045e-16)
(8.62189e-15 -3.46543e-30 5.8086e-31 2.15547 -4.03241e-15 -6.96669e-18 0.119493 -5.55581e-15 -1.02323e-15)
(0 0 0 2.10566 8.37689e-15 2.39806e-15 0.118917 -5.31372e-16 -1.28498e-16)
(8.65537e-15 3.40193e-30 4.25241e-31 2.10566 -4.46097e-15 -8.49291e-17 0.118917 -5.65723e-15 -1.00843e-15)
(-4.34434e-15 5.17705e-30 4.44808e-31 2.05722 7.60814e-15 2.52664e-15 0.118356 -4.16041e-16 -1.43159e-16)
(8.68869e-15 0 0 2.05722 -3.27491e-15 -6.30989e-17 0.118356 -5.73672e-15 -9.92865e-16)
(2.18046e-15 -1.24033e-29 -2.26601e-30 2.0101 6.83436e-15 2.60779e-15 0.11781 -4.619e-16 -1.48309e-16)
(8.72184e-15 9.83518e-30 2.049e-30 2.0101 -1.80786e-15 1.6233e-16 0.11781 -5.81329e-15 -9.78245e-16)
(0 1.28733e-29 2.01145e-30 1.96427 4.09698e-15 3.08941e-15 0.117279 -3.39957e-16 -1.58177e-16)
(-8.75484e-15 -1.28733e-29 -2.01145e-30 1.96427 -1.09847e-15 2.56218e-16 0.117279 -5.87216e-15 -9.60232e-16)
(0 3.15934e-30 3.94918e-31 1.91967 1.86868e-15 3.7781e-15 0.116761 -1.48623e-16 -2.12079e-16)
(-1.77855e-15 -3.15934e-30 -3.94918e-31 1.91967 4.56908e-16 5.90115e-17 0.116761 -5.91816e-15 -9.53338e-16)
(-9.18259e-16 1.93042e-29 1.91772e-30 1.87626 2.53014e-15 4.26006e-15 0.116257 -7.85579e-17 -2.48886e-16)
(-3.49192e-15 -1.55073e-29 -1.3216e-31 1.87626 9.62053e-16 -8.51723e-30 0.116257 -5.91218e-15 -9.52313e-16)
(-2.21323e-15 5.61965e-30 9.31391e-31 1.83401 6.41981e-15 4.32757e-15 0.115766 -2.77108e-16 -2.80487e-16)
(-3.42793e-15 0 -3.80577e-31 1.83401 -9.63816e-16 -2.02901e-16 0.115766 -5.88052e-15 -9.57549e-16)
(-3.36512e-15 1.49441e-29 1.86802e-30 1.79288 8.23422e-15 4.00251e-15 0.115288 -5.37493e-16 -2.66884e-16)
(-8.8853e-15 -1.19553e-29 -1.49441e-30 1.79288 -3.23207e-15 -2.76958e-16 0.115288 -5.93931e-15 -9.57628e-16)
(4.45878e-15 -2.10534e-30 4.35599e-32 1.75283 7.50164e-15 3.70372e-15 0.114821 -5.23566e-16 -2.48773e-16)
(0 -2.93406e-30 -3.66757e-31 1.75283 -2.73779e-15 -3.41701e-16 0.114821 -6.06338e-15 -9.58411e-16)
(4.47484e-15 6.50174e-30 7.65296e-31 1.71382 5.91244e-15 3.40894e-15 0.114366 -4.60676e-16 -2.3735e-16)
(8.94968e-15 -1.15212e-29 -1.44015e-30 1.71382 -7.41035e-16 -4.07884e-16 0.114366 -6.1229e-15 -9.58179e-16)
(-2.24542e-15 2.51508e-30 1.54918e-31 1.67582 5.12531e-15 2.95353e-15 0.113923 -3.28785e-16 -2.18357e-16)
(8.98167e-15 0 3.53439e-31 1.67582 -2.39121e-15 -4.21135e-16 0.113923 -6.16218e-15 -9.59907e-16)
(4.50676e-15 5.54359e-31 3.76365e-32 1.6388 5.76583e-15 2.51916e-15 0.11349 -3.69806e-16 -1.83676e-16)
(-3.12516e-15 -5.55139e-30 -3.46962e-31 1.6388 -4.07974e-15 -3.91624e-16 0.11349 -6.25398e-15 -9.59996e-16)
(2.26132e-15 -5.20406e-30 -4.93587e-31 1.60272 5.64494e-15 2.13723e-15 0.113069 -4.30888e-16 -1.65744e-16)
(9.04526e-15 2.72483e-30 3.40604e-31 1.60272 -4.87483e-15 -3.26636e-16 0.113069 -6.33952e-15 -9.55372e-16)
(-2.26922e-15 1.05031e-29 8.22543e-31 1.56757 6.42169e-15 1.75209e-15 0.112657 -3.66492e-16 -1.36103e-16)
(-3.01167e-15 -2.6749e-30 -3.34363e-31 1.56757 -3.01287e-15 -1.54927e-16 0.112657 -6.49075e-15 -9.41808e-16)
(0 0 -3.28236e-31 1.5333 8.86172e-15 1.44942e-15 0.112255 -5.60021e-16 -1.16012e-16)
(1.82167e-14 2.62588e-30 9.78677e-31 1.5333 -8.91523e-16 -1.63319e-16 0.112255 -6.48235e-15 -9.2303e-16)
(-5.18724e-15 -2.7747e-30 -8.14218e-31 1.49989 9.62205e-15 1.04348e-15 0.111863 -7.41566e-16 -9.64204e-17)
(2.90231e-15 5.15553e-30 1.28888e-30 1.49989 -2.75005e-15 -2.15729e-16 0.111863 -6.54947e-15 -9.0769e-16)
(-2.84912e-15 -7.59159e-30 -6.32632e-31 1.46731 8.48481e-15 6.94481e-16 0.111481 -6.95798e-16 -5.91591e-17)
(2.11911e-14 7.59159e-30 6.32632e-31 1.46731 -1.63922e-15 9.10942e-17 0.111481 -6.69385e-15 -8.88153e-16)
(-2.30054e-15 9.81042e-30 1.0847e-30 1.43554 6.64939e-15 5.76353e-16 0.111107 -5.94789e-16 -4.64341e-17)
(0 -7.45248e-30 -9.31559e-31 1.43554 -2.8397e-15 3.03352e-16 0.111107 -6.69277e-15 -8.59585e-16)
(0 -4.87727e-30 -6.09659e-31 1.40456 5.89326e-15 5.93796e-16 0.110742 -4.34765e-16 -4.29007e-17)
(9.23319e-15 4.87727e-30 -8.75812e-47 1.40456 -3.96885e-15 -3.38429e-46 0.110742 -6.82208e-15 -8.30928e-16)
(2.31603e-15 -9.52954e-30 -1.04502e-30 1.37433 6.50011e-15 5.52308e-16 0.110385 -4.96656e-16 -5.09648e-17)
(1.85283e-14 7.18185e-30 8.97731e-31 1.37433 -2.17541e-15 -5.39233e-16 0.110385 -6.88685e-15 -8.11698e-16)
(-2.32374e-15 2.31689e-30 1.48137e-31 1.34484 6.94598e-15 5.48563e-16 0.110036 -5.49701e-16 -3.77796e-17)
(9.29496e-15 0 0 1.34484 -2.05031e-16 3.22741e-17 0.110036 -6.98228e-15 -7.83801e-16)
(-2.66048e-16 4.63402e-30 4.33806e-31 1.31607 7.85803e-15 8.56853e-16 0.109695 -5.89132e-16 -5.22657e-17)
(9.32569e-15 0 -2.88377e-31 1.31607 -4.52629e-16 6.79818e-16 0.109695 -6.9786e-15 -7.38965e-16)
(-2.12829e-15 9.02761e-30 1.11543e-30 1.28799 8.45639e-15 1.15777e-15 0.109362 -7.24115e-16 -9.11564e-17)
(6.80645e-15 0 -9.69089e-32 1.28799 -1.41083e-15 -4.55829e-30 0.109362 -7.03264e-15 -6.98302e-16)
(0 -6.66972e-30 -8.33715e-31 1.26058 7.97946e-15 1.24584e-15 0.109036 -7.1405e-16 -1.05892e-16)
(1.87737e-14 8.89296e-30 8.33715e-31 1.26058 4.24433e-16 -6.75317e-16 0.109036 -7.05711e-15 -6.87374e-16)
(2.45728e-15 2.1825e-30 5.45625e-31 1.23383 6.56949e-15 1.3805e-15 0.108717 -6.68001e-16 -1.09993e-16)
(6.96002e-15 0 -2.72813e-31 1.23383 -6.45708e-16 -2.28809e-16 0.108717 -7.04834e-15 -6.65064e-16)
(-2.36191e-15 2.24479e-30 3.85454e-31 1.20771 4.6425e-15 1.55304e-15 0.108405 -4.8979e-16 -1.3387e-16)
(-2.41225e-15 0 -8.74075e-32 1.20771 -2.17584e-15 -3.88947e-30 0.108405 -7.06594e-15 -6.29837e-16)
(2.36948e-15 1.94741e-30 4.12491e-31 1.1822 4.13997e-15 1.5034e-15 0.108099 -3.43499e-16 -1.45448e-16)
(0 -4.20649e-30 -7.88717e-31 1.1822 -1.86022e-15 -1.8662e-16 0.108099 -7.13254e-15 -6.00135e-16)
(0 4.12941e-30 2.58088e-31 1.15729 4.80455e-15 9.64988e-16 0.1078 -4.15354e-16 -1.29737e-16)
(0 0 0 1.15729 -1.73886e-15 1.45518e-16 0.1078 -7.18692e-15 -5.68498e-16)
(-2.38454e-15 1.03167e-29 1.13847e-30 1.13297 3.95693e-15 2.62955e-16 0.107506 -4.81582e-16 -4.95476e-17)
(-2.28205e-15 -8.10748e-30 -1.01343e-30 1.13297 -9.88177e-16 1.03921e-15 0.107506 -7.26485e-15 -5.08439e-16)
(-1.51804e-16 2.23816e-30 3.06534e-46 1.1092 2.07545e-15 5.43065e-31 0.107219 -2.68422e-16 -1.97215e-31)
(-1.18084e-14 0 -7.71499e-30 1.1092 3.67241e-16 -1.08468e-30 0.107219 -7.34478e-15 -4.21921e-16)
(-2.39952e-15 -1.65179e-30 -3.59593e-31 1.08599 1.57585e-15 4.60028e-16 0.106937 -1.32098e-16 -6.60634e-17)
(1.91961e-14 3.90653e-30 4.63988e-30 1.08599 9.67393e-16 -3.10094e-16 0.106937 -7.35948e-15 -3.91441e-16)
(0 -7.6699e-30 -9.58737e-31 1.06331 1.66325e-15 2.81613e-16 0.10666 -1.79096e-16 -2.42681e-17)
(9.62791e-15 7.6699e-30 9.58737e-31 1.06331 1.35111e-15 -6.53561e-16 0.10666 -7.34455e-15 -3.88255e-16)
(-2.41442e-15 5.99396e-30 3.74023e-31 1.04114 1.26825e-15 3.09356e-16 0.106389 -1.54796e-16 -3.23779e-17)
(9.65766e-15 0 0 1.04114 3.22477e-17 5.60745e-16 0.106389 -7.37441e-15 -3.56113e-16)