/*--------------------------------*- C++ -*----------------------------------*\
| =========                 |                                                 |
| \\      /  F ield         | OpenFOAM: The Open Source CFD Toolbox           |
|  \\    /   O peration     | Version:  2106                                  |
|   \\  /    A nd           | Website:  www.openfoam.com                      |
|    \\/     M anipulation  |                                                 |
\*---------------------------------------------------------------------------*/
FoamFile
{
    version     2.0;
    format      ascii;
    arch        "LSB;label=32;scalar=64";
    class       volVectorField;
    location    "10070";
    object      grad(T);
}
// * * * * * * * * * * * * * * * * * * * * * * * * * * * * * * * * * * * * * //

dimensions      [0 -1 0 1 0 0 0];

internalField   nonuniform List<vector> 
2000
(
(2.28849e-16 874.933 1.61918)
(-2.28849e-16 874.933 1.61918)
(0 874.931 4.88777)
(-8.98622e-16 874.931 4.88777)
(-1.98997e-16 874.926 6.78343)
(0 874.926 6.78343)
(-6.52135e-16 874.916 6.90995)
(2.60854e-15 874.916 6.90995)
(0 874.892 7.03867)
(-1.70024e-15 874.892 7.03867)
(0 874.839 7.16945)
(-6.33601e-15 874.839 7.16945)
(0 874.723 7.30197)
(8.25236e-15 874.723 7.30197)
(0 874.492 7.43568)
(2.04097e-14 874.492 7.43568)
(-3.04857e-15 874.063 7.56968)
(0 874.063 7.56968)
(0 873.312 7.70262)
(0 873.312 7.70262)
(6.08665e-15 872.07 7.8326)
(6.08665e-15 872.07 7.8326)
(4.59803e-15 870.115 7.95705)
(6.44191e-15 870.115 7.95705)
(0 867.168 8.07277)
(0 867.168 8.07277)
(-1.14381e-14 862.906 8.17589)
(0 862.906 8.17589)
(5.06992e-15 856.972 8.26209)
(-1.13052e-14 856.972 8.26209)
(1.78977e-14 849.007 8.32689)
(-2.71985e-14 849.007 8.32689)
(1.08947e-14 838.686 8.36608)
(0 838.686 8.36608)
(1.59022e-14 825.758 8.37612)
(4.24994e-14 825.758 8.37612)
(-8.53528e-15 810.089 8.35468)
(0 810.089 8.35468)
(9.12247e-15 791.681 8.30085)
(3.64899e-14 791.681 8.30085)
(-9.71032e-15 770.688 8.21538)
(7.76825e-14 770.688 8.21538)
(0 747.399 8.10047)
(3.12529e-14 747.399 8.10047)
(0 722.21 7.95954)
(4.35118e-14 722.21 7.95954)
(0 695.582 7.79684)
(2.66679e-14 695.582 7.79684)
(-3.08115e-14 667.999 7.61699)
(1.87927e-14 667.999 7.61699)
(0 639.928 7.42461)
(5.02962e-14 639.928 7.42461)
(-1.31171e-14 611.794 7.22401)
(1.81102e-14 611.794 7.22401)
(-1.36468e-14 583.958 7.01901)
(0 583.958 7.01901)
(0 556.712 6.81286)
(0 556.712 6.81286)
(-3.17964e-14 530.28 6.60819)
(-7.57871e-14 530.28 6.60819)
(1.515e-14 504.824 6.40706)
(6.06001e-14 504.824 6.40706)
(0 480.451 6.21101)
(0 480.451 6.21101)
(1.28927e-16 457.222 6.02115)
(-1.62081e-14 457.222 6.02115)
(-3.24334e-14 435.164 5.83822)
(1.59111e-14 435.164 5.83822)
(0 414.276 5.66267)
(6.78072e-14 414.276 5.66267)
(0 394.537 5.49473)
(-1.53333e-14 394.537 5.49473)
(1.77716e-14 375.913 5.33445)
(5.60339e-14 375.913 5.33445)
(-4.77158e-14 358.359 5.18176)
(1.02205e-13 358.359 5.18176)
(-1.85426e-14 341.823 5.03649)
(0 341.823 5.03649)
(0 326.253 4.8984)
(7.5645e-14 326.253 4.8984)
(-3.85387e-14 311.593 4.76722)
(7.70774e-14 311.593 4.76722)
(0 297.789 4.64265)
(2.74456e-14 297.789 4.64265)
(0 284.787 4.52437)
(0 284.787 4.52437)
(-2.02855e-14 272.535 4.41207)
(-1.07591e-13 272.535 4.41207)
(2.06065e-14 260.985 4.30542)
(8.24259e-14 260.985 4.30542)
(4.64077e-14 250.09 4.20411)
(-1.09166e-13 250.09 4.20411)
(3.79704e-15 239.806 4.10784)
(8.48974e-14 239.806 4.10784)
(-2.45629e-14 230.093 4.01633)
(1.72177e-13 230.093 4.01633)
(2.18129e-14 220.912 3.92929)
(8.72514e-14 220.912 3.92929)
(-2.2097e-14 212.227 3.84647)
(-1.3573e-13 212.227 3.84647)
(4.64743e-14 204.005 3.76761)
(0 204.005 3.76761)
(-4.5458e-14 196.217 3.6925)
(0 196.217 3.6925)
(0 188.832 3.6209)
(0 188.832 3.6209)
(0 181.826 3.55261)
(-9.26943e-14 181.826 3.55261)
(4.50093e-14 175.173 3.48745)
(-4.31603e-14 175.173 3.48745)
(-2.36798e-14 168.851 3.42522)
(0 168.851 3.42522)
(-2.70549e-14 162.839 3.36577)
(9.57028e-14 162.839 3.36577)
(-2.41671e-14 157.118 3.30894)
(0 157.118 3.30894)
(-8.72594e-15 151.668 3.25457)
(-1.377e-13 151.668 3.25457)
(2.46373e-14 146.475 3.20254)
(-9.85493e-14 146.475 3.20254)
(0 141.523 3.15271)
(0 141.523 3.15271)
(-5.01837e-14 136.796 3.10497)
(2.00735e-13 136.796 3.10497)
(-2.53137e-14 132.282 3.05919)
(1.01255e-13 132.282 3.05919)
(0 127.968 3.01529)
(0 127.968 3.01529)
(-2.57471e-14 123.844 2.97315)
(1.02988e-13 123.844 2.97315)
(0 119.897 2.93268)
(0 119.897 2.93268)
(-2.61679e-14 116.119 2.89381)
(0 116.119 2.89381)
(3.39365e-14 112.499 2.85645)
(-3.39365e-14 112.499 2.85645)
(0 109.03 2.82052)
(1.06308e-13 109.03 2.82052)
(0 105.703 2.78595)
(0 105.703 2.78595)
(-2.69755e-14 102.51 2.75268)
(1.07902e-13 102.51 2.75268)
(0 99.4451 2.72065)
(1.08684e-13 99.4451 2.72065)
(-2.7364e-14 96.5008 2.68979)
(-1.09456e-13 96.5008 2.68979)
(0 93.6712 2.66004)
(-1.10219e-13 93.6712 2.66004)
(-5.54867e-14 90.9505 2.63137)
(1.10973e-13 90.9505 2.63137)
(-5.58596e-14 88.3332 2.60371)
(0 88.3332 2.60371)
(-2.87328e-14 85.8143 2.57703)
(1.41189e-13 85.8143 2.57703)
(-2.82966e-14 83.389 2.55127)
(-1.41392e-13 83.389 2.55127)
(-2.69017e-14 81.0527 2.5264)
(5.53788e-14 81.0527 2.5264)
(2.86557e-14 78.8012 2.50238)
(-1.14623e-13 78.8012 2.50238)
(-4.29729e-15 76.6306 2.47917)
(-5.33678e-14 76.6306 2.47917)
(0 74.537 2.45674)
(0 74.537 2.45674)
(2.91812e-14 72.517 2.43505)
(-2.84879e-13 72.517 2.43505)
(2.9353e-14 70.5672 2.41407)
(0 70.5672 2.41407)
(0 68.6844 2.39378)
(1.18093e-13 68.6844 2.39378)
(5.40192e-14 66.8658 2.37414)
(1.18769e-13 66.8658 2.37414)
(-1.07482e-13 65.1084 2.35513)
(4.77624e-14 65.1084 2.35513)
(-6.00511e-14 63.4096 2.33673)
(1.20102e-13 63.4096 2.33673)
(3.01902e-14 61.767 2.31891)
(2.41521e-13 61.767 2.31891)
(-3.03535e-14 60.1781 2.30164)
(0 60.1781 2.30164)
(-6.1031e-14 58.6406 2.28491)
(1.22062e-13 58.6406 2.28491)
(-3.06763e-14 57.1525 2.2687)
(1.22705e-13 57.1525 2.2687)
(0 55.7118 2.25298)
(-4.27458e-14 55.7118 2.25298)
(3.09943e-14 54.3164 2.23774)
(1.23977e-13 54.3164 2.23774)
(3.11517e-14 52.9645 2.22296)
(1.24607e-13 52.9645 2.22296)
(-3.13079e-14 51.6546 2.20862)
(1.25232e-13 51.6546 2.20862)
(3.14631e-14 50.3847 2.19471)
(0 50.3847 2.19471)
(-3.16172e-14 49.1536 2.18121)
(8.74988e-14 49.1536 2.18121)
(3.17704e-14 47.9595 2.16811)
(0 47.9595 2.16811)
(-3.19226e-14 46.8011 2.15539)
(9.01354e-14 46.8011 2.15539)
(3.20739e-14 45.6771 2.14305)
(9.14287e-14 45.6771 2.14305)
(0 44.5862 2.13105)
(9.27057e-14 44.5862 2.13105)
(0 43.527 2.11941)
(-1.65023e-13 43.527 2.11941)
(0 42.4986 2.10809)
(1.3009e-13 42.4986 2.10809)
(-3.26702e-14 41.4997 2.0971)
(0 41.4997 2.0971)
(-3.28172e-14 40.5292 2.08642)
(1.31269e-13 40.5292 2.08642)
(0 39.5862 2.07604)
(0 39.5862 2.07604)
(3.23901e-14 38.6697 2.06595)
(-3.23901e-14 38.6697 2.06595)
(3.32536e-14 37.7787 2.05615)
(1.96607e-13 37.7787 2.05615)
(2.18372e-15 36.9124 2.04661)
(1.02376e-13 36.9124 2.04661)
(0 36.0699 2.03734)
(1.34163e-13 36.0699 2.03734)
(-6.7367e-14 35.2503 2.02832)
(1.34734e-13 35.2503 2.02832)
(3.38254e-14 34.453 2.01956)
(1.35302e-13 34.453 2.01956)
(0 33.6771 2.01103)
(-1.35867e-13 33.6771 2.01103)
(0 32.9219 2.00273)
(-2.84568e-14 32.9219 2.00273)
(-4.05597e-14 32.1868 1.99465)
(-2.79354e-14 32.1868 1.99465)
(-3.4387e-14 31.4711 1.9868)
(-5.48469e-14 31.4711 1.9868)
(-5.38419e-14 30.7741 1.97915)
(-1.38104e-13 30.7741 1.97915)
(6.93287e-14 30.0952 1.97171)
(-5.28553e-14 30.0952 1.97171)
(1.77176e-14 29.4339 1.96447)
(1.39209e-13 29.4339 1.96447)
(-3.49394e-14 28.7896 1.95741)
(1.39758e-13 28.7896 1.95741)
(7.01524e-14 28.1617 1.95055)
(0 28.1617 1.95055)
(3.52125e-14 27.5498 1.94386)
(1.4085e-13 27.5498 1.94386)
(1.28385e-14 26.9533 1.93735)
(-4.81867e-14 26.9533 1.93735)
(0 26.3717 1.93101)
(2.83869e-13 26.3717 1.93101)
(-3.56184e-14 25.8047 1.92483)
(0 25.8047 1.92483)
(-4.5586e-14 25.2517 1.91881)
(2.86023e-13 25.2517 1.91881)
(-3.58868e-14 24.7123 1.91295)
(0 24.7123 1.91295)
(0 24.1861 1.90723)
(1.88012e-13 24.1861 1.90723)
(3.61534e-14 23.6728 1.90166)
(2.89228e-13 23.6728 1.90166)
(-3.62861e-14 23.1718 1.89623)
(1.45145e-13 23.1718 1.89623)
(-5.14106e-15 22.683 1.89093)
(1.45674e-13 22.683 1.89093)
(-7.31008e-14 22.2058 1.88577)
(1.46202e-13 22.2058 1.88577)
(-8.01007e-14 21.74 1.88073)
(2.93455e-13 21.74 1.88073)
(3.93164e-14 21.2852 1.87582)
(1.07936e-13 21.2852 1.87582)
(-3.69439e-14 20.8412 1.87103)
(0 20.8412 1.87103)
(3.70744e-14 20.4076 1.86635)
(0 20.4076 1.86635)
(0 19.984 1.86178)
(-3.71944e-14 19.984 1.86178)
(-3.73344e-14 19.5703 1.85732)
(0 19.5703 1.85732)
(-3.74638e-14 19.1661 1.85296)
(-1.49855e-13 19.1661 1.85296)
(-3.7593e-14 18.7712 1.8487)
(3.00744e-13 18.7712 1.8487)
(-3.45421e-14 18.3853 1.84454)
(1.8543e-13 18.3853 1.84454)
(-3.94126e-15 18.0082 1.84047)
(1.17493e-13 18.0082 1.84047)
(0 17.6396 1.83649)
(1.18627e-13 17.6396 1.83649)
(-3.81067e-14 17.2793 1.8326)
(1.52427e-13 17.2793 1.8326)
(0 16.927 1.82878)
(1.52937e-13 16.927 1.82878)
(-3.83618e-14 16.5826 1.82505)
(0 16.5826 1.82505)
(-3.84889e-14 16.2458 1.82139)
(0 16.2458 1.82139)
(-3.86158e-14 15.9164 1.81781)
(0 15.9164 1.81781)
(3.87424e-14 15.5942 1.81429)
(-2.14553e-13 15.5942 1.81429)
(5.84911e-14 15.2791 1.81084)
(-5.84911e-14 15.2791 1.81084)
(0 14.9708 1.80745)
(0 14.9708 1.80745)
(9.54879e-14 14.6691 1.80411)
(0 14.6691 1.80411)
(-3.92464e-14 14.374 1.80084)
(1.56986e-13 14.374 1.80084)
(-9.36921e-14 14.0851 1.79761)
(2.11808e-13 14.0851 1.79761)
(-3.9497e-14 13.8024 1.79443)
(0 13.8024 1.79443)
(0 13.5257 1.7913)
(1.58488e-13 13.5257 1.7913)
(-3.97467e-14 13.2548 1.78821)
(-1.58987e-13 13.2548 1.78821)
(3.98712e-14 12.9895 1.78515)
(1.59485e-13 12.9895 1.78515)
(8.95178e-14 12.7298 1.78214)
(1.59982e-13 12.7298 1.78214)
(4.01196e-14 12.4755 1.77915)
(0 12.4755 1.77915)
(0 12.2264 1.77619)
(1.60974e-13 12.2264 1.77619)
(-4.03671e-14 11.9825 1.77325)
(0 11.9825 1.77325)
(0 11.7435 1.77033)
(1.61962e-13 11.7435 1.77033)
(-4.06138e-14 11.5094 1.76743)
(0 11.5094 1.76743)
(4.43209e-14 11.28 1.76454)
(0 11.28 1.76454)
(0 11.0552 1.76166)
(1.63439e-13 11.0552 1.76166)
(0 10.8349 1.75879)
(1.63929e-13 10.8349 1.75879)
(-8.30335e-14 10.619 1.75591)
(4.19287e-14 10.619 1.75591)
(-4.1227e-14 10.4073 1.75303)
(0 10.4073 1.75303)
(-4.1349e-14 10.1998 1.75014)
(0 10.1998 1.75014)
(4.3276e-14 9.99636 1.74724)
(1.65883e-13 9.99636 1.74724)
(-8.58386e-14 9.79686 1.74433)
(1.6637e-13 9.79686 1.74433)
(0 9.60121 1.74139)
(1.2863e-13 9.60121 1.74139)
(-4.31033e-15 9.40931 1.73842)
(-3.75249e-14 9.40931 1.73842)
(-1.15631e-13 9.22107 1.73543)
(3.68372e-14 9.22107 1.73543)
(0 9.03639 1.7324)
(0 9.03639 1.7324)
(0 8.85518 1.72932)
(1.68791e-13 8.85518 1.72932)
(-4.23181e-14 8.67736 1.7262)
(-1.69273e-13 8.67736 1.7262)
(0 8.50283 1.72303)
(0 8.50283 1.72303)
(-1.09725e-13 8.33152 1.71979)
(-4.07634e-13 8.33152 1.71979)
(-4.26782e-14 8.16334 1.7165)
(0 8.16334 1.7165)
(0 7.99821 1.71313)
(0 7.99821 1.71313)
(0 7.83605 1.70968)
(1.08126e-13 7.83605 1.70968)
(-8.60724e-14 7.67678 1.70616)
(3.4429e-13 7.67678 1.70616)
(0 7.52033 1.70253)
(1.7262e-13 7.52033 1.70253)
(-4.32737e-14 7.36663 1.69881)
(-6.01123e-14 7.36663 1.69881)
(0 7.21559 1.69499)
(-1.73569e-13 7.21559 1.69499)
(-4.35103e-14 7.06716 1.69105)
(0 7.06716 1.69105)
(0 6.92126 1.68698)
(1.74513e-13 6.92126 1.68698)
(-5.58258e-14 6.77782 1.68279)
(2.30809e-13 6.77782 1.68279)
(4.38632e-14 6.63677 1.67845)
(3.50906e-13 6.63677 1.67845)
(4.39803e-14 6.49805 1.67396)
(1.75921e-13 6.49805 1.67396)
(0 6.36159 1.66931)
(1.76388e-13 6.36159 1.66931)
(4.42136e-14 6.22732 1.66449)
(2.28699e-13 6.22732 1.66449)
(-9.52247e-14 6.09519 1.65948)
(4.05533e-13 6.09519 1.65948)
(5.51659e-15 5.96513 1.65428)
(-2.27745e-13 5.96513 1.65428)
(9.80935e-14 5.83708 1.64888)
(0 5.83708 1.64888)
(-4.46764e-14 5.71098 1.64325)
(-9.62959e-14 5.71098 1.64325)
(-8.95825e-14 5.58676 1.63738)
(-9.45313e-14 5.58676 1.63738)
(-4.49057e-14 5.46436 1.63127)
(1.79623e-13 5.46436 1.63127)
(0 5.34373 1.62489)
(0 5.34373 1.62489)
(-4.51335e-14 5.22481 1.61823)
(0 5.22481 1.61823)
(4.38952e-14 5.10753 1.61127)
(-8.77904e-14 5.10753 1.61127)
(4.53595e-14 4.99183 1.60399)
(3.62876e-13 4.99183 1.60399)
(9.09438e-14 4.87767 1.59638)
(-2.24189e-13 4.87767 1.59638)
(9.11675e-14 4.76497 1.5884)
(0 4.76497 1.5884)
(5.06252e-14 4.65367 1.58005)
(4.06326e-13 4.65367 1.58005)
(4.5806e-14 4.54372 1.57129)
(1.83224e-13 4.54372 1.57129)
(4.59163e-14 4.43506 1.5621)
(1.83665e-13 4.43506 1.5621)
(-4.6026e-14 4.32762 1.55245)
(1.84104e-13 4.32762 1.55245)
(2.95813e-14 4.22134 1.54231)
(-7.57164e-14 4.22134 1.54231)
(0 4.11616 1.53166)
(1.84975e-13 4.11616 1.53166)
(-9.2703e-14 4.01201 1.52046)
(1.12439e-13 4.01201 1.52046)
(-1.18088e-13 3.90883 1.50867)
(7.16298e-14 3.90883 1.50867)
(7.03172e-14 3.80654 1.49625)
(3.7252e-13 3.80654 1.49625)
(6.90287e-14 3.70509 1.48317)
(-6.90287e-14 3.70509 1.48317)
(4.67755e-14 3.60439 1.46937)
(-1.87102e-13 3.60439 1.46937)
(-1.96425e-14 3.50437 1.45481)
(6.6522e-14 3.50437 1.45481)
(-2.86621e-14 3.40496 1.43944)
(0 3.40496 1.43944)
(1.58276e-13 3.30606 1.4232)
(-1.28213e-13 3.30606 1.4232)
(-6.29316e-14 3.20761 1.40603)
(2.51675e-13 3.20761 1.40603)
(6.17784e-14 3.1095 1.38786)
(1.89144e-13 3.1095 1.38786)
(-1.32615e-14 3.01165 1.36861)
(2.50186e-13 3.01165 1.36861)
(0 2.91396 1.34821)
(-2.49466e-13 2.91396 1.34821)
(-4.75793e-14 2.81631 1.32657)
(0 2.81631 1.32657)
(9.69861e-15 2.7186 1.30359)
(1.33325e-13 2.7186 1.30359)
(0 2.62071 1.27917)
(1.91073e-13 2.62071 1.27917)
(6.27187e-14 2.52251 1.2532)
(-1.91443e-13 2.52251 1.2532)
(4.79515e-14 2.42386 1.22554)
(3.29335e-13 2.42386 1.22554)
(0 2.32462 1.19606)
(1.92163e-13 2.32462 1.19606)
(-4.8128e-14 2.22463 1.16461)
(0 2.22463 1.16461)
(4.82135e-14 2.12372 1.13103)
(1.92854e-13 2.12372 1.13103)
(2.10921e-15 2.02172 1.09512)
(1.93188e-13 2.02172 1.09512)
(-4.83782e-14 1.91843 1.05669)
(1.93513e-13 1.91843 1.05669)
(0 1.81365 1.01552)
(0 1.81365 1.01552)
(4.85339e-14 1.70716 0.971385)
(4.76856e-14 1.70716 0.971385)
(-9.72157e-14 1.59874 0.924022)
(1.94431e-13 1.59874 0.924022)
(9.19079e-14 1.48816 0.873161)
(0 1.48816 0.873161)
(0 1.37517 0.818515)
(0 1.37517 0.818515)
(4.88121e-14 1.25956 0.759785)
(1.95249e-13 1.25956 0.759785)
(-4.88736e-14 1.14107 0.696659)
(1.95494e-13 1.14107 0.696659)
(-9.16084e-14 1.01952 0.628828)
(0 1.01952 0.628828)
(0 0.894703 0.555985)
(0 0.894703 0.555985)
(0 0.76648 0.477841)
(-1.96138e-13 0.76648 0.477841)
(3.1668e-14 0.634757 0.394135)
(-8.07473e-14 0.634757 0.394135)
(-4.91191e-14 0.499503 0.304643)
(2.3611e-13 0.499503 0.304643)
(-7.78151e-14 0.360762 0.209191)
(2.74429e-13 0.360762 0.209191)
(2.7207e-14 0.218658 0.107663)
(-7.63891e-14 0.218658 0.107663)
(-4.92045e-14 3.70483e-07 1.37126e-07)
(3.93746e-13 3.70685e-07 1.37201e-07)
(2.28849e-16 874.933 -1.61918)
(-2.28849e-16 874.933 -1.61918)
(0 874.931 -4.88777)
(-8.98622e-16 874.931 -4.88777)
(-3.97994e-16 874.926 -6.78343)
(0 874.926 -6.78343)
(6.52135e-16 874.916 -6.90995)
(-1.73198e-15 874.916 -6.90995)
(-5.27249e-16 874.892 -7.03867)
(-1.70024e-15 874.892 -7.03867)
(1.584e-15 874.839 -7.16945)
(-3.33817e-15 874.839 -7.16945)
(-3.277e-15 874.723 -7.30197)
(0 874.723 -7.30197)
(5.10242e-15 874.492 -7.43568)
(0 874.492 -7.43568)
(-9.36457e-15 874.063 -7.56968)
(1.21943e-14 874.063 -7.56968)
(3.55537e-15 873.312 -7.70262)
(-2.04218e-14 873.312 -7.70262)
(2.05697e-15 872.07 -7.8326)
(-1.62872e-14 872.07 -7.8326)
(4.59803e-15 870.115 -7.95705)
(0 870.115 -7.95705)
(6.59713e-15 867.168 -8.07277)
(-3.22677e-14 867.168 -8.07277)
(5.75813e-15 862.906 -8.17589)
(-2.8478e-14 862.906 -8.17589)
(6.23531e-15 856.972 -8.26209)
(-2.49412e-14 856.972 -8.26209)
(0 849.007 -8.32689)
(-1.10981e-14 849.007 -8.32689)
(7.37197e-15 838.686 -8.36608)
(-4.03826e-14 838.686 -8.36608)
(7.95109e-15 825.758 -8.37612)
(3.18044e-14 825.758 -8.37612)
(8.53528e-15 810.089 -8.35468)
(0 810.089 -8.35468)
(1.82449e-14 791.681 -8.30085)
(0 791.681 -8.30085)
(9.71032e-15 770.688 -8.21538)
(3.88413e-14 770.688 -8.21538)
(3.01611e-14 747.399 -8.10047)
(2.13205e-14 747.399 -8.10047)
(-1.0878e-14 722.21 -7.95954)
(0 722.21 -7.95954)
(2.29057e-14 695.582 -7.79684)
(0 695.582 -7.79684)
(1.20188e-14 667.999 -7.61699)
(0 667.999 -7.61699)
(0 639.928 -7.42461)
(0 639.928 -7.42461)
(-1.81102e-14 611.794 -7.22401)
(-1.81102e-14 611.794 -7.22401)
(2.72936e-14 583.958 -7.01901)
(0 583.958 -7.01901)
(1.41624e-14 556.712 -6.81286)
(5.66498e-14 556.712 -6.81286)
(2.93272e-14 530.28 -6.60819)
(0 530.28 -6.60819)
(1.515e-14 504.824 -6.40706)
(0 504.824 -6.40706)
(3.21324e-14 480.451 -6.21101)
(-1.65106e-14 480.451 -6.21101)
(1.60791e-14 457.222 -6.02115)
(-6.43166e-14 457.222 -6.02115)
(0 435.164 -5.83822)
(-8.20004e-14 435.164 -5.83822)
(0 414.276 -5.66267)
(0 414.276 -5.66267)
(4.80346e-14 394.537 -5.49473)
(-1.00139e-13 394.537 -5.49473)
(5.43851e-15 375.913 -5.33445)
(0 375.913 -5.33445)
(-1.81629e-14 358.359 -5.18176)
(-7.26516e-14 358.359 -5.18176)
(-1.85426e-14 341.823 -5.03649)
(-1.48341e-13 341.823 -5.03649)
(9.56851e-15 326.253 -4.8984)
(-2.84798e-14 326.253 -4.8984)
(-1.92693e-14 311.593 -4.76722)
(0 311.593 -4.76722)
(-1.96174e-14 297.789 -4.64265)
(-1.56939e-13 297.789 -4.64265)
(1.29694e-14 284.787 -4.52437)
(2.69426e-14 284.787 -4.52437)
(4.67344e-14 272.535 -4.41207)
(-1.07591e-13 272.535 -4.41207)
(4.12129e-14 260.985 -4.30542)
(5.64616e-14 260.985 -4.30542)
(4.64077e-14 250.09 -4.20411)
(-1.09166e-13 250.09 -4.20411)
(-4.24487e-14 239.806 -4.10784)
(-8.48974e-14 239.806 -4.10784)
(4.30442e-14 230.093 -4.01633)
(8.60884e-14 230.093 -4.01633)
(2.41128e-14 220.912 -3.92929)
(0 220.912 -3.92929)
(-2.2097e-14 212.227 -3.84647)
(-2.24118e-13 212.227 -3.84647)
(2.23748e-14 204.005 -3.76761)
(-1.35974e-13 204.005 -3.76761)
(2.26467e-14 196.217 -3.6925)
(0 196.217 -3.6925)
(2.23933e-14 188.832 -3.6209)
(-2.05696e-13 188.832 -3.6209)
(2.31736e-14 181.826 -3.55261)
(0 181.826 -3.55261)
(4.68583e-14 175.173 -3.48745)
(0 175.173 -3.48745)
(0 168.851 -3.42522)
(-1.37088e-13 168.851 -3.42522)
(-1.76673e-14 162.839 -3.36577)
(0 162.839 -3.36577)
(2.41671e-14 157.118 -3.30894)
(-1.17084e-13 157.118 -3.30894)
(0 151.668 -3.25457)
(-9.76171e-14 151.668 -3.25457)
(0 146.475 -3.20254)
(-9.85493e-14 146.475 -3.20254)
(2.48665e-14 141.523 -3.15271)
(0 141.523 -3.15271)
(0 136.796 -3.10497)
(-3.79192e-14 136.796 -3.10497)
(9.97624e-14 132.282 -3.05919)
(-3.72244e-14 132.282 -3.05919)
(2.5532e-14 127.968 -3.01529)
(0 127.968 -3.01529)
(0 123.844 -2.97315)
(-1.02988e-13 123.844 -2.97315)
(-3.52153e-14 119.897 -2.93268)
(3.52153e-14 119.897 -2.93268)
(6.07379e-14 116.119 -2.89381)
(-1.39242e-13 116.119 -2.89381)
(0 112.499 -2.85645)
(-1.05496e-13 112.499 -2.85645)
(0 109.03 -2.82052)
(3.33146e-14 109.03 -2.82052)
(-2.67776e-14 105.703 -2.78595)
(2.14221e-13 105.703 -2.78595)
(0 102.51 -2.75268)
(3.21048e-14 102.51 -2.75268)
(2.7171e-14 99.4451 -2.72065)
(-1.08684e-13 99.4451 -2.72065)
(2.7364e-14 96.5008 -2.68979)
(-1.09456e-13 96.5008 -2.68979)
(6.07441e-14 93.6712 -2.66004)
(-1.90066e-13 93.6712 -2.66004)
(-2.77434e-14 90.9505 -2.63137)
(-2.98155e-14 90.9505 -2.63137)
(0 88.3332 -2.60371)
(0 88.3332 -2.60371)
(0 85.8143 -2.57703)
(1.12457e-13 85.8143 -2.57703)
(2.8116e-14 83.389 -2.55127)
(-4.80951e-13 83.389 -2.55127)
(5.69541e-14 81.0527 -2.5264)
(-1.13908e-13 81.0527 -2.5264)
(-2.86557e-14 78.8012 -2.50238)
(0 78.8012 -2.50238)
(-2.14865e-15 76.6306 -2.47917)
(-1.42014e-13 76.6306 -2.47917)
(-5.80153e-14 74.537 -2.45674)
(-1.68421e-13 74.537 -2.45674)
(-3.46625e-15 72.517 -2.43505)
(-2.59164e-13 72.517 -2.43505)
(5.87061e-14 70.5672 -2.41407)
(-1.17412e-13 70.5672 -2.41407)
(4.74226e-15 68.6844 -2.39378)
(1.42875e-13 68.6844 -2.39378)
(-4.8654e-14 66.8658 -2.37414)
(1.18769e-13 66.8658 -2.37414)
(2.98596e-14 65.1084 -2.35513)
(-1.67201e-13 65.1084 -2.35513)
(-1.06938e-13 63.4096 -2.33673)
(1.20102e-13 63.4096 -2.33673)
(3.01902e-14 61.767 -2.31891)
(0 61.767 -2.31891)
(1.48311e-14 60.1781 -2.30164)
(0 60.1781 -2.30164)
(0 58.6406 -2.28491)
(0 58.6406 -2.28491)
(3.06763e-14 57.1525 -2.2687)
(1.22705e-13 57.1525 -2.2687)
(0 55.7118 -2.25298)
(-1.23344e-13 55.7118 -2.25298)
(0 54.3164 -2.23774)
(0 54.3164 -2.23774)
(3.11517e-14 52.9645 -2.22296)
(8.34131e-14 52.9645 -2.22296)
(0 51.6546 -2.20862)
(0 51.6546 -2.20862)
(0 50.3847 -2.19471)
(-2.51705e-13 50.3847 -2.19471)
(0 49.1536 -2.18121)
(0 49.1536 -2.18121)
(3.17704e-14 47.9595 -2.16811)
(-1.65338e-13 47.9595 -2.16811)
(6.94777e-14 46.8011 -2.15539)
(-3.75551e-14 46.8011 -2.15539)
(3.20739e-14 45.6771 -2.14305)
(2.56591e-13 45.6771 -2.14305)
(3.22243e-14 44.5862 -2.13105)
(0 44.5862 -2.13105)
(3.23738e-14 43.527 -2.11941)
(-1.65023e-13 43.527 -2.11941)
(-3.72318e-14 42.4986 -2.10809)
(1.3009e-13 42.4986 -2.10809)
(0 41.4997 -2.0971)
(3.4238e-14 41.4997 -2.0971)
(-3.28172e-14 40.5292 -2.08642)
(-1.31269e-13 40.5292 -2.08642)
(0 39.5862 -2.07604)
(0 39.5862 -2.07604)
(0 38.6697 -2.06595)
(-3.23901e-14 38.6697 -2.06595)
(0 37.7787 -2.05615)
(0 37.7787 -2.05615)
(6.24277e-14 36.9124 -2.04661)
(-1.96018e-13 36.9124 -2.04661)
(-6.12837e-14 36.0699 -2.03734)
(-3.06419e-14 36.0699 -2.03734)
(0 35.2503 -2.02832)
(-6.01607e-14 35.2503 -2.02832)
(-2.52329e-14 34.453 -2.01956)
(0 34.453 -2.01956)
(-3.39668e-14 33.6771 -2.01103)
(0 33.6771 -2.01103)
(-3.41075e-14 32.9219 -2.00273)
(-2.84568e-14 32.9219 -2.00273)
(-2.16232e-14 32.1868 -1.99465)
(0 32.1868 -1.99465)
(0 31.4711 -1.9868)
(-5.48469e-14 31.4711 -1.9868)
(-6.90519e-14 30.7741 -1.97915)
(-2.76208e-13 30.7741 -1.97915)
(-5.28553e-14 30.0952 -1.97171)
(5.28553e-14 30.0952 -1.97171)
(3.48022e-14 29.4339 -1.96447)
(0 29.4339 -1.96447)
(-5.09359e-14 28.7896 -1.95741)
(1.39758e-13 28.7896 -1.95741)
(5.00025e-14 28.1617 -1.95055)
(-1.90307e-13 28.1617 -1.95055)
(0 27.5498 -1.94386)
(-1.4085e-13 27.5498 -1.94386)
(-3.53483e-14 26.9533 -1.93735)
(-1.41393e-13 26.9533 -1.93735)
(4.73037e-14 26.3717 -1.93101)
(9.46306e-14 26.3717 -1.93101)
(3.56184e-14 25.8047 -1.92483)
(0 25.8047 -1.92483)
(2.59197e-14 25.2517 -1.91881)
(1.88597e-13 25.2517 -1.91881)
(-3.58868e-14 24.7123 -1.91295)
(1.43547e-13 24.7123 -1.91295)
(-4.39306e-14 24.1861 -1.90723)
(-4.39306e-14 24.1861 -1.90723)
(7.9279e-14 23.6728 -1.90166)
(-4.31256e-14 23.6728 -1.90166)
(3.62861e-14 23.1718 -1.89623)
(1.45145e-13 23.1718 -1.89623)
(3.64185e-14 22.683 -1.89093)
(1.45674e-13 22.683 -1.89093)
(7.73483e-14 22.2058 -1.88577)
(-4.0798e-14 22.2058 -1.88577)
(4.00503e-14 21.74 -1.88073)
(-1.46728e-13 21.74 -1.88073)
(7.61296e-14 21.2852 -1.87582)
(-3.93164e-14 21.2852 -1.87582)
(-3.69439e-14 20.8412 -1.87103)
(0 20.8412 -1.87103)
(0 20.4076 -1.86635)
(0 20.4076 -1.86635)
(1.01438e-17 19.984 -1.86178)
(0 19.984 -1.86178)
(1.11182e-13 19.5703 -1.85732)
(0 19.5703 -1.85732)
(0 19.1661 -1.85296)
(0 19.1661 -1.85296)
(7.27799e-14 18.7712 -1.8487)
(3.00744e-13 18.7712 -1.8487)
(0 18.3853 -1.84454)
(0 18.3853 -1.84454)
(-1.05669e-13 18.0082 -1.84047)
(0 18.0082 -1.84047)
(-3.79787e-14 17.6396 -1.83649)
(0 17.6396 -1.83649)
(3.26778e-14 17.2793 -1.8326)
(0 17.2793 -1.8326)
(3.82344e-14 16.927 -1.82878)
(0 16.927 -1.82878)
(3.14912e-14 16.5826 -1.82505)
(0 16.5826 -1.82505)
(7.69778e-14 16.2458 -1.82139)
(-1.53956e-13 16.2458 -1.82139)
(7.72316e-14 15.9164 -1.81781)
(-1.54463e-13 15.9164 -1.81781)
(2.08406e-14 15.5942 -1.81429)
(-4.64909e-13 15.5942 -1.81429)
(1.96224e-14 15.2791 -1.81084)
(-5.84911e-14 15.2791 -1.81084)
(5.74193e-14 14.9708 -1.80745)
(9.85603e-14 14.9708 -1.80745)
(-5.63671e-14 14.6691 -1.80411)
(0 14.6691 -1.80411)
(-1.60878e-14 14.374 -1.80084)
(5.53342e-14 14.374 -1.80084)
(-3.93718e-14 14.0851 -1.79761)
(-1.57487e-13 14.0851 -1.79761)
(0 13.8024 -1.79443)
(0 13.8024 -1.79443)
(9.19696e-14 13.5257 -1.7913)
(1.58488e-13 13.5257 -1.7913)
(7.94934e-14 13.2548 -1.78821)
(-1.58987e-13 13.2548 -1.78821)
(5.04467e-14 12.9895 -1.78515)
(-2.09932e-13 12.9895 -1.78515)
(3.99955e-14 12.7298 -1.78214)
(0 12.7298 -1.78214)
(-4.86148e-14 12.4755 -1.77915)
(-1.60478e-13 12.4755 -1.77915)
(0 12.2264 -1.77619)
(-3.21947e-13 12.2264 -1.77619)
(-4.68495e-14 11.9825 -1.77325)
(-4.68495e-14 11.9825 -1.77325)
(8.09811e-14 11.7435 -1.77033)
(1.61962e-13 11.7435 -1.77033)
(8.5762e-14 11.5094 -1.76743)
(-4.51482e-14 11.5094 -1.76743)
(0 11.28 -1.76454)
(1.62947e-13 11.28 -1.76454)
(4.08597e-14 11.0552 -1.76166)
(-1.63439e-13 11.0552 -1.76166)
(0 10.8349 -1.75879)
(-2.06641e-13 10.8349 -1.75879)
(0 10.619 -1.75591)
(4.19287e-14 10.619 -1.75591)
(4.1227e-14 10.4073 -1.75303)
(-1.64908e-13 10.4073 -1.75303)
(8.2698e-14 10.1998 -1.75014)
(-1.65396e-13 10.1998 -1.75014)
(4.14709e-14 9.99636 -1.74724)
(1.65883e-13 9.99636 -1.74724)
(8.3185e-14 9.79686 -1.74433)
(1.27431e-13 9.79686 -1.74433)
(7.99393e-14 9.60121 -1.74139)
(-3.82253e-14 9.60121 -1.74139)
(-4.31033e-15 9.40931 -1.73842)
(-3.75249e-14 9.40931 -1.73842)
(4.19562e-14 9.22107 -1.73543)
(-1.67825e-13 9.22107 -1.73543)
(4.20771e-14 9.03639 -1.7324)
(1.68308e-13 9.03639 -1.7324)
(8.43954e-14 8.85518 -1.72932)
(-3.54995e-14 8.85518 -1.72932)
(0 8.67736 -1.7262)
(1.69273e-13 8.67736 -1.7262)
(-8.22794e-15 8.50283 -1.72303)
(-2.03964e-13 8.50283 -1.72303)
(8.51167e-14 8.33152 -1.71979)
(-1.70233e-13 8.33152 -1.71979)
(-4.26782e-14 8.16334 -1.7165)
(-3.41425e-13 8.16334 -1.7165)
(4.27977e-14 7.99821 -1.71313)
(-1.71191e-13 7.99821 -1.71313)
(-6.35418e-14 7.83605 -1.70968)
(1.71668e-13 7.83605 -1.70968)
(2.36949e-14 7.67678 -1.70616)
(1.72145e-13 7.67678 -1.70616)
(1.65624e-13 7.52033 -1.70253)
(-2.33855e-13 7.52033 -1.70253)
(-1.68386e-14 7.36663 -1.69881)
(0 7.36663 -1.69881)
(0 7.21559 -1.69499)
(-1.73569e-13 7.21559 -1.69499)
(0 7.06716 -1.69105)
(-1.74041e-13 7.06716 -1.69105)
(5.68679e-14 6.92126 -1.68698)
(-2.31381e-13 6.92126 -1.68698)
(0 6.77782 -1.68279)
(0 6.77782 -1.68279)
(4.38632e-14 6.63677 -1.67845)
(0 6.63677 -1.67845)
(4.39803e-14 6.49805 -1.67396)
(1.75921e-13 6.49805 -1.67396)
(9.69098e-14 6.36159 -1.66931)
(-5.28127e-14 6.36159 -1.66931)
(0 6.22732 -1.66449)
(1.76854e-13 6.22732 -1.66449)
(0 6.09519 -1.65948)
(-5.08949e-14 6.09519 -1.65948)
(0 5.96513 -1.65428)
(-1.77783e-13 5.96513 -1.65428)
(-4.90467e-14 5.83708 -1.64888)
(-9.80935e-14 5.83708 -1.64888)
(-4.46764e-14 5.71098 -1.64325)
(-9.62959e-14 5.71098 -1.64325)
(-4.47913e-14 5.58676 -1.63738)
(-1.79165e-13 5.58676 -1.63738)
(-4.49057e-14 5.46436 -1.63127)
(-2.26022e-13 5.46436 -1.63127)
(0 5.34373 -1.62489)
(0 5.34373 -1.62489)
(4.47146e-14 5.22481 -1.61823)
(-4.05782e-13 5.22481 -1.61823)
(0 5.10753 -1.61127)
(-2.24882e-13 5.10753 -1.61127)
(-8.61817e-14 4.99183 -1.60399)
(8.61817e-14 4.99183 -1.60399)
(0 4.87767 -1.59638)
(-2.24189e-13 4.87767 -1.59638)
(7.89945e-14 4.76497 -1.5884)
(-8.30522e-14 4.76497 -1.5884)
(5.06252e-14 4.65367 -1.58005)
(1.42015e-13 4.65367 -1.58005)
(9.1612e-14 4.54372 -1.57129)
(0 4.54372 -1.57129)
(9.18326e-14 4.43506 -1.5621)
(-1.83665e-13 4.43506 -1.5621)
(8.45909e-14 4.32762 -1.55245)
(-7.71298e-14 4.32762 -1.55245)
(-4.61352e-14 4.22134 -1.54231)
(0 4.22134 -1.54231)
(0 4.11616 -1.53166)
(1.84975e-13 4.11616 -1.53166)
(-4.63515e-14 4.01201 -1.52046)
(1.85406e-13 4.01201 -1.52046)
(0 3.90883 -1.50867)
(-1.85835e-13 3.90883 -1.50867)
(0 3.80654 -1.49625)
(-2.56577e-13 3.80654 -1.49625)
(-1.15699e-13 3.70509 -1.48317)
(-1.86683e-13 3.70509 -1.48317)
(9.3551e-14 3.60439 -1.46937)
(-1.87102e-13 3.60439 -1.46937)
(4.68795e-14 3.50437 -1.45481)
(0 3.50437 -1.45481)
(-6.5303e-14 3.40496 -1.43944)
(1.8793e-13 3.40496 -1.43944)
(0 3.30606 -1.4232)
(0 3.30606 -1.4232)
(0 3.20761 -1.40603)
(-1.88743e-13 3.20761 -1.40603)
(0 3.1095 -1.38786)
(-6.17784e-14 3.1095 -1.38786)
(-1.32615e-14 3.01165 -1.36861)
(6.82469e-14 3.01165 -1.36861)
(4.74827e-14 2.91396 -1.34821)
(-3.79862e-13 2.91396 -1.34821)
(5.84441e-14 2.81631 -1.32657)
(-5.84441e-14 2.81631 -1.32657)
(-9.69861e-15 2.7186 -1.30359)
(0 2.7186 -1.30359)
(1.60412e-13 2.62071 -1.27917)
(-3.03717e-13 2.62071 -1.27917)
(-4.78607e-14 2.52251 -1.2532)
(1.36153e-13 2.52251 -1.2532)
(9.5903e-14 2.42386 -1.22554)
(1.37529e-13 2.42386 -1.22554)
(9.60813e-14 2.32462 -1.19606)
(-5.32819e-14 2.32462 -1.19606)
(-4.17755e-15 2.22463 -1.16461)
(-1.04611e-13 2.22463 -1.16461)
(4.82135e-14 2.12372 -1.13103)
(-5.13471e-14 2.12372 -1.13103)
(-2.10921e-15 2.02172 -1.09512)
(-2.94e-13 2.02172 -1.09512)
(4.83782e-14 1.91843 -1.05669)
(1.93513e-13 1.91843 -1.05669)
(0 1.81365 -1.01552)
(-2.90981e-13 1.81365 -1.01552)
(4.85339e-14 1.70716 -0.971385)
(-1.94135e-13 1.70716 -0.971385)
(9.54196e-14 1.59874 -0.924022)
(0 1.59874 -0.924022)
(-4.59539e-14 1.48816 -0.873161)
(2.86624e-13 1.48816 -0.873161)
(0 1.37517 -0.818515)
(-3.89978e-13 1.37517 -0.818515)
(0 1.25956 -0.759785)
(-1.95249e-13 1.25956 -0.759785)
(4.88736e-14 1.14107 -0.696659)
(-1.95494e-13 1.14107 -0.696659)
(4.89314e-14 1.01952 -0.628828)
(1.53048e-13 1.01952 -0.628828)
(4.89851e-14 0.894703 -0.555985)
(-3.91881e-13 0.894703 -0.555985)
(9.80691e-14 0.76648 -0.477841)
(-1.96138e-13 0.76648 -0.477841)
(8.07473e-14 0.634757 -0.394135)
(-8.07473e-14 0.634757 -0.394135)
(-8.87529e-14 0.499503 -0.304643)
(1.96476e-13 0.499503 -0.304643)
(0 0.360762 -0.209191)
(-1.96614e-13 0.360762 -0.209191)
(-4.91821e-14 0.218658 -0.107663)
(1.96728e-13 0.218658 -0.107663)
(4.92045e-14 3.70162e-07 -1.37007e-07)
(1.97038e-13 3.70498e-07 -1.37131e-07)
(4.92595e-14 -1.8496e-07 6.8461e-08)
(2.71807e-13 -1.1891e-07 4.40115e-08)
(0 -0.218658 0.107663)
(3.17067e-13 -0.218658 0.107663)
(2.86616e-14 -0.360762 0.209191)
(-7.78151e-14 -0.360762 0.209191)
(0 -0.499503 0.304642)
(1.96476e-13 -0.499503 0.304642)
(0 -0.634757 0.394134)
(3.92635e-13 -0.634757 0.394134)
(3.322e-14 -0.76648 0.477841)
(-2.78393e-13 -0.76648 0.477841)
(0 -0.894702 0.555985)
(0 -0.894702 0.555985)
(-4.89314e-14 -1.01952 0.628828)
(-1.95726e-13 -1.01952 0.628828)
(0 -1.14107 0.696659)
(0 -1.14107 0.696659)
(1.37383e-13 -1.25956 0.759785)
(0 -1.25956 0.759785)
(0 -1.37517 0.818515)
(1.94989e-13 -1.37517 0.818515)
(0 -1.48816 0.873161)
(1.94716e-13 -1.48816 0.873161)
(0 -1.59874 0.924022)
(0 -1.59874 0.924022)
(-4.85339e-14 -1.70716 0.971385)
(-1.94135e-13 -1.70716 0.971385)
(9.69146e-14 -1.81365 1.01552)
(-9.71514e-14 -1.81365 1.01552)