/*--------------------------------*- C++ -*----------------------------------*\
| =========                 |                                                 |
| \\      /  F ield         | OpenFOAM: The Open Source CFD Toolbox           |
|  \\    /   O peration     | Version:  2106                                  |
|   \\  /    A nd           | Website:  www.openfoam.com                      |
|    \\/     M anipulation  |                                                 |
\*---------------------------------------------------------------------------*/
FoamFile
{
    version     2.0;
    format      ascii;
    arch        "LSB;label=32;scalar=64";
    class       volScalarField;
    location    "10070";
    object      p;
}
// * * * * * * * * * * * * * * * * * * * * * * * * * * * * * * * * * * * * * //

dimensions      [0 2 -2 0 0 0 0];

internalField   nonuniform List<scalar> 
2000
(
7.08867e-16
2.19261e-14
1.45503e-15
2.19259e-14
1.64845e-15
2.19259e-14
1.71102e-15
2.1926e-14
1.78659e-15
2.19261e-14
1.87558e-15
2.19262e-14
1.96324e-15
2.19263e-14
2.04785e-15
2.19265e-14
2.13056e-15
2.19267e-14
2.21174e-15
2.19269e-14
2.29143e-15
2.19271e-14
2.36971e-15
2.19273e-14
2.4466e-15
2.19275e-14
2.5223e-15
2.19277e-14
2.59693e-15
2.19279e-14
2.67063e-15
2.1928e-14
2.74384e-15
2.19281e-14
2.81679e-15
2.19282e-14
2.88971e-15
2.19283e-14
2.96285e-15
2.19284e-14
3.0366e-15
2.19285e-14
3.11124e-15
2.19287e-14
3.18708e-15
2.19288e-14
3.26457e-15
2.19291e-14
3.34376e-15
2.19294e-14
3.42503e-15
2.19298e-14
3.5086e-15
2.19304e-14
3.59476e-15
2.19311e-14
3.68363e-15
2.19321e-14
3.77525e-15
2.19332e-14
3.86963e-15
2.19346e-14
3.96721e-15
2.19362e-14
4.06795e-15
2.19382e-14
4.17173e-15
2.19405e-14
4.27881e-15
2.19432e-14
4.38901e-15
2.19463e-14
4.50251e-15
2.19499e-14
4.61899e-15
2.19542e-14
4.73843e-15
2.19591e-14
4.8608e-15
2.19644e-14
4.98589e-15
2.19709e-14
5.11363e-15
2.19785e-14
5.24455e-15
2.19866e-14
5.37903e-15
2.19955e-14
5.51598e-15
2.20046e-14
5.65577e-15
2.20144e-14
5.79809e-15
2.20247e-14
5.94399e-15
2.20355e-14
6.0932e-15
2.20474e-14
6.2459e-15
2.20597e-14
6.40157e-15
2.20712e-14
6.56136e-15
2.20824e-14
6.72297e-15
2.20942e-14
6.88913e-15
2.21061e-14
7.05796e-15
2.21185e-14
7.22829e-15
2.21299e-14
7.40191e-15
2.21415e-14
7.57903e-15
2.21542e-14
7.75787e-15
2.21687e-14
7.93889e-15
2.21826e-14
8.12137e-15
2.21967e-14
8.30459e-15
2.22114e-14
8.4896e-15
2.22294e-14
8.67628e-15
2.22494e-14
8.86638e-15
2.22684e-14
9.05601e-15
2.22896e-14
9.24626e-15
2.23118e-14
9.43828e-15
2.23344e-14
9.6313e-15
2.23574e-14
9.82718e-15
2.23809e-14
1.00245e-14
2.2405e-14
1.02244e-14
2.24295e-14
1.04261e-14
2.24554e-14
1.06289e-14
2.24813e-14
1.08354e-14
2.2505e-14
1.10427e-14
2.25302e-14
1.12506e-14
2.25576e-14
1.14626e-14
2.25852e-14
1.16727e-14
2.26137e-14
1.1886e-14
2.26425e-14
1.21017e-14
2.26708e-14
1.23165e-14
2.27017e-14
1.2531e-14
2.27361e-14
1.27467e-14
2.27655e-14
1.29634e-14
2.27939e-14
1.3181e-14
2.28267e-14
1.34026e-14
2.28594e-14
1.36264e-14
2.28919e-14
1.38491e-14
2.2926e-14
1.40706e-14
2.29649e-14
1.42923e-14
2.30039e-14
1.45141e-14
2.30463e-14
1.47343e-14
2.30906e-14
1.49542e-14
2.31334e-14
1.51755e-14
2.318e-14
1.53964e-14
2.3232e-14
1.56149e-14
2.32862e-14
1.58345e-14
2.33426e-14
1.60531e-14
2.33998e-14
1.62655e-14
2.34611e-14
1.64784e-14
2.35268e-14
1.66917e-14
2.35969e-14
1.69035e-14
2.36717e-14
1.71136e-14
2.37423e-14
1.73254e-14
2.3816e-14
1.7537e-14
2.38947e-14
1.77464e-14
2.39786e-14
1.79535e-14
2.40642e-14
1.81617e-14
2.41444e-14
1.83727e-14
2.4232e-14
1.85753e-14
2.43181e-14
1.87787e-14
2.44064e-14
1.89788e-14
2.44991e-14
1.91755e-14
2.45963e-14
1.93797e-14
2.46814e-14
1.9584e-14
2.47657e-14
1.97937e-14
2.48531e-14
1.99975e-14
2.494e-14
2.01914e-14
2.50265e-14
2.03904e-14
2.51127e-14
2.05868e-14
2.52066e-14
2.07765e-14
2.53082e-14
2.09669e-14
2.54101e-14
2.11617e-14
2.55165e-14
2.1353e-14
2.56199e-14
2.15368e-14
2.57243e-14
2.17129e-14
2.58338e-14
2.18847e-14
2.59411e-14
2.20559e-14
2.60426e-14
2.22301e-14
2.61424e-14
2.24032e-14
2.62524e-14
2.25788e-14
2.63653e-14
2.2745e-14
2.64618e-14
2.29131e-14
2.6554e-14
2.30673e-14
2.66616e-14
2.32189e-14
2.67655e-14
2.33676e-14
2.68661e-14
2.35168e-14
2.69677e-14
2.36622e-14
2.70708e-14
2.37994e-14
2.7168e-14
2.39358e-14
2.72401e-14
2.40709e-14
2.73267e-14
2.42044e-14
2.74244e-14
2.43433e-14
2.75099e-14
2.44913e-14
2.75837e-14
2.46323e-14
2.76658e-14
2.47737e-14
2.77564e-14
2.4923e-14
2.78362e-14
2.50719e-14
2.79135e-14
2.52122e-14
2.80041e-14
2.53356e-14
2.80769e-14
2.54571e-14
2.81323e-14
2.55765e-14
2.81864e-14
2.57247e-14
2.82392e-14
2.58544e-14
2.82986e-14
2.59653e-14
2.83647e-14
2.60884e-14
2.84219e-14
2.62153e-14
2.84861e-14
2.63379e-14
2.85259e-14
2.6448e-14
2.85802e-14
2.65765e-14
2.86492e-14
2.66995e-14
2.87092e-14
2.68164e-14
2.87679e-14
2.69269e-14
2.88256e-14
2.70539e-14
2.88978e-14
2.71658e-14
2.89455e-14
2.72779e-14
2.8984e-14
2.74054e-14
2.90361e-14
2.75328e-14
2.90933e-14
2.76522e-14
2.91552e-14
2.7771e-14
2.9206e-14
2.78891e-14
2.92527e-14
2.79987e-14
2.92947e-14
2.81303e-14
2.93619e-14
2.82533e-14
2.94305e-14
2.83981e-14
2.94689e-14
2.85043e-14
2.9514e-14
2.86407e-14
2.95571e-14
2.87701e-14
2.96195e-14
2.89231e-14
2.96848e-14
2.9078e-14
2.97586e-14
2.91906e-14
2.97935e-14
2.9277e-14
2.98331e-14
2.93823e-14
2.98763e-14
2.94921e-14
2.98918e-14
2.95929e-14
2.99517e-14
2.97007e-14
3.0054e-14
2.98145e-14
3.01241e-14
2.99201e-14
3.01903e-14
3.00179e-14
3.02217e-14
3.0124e-14
3.0275e-14
3.02247e-14
3.03482e-14
3.03206e-14
3.04398e-14
3.04259e-14
3.0535e-14
3.05261e-14
3.06037e-14
3.06362e-14
3.07024e-14
3.07273e-14
3.08296e-14
3.08121e-14
3.09294e-14
3.09031e-14
3.10313e-14
3.09996e-14
3.11218e-14
3.10869e-14
3.11717e-14
3.11519e-14
3.1278e-14
3.12349e-14
3.13439e-14
3.13222e-14
3.14104e-14
3.13438e-14
3.14628e-14
3.14362e-14
3.15303e-14
3.15025e-14
3.15827e-14
3.15703e-14
3.16203e-14
3.16668e-14
3.16961e-14
3.17652e-14
3.17946e-14
3.18655e-14
3.18739e-14
3.19429e-14
3.19732e-14
3.19817e-14
3.20539e-14
3.21254e-14
3.21194e-14
3.21914e-14
3.21626e-14
3.22589e-14
3.22051e-14
3.23542e-14
3.23219e-14
3.24213e-14
3.24367e-14
3.24847e-14
3.25027e-14
3.25445e-14
3.25466e-14
3.2676e-14
3.26163e-14
3.26821e-14
3.26532e-14
3.27124e-14
3.27076e-14
3.27613e-14
3.28075e-14
3.28469e-14
3.28837e-14
3.28968e-14
3.29127e-14
3.29367e-14
3.2918e-14
3.2944e-14
3.29932e-14
3.29606e-14
3.30212e-14
3.30318e-14
3.30277e-14
3.30963e-14
3.30542e-14
3.31367e-14
3.30945e-14
3.31065e-14
3.3121e-14
3.3069e-14
3.31407e-14
3.31048e-14
3.31864e-14
3.30272e-14
3.32884e-14
3.30104e-14
3.33414e-14
3.30159e-14
3.33633e-14
3.30206e-14
3.33887e-14
3.30412e-14
3.33805e-14
3.31201e-14
3.32874e-14
3.316e-14
3.32705e-14
3.32848e-14
3.32807e-14
3.32855e-14
3.33191e-14
3.32876e-14
3.33119e-14
3.32741e-14
3.32804e-14
3.32276e-14
3.32453e-14
3.32463e-14
3.32691e-14
3.32457e-14
3.3248e-14
3.31924e-14
3.32189e-14
2.10399e-14
2.27989e-14
2.10399e-14
2.27989e-14
2.104e-14
2.2799e-14
2.10402e-14
2.27991e-14
2.10406e-14
2.27992e-14
2.1041e-14
2.27994e-14
2.10415e-14
2.27996e-14
2.10421e-14
2.27998e-14
2.10428e-14
2.28001e-14
2.10436e-14
2.28005e-14
2.10445e-14
2.2801e-14
2.10455e-14
2.28014e-14
2.10466e-14
2.28019e-14
2.10479e-14
2.28024e-14
2.10493e-14
2.2803e-14
2.10508e-14
2.28036e-14
2.10524e-14
2.28043e-14
2.10541e-14
2.2805e-14
2.1056e-14
2.28059e-14
2.1058e-14
2.28069e-14
2.10601e-14
2.28079e-14
2.10624e-14
2.2809e-14
2.1065e-14
2.28102e-14
2.10678e-14
2.28116e-14
2.10709e-14
2.2813e-14
2.10742e-14
2.28147e-14
2.10779e-14
2.28164e-14
2.10817e-14
2.28181e-14
2.1086e-14
2.28198e-14
2.10905e-14
2.28219e-14
2.10955e-14
2.28242e-14
2.11009e-14
2.28266e-14
2.11068e-14
2.28292e-14
2.11131e-14
2.28321e-14
2.11198e-14
2.28348e-14
2.11272e-14
2.28377e-14
2.11352e-14
2.28409e-14
2.11433e-14
2.28447e-14
2.11518e-14
2.28488e-14
2.1161e-14
2.28523e-14
2.11707e-14
2.28564e-14
2.11809e-14
2.28611e-14
2.11914e-14
2.28658e-14
2.12022e-14
2.28711e-14
2.12138e-14
2.28764e-14
2.12256e-14
2.28822e-14
2.12387e-14
2.28877e-14
2.12519e-14
2.2893e-14
2.12652e-14
2.28998e-14
2.12791e-14
2.29079e-14
2.12936e-14
2.29144e-14
2.13086e-14
2.29207e-14
2.13238e-14
2.29285e-14
2.13401e-14
2.29356e-14
2.13574e-14
2.29429e-14
2.13753e-14
2.29516e-14
2.13941e-14
2.29595e-14
2.14134e-14
2.29682e-14
2.14337e-14
2.2977e-14
2.1455e-14
2.29858e-14
2.14767e-14
2.29953e-14
2.14984e-14
2.30066e-14
2.15199e-14
2.3018e-14
2.15425e-14
2.303e-14
2.15655e-14
2.30422e-14
2.15891e-14
2.30551e-14
2.16126e-14
2.307e-14
2.16372e-14
2.30844e-14
2.16623e-14
2.30977e-14
2.1688e-14
2.3113e-14
2.17129e-14
2.31326e-14
2.17383e-14
2.31531e-14
2.17636e-14
2.31731e-14
2.17902e-14
2.31905e-14
2.18195e-14
2.32074e-14
2.1848e-14
2.32224e-14
2.18771e-14
2.32426e-14
2.19054e-14
2.32661e-14
2.19365e-14
2.32824e-14
2.19676e-14
2.3299e-14
2.19986e-14
2.33211e-14
2.20295e-14
2.33458e-14
2.20603e-14
2.33686e-14
2.20926e-14
2.33855e-14
2.21263e-14
2.34034e-14
2.21608e-14
2.34257e-14
2.21929e-14
2.3454e-14
2.22272e-14
2.34787e-14
2.22591e-14
2.35046e-14
2.22933e-14
2.35285e-14
2.23332e-14
2.35538e-14
2.23721e-14
2.35753e-14
2.24102e-14
2.36033e-14
2.24524e-14
2.36309e-14
2.24971e-14
2.36548e-14
2.25426e-14
2.36836e-14
2.25889e-14
2.3712e-14
2.26377e-14
2.37368e-14
2.26874e-14
2.37629e-14
2.27362e-14
2.37853e-14
2.27858e-14
2.38091e-14
2.2838e-14
2.38449e-14
2.28929e-14
2.38787e-14
2.29505e-14
2.39085e-14
2.30036e-14
2.39398e-14
2.30594e-14
2.39779e-14
2.31161e-14
2.40139e-14
2.31738e-14
2.40477e-14
2.32287e-14
2.40828e-14
2.32826e-14
2.41285e-14
2.33503e-14
2.41701e-14
2.34116e-14
2.4213e-14
2.34774e-14
2.42592e-14
2.35423e-14
2.43085e-14
2.361e-14
2.43628e-14
2.36861e-14
2.44146e-14
2.37574e-14
2.44753e-14
2.38353e-14
2.45296e-14
2.39197e-14
2.45813e-14
2.40032e-14
2.46341e-14
2.40933e-14
2.46956e-14
2.41749e-14
2.47694e-14
2.42632e-14
2.48442e-14
2.43544e-14
2.49085e-14
2.44408e-14
2.49736e-14
2.45263e-14
2.50393e-14
2.46109e-14
2.51134e-14
2.46984e-14
2.51919e-14
2.47888e-14
2.52787e-14
2.48743e-14
2.53543e-14
2.49666e-14
2.54226e-14
2.5054e-14
2.55106e-14
2.51404e-14
2.56027e-14
2.52335e-14
2.56911e-14
2.53293e-14
2.57759e-14
2.54319e-14
2.58569e-14
2.55412e-14
2.59378e-14
2.56457e-14
2.60225e-14
2.57415e-14
2.61068e-14
2.58523e-14
2.61867e-14
2.59663e-14
2.62699e-14
2.60839e-14
2.6372e-14
2.62092e-14
2.64732e-14
2.63068e-14
2.65693e-14
2.64124e-14
2.66644e-14
2.6518e-14
2.67663e-14
2.66198e-14
2.68709e-14
2.67376e-14
2.69823e-14
2.68517e-14
2.70925e-14
2.69621e-14
2.71937e-14
2.70769e-14
2.72859e-14
2.71805e-14
2.73767e-14
2.72969e-14
2.7482e-14
2.73947e-14
2.7586e-14
2.74896e-14
2.76967e-14
2.75895e-14
2.77909e-14
2.76866e-14
2.79001e-14
2.77888e-14
2.80323e-14
2.78959e-14
2.81568e-14
2.80078e-14
2.82583e-14
2.81326e-14
2.83763e-14
2.82392e-14
2.84953e-14
2.83512e-14
2.85844e-14
2.84454e-14
2.8675e-14
2.85455e-14
2.87907e-14
2.86514e-14
2.89007e-14
2.87555e-14
2.90289e-14
2.88575e-14
2.91451e-14
2.89573e-14
2.92423e-14
2.90629e-14
2.93599e-14
2.91741e-14
2.94596e-14
2.92835e-14
2.95575e-14
2.93992e-14
2.96618e-14
2.94984e-14
2.97807e-14
2.96041e-14
2.98997e-14
2.97161e-14
2.99892e-14
2.98193e-14
3.00726e-14
2.99222e-14
3.0158e-14
3.00325e-14
3.02458e-14
3.01356e-14
3.03666e-14
3.0231e-14
3.04837e-14
3.0333e-14
3.05683e-14
3.04272e-14
3.0621e-14
3.05298e-14
3.06569e-14
3.05977e-14
3.07351e-14
3.06457e-14
3.0842e-14
3.07618e-14
3.09201e-14
3.08428e-14
3.10137e-14
3.0933e-14
3.10795e-14
3.10184e-14
3.11323e-14
3.11002e-14
3.11872e-14
3.11795e-14
3.12586e-14
3.12566e-14
3.13322e-14
3.13318e-14
3.14229e-14
3.14192e-14
3.15026e-14
3.15048e-14
3.16156e-14
3.15876e-14
3.16914e-14
3.16827e-14
3.17586e-14
3.17487e-14
3.18165e-14
3.18291e-14
3.19075e-14
3.18952e-14
3.19899e-14
3.19464e-14
3.20377e-14
3.19975e-14
3.21071e-14
3.20755e-14
3.21436e-14
3.21405e-14
3.21875e-14
3.22094e-14
3.22664e-14
3.22679e-14
3.22705e-14
3.2375e-14
3.22939e-14
3.24407e-14
3.23595e-14
3.25068e-14
3.24535e-14
3.25444e-14
3.25234e-14
3.26187e-14
3.25717e-14
3.26779e-14
3.26233e-14
3.27917e-14
3.27175e-14
3.29076e-14
3.28274e-14
3.30024e-14
3.29024e-14
3.3107e-14
3.29434e-14
3.30967e-14
3.29961e-14
3.31231e-14
3.30372e-14
3.32365e-14
3.31199e-14
3.32616e-14
3.31916e-14
3.32948e-14
3.32833e-14
3.33585e-14
3.33015e-14
3.34094e-14
3.33438e-14
3.34248e-14
3.33565e-14
3.34789e-14
3.33622e-14
3.35286e-14
3.338e-14
3.3506e-14
3.34569e-14
3.35234e-14
3.34816e-14
3.35081e-14
3.34565e-14
3.35306e-14
3.3477e-14
3.35413e-14
3.35428e-14
3.35084e-14
3.35681e-14
3.35199e-14
3.3563e-14
3.34882e-14
3.35256e-14
3.34809e-14
3.35443e-14
3.34536e-14
3.35476e-14
3.33788e-14
3.34916e-14
3.33624e-14
3.34899e-14
3.34223e-14
3.35206e-14
3.34087e-14
3.35377e-14
3.34207e-14
3.34469e-14
3.34091e-14
3.34246e-14
3.34074e-14
3.33988e-14
3.33768e-14
3.33798e-14
3.33558e-14
3.33255e-14
3.33736e-14
3.33351e-14
3.33531e-14
3.33245e-14
3.33102e-14
3.33137e-14
3.32314e-14
3.32691e-14
3.317e-14
3.31903e-14
3.32633e-14
3.32035e-14
3.32448e-14
3.31983e-14
3.31547e-14
3.31371e-14
3.3109e-14
3.30935e-14
3.30923e-14
3.30921e-14
3.303e-14
3.30724e-14
3.30198e-14
3.29977e-14
3.29506e-14
3.29612e-14
3.28576e-14
3.2925e-14
3.28349e-14
3.28742e-14
3.2823e-14
3.28487e-14
3.28199e-14
3.28458e-14
3.28078e-14
3.28209e-14
3.27653e-14
3.27743e-14
3.27166e-14
3.27262e-14
3.2708e-14
3.26997e-14
3.2721e-14
3.26918e-14
3.26881e-14
3.26543e-14
3.26582e-14
3.26367e-14
3.26328e-14
3.26195e-14
3.26105e-14
3.2602e-14
3.25895e-14
3.25834e-14
3.25928e-14
3.26108e-14
3.26184e-14
3.26138e-14
3.26417e-14
3.26392e-14
3.26372e-14
3.2688e-14
3.25987e-14
3.26905e-14
3.26219e-14
3.26748e-14
3.26612e-14
3.26619e-14
3.26974e-14
3.26965e-14
3.27034e-14
3.27276e-14
3.27046e-14
3.27583e-14
3.26989e-14
3.27668e-14
3.27094e-14
3.27801e-14
3.27656e-14
3.27963e-14
3.27941e-14
3.281e-14
3.27685e-14
3.28203e-14
3.27938e-14
3.28299e-14
3.2818e-14
3.28385e-14
3.28024e-14
3.2804e-14
3.27898e-14
3.278e-14
3.28089e-14
3.27808e-14
3.27774e-14
3.27648e-14
3.27489e-14
3.27748e-14
3.27348e-14
3.27318e-14
3.27234e-14
3.2731e-14
3.26865e-14
3.27157e-14
3.26644e-14
3.27013e-14
3.26567e-14
3.27025e-14
3.26481e-14
3.27048e-14
3.26238e-14
3.27091e-14
3.26113e-14
3.27023e-14
3.2596e-14
3.267e-14
3.25795e-14
3.26111e-14
3.25632e-14
3.26241e-14
3.25604e-14
3.26669e-14
3.25409e-14
3.26834e-14
3.2532e-14
3.2646e-14
3.25345e-14
3.26124e-14
3.25349e-14
3.26108e-14
3.2548e-14
3.26266e-14
3.25595e-14
3.26453e-14
3.25694e-14
3.26375e-14
3.25779e-14
3.26174e-14
3.25711e-14
3.26142e-14
3.25637e-14
3.26276e-14
3.25702e-14
3.2628e-14
3.25909e-14
3.26151e-14
3.26117e-14
3.25878e-14
3.25883e-14
3.2575e-14
3.25653e-14
3.25771e-14
3.25878e-14
3.26023e-14
3.25949e-14
3.26126e-14
3.25942e-14
3.26154e-14
3.26084e-14
3.2618e-14
3.26224e-14
3.26358e-14
3.26439e-14
3.26303e-14
3.26581e-14
3.26087e-14
3.26578e-14
3.26399e-14
3.26578e-14
3.26779e-14
3.26729e-14
3.27156e-14
3.26877e-14
3.273e-14
3.2702e-14
3.27368e-14
3.27316e-14
3.2736e-14
3.27459e-14
3.27428e-14
3.27685e-14
3.27571e-14
3.27761e-14
3.2771e-14
3.27608e-14
3.27846e-14
3.27692e-14
3.2798e-14
3.27777e-14
3.28113e-14
3.27706e-14
3.28403e-14
3.27711e-14
3.28462e-14
3.27711e-14
3.28369e-14
3.27708e-14
3.28435e-14
3.27701e-14
3.28428e-14
3.27692e-14
3.28345e-14
3.27681e-14
3.28344e-14
3.27668e-14
3.28426e-14
3.27652e-14
3.28353e-14
3.27635e-14
3.28283e-14
3.27615e-14
3.28295e-14
3.27672e-14
3.2831e-14
3.27648e-14
3.28328e-14
3.27623e-14
3.28427e-14
3.27634e-14
3.28491e-14
3.27721e-14
3.28401e-14
3.2761e-14
3.28393e-14
3.27495e-14
3.28466e-14
3.27456e-14
3.28504e-14
3.27491e-14
3.28507e-14
3.27482e-14
3.28671e-14
3.27469e-14
3.28721e-14
3.27451e-14
3.28777e-14
3.27468e-14
3.28837e-14
3.27479e-14
3.28745e-14
3.27525e-14
3.28735e-14
3.27567e-14
3.28767e-14
3.27604e-14
3.28881e-14
3.27559e-14
3.29037e-14
3.27549e-14
3.2908e-14
3.27533e-14
3.29128e-14
3.27473e-14
3.29181e-14
3.27523e-14
3.29277e-14
3.27568e-14
3.29454e-14
3.27569e-14
3.29482e-14
3.27565e-14
3.29439e-14
3.27594e-14
3.29476e-14
3.27656e-14
3.29671e-14
3.27637e-14
3.29718e-14
3.27614e-14
3.29655e-14
3.27624e-14
3.29673e-14
3.27667e-14
3.29732e-14
3.27669e-14
3.2972e-14
3.2763e-14
3.29636e-14
3.27661e-14
3.29557e-14
3.2769e-14
3.29518e-14
3.27659e-14
3.29538e-14
3.277e-14
3.2945e-14
3.27701e-14
3.29328e-14
3.27717e-14
3.29226e-14
3.27677e-14
3.29219e-14
3.27653e-14
3.29195e-14
3.27609e-14
3.29154e-14
3.27581e-14
3.29116e-14
3.27569e-14
3.29079e-14
3.27537e-14
3.29079e-14
3.27486e-14
3.29081e-14
3.27433e-14
3.29085e-14
3.27414e-14
3.29089e-14
3.27411e-14
3.2913e-14
3.27388e-14
3.29103e-14
3.27364e-14
3.29059e-14
3.27338e-14
3.29052e-14
3.27294e-14
3.2908e-14
3.27283e-14
3.29127e-14
3.27235e-14
3.29174e-14
3.27187e-14
3.29172e-14
3.27171e-14
3.29155e-14
3.27136e-14
3.29172e-14
3.271e-14
3.29174e-14
3.27079e-14
3.29178e-14
3.27041e-14
3.29182e-14
3.27033e-14
3.29188e-14
3.27024e-14
3.2918e-14
3.27014e-14
3.29156e-14
3.27002e-14
3.29119e-14
3.26981e-14
3.29122e-14
3.26959e-14
3.29141e-14
3.26966e-14
3.29154e-14
3.26965e-14
3.2916e-14
3.26932e-14
3.29145e-14
3.26913e-14
3.29145e-14
3.26901e-14
3.29154e-14
3.26887e-14
3.29186e-14
3.26894e-14
3.29204e-14
3.269e-14
3.29209e-14
3.26891e-14
3.292e-14
3.26867e-14
3.29199e-14
3.26869e-14
3.29199e-14
3.26864e-14
3.29221e-14
3.26858e-14
3.29216e-14
3.26858e-14
3.29198e-14
3.26863e-14
3.29208e-14
3.26861e-14
3.29231e-14
3.26858e-14
3.29236e-14
3.26861e-14
3.29222e-14
3.26863e-14
3.29241e-14
3.2687e-14
3.29253e-14
3.26882e-14
3.29236e-14
3.26894e-14
3.2922e-14
3.26892e-14
3.29223e-14
3.26902e-14
3.29225e-14
3.26922e-14
3.29223e-14
3.26936e-14
3.29221e-14
3.26932e-14
3.29225e-14
3.26931e-14
3.29222e-14
3.26942e-14
3.29214e-14
3.2695e-14
3.29204e-14
3.2696e-14
3.29197e-14
3.26969e-14
3.29188e-14
3.26972e-14
3.29166e-14
3.26976e-14
3.29151e-14
3.26983e-14
3.29151e-14
3.26985e-14
3.29151e-14
3.26985e-14
3.29141e-14
3.26984e-14
3.29133e-14
3.26985e-14
3.29126e-14
3.26988e-14
3.29123e-14
3.2699e-14
3.29119e-14
3.2699e-14
3.29109e-14
3.26993e-14
3.29104e-14
3.26996e-14
3.29104e-14
3.26999e-14
3.29101e-14
3.26999e-14
3.29097e-14
3.27e-14
3.29096e-14
3.27e-14
3.29094e-14
3.27003e-14
3.29089e-14
3.27007e-14
3.29085e-14
3.27007e-14
3.29081e-14
3.27008e-14
3.29079e-14
3.27008e-14
3.29077e-14
3.2701e-14
3.29073e-14
3.2701e-14
3.29072e-14
3.27011e-14
3.29073e-14
3.27012e-14
3.29071e-14
3.27013e-14
3.2907e-14
3.27013e-14
3.29068e-14
3.27013e-14
3.29068e-14
3.27013e-14
3.29067e-14
3.27014e-14
3.29066e-14
3.27014e-14
3.29065e-14
3.27015e-14
3.29065e-14
3.27016e-14
3.29065e-14
3.27016e-14
3.29064e-14
3.27016e-14
3.29064e-14
3.27016e-14
3.29064e-14
3.27016e-14
3.29063e-14
3.27016e-14
3.29063e-14
3.27016e-14
3.29062e-14
3.27016e-14
3.29062e-14
3.27016e-14
3.29062e-14
3.27016e-14
3.29062e-14
3.27017e-14
3.29061e-14
3.27017e-14
3.29061e-14
3.27017e-14
3.2906e-14
3.27017e-14
3.2906e-14
3.27017e-14
3.2906e-14
3.27017e-14
3.2906e-14
3.27016e-14
3.2906e-14
3.32345e-14
3.32417e-14
3.32445e-14
3.32234e-14
3.32141e-14
3.3202e-14
3.31827e-14
3.31344e-14
3.30791e-14
3.30763e-14
3.31039e-14
3.30591e-14
3.30742e-14
3.30499e-14
3.29879e-14
3.30105e-14
3.29376e-14
3.29771e-14
3.29225e-14
3.29758e-14
3.28806e-14
3.2922e-14
3.2926e-14
3.2903e-14
3.28706e-14
3.28847e-14
3.2863e-14
3.28259e-14
3.28198e-14
3.28074e-14
3.27829e-14
3.27659e-14
3.27535e-14
3.27483e-14
3.2752e-14
3.27097e-14
3.27111e-14
3.26419e-14
3.26331e-14
3.25872e-14
3.26076e-14
3.25953e-14
3.26063e-14
3.26002e-14
3.26055e-14
3.26288e-14
3.26029e-14
3.26385e-14
3.26715e-14
3.26541e-14
3.26953e-14
3.26701e-14
3.26996e-14
3.27103e-14
3.27061e-14
3.27278e-14
3.2716e-14
3.27238e-14
3.27297e-14
3.27487e-14
3.27966e-14
3.27796e-14
3.2766e-14
3.27868e-14
3.27622e-14
3.27724e-14
3.28126e-14
3.27856e-14
3.27642e-14
3.28504e-14
3.27376e-14
3.2925e-14
3.27759e-14
3.29388e-14
3.27481e-14
3.29422e-14
3.276e-14
3.29364e-14
3.27454e-14
3.29461e-14
3.27016e-14
3.29042e-14
3.26692e-14
3.28505e-14
3.27047e-14
3.28233e-14
3.2689e-14
3.28041e-14
3.26781e-14
3.27229e-14
3.2635e-14
3.27122e-14
3.25991e-14
3.2761e-14
3.25941e-14
3.27344e-14
3.258e-14
3.27149e-14
3.26003e-14
3.27445e-14
3.25986e-14
3.27246e-14
3.25761e-14
3.27247e-14
3.25608e-14
3.27171e-14
3.25092e-14
3.26871e-14
3.25068e-14
3.27077e-14
3.24955e-14
3.27085e-14
3.24608e-14
3.27185e-14
3.25031e-14
3.26799e-14
3.25096e-14
3.26323e-14
3.25119e-14
3.26029e-14
3.25257e-14
3.2591e-14
3.25079e-14
3.25806e-14
3.25023e-14
3.25865e-14
3.25382e-14
3.25641e-14
3.25283e-14
3.25563e-14
3.25319e-14
3.25634e-14
3.25344e-14
3.25857e-14
3.25352e-14
3.25938e-14
3.25343e-14
3.25877e-14
3.25467e-14
3.25976e-14
3.25574e-14
3.25783e-14
3.25674e-14
3.25747e-14
3.25772e-14
3.26017e-14
3.25865e-14
3.26369e-14
3.25949e-14
3.26657e-14
3.26096e-14
3.26732e-14
3.26234e-14
3.26822e-14
3.26285e-14
3.26849e-14
3.26403e-14
3.2689e-14
3.26512e-14
3.27331e-14
3.26609e-14
3.27714e-14
3.26613e-14
3.27965e-14
3.26675e-14
3.2793e-14
3.26798e-14
3.27837e-14
3.2675e-14
3.2776e-14
3.26764e-14
3.27854e-14
3.2684e-14
3.2812e-14
3.26818e-14
3.28326e-14
3.26774e-14
3.28552e-14
3.26863e-14
3.28722e-14
3.2693e-14
3.28837e-14
3.26974e-14
3.28895e-14
3.27075e-14
3.28974e-14
3.27234e-14
3.28916e-14
3.27062e-14
3.28874e-14
3.26951e-14
3.28929e-14
3.2682e-14
3.28922e-14
3.26906e-14
3.28856e-14
3.26816e-14
3.28885e-14
3.26866e-14
3.28852e-14
3.26978e-14
3.28756e-14
3.26918e-14
3.28753e-14
3.26922e-14
3.28684e-14
3.26914e-14
3.28706e-14
3.26931e-14
3.2874e-14
3.26936e-14
3.28825e-14
3.27047e-14
3.28764e-14
3.27185e-14
3.28792e-14
3.27118e-14
3.2883e-14
3.27119e-14
3.28798e-14
3.27151e-14
3.28854e-14
3.27174e-14
3.28958e-14
3.27189e-14
3.2907e-14
3.27194e-14
3.29231e-14
3.27191e-14
3.29283e-14
3.27257e-14
3.29305e-14
3.27314e-14
3.29337e-14
3.2748e-14
3.29299e-14
3.27523e-14
3.29346e-14
3.27637e-14
3.29401e-14
3.27706e-14
3.29345e-14
3.2777e-14
3.29373e-14
3.2779e-14
3.29445e-14
3.27767e-14
3.29522e-14
3.2774e-14
3.29566e-14
3.27708e-14
3.29538e-14
3.27709e-14
3.29553e-14
3.2763e-14
3.29688e-14
3.27583e-14
3.29828e-14
3.27532e-14
3.29859e-14
3.27513e-14
3.2982e-14
3.27451e-14
3.29862e-14
3.27459e-14
3.29946e-14
3.27424e-14
3.29961e-14
3.27422e-14
3.29906e-14
3.27377e-14
3.29893e-14
3.2744e-14
3.29922e-14
3.27534e-14
3.29901e-14
3.27495e-14
3.29847e-14
3.27452e-14
3.29908e-14
3.27496e-14
3.29955e-14
3.27537e-14
3.29932e-14
3.27519e-14
3.29914e-14
3.27461e-14
3.29918e-14
3.27472e-14
3.2989e-14
3.27498e-14
3.29866e-14
3.27485e-14
3.29881e-14
3.27469e-14
3.29899e-14
3.27451e-14
3.29886e-14
3.27429e-14
3.29928e-14
3.27405e-14
3.29956e-14
3.27396e-14
3.29935e-14
3.27349e-14
3.29899e-14
3.27352e-14
3.29866e-14
3.27353e-14
3.29837e-14
3.27335e-14
3.2981e-14
3.27348e-14
3.29786e-14
3.27376e-14
3.29747e-14
3.27402e-14
3.29694e-14
3.27376e-14
3.29661e-14
3.27365e-14
3.29629e-14
3.27369e-14
3.29583e-14
3.27405e-14
3.29539e-14
3.27406e-14
3.29497e-14
3.27422e-14
3.29473e-14
3.27437e-14
3.2945e-14
3.27482e-14
3.29397e-14
3.27487e-14
3.29385e-14
3.27506e-14
3.2939e-14
3.27524e-14
3.29358e-14
3.27526e-14
3.29334e-14
3.27542e-14
3.29304e-14
3.27565e-14
3.2929e-14
3.27557e-14
3.29299e-14
3.27571e-14
3.29288e-14
3.27591e-14
3.29276e-14
3.27611e-14
3.29266e-14
3.27622e-14
3.2925e-14
3.2764e-14
3.29213e-14
3.27665e-14
3.29198e-14
3.27702e-14
3.29177e-14
3.27738e-14
3.29144e-14
3.2778e-14
3.29098e-14
3.27828e-14
3.29079e-14
3.27849e-14
3.29061e-14
3.27845e-14
3.29049e-14
3.27858e-14
3.29032e-14
3.27866e-14
3.2901e-14
3.27879e-14
3.28988e-14
3.27886e-14
3.28966e-14
3.27892e-14
3.28957e-14
3.27898e-14
3.28949e-14
3.27893e-14
3.28935e-14
3.27893e-14
3.28921e-14
3.27896e-14
3.28916e-14
3.27893e-14
3.28925e-14
3.27888e-14
3.28929e-14
3.27877e-14
3.28935e-14
3.27882e-14
3.28934e-14
3.27881e-14
3.28945e-14
3.27868e-14
3.28963e-14
3.27863e-14
3.28972e-14
3.27865e-14
3.28967e-14
3.27871e-14
3.2896e-14
3.2787e-14
3.28962e-14
3.27862e-14
3.28968e-14
3.27868e-14
3.2897e-14
3.27867e-14
3.28966e-14
3.27867e-14
3.28961e-14
3.27874e-14
3.28959e-14
3.2788e-14
3.28962e-14
3.27883e-14
3.28962e-14
3.27883e-14
3.28959e-14
3.27883e-14
3.28957e-14
3.27884e-14
3.28954e-14
3.27882e-14
3.28955e-14
3.2788e-14
3.28956e-14
3.27882e-14
3.28956e-14
3.27882e-14
3.28954e-14
3.27878e-14
3.28952e-14
3.27876e-14
3.28952e-14
3.27875e-14
3.28952e-14
3.27873e-14
3.28953e-14
3.27873e-14
3.28954e-14
3.27871e-14
3.28956e-14
3.27869e-14
3.28957e-14
3.27868e-14
3.28957e-14
3.27868e-14
3.28956e-14
3.27867e-14
3.28957e-14
3.27866e-14
3.28959e-14
3.27866e-14
3.28959e-14
3.27866e-14
3.2896e-14
3.27865e-14
3.28961e-14
3.27865e-14
3.28962e-14
3.27866e-14
3.28962e-14
3.27866e-14
3.28963e-14
3.27866e-14
3.28963e-14
3.27866e-14
3.28964e-14
3.27866e-14
3.28964e-14
3.27865e-14
3.28964e-14
3.27866e-14
3.28965e-14
3.27865e-14
3.28965e-14
3.27865e-14
3.28966e-14
3.27865e-14
3.28966e-14
3.27864e-14
3.28966e-14
3.27864e-14
3.28967e-14
3.27864e-14
3.28967e-14
3.27864e-14
3.28967e-14
3.27863e-14
3.28968e-14
3.27863e-14
3.28968e-14
)
;

boundaryField
{
    walls
    {
        type            zeroGradient;
    }
    inlet
    {
        type            cyclic;
    }
    outlet
    {
        type            cyclic;
    }
    sides
    {
        type            empty;
    }
}


// ************************************************************************* //
