/*--------------------------------*- C++ -*----------------------------------*\
| =========                 |                                                 |
| \\      /  F ield         | OpenFOAM: The Open Source CFD Toolbox           |
|  \\    /   O peration     | Version:  2106                                  |
|   \\  /    A nd           | Website:  www.openfoam.com                      |
|    \\/     M anipulation  |                                                 |
\*---------------------------------------------------------------------------*/
FoamFile
{
    version     2.0;
    format      ascii;
    arch        "LSB;label=32;scalar=64";
    class       volSymmTensorField;
    location    "10070";
    object      turbulenceProperties:R;
}
// * * * * * * * * * * * * * * * * * * * * * * * * * * * * * * * * * * * * * //

dimensions      [0 2 -2 0 0 0 0];

internalField   nonuniform List<symmTensor> 
2000
(
(7.06127e-07 -1.74488e-10 -3.22944e-13 7.06127e-07 1.495e-24 7.06127e-07)
(7.06127e-07 -1.74488e-10 -3.22944e-13 7.06127e-07 2.78972e-25 7.06127e-07)
(1.48197e-07 -2.10953e-10 -1.17867e-12 1.48197e-07 2.42706e-25 1.48197e-07)
(1.48197e-07 -2.10953e-10 -1.17867e-12 1.48197e-07 2.60637e-25 1.48197e-07)
(3.55702e-07 -1.49911e-09 -1.16218e-11 3.55702e-07 1.04007e-24 3.55702e-07)
(3.55702e-07 -1.49911e-09 -1.16218e-11 3.55702e-07 1.76477e-25 3.55702e-07)
(1.21957e-06 -1.09428e-08 -8.64162e-11 1.21957e-06 6.95356e-24 1.21957e-06)
(1.21957e-06 -1.09428e-08 -8.64162e-11 1.21957e-06 1.31131e-24 1.21957e-06)
(3.18939e-06 -5.06836e-08 -4.07719e-10 3.18939e-06 2.8838e-23 3.18939e-06)
(3.18939e-06 -5.06836e-08 -4.07719e-10 3.18939e-06 6.19427e-24 3.18939e-06)
(6.86405e-06 -1.72346e-07 -1.41226e-09 6.86405e-06 9.89299e-23 6.86405e-06)
(6.86405e-06 -1.72346e-07 -1.41226e-09 6.86405e-06 2.14776e-23 6.86405e-06)
(1.29598e-05 -4.76087e-07 -3.97382e-09 1.29598e-05 2.77702e-22 1.29598e-05)
(1.29598e-05 -4.76087e-07 -3.97382e-09 1.29598e-05 6.03978e-23 1.29598e-05)
(2.23065e-05 -1.13446e-06 -9.64495e-09 2.23065e-05 6.73709e-22 2.23065e-05)
(2.23065e-05 -1.13446e-06 -9.64495e-09 2.23065e-05 1.46213e-22 2.23065e-05)
(3.58462e-05 -2.42045e-06 -2.09587e-08 3.58462e-05 1.4531e-21 3.58462e-05)
(3.58462e-05 -2.42045e-06 -2.09587e-08 3.58462e-05 3.16199e-22 3.58462e-05)
(5.46278e-05 -4.73767e-06 -4.1778e-08 5.46278e-05 2.86022e-21 5.46278e-05)
(5.46278e-05 -4.73767e-06 -4.1778e-08 5.46278e-05 6.23922e-22 5.46278e-05)
(7.97937e-05 -8.6488e-06 -7.76597e-08 7.97937e-05 5.21513e-21 7.97937e-05)
(7.97937e-05 -8.6488e-06 -7.76597e-08 7.97937e-05 1.13757e-21 7.97937e-05)
(0.000112555 -1.48958e-05 -1.36171e-07 0.000112555 8.88588e-21 0.000112555)
(0.000112555 -1.48958e-05 -1.36171e-07 0.000112555 1.93778e-21 0.000112555)
(0.000154152 -2.44027e-05 -2.27063e-07 0.000154152 1.42217e-20 0.000154152)
(0.000154152 -2.44027e-05 -2.27063e-07 0.000154152 3.1001e-21 0.000154152)
(0.000205795 -3.82511e-05 -3.62187e-07 0.000205795 2.14265e-20 0.000205795)
(0.000205795 -3.82511e-05 -3.62187e-07 0.000205795 4.66589e-21 0.000205795)
(0.000268586 -5.76185e-05 -5.55024e-07 0.000268586 3.0388e-20 0.000268586)
(0.000268586 -5.76185e-05 -5.55024e-07 0.000268586 6.59872e-21 0.000268586)
(0.000343428 -8.36767e-05 -8.19775e-07 0.000343428 4.04921e-20 0.000343428)
(0.000343428 -8.36767e-05 -8.19775e-07 0.000343428 8.77013e-21 0.000343428)
(0.000430918 -0.000117456 -1.17003e-06 0.000430918 5.04567e-20 0.000430918)
(0.000430918 -0.000117456 -1.17003e-06 0.000430918 1.09091e-20 0.000430918)
(0.000531261 -0.000159698 -1.61717e-06 0.000531261 5.84363e-20 0.000531261)
(0.000531261 -0.000159698 -1.61717e-06 0.000531261 1.25997e-20 0.000531261)
(0.000644192 -0.000210719 -2.16886e-06 0.000644192 6.21111e-20 0.000644192)
(0.000644192 -0.000210719 -2.16886e-06 0.000644192 1.33346e-20 0.000644192)
(0.000768951 -0.000270331 -2.82794e-06 0.000768951 5.90571e-20 0.000768951)
(0.000768951 -0.000270331 -2.82794e-06 0.000768951 1.2533e-20 0.000768951)
(0.000904305 -0.000337827 -3.59193e-06 0.000904305 4.73164e-20 0.000904305)
(0.000904305 -0.000337827 -3.59193e-06 0.000904305 9.88796e-21 0.000904305)
(0.00104862 -0.000412048 -4.45339e-06 0.00104862 1.78646e-20 0.00104862)
(0.00104862 -0.000412048 -4.45339e-06 0.00104862 5.10455e-21 0.00104862)
(0.00119999 -0.000491515 -5.40095e-06 0.00119999 2.47896e-21 0.00119999)
(0.00119999 -0.000491515 -5.40095e-06 0.00119999 -1.63276e-21 0.00119999)
(0.00135633 -0.000574584 -6.42068e-06 0.00135633 -4.38176e-20 0.00135633)
(0.00135633 -0.000574584 -6.42068e-06 0.00135633 -1.00136e-20 0.00135633)
(0.00151557 -0.000659608 -7.49761e-06 0.00151557 -8.86387e-20 0.00151557)
(0.00151557 -0.000659608 -7.49761e-06 0.00151557 -1.94232e-20 0.00151557)
(0.00167575 -0.000745061 -8.61702e-06 0.00167575 -1.37034e-19 0.00167575)
(0.00167575 -0.000745061 -8.61702e-06 0.00167575 -2.91021e-20 0.00167575)
(0.00183508 -0.000829624 -9.76541e-06 0.00183508 -1.85762e-19 0.00183508)
(0.00183508 -0.000829624 -9.76541e-06 0.00183508 -3.98213e-20 0.00183508)
(0.00199204 -0.00091223 -1.09311e-05 0.00199204 -2.32438e-19 0.00199204)
(0.00199204 -0.00091223 -1.09311e-05 0.00199204 -5.00066e-20 0.00199204)
(0.00214537 -0.000992069 -1.21045e-05 0.00214537 -2.74769e-19 0.00214537)
(0.00214537 -0.000992069 -1.21045e-05 0.00214537 -5.77553e-20 0.00214537)
(0.0022941 -0.00106857 -1.32781e-05 0.0022941 -3.113e-19 0.0022941)
(0.0022941 -0.00106857 -1.32781e-05 0.0022941 -6.34347e-20 0.0022941)
(0.00243751 -0.00114137 -1.44463e-05 0.00243751 -3.41342e-19 0.00243751)
(0.00243751 -0.00114137 -1.44463e-05 0.00243751 -6.79097e-20 0.00243751)
(0.00257509 -0.00121027 -1.5605e-05 0.00257509 -3.63607e-19 0.00257509)
(0.00257509 -0.00121027 -1.5605e-05 0.00257509 -7.11492e-20 0.00257509)
(0.00270655 -0.00127521 -1.67518e-05 0.00270655 -3.78164e-19 0.00270655)
(0.00270655 -0.00127521 -1.67518e-05 0.00270655 -7.15387e-20 0.00270655)
(0.00283173 -0.00133622 -1.78852e-05 0.00283173 -3.85217e-19 0.00283173)
(0.00283173 -0.00133622 -1.78852e-05 0.00283173 -7.11572e-20 0.00283173)
(0.00295062 -0.00139341 -1.90045e-05 0.00295062 -3.84492e-19 0.00295062)
(0.00295062 -0.00139341 -1.90045e-05 0.00295062 -6.99239e-20 0.00295062)
(0.00306329 -0.00144693 -2.01097e-05 0.00306329 -3.76902e-19 0.00306329)
(0.00306329 -0.00144693 -2.01097e-05 0.00306329 -6.55879e-20 0.00306329)
(0.00316989 -0.00149696 -2.12015e-05 0.00316989 -3.62607e-19 0.00316989)
(0.00316989 -0.00149696 -2.12015e-05 0.00316989 -5.85272e-20 0.00316989)
(0.00327062 -0.0015437 -2.22805e-05 0.00327062 -3.42539e-19 0.00327062)
(0.00327062 -0.0015437 -2.22805e-05 0.00327062 -5.07391e-20 0.00327062)
(0.00336572 -0.00158734 -2.3348e-05 0.00336572 -3.17204e-19 0.00336572)
(0.00336572 -0.00158734 -2.3348e-05 0.00336572 -4.57935e-20 0.00336572)
(0.00345544 -0.00162811 -2.44051e-05 0.00345544 -2.85695e-19 0.00345544)
(0.00345544 -0.00162811 -2.44051e-05 0.00345544 -3.83731e-20 0.00345544)
(0.00354005 -0.00166619 -2.54531e-05 0.00354005 -2.52375e-19 0.00354005)
(0.00354005 -0.00166619 -2.54531e-05 0.00354005 -2.77273e-20 0.00354005)
(0.00361982 -0.00170177 -2.64933e-05 0.00361982 -2.15167e-19 0.00361982)
(0.00361982 -0.00170177 -2.64933e-05 0.00361982 -1.7612e-20 0.00361982)
(0.00369502 -0.00173504 -2.75272e-05 0.00369502 -1.74246e-19 0.00369502)
(0.00369502 -0.00173504 -2.75272e-05 0.00369502 -4.34317e-21 0.00369502)
(0.00376593 -0.00176616 -2.85561e-05 0.00376593 -1.2632e-19 0.00376593)
(0.00376593 -0.00176616 -2.85561e-05 0.00376593 1.10166e-20 0.00376593)
(0.00383279 -0.0017953 -2.95812e-05 0.00383279 -7.14922e-20 0.00383279)
(0.00383279 -0.0017953 -2.95812e-05 0.00383279 2.87062e-20 0.00383279)
(0.00389585 -0.00182259 -3.06038e-05 0.00389585 -1.82586e-20 0.00389585)
(0.00389585 -0.00182259 -3.06038e-05 0.00389585 4.69664e-20 0.00389585)
(0.00395534 -0.00184818 -3.16252e-05 0.00395534 3.30625e-20 0.00395534)
(0.00395534 -0.00184818 -3.16252e-05 0.00395534 6.4038e-20 0.00395534)
(0.00401149 -0.00187218 -3.26464e-05 0.00401149 9.06866e-20 0.00401149)
(0.00401149 -0.00187218 -3.26464e-05 0.00401149 9.16771e-20 0.00401149)
(0.0040645 -0.00189472 -3.36687e-05 0.0040645 1.58001e-19 0.0040645)
(0.0040645 -0.00189472 -3.36687e-05 0.0040645 1.27817e-19 0.0040645)
(0.00411457 -0.0019159 -3.4693e-05 0.00411457 2.23336e-19 0.00411457)
(0.00411457 -0.0019159 -3.4693e-05 0.00411457 1.46287e-19 0.00411457)
(0.00416188 -0.00193582 -3.57204e-05 0.00416188 2.93789e-19 0.00416188)
(0.00416188 -0.00193582 -3.57204e-05 0.00416188 1.60111e-19 0.00416188)
(0.0042066 -0.00195456 -3.67519e-05 0.0042066 3.67017e-19 0.0042066)
(0.0042066 -0.00195456 -3.67519e-05 0.0042066 2.04654e-19 0.0042066)
(0.0042489 -0.00197221 -3.77883e-05 0.0042489 4.43607e-19 0.0042489)
(0.0042489 -0.00197221 -3.77883e-05 0.0042489 2.42911e-19 0.0042489)
(0.00428891 -0.00198884 -3.88305e-05 0.00428891 5.27347e-19 0.00428891)
(0.00428891 -0.00198884 -3.88305e-05 0.00428891 2.64476e-19 0.00428891)
(0.00432679 -0.00200452 -3.98794e-05 0.00432679 6.121e-19 0.00432679)
(0.00432679 -0.00200452 -3.98794e-05 0.00432679 3.11123e-19 0.00432679)
(0.00436265 -0.00201932 -4.09357e-05 0.00436265 6.93059e-19 0.00436265)
(0.00436265 -0.00201932 -4.09357e-05 0.00436265 3.52867e-19 0.00436265)
(0.00439662 -0.00203329 -4.20002e-05 0.00439662 7.71404e-19 0.00439662)
(0.00439662 -0.00203329 -4.20002e-05 0.00439662 3.83238e-19 0.00439662)
(0.00442881 -0.00204649 -4.30737e-05 0.00442881 8.63531e-19 0.00442881)
(0.00442881 -0.00204649 -4.30737e-05 0.00442881 4.07893e-19 0.00442881)
(0.00445932 -0.00205896 -4.41568e-05 0.00445932 9.56857e-19 0.00445932)
(0.00445932 -0.00205896 -4.41568e-05 0.00445932 4.20847e-19 0.00445932)
(0.00448825 -0.00207076 -4.52503e-05 0.00448825 1.05478e-18 0.00448825)
(0.00448825 -0.00207076 -4.52503e-05 0.00448825 4.6491e-19 0.00448825)
(0.00451568 -0.00208192 -4.63547e-05 0.00451568 1.14817e-18 0.00451568)
(0.00451568 -0.00208192 -4.63547e-05 0.00451568 5.45012e-19 0.00451568)
(0.00454171 -0.00209247 -4.74707e-05 0.00454171 1.22759e-18 0.00454171)
(0.00454171 -0.00209247 -4.74707e-05 0.00454171 5.87739e-19 0.00454171)
(0.00456641 -0.00210247 -4.85989e-05 0.00456641 1.30976e-18 0.00456641)
(0.00456641 -0.00210247 -4.85989e-05 0.00456641 5.88483e-19 0.00456641)
(0.00458985 -0.00211193 -4.97399e-05 0.00458985 1.40063e-18 0.00458985)
(0.00458985 -0.00211193 -4.97399e-05 0.00458985 6.01709e-19 0.00458985)
(0.00461209 -0.00212089 -5.08943e-05 0.00461209 1.50585e-18 0.00461209)
(0.00461209 -0.00212089 -5.08943e-05 0.00461209 6.42025e-19 0.00461209)
(0.0046332 -0.00212938 -5.20625e-05 0.0046332 1.61314e-18 0.0046332)
(0.0046332 -0.00212938 -5.20625e-05 0.0046332 7.11636e-19 0.0046332)
(0.00465325 -0.00213742 -5.32453e-05 0.00465325 1.70438e-18 0.00465325)
(0.00465325 -0.00213742 -5.32453e-05 0.00465325 7.54935e-19 0.00465325)
(0.00467227 -0.00214504 -5.4443e-05 0.00467227 1.80161e-18 0.00467227)
(0.00467227 -0.00214504 -5.4443e-05 0.00467227 7.59921e-19 0.00467227)
(0.00469033 -0.00215226 -5.56563e-05 0.00469033 1.90625e-18 0.00469033)
(0.00469033 -0.00215226 -5.56563e-05 0.00469033 8.32808e-19 0.00469033)
(0.00470747 -0.0021591 -5.68856e-05 0.00470747 2.0048e-18 0.00470747)
(0.00470747 -0.0021591 -5.68856e-05 0.00470747 1.02831e-18 0.00470747)
(0.00472373 -0.00216557 -5.81314e-05 0.00472373 2.11169e-18 0.00472373)
(0.00472373 -0.00216557 -5.81314e-05 0.00472373 1.1148e-18 0.00472373)
(0.00473915 -0.00217171 -5.93942e-05 0.00473915 2.23882e-18 0.00473915)
(0.00473915 -0.00217171 -5.93942e-05 0.00473915 1.15417e-18 0.00473915)
(0.00475378 -0.00217751 -6.06745e-05 0.00475378 2.36346e-18 0.00475378)
(0.00475378 -0.00217751 -6.06745e-05 0.00475378 1.1343e-18 0.00475378)
(0.00476765 -0.002183 -6.19728e-05 0.00476765 2.49218e-18 0.00476765)
(0.00476765 -0.002183 -6.19728e-05 0.00476765 1.14663e-18 0.00476765)
(0.00478079 -0.0021882 -6.32895e-05 0.00478079 2.62517e-18 0.00478079)
(0.00478079 -0.0021882 -6.32895e-05 0.00478079 1.19854e-18 0.00478079)
(0.00479323 -0.00219311 -6.46252e-05 0.00479323 2.74778e-18 0.00479323)
(0.00479323 -0.00219311 -6.46252e-05 0.00479323 1.35123e-18 0.00479323)
(0.00480501 -0.00219775 -6.59803e-05 0.00480501 2.87949e-18 0.00480501)
(0.00480501 -0.00219775 -6.59803e-05 0.00480501 1.4234e-18 0.00480501)
(0.00481614 -0.00220213 -6.73552e-05 0.00481614 3.0281e-18 0.00481614)
(0.00481614 -0.00220213 -6.73552e-05 0.00481614 1.4232e-18 0.00481614)
(0.00482666 -0.00220625 -6.87503e-05 0.00482666 3.18967e-18 0.00482666)
(0.00482666 -0.00220625 -6.87503e-05 0.00482666 1.35718e-18 0.00482666)
(0.00483659 -0.00221014 -7.01663e-05 0.00483659 3.35429e-18 0.00483659)
(0.00483659 -0.00221014 -7.01663e-05 0.00483659 1.59026e-18 0.00483659)
(0.00484596 -0.0022138 -7.16034e-05 0.00484596 3.49484e-18 0.00484596)
(0.00484596 -0.0022138 -7.16034e-05 0.00484596 1.72143e-18 0.00484596)
(0.00485477 -0.00221723 -7.30622e-05 0.00485477 3.64815e-18 0.00485477)
(0.00485477 -0.00221723 -7.30622e-05 0.00485477 1.75714e-18 0.00485477)
(0.00486306 -0.00222045 -7.4543e-05 0.00486306 3.80612e-18 0.00486306)
(0.00486306 -0.00222045 -7.4543e-05 0.00486306 1.64057e-18 0.00486306)
(0.00487084 -0.00222347 -7.60464e-05 0.00487084 3.9373e-18 0.00487084)
(0.00487084 -0.00222347 -7.60464e-05 0.00487084 1.71298e-18 0.00487084)
(0.00487813 -0.00222628 -7.75728e-05 0.00487813 4.09943e-18 0.00487813)
(0.00487813 -0.00222628 -7.75728e-05 0.00487813 1.94195e-18 0.00487813)
(0.00488494 -0.00222891 -7.91225e-05 0.00488494 4.23513e-18 0.00488494)
(0.00488494 -0.00222891 -7.91225e-05 0.00488494 2.11943e-18 0.00488494)
(0.0048913 -0.00223134 -8.06961e-05 0.0048913 4.39002e-18 0.0048913)
(0.0048913 -0.00223134 -8.06961e-05 0.0048913 2.24061e-18 0.0048913)
(0.00489721 -0.0022336 -8.2294e-05 0.00489721 4.58902e-18 0.00489721)
(0.00489721 -0.0022336 -8.2294e-05 0.00489721 2.27096e-18 0.00489721)
(0.00490268 -0.00223567 -8.39166e-05 0.00490268 2.24492e-19 0.00490268)
(0.00490268 -0.00223567 -8.39166e-05 0.00490268 2.20559e-18 0.00490268)
(0.00490774 -0.00223758 -8.55644e-05 0.00490774 -4.31299e-18 0.00490774)
(0.00490774 -0.00223758 -8.55644e-05 0.00490774 2.1516e-18 0.00490774)
(0.00491239 -0.00223932 -8.72377e-05 0.00491239 -5.49859e-18 0.00491239)
(0.00491239 -0.00223932 -8.72377e-05 0.00491239 2.13237e-18 0.00491239)
(0.00491664 -0.00224091 -8.8937e-05 0.00491664 -5.45487e-18 0.00491664)
(0.00491664 -0.00224091 -8.8937e-05 0.00491664 2.25511e-18 0.00491664)
(0.00492051 -0.00224233 -9.06628e-05 0.00492051 -5.57466e-18 0.00492051)
(0.00492051 -0.00224233 -9.06628e-05 0.00492051 2.46065e-18 0.00492051)
(0.00492399 -0.0022436 -9.24155e-05 0.00492399 -5.71314e-18 0.00492399)
(0.00492399 -0.0022436 -9.24155e-05 0.00492399 2.35454e-18 0.00492399)
(0.00492712 -0.00224471 -9.41955e-05 0.00492712 -5.66785e-18 0.00492712)
(0.00492712 -0.00224471 -9.41955e-05 0.00492712 2.27889e-18 0.00492712)
(0.00492988 -0.00224568 -9.60032e-05 0.00492988 -5.59866e-18 0.00492988)
(0.00492988 -0.00224568 -9.60032e-05 0.00492988 2.33374e-18 0.00492988)
(0.00493229 -0.00224651 -9.78391e-05 0.00493229 -5.6327e-18 0.00493229)
(0.00493229 -0.00224651 -9.78391e-05 0.00493229 2.24332e-18 0.00493229)
(0.00493435 -0.00224719 -9.97035e-05 0.00493435 -5.75803e-18 0.00493435)
(0.00493435 -0.00224719 -9.97035e-05 0.00493435 2.20357e-18 0.00493435)
(0.00493608 -0.00224774 -0.000101597 0.00493608 -5.5217e-18 0.00493608)
(0.00493608 -0.00224774 -0.000101597 0.00493608 2.13953e-18 0.00493608)
(0.00493748 -0.00224815 -0.00010352 0.00493748 -5.31859e-18 0.00493748)
(0.00493748 -0.00224815 -0.00010352 0.00493748 1.97705e-18 0.00493748)
(0.00493855 -0.00224842 -0.000105473 0.00493855 -5.39012e-18 0.00493855)
(0.00493855 -0.00224842 -0.000105473 0.00493855 2.18284e-18 0.00493855)
(0.0049393 -0.00224856 -0.000107456 0.0049393 -5.3015e-18 0.0049393)
(0.0049393 -0.00224856 -0.000107456 0.0049393 2.43938e-18 0.0049393)
(0.00493974 -0.00224857 -0.00010947 0.00493974 -5.40822e-18 0.00493974)
(0.00493974 -0.00224857 -0.00010947 0.00493974 2.40181e-18 0.00493974)
(0.00493987 -0.00224845 -0.000111515 0.00493987 -5.63779e-18 0.00493987)
(0.00493987 -0.00224845 -0.000111515 0.00493987 2.28164e-18 0.00493987)
(0.0049397 -0.00224821 -0.000113591 0.0049397 -5.59821e-18 0.0049397)
(0.0049397 -0.00224821 -0.000113591 0.0049397 2.35803e-18 0.0049397)
(0.00493922 -0.00224783 -0.000115699 0.00493922 -5.40551e-18 0.00493922)
(0.00493922 -0.00224783 -0.000115699 0.00493922 4.88743e-18 0.00493922)
(0.00493845 -0.00224733 -0.00011784 0.00493845 -5.16655e-18 0.00493845)
(0.00493845 -0.00224733 -0.00011784 0.00493845 5.19887e-18 0.00493845)
(0.00493738 -0.00224671 -0.000120014 0.00493738 -3.46887e-18 0.00493738)
(0.00493738 -0.00224671 -0.000120014 0.00493738 5.4951e-18 0.00493738)
(0.00493602 -0.00224596 -0.000122221 0.00493602 -1.91857e-18 0.00493602)
(0.00493602 -0.00224596 -0.000122221 0.00493602 5.6483e-18 0.00493602)
(0.00493438 -0.00224509 -0.000124461 0.00493438 -1.86235e-18 0.00493438)
(0.00493438 -0.00224509 -0.000124461 0.00493438 5.79407e-18 0.00493438)
(0.00493245 -0.0022441 -0.000126735 0.00493245 -1.98942e-18 0.00493245)
(0.00493245 -0.0022441 -0.000126735 0.00493245 6.1197e-18 0.00493245)
(0.00493024 -0.00224299 -0.000129044 0.00493024 -2.30119e-18 0.00493024)
(0.00493024 -0.00224299 -0.000129044 0.00493024 6.32357e-18 0.00493024)
(0.00492775 -0.00224176 -0.000131388 0.00492775 -2.39319e-18 0.00492775)
(0.00492775 -0.00224176 -0.000131388 0.00492775 6.30222e-18 0.00492775)
(0.00492498 -0.00224041 -0.000133766 0.00492498 -3.13598e-18 0.00492498)
(0.00492498 -0.00224041 -0.000133766 0.00492498 6.40544e-18 0.00492498)
(0.00492193 -0.00223893 -0.00013618 0.00492193 -4.23311e-18 0.00492193)
(0.00492193 -0.00223893 -0.00013618 0.00492193 6.83361e-18 0.00492193)
(0.00491861 -0.00223734 -0.000138631 0.00491861 -4.98622e-18 0.00491861)
(0.00491861 -0.00223734 -0.000138631 0.00491861 7.04995e-18 0.00491861)
(0.00491501 -0.00223563 -0.000141117 0.00491501 -4.93744e-18 0.00491501)
(0.00491501 -0.00223563 -0.000141117 0.00491501 7.41559e-18 0.00491501)
(0.00491114 -0.0022338 -0.00014364 0.00491114 -4.31715e-18 0.00491114)
(0.00491114 -0.0022338 -0.00014364 0.00491114 7.74501e-18 0.00491114)
(0.004907 -0.00223185 -0.0001462 0.004907 -4.04924e-18 0.004907)
(0.004907 -0.00223185 -0.0001462 0.004907 8.15549e-18 0.004907)
(0.00490259 -0.00222977 -0.000148797 0.00490259 -3.83585e-18 0.00490259)
(0.00490259 -0.00222977 -0.000148797 0.00490259 8.49691e-18 0.00490259)
(0.0048979 -0.00222758 -0.000151432 0.0048979 -3.48895e-18 0.0048979)
(0.0048979 -0.00222758 -0.000151432 0.0048979 8.75086e-18 0.0048979)
(0.00489295 -0.00222527 -0.000154105 0.00489295 -2.91853e-18 0.00489295)
(0.00489295 -0.00222527 -0.000154105 0.00489295 9.02384e-18 0.00489295)
(0.00488772 -0.00222283 -0.000156816 0.00488772 -2.36654e-18 0.00488772)
(0.00488772 -0.00222283 -0.000156816 0.00488772 9.24536e-18 0.00488772)
(0.00488223 -0.00222028 -0.000159566 0.00488223 -1.96254e-18 0.00488223)
(0.00488223 -0.00222028 -0.000159566 0.00488223 9.41284e-18 0.00488223)
(0.00487646 -0.0022176 -0.000162355 0.00487646 -1.28634e-18 0.00487646)
(0.00487646 -0.0022176 -0.000162355 0.00487646 9.6116e-18 0.00487646)
(0.00487043 -0.0022148 -0.000165182 0.00487043 -4.45825e-19 0.00487043)
(0.00487043 -0.0022148 -0.000165182 0.00487043 9.98979e-18 0.00487043)
(0.00486412 -0.00221187 -0.00016805 0.00486412 1.98473e-21 0.00486412)
(0.00486412 -0.00221187 -0.00016805 0.00486412 9.95322e-18 0.00486412)
(0.00485754 -0.00220883 -0.000170957 0.00485754 2.83671e-20 0.00485754)
(0.00485754 -0.00220883 -0.000170957 0.00485754 9.8312e-18 0.00485754)
(0.00485069 -0.00220565 -0.000173904 0.00485069 -2.49735e-19 0.00485069)
(0.00485069 -0.00220565 -0.000173904 0.00485069 1.07131e-17 0.00485069)
(0.00484356 -0.00220235 -0.000176891 0.00484356 -8.9183e-20 0.00484356)
(0.00484356 -0.00220235 -0.000176891 0.00484356 1.19002e-17 0.00484356)
(0.00483616 -0.00219893 -0.000179918 0.00483616 1.86068e-21 0.00483616)
(0.00483616 -0.00219893 -0.000179918 0.00483616 1.13638e-17 0.00483616)
(0.00482848 -0.00219537 -0.000182986 0.00482848 -4.46592e-19 0.00482848)
(0.00482848 -0.00219537 -0.000182986 0.00482848 1.05072e-17 0.00482848)
(0.00482053 -0.00219169 -0.000186094 0.00482053 -7.37915e-19 0.00482053)
(0.00482053 -0.00219169 -0.000186094 0.00482053 1.1967e-17 0.00482053)
(0.0048123 -0.00218788 -0.000189244 0.0048123 -9.22976e-19 0.0048123)
(0.0048123 -0.00218788 -0.000189244 0.0048123 1.34205e-17 0.0048123)
(0.00480378 -0.00218393 -0.000192434 0.00480378 -1.26115e-18 0.00480378)
(0.00480378 -0.00218393 -0.000192434 0.00480378 1.28809e-17 0.00480378)
(0.00479499 -0.00217985 -0.000195666 0.00479499 -1.91912e-18 0.00479499)
(0.00479499 -0.00217985 -0.000195666 0.00479499 1.27537e-17 0.00479499)
(0.00478591 -0.00217564 -0.000198938 0.00478591 -2.13459e-18 0.00478591)
(0.00478591 -0.00217564 -0.000198938 0.00478591 1.34697e-17 0.00478591)
(0.00477655 -0.00217129 -0.000202252 0.00477655 -1.03121e-18 0.00477655)
(0.00477655 -0.00217129 -0.000202252 0.00477655 1.3211e-17 0.00477655)
(0.0047669 -0.00216681 -0.000205607 0.0047669 4.18126e-19 0.0047669)
(0.0047669 -0.00216681 -0.000205607 0.0047669 1.19066e-17 0.0047669)
(0.00475697 -0.00216219 -0.000209003 0.00475697 5.23238e-19 0.00475697)
(0.00475697 -0.00216219 -0.000209003 0.00475697 1.43173e-17 0.00475697)
(0.00474674 -0.00215742 -0.00021244 0.00474674 -6.51466e-19 0.00474674)
(0.00474674 -0.00215742 -0.00021244 0.00474674 1.52364e-17 0.00474674)
(0.00473622 -0.00215252 -0.000215918 0.00473622 -2.07531e-19 0.00473622)
(0.00473622 -0.00215252 -0.000215918 0.00473622 1.61911e-17 0.00473622)
(0.0047254 -0.00214747 -0.000219438 0.0047254 -3.18796e-19 0.0047254)
(0.0047254 -0.00214747 -0.000219438 0.0047254 1.40539e-17 0.0047254)
(0.00471428 -0.00214228 -0.000222998 0.00471428 -1.02739e-18 0.00471428)
(0.00471428 -0.00214228 -0.000222998 0.00471428 1.56267e-17 0.00471428)
(0.00470287 -0.00213694 -0.000226599 0.00470287 -1.39846e-18 0.00470287)
(0.00470287 -0.00213694 -0.000226599 0.00470287 1.67023e-17 0.00470287)
(0.00469115 -0.00213145 -0.00023024 0.00469115 7.85157e-21 0.00469115)
(0.00469115 -0.00213145 -0.00023024 0.00469115 1.67814e-17 0.00469115)
(0.00467912 -0.00212581 -0.000233921 0.00467912 8.71631e-20 0.00467912)
(0.00467912 -0.00212581 -0.000233921 0.00467912 1.60117e-17 0.00467912)
(0.00466678 -0.00212002 -0.000237643 0.00466678 -1.2775e-18 0.00466678)
(0.00466678 -0.00212002 -0.000237643 0.00466678 1.77398e-17 0.00466678)
(0.00465414 -0.00211407 -0.000241404 0.00465414 -6.45611e-19 0.00465414)
(0.00465414 -0.00211407 -0.000241404 0.00465414 1.8207e-17 0.00465414)
(0.00464117 -0.00210797 -0.000245204 0.00464117 1.59522e-18 0.00464117)
(0.00464117 -0.00210797 -0.000245204 0.00464117 1.59314e-17 0.00464117)
(0.00462789 -0.00210171 -0.000249042 0.00462789 2.65246e-18 0.00462789)
(0.00462789 -0.00210171 -0.000249042 0.00462789 1.65542e-17 0.00462789)
(0.00461429 -0.00209529 -0.000252919 0.00461429 9.23793e-19 0.00461429)
(0.00461429 -0.00209529 -0.000252919 0.00461429 1.85992e-17 0.00461429)
(0.00460036 -0.0020887 -0.000256834 0.00460036 -3.25439e-33 0.00460036)
(0.00460036 -0.0020887 -0.000256834 0.00460036 1.97245e-17 0.00460036)
(0.0045861 -0.00208195 -0.000260785 0.0045861 2.91208e-19 0.0045861)
(0.0045861 -0.00208195 -0.000260785 0.0045861 2.08731e-17 0.0045861)
(0.00457151 -0.00207503 -0.000264773 0.00457151 1.64034e-18 0.00457151)
(0.00457151 -0.00207503 -0.000264773 0.00457151 2.12316e-17 0.00457151)
(0.00455658 -0.00206794 -0.000268797 0.00455658 1.50494e-18 0.00455658)
(0.00455658 -0.00206794 -0.000268797 0.00455658 2.14257e-17 0.00455658)
(0.00454132 -0.00206068 -0.000272855 0.00454132 1.86064e-18 0.00454132)
(0.00454132 -0.00206068 -0.000272855 0.00454132 2.00721e-17 0.00454132)
(0.00452571 -0.00205324 -0.000276947 0.00452571 4.81654e-19 0.00452571)
(0.00452571 -0.00205324 -0.000276947 0.00452571 2.08139e-17 0.00452571)
(0.00450975 -0.00204562 -0.000281072 0.00450975 2.5875e-18 0.00450975)
(0.00450975 -0.00204562 -0.000281072 0.00450975 2.51111e-17 0.00450975)
(0.00449344 -0.00203783 -0.000285229 0.00449344 3.04857e-18 0.00449344)
(0.00449344 -0.00203783 -0.000285229 0.00449344 2.6251e-17 0.00449344)
(0.00447678 -0.00202985 -0.000289417 0.00447678 2.46669e-18 0.00447678)
(0.00447678 -0.00202985 -0.000289417 0.00447678 2.48283e-17 0.00447678)
(0.00445975 -0.00202168 -0.000293635 0.00445975 3.30007e-18 0.00445975)
(0.00445975 -0.00202168 -0.000293635 0.00445975 2.50826e-17 0.00445975)
(0.00444236 -0.00201332 -0.000297881 0.00444236 2.20159e-18 0.00444236)
(0.00444236 -0.00201332 -0.000297881 0.00444236 2.79184e-17 0.00444236)
(0.00442461 -0.00200478 -0.000302153 0.00442461 2.11495e-18 0.00442461)
(0.00442461 -0.00200478 -0.000302153 0.00442461 2.70086e-17 0.00442461)
(0.00440647 -0.00199603 -0.000306452 0.00440647 2.71162e-18 0.00440647)
(0.00440647 -0.00199603 -0.000306452 0.00440647 2.37434e-17 0.00440647)
(0.00438796 -0.00198709 -0.000310774 0.00438796 2.79458e-18 0.00438796)
(0.00438796 -0.00198709 -0.000310774 0.00438796 2.67161e-17 0.00438796)
(0.00436907 -0.00197795 -0.000315118 0.00436907 8.12829e-19 0.00436907)
(0.00436907 -0.00197795 -0.000315118 0.00436907 3.02079e-17 0.00436907)
(0.00434979 -0.00196861 -0.000319483 0.00434979 4.05864e-19 0.00434979)
(0.00434979 -0.00196861 -0.000319483 0.00434979 3.03474e-17 0.00434979)
(0.00433011 -0.00195905 -0.000323866 0.00433011 2.40609e-19 0.00433011)
(0.00433011 -0.00195905 -0.000323866 0.00433011 3.13825e-17 0.00433011)
(0.00431004 -0.00194929 -0.000328265 0.00431004 -3.0584e-18 0.00431004)
(0.00431004 -0.00194929 -0.000328265 0.00431004 3.3626e-17 0.00431004)
(0.00428956 -0.00193931 -0.000332679 0.00428956 -6.0154e-18 0.00428956)
(0.00428956 -0.00193931 -0.000332679 0.00428956 3.59492e-17 0.00428956)
(0.00426867 -0.00192911 -0.000337105 0.00426867 1.07456e-18 0.00426867)
(0.00426867 -0.00192911 -0.000337105 0.00426867 3.69638e-17 0.00426867)
(0.00424737 -0.0019187 -0.00034154 0.00424737 3.15675e-18 0.00424737)
(0.00424737 -0.0019187 -0.00034154 0.00424737 3.61207e-17 0.00424737)
(0.00422565 -0.00190805 -0.000345982 0.00422565 2.12593e-18 0.00422565)
(0.00422565 -0.00190805 -0.000345982 0.00422565 3.55638e-17 0.00422565)
(0.00420351 -0.00189718 -0.000350429 0.00420351 1.23474e-18 0.00420351)
(0.00420351 -0.00189718 -0.000350429 0.00420351 3.54083e-17 0.00420351)
(0.00418093 -0.00188608 -0.000354876 0.00418093 1.10004e-18 0.00418093)
(0.00418093 -0.00188608 -0.000354876 0.00418093 3.59426e-17 0.00418093)
(0.00415792 -0.00187474 -0.000359322 0.00415792 1.49966e-18 0.00415792)
(0.00415792 -0.00187474 -0.000359322 0.00415792 3.6755e-17 0.00415792)
(0.00413446 -0.00186316 -0.000363763 0.00413446 -1.33897e-19 0.00413446)
(0.00413446 -0.00186316 -0.000363763 0.00413446 3.63797e-17 0.00413446)
(0.00411056 -0.00185134 -0.000368195 0.00411056 -1.21545e-18 0.00411056)
(0.00411056 -0.00185134 -0.000368195 0.00411056 3.79478e-17 0.00411056)
(0.0040862 -0.00183927 -0.000372616 0.0040862 -1.96233e-18 0.0040862)
(0.0040862 -0.00183927 -0.000372616 0.0040862 3.86852e-17 0.0040862)
(0.00406138 -0.00182694 -0.00037702 0.00406138 4.21037e-18 0.00406138)
(0.00406138 -0.00182694 -0.00037702 0.00406138 4.04453e-17 0.00406138)
(0.0040361 -0.00181436 -0.000381404 0.0040361 7.09506e-18 0.0040361)
(0.0040361 -0.00181436 -0.000381404 0.0040361 4.1084e-17 0.0040361)
(0.00401034 -0.00180152 -0.000385765 0.00401034 4.33894e-18 0.00401034)
(0.00401034 -0.00180152 -0.000385765 0.00401034 3.94984e-17 0.00401034)
(0.0039841 -0.00178842 -0.000390096 0.0039841 4.44059e-18 0.0039841)
(0.0039841 -0.00178842 -0.000390096 0.0039841 4.07891e-17 0.0039841)
(0.00395737 -0.00177504 -0.000394395 0.00395737 3.60879e-18 0.00395737)
(0.00395737 -0.00177504 -0.000394395 0.00395737 4.09025e-17 0.00395737)
(0.00393015 -0.0017614 -0.000398655 0.00393015 4.2198e-18 0.00393015)
(0.00393015 -0.0017614 -0.000398655 0.00393015 3.19295e-17 0.00393015)
(0.00390243 -0.00174747 -0.000402872 0.00390243 2.33782e-19 0.00390243)
(0.00390243 -0.00174747 -0.000402872 0.00390243 2.97756e-17 0.00390243)
(0.00387421 -0.00173326 -0.00040704 0.00387421 1.20991e-18 0.00387421)
(0.00387421 -0.00173326 -0.00040704 0.00387421 2.59838e-17 0.00387421)
(0.00384547 -0.00171876 -0.000411153 0.00384547 3.8714e-18 0.00384547)
(0.00384547 -0.00171876 -0.000411153 0.00384547 2.02854e-17 0.00384547)
(0.00381621 -0.00170396 -0.000415206 0.00381621 2.04898e-18 0.00381621)
(0.00381621 -0.00170396 -0.000415206 0.00381621 1.86071e-17 0.00381621)
(0.00378643 -0.00168887 -0.000419192 0.00378643 -3.42324e-19 0.00378643)
(0.00378643 -0.00168887 -0.000419192 0.00378643 1.62241e-17 0.00378643)
(0.00375611 -0.00167348 -0.000423105 0.00375611 1.23197e-19 0.00375611)
(0.00375611 -0.00167348 -0.000423105 0.00375611 1.45874e-17 0.00375611)
(0.00372526 -0.00165778 -0.000426937 0.00372526 2.33963e-18 0.00372526)
(0.00372526 -0.00165778 -0.000426937 0.00372526 1.01936e-17 0.00372526)
(0.00369386 -0.00164176 -0.000430681 0.00369386 -7.26747e-19 0.00369386)
(0.00369386 -0.00164176 -0.000430681 0.00369386 9.16981e-18 0.00369386)
(0.0036619 -0.00162542 -0.000434329 0.0036619 3.84822e-18 0.0036619)
(0.0036619 -0.00162542 -0.000434329 0.0036619 6.87896e-18 0.0036619)
(0.00362939 -0.00160876 -0.000437875 0.00362939 6.12435e-18 0.00362939)
(0.00362939 -0.00160876 -0.000437875 0.00362939 5.12741e-18 0.00362939)
(0.00359631 -0.00159177 -0.000441308 0.00359631 4.17906e-18 0.00359631)
(0.00359631 -0.00159177 -0.000441308 0.00359631 -2.17457e-18 0.00359631)
(0.00356266 -0.00157444 -0.000444621 0.00356266 2.36908e-18 0.00356266)
(0.00356266 -0.00157444 -0.000444621 0.00356266 -2.91772e-18 0.00356266)
(0.00352844 -0.00155677 -0.000447804 0.00352844 2.85266e-18 0.00352844)
(0.00352844 -0.00155677 -0.000447804 0.00352844 1.22156e-18 0.00352844)
(0.00349363 -0.00153875 -0.000450847 0.00349363 3.38191e-18 0.00349363)
(0.00349363 -0.00153875 -0.000450847 0.00349363 3.9108e-18 0.00349363)
(0.00345823 -0.00152038 -0.000453741 0.00345823 2.35264e-18 0.00345823)
(0.00345823 -0.00152038 -0.000453741 0.00345823 7.22536e-18 0.00345823)
(0.00342224 -0.00150165 -0.000456474 0.00342224 7.31453e-19 0.00342224)