/*--------------------------------*- C++ -*----------------------------------*\
| =========                 |                                                 |
| \\      /  F ield         | OpenFOAM: The Open Source CFD Toolbox           |
|  \\    /   O peration     | Version:  2106                                  |
|   \\  /    A nd           | Website:  www.openfoam.com                      |
|    \\/     M anipulation  |                                                 |
\*---------------------------------------------------------------------------*/
FoamFile
{
    version     2.0;
    format      ascii;
    arch        "LSB;label=32;scalar=64";
    class       volVectorField;
    location    "10070";
    object      U;
}
// * * * * * * * * * * * * * * * * * * * * * * * * * * * * * * * * * * * * * //

dimensions      [0 1 -1 0 0 0 0];

internalField   nonuniform List<vector> 
2000
(
(0.00569759 -6.33065e-16 -4.96671e-17)
(0.00569759 -4.55558e-21 -9.10854e-18)
(0.017197 -2.79652e-15 -1.4411e-16)
(0.017197 -1.68552e-18 -3.61763e-17)
(0.0289088 -2.58193e-15 -1.50786e-16)
(0.0289088 -3.21333e-18 -3.75388e-17)
(0.0408369 -2.44453e-15 -1.57211e-16)
(0.0408369 -5.04001e-18 -3.89453e-17)
(0.0529851 -2.4321e-15 -1.63937e-16)
(0.0529851 -6.93598e-18 -4.04015e-17)
(0.0653573 -2.43106e-15 -1.70966e-16)
(0.0653573 -8.92682e-18 -4.19105e-17)
(0.0779569 -2.43055e-15 -1.78255e-16)
(0.0779569 -1.10527e-17 -4.3472e-17)
(0.0907865 -2.42655e-15 -1.85792e-16)
(0.0907865 -1.32522e-17 -4.50841e-17)
(0.103848 -2.42247e-15 -1.93564e-16)
(0.103848 -1.55393e-17 -4.67447e-17)
(0.11714 -2.41849e-15 -2.01544e-16)
(0.11714 -1.79664e-17 -4.84497e-17)
(0.130661 -2.41435e-15 -2.09682e-16)
(0.130661 -2.05723e-17 -5.01842e-17)
(0.144403 -2.41001e-15 -2.17909e-16)
(0.144403 -2.3206e-17 -5.19285e-17)
(0.158353 -2.40535e-15 -2.26122e-16)
(0.158353 -2.59694e-17 -5.36643e-17)
(0.172492 -2.40043e-15 -2.3419e-16)
(0.172492 -2.88193e-17 -5.53578e-17)
(0.186793 -2.39528e-15 -2.41956e-16)
(0.186793 -3.16721e-17 -5.6976e-17)
(0.201221 -2.38989e-15 -2.49238e-16)
(0.201221 -3.48339e-17 -5.84716e-17)
(0.215729 -2.3847e-15 -2.55847e-16)
(0.215729 -3.81104e-17 -5.98115e-17)
(0.230266 -2.37935e-15 -2.61604e-16)
(0.230266 -4.12545e-17 -6.0949e-17)
(0.244771 -2.37353e-15 -2.66356e-16)
(0.244771 -4.46747e-17 -6.18594e-17)
(0.259182 -2.36736e-15 -2.69997e-16)
(0.259182 -4.84301e-17 -6.25098e-17)
(0.273436 -2.36116e-15 -2.72478e-16)
(0.273436 -5.19409e-17 -6.28915e-17)
(0.287471 -2.35497e-15 -2.73816e-16)
(0.287471 -5.5398e-17 -6.30144e-17)
(0.301234 -2.3488e-15 -2.74083e-16)
(0.301234 -5.91106e-17 -6.28866e-17)
(0.31468 -2.34244e-15 -2.73399e-16)
(0.31468 -6.27508e-17 -6.25462e-17)
(0.32777 -2.33578e-15 -2.71908e-16)
(0.32777 -6.66833e-17 -6.20155e-17)
(0.340481 -2.32947e-15 -2.69772e-16)
(0.340481 -7.05742e-17 -6.13451e-17)
(0.352793 -2.32321e-15 -2.67152e-16)
(0.352793 -7.44783e-17 -6.05645e-17)
(0.3647 -2.31693e-15 -2.64195e-16)
(0.3647 -7.86879e-17 -5.96767e-17)
(0.3762 -2.31047e-15 -2.61032e-16)
(0.3762 -8.24091e-17 -5.87393e-17)
(0.387297 -2.30381e-15 -2.57774e-16)
(0.387297 -8.63547e-17 -5.77847e-17)
(0.398001 -2.29737e-15 -2.54511e-16)
(0.398001 -9.02648e-17 -5.68315e-17)
(0.408324 -2.29103e-15 -2.51319e-16)
(0.408324 -9.40692e-17 -5.58804e-17)
(0.41828 -2.28476e-15 -2.48252e-16)
(0.41828 -9.79689e-17 -5.49466e-17)
(0.427886 -2.27862e-15 -2.45351e-16)
(0.427886 -1.0201e-16 -5.40486e-17)
(0.437157 -2.27244e-15 -2.42644e-16)
(0.437157 -1.05784e-16 -5.31618e-17)
(0.446112 -2.26619e-15 -2.40151e-16)
(0.446112 -1.09773e-16 -5.23124e-17)
(0.454766 -2.25964e-15 -2.37882e-16)
(0.454766 -1.14109e-16 -5.14944e-17)
(0.463135 -2.2529e-15 -2.3584e-16)
(0.463135 -1.18082e-16 -5.07221e-17)
(0.471236 -2.24613e-15 -2.34031e-16)
(0.471236 -1.22418e-16 -4.99751e-17)
(0.479083 -2.2389e-15 -2.32452e-16)
(0.479083 -1.27009e-16 -4.92255e-17)
(0.486691 -2.23209e-15 -2.311e-16)
(0.486691 -1.31496e-16 -4.85132e-17)
(0.494074 -2.22578e-15 -2.29972e-16)
(0.494074 -1.35606e-16 -4.78182e-17)
(0.501243 -2.2201e-15 -2.29063e-16)
(0.501243 -1.39577e-16 -4.71376e-17)
(0.508211 -2.21419e-15 -2.28371e-16)
(0.508211 -1.44138e-16 -4.64901e-17)
(0.51499 -2.2072e-15 -2.27888e-16)
(0.51499 -1.47933e-16 -4.5862e-17)
(0.521589 -2.20031e-15 -2.27607e-16)
(0.521589 -1.5191e-16 -4.52853e-17)
(0.528019 -2.1947e-15 -2.27524e-16)
(0.528019 -1.56365e-16 -4.47158e-17)
(0.534288 -2.18978e-15 -2.27642e-16)
(0.534288 -1.59351e-16 -4.41621e-17)
(0.540406 -2.18436e-15 -2.27953e-16)
(0.540406 -1.61894e-16 -4.3695e-17)
(0.546379 -2.1793e-15 -2.28457e-16)
(0.546379 -1.6498e-16 -4.32915e-17)
(0.552217 -2.17411e-15 -2.29146e-16)
(0.552217 -1.68256e-16 -4.28411e-17)
(0.557925 -2.1688e-15 -2.30017e-16)
(0.557925 -1.71021e-16 -4.24158e-17)
(0.563511 -2.16339e-15 -2.31066e-16)
(0.563511 -1.74291e-16 -4.21289e-17)
(0.56898 -2.15732e-15 -2.32297e-16)
(0.56898 -1.78541e-16 -4.18034e-17)
(0.574338 -2.15064e-15 -2.337e-16)
(0.574338 -1.8138e-16 -4.15035e-17)
(0.57959 -2.14411e-15 -2.3527e-16)
(0.57959 -1.84086e-16 -4.13167e-17)
(0.584743 -2.13851e-15 -2.37005e-16)
(0.584743 -1.87526e-16 -4.11106e-17)
(0.589799 -2.13226e-15 -2.38911e-16)
(0.589799 -1.91427e-16 -4.09549e-17)
(0.594765 -2.12512e-15 -2.4097e-16)
(0.594765 -1.96455e-16 -4.07362e-17)
(0.599643 -2.11673e-15 -2.43178e-16)
(0.599643 -2.01745e-16 -4.04848e-17)
(0.604438 -2.10761e-15 -2.45529e-16)
(0.604438 -2.07199e-16 -4.0301e-17)
(0.609153 -2.09937e-15 -2.48016e-16)
(0.609153 -2.12361e-16 -4.02375e-17)
(0.613793 -2.09191e-15 -2.50642e-16)
(0.613793 -2.17304e-16 -4.00779e-17)
(0.61836 -2.08475e-15 -2.53405e-16)
(0.61836 -2.22386e-16 -3.98451e-17)
(0.622857 -2.07657e-15 -2.56315e-16)
(0.622857 -2.27183e-16 -3.95721e-17)
(0.627287 -2.06716e-15 -2.5935e-16)
(0.627287 -2.31409e-16 -3.93289e-17)
(0.631654 -2.05852e-15 -2.62517e-16)
(0.631654 -2.35597e-16 -3.9156e-17)
(0.635959 -2.05049e-15 -2.65833e-16)
(0.635959 -2.41097e-16 -3.89022e-17)
(0.640205 -2.04281e-15 -2.69291e-16)
(0.640205 -2.45115e-16 -3.85257e-17)
(0.644395 -2.03613e-15 -2.72907e-16)
(0.644395 -2.4803e-16 -3.83461e-17)
(0.648531 -2.03009e-15 -2.76669e-16)
(0.648531 -2.51763e-16 -3.84034e-17)
(0.652614 -2.02354e-15 -2.80597e-16)
(0.652614 -2.53936e-16 -3.84685e-17)
(0.656647 -2.01669e-15 -2.84678e-16)
(0.656647 -2.58226e-16 -3.84785e-17)
(0.660632 -2.00994e-15 -2.88917e-16)
(0.660632 -2.64119e-16 -3.82553e-17)
(0.66457 -2.00307e-15 -2.9334e-16)
(0.66457 -2.66855e-16 -3.80748e-17)
(0.668464 -1.99651e-15 -2.97915e-16)
(0.668464 -2.69961e-16 -3.78514e-17)
(0.672314 -1.99051e-15 -3.02656e-16)
(0.672314 -2.72239e-16 -3.78346e-17)
(0.676123 -1.98414e-15 -3.07589e-16)
(0.676123 -2.7472e-16 -3.79441e-17)
(0.679891 -1.97668e-15 -3.12686e-16)
(0.679891 -2.78924e-16 -3.76084e-17)
(0.683621 -1.96843e-15 -3.17965e-16)
(0.683621 -2.82704e-16 -3.72169e-17)
(0.687314 -1.96057e-15 -3.23427e-16)
(0.687314 -2.87459e-16 -3.71759e-17)
(0.690971 -1.95235e-15 -3.29059e-16)
(0.690971 -2.91001e-16 -3.72355e-17)
(0.694592 -1.94372e-15 -3.3486e-16)
(0.694592 -2.95671e-16 -3.70486e-17)
(0.698181 -1.93654e-15 -3.40838e-16)
(0.698181 -2.99056e-16 -3.64899e-17)
(0.701736 -1.92956e-15 -3.47019e-16)
(0.701736 -3.01488e-16 -3.62871e-17)
(0.70526 -1.92405e-15 -3.53388e-16)
(0.70526 -3.05339e-16 -3.6211e-17)
(0.708754 -1.91972e-15 -3.59963e-16)
(0.708754 -3.10415e-16 -3.63155e-17)
(0.712218 -1.91455e-15 -3.66765e-16)
(0.712218 -3.16607e-16 -3.62156e-17)
(0.715654 -1.90543e-15 -3.7376e-16)
(0.715654 -3.20558e-16 -3.60828e-17)
(0.719063 -1.89577e-15 -3.68495e-16)
(0.719063 -3.26597e-16 -3.5531e-17)
(0.722444 -1.88842e-15 -3.59899e-16)
(0.722444 -3.33147e-16 -3.48965e-17)
(0.7258 -1.88036e-15 -3.51377e-16)
(0.7258 -3.36616e-16 -3.3936e-17)
(0.729131 -1.87329e-15 -3.42982e-16)
(0.729131 -3.41183e-16 -3.33987e-17)
(0.732437 -1.86545e-15 -3.34299e-16)
(0.732437 -3.46022e-16 -3.26864e-17)
(0.73572 -1.85652e-15 -3.25553e-16)
(0.73572 -3.51246e-16 -3.14576e-17)
(0.73898 -1.84806e-15 -3.17028e-16)
(0.73898 -3.5598e-16 -3.02274e-17)
(0.742218 -1.83974e-15 -3.08628e-16)
(0.742218 -3.61924e-16 -2.88744e-17)
(0.745434 -1.83191e-15 -3.00116e-16)
(0.745434 -3.66493e-16 -2.69778e-17)
(0.74863 -1.821e-15 -2.915e-16)
(0.74863 -3.71622e-16 -2.51678e-17)
(0.751805 -1.80983e-15 -2.83482e-16)
(0.751805 -3.80131e-16 -2.27308e-17)
(0.754961 -1.80078e-15 -2.7549e-16)
(0.754961 -3.8479e-16 -1.99209e-17)
(0.758098 -1.79144e-15 -2.67545e-16)
(0.758098 -3.87448e-16 -1.76709e-17)
(0.761216 -1.78303e-15 -2.5985e-16)
(0.761216 -3.93235e-16 -1.52264e-17)
(0.764316 -1.77569e-15 -2.51765e-16)
(0.764316 -3.97217e-16 -1.23519e-17)
(0.767398 -1.76726e-15 -2.43616e-16)
(0.767398 -4.0312e-16 -9.16698e-18)
(0.770464 -1.75839e-15 -2.35603e-16)
(0.770464 -4.1092e-16 -6.07535e-18)
(0.773513 -1.74884e-15 -2.27999e-16)
(0.773513 -4.15658e-16 -6.25705e-18)
(0.776546 -1.73838e-15 -2.20618e-16)
(0.776546 -4.27394e-16 -6.39079e-18)
(0.779563 -1.72831e-15 -2.17577e-16)
(0.779563 -4.31061e-16 -6.69796e-18)
(0.782565 -1.71531e-15 -2.14376e-16)
(0.782565 -4.36015e-16 -6.7028e-18)
(0.785553 -1.70202e-15 -2.11163e-16)
(0.785553 -4.42278e-16 -6.79897e-18)
(0.788525 -1.69162e-15 -2.07584e-16)
(0.788525 -4.48643e-16 -6.94366e-18)
(0.791484 -1.68008e-15 -2.03877e-16)
(0.791484 -4.5169e-16 -6.97991e-18)
(0.79443 -1.67158e-15 -1.99922e-16)
(0.79443 -4.53946e-16 -6.46172e-18)
(0.797362 -1.66786e-15 -1.9462e-16)
(0.797362 -4.54966e-16 -6.21578e-18)
(0.800281 -1.6659e-15 -1.88398e-16)
(0.800281 -4.52521e-16 -6.17082e-18)
(0.803187 -1.65897e-15 -1.81386e-16)
(0.803187 -4.51996e-16 -6.49106e-18)
(0.806081 -1.64553e-15 -1.74714e-16)
(0.806081 -4.55608e-16 -6.81257e-18)
(0.808963 -1.63244e-15 -1.68494e-16)
(0.808963 -4.62439e-16 -7.38571e-18)
(0.811834 -1.62093e-15 -1.62561e-16)
(0.811834 -4.6455e-16 -7.93381e-18)
(0.814693 -1.61271e-15 -1.57102e-16)
(0.814693 -4.64901e-16 -8.75188e-18)
(0.817541 -1.60346e-15 -1.5251e-16)
(0.817541 -4.72763e-16 -9.36619e-18)
(0.820378 -1.59269e-15 -1.48366e-16)
(0.820378 -4.7904e-16 -1.01117e-17)
(0.823205 -1.58353e-15 -1.44964e-16)
(0.823205 -4.90035e-16 -1.05174e-17)
(0.826022 -1.56953e-15 -1.42063e-16)
(0.826022 -4.89782e-16 -1.06671e-17)
(0.828828 -1.55099e-15 -1.39653e-16)
(0.828828 -4.93339e-16 -1.12782e-17)
(0.831625 -1.53359e-15 -1.38174e-16)
(0.831625 -5.00085e-16 -1.14691e-17)
(0.834412 -1.51872e-15 -1.37013e-16)
(0.834412 -4.99509e-16 -1.09247e-17)
(0.837189 -1.50785e-15 -1.35941e-16)
(0.837189 -5.11206e-16 -1.02924e-17)
(0.839958 -1.49544e-15 -1.34666e-16)
(0.839958 -5.15109e-16 -1.13053e-17)
(0.842717 -1.48169e-15 -1.33722e-16)
(0.842717 -5.19966e-16 -1.24628e-17)
(0.845468 -1.46697e-15 -1.32415e-16)
(0.845468 -5.15867e-16 -1.11502e-17)
(0.848211 -1.44886e-15 -1.30136e-16)
(0.848211 -5.21949e-16 -9.6232e-18)
(0.850945 -1.43101e-15 -1.27489e-16)
(0.850945 -5.21808e-16 -1.14341e-17)
(0.853671 -1.41431e-15 -1.24739e-16)
(0.853671 -5.20096e-16 -1.25417e-17)
(0.856389 -1.40207e-15 -1.21392e-16)
(0.856389 -5.24716e-16 -1.24324e-17)
(0.859099 -1.39348e-15 -1.17756e-16)
(0.859099 -5.29881e-16 -1.28106e-17)
(0.861801 -1.3831e-15 -1.14513e-16)
(0.861801 -5.33216e-16 -1.32877e-17)
(0.864496 -1.37106e-15 -1.13274e-16)
(0.864496 -5.38004e-16 -1.21166e-17)
(0.867184 -1.36435e-15 -1.13275e-16)
(0.867184 -5.37865e-16 -8.32623e-18)
(0.869864 -1.36104e-15 -1.11623e-16)
(0.869864 -5.36213e-16 -8.70842e-18)
(0.872538 -1.35657e-15 -1.11017e-16)
(0.872538 -5.33082e-16 -1.16968e-17)
(0.875204 -1.3527e-15 -1.10207e-16)
(0.875204 -5.29422e-16 -1.19655e-17)
(0.877864 -1.35009e-15 -1.09434e-16)
(0.877864 -5.32984e-16 -8.79638e-18)
(0.880517 -1.34757e-15 -1.06939e-16)
(0.880517 -5.30435e-16 -9.26951e-18)
(0.883163 -1.33878e-15 -1.0544e-16)
(0.883163 -5.36302e-16 -1.10724e-17)
(0.885804 -1.33105e-15 -1.05068e-16)
(0.885804 -5.41735e-16 -1.00542e-17)
(0.888437 -1.32711e-15 -1.03363e-16)
(0.888437 -5.47087e-16 -9.01129e-18)
(0.891065 -1.31931e-15 -1.01007e-16)
(0.891065 -5.53522e-16 -1.13311e-17)
(0.893686 -1.30241e-15 -9.99888e-17)
(0.893686 -5.64475e-16 -1.05451e-17)
(0.896302 -1.28207e-15 -1.01053e-16)
(0.896302 -5.6837e-16 -5.33654e-18)
(0.898911 -1.27634e-15 -1.01755e-16)
(0.898911 -5.66595e-16 -4.45226e-18)
(0.901514 -1.27917e-15 -1.01983e-16)
(0.901514 -5.75713e-16 -4.50793e-18)
(0.904112 -1.27185e-15 -1.0012e-16)
(0.904112 -5.8817e-16 -5.9127e-18)
(0.906704 -1.26141e-15 -1.00896e-16)
(0.906704 -5.92621e-16 -7.35496e-18)
(0.909291 -1.25327e-15 -1.01547e-16)
(0.909291 -6.02405e-16 -8.05011e-18)
(0.911871 -1.24582e-15 -1.02541e-16)
(0.911871 -6.13806e-16 -7.67202e-18)
(0.914447 -1.24284e-15 -1.04234e-16)
(0.914447 -6.26381e-16 -3.46471e-18)
(0.917016 -1.23149e-15 -1.04335e-16)
(0.917016 -6.44702e-16 -3.33409e-18)
(0.919581 -1.222e-15 -1.07635e-16)
(0.919581 -6.52494e-16 -7.40496e-18)
(0.92214 -1.21417e-15 -1.09327e-16)
(0.92214 -6.6591e-16 -9.11683e-18)
(0.924693 -1.20158e-15 -1.11617e-16)
(0.924693 -6.77625e-16 -7.99043e-18)
(0.927241 -1.19573e-15 -1.13996e-16)
(0.927241 -6.83546e-16 -7.89635e-18)
(0.929784 -1.19061e-15 -1.15442e-16)
(0.929784 -6.91878e-16 -1.21925e-17)
(0.932322 -1.18169e-15 -1.17818e-16)
(0.932322 -6.97669e-16 -8.2977e-18)
(0.934854 -1.16853e-15 -1.19584e-16)
(0.934854 -7.02307e-16 -2.77307e-18)
(0.937382 -1.16225e-15 -1.20806e-16)
(0.937382 -7.05953e-16 -5.34275e-18)
(0.939903 -1.15906e-15 -1.20825e-16)
(0.939903 -7.10395e-16 -7.06424e-18)
(0.94242 -1.14904e-15 -1.2015e-16)
(0.94242 -7.17884e-16 -7.65088e-18)
(0.944931 -1.13607e-15 -1.17089e-16)
(0.944931 -7.28507e-16 -1.06447e-17)
(0.947437 -1.12384e-15 -1.04115e-16)
(0.947437 -7.36221e-16 -1.4544e-17)
(0.949938 -1.10595e-15 -9.74147e-17)
(0.949938 -7.35824e-16 -2.00479e-17)
(0.952434 -1.09716e-15 -1.00731e-16)
(0.952434 -7.36667e-16 -2.52557e-17)
(0.954924 -1.09473e-15 -1.02469e-16)
(0.954924 -7.32253e-16 -2.84698e-17)
(0.957408 -1.08599e-15 -1.05404e-16)
(0.957408 -7.19762e-16 -3.16398e-17)
(0.959888 -1.07555e-15 -1.0439e-16)
(0.959888 -7.15262e-16 -3.48049e-17)
(0.962361 -1.06503e-15 -1.04368e-16)
(0.962361 -7.19029e-16 -3.82891e-17)
(0.96483 -1.05542e-15 -1.01785e-16)
(0.96483 -7.13381e-16 -4.20151e-17)
(0.967292 -1.04876e-15 -1.00268e-16)
(0.967292 -7.1698e-16 -4.42341e-17)
(0.969749 -1.03688e-15 -9.58748e-17)
(0.969749 -7.28862e-16 -5.0473e-17)
(0.9722 -9.99124e-16 -9.02012e-17)
(0.9722 -7.33552e-16 -5.25667e-17)
(0.974646 -9.63763e-16 -9.16239e-17)
(0.974646 -7.35815e-16 -6.1451e-17)
(0.977085 -9.46404e-16 -9.443e-17)
(0.977085 -7.2778e-16 -6.71906e-17)
(0.979518 -9.23264e-16 -9.59035e-17)
(0.979518 -7.19896e-16 -7.45512e-17)
(0.981945 -9.06919e-16 -9.63936e-17)
(0.981945 -7.13693e-16 -8.92776e-17)
(0.984366 -9.02898e-16 -9.85016e-17)
(0.984366 -7.22961e-16 -1.00248e-16)
(0.98678 -9.01501e-16 -1.06207e-16)
(0.98678 -7.34787e-16 -1.0177e-16)
(0.989188 -8.96272e-16 -1.05962e-16)
(0.989188 -7.47301e-16 -1.05457e-16)
(0.991589 -8.78676e-16 -1.07116e-16)
(0.991589 -7.59933e-16 -1.03896e-16)
(0.993983 -8.66897e-16 -1.08333e-16)
(0.993983 -7.61671e-16 -1.05184e-16)
(0.99637 -8.68987e-16 -1.08092e-16)
(0.99637 -7.74749e-16 -1.04731e-16)
(0.99875 -8.60185e-16 -1.04168e-16)
(0.99875 -7.80341e-16 -1.04121e-16)
(1.00112 -8.43374e-16 -1.04018e-16)
(1.00112 -7.86918e-16 -1.05736e-16)
(1.00349 -8.46824e-16 -1.02164e-16)
(1.00349 -7.98893e-16 -1.05323e-16)
(1.00584 -8.37153e-16 -1.01944e-16)
(1.00584 -8.07033e-16 -1.06935e-16)
(1.00819 -8.24152e-16 -1.08186e-16)
(1.00819 -7.96751e-16 -1.09116e-16)
(1.01053 -8.24978e-16 -1.12686e-16)
(1.01053 -8.00527e-16 -9.86298e-17)
(1.01286 -8.16164e-16 -1.20481e-16)
(1.01286 -8.1449e-16 -8.91606e-17)
(1.01519 -8.077e-16 -1.20985e-16)
(1.01519 -8.07866e-16 -8.91458e-17)
(1.0175 -7.90421e-16 -1.24121e-16)
(1.0175 -8.06599e-16 -8.89781e-17)
(1.0198 -7.77419e-16 -1.23955e-16)
(1.0198 -7.76961e-16 -1.0024e-16)
(1.0221 -7.65187e-16 -1.21876e-16)
(1.0221 -7.39839e-16 -9.29245e-17)
(1.02438 -7.49908e-16 -1.18721e-16)
(1.02438 -7.29668e-16 -1.0179e-16)
(1.02665 -7.2665e-16 -1.20002e-16)
(1.02665 -7.32013e-16 -1.00051e-16)
(1.02891 -6.7878e-16 -1.30536e-16)
(1.02891 -6.73952e-16 -1.0999e-16)
(1.03116 -7.19467e-16 -1.22376e-16)
(1.03116 -6.48875e-16 -1.27899e-16)
(1.0334 -6.98235e-16 -1.20975e-16)
(1.0334 -6.86921e-16 -1.28431e-16)
(1.03563 -6.74085e-16 -1.31126e-16)
(1.03563 -6.7281e-16 -1.36689e-16)
(1.03784 -6.60356e-16 -1.2874e-16)
(1.03784 -6.55699e-16 -1.43869e-16)
(1.04004 -6.51059e-16 -1.34721e-16)
(1.04004 -6.50811e-16 -1.40334e-16)
(1.04222 -6.25133e-16 -1.2958e-16)
(1.04222 -6.3648e-16 -1.33384e-16)
(1.04439 -6.13713e-16 -1.46039e-16)
(1.04439 -6.29883e-16 -1.1524e-16)
(1.04654 -6.10299e-16 -1.70416e-16)
(1.04654 -6.1074e-16 -1.11002e-16)
(1.04868 -6.22257e-16 -1.80722e-16)
(1.04868 -5.73195e-16 -1.26757e-16)
(1.0508 -6.31927e-16 -2.13805e-16)
(1.0508 -5.79065e-16 -1.6032e-16)
(1.05291 -6.16462e-16 -2.17243e-16)
(1.05291 -5.87872e-16 -1.88021e-16)
(1.05499 -6.02196e-16 -2.2463e-16)
(1.05499 -5.79669e-16 -1.73534e-16)
(1.05706 -6.02293e-16 -1.98024e-16)
(1.05706 -6.05158e-16 -1.63125e-16)
(1.0591 -5.77895e-16 -1.72005e-16)
(1.0591 -5.99425e-16 -1.50492e-16)
(1.06112 -6.12258e-16 -1.80488e-16)
(1.06112 -5.79009e-16 -1.67213e-16)
(1.06312 -5.73264e-16 -1.43128e-16)
(1.06312 -5.8254e-16 -1.68678e-16)
(1.0651 -5.24577e-16 -1.59468e-16)
(1.0651 -5.78754e-16 -1.88749e-16)
(1.06705 -5.20278e-16 -1.77681e-16)
(1.06705 -5.77463e-16 -1.55079e-16)
(1.06898 -5.37065e-16 -1.79458e-16)
(1.06898 -5.24226e-16 -1.29552e-16)
(1.07088 -5.23987e-16 -1.55087e-16)
(1.07088 -5.13315e-16 -1.27602e-16)
(1.07275 -5.06468e-16 -1.78789e-16)
(1.07275 -5.38669e-16 -1.07711e-16)
(1.07458 -4.87772e-16 -1.83859e-16)
(1.07458 -4.68028e-16 -1.2059e-16)
(1.07639 -4.82048e-16 -1.71468e-16)
(1.07639 -4.76245e-16 -1.27987e-16)
(1.07816 -4.90539e-16 -1.56741e-16)
(1.07816 -4.87813e-16 -1.48339e-16)
(1.07989 -5.15897e-16 -1.31411e-16)
(1.07989 -4.79841e-16 -1.51961e-16)
(1.08158 -4.77264e-16 -1.12911e-16)
(1.08158 -4.48308e-16 -1.56073e-16)
(1.08324 -4.33567e-16 -8.93553e-17)
(1.08324 -4.63428e-16 -1.64846e-16)
(1.08484 -4.05145e-16 -9.25787e-17)
(1.08484 -4.59172e-16 -1.63837e-16)
(1.0864 -3.85746e-16 -1.15868e-16)
(1.0864 -4.62487e-16 -1.69067e-16)
(1.08791 -4.05881e-16 -1.25454e-16)
(1.08791 -4.74312e-16 -1.38106e-16)
(1.08937 -3.89623e-16 -1.58529e-16)
(1.08937 -4.96999e-16 -1.1501e-16)
(1.09077 -4.05389e-16 -1.83669e-16)
(1.09077 -5.04514e-16 -1.10348e-16)
(1.09211 -4.1333e-16 -1.52512e-16)
(1.09211 -4.44629e-16 -6.79591e-17)
(1.09338 -4.14996e-16 -1.41251e-16)
(1.09338 -4.04688e-16 -7.71803e-17)
(1.09458 -4.29527e-16 -2.05624e-16)
(1.09458 -3.8732e-16 -7.64858e-17)
(1.09571 -4.66724e-16 -1.68015e-16)
(1.09571 -3.4759e-16 -1.17344e-16)
(1.09675 -4.94015e-16 -1.53066e-16)
(1.09675 -3.50556e-16 -8.9982e-17)
(1.09771 -4.36692e-16 -9.4643e-17)
(1.09771 -3.58624e-16 -7.54309e-17)
(1.09858 -3.78414e-16 -6.10598e-17)
(1.09858 -3.30635e-16 -2.62184e-17)
(1.09934 -3.13393e-16 -2.10458e-17)
(1.09934 -3.14442e-16 -1.10628e-17)
(1.1 -3.02371e-16 -7.42955e-18)
(1.1 -3.09402e-16 1.34705e-17)
(1.10054 -3.25479e-16 -1.83253e-17)
(1.10054 -3.10884e-16 -1.3785e-18)
(1.10095 -2.84115e-16 -1.6786e-17)
(1.10095 -2.80242e-16 -1.9149e-17)
(1.10124 -2.38929e-16 2.94774e-20)
(1.10124 -2.64781e-16 -6.21487e-17)
(1.10139 -2.46214e-16 -3.2664e-18)
(1.10139 -2.65921e-16 -5.18335e-17)
(0.00569759 2.2636e-20 1.49147e-17)
(0.00569759 5.97301e-20 -2.92236e-18)
(0.017197 -8.18717e-19 3.16456e-17)
(0.017197 -2.96115e-19 -3.50286e-17)
(0.0289088 -1.562e-18 3.28302e-17)
(0.0289088 -4.6828e-19 -3.63316e-17)
(0.0408369 -2.49666e-18 3.40555e-17)
(0.0408369 -7.4137e-19 -3.76788e-17)
(0.0529851 -3.47637e-18 3.53229e-17)
(0.0529851 -1.0391e-18 -3.90698e-17)
(0.0653573 -4.47642e-18 3.6633e-17)
(0.0653573 -1.34261e-18 -4.05053e-17)
(0.0779569 -5.48525e-18 3.79853e-17)
(0.0779569 -1.66148e-18 -4.19843e-17)
(0.0907865 -6.49339e-18 3.93781e-17)
(0.0907865 -2.03892e-18 -4.35027e-17)
(0.103848 -7.50543e-18 4.08073e-17)
(0.103848 -2.48538e-18 -4.50543e-17)
(0.11714 -8.61523e-18 4.22688e-17)
(0.11714 -3.00452e-18 -4.66357e-17)
(0.130661 -9.95872e-18 4.37494e-17)
(0.130661 -3.42089e-18 -4.82355e-17)
(0.144403 -1.14227e-17 4.52298e-17)
(0.144403 -3.67771e-18 -4.98299e-17)
(0.158353 -1.29878e-17 4.66904e-17)
(0.158353 -4.00796e-18 -5.13978e-17)
(0.172492 -1.46306e-17 4.81056e-17)
(0.172492 -4.45299e-18 -5.29099e-17)
(0.186793 -1.62478e-17 4.94433e-17)
(0.186793 -4.83481e-18 -5.43341e-17)
(0.201221 -1.78612e-17 5.06659e-17)
(0.201221 -5.21952e-18 -5.56205e-17)
(0.215729 -1.94747e-17 5.17425e-17)
(0.215729 -5.77576e-18 -5.67384e-17)
(0.230266 -2.11596e-17 5.26318e-17)
(0.230266 -6.36978e-18 -5.76369e-17)
(0.244771 -2.28998e-17 5.33129e-17)
(0.244771 -6.97019e-18 -5.82999e-17)
(0.259182 -2.46984e-17 5.3763e-17)
(0.259182 -7.54499e-18 -5.87026e-17)
(0.273436 -2.66169e-17 5.39744e-17)
(0.273436 -7.98258e-18 -5.88332e-17)
(0.287471 -2.88514e-17 5.39581e-17)
(0.287471 -8.17694e-18 -5.87174e-17)
(0.301234 -3.13148e-17 5.37227e-17)
(0.301234 -8.49645e-18 -5.8357e-17)
(0.31468 -3.35066e-17 5.33031e-17)
(0.31468 -9.09016e-18 -5.7801e-17)
(0.32777 -3.56801e-17 5.27291e-17)
(0.32777 -9.56991e-18 -5.70657e-17)
(0.340481 -3.81308e-17 5.20247e-17)
(0.340481 -9.80485e-18 -5.61934e-17)
(0.352793 -4.03228e-17 5.12209e-17)
(0.352793 -9.83517e-18 -5.52446e-17)
(0.3647 -4.22034e-17 5.03463e-17)
(0.3647 -1.00977e-17 -5.42194e-17)
(0.3762 -4.43424e-17 4.94333e-17)
(0.3762 -1.03191e-17 -5.3149e-17)
(0.387297 -4.66608e-17 4.85045e-17)
(0.387297 -1.05733e-17 -5.20592e-17)
(0.398001 -4.89464e-17 4.75735e-17)
(0.398001 -1.10403e-17 -5.09766e-17)
(0.408324 -5.13345e-17 4.66543e-17)
(0.408324 -1.14214e-17 -4.99158e-17)
(0.41828 -5.36874e-17 4.576e-17)
(0.41828 -1.18419e-17 -4.88893e-17)
(0.427886 -5.58856e-17 4.48915e-17)
(0.427886 -1.23744e-17 -4.79234e-17)
(0.437157 -5.81943e-17 4.40497e-17)
(0.437157 -1.26029e-17 -4.69943e-17)
(0.446112 -6.00893e-17 4.32345e-17)
(0.446112 -1.31878e-17 -4.61063e-17)
(0.454766 -6.11458e-17 4.24549e-17)
(0.454766 -1.43166e-17 -4.52438e-17)
(0.463135 -6.2294e-17 4.17233e-17)
(0.463135 -1.5213e-17 -4.44338e-17)
(0.471236 -6.38558e-17 4.10239e-17)
(0.471236 -1.62498e-17 -4.37037e-17)
(0.479083 -6.53912e-17 4.03374e-17)
(0.479083 -1.71941e-17 -4.29754e-17)
(0.486691 -6.6923e-17 3.96911e-17)
(0.486691 -1.78013e-17 -4.22942e-17)
(0.494074 -6.8342e-17 3.90762e-17)
(0.494074 -1.94631e-17 -4.16765e-17)
(0.501243 -6.92871e-17 3.84919e-17)
(0.501243 -2.1081e-17 -4.10709e-17)
(0.508211 -7.07657e-17 3.79462e-17)
(0.508211 -2.1935e-17 -4.05109e-17)
(0.51499 -7.27504e-17 3.74051e-17)
(0.51499 -2.2001e-17 -3.99464e-17)
(0.521589 -7.43217e-17 3.68956e-17)
(0.521589 -2.22963e-17 -3.94402e-17)
(0.528019 -7.61656e-17 3.64077e-17)
(0.528019 -2.40377e-17 -3.89971e-17)
(0.534288 -7.76699e-17 3.59571e-17)
(0.534288 -2.50787e-17 -3.854e-17)
(0.540406 -7.87758e-17 3.5551e-17)
(0.540406 -2.56899e-17 -3.81168e-17)
(0.546379 -8.04248e-17 3.51894e-17)
(0.546379 -2.66504e-17 -3.78639e-17)
(0.552217 -8.17211e-17 3.48142e-17)
(0.552217 -2.79603e-17 -3.76154e-17)
(0.557925 -8.30528e-17 3.44632e-17)
(0.557925 -2.8451e-17 -3.73104e-17)
(0.563511 -8.49539e-17 3.4134e-17)
(0.563511 -2.95394e-17 -3.71283e-17)
(0.56898 -8.68506e-17 3.37922e-17)
(0.56898 -3.08608e-17 -3.69727e-17)
(0.574338 -8.83519e-17 3.34461e-17)
(0.574338 -3.10835e-17 -3.68141e-17)
(0.57959 -8.96288e-17 3.31144e-17)
(0.57959 -3.19281e-17 -3.67409e-17)
(0.584743 -9.16075e-17 3.27676e-17)
(0.584743 -3.17669e-17 -3.66461e-17)
(0.589799 -9.37238e-17 3.23977e-17)
(0.589799 -3.18462e-17 -3.66269e-17)
(0.594765 -9.55271e-17 3.20314e-17)
(0.594765 -3.29351e-17 -3.67031e-17)
(0.599643 -9.70611e-17 3.16876e-17)
(0.599643 -3.48547e-17 -3.67645e-17)
(0.604438 -9.8279e-17 3.14051e-17)
(0.604438 -3.67022e-17 -3.68e-17)
(0.609153 -9.94979e-17 3.11909e-17)
(0.609153 -3.68412e-17 -3.69419e-17)
(0.613793 -1.00517e-16 3.09963e-17)
(0.613793 -3.7514e-17 -3.71562e-17)
(0.61836 -1.0179e-16 3.0856e-17)
(0.61836 -3.78153e-17 -3.74875e-17)
(0.622857 -1.03642e-16 3.07255e-17)
(0.622857 -3.91022e-17 -3.77614e-17)
(0.627287 -1.05421e-16 3.06604e-17)
(0.627287 -4.11752e-17 -3.80573e-17)
(0.631654 -1.07052e-16 3.06692e-17)
(0.631654 -4.25184e-17 -3.85102e-17)
(0.635959 -1.08796e-16 3.06921e-17)
(0.635959 -4.52192e-17 -3.90721e-17)
(0.640205 -1.10329e-16 3.07289e-17)
(0.640205 -4.85199e-17 -3.95112e-17)
(0.644395 -1.11332e-16 3.08078e-17)
(0.644395 -5.09981e-17 -3.98425e-17)
(0.648531 -1.12676e-16 3.10354e-17)
(0.648531 -5.24033e-17 -4.03299e-17)
(0.652614 -1.1469e-16 3.12619e-17)
(0.652614 -5.40611e-17 -4.09223e-17)
(0.656647 -1.17279e-16 3.15018e-17)
(0.656647 -5.48104e-17 -4.17699e-17)
(0.660632 -1.20481e-16 3.17245e-17)
(0.660632 -5.56511e-17 -4.26256e-17)
(0.66457 -1.23554e-16 3.1858e-17)
(0.66457 -5.58197e-17 -4.34958e-17)
(0.668464 -1.25995e-16 3.19617e-17)
(0.668464 -5.66087e-17 -4.4094e-17)
(0.672314 -1.28199e-16 3.21313e-17)
(0.672314 -5.64307e-17 -4.47116e-17)
(0.676123 -1.30879e-16 3.23571e-17)
(0.676123 -5.82465e-17 -4.58413e-17)
(0.679891 -1.32323e-16 3.24595e-17)
(0.679891 -6.2003e-17 -4.69339e-17)
(0.683621 -1.33783e-16 3.26134e-17)
(0.683621 -6.23482e-17 -4.77535e-17)
(0.687314 -1.35802e-16 3.28821e-17)
(0.687314 -6.41765e-17 -4.85583e-17)
(0.690971 -1.37959e-16 3.32174e-17)
(0.690971 -6.49648e-17 -4.96284e-17)
(0.694592 -1.4115e-16 3.35724e-17)
(0.694592 -6.4208e-17 -5.12215e-17)
(0.698181 -1.43362e-16 3.38832e-17)
(0.698181 -6.58283e-17 -5.25166e-17)
(0.701736 -1.4434e-16 3.42424e-17)
(0.701736 -6.74078e-17 -5.37037e-17)
(0.70526 -1.44288e-16 3.46574e-17)
(0.70526 -6.90058e-17 -5.48079e-17)
(0.708754 -1.43961e-16 3.52884e-17)
(0.708754 -7.39946e-17 -5.63131e-17)
(0.712218 -1.45742e-16 3.58072e-17)
(0.712218 -7.52174e-17 -5.76892e-17)
(0.715654 -1.48172e-16 3.63925e-17)
(0.715654 -7.38857e-17 -5.93009e-17)
(0.719063 -1.51421e-16 3.68932e-17)
(0.719063 -7.52978e-17 -6.0964e-17)
(0.722444 -1.55799e-16 3.73063e-17)
(0.722444 -7.63697e-17 -6.29197e-17)
(0.7258 -1.59263e-16 3.75103e-17)
(0.7258 -7.65906e-17 -6.45145e-17)
(0.729131 -1.62205e-16 3.77697e-17)
(0.729131 -7.92701e-17 -6.62968e-17)
(0.732437 -1.66916e-16 3.79322e-17)
(0.732437 -8.22133e-17 -6.82144e-17)
(0.73572 -1.71644e-16 3.78804e-17)
(0.73572 -8.10224e-17 -6.98775e-17)
(0.73898 -1.7419e-16 3.78941e-17)
(0.73898 -7.92462e-17 -7.18017e-17)
(0.742218 -1.78228e-16 3.78714e-17)
(0.742218 -8.15652e-17 -7.40546e-17)
(0.745434 -1.82289e-16 3.76192e-17)
(0.745434 -8.25826e-17 -7.61394e-17)
(0.74863 -1.83844e-16 3.73595e-17)
(0.74863 -8.29189e-17 -7.86203e-17)
(0.751805 -1.84685e-16 3.70177e-17)
(0.751805 -8.79721e-17 -8.09478e-17)
(0.754961 -1.87463e-16 3.67556e-17)
(0.754961 -9.01568e-17 -8.25588e-17)
(0.758098 -1.91643e-16 3.66817e-17)
(0.758098 -9.14921e-17 -8.47898e-17)
(0.761216 -1.9405e-16 3.63975e-17)
(0.761216 -9.65427e-17 -8.73124e-17)
(0.764316 -1.94428e-16 3.58521e-17)
(0.764316 -9.86045e-17 -8.92338e-17)
(0.767398 -1.94938e-16 3.55115e-17)
(0.767398 -9.92233e-17 -9.08174e-17)
(0.770464 -1.97178e-16 3.52472e-17)
(0.770464 -1.04275e-16 -9.28811e-17)
(0.773513 -1.99734e-16 3.47936e-17)
(0.773513 -1.07557e-16 -9.52468e-17)
(0.776546 -2.01268e-16 3.42424e-17)
(0.776546 -1.08819e-16 -9.75487e-17)
(0.779563 -2.03144e-16 3.37653e-17)
(0.779563 -1.12357e-16 -9.72413e-17)
(0.782565 -2.07837e-16 3.3757e-17)
(0.782565 -1.19566e-16 -9.56207e-17)
(0.785553 -2.12963e-16 3.34017e-17)
(0.785553 -1.23445e-16 -9.40443e-17)
(0.788525 -2.15209e-16 3.30092e-17)
(0.788525 -1.25029e-16 -9.23428e-17)
(0.791484 -2.16639e-16 3.26739e-17)
(0.791484 -1.29639e-16 -9.08446e-17)
(0.79443 -2.1823e-16 3.2319e-17)
(0.79443 -1.3327e-16 -8.95615e-17)
(0.797362 -2.21948e-16 3.2011e-17)
(0.797362 -1.36851e-16 -8.9118e-17)
(0.800281 -2.23389e-16 3.1285e-17)
(0.800281 -1.38696e-16 -8.90605e-17)
(0.803187 -2.24249e-16 3.06686e-17)
(0.803187 -1.36056e-16 -8.92639e-17)
(0.806081 -2.31277e-16 2.9195e-17)
(0.806081 -1.38323e-16 -8.89502e-17)
(0.808963 -2.35547e-16 2.71731e-17)
(0.808963 -1.43899e-16 -8.84554e-17)
(0.811834 -2.33577e-16 2.54024e-17)
(0.811834 -1.4774e-16 -8.78841e-17)
(0.814693 -2.3248e-16 2.36356e-17)
(0.814693 -1.51317e-16 -8.72388e-17)
(0.817541 -2.3389e-16 2.26959e-17)
(0.817541 -1.52635e-16 -8.66334e-17)
(0.820378 -2.3687e-16 2.15564e-17)
(0.820378 -1.54912e-16 -8.54255e-17)
(0.823205 -2.38974e-16 2.05161e-17)
(0.823205 -1.5904e-16 -8.36634e-17)
(0.826022 -2.39479e-16 2.01734e-17)
(0.826022 -1.58453e-16 -8.16358e-17)
(0.828828 -2.38737e-16 2.01629e-17)
(0.828828 -1.61608e-16 -7.94908e-17)
(0.831625 -2.36971e-16 2.10407e-17)
(0.831625 -1.693e-16 -7.73462e-17)
(0.834412 -2.39835e-16 2.20229e-17)
(0.834412 -1.69768e-16 -7.50338e-17)
(0.837189 -2.44725e-16 2.29515e-17)
(0.837189 -1.71001e-16 -7.28004e-17)
(0.839958 -2.4592e-16 2.34391e-17)
(0.839958 -1.73576e-16 -6.98646e-17)
(0.842717 -2.42772e-16 2.32001e-17)
(0.842717 -1.78263e-16 -6.59173e-17)
(0.845468 -2.39922e-16 2.41834e-17)
(0.845468 -1.81994e-16 -6.27463e-17)
(0.848211 -2.44169e-16 2.51303e-17)
(0.848211 -1.81315e-16 -6.0207e-17)
(0.850945 -2.50781e-16 2.48304e-17)
(0.850945 -1.83903e-16 -5.73034e-17)
(0.853671 -2.56325e-16 2.43642e-17)
(0.853671 -1.84738e-16 -5.39646e-17)
(0.856389 -2.6445e-16 2.32365e-17)
(0.856389 -1.81879e-16 -5.05513e-17)
(0.859099 -2.68709e-16 2.15552e-17)
(0.859099 -1.83373e-16 -4.72029e-17)
(0.861801 -2.67266e-16 1.98872e-17)
(0.861801 -1.85477e-16 -4.3562e-17)
(0.864496 -2.68986e-16 1.82228e-17)
(0.864496 -1.88481e-16 -3.87272e-17)
(0.867184 -2.75259e-16 1.54452e-17)
(0.867184 -1.96613e-16 -3.38659e-17)
(0.869864 -2.76881e-16 1.22617e-17)
(0.869864 -1.99736e-16 -3.04357e-17)
(0.872538 -2.7446e-16 1.00306e-17)
(0.872538 -2.01373e-16 -2.71287e-17)
(0.875204 -2.69156e-16 7.00341e-18)
(0.875204 -2.08019e-16 -2.36458e-17)
(0.877864 -2.64357e-16 5.24342e-18)
(0.877864 -2.10674e-16 -1.99988e-17)
(0.880517 -2.62562e-16 2.61091e-18)
(0.880517 -2.14196e-16 -1.67236e-17)
(0.883163 -2.62591e-16 5.48003e-19)
(0.883163 -2.18406e-16 -1.28776e-17)
(0.885804 -2.69899e-16 -1.36061e-18)
(0.885804 -2.16785e-16 -8.21684e-18)
(0.888437 -2.7652e-16 -4.29464e-18)
(0.888437 -2.1528e-16 -4.17128e-18)
(0.891065 -2.76972e-16 -7.36637e-18)
(0.891065 -2.09978e-16 -4.24362e-19)
(0.893686 -2.74646e-16 -1.01267e-17)
(0.893686 -2.1747e-16 4.1825e-18)