/*--------------------------------*- C++ -*----------------------------------*\
| =========                 |                                                 |
| \\      /  F ield         | OpenFOAM: The Open Source CFD Toolbox           |
|  \\    /   O peration     | Version:  2106                                  |
|   \\  /    A nd           | Website:  www.openfoam.com                      |
|    \\/     M anipulation  |                                                 |
\*---------------------------------------------------------------------------*/
FoamFile
{
    version     2.0;
    format      ascii;
    arch        "LSB;label=32;scalar=64";
    class       volTensorField;
    location    "10020";
    object      grad(U);
}
// * * * * * * * * * * * * * * * * * * * * * * * * * * * * * * * * * * * * * //

dimensions      [0 0 -1 0 0 0 0];

internalField   nonuniform List<tensor> 
2000
(
(0 6.50429e-30 -4.12362e-28 13.0068 -7.40441e-12 -2.16816e-14 0.0240731 -8.07913e-15 6.38863e-18)
(0 -3.03521e-29 -2.30894e-27 13.0068 2.46519e-32 0 0.0240731 -7.58755e-30 -5.77235e-28)
(-1.4041e-17 -2.8026e-45 0 13.0044 0 0 0.0726597 -3.15544e-30 -1.2326e-32)
(0 -1.91553e-29 -4.98836e-32 13.0044 -1.34403e-15 -2.84211e-14 0.0726597 -5.19708e-18 -9.45134e-17)
(-2.96255e-18 -6.26809e-30 -4.89695e-32 13.0019 5.1241e-13 -6.25701e-15 0.100796 -1.49685e-14 -5.58315e-17)
(0 9.40214e-30 4.89695e-32 13.0019 7.54038e-16 -1.56567e-15 0.100796 -1.58619e-18 -9.79621e-17)
(-9.69837e-18 -1.96924e-26 7.17358e-33 12.9994 7.06895e-28 -9.62774e-15 0.102658 3.15544e-30 -3.93457e-17)
(3.87935e-17 9.22985e-30 0 12.9994 -2.01632e-16 -1.56927e-15 0.102658 -2.28397e-18 -1.01468e-16)
(0 9.06071e-30 4.71912e-32 12.9968 9.62444e-14 -5.31348e-15 0.104553 -1.64786e-15 -4.54172e-17)
(0 -3.02024e-30 0 12.9968 -1.95153e-16 -1.57195e-15 0.104553 -2.97955e-18 -1.05027e-16)
(0 1.48245e-29 9.26529e-32 12.9942 -2.26825e-14 -5.82079e-15 0.106484 -2.39376e-16 -4.91437e-17)
(-9.41826e-17 -1.48245e-29 -9.26529e-32 12.9942 -2.14063e-16 -1.57314e-15 0.106484 -3.6429e-18 -1.08634e-16)
(5.12031e-17 -7.16113e-28 -4.54775e-32 12.9916 -5.34426e-15 -6.09848e-15 0.108449 -2.2102e-17 -5.17652e-17)
(1.22647e-16 5.82112e-30 0 12.9916 -2.23721e-16 -1.57355e-15 0.108449 -4.34792e-18 -1.12281e-16)
(0 -3.18295e-29 0 12.9889 5.67143e-28 -6.2924e-15 0.11045 0 -5.42939e-17)
(3.03273e-16 5.71445e-30 0 12.9889 -1.84411e-16 -1.57408e-15 0.11045 -5.12786e-18 -1.15973e-16)
(-4.52903e-17 -4.17379e-31 1.31551e-32 12.9861 6.18492e-17 -6.47039e-15 0.112488 -6.07576e-18 -5.67997e-17)
(0 5.60974e-30 4.38261e-32 12.9861 -1.07712e-16 -1.57332e-15 0.112488 -5.87372e-18 -1.19708e-16)
(9.68791e-17 -5.50694e-30 0 12.9833 -6.01388e-16 -6.63731e-15 0.114562 -5.40116e-18 -5.92858e-17)
(-9.68791e-17 8.26041e-30 0 12.9833 -4.51142e-17 -1.57025e-15 0.114562 -6.47976e-18 -1.23479e-16)
(0 -2.97623e-29 -2.53408e-31 12.9804 -2.90239e-16 -6.79599e-15 0.116675 -1.29249e-18 -6.17929e-17)
(0 2.70301e-29 2.11173e-31 12.9804 -6.72213e-17 -1.56666e-15 0.116675 -7.16109e-18 -1.27285e-16)
(6.82614e-17 1.75162e-46 1.06871e-31 12.9775 -5.2654e-28 -6.95085e-15 0.118826 -3.27052e-46 -6.4356e-17)
(1.79685e-16 0 -4.14607e-32 12.9775 -1.04583e-16 -1.56309e-15 0.118826 -7.80757e-18 -1.31127e-16)
(0 2.60486e-30 0 12.9745 1.23187e-16 -7.10509e-15 0.121016 -7.95758e-19 -6.69989e-17)
(0 -2.60486e-30 0 12.9745 -9.73871e-17 -1.55765e-15 0.121016 -8.59533e-18 -1.35004e-16)
(-1.74261e-16 2.28452e-29 2.60527e-31 12.9715 1.43597e-16 -7.26008e-15 0.123246 -1.48764e-18 -6.97268e-17)
(0 -1.78999e-29 -1.5982e-31 12.9715 -3.11815e-17 -1.55168e-15 0.123246 -9.23581e-18 -1.38907e-16)
(-1.80849e-16 1.24291e-29 1.79449e-31 12.9684 -1.45335e-17 -7.41635e-15 0.125516 -1.51765e-18 -7.2549e-17)
(0 -5.02053e-30 -7.84458e-32 12.9684 5.17786e-17 -1.54431e-15 0.125516 -9.64282e-18 -1.4282e-16)
(4.47731e-16 -1.22449e-29 -1.78413e-31 12.9652 -2.33112e-16 -7.57504e-15 0.127827 -3.0512e-18 -7.54837e-17)
(-4.03663e-16 9.85707e-30 0 12.9652 8.74367e-17 -1.53297e-15 0.127827 -9.94189e-18 -1.4675e-16)
(0 -2.41911e-30 -1.51194e-31 12.962 -2.72774e-16 -7.73606e-15 0.130181 -2.37163e-18 -7.85175e-17)
(0 4.83822e-30 7.55972e-32 12.962 1.83252e-16 -1.51969e-15 0.130181 -1.0051e-17 -1.50688e-16)
(4.0343e-16 -2.13992e-29 -2.79314e-31 12.9587 -2.75211e-16 -7.8993e-15 0.132576 -3.21604e-18 -8.16685e-17)
(4.72639e-16 1.42487e-29 2.22636e-31 12.9587 2.38061e-16 -1.50612e-15 0.132576 -9.35971e-18 -1.54614e-16)
(-1.2702e-16 7.05051e-30 1.03304e-31 12.9553 -3.01677e-16 -8.06416e-15 0.135016 -3.0127e-18 -8.4913e-17)
(0 0 7.2852e-32 12.9553 1.40182e-16 -1.48825e-15 0.135016 -8.76857e-18 -1.58521e-16)
(1.36044e-16 -4.67625e-30 -1.04177e-31 12.9519 -3.91706e-16 -8.23011e-15 0.137499 -5.24902e-18 -8.82699e-17)
(5.44178e-16 6.86563e-30 7.1517e-32 12.9519 2.77752e-16 -1.47104e-15 0.137499 -9.20655e-18 -1.62384e-16)
(-1.45235e-16 2.38753e-30 3.49672e-32 12.9483 -5.64997e-16 -8.39778e-15 0.140027 -6.87477e-18 -9.17396e-17)
(1.16188e-15 0 0 12.9483 5.40711e-16 -1.45833e-15 0.140027 -8.52717e-18 -1.66235e-16)
(0 6.61632e-30 2.0676e-31 12.9447 -6.96142e-16 -8.56666e-15 0.1426 -8.33664e-18 -9.53174e-17)
(6.18375e-16 -4.41088e-30 -1.3784e-31 12.9447 5.47236e-16 -1.44185e-15 0.1426 -7.50049e-18 -1.70084e-16)
(1.5235e-16 -6.49507e-30 -2.70628e-31 12.941 -8.29277e-16 -8.738e-15 0.14522 -1.01223e-17 -9.90425e-17)
(5.0415e-16 8.6601e-30 2.70628e-31 12.941 6.18599e-16 -1.42311e-15 0.14522 -7.25514e-18 -1.73924e-16)
(0 8.5014e-30 0 12.9372 -8.40152e-16 -8.91231e-15 0.147887 -8.89943e-18 -1.02895e-16)
(6.95327e-16 -4.2507e-30 0 12.9372 6.9275e-16 -1.39907e-15 0.147887 -5.61602e-18 -1.77758e-16)
(1.09919e-16 3.01244e-31 4.52513e-32 12.9333 -8.08529e-16 -9.08957e-15 0.150601 -9.76712e-18 -1.06904e-16)
(-2.93635e-16 6.25921e-30 1.304e-31 12.9333 6.30143e-16 -1.37045e-15 0.150601 -3.25508e-18 -1.81509e-16)
(0 -1.84335e-29 -5.12043e-31 12.9292 -9.44908e-16 -9.26871e-15 0.153364 -1.24707e-17 -1.11023e-16)
(7.75133e-16 1.84335e-29 5.12043e-31 12.9292 7.21132e-16 -1.34375e-15 0.153364 -1.05306e-18 -1.85157e-16)
(7.89376e-17 -3.64424e-30 -2.00216e-31 12.9251 -1.07631e-15 -9.44864e-15 0.156176 -1.33111e-17 -1.15281e-16)
(-2.82972e-16 8.04256e-30 1.25665e-31 12.9251 7.26299e-16 -1.31262e-15 0.156176 1.45104e-18 -1.88691e-16)
(-2.14475e-16 2.38817e-30 5.42331e-32 12.9208 -1.00236e-15 -9.63035e-15 0.159037 -1.112e-17 -1.1968e-16)
(0 3.94759e-30 1.23362e-31 12.9208 6.32725e-16 -1.28202e-15 0.159037 2.82411e-18 -1.92143e-16)
(0 5.81288e-30 1.21102e-31 12.9164 -7.81245e-16 -9.81478e-15 0.161949 -8.26685e-18 -1.2425e-16)
(0 -1.93763e-30 0 12.9164 4.43479e-16 -1.24478e-15 0.161949 3.14794e-18 -1.95509e-16)
(-7.71331e-16 2.52141e-29 -3.4607e-29 12.9118 -7.18756e-16 0 0.164913 -9.94247e-18 -9.86076e-32)
(-9.43728e-16 -1.90212e-29 -3.56647e-31 12.9118 5.97706e-16 -1.20156e-15 0.164913 5.98341e-18 -1.98683e-16)
(2.46957e-16 1.34692e-30 -6.3726e-32 12.907 -1.11283e-15 1.05304e-14 0.167928 -1.88346e-17 -8.5467e-17)
(9.87827e-16 -3.73453e-30 0 12.907 1.22134e-15 -1.15912e-15 0.167928 8.51604e-18 -2.0172e-16)
(0 7.33219e-30 1.14565e-31 12.902 -1.55503e-15 1.46224e-14 0.170995 -2.20407e-17 -1.87003e-16)
(-2.57978e-16 0 0 12.902 1.23031e-15 -1.11677e-15 0.170995 1.27566e-17 -2.04563e-16)
(-5.22867e-16 9.5858e-30 1.46894e-31 12.8968 -1.71205e-15 1.51315e-14 0.174115 -2.37849e-17 -1.97174e-16)
(2.53251e-16 -7.19783e-30 -1.12466e-31 12.8968 9.2254e-16 -1.07641e-15 0.174115 1.19201e-17 -2.07231e-16)
(-2.81257e-16 2.38816e-30 2.55186e-32 12.8914 -1.83104e-15 1.56442e-14 0.177289 -2.61449e-17 -2.07799e-16)
(0 7.06593e-30 1.10405e-31 12.8914 1.21152e-15 -1.03251e-15 0.177289 2.08543e-17 -2.09666e-16)
(0 -1.38729e-29 -2.16764e-31 12.8857 -1.91195e-15 1.61489e-14 0.180516 -2.69485e-17 -2.18709e-16)
(1.17244e-15 1.38744e-29 2.16764e-31 12.8857 1.61907e-15 -9.74762e-16 0.180516 2.37906e-17 -2.11947e-16)
(0 6.80934e-30 1.06396e-31 12.8796 -2.04128e-15 1.66548e-14 0.183798 -3.0822e-17 -2.29772e-16)
(0 -3.40467e-30 0 12.8796 1.47124e-15 -9.06122e-16 0.183798 1.77658e-17 -2.13966e-16)
(3.17472e-16 9.53182e-31 0 12.8733 -2.15587e-15 1.71655e-14 0.187133 -3.12963e-17 -2.14694e-16)
(1.26989e-15 -3.33608e-30 1.04446e-31 12.8733 1.47222e-15 -8.47438e-16 0.187133 2.47155e-17 -2.15671e-16)
(1.31778e-16 -1.40161e-29 0 12.8665 -2.27409e-15 1.76696e-14 0.190523 -3.54857e-17 -1.50084e-16)
(8.58181e-16 1.96968e-29 -7.78372e-33 12.8665 1.6317e-15 -7.88599e-16 0.190523 2.31594e-17 -2.03162e-16)
(-3.42729e-16 -1.37149e-29 5.03267e-32 12.8593 -2.42556e-15 1.81747e-14 0.193967 -3.70463e-17 -8.26053e-17)
(0 1.61046e-29 0 12.8593 1.49491e-15 -7.11524e-16 0.193967 2.15191e-17 -1.00748e-17)
(0 1.89713e-29 -9.8809e-32 12.8516 -2.42944e-15 1.86899e-14 0.197465 -3.69423e-17 -1.20342e-17)
(1.42281e-15 -1.89519e-29 -1.75578e-32 12.8516 1.31754e-15 -6.4079e-16 0.197465 1.858e-17 -9.43478e-18)
(-7.37823e-16 1.40915e-29 -9.69984e-32 12.8433 -2.6543e-15 1.92164e-14 0.201016 -4.54834e-17 6.17002e-17)
(1.47565e-15 -6.18549e-30 -6.86076e-32 12.8433 1.24825e-15 -5.80503e-16 0.201016 2.01603e-17 -8.56664e-18)
(0 -6.09414e-30 4.76105e-32 12.8344 -3.11301e-15 1.97329e-14 0.204621 -5.29661e-17 1.38699e-16)
(0 9.14121e-30 -1.19026e-31 12.8344 1.50837e-15 -5.11633e-16 0.204621 2.75774e-17 -7.5935e-18)
(8.41957e-16 -5.98247e-30 7.0107e-32 12.8247 -3.30597e-15 2.02188e-14 0.208277 -5.34673e-17 2.19009e-16)
(0 8.9737e-30 -1.40214e-31 12.8247 1.71946e-15 -4.23945e-16 0.208277 2.7779e-17 -6.04014e-18)
(-4.09988e-16 8.26607e-30 -1.5485e-31 12.8142 -3.03879e-15 2.07054e-14 0.211984 -4.61183e-17 3.02504e-16)
(-1.63995e-15 -2.9619e-30 2.18861e-31 12.8142 1.91511e-15 -3.23753e-16 0.211984 3.50923e-17 -4.5633e-18)
(4.24176e-16 3.37071e-30 -2.43927e-31 12.8028 -2.6858e-15 2.12158e-14 0.21574 -4.358e-17 3.62043e-16)
(1.29101e-15 3.84637e-32 2.91282e-32 12.8028 1.73818e-15 -2.26937e-16 0.21574 2.28601e-17 -3.00335e-18)
(4.38618e-16 1.45842e-29 -5.16638e-31 12.7903 -2.75521e-15 2.17263e-14 0.219544 -5.02403e-17 3.77437e-16)
(-1.75447e-15 -1.70251e-29 6.54732e-31 12.7903 1.24574e-15 -1.305e-16 0.219544 1.95011e-17 -1.42292e-18)
(-4.53318e-16 2.39462e-30 6.22148e-32 12.7766 -3.23373e-15 2.22078e-14 0.223392 -6.19649e-17 3.92531e-16)
(1.81327e-15 4.27962e-32 3.50325e-46 12.7766 1.50747e-15 -2.50959e-32 0.223392 3.28787e-17 4.05817e-46)
(-7.6759e-16 -1.09081e-29 7.24367e-31 12.7616 -3.71489e-15 2.26757e-14 0.227282 -6.92825e-17 4.08336e-16)
(3.74624e-15 1.37317e-29 -3.57694e-30 12.7616 1.91436e-15 4.42189e-18 0.227282 3.47382e-17 -3.90363e-20)
(1.23703e-15 -2.11377e-29 8.83719e-31 12.7451 -3.58627e-15 2.3138e-14 0.23121 -5.96302e-17 4.24108e-16)
(1.93402e-15 1.87965e-29 -8.76991e-31 12.7451 1.81065e-15 1.36668e-16 0.23121 3.03523e-17 -1.59299e-18)
(-4.98999e-16 7.65632e-30 -4.78449e-31 12.7269 -3.18147e-15 2.18906e-14 0.235173 -5.69216e-17 3.77587e-16)
(-1.99599e-15 -6.0462e-32 3.69009e-31 12.7269 1.71305e-15 2.37222e-16 0.235173 3.24373e-17 -3.33924e-18)
(7.26161e-16 -7.73953e-30 4.031e-31 12.7068 -3.54558e-15 1.53303e-14 0.239165 -7.55953e-17 1.92933e-16)
(0 1.03194e-29 -4.8372e-31 12.7068 2.27004e-15 3.56382e-16 0.239165 5.24806e-17 -5.37198e-18)
(-1.24366e-15 1.50625e-29 -9.02284e-31 12.6846 -4.16133e-15 1.03751e-14 0.243182 -8.26978e-17 2.01643e-16)
(0 -5.06514e-30 4.74856e-31 12.6846 2.88847e-15 4.89533e-16 0.243182 5.73939e-17 -7.95438e-18)
(0 -4.97232e-30 1.55385e-31 12.66 -4.02537e-15 1.06028e-14 0.247216 -7.31284e-17 2.09106e-16)
(0 7.45848e-30 -4.66155e-31 12.66 2.39699e-15 -2.5212e-15 0.247216 3.5244e-17 -1.09449e-16)
(0 9.7624e-30 -9.15225e-31 12.6328 -3.15851e-15 1.0788e-14 0.251262 -5.12921e-17 2.16614e-16)
(-2.25483e-15 -1.22976e-29 1.2203e-30 12.6328 1.59086e-15 -9.86875e-15 0.251262 2.7453e-17 -2.45084e-16)
(-9.3799e-17 7.17636e-30 -4.57221e-31 12.6027 -2.63315e-15 1.09916e-14 0.25531 -5.45711e-17 2.25247e-16)
(0 -4.79176e-30 1.49742e-31 12.6027 1.52235e-15 -1.41921e-14 0.25531 3.37926e-17 -2.88962e-16)
(-5.97735e-16 -2.30101e-30 1.35661e-31 12.5694 -3.47141e-15 1.12041e-14 0.259352 -8.78661e-17 2.33558e-16)
(0 9.4079e-30 -5.87994e-31 12.5694 1.73086e-15 -1.42886e-14 0.259352 3.71044e-17 -2.96119e-16)
(-5.80455e-16 -9.04655e-30 6.58865e-31 12.5325 -4.45652e-15 1.13748e-14 0.263379 -9.80971e-17 2.4092e-16)
(2.46069e-15 9.33787e-30 -6.65145e-31 12.5325 1.94145e-15 -1.43729e-14 0.263379 4.39311e-17 -3.034e-16)
(-6.32893e-16 2.40501e-30 -5.82415e-45 12.4918 -4.66598e-15 4.28265e-29 0.267379 -1.00159e-16 -1.97215e-31)
(0 0 0 12.4918 1.91103e-15 -1.44557e-14 0.267379 3.7198e-17 -3.1083e-16)
(-1.30179e-15 2.26171e-29 -1.91261e-30 12.4468 -4.39922e-15 -5.43497e-15 0.271341 -9.01408e-17 7.26788e-17)
(-2.60359e-15 -1.79246e-29 1.62592e-30 12.4468 1.65354e-15 -1.44986e-14 0.271341 3.43388e-17 -3.16704e-16)
(6.69182e-16 6.32338e-30 -8.72986e-31 12.3973 -3.5324e-15 -7.74148e-15 0.275251 -6.53617e-17 1.63378e-16)
(-2.67673e-15 -1.32414e-29 1.84568e-30 12.3973 1.31793e-15 -1.44502e-14 0.275251 2.36655e-17 -3.2039e-16)
(-6.03548e-16 1.07212e-29 -6.70073e-31 12.3428 -3.46731e-15 -8.22308e-15 0.279096 -9.05869e-17 1.78053e-16)
(0 -4.28847e-30 4.02044e-31 12.3428 1.46662e-15 -1.44042e-14 0.279096 4.23726e-17 -3.26554e-16)
(-1.41318e-15 -3.60095e-30 7.65331e-31 12.283 -4.37276e-15 -8.67617e-15 0.282861 -1.09634e-16 1.91365e-16)
(5.65273e-15 8.70693e-30 -1.56953e-30 12.283 1.60442e-15 -1.43761e-14 0.282861 3.09203e-17 -3.31166e-16)
(-7.25709e-16 1.48121e-29 -1.58489e-30 12.2175 -4.46886e-15 -9.15974e-15 0.286531 -9.85203e-17 2.05683e-16)
(2.90284e-15 2.18953e-47 1.02144e-30 12.2175 -3.59251e-30 -1.43124e-14 0.286531 0 -3.35864e-16)
(0 -6.08551e-30 6.18059e-31 12.1459 -4.31931e-15 -9.64584e-15 0.290091 -1.066e-16 2.21322e-16)
(0 8.11401e-30 -9.82556e-31 12.1459 2.42842e-16 -1.41908e-14 0.290091 1.92288e-17 -3.37818e-16)
(-7.6475e-16 6.4011e-30 -1.9309e-31 12.068 -4.24464e-15 -1.01182e-14 0.293522 -9.85881e-17 3.04881e-16)
(3.059e-15 2.17093e-30 -9.22617e-31 12.068 6.66221e-16 -1.40387e-14 0.293522 1.293e-17 -3.41093e-16)
(-1.10048e-15 7.81936e-30 -7.33065e-31 11.9833 -4.16209e-15 -1.05605e-14 0.29681 -1.06512e-16 9.27767e-16)
(0 -3.90968e-30 4.8871e-31 11.9833 9.1066e-16 -1.39024e-14 0.29681 3.2107e-17 -3.4377e-16)
(-8.04823e-16 1.39355e-29 -6.55904e-31 11.8915 -4.36628e-15 -1.09961e-14 0.299937 -1.12645e-16 1.572e-15)
(0 -7.67607e-30 4.79755e-31 11.8915 1.96497e-15 -1.36779e-14 0.299937 6.68163e-17 -3.42579e-16)
(-1.06051e-15 1.13031e-29 -9.41926e-31 11.7925 -4.5297e-15 -1.14114e-14 0.302886 -1.18957e-16 2.00059e-15)
(0 -7.53541e-30 8.24186e-31 11.7925 2.6865e-15 -1.33858e-14 0.302886 7.05434e-17 -3.41652e-16)
(0 -1.84933e-29 1.84933e-30 11.686 -4.84774e-15 -1.17933e-14 0.305642 -1.33605e-16 2.02072e-15)
(3.38344e-15 1.86972e-29 -2.46535e-30 11.686 2.37103e-15 -1.30283e-14 0.305642 5.27538e-17 -3.36696e-16)
(0 1.81544e-29 -2.15584e-30 11.5719 -4.74611e-15 -1.21406e-14 0.308189 -1.17998e-16 2.03714e-15)
(0 -1.92593e-29 2.15584e-30 11.5719 1.29913e-15 -1.26417e-14 0.308189 1.72274e-17 -3.33832e-16)
(-8.87777e-16 5.99567e-30 0 11.45 -4.41607e-15 -1.25035e-14 0.310513 -1.2064e-16 2.05145e-15)
(3.55111e-15 3.78426e-30 -1.15893e-30 11.45 1.41106e-15 -1.22908e-14 0.310513 5.94067e-17 -3.30242e-16)
(0 -1.39961e-29 2.1869e-30 11.3204 -4.87244e-15 -1.28449e-14 0.312601 -1.47799e-16 2.06154e-15)
(3.63613e-15 1.42251e-29 -2.94777e-30 11.3204 2.15482e-15 -1.19444e-14 0.312601 5.91963e-17 -3.27169e-16)
(-9.30469e-16 1.9611e-29 -1.93214e-30 11.1831 -4.93838e-15 -1.30704e-14 0.314441 -1.28918e-16 2.06841e-15)
(-3.72188e-15 -1.74183e-29 2.74331e-30 11.1831 2.15581e-15 -1.1495e-14 0.314441 6.17011e-17 -3.17254e-16)
(0 -1.01159e-29 4.21497e-31 11.0381 -4.21143e-15 -1.33467e-14 0.316026 -1.1146e-16 2.07113e-15)
(-3.80827e-15 -2.8026e-45 -1.92392e-31 11.0381 4.98048e-30 -1.08937e-14 0.316026 1.36303e-45 -3.04832e-16)
(-1.94763e-15 4.886e-30 0 10.8858 -4.15153e-15 -1.32932e-14 0.317345 -1.30258e-16 2.068e-15)
(3.89525e-15 2.75682e-31 -9.08144e-31 10.8858 -3.66119e-16 -1.03219e-14 0.317345 3.70058e-17 -2.95632e-16)
(-1.99138e-15 4.89612e-30 0 10.7264 -4.10131e-15 -6.45249e-15 0.318396 -1.12656e-16 2.06557e-15)
(0 0 0 10.7264 6.91638e-16 -9.83072e-15 0.318396 2.4876e-17 -2.86935e-16)
(8.97899e-16 -6.37996e-30 1.19624e-30 10.5602 -3.64684e-15 1.62675e-16 0.319174 -1.07472e-16 2.16121e-15)
(3.17279e-15 6.67495e-30 -2.19777e-30 10.5602 9.6318e-16 -9.30842e-15 0.319174 3.33538e-17 -2.74944e-16)
(-2.80264e-15 2.12441e-29 -1.56576e-30 10.3875 -3.34897e-15 1.54116e-16 0.319679 -9.84106e-17 2.2188e-15)
(-4.159e-15 -4.02327e-31 2.99868e-30 10.3875 -1.03038e-29 -8.73809e-15 0.319679 0 -2.62343e-16)
(2.79249e-15 -1.47558e-29 1.1528e-30 10.209 -2.92895e-15 1.21212e-16 0.319912 -8.49621e-17 2.2013e-15)
(-1.73059e-15 1.22966e-29 -1.1528e-30 10.209 -7.994e-16 -8.10742e-15 0.319912 3.94531e-17 -2.45425e-16)
(1.0841e-15 -1.4523e-29 1.13168e-30 10.0251 -3.54117e-15 9.49009e-17 0.319878 -1.41555e-16 2.17969e-15)
(-4.33641e-15 1.17703e-29 -1.27383e-32 10.0251 6.64226e-16 -7.4525e-15 0.319878 5.3339e-17 -2.30043e-16)
(-2.21268e-15 1.37858e-29 -7.40627e-31 9.83637 -4.92915e-15 5.19958e-17 0.319583 -1.79238e-16 2.15432e-15)
(0 -2.96251e-30 7.40627e-31 9.83637 1.83727e-15 -6.93983e-15 0.319583 6.62213e-17 -2.21033e-16)
(0 2.90822e-30 -1.09058e-30 9.64339 -4.88619e-15 4.69621e-17 0.319033 -1.44017e-16 2.12493e-15)
(0 -1.45993e-29 1.45411e-30 9.64339 -5.8048e-30 -6.47679e-15 0.319033 -9.86076e-32 -2.07761e-16)
(1.15084e-15 3.86634e-31 -7.13732e-31 9.44681 -3.55672e-15 1.07952e-16 0.31824 -9.54696e-17 2.09267e-15)
(-9.20672e-15 -3.56712e-30 3.50486e-30 9.44681 -1.62249e-15 -5.87444e-15 0.31824 3.77404e-17 -1.88349e-16)
(2.75079e-15 -1.64823e-29 1.05098e-30 9.24727 -2.75697e-15 1.43195e-16 0.317214 -9.39734e-17 2.05728e-15)
(-1.57773e-15 1.40131e-29 -1.05098e-30 9.24727 -1.27506e-15 -5.16868e-15 0.317214 7.20297e-17 -1.66638e-16)
(0 -1.65075e-29 2.06344e-30 9.0454 -2.62483e-15 1.65965e-16 0.315969 -8.97305e-17 2.0176e-15)
(4.78099e-15 1.68816e-29 -3.33826e-30 9.0454 -7.1624e-16 -4.5693e-15 0.315969 1.50649e-17 -1.53097e-16)
(1.21737e-15 -1.05676e-29 0 8.84184 -3.18932e-15 1.21201e-16 0.314517 -1.38143e-16 1.97373e-15)
(4.8695e-15 8.47185e-30 -1.63612e-30 8.84184 -1.89685e-15 -4.12227e-15 0.314517 4.33684e-17 -1.40743e-16)
(5.06298e-16 -1.36275e-29 1.65709e-30 8.63722 -3.82663e-15 1.11799e-16 0.312873 -1.39837e-16 1.92411e-15)
(0 1.06054e-29 -1.98851e-30 8.63722 -3.16844e-15 -3.53114e-15 0.312873 2.08693e-16 -1.15525e-16)
(-1.05755e-15 -1.32682e-29 1.62673e-30 8.43215 -2.98259e-15 8.90143e-17 0.311052 -8.03111e-17 1.87256e-15)
(5.04556e-15 1.57533e-29 -3.29866e-30 8.43215 -1.92626e-15 -2.86739e-15 0.311052 4.48412e-16 -9.64735e-17)
(1.28325e-15 -2.29142e-29 2.23568e-30 8.2272 -2.29529e-15 1.42163e-17 0.30907 -9.28164e-17 1.81584e-15)
(1.0266e-14 2.06028e-29 -4.95756e-30 8.2272 -5.40623e-16 -2.39016e-15 0.30907 5.74212e-16 -8.35699e-17)
(1.07028e-16 -2.53963e-30 6.27062e-31 8.02292 -2.22923e-15 1.2552e-17 0.306942 -7.82178e-17 1.757e-15)
(-1.41202e-15 7.52474e-30 -9.40592e-31 8.02292 -1.6256e-15 -1.89523e-15 0.306942 6.69418e-16 -6.17514e-17)
(-2.6532e-15 4.96588e-30 0 7.81982 -1.69486e-15 -1.60769e-17 0.304682 -5.41264e-17 1.69508e-15)
(5.30641e-15 0 -1.39319e-30 7.81982 -1.77312e-15 -1.33087e-15 0.304682 7.31626e-16 -4.21642e-17)
(-1.34807e-15 2.48508e-30 0 7.61835 -1.04753e-15 -3.10276e-17 0.302306 -2.91064e-17 1.63008e-15)
(5.39229e-15 4.83433e-30 -1.70352e-30 7.61835 -1.7843e-15 -8.73428e-16 0.302306 7.39156e-16 -2.72906e-17)
(-1.33581e-15 9.49148e-30 -5.93217e-31 7.41897 -1.57406e-15 -1.4189e-16 0.299829 -9.9301e-17 1.56443e-15)
(0 -4.74574e-30 5.93217e-31 7.41897 -2.20336e-15 -4.6257e-16 0.299829 7.26335e-16 -1.00947e-17)
(4.01321e-15 -1.18002e-29 1.16469e-30 7.22203 -2.14059e-15 -1.94026e-16 0.297263 -7.74805e-17 1.49294e-15)
(2.93956e-15 9.31755e-30 -4.55422e-45 7.22203 -1.89567e-15 -1.77596e-29 0.297263 7.27029e-16 3.9443e-31)
(1.41155e-15 -1.58903e-29 1.14335e-30 7.0279 -1.03607e-15 -1.17739e-16 0.294623 -2.18153e-17 1.42312e-15)
(5.64619e-15 1.14335e-29 -2.54403e-30 7.0279 -2.84196e-15 4.46455e-16 0.294623 7.50027e-16 -9.80582e-18)
(-1.43237e-15 2.48879e-30 0 6.83686 -7.79992e-16 -1.60433e-16 0.291922 -4.53216e-17 1.35226e-15)
(5.72946e-15 4.4896e-30 -1.94745e-30 6.83686 -3.65861e-15 7.9396e-16 0.291922 7.65543e-16 -2.79638e-17)
(1.453e-15 -5.73634e-30 1.10183e-30 6.64919 -1.14163e-28 -7.99604e-17 0.28917 0 1.27953e-15)
(0 8.81465e-30 -1.10183e-30 6.64919 -3.02702e-15 1.13876e-15 0.28917 7.52505e-16 -4.02679e-17)
(-3.9091e-15 1.66129e-29 -1.62246e-30 6.46509 1.91876e-15 -1.41178e-17 0.286379 -4.2706e-17 1.21027e-15)
(5.89382e-15 -1.08164e-29 2.68962e-31 6.46509 -2.71847e-15 1.49663e-15 0.286379 7.49856e-16 -5.94332e-17)
(1.49372e-15 -8.83412e-30 1.59273e-30 6.28475 3.05141e-15 -5.93329e-17 0.283559 -1.43541e-16 1.13728e-15)
(0 6.37092e-30 -1.59273e-30 6.28475 -3.59081e-15 1.80867e-15 0.283559 7.42851e-16 -7.39435e-17)
(-3.86098e-15 1.91363e-29 -1.04236e-30 6.10832 2.82339e-15 -8.86106e-17 0.280719 -1.33095e-16 1.06524e-15)
(6.05516e-15 -1.25084e-29 -2.71807e-31 6.10832 -4.55943e-15 2.09164e-15 0.280719 7.05648e-16 -9.02352e-17)
(1.53366e-15 1.63977e-30 -1.02326e-30 5.93592 3.496e-15 -9.61414e-17 0.277868 -1.27688e-16 9.90067e-16)
(6.13465e-15 0 -2.69719e-31 5.93592 -4.46205e-15 2.14183e-15 0.277868 7.04229e-16 -1.03116e-16)
(0 1.20541e-29 -1.00451e-30 5.76764 3.98342e-15 -7.0589e-17 0.275014 -2.01998e-16 9.17131e-16)
(6.21336e-15 -8.03609e-30 -2.79398e-31 5.76764 -5.40995e-15 2.13996e-15 0.275014 7.13242e-16 -9.84021e-17)
(0 7.88883e-30 -9.86104e-31 5.60353 2.58341e-15 -1.15706e-16 0.272164 -1.79662e-16 8.4238e-16)
(-8.51178e-15 -3.94441e-30 2.25218e-30 5.60353 -5.75603e-15 2.35008e-15 0.272164 6.37314e-16 -1.06821e-16)
(-2.17982e-15 1.16164e-29 -1.93607e-30 5.44363 6.12022e-16 -1.50498e-16 0.269323 -7.16183e-17 7.65902e-16)
(8.54821e-15 -1.16164e-29 6.94534e-31 5.44363 -3.15927e-15 2.51047e-15 0.269323 6.08821e-16 -1.22821e-16)
(5.28695e-16 -1.65641e-29 1.90059e-30 5.28797 -5.97676e-16 -8.69324e-17 0.266498 -4.94098e-17 6.89153e-16)
(-2.13987e-15 1.90059e-29 -2.37574e-30 5.28797 -1.79055e-15 2.77084e-15 0.266498 6.41148e-16 -1.2695e-16)
(-1.63006e-15 -1.98863e-30 0 5.13653 -9.98577e-29 -5.48506e-18 0.263694 0 6.13968e-16)
(6.52024e-15 7.46305e-30 -1.65374e-30 5.13653 -1.93961e-15 3.16579e-15 0.263694 6.35873e-16 -1.54079e-16)
(2.06217e-15 -7.32629e-30 4.57893e-31 4.9893 -4.86986e-17 -2.65658e-17 0.260914 -1.91192e-17 5.38454e-16)
(0 7.32629e-30 -9.15786e-31 4.9893 -2.6202e-15 3.56976e-15 0.260914 6.52179e-16 -1.72883e-16)
(0 7.19204e-30 -8.99004e-31 4.84624 -2.55169e-16 -6.41885e-17 0.258163 -8.11129e-18 4.59702e-16)
(0 -3.59602e-30 8.99004e-31 4.84624 -2.87813e-15 4.09555e-15 0.258163 6.40598e-16 -2.02759e-16)
(3.6728e-15 -4.90214e-30 2.20633e-30 4.7073 8.97329e-29 -3.33459e-18 0.255444 0 3.80046e-16)
(4.7548e-15 1.41205e-29 -3.26385e-30 4.7073 -2.50961e-15 4.63973e-15 0.255444 6.29594e-16 -2.36243e-16)
(-2.47248e-16 7.96898e-30 -8.66358e-31 4.57243 2.69275e-15 -3.43172e-17 0.252761 -1.34381e-16 3.02584e-16)
(6.81447e-15 -3.46543e-30 2.96035e-31 4.57243 -3.08399e-15 4.91596e-15 0.252761 6.1611e-16 -2.70332e-16)
(0 0 0 4.44156 2.50336e-15 -1.25987e-16 0.250114 -1.65206e-16 2.18668e-16)
(6.88609e-15 6.80386e-30 -1.38853e-30 4.44156 -3.75514e-15 5.14617e-15 0.250114 6.20666e-16 -2.76135e-16)
(-3.47848e-15 4.83323e-30 0 4.31462 2.2437e-15 -1.69693e-16 0.247507 -1.17801e-16 1.37898e-16)
(6.95696e-15 0 -9.05897e-31 4.31462 -3.65758e-15 5.38501e-15 0.247507 6.3414e-16 -3.06827e-16)
(3.60234e-15 -2.20769e-29 2.049e-30 4.19153 2.68318e-15 -1.97545e-16 0.244941 -1.41202e-16 5.46584e-17)
(5.18151e-15 1.96704e-29 -2.90943e-30 4.19153 -3.77701e-15 5.51909e-15 0.244941 6.30123e-16 -3.14346e-16)
(0 9.65496e-30 -1.20687e-30 4.07219 3.74752e-15 -1.32504e-16 0.242418 -1.74356e-16 -2.55805e-17)
(-7.09647e-15 -9.65496e-30 2.01314e-30 4.07219 -4.53925e-15 5.73049e-15 0.242418 6.0914e-16 -3.34289e-16)
(0 6.31869e-30 2.21395e-33 3.95653 4.85479e-15 -1.7593e-16 0.239938 -2.75099e-16 -1.03222e-16)
(0 -6.31869e-30 3.94918e-31 3.95653 -4.42504e-15 6.03452e-15 0.239938 5.72545e-16 -3.51729e-16)
(-3.61654e-15 2.02041e-29 -1.55073e-30 3.84445 4.95252e-15 -2.80872e-16 0.237503 -3.17184e-16 -1.83598e-16)
(0 -1.55073e-29 1.55073e-30 3.84445 -4.15702e-15 6.18543e-15 0.237503 5.36341e-16 -3.84298e-16)
(-3.53905e-15 8.42485e-30 -3.80577e-31 3.73586 4.8932e-15 -2.77778e-16 0.235113 -2.97717e-16 -2.60428e-16)
(0 -3.04462e-30 3.80577e-31 3.73586 -4.62172e-15 6.11988e-15 0.235113 4.97574e-16 -3.839e-16)
(-1.68256e-15 2.09218e-29 -9.34008e-31 3.63066 5.42117e-15 -2.96786e-16 0.232768 -3.21561e-16 -3.32915e-16)
(-7.36688e-15 -1.7933e-29 1.70719e-30 3.63066 -5.25451e-15 6.20341e-15 0.232768 4.2724e-16 -3.90409e-16)
(3.71638e-15 1.26579e-30 -1.83379e-31 3.52875 6.43768e-15 -2.89093e-16 0.230469 -3.77613e-16 -4.04119e-16)
(0 -5.86811e-30 5.50136e-31 3.52875 -5.16724e-15 6.54375e-15 0.230469 3.44241e-16 -4.09233e-16)
(2.12753e-15 1.27422e-29 -5.40054e-31 3.43004 6.58286e-15 -1.93545e-16 0.228215 -4.68372e-16 -4.67547e-16)
(7.49799e-15 -1.72817e-29 4.53909e-31 3.43004 -4.57698e-15 6.47194e-15 0.228215 2.60482e-16 -4.50216e-16)
(-1.89064e-15 2.26139e-30 0 3.33444 5.98929e-15 -1.62013e-16 0.226008 -4.11438e-16 -5.27268e-16)
(7.56255e-15 0 -7.71117e-31 3.33444 -5.33415e-15 6.1415e-15 0.226008 1.97264e-16 -4.14961e-16)
(3.81324e-15 1.05893e-30 -1.73481e-31 3.24184 5.42809e-15 -2.34197e-16 0.223846 -4.04406e-16 -5.83901e-16)
(0 -5.55139e-30 5.20443e-31 3.24184 -5.3075e-15 6.10697e-15 0.223846 1.00274e-16 -4.21746e-16)
(4.99034e-15 -2.23818e-30 0 3.15217 3.4262e-15 -2.64185e-16 0.221729 -3.48337e-16 -6.4096e-16)
(7.68979e-15 5.44967e-30 -4.92436e-31 3.15217 -3.77913e-15 6.38771e-15 0.221729 1.18559e-17 -4.2576e-16)
(-1.93812e-15 1.02865e-29 -5.01544e-31 3.06531 2.25883e-15 -1.91109e-16 0.219657 -1.34013e-16 -6.92471e-16)
(0 -2.6749e-30 3.34363e-31 3.06531 -3.06182e-15 6.66392e-15 0.219657 -2.13944e-17 -4.77695e-16)
(0 0 3.28236e-31 2.98119 3.71527e-15 -1.38897e-16 0.217629 -1.91793e-16 -7.42317e-16)
(1.56291e-14 7.87765e-30 -6.95836e-31 2.98119 -3.50343e-15 6.71323e-15 0.217629 1.10697e-17 -4.8195e-16)
(-1.96902e-15 -8.101e-30 3.22221e-31 2.89971 4.15647e-15 -1.73545e-16 0.215645 -3.54698e-16 -7.89816e-16)
(0 1.03111e-29 -3.22221e-31 2.89971 -3.65635e-15 6.76222e-15 0.215645 -8.95682e-18 -5.02996e-16)
(0 -1.26526e-29 4.74474e-31 2.82078 4.09215e-15 -5.51229e-17 0.213704 -2.65564e-16 -8.42074e-16)
(1.30249e-14 1.51832e-29 -5.63849e-31 2.82078 -4.26472e-15 6.47865e-15 0.213704 -7.52762e-17 -5.07499e-16)
(-4.79626e-15 1.46132e-29 -1.23789e-31 2.74433 4.97635e-15 -8.86339e-46 0.211806 -3.58182e-16 -8.91991e-16)
(2.79691e-15 -1.24208e-29 3.1052e-31 2.74433 -6.69288e-15 6.32079e-15 0.211806 -1.3285e-16 -4.7543e-16)
(2.74566e-15 -2.43864e-30 1.52415e-31 2.67027 5.25748e-15 -1.30003e-16 0.209949 -4.13951e-16 -9.51241e-16)
(8.0572e-15 7.31591e-30 -1.52415e-31 2.67027 -5.25402e-15 6.55106e-15 0.209949 -2.72569e-16 -3.55879e-16)
(2.02912e-15 -1.8912e-29 3.74055e-32 2.59851 5.39095e-15 -1.19701e-16 0.208134 -4.165e-16 -1.00409e-15)
(1.6233e-14 1.67576e-29 -3.74055e-32 2.59851 -3.4968e-15 6.55911e-15 0.208134 -3.63795e-16 -2.33009e-16)
(-2.04381e-15 2.13705e-30 0 2.52899 5.77103e-15 -1.52806e-16 0.206359 -4.51225e-16 -1.06114e-15)
(8.17523e-15 0 0 2.52899 -4.53412e-15 6.3033e-15 0.206359 -4.66162e-16 -1.09647e-16)
(-5.39102e-16 4.80551e-30 6.30825e-32 2.46161 7.10752e-15 -3.52412e-19 0.204623 -4.9507e-16 -1.11659e-15)
(8.23347e-15 0 -5.40707e-32 2.46161 -3.62145e-15 6.22595e-15 0.204623 -5.25415e-16 6.62769e-18)
(-4.1456e-15 8.66459e-30 1.41546e-31 2.39632 8.41015e-15 8.88418e-17 0.202926 -6.93455e-16 -1.1633e-15)
(8.29121e-15 0 -1.0616e-31 2.39632 -2.84088e-15 6.28548e-15 0.202926 -5.40336e-16 1.30196e-16)
(-2.50315e-15 -6.66972e-30 -3.47381e-31 2.33304 7.43956e-15 -1.4881e-16 0.201267 -7.37344e-16 -1.21752e-15)
(1.66969e-14 8.89296e-30 2.77905e-31 2.33304 -3.26845e-15 6.00867e-15 0.201267 -5.85809e-16 2.60991e-16)
(0 4.365e-30 2.04609e-31 2.27169 5.75306e-15 -1.27537e-16 0.199645 -5.49858e-16 -1.27429e-15)
(5.94794e-15 0 -1.36406e-31 2.27169 -4.44723e-15 5.77497e-15 0.199645 -6.22352e-16 3.81075e-16)
(-2.11538e-15 6.3432e-30 3.34767e-31 2.21222 5.33617e-15 -1.17029e-16 0.19806 -4.64703e-16 -1.31512e-15)
(0 0 -2.0086e-31 2.21222 -4.65768e-15 6.09418e-15 0.19806 -7.10292e-16 5.09991e-16)
(2.12934e-15 2.16166e-30 5.25812e-31 2.15456 3.08036e-15 -4.41081e-16 0.196509 -4.94928e-16 -1.36633e-15)
(0 -6.30974e-30 -7.88717e-31 2.15456 -3.32982e-15 6.38582e-15 0.196509 -7.69585e-16 5.92561e-16)
(2.32465e-15 -4.29498e-30 3.87132e-31 2.09864 1.39865e-15 -1.96446e-16 0.194993 -6.52323e-17 -1.41753e-15)
(-2.32465e-15 0 -2.58088e-31 2.09864 -2.83712e-15 6.34621e-15 0.194993 -7.74598e-16 5.9136e-16)
(-4.43897e-15 1.82482e-29 1.26679e-30 2.0444 5.52991e-15 1.22888e-16 0.193511 -4.6347e-16 -1.43357e-15)
(0 -1.6215e-29 -1.39347e-30 2.0444 -5.17012e-15 6.53266e-15 0.193511 -8.66635e-16 6.50655e-16)
(-2.17055e-15 5.97573e-30 4.97432e-31 1.9918 6.00401e-15 -1.80618e-16 0.192062 -5.8859e-16 -1.45032e-15)
(-8.68218e-15 0 -7.30563e-31 1.9918 -5.99398e-15 6.97127e-15 0.192062 -1.164e-15 6.99343e-16)
(-4.38325e-15 -1.92597e-30 -1.22079e-30 1.94076 6.03366e-15 -9.55017e-17 0.190645 -5.7357e-16 -1.47972e-15)
(1.74726e-14 3.90653e-30 1.97521e-30 1.94076 -4.37095e-15 6.66e-15 0.190645 -1.36145e-15 6.13218e-16)
(-2.15888e-15 -1.15048e-29 -1.43811e-30 1.89124 6.53462e-15 2.39456e-16 0.189259 -6.16671e-16 -1.48574e-15)
(1.09488e-14 1.15048e-29 1.8847e-30 1.89124 -5.53501e-15 6.16015e-15 0.189259 -1.51511e-15 6.24347e-16)
(-2.21081e-15 5.67614e-30 7.05876e-31 1.84318 5.72225e-15 8.67906e-17 0.187903 -6.96757e-16 -1.49055e-15)
(8.84324e-15 0 1.86472e-31 1.84318 -5.38219e-15 4.92469e-15 0.187903 -1.73641e-15 3.81153e-16)
(0 3.69569e-30 9.23922e-31 1.79654 4.30446e-15 -5.43205e-17 0.186577 -4.72121e-16 -1.49143e-15)
(8.89613e-15 0 -4.55422e-45 1.79654 -4.32406e-15 4.33873e-30 0.186577 -1.8382e-15 2.9619e-46)
(-4.27952e-15 -8.96823e-30 -1.36049e-30 1.75126 4.66567e-15 1.43706e-16 0.185279 -4.24712e-16 -1.4789e-15)