/*--------------------------------*- C++ -*----------------------------------*\
| =========                 |                                                 |
| \\      /  F ield         | OpenFOAM: The Open Source CFD Toolbox           |
|  \\    /   O peration     | Version:  2106                                  |
|   \\  /    A nd           | Website:  www.openfoam.com                      |
|    \\/     M anipulation  |                                                 |
\*---------------------------------------------------------------------------*/
FoamFile
{
    version     2.0;
    format      ascii;
    arch        "LSB;label=32;scalar=64";
    class       volVectorField;
    location    "10020";
    object      grad(T);
}
// * * * * * * * * * * * * * * * * * * * * * * * * * * * * * * * * * * * * * //

dimensions      [0 -1 0 1 0 0 0];

internalField   nonuniform List<vector> 
2000
(
(0 127.819 0.236547)
(0 127.819 0.236547)
(0 127.819 0.714057)
(-1.12328e-16 127.819 0.714057)
(-2.90705e-17 127.819 0.991004)
(0 127.819 0.991004)
(-9.52683e-17 127.819 1.0095)
(3.81073e-16 127.819 1.0095)
(0 127.819 1.02834)
(0 127.819 1.02834)
(8.34543e-16 127.818 1.04754)
(-1.76012e-15 127.818 1.04754)
(4.09625e-16 127.818 1.06709)
(1.20547e-15 127.818 1.06709)
(0 127.818 1.087)
(2.98119e-15 127.818 1.087)
(-4.45259e-16 127.817 1.10729)
(0 127.817 1.10729)
(7.75033e-16 127.816 1.12795)
(0 127.816 1.12795)
(7.60831e-16 127.816 1.149)
(0 127.816 1.149)
(2.1651e-15 127.815 1.17044)
(1.19152e-15 127.815 1.17044)
(0 127.814 1.19228)
(0 127.814 1.19228)
(-8.29152e-16 127.813 1.21452)
(0 127.813 1.21452)
(-9.10282e-16 127.812 1.23718)
(-1.41315e-15 127.812 1.23718)
(2.38018e-15 127.81 1.26026)
(-2.58444e-15 127.81 1.26026)
(0 127.809 1.28377)
(0 127.809 1.28377)
(3.66262e-15 127.807 1.30772)
(4.65147e-15 127.807 1.30772)
(-1.25022e-15 127.805 1.33211)
(-1.31238e-15 127.805 1.33211)
(-1.23746e-15 127.803 1.35695)
(7.93351e-15 127.803 1.35695)
(-1.42985e-15 127.801 1.38225)
(1.14388e-14 127.801 1.38225)
(2.4831e-15 127.798 1.40802)
(3.60566e-15 127.798 1.40802)
(0 127.795 1.43427)
(6.465e-15 127.795 1.43427)
(0 127.792 1.46101)
(6.84825e-15 127.792 1.46101)
(-1.80966e-15 127.788 1.48824)
(0 127.788 1.48824)
(0 127.784 1.51597)
(7.63632e-15 127.784 1.51597)
(2.53426e-16 127.78 1.5442)
(0 127.78 1.5442)
(-2.11351e-15 127.775 1.57296)
(0 127.775 1.57296)
(2.18157e-15 127.769 1.60224)
(-2.18157e-15 127.769 1.60224)
(-6.60883e-15 127.762 1.63206)
(-9.30254e-15 127.762 1.63206)
(2.43467e-15 127.754 1.66242)
(9.73868e-15 127.754 1.66242)
(0 127.746 1.69333)
(-4.12766e-15 127.746 1.69333)
(5.44517e-15 127.735 1.72479)
(-8.10403e-15 127.735 1.72479)
(-2.7741e-15 127.724 1.75682)
(0 127.724 1.75682)
(0 127.711 1.78941)
(1.15659e-14 127.711 1.78941)
(0 127.695 1.82258)
(0 127.695 1.82258)
(6.8959e-15 127.678 1.85633)
(8.76824e-15 127.678 1.85633)
(-3.25687e-15 127.658 1.89066)
(1.30275e-14 127.658 1.89066)
(-7.00964e-15 127.634 1.92558)
(0 127.634 1.92558)
(0 127.607 1.96108)
(1.40476e-14 127.607 1.96108)
(-3.79121e-15 127.576 1.99716)
(1.10772e-14 127.576 1.99716)
(0 127.54 2.03383)
(0 127.54 2.03383)
(0 127.499 2.07108)
(0 127.499 2.07108)
(-4.05088e-15 127.451 2.10889)
(-2.28158e-14 127.451 2.10889)
(4.19189e-15 127.397 2.14727)
(1.67676e-14 127.397 2.14727)
(1.07076e-14 127.334 2.1862)
(-2.37141e-14 127.334 2.1862)
(-4.48171e-15 127.261 2.22566)
(1.79268e-14 127.261 2.22566)
(-6.14072e-15 127.178 2.26563)
(3.70448e-14 127.178 2.26563)
(4.78219e-15 127.084 2.30608)
(1.91288e-14 127.084 2.30608)
(-4.93653e-15 126.975 2.34699)
(-2.56639e-14 126.975 2.34699)
(0 126.851 2.38831)
(5.80929e-15 126.851 2.38831)
(4.49248e-16 126.71 2.43002)
(-1.14057e-14 126.71 2.43002)
(1.11967e-14 126.55 2.47205)
(0 126.55 2.47205)
(0 126.368 2.51435)
(-2.23281e-14 126.368 2.51435)
(3.55565e-16 126.163 2.55685)
(-1.07901e-14 126.163 2.55685)
(-5.9221e-15 125.93 2.59949)
(0 125.93 2.59949)
(-1.79486e-15 125.669 2.64218)
(2.43862e-14 125.669 2.64218)
(-6.27397e-15 125.375 2.68483)
(0 125.375 2.68483)
(-1.29087e-14 125.045 2.72735)
(-2.58175e-14 125.045 2.72735)
(6.63775e-15 124.677 2.76962)
(-2.6551e-14 124.677 2.76962)
(-9.65677e-15 124.267 2.81152)
(-9.65677e-15 124.267 2.81152)
(-2.35067e-14 123.811 2.85294)
(5.61077e-14 123.811 2.85294)
(2.10033e-15 123.306 2.89374)
(1.95169e-14 123.306 2.89374)
(0 122.75 2.93377)
(0 122.75 2.93377)
(-1.65673e-14 122.137 2.97289)
(3.03966e-14 122.137 2.97289)
(0 121.466 3.01096)
(-8.80382e-15 121.466 3.01096)
(-8.00396e-15 120.734 3.04781)
(0 120.734 3.04781)
(0 119.937 3.08329)
(-8.48412e-15 119.937 3.08329)
(0 119.073 3.11725)
(3.3679e-14 119.073 3.11725)
(0 118.14 3.14954)
(0 118.14 3.14954)
(-8.84588e-15 117.137 3.18002)
(3.53835e-14 117.137 3.18002)
(0 116.063 3.20855)
(3.62503e-14 116.063 3.20855)
(-9.28155e-15 114.917 3.23501)
(-3.71262e-14 114.917 3.23501)
(0 113.7 3.25929)
(-2.28246e-14 113.7 3.25929)
(-1.94515e-14 112.412 3.28129)
(3.8903e-14 112.412 3.28129)
(-1.99014e-14 111.055 3.30093)
(0 111.055 3.30093)
(0 109.631 3.31815)
(4.07095e-14 109.631 3.31815)
(-2.45087e-14 108.143 3.3329)
(-4.16223e-14 108.143 3.3329)
(1.06351e-14 106.593 3.34518)
(0 106.593 3.34518)
(1.08659e-14 104.985 3.35496)
(-4.34636e-14 104.985 3.35496)
(-2.21954e-14 103.325 3.36228)
(0 103.325 3.36228)
(0 101.616 3.36715)
(0 101.616 3.36715)
(1.15636e-14 99.8634 3.36964)
(-1.05366e-13 99.8634 3.36964)
(1.17974e-14 98.0724 3.36981)
(0 98.0724 3.36981)
(0 96.2484 3.36774)
(4.8126e-14 96.2484 3.36774)
(3.65928e-14 94.3968 3.36352)
(4.90631e-14 94.3968 3.36352)
(-1.30595e-14 92.5231 3.35727)
(0 92.5231 3.35727)
(-1.37465e-14 90.6327 3.34908)
(5.09365e-14 90.6327 3.34908)
(1.29679e-14 88.7308 3.33908)
(1.03743e-13 88.7308 3.33908)
(-1.32012e-14 86.8226 3.32739)
(0 86.8226 3.32739)
(-2.68679e-14 84.913 3.31414)
(5.37358e-14 84.913 3.31414)
(-1.3666e-14 83.0065 3.29945)
(5.46638e-14 83.0065 3.29945)
(-2.13729e-14 81.1075 3.28345)
(-2.13729e-14 81.1075 3.28345)
(1.41273e-14 79.2199 3.26627)
(5.65094e-14 79.2199 3.26627)
(1.43565e-14 77.3476 3.24801)
(5.74261e-14 77.3476 3.24801)
(-1.45846e-14 75.4936 3.22881)
(5.83382e-14 75.4936 3.22881)
(1.48114e-14 73.6612 3.20876)
(0 73.6612 3.20876)
(-1.50369e-14 71.853 3.18799)
(6.01477e-14 71.853 3.18799)
(1.52611e-14 70.0713 3.16658)
(0 70.0713 3.16658)
(-1.54839e-14 68.3182 3.14464)
(4.31579e-14 68.3182 3.14464)
(1.57052e-14 66.5953 3.12226)
(4.43873e-14 66.5953 3.12226)
(1.80957e-14 64.9043 3.09952)
(4.56043e-14 64.9043 3.09952)
(0 63.2463 3.07649)
(-8.23371e-14 63.2463 3.07649)
(0 61.6222 3.05325)
(6.54398e-14 61.6222 3.05325)
(5.43924e-16 60.0329 3.02987)
(0 60.0329 3.02987)
(-1.67886e-14 58.4789 3.0064)
(6.71542e-14 58.4789 3.0064)
(1.64973e-14 56.9606 2.98289)
(0 56.9606 2.98289)
(0 55.4781 2.95941)
(-1.6195e-14 55.4781 2.95941)
(1.74193e-14 54.0316 2.93598)
(8.55753e-14 54.0316 2.93598)
(2.01931e-15 52.6209 2.91266)
(5.4898e-14 52.6209 2.91266)
(0 51.2459 2.88948)
(7.13262e-14 51.2459 2.88948)
(-3.60705e-14 49.9063 2.86647)
(7.2141e-14 49.9063 2.86647)
(1.82373e-14 48.6017 2.84365)
(7.29493e-14 48.6017 2.84365)
(0 47.3317 2.82106)
(-7.37511e-14 47.3317 2.82106)
(0 46.0958 2.79872)
(0 46.0958 2.79872)
(-3.76678e-14 44.8934 2.77663)
(0 44.8934 2.77663)
(-1.90296e-14 43.7238 2.75483)
(-2.74235e-14 43.7238 2.75483)
(-2.69209e-14 42.5866 2.73333)
(-7.68949e-14 42.5866 2.73333)
(3.88326e-14 41.4808 2.71213)
(0 41.4808 2.71213)
(1.32715e-14 40.406 2.69124)
(7.84296e-14 40.406 2.69124)
(-1.9797e-14 39.3613 2.67068)
(7.9188e-14 39.3613 2.67068)
(3.99703e-14 38.3461 2.65045)
(-2.50013e-14 38.3461 2.65045)
(2.01718e-14 37.3595 2.63056)
(8.06872e-14 37.3595 2.63056)
(3.73632e-15 36.4009 2.611)
(-2.40934e-14 36.4009 2.611)
(-2.36519e-14 35.4695 2.59178)
(1.64327e-13 35.4695 2.59178)
(-4.39418e-14 34.5647 2.57291)
(2.32185e-14 34.5647 2.57291)
(0 33.6855 2.55438)
(1.67236e-13 33.6855 2.55438)
(-2.10842e-14 32.8314 2.53619)
(0 32.8314 2.53619)
(0 32.0016 2.51834)
(8.50507e-14 32.0016 2.51834)
(2.14399e-14 31.1954 2.50083)
(1.71519e-13 31.1954 2.50083)
(-2.16158e-14 30.4121 2.48366)
(8.64631e-14 30.4121 2.48366)
(1.01069e-15 29.6511 2.46682)
(8.71618e-14 29.6511 2.46682)
(-4.39278e-14 28.9117 2.45031)
(4.70577e-14 28.9117 2.45031)
(-6.00755e-14 28.1931 2.43412)
(2.1714e-13 28.1931 2.43412)
(0 27.4949 2.41826)
(4.99127e-14 27.4949 2.41826)
(-2.24772e-14 26.8164 2.40272)
(-3.8596e-14 26.8164 2.40272)
(2.26461e-14 26.1569 2.38748)
(0 26.1569 2.38748)
(0 25.5159 2.37255)
(-3.71944e-14 25.5159 2.37255)
(1.35324e-14 24.8928 2.35793)
(-3.65128e-14 24.8928 2.35793)
(-2.31461e-14 24.287 2.3436)
(-1.28428e-13 24.287 2.3436)
(-2.33106e-14 23.6981 2.32956)
(1.86485e-13 23.6981 2.32956)
(0 23.1255 2.3158)
(9.38968e-14 23.1255 2.3158)
(4.41816e-14 22.5686 2.30233)
(2.67287e-14 22.5686 2.30233)
(0 22.027 2.28912)
(9.51934e-14 22.027 2.28912)
(-2.3959e-14 21.5003 2.27619)
(9.58359e-14 21.5003 2.27619)
(0 20.9879 2.26351)
(9.64747e-14 20.9879 2.26351)
(-2.42775e-14 20.4894 2.25109)
(0 20.4894 2.25109)
(-2.44354e-14 20.0043 2.23891)
(0 20.0043 2.23891)
(-2.45924e-14 19.5323 2.22698)
(0 19.5323 2.22698)
(-5.04297e-15 19.0729 2.21529)
(-9.89941e-14 19.0729 2.21529)
(0 18.6258 2.20382)
(0 18.6258 2.20382)
(5.74193e-14 18.1905 2.19258)
(-5.74193e-14 18.1905 2.19258)
(5.33955e-14 17.7668 2.18156)
(0 17.7668 2.18156)
(-5.3032e-14 17.3541 2.17074)
(1.29127e-13 17.3541 2.17074)
(-2.5517e-14 16.9522 2.16014)
(1.02068e-13 16.9522 2.16014)
(-2.56683e-14 16.5608 2.14973)
(0 16.5608 2.14973)
(0 16.1796 2.13951)
(1.03275e-13 16.1796 2.13951)
(-2.59687e-14 15.8081 2.12948)
(-1.29569e-13 15.8081 2.12948)
(2.61179e-14 15.4461 2.11963)
(1.04471e-13 15.4461 2.11963)
(7.57886e-14 15.0934 2.10995)
(1.05065e-13 15.0934 2.10995)
(2.6414e-14 14.7496 2.10044)
(0 14.7496 2.10044)
(0 14.4145 2.09109)
(1.06244e-13 14.4145 2.09109)
(-2.67074e-14 14.0877 2.0819)
(0 14.0877 2.0819)
(0 13.7691 2.07285)
(1.30408e-13 13.7691 2.07285)
(-2.69982e-14 13.4584 2.06395)
(-2.25741e-14 13.4584 2.06395)
(0 13.1554 2.05519)
(0 13.1554 2.05519)
(0 12.8597 2.04655)
(1.09146e-13 12.8597 2.04655)
(0 12.5713 2.03803)
(1.09719e-13 12.5713 2.03803)
(-6.9501e-14 12.2898 2.02964)
(4.19287e-14 12.2898 2.02964)
(-2.77142e-14 12.0151 2.02135)
(0 12.0151 2.02135)
(-2.78556e-14 11.747 2.01316)
(0 11.747 2.01316)
(1.63271e-14 11.4852 2.00508)
(1.11986e-13 11.4852 2.00508)
(-4.54711e-14 11.2296 1.99708)
(1.12547e-13 11.2296 1.99708)
(0 10.98 1.98916)
(1.13105e-13 10.98 1.98916)
(-2.84154e-14 10.7362 1.98132)
(-3.75249e-14 10.7362 1.98132)
(-2.8554e-14 10.498 1.97355)
(0 10.498 1.97355)
(0 10.2653 1.96584)
(0 10.2653 1.96584)
(0 10.0379 1.95819)
(1.15318e-13 10.0379 1.95819)
(-2.89664e-14 9.81563 1.95058)
(-1.15866e-13 9.81563 1.95058)
(0 9.59835 1.94301)
(0 9.59835 1.94301)
(-6.28222e-14 9.38591 1.93548)
(-2.33909e-13 9.38591 1.93548)
(-6.23421e-14 9.17815 1.92796)
(0 9.17816 1.92796)
(0 8.97495 1.92046)
(0 8.97495 1.92046)
(0 8.77616 1.91297)
(8.68016e-14 8.77616 1.91297)
(-5.95538e-14 8.58166 1.90547)
(2.38215e-13 8.58166 1.90547)
(0 8.3913 1.89796)
(1.19641e-13 8.3913 1.89796)
(-3.00429e-14 8.20497 1.89044)
(-3.00562e-14 8.20497 1.89044)
(0 8.02254 1.88288)
(-9.11952e-14 8.02254 1.88288)
(-3.03069e-14 7.84389 1.87528)
(0 7.84389 1.87528)
(0 7.66891 1.86763)
(1.21752e-13 7.66891 1.86763)
(0 7.49749 1.85992)
(1.22275e-13 7.49749 1.85992)
(3.06988e-14 7.32951 1.85213)
(2.45591e-13 7.32951 1.85213)
(3.08284e-14 7.16486 1.84426)
(1.23314e-13 7.16486 1.84426)
(0 7.00344 1.8363)
(1.2383e-13 7.00344 1.8363)
(3.10861e-14 6.84515 1.82823)
(1.24344e-13 6.84515 1.82823)
(-3.12141e-14 6.68989 1.82003)
(2.49712e-13 6.68989 1.82003)
(-3.13415e-14 6.53756 1.8117)
(-1.25366e-13 6.53756 1.8117)
(0 6.38806 1.80322)
(4.90467e-14 6.38806 1.80322)
(-3.15947e-14 6.24129 1.79458)
(-4.8148e-14 6.24129 1.79458)
(-6.34409e-14 6.09718 1.78575)
(0 6.09718 1.78575)
(-3.18456e-14 5.95561 1.77673)
(1.27383e-13 5.95561 1.77673)
(4.55493e-14 5.81651 1.76749)
(-4.55493e-14 5.81651 1.76749)
(-3.20942e-14 5.67979 1.75802)
(0 5.67979 1.75802)
(0 5.54536 1.7483)
(-4.38952e-14 5.54536 1.7483)
(3.23402e-14 5.41313 1.7383)
(2.58722e-13 5.41313 1.7383)
(6.49245e-14 5.28302 1.72801)
(-1.29849e-13 5.28302 1.72801)
(6.51672e-14 5.15494 1.7174)
(0 5.15494 1.7174)
(6.54086e-14 5.02881 1.70644)
(2.61634e-13 5.02881 1.70644)
(3.28243e-14 4.90455 1.69512)
(9.1279e-14 4.90455 1.69512)
(3.29435e-14 4.78207 1.68341)
(1.31774e-13 4.78207 1.68341)
(-3.3062e-14 4.66129 1.67126)
(1.32248e-13 4.66129 1.67126)
(-3.31797e-14 4.54213 1.65866)
(0 4.54213 1.65866)
(0 4.4245 1.64557)
(1.33187e-13 4.4245 1.64557)
(-6.68255e-14 4.30833 1.63195)
(9.71675e-14 4.30833 1.63195)
(-6.93428e-14 4.19351 1.61777)
(3.58149e-14 4.19351 1.61777)
(0 4.07998 1.60298)
(2.69138e-13 4.07998 1.60298)
(3.45143e-14 3.96764 1.58755)
(-3.45143e-14 3.96764 1.58755)
(3.3868e-14 3.85639 1.57141)
(-1.35472e-13 3.85639 1.57141)
(3.39794e-14 3.74616 1.55452)
(0 3.74616 1.55452)
(-3.55279e-14 3.63684 1.53683)
(0 3.63684 1.53683)
(3.63447e-14 3.52834 1.51827)
(-3.20532e-14 3.52834 1.51827)
(-3.14658e-14 3.42056 1.49878)
(1.68694e-13 3.42056 1.49878)
(0 3.31339 1.47828)
(1.37655e-13 3.31339 1.47828)
(3.45194e-14 3.20672 1.45671)
(1.38078e-13 3.20672 1.45671)
(0 3.10045 1.43397)
(-1.68262e-13 3.10045 1.43397)
(-3.47265e-14 2.99444 1.40998)
(0 2.99444 1.40998)
(-3.48278e-14 2.88858 1.38462)
(1.39311e-13 2.88858 1.38462)
(-5.63218e-14 2.78273 1.3578)
(1.96032e-13 2.78273 1.3578)
(2.02639e-14 2.67674 1.3294)
(-1.40103e-13 2.67674 1.3294)
(3.51222e-14 2.57048 1.29927)
(2.26701e-13 2.57048 1.29927)
(0 2.46377 1.26728)
(1.40867e-13 2.46377 1.26728)
(-3.53095e-14 2.35644 1.23326)
(0 2.35644 1.23326)
(3.54001e-14 2.24832 1.19705)
(1.416e-13 2.24832 1.19705)
(1.49177e-14 2.13921 1.15845)
(1.41954e-13 2.13921 1.15845)
(-3.55746e-14 2.02889 1.11725)
(1.42298e-13 2.02889 1.11725)
(0 1.91716 1.07323)
(0 1.91716 1.07323)
(3.57392e-14 1.80378 1.02613)
(4.76856e-14 1.80378 1.02613)
(-1.18447e-13 1.68851 0.975697)
(1.90081e-13 1.68851 0.975697)
(0 1.57109 0.921639)
(0 1.57109 0.921639)
(0 1.45128 0.863655)
(0 1.45128 0.863655)
(3.60332e-14 1.32881 0.801427)
(1.44133e-13 1.32881 0.801427)
(-3.60981e-14 1.20345 0.734628)
(1.44392e-13 1.20345 0.734628)
(-3.6159e-14 1.07495 0.662929)
(-4.2677e-14 1.07495 0.662929)
(0 0.943124 0.586005)
(-4.1895e-14 0.943124 0.586005)
(4.11273e-14 0.807795 0.503546)
(-1.86198e-13 0.807795 0.503546)
(-3.6315e-14 0.668857 0.415273)
(0 0.668857 0.415273)
(-3.63569e-14 0.526265 0.320942)
(1.85061e-13 0.526265 0.320942)
(-3.89075e-14 0.380051 0.220364)
(1.8448e-13 0.380051 0.220364)
(-3.64232e-14 0.230333 0.113408)
(0 0.230333 0.113408)
(-7.39415e-14 2.58803e-06 9.57901e-07)
(3.29185e-13 1.65839e-06 6.13815e-07)
(0 127.819 -0.236547)
(-2.86062e-17 127.819 -0.236547)
(-1.12328e-16 127.819 -0.714057)
(0 127.819 -0.714057)
(-5.8141e-17 127.819 -0.991004)
(0 127.819 -0.991004)
(9.52683e-17 127.819 -1.0095)
(0 127.819 -1.0095)
(9.96573e-17 127.819 -1.02834)
(-4.25061e-16 127.819 -1.02834)
(2.31394e-16 127.818 -1.04754)
(-8.34543e-16 127.818 -1.04754)
(-4.09625e-16 127.818 -1.06709)
(-4.09625e-16 127.818 -1.06709)
(7.45297e-16 127.818 -1.087)
(0 127.818 -1.087)
(-4.45259e-16 127.817 -1.10729)
(1.78104e-15 127.817 -1.10729)
(5.19225e-16 127.816 -1.12795)
(-2.0769e-15 127.816 -1.12795)
(-3.32519e-16 127.816 -1.149)
(-2.37828e-15 127.816 -1.149)
(1.41821e-15 127.815 -1.17044)
(-7.46889e-16 127.815 -1.17044)
(-7.49508e-16 127.814 -1.19228)
(-2.99803e-15 127.814 -1.19228)
(1.43953e-15 127.813 -1.21452)
(-4.75614e-15 127.813 -1.21452)
(9.10282e-16 127.812 -1.23718)
(-3.64113e-15 127.812 -1.23718)
(-1.38726e-15 127.81 -1.26026)
(0 127.81 -1.26026)
(1.07711e-15 127.809 -1.28377)
(-5.67028e-15 127.809 -1.28377)
(-1.74015e-16 127.807 -1.30772)
(5.98835e-15 127.807 -1.30772)
(1.25022e-15 127.805 -1.33211)
(0 127.805 -1.33211)
(2.67842e-15 127.803 -1.35695)
(-2.57667e-15 127.803 -1.35695)
(3.95931e-15 127.801 -1.38225)
(3.18997e-15 127.801 -1.38225)
(1.52219e-15 127.798 -1.40802)
(6.08877e-15 127.798 -1.40802)
(-1.61625e-15 127.795 -1.43427)
(0 127.795 -1.43427)
(3.42412e-15 127.792 -1.46101)
(0 127.792 -1.46101)
(-5.39421e-16 127.788 -1.48824)
(2.34908e-15 127.788 -1.48824)
(2.30604e-15 127.784 -1.51597)
(0 127.784 -1.51597)
(0 127.78 -1.5442)
(-2.26378e-15 127.78 -1.5442)
(4.22703e-15 127.775 -1.57296)
(0 127.775 -1.57296)
(2.21859e-15 127.769 -1.60224)
(8.87438e-15 127.769 -1.60224)
(4.65127e-15 127.762 -1.63206)
(0 127.762 -1.63206)
(2.43467e-15 127.754 -1.66242)
(0 127.754 -1.66242)
(6.67339e-15 127.746 -1.69333)
(-4.12766e-15 127.746 -1.69333)
(2.65887e-15 127.735 -1.72479)
(-1.06355e-14 127.735 -1.72479)
(0 127.724 -1.75682)
(-1.50742e-14 127.724 -1.75682)
(3.90487e-15 127.711 -1.78941)
(0 127.711 -1.78941)
(6.84436e-15 127.695 -1.82258)
(-1.58775e-14 127.695 -1.82258)
(2.50258e-15 127.678 -1.85633)
(0 127.678 -1.85633)
(-3.25687e-15 127.658 -1.89066)
(-1.30275e-14 127.658 -1.89066)
(2.43205e-16 127.634 -1.92558)
(-3.06922e-14 127.634 -1.92558)
(-3.51191e-15 127.607 -1.96108)
(0 127.607 -1.96108)
(-3.64297e-15 127.576 -1.99716)
(0 127.576 -1.99716)
(-3.77647e-15 127.54 -2.03383)
(-3.02117e-14 127.54 -2.03383)
(7.82485e-15 127.499 -2.07108)
(0 127.499 -2.07108)
(1.06631e-14 127.451 -2.10889)
(-2.28158e-14 127.451 -2.10889)
(8.38378e-15 127.397 -2.14727)
(1.67676e-14 127.397 -2.14727)
(1.07076e-14 127.334 -2.1862)
(-2.37141e-14 127.334 -2.1862)
(-8.96342e-15 127.261 -2.22566)
(-1.79268e-14 127.261 -2.22566)
(9.2612e-15 127.178 -2.26563)
(1.85224e-14 127.178 -2.26563)
(0 127.084 -2.30608)
(6.02819e-15 127.084 -2.30608)
(-4.93653e-15 126.975 -2.34699)
(-4.541e-14 126.975 -2.34699)
(5.09365e-15 126.851 -2.38831)
(-2.03746e-14 126.851 -2.38831)
(5.25359e-15 126.71 -2.43002)
(0 126.71 -2.43002)
(0 126.55 -2.47205)
(-4.3331e-14 126.55 -2.47205)
(5.58203e-15 126.368 -2.51435)
(0 126.368 -2.51435)
(1.15012e-14 126.163 -2.55685)
(0 126.163 -2.55685)
(0 125.93 -2.59949)
(-2.89846e-14 125.93 -2.59949)
(8.9743e-16 125.669 -2.64218)
(0 125.669 -2.64218)
(6.27397e-15 125.375 -2.68483)
(-2.50959e-14 125.375 -2.68483)
(1.00207e-14 125.045 -2.72735)
(-3.58381e-14 125.045 -2.72735)
(0 124.677 -2.76962)
(-2.6551e-14 124.677 -2.76962)
(6.82412e-15 124.267 -2.81152)
(0 124.267 -2.81152)
(0 123.811 -2.85294)
(-9.47981e-15 123.811 -2.85294)
(1.65119e-14 123.306 -2.89374)
(-9.30609e-15 123.306 -2.89374)
(7.401e-15 122.75 -2.93377)
(-9.13556e-15 122.75 -2.93377)
(0 122.137 -2.97289)
(-3.03966e-14 122.137 -2.97289)
(0 121.466 -3.01096)
(0 121.466 -3.01096)
(8.00396e-15 120.734 -3.04781)
(-3.20158e-14 120.734 -3.04781)
(8.48412e-15 119.937 -3.08329)
(-4.13262e-14 119.937 -3.08329)
(0 119.073 -3.11725)
(8.32865e-15 119.073 -3.11725)
(-1.68076e-14 118.14 -3.14954)
(7.72286e-14 118.14 -3.14954)
(0 117.137 -3.18002)
(8.02621e-15 117.137 -3.18002)
(9.06258e-15 116.063 -3.20855)
(-3.62503e-14 116.063 -3.20855)
(9.28155e-15 114.917 -3.23501)
(-3.71262e-14 114.917 -3.23501)
(1.5186e-14 113.7 -3.25929)
(-7.60212e-14 113.7 -3.25929)
(-9.72576e-15 112.412 -3.28129)
(0 112.412 -3.28129)
(0 111.055 -3.30093)
(0 111.055 -3.30093)
(0 109.631 -3.31815)
(4.07095e-14 109.631 -3.31815)
(3.69756e-15 108.143 -3.3329)
(-1.66489e-13 108.143 -3.3329)
(2.12703e-14 106.593 -3.34518)
(-4.25405e-14 106.593 -3.34518)
(-1.08659e-14 104.985 -3.35496)
(0 104.985 -3.35496)
(-1.10977e-14 103.325 -3.36228)
(-4.43907e-14 103.325 -3.36228)
(3.5343e-15 101.616 -3.36715)
(-7.15161e-14 101.616 -3.36715)
(-1.15636e-14 99.8634 -3.36964)
(-1.05366e-13 99.8634 -3.36964)
(2.35948e-14 98.0724 -3.36981)
(-4.71896e-14 98.0724 -3.36981)
(1.20315e-14 96.2484 -3.36774)
(4.8126e-14 96.2484 -3.36774)
(-2.4327e-14 94.3968 -3.36352)
(7.33901e-14 94.3968 -3.36352)
(5.59435e-16 92.5231 -3.35727)
(-5.00002e-14 92.5231 -3.35727)
(-3.71901e-14 90.6327 -3.34908)
(2.74929e-14 90.6327 -3.34908)
(2.44749e-14 88.7308 -3.33908)
(-1.1507e-14 88.7308 -3.33908)
(-1.90509e-15 86.8226 -3.32739)
(0 86.8226 -3.32739)
(0 84.913 -3.31414)
(0 84.913 -3.31414)
(1.3666e-14 83.0065 -3.29945)
(5.46638e-14 83.0065 -3.29945)
(2.13729e-14 81.1075 -3.28345)
(-5.55885e-14 81.1075 -3.28345)
(0 79.2199 -3.26627)
(-2.09813e-14 79.2199 -3.26627)
(1.43565e-14 77.3476 -3.24801)
(5.74261e-14 77.3476 -3.24801)
(2.02193e-14 75.4936 -3.22881)
(-2.02193e-14 75.4936 -3.22881)
(0 73.6612 -3.20876)
(-1.18491e-13 73.6612 -3.20876)
(0 71.853 -3.18799)
(0 71.853 -3.18799)
(1.52611e-14 70.0713 -3.16658)
(-6.10444e-14 70.0713 -3.16658)
(1.54839e-14 68.3182 -3.14464)
(0 68.3182 -3.14464)
(1.57052e-14 66.5953 -3.12226)
(1.25641e-13 66.5953 -3.12226)
(1.5925e-14 64.9043 -3.09952)
(0 64.9043 -3.09952)
(1.61433e-14 63.2463 -3.07649)
(-6.4573e-14 63.2463 -3.07649)
(-1.07859e-15 61.6222 -3.05325)
(4.80013e-14 61.6222 -3.05325)
(0 60.0329 -3.02987)
(0 60.0329 -3.02987)
(1.6727e-17 58.4789 -3.0064)
(-8.39595e-14 58.4789 -3.0064)
(1.64973e-14 56.9606 -2.98289)
(-1.64973e-14 56.9606 -2.98289)
(0 55.4781 -2.95941)
(0 55.4781 -2.95941)
(0 54.0316 -2.93598)
(0 54.0316 -2.93598)
(4.68208e-14 52.6209 -2.91266)
(-8.61119e-14 52.6209 -2.91266)
(0 51.2459 -2.88948)
(-1.53209e-14 51.2459 -2.88948)
(1.50402e-14 49.9063 -2.86647)
(-1.50402e-14 49.9063 -2.86647)
(-1.12918e-14 48.6017 -2.84365)
(0 48.6017 -2.84365)
(-1.84378e-14 47.3317 -2.82106)
(0 47.3317 -2.82106)
(-1.86366e-14 46.0958 -2.79872)
(0 46.0958 -2.79872)
(-9.1015e-15 44.8934 -2.77663)
(0 44.8934 -2.77663)
(0 43.7238 -2.75483)
(-2.74235e-14 43.7238 -2.75483)
(-3.84474e-14 42.5866 -2.73333)
(-1.5379e-13 42.5866 -2.73333)
(0 41.4808 -2.71213)
(0 41.4808 -2.71213)
(1.96074e-14 40.406 -2.69124)
(0 40.406 -2.69124)
(-2.54679e-14 39.3613 -2.67068)
(7.9188e-14 39.3613 -2.67068)
(0 38.3461 -2.65045)
(-7.99405e-14 38.3461 -2.65045)
(0 37.3595 -2.63056)
(-8.06872e-14 37.3595 -2.63056)
(-2.0357e-14 36.4009 -2.611)
(-8.14282e-14 36.4009 -2.611)
(2.36519e-14 35.4695 -2.59178)
(5.85117e-14 35.4695 -2.59178)
(2.07233e-14 34.5647 -2.57291)
(0 34.5647 -2.57291)
(4.18089e-14 33.6855 -2.55438)
(8.36178e-14 33.6855 -2.55438)
(-2.10842e-14 32.8314 -2.53619)
(6.19616e-14 32.8314 -2.53619)
(-2.19653e-14 32.0016 -2.51834)
(0 32.0016 -2.51834)
(2.14399e-14 31.1954 -2.50083)
(0 31.1954 -2.50083)
(4.4812e-16 30.4121 -2.48366)
(1.07631e-13 30.4121 -2.48366)
(2.17904e-14 29.6511 -2.46682)
(8.71618e-14 29.6511 -2.46682)
(2.19639e-14 28.9117 -2.45031)
(0 28.9117 -2.45031)
(2.00252e-14 28.1931 -2.43412)
(-8.85447e-14 28.1931 -2.43412)
(4.19655e-14 27.4949 -2.41826)
(0 27.4949 -2.41826)
(3.54167e-14 26.8164 -2.40272)
(-3.8596e-14 26.8164 -2.40272)
(0 26.1569 -2.38748)
(0 26.1569 -2.38748)
(-1.43806e-14 25.5159 -2.37255)
(0 25.5159 -2.37255)
(9.4481e-15 24.8928 -2.35793)
(3.65128e-14 24.8928 -2.35793)
(0 24.287 -2.3436)
(3.58438e-14 24.287 -2.3436)
(5.84976e-14 23.6981 -2.32956)
(1.86485e-13 23.6981 -2.32956)
(0 23.1255 -2.3158)
(0 23.1255 -2.3158)
(-9.14551e-14 22.5686 -2.30233)
(0 22.5686 -2.30233)
(-2.37983e-14 22.027 -2.28912)
(0 22.027 -2.28912)
(0 21.5003 -2.27619)
(0 21.5003 -2.27619)
(2.41187e-14 20.9879 -2.26351)
(0 20.9879 -2.26351)
(3.14912e-14 20.4894 -2.25109)
(0 20.4894 -2.25109)
(4.88707e-14 20.0043 -2.23891)
(-9.77414e-14 20.0043 -2.23891)
(4.91847e-14 19.5323 -2.22698)
(-9.83695e-14 19.5323 -2.22698)
(5.04297e-15 19.0729 -2.21529)
(-2.96982e-13 19.0729 -2.21529)
(-2.49038e-14 18.6258 -2.20382)
(0 18.6258 -2.20382)
(2.87097e-14 18.1905 -2.19258)
(7.15236e-14 18.1905 -2.19258)
(-2.81836e-14 17.7668 -2.18156)
(-2.81836e-14 17.7668 -2.18156)
(2.53649e-14 17.3541 -2.17074)
(0 17.3541 -2.17074)
(1.64316e-15 16.9522 -2.16014)
(-1.29228e-13 16.9522 -2.16014)
(0 16.5608 -2.14973)
(0 16.5608 -2.14973)
(5.19927e-14 16.1796 -2.13951)
(1.03275e-13 16.1796 -2.13951)
(5.19374e-14 15.8081 -2.12948)
(-1.03875e-13 15.8081 -2.12948)
(2.52234e-14 15.4461 -2.11963)
(-1.29695e-13 15.4461 -2.11963)
(5.10274e-14 15.0934 -2.10995)
(-2.47612e-14 15.0934 -2.10995)
(-2.43074e-14 14.7496 -2.10044)
(-1.05656e-13 14.7496 -2.10044)
(0 14.4145 -2.09109)
(-2.3635e-13 14.4145 -2.09109)
(-2.34247e-14 14.0877 -2.0819)
(0 14.0877 -2.0819)
(5.37063e-14 13.7691 -2.07285)
(1.07413e-13 13.7691 -2.07285)
(2.69982e-14 13.4584 -2.06395)
(-4.51482e-14 13.4584 -2.06395)
(0 13.1554 -2.05519)
(1.08571e-13 13.1554 -2.05519)
(2.72864e-14 12.8597 -2.04655)
(-1.09146e-13 12.8597 -2.04655)
(0 12.5713 -2.03803)
(-1.5243e-13 12.5713 -2.03803)
(0 12.2898 -2.02964)
(4.19287e-14 12.2898 -2.02964)
(6.88746e-14 12.0151 -2.02135)
(-1.52017e-13 12.0151 -2.02135)
(5.57112e-14 11.747 -2.01316)
(-1.11422e-13 11.747 -2.01316)
(2.79964e-14 11.4852 -2.00508)
(7.23199e-14 11.4852 -2.00508)
(1.73344e-14 11.2296 -1.99708)
(1.12547e-13 11.2296 -1.99708)
(2.82763e-14 10.98 -1.98916)
(0 10.98 -1.98916)
(9.10942e-15 10.7362 -1.98132)
(0 10.7362 -1.98132)
(6.53912e-14 10.498 -1.97355)
(-1.51053e-13 10.498 -1.97355)
(2.8692e-14 10.2653 -1.96584)
(1.14768e-13 10.2653 -1.96584)
(5.7659e-14 10.0379 -1.95819)
(-3.54995e-14 10.0379 -1.95819)
(0 9.81563 -1.95058)
(1.50715e-13 9.81563 -1.95058)
(-2.91028e-14 9.59835 -1.94301)
(-1.50622e-13 9.59835 -1.94301)
(5.84774e-14 9.38591 -1.93548)
(-1.16955e-13 9.38591 -1.93548)
(3.59409e-15 9.17816 -1.92796)
(-2.6796e-13 9.17816 -1.92796)
(2.95088e-14 8.97495 -1.92046)
(-1.50399e-13 8.97495 -1.92046)
(-3.17709e-14 8.77616 -1.91297)
(5.50307e-14 8.77616 -1.91297)
(-2.82362e-15 8.58166 -1.90547)
(1.19108e-13 8.58166 -1.90547)
(6.05274e-14 8.3913 -1.89796)
(-1.50258e-13 8.3913 -1.89796)
(-3.00694e-14 8.20497 -1.89044)
(0 8.20497 -1.89044)
(0 8.02254 -1.88288)
(-1.20701e-13 8.02254 -1.88288)
(0 7.84389 -1.87528)
(-1.21227e-13 7.84389 -1.87528)
(2.84339e-14 7.66891 -1.86763)
(-1.50186e-13 7.66891 -1.86763)
(0 7.49749 -1.85992)
(0 7.49749 -1.85992)
(3.06988e-14 7.32951 -1.85213)
(-2.74014e-14 7.32951 -1.85213)
(3.08284e-14 7.16486 -1.84426)
(1.23314e-13 7.16486 -1.84426)
(3.09575e-14 7.00344 -1.8363)
(0 7.00344 -1.8363)
(0 6.84515 -1.82823)
(1.24344e-13 6.84515 -1.82823)
(0 6.68989 -1.82003)
(-5.08949e-14 6.68989 -1.82003)
(0 6.53756 -1.8117)
(-1.25366e-13 6.53756 -1.8117)
(0 6.38806 -1.80322)
(-4.90467e-14 6.38806 -1.80322)
(-3.15947e-14 6.24129 -1.79458)
(-4.8148e-14 6.24129 -1.79458)
(1.55452e-14 6.09718 -1.78575)
(-1.74148e-13 6.09718 -1.78575)
(-3.18456e-14 5.95561 -1.77673)
(-1.27383e-13 5.95561 -1.77673)
(0 5.81651 -1.76749)
(0 5.81651 -1.76749)
(0 5.67979 -1.75802)
(-3.01468e-13 5.67979 -1.75802)
(0 5.54536 -1.7483)
(-1.72765e-13 5.54536 -1.7483)
(-4.30909e-14 5.41313 -1.7383)
(4.30909e-14 5.41313 -1.7383)
(0 5.28302 -1.72801)
(-1.7215e-13 5.28302 -1.72801)
(8.94246e-15 5.15494 -1.7174)
(-4.15261e-14 5.15494 -1.7174)
(6.54086e-14 5.02881 -1.70644)
(9.00521e-14 5.02881 -1.70644)
(6.56486e-14 4.90455 -1.69512)
(0 4.90455 -1.69512)
(6.58871e-14 4.78207 -1.68341)
(-1.31774e-13 4.78207 -1.68341)
(7.16269e-14 4.66129 -1.67126)
(-3.85649e-14 4.66129 -1.67126)
(4.67848e-15 4.54213 -1.65866)
(-3.78582e-14 4.54213 -1.65866)
(3.71645e-14 4.4245 -1.64557)
(1.33187e-13 4.4245 -1.64557)
(3.07073e-15 4.30833 -1.63195)
(9.71675e-14 4.30833 -1.63195)
(0 4.19351 -1.61777)
(-1.69927e-13 4.19351 -1.61777)
(0 4.07998 -1.60298)
(-1.69728e-13 4.07998 -1.60298)
(-6.827e-14 3.96764 -1.58755)
(-1.35022e-13 3.96764 -1.58755)
(6.7736e-14 3.85639 -1.57141)
(-1.35472e-13 3.85639 -1.57141)
(7.18394e-16 3.74616 -1.55452)
(3.3261e-14 3.74616 -1.55452)
(-6.5303e-14 3.63684 -1.53683)
(1.36359e-13 3.63684 -1.53683)
(0 3.52834 -1.51827)
(0 3.52834 -1.51827)
(0 3.42056 -1.49878)
(-2.0016e-13 3.42056 -1.49878)
(0 3.31339 -1.47828)
(-3.08892e-14 3.31339 -1.47828)
(-2.6127e-14 3.20672 -1.45671)
(1.07754e-13 3.20672 -1.45671)
(3.46236e-14 3.10045 -1.43397)
(-2.76989e-13 3.10045 -1.43397)
(0 2.99444 -1.40998)
(0 2.99444 -1.40998)
(-2.25453e-14 2.88858 -1.38462)
(0 2.88858 -1.38462)
(9.12494e-14 2.78273 -1.3578)
(-1.96032e-13 2.78273 -1.3578)
(-3.50258e-14 2.67674 -1.3294)
(1.40103e-13 2.67674 -1.3294)
(7.02444e-14 2.57048 -1.29927)
(1.40489e-13 2.57048 -1.29927)
(1.71517e-14 2.46377 -1.26728)
(0 2.46377 -1.26728)
(3.53095e-14 2.35644 -1.23326)
(-5.23055e-14 2.35644 -1.23326)
(3.54001e-14 2.24832 -1.19705)
(0 2.24832 -1.19705)
(3.54885e-14 2.13921 -1.15845)
(-1.9236e-13 2.13921 -1.15845)
(3.55746e-14 2.02889 -1.11725)
(1.42298e-13 2.02889 -1.11725)
(0 1.91716 -1.07323)
(-1.42633e-13 1.91716 -1.07323)
(3.57392e-14 1.80378 -1.02613)
(-1.90642e-13 1.80378 -1.02613)
(3.58174e-14 1.68851 -0.975697)
(4.68118e-14 1.68851 -0.975697)
(4.59539e-14 1.57109 -0.921639)
(1.43571e-13 1.57109 -0.921639)
(4.51119e-14 1.45128 -0.863655)
(-3.32829e-13 1.45128 -0.863655)
(0 1.32881 -0.801427)
(-1.44133e-13 1.32881 -0.801427)
(3.60981e-14 1.20345 -0.734628)
(-1.44392e-13 1.20345 -0.734628)
(3.6159e-14 1.07495 -0.662929)
(1.01959e-13 1.07495 -0.662929)
(3.62157e-14 0.943124 -0.586005)
(-2.89725e-13 0.943124 -0.586005)
(7.25356e-14 0.807795 -0.503546)
(-1.45071e-13 0.807795 -0.503546)
(0 0.668857 -0.415273)
(0 0.668857 -0.415273)
(-7.59907e-14 0.526265 -0.320942)
(1.05794e-13 0.526265 -0.320942)
(3.89075e-14 0.380051 -0.220364)
(-1.8448e-13 0.380051 -0.220364)
(-3.64232e-14 0.230333 -0.113408)
(1.45693e-13 0.230333 -0.113408)
(3.64468e-14 2.67428e-06 -9.89824e-07)
(1.83514e-13 8.86848e-07 -3.28247e-07)
(3.65048e-14 -2.59061e-06 9.58857e-07)
(1.83282e-13 -1.65619e-06 6.13001e-07)
(-3.81946e-14 -0.230332 0.113407)
(2.53191e-13 -0.230332 0.113407)
(-3.63931e-14 -0.38005 0.220364)
(0 -0.38005 0.220364)
(3.96338e-14 -0.526264 0.320941)
(1.05794e-13 -0.526264 0.320941)
(-4.03736e-14 -0.668856 0.415272)
(3.30893e-13 -0.668856 0.415272)
(-3.62678e-14 -0.807794 0.503546)
(-1.45071e-13 -0.807794 0.503546)
(0 -0.943123 0.586004)
(0 -0.943123 0.586004)
(6.51804e-15 -1.07495 0.662929)
(-1.87313e-13 -1.07495 0.662929)
(0 -1.20345 0.734628)
(0 -1.20345 0.734628)
(8.03184e-14 -1.32881 0.801426)
(0 -1.32881 0.801426)
(0 -1.45128 0.863654)
(1.43859e-13 -1.45128 0.863654)
(0 -1.57109 0.921638)
(1.43571e-13 -1.57109 0.921638)
(0 -1.68851 0.975696)
(0 -1.68851 0.975696)
(-3.57392e-14 -1.80378 1.02613)
(-1.42957e-13 -1.80378 1.02613)
(7.13164e-14 -1.91716 1.07323)
(-4.85757e-14 -1.91716 1.07323)
(0 -2.02889 1.11725)
(0 -2.02889 1.11725)
(7.0977e-14 -2.13921 1.15845)
(1.41954e-13 -2.13921 1.15845)
(-3.54001e-14 -2.24832 1.19705)