/*--------------------------------*- C++ -*----------------------------------*\
| =========                 |                                                 |
| \\      /  F ield         | OpenFOAM: The Open Source CFD Toolbox           |
|  \\    /   O peration     | Version:  2106                                  |
|   \\  /    A nd           | Website:  www.openfoam.com                      |
|    \\/     M anipulation  |                                                 |
\*---------------------------------------------------------------------------*/
FoamFile
{
    version     2.0;
    format      ascii;
    arch        "LSB;label=32;scalar=64";
    class       volScalarField;
    location    "10020";
    object      p;
}
// * * * * * * * * * * * * * * * * * * * * * * * * * * * * * * * * * * * * * //

dimensions      [0 2 -2 0 0 0 0];

internalField   nonuniform List<scalar> 
2000
(
4.36259e-15
-5.22861e-15
1.04166e-14
-5.22636e-15
1.12986e-14
-5.22404e-15
1.0518e-14
-5.22054e-15
9.88568e-15
-5.21574e-15
9.46632e-15
-5.20959e-15
9.08956e-15
-5.20211e-15
8.712e-15
-5.19324e-15
8.33956e-15
-5.18296e-15
7.97472e-15
-5.17136e-15
7.61593e-15
-5.1586e-15
7.26192e-15
-5.14458e-15
6.91209e-15
-5.12928e-15
6.56632e-15
-5.1128e-15
6.22422e-15
-5.09511e-15
5.88574e-15
-5.07635e-15
5.55116e-15
-5.05659e-15
5.2202e-15
-5.03579e-15
4.89288e-15
-5.01394e-15
4.56901e-15
-4.99123e-15
4.24862e-15
-4.96757e-15
3.93173e-15
-4.94296e-15
3.6182e-15
-4.91761e-15
3.3083e-15
-4.89144e-15
3.00163e-15
-4.8647e-15
2.69827e-15
-4.83725e-15
2.39814e-15
-4.80911e-15
2.1015e-15
-4.78049e-15
1.80799e-15
-4.75107e-15
1.5177e-15
-4.7213e-15
1.23007e-15
-4.69088e-15
9.45804e-16
-4.66028e-15
6.64738e-16
-4.62921e-15
3.8678e-16
-4.59784e-15
1.1199e-16
-4.56617e-15
-1.59509e-16
-4.53457e-15
-4.27884e-16
-4.50288e-15
-6.93164e-16
-4.47082e-15
-9.55238e-16
-4.4388e-15
-1.21387e-15
-4.40733e-15
-1.46965e-15
-4.37546e-15
-1.7226e-15
-4.3433e-15
-1.97212e-15
-4.31148e-15
-2.21803e-15
-4.27997e-15
-2.46102e-15
-4.24908e-15
-2.70127e-15
-4.2184e-15
-2.93847e-15
-4.18823e-15
-3.17248e-15
-4.15841e-15
-3.40337e-15
-4.12841e-15
-3.63057e-15
-4.09887e-15
-3.85552e-15
-4.07038e-15
-4.07656e-15
-4.04284e-15
-4.29491e-15
-4.01615e-15
-4.50963e-15
-3.99023e-15
-4.72129e-15
-3.96496e-15
-4.93063e-15
-3.94086e-15
-5.137e-15
-3.9174e-15
-5.33976e-15
-3.89428e-15
-5.53951e-15
-3.87177e-15
-5.73642e-15
-3.85072e-15
-5.92995e-15
-3.83134e-15
-6.12179e-15
-3.81272e-15
-6.31012e-15
-3.79456e-15
-6.49591e-15
-3.77633e-15
-6.67832e-15
-3.75934e-15
-6.85834e-15
-3.74343e-15
-7.03551e-15
-3.72805e-15
-7.20977e-15
-3.71514e-15
-7.38176e-15
-3.70378e-15
-7.55006e-15
-3.69446e-15
-7.71567e-15
-3.68665e-15
-7.87889e-15
-3.67981e-15
-8.03971e-15
-3.67409e-15
-8.1978e-15
-3.67125e-15
-8.35283e-15
-3.67075e-15
-8.5061e-15
-3.6714e-15
-8.65698e-15
-3.67301e-15
-8.80484e-15
-3.67634e-15
-8.95194e-15
-3.68214e-15
-9.09572e-15
-3.68924e-15
-9.23652e-15
-3.7e-15
-9.37532e-15
-3.71293e-15
-9.51117e-15
-3.72783e-15
-9.64503e-15
-3.74641e-15
-9.77659e-15
-3.76785e-15
-9.90616e-15
-3.79e-15
-1.00354e-14
-3.8133e-15
-1.01606e-14
-3.83883e-15
-1.02849e-14
-3.8664e-15
-1.04065e-14
-3.89514e-15
-1.05257e-14
-3.92746e-15
-1.06422e-14
-3.96186e-15
-1.07557e-14
-3.9981e-15
-1.08684e-14
-4.03801e-15
-1.09752e-14
-4.0807e-15
-1.1077e-14
-4.12528e-15
-1.11763e-14
-4.17084e-15
-1.12718e-14
-4.22062e-15
-1.13668e-14
-4.27304e-15
-1.14586e-14
-4.32928e-15
-1.1549e-14
-4.38771e-15
-1.16369e-14
-4.44666e-15
-1.17226e-14
-4.50732e-15
-1.18079e-14
-4.57237e-15
-1.18902e-14
-4.64013e-15
-1.19654e-14
-4.71185e-15
-1.20396e-14
-4.78733e-15
-1.21102e-14
-4.86634e-15
-1.21775e-14
-4.95176e-15
-1.22373e-14
-5.04029e-15
-1.2299e-14
-5.13016e-15
-1.23568e-14
-5.22429e-15
-1.24111e-14
-5.31766e-15
-1.24605e-14
-5.41322e-15
-1.25069e-14
-5.51237e-15
-1.25507e-14
-5.61654e-15
-1.25906e-14
-5.71893e-15
-1.26285e-14
-5.82258e-15
-1.26666e-14
-5.93065e-15
-1.26966e-14
-6.04297e-15
-1.27274e-14
-6.14903e-15
-1.2756e-14
-6.25544e-15
-1.27844e-14
-6.36196e-15
-1.28026e-14
-6.47188e-15
-1.28213e-14
-6.58502e-15
-1.28374e-14
-6.69766e-15
-1.28512e-14
-6.80958e-15
-1.28667e-14
-6.92056e-15
-1.28843e-14
-7.03037e-15
-1.28971e-14
-7.14248e-15
-1.29092e-14
-7.2493e-15
-1.29171e-14
-7.35054e-15
-1.29288e-14
-7.46093e-15
-1.29448e-14
-7.57285e-15
-1.29656e-14
-7.6747e-15
-1.29802e-14
-7.77374e-15
-1.29929e-14
-7.87736e-15
-1.30003e-14
-7.98148e-15
-1.29989e-14
-8.0859e-15
-1.29929e-14
-8.19433e-15
-1.29905e-14
-8.31063e-15
-1.29881e-14
-8.41499e-15
-1.29821e-14
-8.50718e-15
-1.29729e-14
-8.60296e-15
-1.29647e-14
-8.6982e-15
-1.2954e-14
-8.78875e-15
-1.29409e-14
-8.87441e-15
-1.293e-14
-8.95908e-15
-1.29133e-14
-9.04671e-15
-1.28912e-14
-9.13729e-15
-1.28886e-14
-9.23086e-15
-1.28811e-14
-9.33143e-15
-1.28941e-14
-9.4224e-15
-1.28614e-14
-9.52856e-15
-1.28412e-14
-9.62524e-15
-1.28337e-14
-9.72098e-15
-1.28224e-14
-9.81577e-15
-1.28157e-14
-9.90975e-15
-1.28309e-14
-1.00116e-14
-1.2843e-14
-1.01045e-14
-1.28355e-14
-1.02053e-14
-1.28252e-14
-1.02975e-14
-1.28293e-14
-1.03899e-14
-1.28307e-14
-1.04912e-14
-1.28208e-14
-1.05847e-14
-1.28337e-14
-1.06881e-14
-1.28351e-14
-1.08018e-14
-1.28332e-14
-1.09011e-14
-1.28279e-14
-1.09865e-14
-1.28274e-14
-1.1076e-14
-1.28404e-14
-1.11789e-14
-1.28316e-14
-1.12873e-14
-1.28439e-14
-1.14027e-14
-1.28332e-14
-1.14829e-14
-1.28337e-14
-1.15638e-14
-1.28188e-14
-1.16641e-14
-1.28397e-14
-1.17683e-14
-1.28437e-14
-1.18604e-14
-1.28474e-14
-1.19244e-14
-1.28418e-14
-1.19963e-14
-1.28e-14
-1.20867e-14
-1.28239e-14
-1.22077e-14
-1.28602e-14
-1.23097e-14
-1.28909e-14
-1.24118e-14
-1.29153e-14
-1.25507e-14
-1.29486e-14
-1.26431e-14
-1.29892e-14
-1.26916e-14
-1.30382e-14
-1.2766e-14
-1.30605e-14
-1.285e-14
-1.30893e-14
-1.2998e-14
-1.31038e-14
-1.31284e-14
-1.31521e-14
-1.32111e-14
-1.32504e-14
-1.3231e-14
-1.33161e-14
-1.32709e-14
-1.33678e-14
-1.33466e-14
-1.34223e-14
-1.33907e-14
-1.34804e-14
-1.34036e-14
-1.35439e-14
-1.34514e-14
-1.35977e-14
-1.34823e-14
-1.36606e-14
-1.3563e-14
-1.36985e-14
-1.36618e-14
-1.37603e-14
-1.36818e-14
-1.38149e-14
-1.37394e-14
-1.38622e-14
-1.38028e-14
-1.39359e-14
-1.38902e-14
-1.40033e-14
-1.39018e-14
-1.40518e-14
-1.39852e-14
-1.40966e-14
-1.40928e-14
-1.41518e-14
-1.40968e-14
-1.41872e-14
-1.41426e-14
-1.42184e-14
-1.42158e-14
-1.42591e-14
-1.42864e-14
-1.43566e-14
-1.43239e-14
-1.4386e-14
-1.4388e-14
-1.44752e-14
-1.44498e-14
-1.45651e-14
-1.45414e-14
-1.45639e-14
-1.4568e-14
-1.46285e-14
-1.45934e-14
-1.46967e-14
-1.46751e-14
-1.47378e-14
-1.47506e-14
-1.4689e-14
-1.47918e-14
-1.48165e-14
-1.48714e-14
-1.49099e-14
-1.49584e-14
-1.49408e-14
-1.49605e-14
-1.49741e-14
-1.49359e-14
-1.50139e-14
-1.49973e-14
-1.50578e-14
-1.50549e-14
-1.51369e-14
-1.50512e-14
-1.51737e-14
-1.50661e-14
-1.51743e-14
-1.50929e-14
-1.5193e-14
-1.51619e-14
-1.52236e-14
-1.51966e-14
-1.52951e-14
-1.52294e-14
-1.53827e-14
-1.52562e-14
-1.5386e-14
-1.52677e-14
-1.54956e-14
-1.51745e-14
-1.55254e-14
-1.51859e-14
-1.5563e-14
-1.52639e-14
-1.56239e-14
-1.5296e-14
-1.56879e-14
-1.53524e-14
-1.57116e-14
-1.54834e-14
-1.57275e-14
-1.55791e-14
-1.56351e-14
-1.56533e-14
-1.5653e-14
-1.56636e-14
-1.5726e-14
-1.57143e-14
-1.57829e-14
-1.57712e-14
-1.58489e-14
-1.58273e-14
-1.58303e-14
-1.58332e-14
-1.58195e-14
-1.58978e-14
-1.58895e-14
-1.58858e-14
-9.80172e-15
-9.50685e-15
-9.80052e-15
-9.5066e-15
-9.79929e-15
-9.50628e-15
-9.79747e-15
-9.50576e-15
-9.79498e-15
-9.50505e-15
-9.79175e-15
-9.50413e-15
-9.78781e-15
-9.50295e-15
-9.78319e-15
-9.50162e-15
-9.77783e-15
-9.49999e-15
-9.77183e-15
-9.49805e-15
-9.7652e-15
-9.49587e-15
-9.75796e-15
-9.49344e-15
-9.7501e-15
-9.49069e-15
-9.74169e-15
-9.4876e-15
-9.73257e-15
-9.48434e-15
-9.72287e-15
-9.48083e-15
-9.71269e-15
-9.47702e-15
-9.70187e-15
-9.47301e-15
-9.6904e-15
-9.46874e-15
-9.67841e-15
-9.46416e-15
-9.6658e-15
-9.45939e-15
-9.65275e-15
-9.45417e-15
-9.63934e-15
-9.44857e-15
-9.62555e-15
-9.44261e-15
-9.61127e-15
-9.43644e-15
-9.59638e-15
-9.4301e-15
-9.58082e-15
-9.42358e-15
-9.56514e-15
-9.41692e-15
-9.54895e-15
-9.40996e-15
-9.5322e-15
-9.40273e-15
-9.51501e-15
-9.39517e-15
-9.49742e-15
-9.3873e-15
-9.47945e-15
-9.37924e-15
-9.46107e-15
-9.371e-15
-9.44245e-15
-9.36275e-15
-9.42361e-15
-9.354e-15
-9.4043e-15
-9.34493e-15
-9.38497e-15
-9.33543e-15
-9.36536e-15
-9.32566e-15
-9.34549e-15
-9.31607e-15
-9.32553e-15
-9.30614e-15
-9.30535e-15
-9.29577e-15
-9.28486e-15
-9.28551e-15
-9.26446e-15
-9.27475e-15
-9.24402e-15
-9.26365e-15
-9.22345e-15
-9.25213e-15
-9.20228e-15
-9.24082e-15
-9.18113e-15
-9.22963e-15
-9.15988e-15
-9.21743e-15
-9.13856e-15
-9.20428e-15
-9.11717e-15
-9.19179e-15
-9.09571e-15
-9.17932e-15
-9.07441e-15
-9.16604e-15
-9.05327e-15
-9.15305e-15
-9.03227e-15
-9.13956e-15
-9.01162e-15
-9.12499e-15
-8.9909e-15
-9.11062e-15
-8.9709e-15
-9.09569e-15
-8.951e-15
-9.08042e-15
-8.93158e-15
-9.06507e-15
-8.91224e-15
-9.04948e-15
-8.89406e-15
-9.03238e-15
-8.8761e-15
-9.01513e-15
-8.85796e-15
-8.99777e-15
-8.84035e-15
-8.98069e-15
-8.82252e-15
-8.96356e-15
-8.80516e-15
-8.94572e-15
-8.78753e-15
-8.92859e-15
-8.76995e-15
-8.91254e-15
-8.75205e-15
-8.89621e-15
-8.73514e-15
-8.87797e-15
-8.71784e-15
-8.85889e-15
-8.7011e-15
-8.83999e-15
-8.68422e-15
-8.82227e-15
-8.66649e-15
-8.80479e-15
-8.64984e-15
-8.78788e-15
-8.63387e-15
-8.7677e-15
-8.61949e-15
-8.74559e-15
-8.60344e-15
-8.72671e-15
-8.58855e-15
-8.70851e-15
-8.57476e-15
-8.68782e-15
-8.56201e-15
-8.66594e-15
-8.54962e-15
-8.6461e-15
-8.53817e-15
-8.62832e-15
-8.52695e-15
-8.61135e-15
-8.51526e-15
-8.59199e-15
-8.50434e-15
-8.57089e-15
-8.49477e-15
-8.55196e-15
-8.48717e-15
-8.53328e-15
-8.48017e-15
-8.51423e-15
-8.47173e-15
-8.49546e-15
-8.46443e-15
-8.47835e-15
-8.46023e-15
-8.45822e-15
-8.4537e-15
-8.43911e-15
-8.44815e-15
-8.42242e-15
-8.44282e-15
-8.40406e-15
-8.43835e-15
-8.38681e-15
-8.43537e-15
-8.37277e-15
-8.43384e-15
-8.35921e-15
-8.43513e-15
-8.34614e-15
-8.4349e-15
-8.33645e-15
-8.4374e-15
-8.32151e-15
-8.43967e-15
-8.30854e-15
-8.44162e-15
-8.30051e-15
-8.44764e-15
-8.29158e-15
-8.4532e-15
-8.28171e-15
-8.45972e-15
-8.27542e-15
-8.46561e-15
-8.27277e-15
-8.47385e-15
-8.27073e-15
-8.48437e-15
-8.2646e-15
-8.48928e-15
-8.26215e-15
-8.50266e-15
-8.26501e-15
-8.51495e-15
-8.26845e-15
-8.52925e-15
-8.27404e-15
-8.54388e-15
-8.27853e-15
-8.55873e-15
-8.28679e-15
-8.57868e-15
-8.2922e-15
-8.60039e-15
-8.29966e-15
-8.6221e-15
-8.31422e-15
-8.6471e-15
-8.32911e-15
-8.66677e-15
-8.34082e-15
-8.69476e-15
-8.34574e-15
-8.72242e-15
-8.35239e-15
-8.75318e-15
-8.3677e-15
-8.78347e-15
-8.38816e-15
-8.81676e-15
-8.41371e-15
-8.84581e-15
-8.44074e-15
-8.87405e-15
-8.46188e-15
-8.90139e-15
-8.48427e-15
-8.93873e-15
-8.51147e-15
-8.96757e-15
-8.54711e-15
-8.99887e-15
-8.57256e-15
-9.03253e-15
-8.59882e-15
-9.06849e-15
-8.62952e-15
-9.10665e-15
-8.66838e-15
-9.14306e-15
-8.71537e-15
-9.17364e-15
-8.76282e-15
-9.20974e-15
-8.81456e-15
-9.2551e-15
-8.87059e-15
-9.29398e-15
-8.93089e-15
-9.33398e-15
-8.98365e-15
-9.37491e-15
-9.0168e-15
-9.41271e-15
-9.04984e-15
-9.46727e-15
-9.09857e-15
-9.53064e-15
-9.14286e-15
-9.58277e-15
-9.19046e-15
-9.63973e-15
-9.23715e-15
-9.68119e-15
-9.27863e-15
-9.7274e-15
-9.31465e-15
-9.77841e-15
-9.36133e-15
-9.80949e-15
-9.43502e-15
-9.84906e-15
-9.50708e-15
-9.8885e-15
-9.5609e-15
-9.93585e-15
-9.61294e-15
-9.97439e-15
-9.67133e-15
-1.00206e-14
-9.75283e-15
-1.00826e-14
-9.81558e-15
-1.01182e-14
-9.85927e-15
-1.01524e-14
-9.91743e-15
-1.02017e-14
-9.99008e-15
-1.02403e-14
-1.00432e-14
-1.03105e-14
-1.00937e-14
-1.03697e-14
-1.01665e-14
-1.04522e-14
-1.02447e-14
-1.05151e-14
-1.0302e-14
-1.05755e-14
-1.03553e-14
-1.06163e-14
-1.04039e-14
-1.06717e-14
-1.04559e-14
-1.0733e-14
-1.05283e-14
-1.07916e-14
-1.05861e-14
-1.0856e-14
-1.06462e-14
-1.09089e-14
-1.07168e-14
-1.09501e-14
-1.07714e-14
-1.10052e-14
-1.08096e-14
-1.10572e-14
-1.08389e-14
-1.10979e-14
-1.08845e-14
-1.11357e-14
-1.09456e-14
-1.11875e-14
-1.10043e-14
-1.12358e-14
-1.10426e-14
-1.12806e-14
-1.1051e-14
-1.13228e-14
-1.10623e-14
-1.13722e-14
-1.11094e-14
-1.14113e-14
-1.11908e-14
-1.14563e-14
-1.1289e-14
-1.15229e-14
-1.13525e-14
-1.16286e-14
-1.13794e-14
-1.16542e-14
-1.14532e-14
-1.17368e-14
-1.15225e-14
-1.18246e-14
-1.1586e-14
-1.19014e-14
-1.1659e-14
-1.19849e-14
-1.1774e-14
-1.20576e-14
-1.18614e-14
-1.21361e-14
-1.19897e-14
-1.22181e-14
-1.20923e-14
-1.22853e-14
-1.21872e-14
-1.23708e-14
-1.22406e-14
-1.24586e-14
-1.2319e-14
-1.24977e-14
-1.2405e-14
-1.25706e-14
-1.24833e-14
-1.26427e-14
-1.252e-14
-1.26979e-14
-1.25628e-14
-1.27705e-14
-1.26256e-14
-1.28603e-14
-1.26402e-14
-1.29207e-14
-1.27186e-14
-1.29675e-14
-1.28433e-14
-1.30456e-14
-1.28839e-14
-1.3123e-14
-1.29716e-14
-1.31661e-14
-1.30886e-14
-1.32692e-14
-1.31386e-14
-1.33533e-14
-1.31683e-14
-1.34226e-14
-1.32707e-14
-1.34756e-14
-1.33814e-14
-1.35736e-14
-1.34874e-14
-1.36175e-14
-1.35578e-14
-1.36378e-14
-1.35936e-14
-1.36619e-14
-1.36901e-14
-1.37125e-14
-1.38191e-14
-1.3847e-14
-1.39258e-14
-1.39098e-14
-1.40422e-14
-1.39267e-14
-1.4142e-14
-1.40438e-14
-1.41708e-14
-1.41183e-14
-1.41823e-14
-1.4214e-14
-1.42901e-14
-1.42665e-14
-1.43405e-14
-1.43674e-14
-1.43965e-14
-1.44315e-14
-1.44868e-14
-1.44564e-14
-1.45541e-14
-1.45244e-14
-1.45732e-14
-1.45491e-14
-1.46583e-14
-1.46092e-14
-1.4731e-14
-1.46456e-14
-1.47369e-14
-1.46906e-14
-1.47554e-14
-1.48046e-14
-1.47808e-14
-1.48567e-14
-1.48274e-14
-1.49871e-14
-1.49222e-14
-1.50389e-14
-1.49792e-14
-1.51191e-14
-1.50381e-14
-1.52615e-14
-1.51818e-14
-1.53351e-14
-1.52756e-14
-1.53378e-14
-1.53287e-14
-1.54181e-14
-1.53774e-14
-1.55041e-14
-1.54884e-14
-1.557e-14
-1.55326e-14
-1.56098e-14
-1.55558e-14
-1.56565e-14
-1.56346e-14
-1.57262e-14
-1.57516e-14
-1.57305e-14
-1.57669e-14
-1.57635e-14
-1.57838e-14
-1.58344e-14
-1.58512e-14
-1.59027e-14
-1.58651e-14
-1.5907e-14
-1.58756e-14
-1.58407e-14
-1.5858e-14
-1.58288e-14
-1.58427e-14
-1.58222e-14
-1.58872e-14
-1.58587e-14
-1.58998e-14
-1.58344e-14
-1.58738e-14
-1.58816e-14
-1.58364e-14
-1.58394e-14
-1.58462e-14
-1.58459e-14
-1.58338e-14
-1.58811e-14
-1.58467e-14
-1.58753e-14
-1.58305e-14
-1.58848e-14
-1.58344e-14
-1.58099e-14
-1.57787e-14
-1.57725e-14
-1.57467e-14
-1.5797e-14
-1.57909e-14
-1.58531e-14
-1.58057e-14
-1.58372e-14
-1.58128e-14
-1.58004e-14
-1.57882e-14
-1.57978e-14
-1.58457e-14
-1.58185e-14
-1.58491e-14
-1.58027e-14
-1.5852e-14
-1.58047e-14
-1.58607e-14
-1.58323e-14
-1.58739e-14
-1.58276e-14
-1.58362e-14
-1.5792e-14
-1.58029e-14
-1.57868e-14
-1.57729e-14
-1.57858e-14
-1.5712e-14
-1.57935e-14
-1.57034e-14
-1.581e-14
-1.5716e-14
-1.57736e-14
-1.57507e-14
-1.57377e-14
-1.57243e-14
-1.57054e-14
-1.56682e-14
-1.56773e-14
-1.56403e-14
-1.56835e-14
-1.56081e-14
-1.56356e-14
-1.56311e-14
-1.55895e-14
-1.55903e-14
-1.55756e-14
-1.55503e-14
-1.55324e-14
-1.55433e-14
-1.55203e-14
-1.54743e-14
-1.55117e-14
-1.54029e-14
-1.54947e-14
-1.54072e-14
-1.54342e-14
-1.54228e-14
-1.5423e-14
-1.5339e-14
-1.53837e-14
-1.53161e-14
-1.53479e-14
-1.52725e-14
-1.53155e-14
-1.52727e-14
-1.5284e-14
-1.52359e-14
-1.5287e-14
-1.52134e-14
-1.52763e-14
-1.52041e-14
-1.5252e-14
-1.51581e-14
-1.52502e-14
-1.51263e-14
-1.52553e-14
-1.50903e-14
-1.52348e-14
-1.5083e-14
-1.51871e-14
-1.51223e-14
-1.51589e-14
-1.51954e-14
-1.51473e-14
-1.51705e-14
-1.51189e-14
-1.50639e-14
-1.51272e-14
-1.5009e-14
-1.51062e-14
-1.50036e-14
-1.509e-14
-1.50133e-14
-1.50608e-14
-1.4987e-14
-1.50359e-14
-1.4925e-14
-1.50156e-14
-1.4878e-14
-1.4966e-14
-1.48624e-14
-1.49378e-14
-1.48618e-14
-1.49127e-14
-1.48252e-14
-1.48906e-14
-1.47696e-14
-1.48548e-14
-1.47463e-14
-1.48218e-14
-1.4738e-14
-1.47905e-14
-1.47454e-14
-1.48123e-14
-1.47521e-14
-1.48266e-14
-1.4749e-14
-1.47991e-14
-1.47095e-14
-1.47906e-14
-1.46854e-14
-1.4784e-14
-1.46856e-14
-1.47789e-14
-1.46754e-14
-1.47668e-14
-1.46461e-14
-1.47566e-14
-1.46409e-14
-1.47482e-14
-1.46598e-14
-1.4741e-14
-1.46341e-14
-1.47354e-14
-1.45986e-14
-1.46972e-14
-1.45789e-14
-1.46691e-14
-1.45753e-14
-1.4642e-14
-1.45879e-14
-1.46155e-14
-1.45914e-14
-1.4589e-14
-1.45949e-14
-1.45534e-14
-1.45815e-14
-1.45428e-14
-1.45688e-14
-1.454e-14
-1.45653e-14
-1.45281e-14
-1.45455e-14
-1.45156e-14
-1.45178e-14
-1.45113e-14
-1.4482e-14
-1.45071e-14
-1.44548e-14
-1.45032e-14
-1.44442e-14
-1.44915e-14
-1.44249e-14
-1.44802e-14
-1.43968e-14
-1.44696e-14
-1.43848e-14
-1.44595e-14
-1.43724e-14
-1.44501e-14
-1.43594e-14
-1.44413e-14
-1.43542e-14
-1.44412e-14
-1.43567e-14
-1.44376e-14
-1.43545e-14
-1.44386e-14
-1.43438e-14
-1.44319e-14
-1.43368e-14
-1.44299e-14
-1.43292e-14
-1.44162e-14
-1.43213e-14
-1.44111e-14
-1.4325e-14
-1.44104e-14
-1.43245e-14
-1.44061e-14
-1.43197e-14
-1.44022e-14
-1.43146e-14
-1.43948e-14
-1.43093e-14
-1.43878e-14
-1.42959e-14
-1.43812e-14
-1.429e-14
-1.43749e-14
-1.42801e-14
-1.43691e-14
-1.42737e-14
-1.43674e-14
-1.42786e-14
-1.43547e-14
-1.42794e-14
-1.43461e-14
-1.42725e-14
-1.43453e-14
-1.42616e-14
-1.43448e-14
-1.42431e-14
-1.43445e-14
-1.42355e-14
-1.4341e-14
-1.42277e-14
-1.43414e-14
-1.42232e-14
-1.43349e-14
-1.42147e-14
-1.43323e-14
-1.41987e-14
-1.43337e-14
-1.41968e-14
-1.43355e-14
-1.41981e-14
-1.43304e-14
-1.41919e-14
-1.43258e-14
-1.41784e-14
-1.4325e-14
-1.41716e-14
-1.43245e-14
-1.41696e-14
-1.43244e-14
-1.41656e-14
-1.43179e-14
-1.41578e-14
-1.43135e-14
-1.41548e-14
-1.4311e-14
-1.41531e-14
-1.43072e-14
-1.41511e-14
-1.43038e-14
-1.41489e-14
-1.43023e-14
-1.41431e-14
-1.42978e-14
-1.41434e-14
-1.42937e-14
-1.41483e-14
-1.42898e-14
-1.41513e-14
-1.42878e-14
-1.41478e-14
-1.42844e-14
-1.41472e-14
-1.42828e-14
-1.41463e-14
-1.42813e-14
-1.41438e-14
-1.42786e-14
-1.41427e-14
-1.42731e-14
-1.41428e-14
-1.42707e-14
-1.41428e-14
-1.427e-14
-1.4144e-14
-1.42666e-14
-1.41422e-14
-1.42618e-14
-1.41388e-14
-1.42601e-14
-1.41396e-14
-1.42585e-14
-1.41431e-14
-1.42571e-14
-1.41457e-14
-1.42585e-14
-1.41448e-14
-1.42594e-14
-1.41416e-14
-1.4261e-14
-1.41391e-14
-1.42628e-14
-1.41392e-14
-1.42619e-14
-1.41405e-14
-1.42612e-14
-1.41404e-14
-1.42612e-14
-1.41402e-14
-1.42613e-14
-1.41399e-14
-1.42615e-14
-1.41395e-14
-1.42606e-14
-1.4139e-14
-1.4259e-14
-1.41398e-14
-1.42575e-14
-1.41398e-14
-1.42568e-14
-1.41416e-14
-1.42555e-14
-1.41415e-14
-1.42556e-14
-1.41407e-14
-1.42544e-14
-1.41398e-14
-1.42533e-14
-1.41395e-14
-1.42529e-14
-1.41397e-14
-1.4252e-14
-1.414e-14
-1.42504e-14
-1.41401e-14
-1.42489e-14
-1.41386e-14
-1.42475e-14
-1.4137e-14
-1.42457e-14
-1.41367e-14
-1.42447e-14
-1.41367e-14
-1.42447e-14
-1.41363e-14
-1.42427e-14
-1.41362e-14
-1.42415e-14
-1.41353e-14
-1.42403e-14
-1.41355e-14
-1.42394e-14
-1.41366e-14
-1.42382e-14
-1.41363e-14
-1.42371e-14
-1.4135e-14
-1.42363e-14
-1.41346e-14
-1.42355e-14
-1.41349e-14
-1.42344e-14
-1.41342e-14
-1.42333e-14
-1.41333e-14
-1.42326e-14
-1.41336e-14
-1.42323e-14
-1.41344e-14
-1.42324e-14
-1.41344e-14
-1.42319e-14
-1.41342e-14
-1.42313e-14
-1.41342e-14
-1.4231e-14
-1.41341e-14
-1.42314e-14
-1.41335e-14
-1.42319e-14
-1.41332e-14
-1.42319e-14
-1.41328e-14
-1.4232e-14
-1.41327e-14
-1.4232e-14
-1.41321e-14
-1.42319e-14
-1.41319e-14
-1.42318e-14
-1.41329e-14
-1.42319e-14
-1.41333e-14
-1.42318e-14
-1.41326e-14
-1.42317e-14
-1.41324e-14
-1.42317e-14
-1.41325e-14
-1.42318e-14
-1.41325e-14
-1.42318e-14
-1.41326e-14
-1.42318e-14
-1.41321e-14
-1.42319e-14
-1.4132e-14
-1.42322e-14
-1.41323e-14
-1.42324e-14
-1.41323e-14
-1.42323e-14
-1.41318e-14
-1.42322e-14
-1.41313e-14
-1.42326e-14
-1.41309e-14
-1.42329e-14
-1.41304e-14
-1.42333e-14
-1.41299e-14
-1.42334e-14
-1.41299e-14
-1.42336e-14
-1.41296e-14
-1.42341e-14
-1.41291e-14
-1.42343e-14
-1.41287e-14
-1.42345e-14
-1.41285e-14
-1.42347e-14
-1.41284e-14
-1.42348e-14
-1.41279e-14
-1.42349e-14
-1.41276e-14
-1.42348e-14
-1.41275e-14
-1.42348e-14
-1.41274e-14
-1.42347e-14
-1.41273e-14
-1.42349e-14
-1.41272e-14
-1.4235e-14
-1.4127e-14
-1.42351e-14
-1.41268e-14
-1.42352e-14
-1.41266e-14
-1.42354e-14
-1.41263e-14
-1.42354e-14
-1.41261e-14
-1.42355e-14
-1.4126e-14
-1.42357e-14
-1.41258e-14
-1.42358e-14
-1.41256e-14
-1.4236e-14
-1.41254e-14
-1.42361e-14
-1.41253e-14
-1.42362e-14
-1.41252e-14
-1.42363e-14
-1.4125e-14
-1.42363e-14
-1.41249e-14
-1.42363e-14
-1.41249e-14
-1.42363e-14
-1.41248e-14
-1.42364e-14
-1.41248e-14
-1.42364e-14
-1.41247e-14
-1.42364e-14
-1.41247e-14
-1.42364e-14
-1.41247e-14
-1.42364e-14
-1.41247e-14
-1.42364e-14
-1.41247e-14
-1.58281e-14
-1.58659e-14
-1.5784e-14
-1.58758e-14
-1.57598e-14
-1.58087e-14
-1.57661e-14
-1.58536e-14
-1.58487e-14
-1.58637e-14
-1.58218e-14
-1.58207e-14
-1.582e-14
-1.57974e-14
-1.58697e-14
-1.58181e-14
-1.58534e-14
-1.58249e-14
-1.58167e-14
-1.5798e-14
-1.58041e-14
-1.58168e-14
-1.57001e-14
-1.57821e-14
-1.57567e-14
-1.57573e-14
-1.57533e-14
-1.57863e-14
-1.57707e-14
-1.57963e-14
-1.57819e-14
-1.58111e-14
-1.57829e-14
-1.58025e-14
-1.57481e-14
-1.58248e-14
-1.57847e-14
-1.58902e-14
-1.58641e-14
-1.59157e-14
-1.58814e-14
-1.5865e-14
-1.57584e-14
-1.59013e-14
-1.5792e-14
-1.58098e-14
-1.58212e-14
-1.57758e-14
-1.57652e-14
-1.57628e-14
-1.57378e-14
-1.57473e-14
-1.57677e-14
-1.57312e-14
-1.58006e-14
-1.57123e-14
-1.58121e-14
-1.57157e-14
-1.58021e-14
-1.56785e-14
-1.568e-14
-1.56574e-14
-1.56824e-14
-1.56626e-14
-1.56855e-14
-1.56658e-14
-1.55953e-14
-1.56684e-14
-1.5591e-14
-1.56156e-14
-1.55829e-14
-1.55638e-14
-1.55438e-14
-1.54772e-14
-1.55406e-14
-1.54797e-14
-1.55093e-14
-1.54433e-14
-1.54821e-14
-1.53686e-14
-1.54775e-14
-1.53999e-14
-1.54607e-14
-1.54097e-14
-1.54147e-14
-1.535e-14
-1.53887e-14
-1.53198e-14
-1.53665e-14
-1.53523e-14
-1.53622e-14
-1.53196e-14
-1.53446e-14
-1.52354e-14
-1.53003e-14
-1.52128e-14
-1.52773e-14
-1.51858e-14
-1.51909e-14
-1.50865e-14
-1.51754e-14
-1.50654e-14
-1.51799e-14
-1.50211e-14
-1.51895e-14
-1.50028e-14
-1.51886e-14
-1.50266e-14
-1.51084e-14
-1.50081e-14
-1.50822e-14
-1.49823e-14
-1.50929e-14
-1.49324e-14
-1.50569e-14
-1.49089e-14
-1.50075e-14
-1.49306e-14
-1.49588e-14
-1.49487e-14
-1.49256e-14
-1.49135e-14
-1.49254e-14
-1.48596e-14
-1.49082e-14
-1.48374e-14
-1.48567e-14
-1.48301e-14
-1.48565e-14
-1.48043e-14
-1.48392e-14
-1.47763e-14
-1.48226e-14
-1.47461e-14
-1.48243e-14
-1.47313e-14
-1.48279e-14
-1.47316e-14
-1.48162e-14
-1.47122e-14
-1.48071e-14
-1.47425e-14
-1.48079e-14
-1.4754e-14
-1.48096e-14
-1.47296e-14
-1.48042e-14
-1.46952e-14
-1.48009e-14
-1.46675e-14
-1.47915e-14
-1.46635e-14
-1.47756e-14
-1.46572e-14
-1.47705e-14
-1.46491e-14
-1.47587e-14
-1.4639e-14
-1.47402e-14
-1.45836e-14
-1.47326e-14
-1.45429e-14
-1.47191e-14
-1.45252e-14
-1.46997e-14
-1.45391e-14
-1.46741e-14
-1.45592e-14
-1.4676e-14
-1.45518e-14
-1.46712e-14
-1.45427e-14
-1.46341e-14
-1.45231e-14
-1.46244e-14
-1.45106e-14
-1.46165e-14
-1.44794e-14
-1.46019e-14
-1.44635e-14
-1.45806e-14
-1.44372e-14
-1.45526e-14
-1.44347e-14
-1.45344e-14
-1.44224e-14
-1.4509e-14
-1.4409e-14
-1.45098e-14
-1.4403e-14
-1.45032e-14
-1.43793e-14
-1.45061e-14
-1.43629e-14
-1.44769e-14
-1.43537e-14
-1.44738e-14
-1.43435e-14
-1.44716e-14
-1.43324e-14
-1.44541e-14
-1.43285e-14
-1.44581e-14
-1.43196e-14
-1.44589e-14
-1.43097e-14
-1.44526e-14
-1.43069e-14
-1.44553e-14
-1.42829e-14
-1.44511e-14
-1.42659e-14
-1.44399e-14
-1.4268e-14
-1.44259e-14
-1.42609e-14
-1.44207e-14
-1.42568e-14
-1.44204e-14
-1.42558e-14
-1.4417e-14
-1.42538e-14
-1.44105e-14
-1.4247e-14
-1.44049e-14
-1.42394e-14
-1.43923e-14
-1.4231e-14
-1.43881e-14
-1.42334e-14
-1.4377e-14
-1.42313e-14
-1.43704e-14
-1.42286e-14
-1.43643e-14
-1.42328e-14
-1.43664e-14
-1.42289e-14
-1.43614e-14
-1.42282e-14
-1.4357e-14
-1.42382e-14
-1.43566e-14
-1.42331e-14
-1.43567e-14
-1.42239e-14
-1.43572e-14
-1.4218e-14
-1.43582e-14
-1.42154e-14
-1.43595e-14
-1.42125e-14
-1.43506e-14
-1.42127e-14
-1.43422e-14
-1.42055e-14
-1.43377e-14
-1.41981e-14
-1.43336e-14
-1.41957e-14
-1.43263e-14
-1.41998e-14
-1.43229e-14
-1.41951e-14
-1.43163e-14
-1.41835e-14
-1.43118e-14
-1.41801e-14
-1.43059e-14
-1.41798e-14
-1.43085e-14
-1.41793e-14
-1.43032e-14
-1.41754e-14
-1.42933e-14
-1.41761e-14
-1.42949e-14
-1.41766e-14
-1.42967e-14
-1.4169e-14
-1.42924e-14
-1.41629e-14
-1.42898e-14
-1.41629e-14
-1.42875e-14
-1.41643e-14
-1.42885e-14
-1.41624e-14
-1.4285e-14
-1.41634e-14
-1.42773e-14
-1.41658e-14
-1.42742e-14
-1.41635e-14
-1.42713e-14
-1.41611e-14
-1.42686e-14
-1.41601e-14
-1.4266e-14
-1.41561e-14
-1.42607e-14
-1.41535e-14
-1.42569e-14
-1.41536e-14
-1.42547e-14
-1.41536e-14
-1.42513e-14
-1.41543e-14
-1.42486e-14
-1.41541e-14
-1.42453e-14
-1.41539e-14
-1.42429e-14
-1.41529e-14
-1.42405e-14
-1.41518e-14
-1.42382e-14
-1.41507e-14
-1.42393e-14
-1.41475e-14
-1.42385e-14
-1.41456e-14
-1.42371e-14
-1.41456e-14
-1.42351e-14
-1.41456e-14
-1.42344e-14
-1.41455e-14
-1.42338e-14
-1.41453e-14
-1.42333e-14
-1.41451e-14
-1.42309e-14
-1.41462e-14
-1.42311e-14
-1.41452e-14
-1.423e-14
-1.41436e-14
-1.42284e-14
-1.41445e-14
-1.42274e-14
-1.41447e-14
-1.42265e-14
-1.41442e-14
-1.42256e-14
-1.41436e-14
-1.4226e-14
-1.41424e-14
-1.42255e-14
-1.41418e-14
-1.4225e-14
-1.41415e-14
-1.42242e-14
-1.41412e-14
-1.42238e-14
-1.41414e-14
-1.4223e-14
-1.41427e-14
-1.42226e-14
-1.41422e-14
-1.42223e-14
-1.41417e-14
-1.42216e-14
-1.41426e-14
-1.42206e-14
-1.41441e-14
-1.42193e-14
-1.41445e-14
-1.42193e-14
-1.41443e-14
-1.42205e-14
-1.41436e-14
-1.42202e-14
-1.41433e-14
-1.422e-14
-1.41434e-14
-1.42194e-14
-1.4143e-14
-1.42192e-14
-1.41426e-14
-1.42186e-14
-1.41421e-14
-1.42181e-14
-1.41414e-14
-1.42183e-14
-1.41412e-14
-1.42178e-14
-1.41413e-14
-1.4217e-14
-1.41414e-14
-1.42167e-14
-1.41411e-14
-1.42164e-14
-1.41408e-14
-1.42161e-14
-1.41406e-14
-1.42151e-14
-1.41409e-14
-1.42144e-14
-1.41407e-14
-1.42141e-14
-1.41401e-14
-1.42134e-14
-1.41403e-14
-1.42122e-14
-1.41415e-14
-1.4211e-14
-1.41424e-14
-1.42097e-14
-1.41428e-14
-1.42091e-14
-1.41432e-14
-1.42081e-14
-1.41436e-14
-1.42076e-14
-1.41439e-14
-1.42072e-14
-1.41445e-14
-1.42064e-14
-1.41449e-14
-1.42056e-14
-1.41448e-14
-1.42055e-14
-1.41449e-14
-1.42054e-14
-1.41453e-14
-1.42053e-14
-1.41458e-14
-1.42047e-14
-1.41462e-14
-1.42043e-14
-1.41464e-14
-1.42041e-14
-1.41464e-14
-1.42034e-14
-1.41467e-14
-1.42029e-14
-1.41471e-14
-1.4203e-14
-1.41474e-14
-1.42029e-14
-1.41477e-14
-1.42026e-14
-1.4148e-14
-1.42024e-14
-1.41482e-14
-1.42022e-14
-1.41484e-14
-1.42022e-14
-1.41484e-14
-1.42023e-14
-1.41484e-14
-1.42024e-14
-1.41486e-14
-1.42025e-14
-1.41486e-14
-1.42025e-14
-1.41485e-14
-1.42026e-14
-1.41485e-14
-1.42027e-14
-1.41486e-14
-1.42026e-14
-1.41485e-14
-1.42029e-14
-1.41483e-14
-1.4203e-14
-1.41484e-14
-1.4203e-14
-1.41484e-14
-1.4203e-14
-1.41484e-14
-1.42031e-14
-1.41483e-14
-1.42032e-14
-1.41483e-14
-1.42032e-14
-1.41483e-14
-1.42033e-14
-1.41483e-14
-1.42033e-14
-1.41482e-14
-1.42034e-14
-1.41482e-14
-1.42034e-14
-1.41482e-14
-1.42034e-14
-1.41482e-14
-1.42034e-14
-1.41482e-14
-1.42035e-14
-1.41481e-14
-1.42035e-14
-1.41481e-14
-1.42035e-14
-1.41481e-14
-1.42035e-14
-1.41481e-14
-1.42035e-14
-1.41481e-14
)
;

boundaryField
{
    walls
    {
        type            zeroGradient;
    }
    inlet
    {
        type            cyclic;
    }
    outlet
    {
        type            cyclic;
    }
    sides
    {
        type            empty;
    }
}


// ************************************************************************* //
