/*--------------------------------*- C++ -*----------------------------------*\
| =========                 |                                                 |
| \\      /  F ield         | OpenFOAM: The Open Source CFD Toolbox           |
|  \\    /   O peration     | Version:  2106                                  |
|   \\  /    A nd           | Website:  www.openfoam.com                      |
|    \\/     M anipulation  |                                                 |
\*---------------------------------------------------------------------------*/
FoamFile
{
    version     2.0;
    format      ascii;
    arch        "LSB;label=32;scalar=64";
    class       volSymmTensorField;
    location    "10020";
    object      turbulenceProperties:R;
}
// * * * * * * * * * * * * * * * * * * * * * * * * * * * * * * * * * * * * * //

dimensions      [0 2 -2 0 0 0 0];

internalField   nonuniform List<symmTensor> 
2000
(
(3.13916e-08 -1.87283e-13 -3.46625e-16 3.13916e-08 4.28521e-28 3.13916e-08)
(3.13916e-08 -1.87283e-13 -3.46625e-16 3.13916e-08 1.09252e-43 3.13916e-08)
(4.75892e-09 -1.63555e-13 -9.13832e-16 4.75892e-09 3.96857e-44 4.75892e-09)
(4.75892e-09 -1.63555e-13 -9.13832e-16 4.75892e-09 3.57514e-28 4.75892e-09)
(2.54353e-09 -2.58825e-13 -2.00652e-15 2.54353e-09 4.2253e-28 2.54353e-09)
(2.54353e-09 -2.58825e-13 -2.00652e-15 2.54353e-09 3.11988e-29 2.54353e-09)
(4.95272e-09 -1.0731e-12 -8.47438e-15 4.95272e-09 7.94767e-28 4.95272e-09)
(4.95272e-09 -1.0731e-12 -8.47438e-15 4.95272e-09 1.29731e-28 4.95272e-09)
(1.18336e-08 -4.54251e-12 -3.65424e-14 1.18336e-08 2.43305e-27 1.18336e-08)
(1.18336e-08 -4.54251e-12 -3.65424e-14 1.18336e-08 5.50453e-28 1.18336e-08)
(2.50365e-08 -1.51962e-11 -1.24528e-13 2.50365e-08 7.08712e-27 2.50365e-08)
(2.50365e-08 -1.51962e-11 -1.24528e-13 2.50365e-08 1.84399e-27 2.50365e-08)
(4.70832e-08 -4.18704e-11 -3.49519e-13 4.70832e-08 1.9726e-26 4.70832e-08)
(4.70832e-08 -4.18704e-11 -3.49519e-13 4.70832e-08 5.08541e-27 4.70832e-08)
(8.09898e-08 -9.99518e-11 -8.49934e-13 8.09898e-08 4.84213e-26 8.09898e-08)
(8.09898e-08 -9.99518e-11 -8.49934e-13 8.09898e-08 1.21523e-26 8.09898e-08)
(1.3025e-07 -2.14244e-10 -1.85581e-12 1.3025e-07 1.06848e-25 1.3025e-07)
(1.3025e-07 -2.14244e-10 -1.85581e-12 1.3025e-07 2.60534e-26 1.3025e-07)
(1.98857e-07 -4.22565e-10 -3.72864e-12 1.98857e-07 2.16199e-25 1.98857e-07)
(1.98857e-07 -4.22565e-10 -3.72864e-12 1.98857e-07 5.13176e-26 1.98857e-07)
(2.91336e-07 -7.80213e-10 -7.01296e-12 2.91336e-07 4.08564e-25 2.91336e-07)
(2.91336e-07 -7.80213e-10 -7.01296e-12 2.91336e-07 9.45973e-26 2.91336e-07)
(4.12785e-07 -1.36543e-09 -1.25023e-11 4.12785e-07 7.31337e-25 4.12785e-07)
(4.12785e-07 -1.36543e-09 -1.25023e-11 4.12785e-07 1.65283e-25 4.12785e-07)
(5.68918e-07 -2.28608e-09 -2.13227e-11 5.68918e-07 1.25204e-24 5.68918e-07)
(5.68918e-07 -2.28608e-09 -2.13227e-11 5.68918e-07 2.75969e-25 5.68918e-07)
(7.66119e-07 -3.68764e-09 -3.50372e-11 7.66119e-07 2.06438e-24 7.66119e-07)
(7.66119e-07 -3.68764e-09 -3.50372e-11 7.66119e-07 4.43751e-25 7.66119e-07)
(1.01149e-06 -5.76288e-09 -5.57767e-11 1.01149e-06 3.29635e-24 1.01149e-06)
(1.01149e-06 -5.76288e-09 -5.57767e-11 1.01149e-06 6.90547e-25 1.01149e-06)
(1.31293e-06 -8.76335e-09 -8.64001e-11 1.31293e-06 5.12213e-24 1.31293e-06)
(1.31293e-06 -8.76335e-09 -8.64001e-11 1.31293e-06 1.04288e-24 1.31293e-06)
(1.67915e-06 -1.3013e-08 -1.30693e-10 1.67915e-06 7.7689e-24 1.67915e-06)
(1.67915e-06 -1.3013e-08 -1.30693e-10 1.67915e-06 1.53577e-24 1.67915e-06)
(2.1198e-06 -1.89244e-08 -1.9361e-10 2.1198e-06 1.15405e-23 2.1198e-06)
(2.1198e-06 -1.89244e-08 -1.9361e-10 2.1198e-06 2.21314e-24 2.1198e-06)
(2.64552e-06 -2.70175e-08 -2.81567e-10 2.64552e-06 1.68236e-23 2.64552e-06)
(2.64552e-06 -2.70175e-08 -2.81567e-10 2.64552e-06 3.12194e-24 2.64552e-06)
(3.26798e-06 -3.7942e-08 -4.02799e-10 3.26798e-06 2.41252e-23 3.26798e-06)
(3.26798e-06 -3.7942e-08 -4.02799e-10 3.26798e-06 4.33633e-24 3.26798e-06)
(4.00004e-06 -5.25036e-08 -5.6779e-10 4.00004e-06 3.40797e-23 4.00004e-06)
(4.00004e-06 -5.25036e-08 -5.6779e-10 4.00004e-06 5.9479e-24 4.00004e-06)
(4.85577e-06 -7.16938e-08 -7.89787e-10 4.85577e-06 4.74923e-23 4.85577e-06)
(4.85577e-06 -7.16938e-08 -7.89787e-10 4.85577e-06 8.0272e-24 4.85577e-06)
(5.85059e-06 -9.67251e-08 -1.08542e-09 5.85059e-06 6.53863e-23 5.85059e-06)
(5.85059e-06 -9.67251e-08 -1.08542e-09 5.85059e-06 1.0691e-23 5.85059e-06)
(7.00135e-06 -1.29072e-07 -1.47544e-09 7.00135e-06 8.90054e-23 7.00135e-06)
(7.00135e-06 -1.29072e-07 -1.47544e-09 7.00135e-06 1.40143e-23 7.00135e-06)
(8.32646e-06 -1.70518e-07 -1.98559e-09 8.32646e-06 1.19969e-22 8.32646e-06)
(8.32646e-06 -1.70518e-07 -1.98559e-09 8.32646e-06 1.81114e-23 8.32646e-06)
(9.846e-06 -2.23207e-07 -2.64764e-09 9.846e-06 1.60228e-22 9.846e-06)
(9.846e-06 -2.23207e-07 -2.64764e-09 9.846e-06 2.32164e-23 9.846e-06)
(1.15818e-05 -2.89711e-07 -3.50062e-09 1.15818e-05 2.12086e-22 1.15818e-05)
(1.15818e-05 -2.89711e-07 -3.50062e-09 1.15818e-05 2.93894e-23 1.15818e-05)
(1.35577e-05 -3.73095e-07 -4.59229e-09 1.35577e-05 2.78403e-22 1.35577e-05)
(1.35577e-05 -3.73095e-07 -4.59229e-09 1.35577e-05 3.69376e-23 1.35577e-05)
(1.57995e-05 -4.77e-07 -5.98077e-09 1.57995e-05 3.62764e-22 1.57995e-05)
(1.57995e-05 -4.77e-07 -5.98077e-09 1.57995e-05 4.58533e-23 1.57995e-05)
(1.83353e-05 -6.05735e-07 -7.73662e-09 1.83353e-05 4.66435e-25 1.83353e-05)
(1.83353e-05 -6.05735e-07 -7.73662e-09 1.83353e-05 5.60887e-23 1.83353e-05)
(2.11955e-05 -7.64382e-07 -9.94507e-09 2.11955e-05 -6.2252e-22 2.11955e-05)
(2.11955e-05 -7.64382e-07 -9.94507e-09 2.11955e-05 6.81412e-23 2.11955e-05)
(2.44131e-05 -9.58913e-07 -1.27088e-08 2.44131e-05 -1.08514e-21 2.44131e-05)
(2.44131e-05 -9.58913e-07 -1.27088e-08 2.44131e-05 8.2053e-23 2.44131e-05)
(2.80237e-05 -1.19632e-06 -1.61511e-08 2.80237e-05 -1.40141e-21 2.80237e-05)
(2.80237e-05 -1.19632e-06 -1.61511e-08 2.80237e-05 9.8743e-23 2.80237e-05)
(3.2066e-05 -1.48478e-06 -2.04194e-08 3.2066e-05 -1.79882e-21 3.2066e-05)
(3.2066e-05 -1.48478e-06 -2.04194e-08 3.2066e-05 1.16518e-22 3.2066e-05)
(3.65816e-05 -1.83378e-06 -2.56896e-08 3.65816e-05 -2.29434e-21 3.65816e-05)
(3.65816e-05 -1.83378e-06 -2.56896e-08 3.65816e-05 1.35334e-22 3.65816e-05)
(4.16153e-05 -2.25437e-06 -3.21707e-08 4.16153e-05 -2.90975e-21 4.16153e-05)
(4.16153e-05 -2.25437e-06 -3.21707e-08 4.16153e-05 1.55492e-22 4.16153e-05)
(4.72156e-05 -2.75931e-06 -4.01108e-08 4.72156e-05 -3.6726e-21 4.72156e-05)
(4.72156e-05 -2.75931e-06 -4.01108e-08 4.72156e-05 1.76346e-22 4.72156e-05)
(5.34345e-05 -3.36331e-06 -4.98028e-08 5.34345e-05 -4.60956e-21 5.34345e-05)
(5.34345e-05 -3.36331e-06 -4.98028e-08 5.34345e-05 2.00086e-22 5.34345e-05)
(6.03281e-05 -4.08332e-06 -6.1592e-08 6.03281e-05 -5.75939e-21 6.03281e-05)
(6.03281e-05 -4.08332e-06 -6.1592e-08 6.03281e-05 2.19103e-22 6.03281e-05)
(6.79564e-05 -4.93876e-06 -7.58842e-08 6.79564e-05 -7.16818e-21 6.79564e-05)
(6.79564e-05 -4.93876e-06 -7.58842e-08 6.79564e-05 2.3911e-22 6.79564e-05)
(7.63839e-05 -5.95183e-06 -9.3155e-08 7.63839e-05 -8.8842e-21 7.63839e-05)
(7.63839e-05 -5.95183e-06 -9.3155e-08 7.63839e-05 2.59674e-22 7.63839e-05)
(8.56793e-05 -7.14786e-06 -1.1396e-07 8.56793e-05 -1.09604e-20 8.56793e-05)
(8.56793e-05 -7.14786e-06 -1.1396e-07 8.56793e-05 2.69586e-22 8.56793e-05)
(9.59165e-05 -8.5556e-06 -1.38946e-07 9.59165e-05 -1.34527e-20 9.59165e-05)
(9.59165e-05 -8.5556e-06 -1.38946e-07 9.59165e-05 2.6429e-22 9.59165e-05)
(0.000107174 -1.02076e-05 -1.68864e-07 0.000107174 -1.6457e-20 0.000107174)
(0.000107174 -1.02076e-05 -1.68864e-07 0.000107174 2.29943e-22 0.000107174)
(0.000119535 -1.21407e-05 -2.04584e-07 0.000119535 -2.00774e-20 0.000119535)
(0.000119535 -1.21407e-05 -2.04584e-07 0.000119535 1.93524e-22 0.000119535)
(0.00013309 -1.43963e-05 -2.47111e-07 0.00013309 -2.43978e-20 0.00013309)
(0.00013309 -1.43963e-05 -2.47111e-07 0.00013309 1.24937e-22 0.00013309)
(0.000147931 -1.70207e-05 -2.97597e-07 0.000147931 -2.95021e-20 0.000147931)
(0.000147931 -1.70207e-05 -2.97597e-07 0.000147931 -4.38002e-23 0.000147931)
(0.00016416 -2.00657e-05 -3.57366e-07 0.00016416 -3.55451e-20 0.00016416)
(0.00016416 -2.00657e-05 -3.57366e-07 0.00016416 -6.15732e-23 0.00016416)
(0.000181881 -2.35889e-05 -4.27928e-07 0.000181881 -4.2714e-20 0.000181881)
(0.000181881 -2.35889e-05 -4.27928e-07 0.000181881 -3.09124e-22 0.000181881)
(0.000201204 -2.76541e-05 -5.11002e-07 0.000201204 -4.74419e-20 0.000201204)
(0.000201204 -2.76541e-05 -5.11002e-07 0.000201204 -5.85938e-22 0.000201204)
(0.000222247 -3.23313e-05 -6.08534e-07 0.000222247 -3.88143e-20 0.000222247)
(0.000222247 -3.23313e-05 -6.08534e-07 0.000222247 -1.04031e-21 0.000222247)
(0.00024513 -3.76978e-05 -7.22721e-07 0.00024513 -3.05884e-20 0.00024513)
(0.00024513 -3.76978e-05 -7.22721e-07 0.00024513 -1.62543e-21 0.00024513)
(0.00026998 -4.38374e-05 -8.56028e-07 0.00026998 -3.64609e-20 0.00026998)
(0.00026998 -4.38374e-05 -8.56028e-07 0.00026998 8.60806e-21 0.00026998)
(0.000296928 -5.08413e-05 -1.01121e-06 0.000296928 -4.32103e-20 0.000296928)
(0.000296928 -5.08413e-05 -1.01121e-06 0.000296928 3.96068e-20 0.000296928)
(0.000326108 -5.88074e-05 -1.19134e-06 0.000326108 -5.10351e-20 0.000326108)
(0.000326108 -5.88074e-05 -1.19134e-06 0.000326108 6.60664e-20 0.000326108)
(0.000357658 -6.78408e-05 -1.39981e-06 0.000357658 -5.99979e-20 0.000357658)
(0.000357658 -6.78408e-05 -1.39981e-06 0.000357658 7.69197e-20 0.000357658)
(0.000391721 -7.8053e-05 -1.64034e-06 0.000391721 -7.02318e-20 0.000391721)
(0.000391721 -7.8053e-05 -1.64034e-06 0.000391721 8.92414e-20 0.000391721)
(0.000428439 -8.95614e-05 -1.91701e-06 0.000428439 7.18104e-22 0.000428439)
(0.000428439 -8.95614e-05 -1.91701e-06 0.000428439 1.03376e-19 0.000428439)
(0.000467955 -0.000102489 -2.23425e-06 0.000467955 4.54943e-20 0.000467955)
(0.000467955 -0.000102489 -2.23425e-06 0.000467955 1.191e-19 0.000467955)
(0.000510411 -0.000116961 -2.59682e-06 0.000510411 7.36528e-20 0.000510411)
(0.000510411 -0.000116961 -2.59682e-06 0.000510411 1.36106e-19 0.000510411)
(0.000555948 -0.000133108 -3.00984e-06 0.000555948 8.96567e-20 0.000555948)
(0.000555948 -0.000133108 -3.00984e-06 0.000555948 1.54882e-19 0.000555948)
(0.000604703 -0.000151061 -3.47872e-06 0.000604703 1.08051e-19 0.000604703)
(0.000604703 -0.000151061 -3.47872e-06 0.000604703 1.76422e-19 0.000604703)
(0.000656806 -0.000170948 -4.00915e-06 0.000656806 1.29542e-19 0.000656806)
(0.000656806 -0.000170948 -4.00915e-06 0.000656806 2.0026e-19 0.000656806)
(0.00071238 -0.000192896 -4.60707e-06 0.00071238 1.54883e-19 0.00071238)
(0.00071238 -0.000192896 -4.60707e-06 0.00071238 2.25066e-19 0.00071238)
(0.000771538 -0.000217027 -5.27861e-06 0.000771538 1.83736e-19 0.000771538)
(0.000771538 -0.000217027 -5.27861e-06 0.000771538 2.52235e-19 0.000771538)
(0.00083438 -0.000243453 -6.03001e-06 0.00083438 2.16712e-19 0.00083438)
(0.00083438 -0.000243453 -6.03001e-06 0.00083438 2.81789e-19 0.00083438)
(0.000900993 -0.000272277 -6.86756e-06 0.000900993 2.54353e-19 0.000900993)
(0.000900993 -0.000272277 -6.86756e-06 0.000900993 3.1165e-19 0.000900993)
(0.000971446 -0.000303587 -7.79752e-06 0.000971446 2.96838e-19 0.000971446)
(0.000971446 -0.000303587 -7.79752e-06 0.000971446 3.42789e-19 0.000971446)
(0.00104579 -0.000337457 -8.82601e-06 0.00104579 3.44413e-19 0.00104579)
(0.00104579 -0.000337457 -8.82601e-06 0.00104579 3.74694e-19 0.00104579)
(0.00112405 -0.000373939 -9.95894e-06 0.00112405 3.96128e-19 0.00112405)
(0.00112405 -0.000373939 -9.95894e-06 0.00112405 4.07953e-19 0.00112405)
(0.00120624 -0.000413064 -1.12019e-05 0.00120624 4.55423e-19 0.00120624)
(0.00120624 -0.000413064 -1.12019e-05 0.00120624 4.41251e-19 0.00120624)
(0.00129233 -0.000454843 -1.256e-05 0.00129233 5.22033e-19 0.00129233)
(0.00129233 -0.000454843 -1.256e-05 0.00129233 4.77536e-19 0.00129233)
(0.00138229 -0.000499258 -1.4038e-05 0.00138229 5.89271e-19 0.00138229)
(0.00138229 -0.000499258 -1.4038e-05 0.00138229 5.10429e-19 0.00138229)
(0.00147603 -0.000546267 -1.56398e-05 0.00147603 6.6603e-19 0.00147603)
(0.00147603 -0.000546267 -1.56398e-05 0.00147603 5.39117e-19 0.00147603)
(0.00157347 -0.000595802 -1.73689e-05 0.00157347 7.34694e-19 0.00157347)
(0.00157347 -0.000595802 -1.73689e-05 0.00157347 5.62913e-19 0.00157347)
(0.00167447 -0.000647769 -1.9228e-05 0.00167447 3.96471e-19 0.00167447)
(0.00167447 -0.000647769 -1.9228e-05 0.00167447 5.92177e-19 0.00167447)
(0.00177888 -0.000702047 -2.12189e-05 0.00177888 -3.66992e-21 0.00177888)
(0.00177888 -0.000702047 -2.12189e-05 0.00177888 6.16614e-19 0.00177888)
(0.00188652 -0.000758495 -2.33428e-05 0.00188652 -4.06758e-21 0.00188652)
(0.00188652 -0.000758495 -2.33428e-05 0.00188652 6.38052e-19 0.00188652)
(0.00199719 -0.000816947 -2.56e-05 0.00199719 -2.90078e-21 0.00199719)
(0.00199719 -0.000816947 -2.56e-05 0.00199719 6.45615e-19 0.00199719)
(0.00211066 -0.000877221 -2.79901e-05 0.00211066 4.08233e-21 0.00211066)
(0.00211066 -0.000877221 -2.79901e-05 0.00211066 6.47444e-19 0.00211066)
(0.0022267 -0.000939118 -3.05118e-05 0.0022267 1.21484e-20 0.0022267)
(0.0022267 -0.000939118 -3.05118e-05 0.0022267 6.56251e-19 0.0022267)
(0.00234503 -0.00100243 -3.31634e-05 0.00234503 1.00889e-20 0.00234503)
(0.00234503 -0.00100243 -3.31634e-05 0.00234503 6.7326e-19 0.00234503)
(0.00246538 -0.00106693 -3.59423e-05 0.00246538 -1.40978e-21 0.00246538)
(0.00246538 -0.00106693 -3.59423e-05 0.00246538 6.59201e-19 0.00246538)
(0.00258746 -0.0011324 -3.88454e-05 0.00258746 -6.02757e-21 0.00258746)
(0.00258746 -0.0011324 -3.88454e-05 0.00258746 6.24125e-19 0.00258746)
(0.00271099 -0.00119861 -4.18693e-05 0.00271099 -1.01019e-20 0.00271099)
(0.00271099 -0.00119861 -4.18693e-05 0.00271099 6.03486e-19 0.00271099)
(0.00283565 -0.00126534 -4.50101e-05 0.00283565 2.4245e-21 0.00283565)
(0.00283565 -0.00126534 -4.50101e-05 0.00283565 5.83727e-19 0.00283565)
(0.00296117 -0.00133237 -4.82636e-05 0.00296117 4.32513e-21 0.00296117)
(0.00296117 -0.00133237 -4.82636e-05 0.00296117 5.12519e-19 0.00296117)
(0.00308723 -0.00139948 -5.16254e-05 0.00308723 -1.44447e-21 0.00308723)
(0.00308723 -0.00139948 -5.16254e-05 0.00308723 4.01479e-19 0.00308723)
(0.00321354 -0.00146648 -5.5091e-05 0.00321354 1.40103e-20 0.00321354)
(0.00321354 -0.00146648 -5.5091e-05 0.00321354 3.23688e-19 0.00321354)
(0.00333983 -0.00153316 -5.86558e-05 0.00333983 1.25486e-20 0.00333983)
(0.00333983 -0.00153316 -5.86558e-05 0.00333983 2.34249e-19 0.00333983)
(0.00346582 -0.00159935 -6.23153e-05 0.00346582 1.43584e-20 0.00346582)
(0.00346582 -0.00159935 -6.23153e-05 0.00346582 1.2256e-19 0.00346582)
(0.00359124 -0.00166489 -6.60651e-05 0.00359124 1.31415e-20 0.00359124)
(0.00359124 -0.00166489 -6.60651e-05 0.00359124 2.93433e-20 0.00359124)
(0.00371586 -0.00172963 -6.99007e-05 0.00371586 5.62303e-20 0.00371586)
(0.00371586 -0.00172963 -6.99007e-05 0.00371586 -6.1493e-20 0.00371586)
(0.00383943 -0.00179342 -7.38181e-05 0.00383943 6.74221e-20 0.00383943)
(0.00383943 -0.00179342 -7.38181e-05 0.00383943 -1.8054e-19 0.00383943)
(0.00396173 -0.00185615 -7.78134e-05 0.00396173 3.68578e-20 0.00396173)
(0.00396173 -0.00185615 -7.78134e-05 0.00396173 -3.16004e-19 0.00396173)
(0.00408258 -0.00191771 -8.18828e-05 0.00408258 5.77133e-20 0.00408258)
(0.00408258 -0.00191771 -8.18828e-05 0.00408258 -4.37434e-19 0.00408258)
(0.00420178 -0.00197801 -8.60228e-05 0.00420178 2.37868e-20 0.00420178)
(0.00420178 -0.00197801 -8.60228e-05 0.00420178 -5.62617e-19 0.00420178)
(0.00431916 -0.00203698 -9.02305e-05 0.00431916 1.79037e-20 0.00431916)
(0.00431916 -0.00203698 -9.02305e-05 0.00431916 -7.0781e-19 0.00431916)
(0.00443458 -0.00209454 -9.45028e-05 0.00443458 6.76125e-20 0.00443458)
(0.00443458 -0.00209454 -9.45028e-05 0.00443458 -8.50354e-19 0.00443458)
(0.0045479 -0.00215065 -9.88371e-05 0.0045479 7.80593e-20 0.0045479)
(0.0045479 -0.00215065 -9.88371e-05 0.0045479 -9.84885e-19 0.0045479)
(0.004659 -0.00220526 -0.000103231 0.004659 8.31551e-20 0.004659)
(0.004659 -0.00220526 -0.000103231 0.004659 -1.05734e-18 0.004659)
(0.00476779 -0.00225834 -0.000107683 0.00476779 1.06733e-19 0.00476779)
(0.00476779 -0.00225834 -0.000107683 0.00476779 -1.11718e-18 0.00476779)
(0.00487417 -0.00230987 -0.000112191 0.00487417 1.21755e-19 0.00487417)
(0.00487417 -0.00230987 -0.000112191 0.00487417 -1.23145e-18 0.00487417)
(0.00497807 -0.00235983 -0.000116752 0.00497807 9.62882e-20 0.00497807)
(0.00497807 -0.00235983 -0.000116752 0.00497807 -1.35222e-18 0.00497807)
(0.00507942 -0.00240822 -0.000121367 0.00507942 6.20923e-20 0.00507942)
(0.00507942 -0.00240822 -0.000121367 0.00507942 -1.55387e-18 0.00507942)
(0.00517819 -0.00245504 -0.000126034 0.00517819 2.62163e-21 0.00517819)
(0.00517819 -0.00245504 -0.000126034 0.00517819 -1.81703e-18 0.00517819)
(0.00527433 -0.00250029 -0.000130752 0.00527433 2.28942e-20 0.00527433)
(0.00527433 -0.00250029 -0.000130752 0.00527433 -2.11574e-18 0.00527433)
(0.00536781 -0.00254399 -0.00013552 0.00536781 3.79531e-20 0.00536781)
(0.00536781 -0.00254399 -0.00013552 0.00536781 -2.4862e-18 0.00536781)
(0.00545863 -0.00258614 -0.000140338 0.00545863 1.83199e-21 0.00545863)
(0.00545863 -0.00258614 -0.000140338 0.00545863 -2.89491e-18 0.00545863)
(0.00554676 -0.00262677 -0.000145206 0.00554676 9.69137e-20 0.00554676)
(0.00554676 -0.00262677 -0.000145206 0.00554676 -3.17806e-18 0.00554676)
(0.00563222 -0.0026659 -0.000150123 0.00563222 1.74779e-19 0.00563222)
(0.00563222 -0.0026659 -0.000150123 0.00563222 -3.46135e-18 0.00563222)
(0.00571499 -0.00270355 -0.000155089 0.00571499 1.80144e-19 0.00571499)
(0.00571499 -0.00270355 -0.000155089 0.00571499 -3.77162e-18 0.00571499)
(0.00579511 -0.00273976 -0.000160104 0.00579511 2.2142e-19 0.00579511)
(0.00579511 -0.00273976 -0.000160104 0.00579511 -4.01938e-18 0.00579511)
(0.00587258 -0.00277454 -0.000165169 0.00587258 2.09076e-19 0.00587258)
(0.00587258 -0.00277454 -0.000165169 0.00587258 -4.31943e-18 0.00587258)
(0.00594742 -0.00280793 -0.000170283 0.00594742 3.20093e-19 0.00594742)
(0.00594742 -0.00280793 -0.000170283 0.00594742 -4.689e-18 0.00594742)
(0.00601967 -0.00283996 -0.000175447 0.00601967 4.41794e-19 0.00601967)
(0.00601967 -0.00283996 -0.000175447 0.00601967 -4.96548e-18 0.00601967)
(0.00608935 -0.00287066 -0.000180662 0.00608935 4.42214e-19 0.00608935)
(0.00608935 -0.00287066 -0.000180662 0.00608935 -5.08489e-18 0.00608935)
(0.0061565 -0.00290005 -0.000185928 0.0061565 4.93916e-19 0.0061565)
(0.0061565 -0.00290005 -0.000185928 0.0061565 -5.29636e-18 0.0061565)
(0.00622115 -0.00292818 -0.000191245 0.00622115 5.53237e-19 0.00622115)
(0.00622115 -0.00292818 -0.000191245 0.00622115 -5.7157e-18 0.00622115)
(0.00628334 -0.00295507 -0.000196614 0.00628334 5.70259e-19 0.00628334)
(0.00628334 -0.00295507 -0.000196614 0.00628334 -5.80016e-18 0.00628334)
(0.00634312 -0.00298076 -0.000202035 0.00634312 5.12626e-19 0.00634312)
(0.00634312 -0.00298076 -0.000202035 0.00634312 -5.66642e-18 0.00634312)
(0.00640051 -0.00300527 -0.00020751 0.00640051 5.92e-19 0.00640051)
(0.00640051 -0.00300527 -0.00020751 0.00640051 -5.75426e-18 0.00640051)
(0.00645556 -0.00302863 -0.000213039 0.00645556 5.88517e-19 0.00645556)
(0.00645556 -0.00302863 -0.000213039 0.00645556 -6.14876e-18 0.00645556)
(0.00650832 -0.00305088 -0.000218623 0.00650832 3.23592e-19 0.00650832)
(0.00650832 -0.00305088 -0.000218623 0.00650832 -6.61126e-18 0.00650832)
(0.00655883 -0.00307205 -0.000224262 0.00655883 3.40769e-19 0.00655883)
(0.00655883 -0.00307205 -0.000224262 0.00655883 -6.92924e-18 0.00655883)
(0.00660713 -0.00309215 -0.000229957 0.00660713 5.63301e-19 0.00660713)
(0.00660713 -0.00309215 -0.000229957 0.00660713 -7.20145e-18 0.00660713)
(0.00665326 -0.00311123 -0.000235709 0.00665326 3.53707e-19 0.00665326)
(0.00665326 -0.00311123 -0.000235709 0.00665326 -7.0627e-18 0.00665326)
(0.00669728 -0.0031293 -0.000241518 0.00669728 4.08427e-19 0.00669728)
(0.00669728 -0.0031293 -0.000241518 0.00669728 -7.05598e-18 0.00669728)
(0.00673921 -0.0031464 -0.000247385 0.00673921 6.40946e-19 0.00673921)
(0.00673921 -0.0031464 -0.000247385 0.00673921 -7.398e-18 0.00673921)
(0.0067791 -0.00316255 -0.000253312 0.0067791 6.52589e-19 0.0067791)
(0.0067791 -0.00316255 -0.000253312 0.0067791 -7.54007e-18 0.0067791)
(0.006817 -0.00317777 -0.000259298 0.006817 7.58987e-19 0.006817)
(0.006817 -0.00317777 -0.000259298 0.006817 -7.33458e-18 0.006817)
(0.00685294 -0.00319208 -0.000265344 0.00685294 6.42436e-19 0.00685294)
(0.00685294 -0.00319208 -0.000265344 0.00685294 -7.39214e-18 0.00685294)
(0.00688697 -0.00320552 -0.000271451 0.00688697 8.0878e-19 0.00688697)
(0.00688697 -0.00320552 -0.000271451 0.00688697 -7.68517e-18 0.00688697)
(0.00691912 -0.00321809 -0.000277619 0.00691912 1.22232e-18 0.00691912)
(0.00691912 -0.00321809 -0.000277619 0.00691912 -7.48005e-18 0.00691912)
(0.00694944 -0.00322982 -0.00028385 0.00694944 9.63099e-19 0.00694944)
(0.00694944 -0.00322982 -0.00028385 0.00694944 -7.32584e-18 0.00694944)
(0.00697795 -0.00324074 -0.000290142 0.00697795 8.52193e-19 0.00697795)
(0.00697795 -0.00324074 -0.000290142 0.00697795 -7.887e-18 0.00697795)
(0.00700469 -0.00325085 -0.000296498 0.00700469 1.41228e-18 0.00700469)
(0.00700469 -0.00325085 -0.000296498 0.00700469 -8.47392e-18 0.00700469)
(0.00702971 -0.00326019 -0.000302918 0.00702971 4.06511e-19 0.00702971)
(0.00702971 -0.00326019 -0.000302918 0.00702971 -8.65536e-18 0.00702971)
(0.00705303 -0.00326875 -0.000309401 0.00705303 5.44549e-19 0.00705303)
(0.00705303 -0.00326875 -0.000309401 0.00705303 -9.05929e-18 0.00705303)
(0.00707469 -0.00327657 -0.000315948 0.00707469 1.26537e-18 0.00707469)
(0.00707469 -0.00327657 -0.000315948 0.00707469 -9.55314e-18 0.00707469)
(0.00709471 -0.00328366 -0.00032256 0.00709471 1.13203e-18 0.00709471)
(0.00709471 -0.00328366 -0.00032256 0.00709471 -8.96484e-18 0.00709471)
(0.00711313 -0.00329002 -0.000329236 0.00711313 6.56208e-19 0.00711313)
(0.00711313 -0.00329002 -0.000329236 0.00711313 -8.08055e-18 0.00711313)
(0.00712998 -0.00329568 -0.000335978 0.00712998 1.09064e-18 0.00712998)
(0.00712998 -0.00329568 -0.000335978 0.00712998 -5.70078e-18 0.00712998)
(0.00714529 -0.00330065 -0.000342784 0.00714529 9.67193e-19 0.00714529)
(0.00714529 -0.00330065 -0.000342784 0.00714529 3.3772e-18 0.00714529)
(0.00715908 -0.00330495 -0.000349655 0.00715908 5.3031e-19 0.00715908)
(0.00715908 -0.00330495 -0.000349655 0.00715908 5.66943e-18 0.00715908)
(0.00717137 -0.00330857 -0.000356591 0.00717137 6.64347e-19 0.00717137)
(0.00717137 -0.00330857 -0.000356591 0.00717137 5.84074e-18 0.00717137)
(0.0071822 -0.00331154 -0.000363592 0.0071822 8.43505e-19 0.0071822)
(0.0071822 -0.00331154 -0.000363592 0.0071822 5.83547e-18 0.0071822)
(0.00719158 -0.00331387 -0.000370658 0.00719158 -8.17747e-21 0.00719158)
(0.00719158 -0.00331387 -0.000370658 0.00719158 5.77928e-18 0.00719158)
(0.00719955 -0.00331555 -0.000377788 0.00719955 9.57288e-19 0.00719955)
(0.00719955 -0.00331555 -0.000377788 0.00719955 5.71476e-18 0.00719955)
(0.00720611 -0.00331662 -0.000384982 0.00720611 3.74993e-18 0.00720611)
(0.00720611 -0.00331662 -0.000384982 0.00720611 6.06036e-18 0.00720611)
(0.00721129 -0.00331706 -0.000392239 0.00721129 3.45731e-18 0.00721129)
(0.00721129 -0.00331706 -0.000392239 0.00721129 6.61482e-18 0.00721129)
(0.00721512 -0.0033169 -0.00039956 0.00721512 1.14548e-18 0.00721512)
(0.00721512 -0.0033169 -0.00039956 0.00721512 8.05918e-18 0.00721512)
(0.0072176 -0.00331613 -0.000406942 0.0072176 8.32245e-20 0.0072176)
(0.0072176 -0.00331613 -0.000406942 0.0072176 8.68359e-18 0.0072176)
(0.00721875 -0.00331476 -0.000414386 0.00721875 -7.19333e-20 0.00721875)
(0.00721875 -0.00331476 -0.000414386 0.00721875 1.17217e-17 0.00721875)
(0.0072186 -0.00331281 -0.000421891 0.0072186 3.7641e-18 0.0072186)
(0.0072186 -0.00331281 -0.000421891 0.0072186 1.16939e-17 0.0072186)
(0.00721715 -0.00331027 -0.000429455 0.00721715 2.12324e-18 0.00721715)
(0.00721715 -0.00331027 -0.000429455 0.00721715 1.24664e-17 0.00721715)
(0.00721442 -0.00330716 -0.000437077 0.00721442 1.99982e-18 0.00721442)
(0.00721442 -0.00330716 -0.000437077 0.00721442 1.2668e-17 0.00721442)
(0.00721043 -0.00330347 -0.000444756 0.00721043 2.75803e-18 0.00721043)
(0.00721043 -0.00330347 -0.000444756 0.00721043 1.19441e-17 0.00721043)
(0.00720518 -0.00329921 -0.000452491 0.00720518 1.9124e-18 0.00720518)
(0.00720518 -0.00329921 -0.000452491 0.00720518 1.10678e-17 0.00720518)
(0.00719869 -0.00329438 -0.00046028 0.00719869 3.24824e-19 0.00719869)
(0.00719869 -0.00329438 -0.00046028 0.00719869 1.11013e-17 0.00719869)
(0.00719097 -0.00328899 -0.000468121 0.00719097 2.06517e-18 0.00719097)
(0.00719097 -0.00328899 -0.000468121 0.00719097 1.24579e-17 0.00719097)
(0.00718203 -0.00328304 -0.000476013 0.00718203 3.97609e-18 0.00718203)
(0.00718203 -0.00328304 -0.000476013 0.00718203 1.31386e-17 0.00718203)
(0.00717187 -0.00327653 -0.000483953 0.00717187 2.61426e-18 0.00717187)
(0.00717187 -0.00327653 -0.000483953 0.00717187 1.43256e-17 0.00717187)
(0.00716051 -0.00326946 -0.00049194 0.00716051 2.4684e-18 0.00716051)
(0.00716051 -0.00326946 -0.00049194 0.00716051 1.68557e-17 0.00716051)
(0.00714796 -0.00326184 -0.00049997 0.00714796 1.46215e-18 0.00714796)
(0.00714796 -0.00326184 -0.00049997 0.00714796 1.81034e-17 0.00714796)
(0.00713421 -0.00325367 -0.000508041 0.00713421 1.65207e-18 0.00713421)
(0.00713421 -0.00325367 -0.000508041 0.00713421 1.85314e-17 0.00713421)
(0.00711928 -0.00324494 -0.00051615 0.00711928 2.39431e-18 0.00711928)
(0.00711928 -0.00324494 -0.00051615 0.00711928 1.85553e-17 0.00711928)
(0.00710317 -0.00323567 -0.000524295 0.00710317 1.12324e-18 0.00710317)
(0.00710317 -0.00323567 -0.000524295 0.00710317 1.89688e-17 0.00710317)
(0.00708588 -0.00322583 -0.000532472 0.00708588 2.25834e-18 0.00708588)
(0.00708588 -0.00322583 -0.000532472 0.00708588 1.93472e-17 0.00708588)
(0.00706743 -0.00321545 -0.000540677 0.00706743 3.07678e-18 0.00706743)
(0.00706743 -0.00321545 -0.000540677 0.00706743 2.06155e-17 0.00706743)
(0.0070478 -0.00320451 -0.000548908 0.0070478 1.12243e-18 0.0070478)
(0.0070478 -0.00320451 -0.000548908 0.0070478 2.3988e-17 0.0070478)
(0.00702701 -0.00319302 -0.00055716 0.00702701 2.60806e-18 0.00702701)
(0.00702701 -0.00319302 -0.00055716 0.00702701 2.51901e-17 0.00702701)
(0.00700506 -0.00318097 -0.000565428 0.00700506 2.1762e-18 0.00700506)
(0.00700506 -0.00318097 -0.000565428 0.00700506 2.40441e-17 0.00700506)
(0.00698195 -0.00316836 -0.000573709 0.00698195 1.14822e-18 0.00698195)
(0.00698195 -0.00316836 -0.000573709 0.00698195 2.36035e-17 0.00698195)
(0.00695767 -0.00315519 -0.000581997 0.00695767 3.49772e-18 0.00695767)
(0.00695767 -0.00315519 -0.000581997 0.00695767 2.46338e-17 0.00695767)
(0.00693223 -0.00314146 -0.000590289 0.00693223 2.00085e-18 0.00693223)
(0.00693223 -0.00314146 -0.000590289 0.00693223 2.59138e-17 0.00693223)
(0.00690563 -0.00312716 -0.000598577 0.00690563 2.68558e-18 0.00690563)
(0.00690563 -0.00312716 -0.000598577 0.00690563 2.62647e-17 0.00690563)
(0.00687787 -0.0031123 -0.000606857 0.00687787 1.8312e-18 0.00687787)
(0.00687787 -0.0031123 -0.000606857 0.00687787 2.64851e-17 0.00687787)
(0.00684894 -0.00309686 -0.000615123 0.00684894 -2.7579e-18 0.00684894)
(0.00684894 -0.00309686 -0.000615123 0.00684894 2.66615e-17 0.00684894)
(0.00681884 -0.00308085 -0.000623368 0.00681884 2.27154e-18 0.00681884)
(0.00681884 -0.00308085 -0.000623368 0.00681884 2.81201e-17 0.00681884)
(0.00678758 -0.00306425 -0.000631586 0.00678758 5.05775e-18 0.00678758)
(0.00678758 -0.00306425 -0.000631586 0.00678758 2.89283e-17 0.00678758)
(0.00675514 -0.00304708 -0.000639769 0.00675514 7.09735e-18 0.00675514)
(0.00675514 -0.00304708 -0.000639769 0.00675514 2.71345e-17 0.00675514)
(0.00672153 -0.00302931 -0.00064791 0.00672153 3.34381e-18 0.00672153)
(0.00672153 -0.00302931 -0.00064791 0.00672153 2.7746e-17 0.00672153)
(0.00668674 -0.00301095 -0.000656002 0.00668674 3.58152e-18 0.00668674)
(0.00668674 -0.00301095 -0.000656002 0.00668674 3.26029e-17 0.00668674)
(0.00665076 -0.002992 -0.000664036 0.00665076 2.77907e-18 0.00665076)
(0.00665076 -0.002992 -0.000664036 0.00665076 3.25175e-17 0.00665076)
(0.00661359 -0.00297244 -0.000672003 0.00661359 1.9834e-18 0.00661359)
(0.00661359 -0.00297244 -0.000672003 0.00661359 2.96389e-17 0.00661359)
(0.00657523 -0.00295227 -0.000679894 0.00657523 5.27736e-18 0.00657523)
(0.00657523 -0.00295227 -0.000679894 0.00657523 2.90995e-17 0.00657523)
(0.00653567 -0.00293148 -0.000687699 0.00653567 2.96019e-18 0.00653567)
(0.00653567 -0.00293148 -0.000687699 0.00653567 3.50318e-17 0.00653567)
(0.00649491 -0.00291008 -0.000695409 0.00649491 1.22676e-18 0.00649491)
(0.00649491 -0.00291008 -0.000695409 0.00649491 3.85396e-17 0.00649491)
(0.00645293 -0.00288805 -0.000703012 0.00645293 -1.00896e-18 0.00645293)
(0.00645293 -0.00288805 -0.000703012 0.00645293 3.43561e-17 0.00645293)
(0.00640973 -0.00286538 -0.000710497 0.00640973 -2.73244e-18 0.00640973)
(0.00640973 -0.00286538 -0.000710497 0.00640973 2.91783e-17 0.00640973)
(0.00636531 -0.00284208 -0.000717853 0.00636531 9.20696e-18 0.00636531)
(0.00636531 -0.00284208 -0.000717853 0.00636531 9.91016e-18 0.00636531)
(0.00631966 -0.00281812 -0.000725067 0.00631966 7.04622e-18 0.00631966)
(0.00631966 -0.00281812 -0.000725067 0.00631966 -3.2868e-18 0.00631966)
(0.00627277 -0.00279351 -0.000732126 0.00627277 1.39644e-18 0.00627277)
(0.00627277 -0.00279351 -0.000732126 0.00627277 -3.27065e-18 0.00627277)
(0.00622464 -0.00276824 -0.000739017 0.00622464 2.95919e-18 0.00622464)
(0.00622464 -0.00276824 -0.000739017 0.00622464 -1.76988e-19 0.00622464)
(0.00617526 -0.0027423 -0.000745725 0.00617526 4.72158e-18 0.00617526)
(0.00617526 -0.0027423 -0.000745725 0.00617526 2.97448e-18 0.00617526)
(0.00612462 -0.00271567 -0.000752235 0.00612462 9.79232e-19 0.00612462)
(0.00612462 -0.00271567 -0.000752235 0.00612462 -5.38197e-19 0.00612462)
(0.00607271 -0.00268837 -0.000758531 0.00607271 1.90013e-18 0.00607271)
(0.00607271 -0.00268837 -0.000758531 0.00607271 -5.16553e-18 0.00607271)
(0.00601953 -0.00266036 -0.000764598 0.00601953 6.16407e-18 0.00601953)
(0.00601953 -0.00266036 -0.000764598 0.00601953 7.26664e-18 0.00601953)