/*--------------------------------*- C++ -*----------------------------------*\
| =========                 |                                                 |
| \\      /  F ield         | OpenFOAM: The Open Source CFD Toolbox           |
|  \\    /   O peration     | Version:  2106                                  |
|   \\  /    A nd           | Website:  www.openfoam.com                      |
|    \\/     M anipulation  |                                                 |
\*---------------------------------------------------------------------------*/
FoamFile
{
    version     2.0;
    format      ascii;
    arch        "LSB;label=32;scalar=64";
    class       volTensorField;
    location    "10000";
    object      grad(U);
}
// * * * * * * * * * * * * * * * * * * * * * * * * * * * * * * * * * * * * * //

dimensions      [0 0 -1 0 0 0 0];

internalField   nonuniform List<tensor> 
2000
(
(0 -1.70393e-25 2.82198e-27 23.8225 -6.38884e-39 1.33725e-14 0.0440909 -3.02879e-41 1.99896e-17)
(0 -6.50429e-30 9.52776e-33 23.8225 1.25871e-16 -5.77749e-16 0.0440909 -2.01094e-18 8.42519e-18)
(0 4.78882e-30 -4.1173e-31 23.818 -2.63947e-12 4.05879e-14 0.133079 -5.84979e-15 1.53031e-16)
(0 -4.78882e-30 3.49185e-31 23.818 1.57895e-15 -5.35434e-15 0.133079 3.26036e-18 -1.10934e-16)
(4.97086e-17 -1.09886e-25 1.25665e-29 23.8134 0 -1.52842e-29 0.184611 3.15544e-30 0)
(-5.51347e-17 1.25362e-29 -1.46908e-31 23.8134 1.17095e-15 4.54984e-16 0.184611 5.49733e-18 -1.33242e-16)
(-1.77631e-17 -2.72478e-30 1.67391e-32 23.8087 8.91222e-13 -1.02758e-14 0.18802 -1.48175e-14 1.50444e-16)
(7.10524e-17 6.15323e-30 -9.61442e-32 23.8087 1.48288e-15 5.22197e-15 0.18802 9.13172e-18 -1.17281e-16)
(0 -4.11408e-27 1.35309e-28 23.8039 -6.83986e-15 -2.27367e-15 0.191491 -2.726e-17 9.06163e-18)
(0 -3.02024e-30 9.43824e-32 23.8039 1.45503e-15 -1.78509e-17 0.191491 1.11762e-17 -1.21822e-16)
(0 1.48245e-29 -2.31632e-31 23.7991 -1.16301e-14 -2.25552e-16 0.195025 -1.62861e-16 5.86496e-17)
(-1.72499e-16 -1.48274e-29 2.31632e-31 23.7991 1.40387e-15 -1.75204e-17 0.195025 1.16259e-17 -1.2656e-16)
(1.02406e-16 -4.99434e-28 1.8191e-31 23.7941 -3.37316e-15 8.22626e-15 0.198624 -1.39502e-17 8.02601e-17)
(2.24632e-16 5.82572e-30 -1.8191e-31 23.7941 1.46591e-15 -1.84592e-17 0.198624 1.26334e-17 -1.31508e-16)
(0 2.85723e-30 -8.92883e-32 23.789 -1.70474e-15 9.73688e-15 0.202288 -1.47847e-17 8.38531e-17)
(5.55455e-16 1.4976e-32 0 23.789 1.44652e-15 -1.90723e-17 0.202288 1.17343e-17 -1.36681e-16)
(-8.29506e-17 2.44557e-30 -1.28978e-31 23.7838 -2.57929e-15 9.98518e-15 0.206019 -2.96286e-17 8.75866e-17)
(0 5.60974e-30 0 23.7838 1.39376e-15 -1.98625e-17 0.206019 1.21951e-17 -1.42078e-16)
(0 -2.75347e-30 2.15115e-31 23.7785 -3.47629e-15 1.02388e-14 0.209817 -3.11734e-17 9.14897e-17)
(0 5.50694e-30 -2.15115e-31 23.7785 1.39753e-15 -2.38773e-17 0.209817 1.22431e-17 -1.47709e-16)
(3.80415e-16 -2.43271e-29 5.91284e-31 23.7731 -3.29899e-15 1.04977e-14 0.213684 -2.75573e-17 9.55411e-17)
(0 2.43271e-29 -5.91284e-31 23.7731 1.41561e-15 -2.63726e-17 0.213684 1.29797e-17 -1.53609e-16)
(1.25022e-16 5.51253e-30 -2.02403e-31 23.7675 -2.99003e-15 1.07598e-14 0.21762 -2.66897e-17 9.9738e-17)
(5.00089e-16 -5.29193e-30 1.65843e-31 23.7675 1.51792e-15 -2.6121e-17 0.21762 1.45783e-17 -1.59764e-16)
(0 0 8.14018e-32 23.7617 -2.88181e-15 1.10235e-14 0.221627 -2.65766e-17 1.04061e-16)
(0 0 -8.14018e-32 23.7617 1.50039e-15 -2.77548e-17 0.221627 1.31416e-17 -1.66178e-16)
(-3.34321e-16 2.29064e-29 -6.09447e-31 23.7556 -2.72774e-15 1.12883e-14 0.225706 -2.47675e-17 1.08528e-16)
(0 -1.78999e-29 4.79461e-31 23.7556 1.35634e-15 -2.95711e-17 0.225706 1.239e-17 -1.72879e-16)
(-6.99398e-16 9.98017e-30 -3.6583e-31 23.7492 -2.78014e-15 1.15557e-14 0.229856 -2.85925e-17 1.13159e-16)
(0 -2.51027e-30 1.56892e-31 23.7492 1.29438e-15 -3.06498e-17 0.229856 1.24373e-17 -1.79883e-16)
(5.31643e-16 -9.84212e-30 2.85127e-31 23.7425 -3.20847e-15 1.1824e-14 0.234078 -3.41477e-17 1.17908e-16)
(-1.08613e-15 7.36538e-30 -2.31025e-31 23.7425 1.21545e-15 -3.50082e-17 0.234078 1.13003e-17 -1.87198e-16)
(3.40459e-16 -7.25733e-30 3.02389e-31 23.7353 -3.38729e-15 1.20938e-14 0.238372 -3.32624e-17 1.22843e-16)
(-3.40459e-16 9.67644e-30 -3.02389e-31 23.7353 1.20909e-15 -3.63897e-17 0.238372 1.27783e-17 -1.94841e-16)
(7.67039e-16 -2.15256e-29 6.36373e-31 23.7275 -3.26083e-15 1.23676e-14 0.242738 -3.28466e-17 1.27955e-16)
(8.65636e-16 1.42791e-29 -3.71059e-31 23.7275 1.40542e-15 -3.76901e-17 0.242738 1.57438e-17 -2.02817e-16)
(-2.32637e-16 7.11459e-30 -6.07444e-32 23.7189 -3.09043e-15 1.2644e-14 0.247176 -3.09636e-17 1.33234e-16)
(-3.28096e-16 -2.33126e-30 -1.45704e-31 23.7189 1.42705e-15 -4.85e-17 0.247176 1.37107e-17 -2.11126e-16)
(5.71246e-16 -4.74133e-30 3.49203e-31 23.7094 -2.91601e-15 1.29221e-14 0.251684 -3.03803e-17 1.38682e-16)
(6.74565e-16 6.90369e-30 -4.29102e-31 23.7094 1.26704e-15 -4.57932e-17 0.251684 1.29392e-17 -2.19815e-16)
(-2.65991e-16 2.45316e-30 -6.56233e-32 23.6988 -2.909e-15 1.3201e-14 0.25626 -3.19788e-17 1.44288e-16)
(2.12793e-15 8.49267e-32 0 23.6988 1.09423e-15 -3.49125e-17 0.25626 1.04891e-17 -2.28822e-16)
(0 1.10272e-29 -2.7568e-31 23.6867 -2.98354e-15 1.34802e-14 0.260902 -3.31676e-17 1.50059e-16)
(1.13251e-15 -6.57068e-30 1.3784e-31 23.6867 9.211e-16 -3.98507e-17 0.260902 9.61182e-18 -2.38197e-16)
(0 -6.49507e-30 4.05942e-31 23.6729 -3.15886e-15 1.37568e-14 0.265606 -3.71192e-17 1.55935e-16)
(1.20232e-15 6.53947e-30 -4.05942e-31 23.6729 1.14707e-15 -4.66587e-17 0.265606 1.59567e-17 -2.4796e-16)
(0 6.37605e-30 -1.32834e-31 23.6569 -3.33339e-15 1.403e-14 0.270368 -3.84081e-17 1.6196e-16)
(6.75162e-16 -2.07896e-30 0 23.6569 1.49186e-15 -5.11462e-17 0.270368 1.78578e-17 -2.58117e-16)
(2.50829e-16 3.6924e-31 1.83087e-31 23.6383 -3.14354e-15 1.42999e-14 0.275182 -3.40959e-17 1.68099e-16)
(-5.87271e-16 6.25921e-30 -5.21601e-31 23.6383 1.34976e-15 -6.41484e-17 0.275182 1.3248e-17 -2.68729e-16)
(0 -1.43372e-29 7.68064e-31 23.6166 -2.73176e-15 1.39804e-14 0.28004 -3.00851e-17 1.60481e-16)
(1.41945e-15 1.43969e-29 -7.68064e-31 23.6166 7.81213e-16 -5.89567e-17 0.28004 5.04075e-18 -2.79773e-16)
(1.9233e-16 -5.58616e-30 2.84609e-31 23.591 -2.77599e-15 1.24402e-14 0.284933 -3.64496e-17 1.37206e-16)
(0 8.04256e-30 -5.0266e-31 23.591 5.77267e-16 -4.8381e-17 0.284933 8.81784e-18 -2.91119e-16)
(-3.92703e-16 4.43098e-30 2.87071e-32 23.5609 -2.92281e-15 1.14242e-14 0.28985 -3.48339e-17 1.41513e-16)
(0 1.9738e-30 -3.70087e-31 23.5609 1.02243e-15 -6.85337e-17 0.28985 1.61912e-17 -3.02982e-16)
(-1.09079e-15 1.16258e-29 -4.84407e-31 23.5253 -2.71731e-15 1.15572e-14 0.294778 -3.26689e-17 1.45712e-16)
(0 -7.75051e-30 2.42203e-31 23.5253 1.0597e-15 -8.02867e-17 0.294778 1.0085e-17 -3.15345e-16)
(-9.67302e-16 2.52839e-29 -1.28356e-30 23.4834 -2.64559e-15 1.16439e-14 0.299702 -3.4314e-17 1.49059e-16)
(-1.72761e-15 -1.90903e-29 9.5106e-31 23.4834 6.89266e-16 -7.7011e-17 0.299702 7.33694e-18 -3.28026e-16)
(4.52019e-16 -6.19437e-30 9.69267e-32 23.4341 -2.45979e-15 1.17203e-14 0.304602 -2.90642e-17 1.53192e-16)
(1.80807e-15 3.80566e-30 0 23.4341 5.89622e-16 -7.22187e-17 0.304602 7.87168e-18 -3.41119e-16)
(0 7.33219e-30 -4.58262e-31 23.3761 -2.40943e-15 1.17975e-14 0.309459 -3.42718e-17 1.56723e-16)
(-5.15957e-16 -3.66609e-30 2.29131e-31 23.3761 6.42963e-16 -7.38486e-17 0.309459 9.02757e-18 -3.5454e-16)
(-4.93289e-16 9.65736e-30 -7.76477e-31 23.3083 -2.77798e-15 1.1829e-14 0.314248 -4.01129e-17 1.59816e-16)
(0 -7.19783e-30 6.74796e-31 23.3083 5.73013e-16 -9.25819e-17 0.314248 6.27917e-18 -3.68409e-16)
(-5.14443e-16 -4.60529e-30 1.16651e-31 23.2291 -2.89999e-15 1.18296e-14 0.318942 -3.89198e-17 1.62645e-16)
(0 1.05989e-29 -4.41621e-31 23.2291 5.62829e-16 -9.5933e-17 0.318942 9.08759e-18 -3.82695e-16)
(4.88109e-16 -1.38729e-29 1.08382e-30 23.1372 -2.65576e-15 1.18042e-14 0.323512 -3.478e-17 1.65126e-16)
(1.65565e-15 1.39551e-29 -1.08382e-30 23.1372 7.33078e-16 -9.22948e-17 0.323512 1.12869e-17 -3.97253e-16)
(0 6.80934e-30 -4.25584e-31 23.0309 -2.548e-15 1.17355e-14 0.327926 -3.731e-17 1.66812e-16)
(0 -3.40467e-30 2.12792e-31 23.0309 7.82787e-16 -1.05408e-16 0.327926 1.08491e-17 -4.12047e-16)
(-3.60825e-16 -2.46294e-30 -9.69165e-32 22.9087 -2.65163e-15 1.16342e-14 0.33215 -3.91042e-17 1.68404e-16)
(2.31977e-15 8.34875e-32 2.08893e-31 22.9087 1.22554e-15 -1.07801e-16 0.33215 2.45878e-17 -4.27139e-16)
(-6.02436e-16 -1.39417e-29 7.05496e-31 22.7692 -2.64178e-15 1.14881e-14 0.336148 -3.84241e-17 1.6877e-16)
(1.48622e-15 3.01712e-29 -8.20259e-31 22.7692 8.83763e-16 -1.20675e-16 0.336148 6.48449e-18 -4.42355e-16)
(-6.25243e-16 -2.00811e-29 1.09033e-30 22.6106 -2.34386e-15 1.12963e-14 0.339883 -3.15877e-17 1.68962e-16)
(0 0 -1.40915e-30 22.6106 -6.95184e-30 -1.21262e-16 0.339883 1.30184e-44 -4.57779e-16)
(0 1.89713e-29 -1.58094e-30 22.4318 -1.8396e-15 1.10782e-14 0.343317 -2.43713e-17 1.68422e-16)
(2.5934e-15 -1.88718e-29 1.58094e-30 22.4318 -4.89464e-16 -8.92288e-17 0.343317 1.01497e-17 -4.73162e-16)
(-1.34349e-15 1.42388e-29 -1.02273e-30 22.2313 -2.24925e-15 1.07657e-14 0.346414 -4.56056e-17 1.65547e-16)
(1.81329e-15 -3.00225e-30 5.8199e-31 22.2313 3.08762e-16 -8.01143e-17 0.346414 1.4463e-17 -4.88487e-16)
(8.57674e-16 -6.09414e-30 3.80884e-31 22.0083 -3.10122e-15 1.03889e-14 0.34914 -5.24657e-17 1.62747e-16)
(-8.57674e-16 6.09414e-30 -3.80884e-31 22.0083 1.34424e-15 -1.35055e-16 0.34914 2.81454e-17 -5.03754e-16)
(8.41957e-16 -2.99123e-30 5.60856e-31 21.762 -3.23602e-15 1.00472e-14 0.351462 -5.17042e-17 1.60684e-16)
(0 0 -5.60856e-31 21.762 -9.86076e-32 -1.81206e-16 0.351462 4.93038e-32 -5.19386e-16)
(-2.39649e-15 8.34028e-30 -3.15344e-31 21.4918 -2.88228e-15 9.66935e-15 0.353354 -4.27337e-17 1.56371e-16)
(-2.97373e-15 -3.05601e-30 0 21.4918 -2.0482e-17 -1.56034e-16 0.353354 5.92103e-18 -5.3454e-16)
(7.67751e-16 9.05858e-30 -2.25691e-31 21.1978 -1.92031e-15 9.21131e-15 0.354792 -2.12171e-17 1.51295e-16)
(1.44824e-15 -2.84639e-46 3.60326e-31 21.1978 -3.87035e-30 -1.44543e-16 0.354792 0 -5.49269e-16)
(7.92235e-16 8.84863e-30 -1.27751e-30 20.8801 -1.52062e-15 8.72606e-15 0.355758 -3.06159e-17 1.45597e-16)
(-3.16894e-15 -1.14313e-29 1.41489e-30 20.8801 -1.40934e-15 -1.41601e-16 0.355758 3.71627e-17 -5.63774e-16)
(7.46983e-16 -3.09121e-31 2.07308e-31 20.5395 -2.24472e-15 8.24236e-15 0.356244 -4.73517e-17 1.40072e-16)
(3.26741e-15 2.86253e-30 -3.47242e-31 20.5395 -9.26171e-16 -9.60849e-17 0.356244 7.8263e-17 -5.77795e-16)
(0 -1.63622e-29 1.36351e-30 20.177 -2.50527e-15 7.72997e-15 0.356244 -4.10559e-17 1.32821e-16)
(6.73258e-15 1.65291e-29 -1.70439e-30 20.177 5.38468e-16 -7.69922e-17 0.356244 8.50031e-17 -5.91253e-16)
(1.61988e-15 -2.12129e-29 1.48315e-30 19.794 -1.83786e-15 7.24229e-15 0.355762 -2.49046e-17 1.27644e-16)
(2.71191e-15 1.61487e-29 -1.0039e-30 19.794 -7.33723e-16 -1.22555e-16 0.355762 8.67122e-17 -6.04136e-16)
(-2.37061e-15 7.72701e-30 -1.46122e-30 19.3922 -1.84045e-15 6.69224e-15 0.354808 -4.26988e-17 1.17482e-16)
(-3.56471e-15 -5.1974e-32 6.57e-31 19.3922 -8.17134e-16 -1.4218e-16 0.354808 1.42736e-16 -6.16427e-16)
(1.45232e-15 -1.03194e-29 6.44961e-31 18.9736 -2.73945e-15 6.19577e-15 0.353398 -5.97125e-17 1.1375e-16)
(-1.45232e-15 1.03194e-29 -9.67441e-31 18.9736 4.22546e-16 -1.15703e-16 0.353398 1.77012e-16 -6.28364e-16)
(-9.40771e-16 1.26025e-29 -1.41715e-30 18.5405 -2.74574e-15 5.72557e-15 0.351555 -4.45491e-17 1.03864e-16)
(0 -2.53257e-30 6.33142e-31 18.5405 7.11669e-16 -9.83318e-17 0.351555 2.1108e-16 -6.39608e-16)
(0 -7.45848e-30 6.2154e-31 18.0951 -2.00948e-15 5.20786e-15 0.349304 -3.31789e-17 9.77967e-17)
(0 7.45848e-30 -9.3231e-31 18.0951 2.92194e-16 -9.10408e-17 0.349304 1.90183e-16 -6.49846e-16)
(0 7.3218e-30 -1.2203e-30 17.64 -1.71885e-15 4.82519e-15 0.346678 -3.46536e-17 9.25375e-17)
(-3.96032e-15 -9.79761e-30 1.52538e-30 17.64 -4.75891e-16 -8.99954e-17 0.346678 2.00844e-16 -6.59668e-16)
(1.01455e-15 1.19022e-29 -1.34256e-30 17.1777 -1.9547e-15 4.39238e-15 0.343709 -4.39972e-17 8.3924e-17)
(0 -7.18763e-30 5.98969e-31 17.1777 -2.07026e-17 -1.06587e-16 0.343709 2.26324e-16 -6.68844e-16)
(2.85193e-16 2.47231e-30 1.38401e-31 16.7105 -2.29509e-15 3.97537e-15 0.340434 -5.0026e-17 7.87913e-17)
(-1.32404e-15 4.70395e-30 -8.8199e-31 16.7105 1.72681e-16 -1.23408e-16 0.340434 2.34626e-16 -6.77284e-16)
(-8.2615e-16 -8.90294e-30 1.13039e-30 16.2408 -2.12398e-15 3.64444e-15 0.336888 -3.84523e-17 7.31554e-17)
(4.25186e-15 6.92831e-30 -8.65828e-31 16.2408 -1.39795e-16 -1.01003e-16 0.336888 2.808e-16 -6.85472e-16)
(-1.08687e-15 -2.05553e-30 -1.56754e-31 15.7708 -1.45281e-15 3.33048e-15 0.333108 -2.31296e-17 6.82971e-17)
(0 4.53313e-30 0 15.7708 -7.41184e-16 -9.582e-17 0.333108 2.91747e-16 -6.92775e-16)
(-3.47365e-15 3.08286e-44 -2.53913e-30 15.3026 2.31749e-28 3.05183e-15 0.32913 4.92454e-45 6.374e-17)
(-3.18955e-15 -1.33502e-29 2.22503e-30 15.3026 -1.94957e-15 -1.24506e-16 0.32913 2.91292e-16 -7.00023e-16)
(-9.56832e-17 1.49977e-29 -1.2082e-30 14.838 1.88668e-15 2.83311e-15 0.324989 -2.1624e-17 6.11381e-17)
(-3.30615e-15 -1.96583e-29 1.91123e-30 14.838 -3.15912e-15 -1.22367e-16 0.324989 2.85029e-16 -7.07053e-16)
(-1.2071e-15 1.07212e-29 -1.34015e-30 14.3788 2.45556e-15 2.62527e-15 0.320717 -6.19262e-17 5.67208e-17)
(0 -4.28847e-30 5.36058e-31 14.3788 -2.85983e-15 -1.03817e-16 0.320717 2.74346e-16 -7.13632e-16)
(-2.3599e-15 -1.37862e-30 1.00194e-30 13.9264 1.88914e-15 2.41271e-15 0.316344 -4.82252e-17 5.36271e-17)
(9.4396e-15 4.20988e-30 -1.05247e-30 13.9264 -1.92756e-15 -8.62257e-17 0.316344 2.68729e-16 -7.19387e-16)
(-1.20252e-15 1.28e-29 -1.19023e-30 13.482 8.99868e-16 2.1455e-15 0.311899 -3.81052e-17 4.62895e-17)
(4.81007e-15 -1.03318e-29 1.03318e-30 13.482 -2.49162e-15 -8.18391e-17 0.311899 2.65649e-16 -7.24864e-16)
(1.14195e-15 -1.2171e-29 5.07126e-31 13.0467 -4.56661e-16 2.01505e-15 0.307408 -2.54567e-17 4.9397e-17)
(0 1.2171e-29 -7.60688e-31 13.0467 -2.06073e-15 -1.09897e-16 0.307408 2.61828e-16 -7.30549e-16)
(-2.36776e-15 9.78497e-30 -4.04179e-31 12.6214 -6.30697e-16 1.98102e-15 0.302893 -7.62479e-18 4.63728e-17)
(4.98696e-15 0 -2.48916e-31 12.6214 -4.84924e-16 -1.28906e-16 0.302893 2.64624e-16 -7.36573e-16)
(0 1.1729e-29 -7.33065e-31 12.2067 -2.18907e-16 1.85409e-15 0.298374 -3.11703e-18 4.49474e-17)
(-1.10048e-15 -7.81936e-30 2.44355e-31 12.2067 -5.4983e-16 -1.1018e-16 0.298374 2.69802e-16 -7.42476e-16)
(-1.28971e-15 1.4013e-45 -6.33345e-31 11.8032 1.40851e-43 1.77366e-15 0.293871 1.22625e-45 4.40465e-17)
(0 -3.83804e-30 0 11.8032 -1.17862e-15 -9.37714e-17 0.293871 2.67859e-16 -7.47468e-16)
(-2.12103e-15 -1.10643e-30 -9.41926e-31 11.4113 4.83109e-16 1.72412e-15 0.289397 -6.17375e-18 4.40853e-17)
(0 0 4.70963e-31 11.4113 -1.05982e-15 -7.15679e-17 0.289397 2.63292e-16 -7.52547e-16)
(0 -1.1096e-29 1.84933e-30 11.0312 1.33444e-15 1.72344e-15 0.284968 -3.02149e-17 4.56705e-17)
(5.32569e-15 1.1096e-29 -1.84933e-30 11.0312 -6.31309e-16 -6.10987e-17 0.284968 2.65865e-16 -7.57671e-16)
(0 1.81544e-29 -1.81544e-30 10.6631 1.17701e-15 1.69442e-15 0.280594 -3.93551e-17 4.41928e-17)
(0 -1.81544e-29 1.81544e-30 10.6631 -1.09888e-15 -9.65112e-17 0.280594 2.79573e-16 -7.63017e-16)
(-1.37187e-15 6.0263e-30 -1.49502e-31 10.307 1.17915e-15 1.64902e-15 0.276284 -2.2925e-17 4.49157e-17)
(5.48748e-15 0 -8.91088e-31 10.307 -1.17634e-15 -8.63519e-17 0.276284 2.78598e-16 -7.67222e-16)
(0 -1.39961e-29 1.74952e-30 9.96283 1.6394e-15 1.65925e-15 0.272048 -4.09549e-17 4.64261e-17)
(5.56652e-15 1.39961e-29 -1.74952e-30 9.96283 -7.46616e-16 -7.59358e-17 0.272048 2.82518e-16 -7.70828e-16)
(-1.41108e-15 2.30659e-29 -1.8648e-30 9.63053 1.75463e-15 1.6272e-15 0.26789 -4.93584e-17 4.47946e-17)
(-5.64433e-15 -2.06095e-29 1.71746e-30 9.63053 -2.24525e-15 -1.24992e-16 0.26789 2.95081e-16 -7.7597e-16)
(1.89825e-15 -1.01159e-29 8.42994e-31 9.30993 1.76836e-15 1.7026e-15 0.263816 -4.90193e-17 5.2522e-17)
(-5.72095e-15 1.01159e-29 -8.42994e-31 9.30993 -2.51093e-15 -1.36869e-16 0.263816 2.79699e-16 -7.82472e-16)
(-2.89819e-15 1.60007e-30 -2.89756e-31 9.0008 1.8944e-15 1.79279e-15 0.259831 -5.20094e-17 5.17792e-17)
(5.79639e-15 3.31018e-30 0 9.0008 -1.52511e-15 -1.21743e-16 0.259831 2.8012e-16 -7.88548e-16)
(-2.93533e-15 4.90383e-30 1.1744e-31 8.70289 2.91419e-15 1.72715e-15 0.255936 -5.82684e-17 5.05746e-17)
(0 0 -4.06191e-31 8.70289 -2.27308e-15 -8.72259e-17 0.255936 2.65114e-16 -7.96171e-16)
(0 -1.27599e-29 1.19624e-30 8.41593 3.73085e-15 1.8384e-15 0.252135 -1.14974e-16 6.05098e-17)
(5.94381e-15 1.27599e-29 -1.19624e-30 8.41593 -3.22864e-15 -6.28239e-17 0.252135 2.60667e-16 -8.01086e-16)
(-3.26685e-15 1.80958e-29 -2.88264e-30 8.1396 2.07642e-15 1.76595e-15 0.248428 -1.1023e-16 4.7983e-17)
(-6.01585e-15 -1.25261e-29 2.34864e-30 8.1396 -2.56845e-15 -6.77307e-17 0.248428 2.44305e-16 -8.04595e-16)
(3.25229e-15 -1.16748e-29 1.67722e-30 7.8736 9.79283e-16 1.68503e-15 0.244815 -1.66072e-17 5.7673e-17)
(-1.73059e-15 9.22242e-30 -1.53707e-30 7.8736 -1.53802e-15 -1.54086e-16 0.244815 2.27877e-16 -8.11636e-16)
(1.53918e-15 -1.45173e-29 8.92719e-31 7.61758 2.4591e-15 1.9336e-15 0.241297 -4.50069e-17 6.58022e-17)
(-6.15671e-15 1.20712e-29 -7.54452e-31 7.61758 -2.81682e-15 -1.79494e-16 0.241297 2.37633e-16 -8.20673e-16)
(-4.78054e-15 1.37501e-29 -1.38564e-30 7.37121 3.44178e-15 2.03475e-15 0.237874 -1.12554e-16 6.64837e-17)
(0 -5.92501e-30 7.40627e-31 7.37121 -2.95521e-15 -1.07543e-16 0.237874 2.14551e-16 -8.2687e-16)
(0 8.72466e-30 -7.27055e-31 7.13415 3.61099e-15 1.98555e-15 0.234545 -1.11183e-16 6.4993e-17)
(0 -1.16329e-29 1.45411e-30 7.13415 -3.35969e-15 -8.84464e-17 0.234545 2.16334e-16 -8.32482e-16)
(-1.62427e-15 3.28858e-30 1.34935e-31 6.90607 3.05122e-15 1.95388e-15 0.231308 -1.28106e-16 6.68321e-17)
(-1.27207e-14 -5.70985e-30 0 6.90607 -4.27442e-15 -8.78462e-17 0.231308 1.85703e-16 -8.3943e-16)
(1.60658e-15 -1.08325e-29 1.53428e-30 6.68662 1.37497e-15 2.04949e-15 0.228162 -7.72585e-17 7.4074e-17)
(0 8.40784e-30 -1.40131e-30 6.68662 -1.73246e-15 -1.52311e-16 0.228162 1.46754e-16 -8.48191e-16)
(0 -1.92588e-29 2.40735e-30 6.47548 -2.24048e-16 2.05315e-15 0.225105 -3.28092e-17 6.9609e-17)
(6.49132e-15 1.92588e-29 -2.40735e-30 6.47548 -2.54144e-16 -1.30932e-16 0.225105 1.53954e-16 -8.5797e-16)
(1.63886e-15 -5.12559e-30 1.3122e-31 6.27231 -1.45519e-15 2.00485e-15 0.222137 -7.13144e-17 7.33893e-17)
(6.55545e-15 2.70084e-30 0 6.27231 -1.36527e-15 -7.64732e-17 0.222137 1.77309e-16 -8.65059e-16)
(-1.81678e-15 -1.90072e-29 2.06157e-30 6.0768 -1.76032e-15 2.10537e-15 0.219254 -5.64169e-17 7.96016e-17)
(0 1.59081e-29 -1.32567e-30 6.0768 -2.30271e-15 -1.10615e-16 0.219254 1.68399e-16 -8.71885e-16)
(-1.87533e-15 -4.87549e-30 1.69653e-30 5.88864 -1.3174e-28 2.21368e-15 0.216454 0 8.42438e-17)
(6.68112e-15 1.56166e-29 -1.62673e-30 5.88864 -1.29128e-15 -1.23581e-16 0.216454 1.74814e-16 -8.80809e-16)
(1.68568e-15 -2.73985e-29 2.36225e-30 5.70753 5.65871e-16 2.26667e-15 0.213737 -1.06634e-17 8.66331e-17)
(1.34854e-14 1.53304e-29 -2.23568e-30 5.70753 -1.15396e-15 -9.86367e-17 0.213737 2.09617e-16 -8.89789e-16)
(-1.70087e-15 -2.5911e-30 -1.245e-31 5.53318 2.59025e-15 2.3791e-15 0.211098 -8.1935e-17 9.61311e-17)
(0 7.52474e-30 -3.13531e-31 5.53318 -4.01551e-15 -1.3841e-16 0.211098 1.94684e-16 -8.99265e-16)
(-3.43175e-15 4.83721e-30 -5.55822e-31 5.36531 4.28769e-15 2.485e-15 0.208538 -1.17282e-16 9.82586e-17)
(6.8635e-15 0 3.07785e-31 5.36531 -5.61378e-15 -1.27187e-16 0.208538 1.53312e-16 -9.10143e-16)
(-1.73069e-15 2.39783e-30 -7.26824e-31 5.20365 6.19034e-15 2.55716e-15 0.206052 -2.19031e-16 1.05556e-16)
(6.92277e-15 4.83433e-30 0 5.20365 -5.58134e-15 -6.39938e-17 0.206052 1.17459e-16 -9.20999e-16)
(0 7.11861e-30 -1.77965e-30 5.04794 5.15894e-15 2.4466e-15 0.203639 -2.74714e-16 9.29037e-17)
(-2.67161e-15 0 8.89826e-31 5.04794 -4.26331e-15 -1.62708e-16 0.203639 5.06166e-17 -9.31889e-16)
(1.75978e-15 -9.38575e-30 9.95971e-31 4.89792 2.17666e-15 2.29524e-15 0.201298 -1.4279e-16 9.69026e-17)
(7.03912e-15 6.98816e-30 -8.7352e-31 4.89792 -2.258e-15 3.05601e-16 0.201298 4.98679e-18 -9.44628e-16)
(1.77406e-15 -1.38452e-29 1.54929e-30 4.75337 7.50796e-16 2.46798e-15 0.199024 -3.61902e-17 1.11089e-16)
(7.09625e-15 1.14335e-29 -1.42919e-30 4.75337 -1.81109e-15 1.34857e-15 0.199024 9.93041e-18 -9.49465e-16)
(-1.78818e-15 2.40899e-30 -6.81455e-31 4.61404 7.15552e-16 2.5668e-15 0.196818 -2.69587e-17 1.09112e-16)
(7.15272e-15 4.4896e-30 -5.612e-31 4.61404 -2.4064e-15 1.87576e-15 0.196818 1.34442e-17 -9.43643e-16)
(1.80213e-15 -1.12171e-29 6.69758e-31 4.47972 1.33399e-15 2.56403e-15 0.194675 -3.45019e-17 1.15031e-16)
(0 8.81465e-30 -5.50916e-31 4.47972 -2.71638e-15 2.00441e-15 0.194675 -1.99196e-17 -9.36353e-16)
(-1.81593e-15 1.10439e-29 -1.7398e-30 4.3502 1.67845e-15 2.69666e-15 0.192596 -8.2529e-17 1.25141e-16)
(7.26372e-15 -4.32656e-30 1.08164e-30 4.3502 -2.39943e-15 2.14868e-15 0.192596 -2.55523e-17 -9.29276e-16)
(1.82957e-15 -1.08856e-29 1.17826e-30 4.22528 2.56309e-15 2.8551e-15 0.190576 -6.67544e-17 1.33868e-16)
(0 8.49456e-30 -1.06182e-30 4.22528 -3.20611e-15 2.04703e-15 0.190576 -3.47285e-17 -9.22485e-16)
(-1.84307e-15 1.07107e-29 -1.68084e-30 4.10476 4.11717e-15 2.89448e-15 0.188616 -1.66616e-16 1.33529e-16)
(7.37228e-15 -4.16945e-30 1.04236e-30 4.10476 -3.28348e-15 2.05174e-15 0.188616 -1.03121e-16 -9.23927e-16)
(-4.47758e-16 5.82873e-30 -9.04626e-31 3.98847 3.76859e-15 2.7768e-15 0.186711 -2.1418e-16 1.27735e-16)
(7.42569e-15 -4.09305e-30 5.11631e-31 3.98847 -1.61183e-15 2.07519e-15 0.186711 -1.08768e-16 -9.2079e-16)
(0 4.01804e-30 -1.50677e-30 3.87622 2.43116e-15 2.73778e-15 0.184862 -1.39784e-16 1.34785e-16)
(5.21658e-15 0 1.00451e-30 3.87622 -2.34596e-15 2.03389e-15 0.184862 -9.63971e-17 -9.17451e-16)
(0 3.94441e-30 -1.47916e-30 3.76785 2.23222e-15 2.86907e-15 0.183065 -9.28428e-17 1.45488e-16)
(-9.75135e-15 0 9.86104e-31 3.76785 -4.095e-15 2.30498e-15 0.183065 -1.58646e-16 -9.12167e-16)
(2.17982e-15 1.16164e-29 -1.93607e-30 3.6632 3.33098e-15 2.98767e-15 0.18132 -1.25443e-16 1.51772e-16)
(5.40281e-15 -1.16164e-29 1.93607e-30 3.6632 -3.84179e-15 2.34562e-15 0.18132 -1.87321e-16 -9.05871e-16)
(2.314e-16 -1.66718e-29 2.26115e-30 3.56211 4.29556e-15 3.06083e-15 0.179624 -2.06662e-16 1.58454e-16)
(-2.13987e-15 1.90059e-29 -2.85088e-30 3.56211 -3.46467e-15 2.09448e-15 0.179624 -1.99995e-16 -9.00511e-16)
(-1.92117e-15 -1.40516e-30 8.16666e-31 3.46444 4.25812e-15 2.94201e-15 0.177977 -2.28826e-16 1.45111e-16)
(7.68466e-15 7.46305e-30 -1.39932e-30 3.46444 -3.73424e-15 2.1325e-15 0.177977 -2.48561e-16 -8.98212e-16)
(2.06217e-15 -7.32629e-30 9.15786e-31 3.37005 4.05253e-15 2.87302e-15 0.176375 -2.10549e-16 1.57102e-16)
(0 7.32629e-30 -9.15786e-31 3.37005 -4.5461e-15 2.31175e-15 0.176375 -2.68925e-16 -8.94277e-16)
(0 3.59602e-30 -8.99004e-31 3.27881 3.71744e-15 2.76359e-15 0.174819 -2.15629e-16 1.38749e-16)
(0 0 8.99004e-31 3.27881 -3.96231e-15 2.49008e-15 0.174819 -2.9972e-16 -8.91764e-16)
(3.94581e-15 -1.64377e-29 2.75326e-30 3.19059 4.82554e-15 3.11646e-15 0.173305 -1.82255e-16 2.01885e-16)
(5.84685e-15 1.41205e-29 -2.64759e-30 3.19059 -3.09692e-15 2.44698e-15 0.173305 -3.2638e-16 -8.82608e-16)
(-3.88183e-15 8.10846e-30 -1.18899e-30 3.10527 7.25205e-15 3.37286e-15 0.171834 -3.45792e-16 1.72741e-16)
(7.88305e-15 0 0 3.10527 -4.5296e-15 2.36146e-15 0.171834 -3.81764e-16 -8.77083e-16)
(0 0 0 3.02273 5.83718e-15 2.99645e-15 0.170403 -4.61348e-16 1.66476e-16)
(7.93154e-15 3.40193e-30 -4.25241e-31 3.02273 -5.83509e-15 2.37385e-15 0.170403 -4.57491e-16 -8.49831e-16)
(-3.9898e-15 4.58277e-30 -2.21149e-31 2.94287 3.39545e-15 2.94962e-15 0.169012 -1.97127e-16 1.73799e-16)
(7.97961e-15 0 0 2.94287 -5.13928e-15 2.26453e-15 0.169012 -5.09047e-16 -8.2616e-16)
(2.00682e-15 -1.5397e-29 2.56854e-30 2.86557 4.08072e-15 3.01122e-15 0.167658 -1.94477e-16 1.80055e-16)
(8.02727e-15 1.31136e-29 -2.4588e-30 2.86557 -5.0138e-15 2.30137e-15 0.167658 -5.6099e-16 -7.98347e-16)
(-3.62351e-15 1.60916e-29 -2.41374e-30 2.79075 4.63131e-15 3.08934e-15 0.166342 -2.85821e-16 1.89785e-16)
(-4.45103e-15 -1.60916e-29 2.41374e-30 2.79075 -5.75917e-15 2.4382e-15 0.166342 -6.57562e-16 -7.74543e-16)
(0 3.15934e-30 0 2.7183 3.93694e-15 3.20314e-15 0.16506 -2.68317e-16 2.00843e-16)
(-1.77855e-15 -3.15934e-30 0 2.7183 -4.28612e-15 2.63074e-15 0.16506 -7.51921e-16 -7.43367e-16)
(-2.338e-15 1.69104e-29 -2.53694e-30 2.64813 3.73611e-15 3.31291e-15 0.163813 -2.11145e-16 2.10697e-16)
(-1.74596e-15 -1.24058e-29 2.32609e-30 2.64813 -3.22402e-15 2.39703e-15 0.163813 -8.07736e-16 -7.01458e-16)
(-2.05352e-15 5.27915e-30 -8.63053e-31 2.58015 5.34094e-15 3.5122e-15 0.1626 -2.53252e-16 2.33859e-16)
(-1.71397e-15 0 0 2.58015 -4.49532e-15 2.35886e-15 0.1626 -8.35828e-16 -6.81277e-16)
(-3.36512e-15 1.19553e-29 -2.98883e-30 2.51428 6.51965e-15 3.3016e-15 0.161418 -4.2403e-16 1.91242e-16)
(-8.25985e-15 -8.96648e-30 2.24162e-30 2.51428 -5.63905e-15 2.83579e-15 0.161418 -9.30837e-16 -6.43757e-16)
(4.15264e-15 -1.43677e-30 -5.36076e-31 2.45044 7.3116e-15 3.42177e-15 0.160268 -4.16119e-16 2.58594e-16)
(0 -2.93406e-30 7.33514e-31 2.45044 -5.85704e-15 3.02156e-15 0.160268 -1.0512e-15 -5.92282e-16)
(9.32278e-16 4.34674e-30 -2.66901e-30 2.38855 6.99205e-15 3.58703e-15 0.159147 -5.44947e-16 2.20755e-16)
(8.35039e-15 -1.15212e-29 2.16022e-30 2.38855 -5.64983e-15 2.60601e-15 0.159147 -1.17076e-15 -5.36647e-16)
(-2.09879e-15 2.15048e-30 -1.03305e-31 2.32855 5.52506e-15 3.36668e-15 0.158056 -3.88666e-16 2.38041e-16)
(8.39517e-15 2.82751e-30 0 2.32855 -5.96472e-15 2.33628e-15 0.158056 -1.29233e-15 -5.02786e-16)
(4.21982e-15 1.26518e-30 2.10002e-31 2.27036 6.67023e-15 3.28662e-15 0.156993 -3.63771e-16 2.17859e-16)
(0 -5.55139e-30 0 2.27036 -6.77935e-15 2.62925e-15 0.156993 -1.40803e-15 -4.76403e-16)
(2.12094e-15 -4.8243e-30 9.57431e-32 2.2139 7.13048e-15 3.49693e-15 0.155958 -5.63712e-16 2.77019e-16)
(8.48378e-15 2.72483e-30 0 2.2139 -7.43063e-15 2.85693e-15 0.155958 -1.53215e-15 -4.33528e-16)
(-2.13191e-15 1.01276e-29 -2.10883e-30 2.15913 6.2958e-15 3.63121e-15 0.154949 -4.43147e-16 2.45585e-16)
(-3.01167e-15 -2.6749e-30 6.68725e-31 2.15913 -6.37767e-15 2.87575e-15 0.154949 -1.66194e-15 -3.8353e-16)
(0 0 6.56471e-31 2.10598 6.7744e-15 3.54573e-15 0.153965 -4.63638e-16 2.74802e-16)
(1.41859e-14 7.87765e-30 -1.31294e-30 2.10598 -5.5082e-15 2.91074e-15 0.153965 -1.74369e-15 -3.39595e-16)
(-2.15361e-15 -1.08322e-29 1.83103e-30 2.05439 7.0409e-15 3.64207e-15 0.153006 -5.30705e-16 2.6937e-16)
(0 1.28888e-29 -3.22221e-30 2.05439 -6.52198e-15 2.94049e-15 0.153006 -1.86283e-15 -2.91688e-16)
(0 -1.26526e-29 2.53053e-30 2.0043 7.12727e-15 3.61281e-15 0.152071 -5.21303e-16 2.8066e-16)
(1.73149e-14 1.26526e-29 -2.53053e-30 2.0043 -6.86538e-15 2.77952e-15 0.152071 -2.02229e-15 -2.39723e-16)
(-2.17504e-15 1.19452e-29 9.29952e-30 1.95567 7.17849e-15 9.89324e-17 0.15116 -5.63972e-16 3.83504e-18)
(0 -9.93663e-30 3.1052e-30 1.95567 -7.56369e-15 2.81758e-15 0.15116 -2.12405e-15 -1.96238e-16)
(0 -2.43864e-30 1.33656e-31 1.90843 6.21073e-15 -3.91193e-30 0.150271 -5.48963e-16 0)
(8.7426e-15 2.43864e-30 -1.21932e-30 1.90843 -5.77703e-15 3.04174e-15 0.150271 -2.25206e-15 -1.41367e-16)
(2.1962e-15 -1.39645e-29 3.7083e-30 1.86254 4.20888e-15 -3.94601e-16 0.149403 -4.30938e-16 3.76637e-17)
(1.75696e-14 1.19697e-29 -3.59092e-30 1.86254 -2.7112e-15 3.11015e-15 0.149403 -2.31358e-15 -8.49254e-17)
(-2.20668e-15 2.01236e-30 -1.0973e-31 1.81795 3.82009e-15 -1.13124e-16 0.148557 -2.44545e-16 2.57171e-17)
(8.82672e-15 2.35008e-30 -1.17504e-30 1.81795 -1.71459e-15 2.98205e-15 0.148557 -2.35366e-15 -1.61708e-17)
(-3.80367e-16 7.25274e-30 1.02421e-31 1.77462 5.2124e-15 0 0.147731 -3.82859e-16 9.86076e-32)
(8.86841e-15 -2.30702e-30 0 1.77462 -1.72808e-15 3.41436e-15 0.147731 -2.33874e-15 4.23953e-17)
(-4.45493e-15 8.41272e-30 -1.29071e-30 1.73251 5.76786e-15 -6.9861e-16 0.146925 -4.88394e-16 6.77491e-17)
(8.90987e-15 0 0 1.73251 -1.67717e-15 3.7031e-15 0.146925 -2.36861e-15 1.4255e-16)
(0 -4.44648e-30 0 1.69157 5.41722e-15 -6.28665e-16 0.146138 -4.9264e-16 5.09145e-17)
(1.79022e-14 6.66972e-30 -1.11162e-30 1.69157 -6.12356e-16 3.24528e-15 0.146138 -2.43573e-15 2.33797e-16)
(0 6.5475e-30 -1.09125e-30 1.65175 3.51911e-15 -7.84874e-16 0.14537 -4.45481e-16 5.80706e-17)
(8.99207e-15 -2.1825e-30 0 1.65175 -1.78753e-15 3.15453e-15 0.14537 -2.4828e-15 3.17531e-16)
(-2.25821e-15 1.05409e-29 -1.10473e-30 1.61304 2.55516e-15 -8.30621e-16 0.144619 -1.73082e-16 8.06595e-17)
(-2.41225e-15 -4.28501e-30 0 1.61304 -2.61191e-15 3.46981e-15 0.144619 -2.53555e-15 4.10697e-16)
(2.26835e-15 6.46199e-30 -1.02877e-30 1.57537 4.31007e-15 -7.76472e-16 0.143886 -2.87348e-16 6.85601e-17)
(0 -8.41298e-30 2.10325e-30 1.57537 -1.78192e-15 3.61099e-15 0.143886 -2.53676e-15 5.2623e-16)
(0 6.19411e-30 -1.03235e-30 1.53873 4.54331e-15 -7.6302e-16 0.14317 -5.03997e-16 7.36894e-17)
(-2.32465e-15 -2.0647e-30 0 1.53873 -1.01406e-15 3.46032e-15 0.14317 -2.59997e-15 6.37644e-16)
(-2.28846e-15 1.20569e-29 -3.0403e-30 1.50308 4.4424e-15 -6.26478e-16 0.142469 -3.42095e-16 2.81411e-17)
(0 -8.10748e-30 2.02687e-30 1.50308 -2.07827e-15 3.7928e-15 0.142469 -2.66703e-15 7.22906e-16)
(-4.53868e-15 5.87205e-30 -9.94864e-31 1.46838 5.05545e-15 -9.11255e-16 0.141785 -5.03632e-16 -5.50691e-17)
(-9.19377e-15 -1.98973e-30 0 1.46838 -3.0574e-15 4.20898e-15 0.141785 -2.83238e-15 8.55578e-16)
(-2.30837e-15 -3.96851e-30 9.76634e-31 1.43461 4.413e-15 -1.12224e-15 0.141115 -4.74773e-16 -1.6091e-16)
(1.8467e-14 7.81307e-30 -9.76634e-31 1.43461 -1.65374e-15 3.80019e-15 0.141115 -2.84825e-15 9.97765e-16)
(0 -7.6699e-30 1.91747e-30 1.40173 4.66379e-15 -6.10147e-16 0.14046 -3.94734e-16 -2.59178e-16)
(9.27302e-15 7.6699e-30 -1.91747e-30 1.40173 -2.56822e-15 3.32031e-15 0.14046 -2.84343e-15 1.12778e-15)
(-2.32809e-15 5.6138e-30 -7.03918e-31 1.36971 5.73259e-15 -5.43178e-16 0.13982 -5.43513e-16 -3.40291e-16)
(7.19304e-15 0 -9.41168e-31 1.36971 -2.8755e-15 3.73372e-15 0.13982 -3.02127e-15 1.24859e-15)
(0 3.69569e-30 -9.23922e-31 1.33853 5.07583e-15 -1.03044e-15 0.139193 -6.3036e-16 -4.54778e-16)
(9.35152e-15 0 0 1.33853 -2.52907e-15 4.26465e-15 0.139193 -3.06215e-15 1.38146e-15)
(-2.34762e-15 -5.42743e-30 9.06991e-31 1.30815 3.31102e-15 -1.15168e-15 0.138579 -4.25812e-16 -5.71032e-16)