/*--------------------------------*- C++ -*----------------------------------*\
| =========                 |                                                 |
| \\      /  F ield         | OpenFOAM: The Open Source CFD Toolbox           |
|  \\    /   O peration     | Version:  2106                                  |
|   \\  /    A nd           | Website:  www.openfoam.com                      |
|    \\/     M anipulation  |                                                 |
\*---------------------------------------------------------------------------*/
FoamFile
{
    version     2.0;
    format      ascii;
    arch        "LSB;label=32;scalar=64";
    class       volScalarField;
    location    "10000";
    object      p;
}
// * * * * * * * * * * * * * * * * * * * * * * * * * * * * * * * * * * * * * //

dimensions      [0 2 -2 0 0 0 0];

internalField   nonuniform List<scalar> 
2000
(
1.84986e-15
3.95465e-15
3.97335e-15
3.95427e-15
4.12534e-15
3.95365e-15
3.73321e-15
3.95272e-15
3.45143e-15
3.95142e-15
3.24186e-15
3.94973e-15
3.03967e-15
3.94769e-15
2.83712e-15
3.94528e-15
2.63858e-15
3.94253e-15
2.44513e-15
3.93942e-15
2.25621e-15
3.93593e-15
2.07146e-15
3.93207e-15
1.89064e-15
3.92785e-15
1.71376e-15
3.92324e-15
1.54068e-15
3.91829e-15
1.3713e-15
3.91299e-15
1.20587e-15
3.90727e-15
1.04424e-15
3.90122e-15
8.86381e-16
3.89488e-15
7.32117e-16
3.88803e-15
5.81416e-16
3.88085e-15
4.34211e-16
3.87343e-15
2.90395e-16
3.86572e-15
1.50084e-16
3.85758e-15
1.30508e-17
3.84911e-15
-1.20638e-16
3.8401e-15
-2.51316e-16
3.8308e-15
-3.78749e-16
3.82126e-15
-5.03065e-16
3.81125e-15
-6.24463e-16
3.80075e-15
-7.43139e-16
3.78987e-15
-8.58765e-16
3.77867e-15
-9.71682e-16
3.76712e-15
-1.08197e-15
3.75509e-15
-1.18966e-15
3.74263e-15
-1.29483e-15
3.72984e-15
-1.39766e-15
3.71647e-15
-1.49805e-15
3.7027e-15
-1.59631e-15
3.68832e-15
-1.69237e-15
3.6734e-15
-1.78651e-15
3.65821e-15
-1.87904e-15
3.64279e-15
-1.96944e-15
3.62649e-15
-2.05766e-15
3.60937e-15
-2.14446e-15
3.59157e-15
-2.22991e-15
3.57313e-15
-2.31394e-15
3.55397e-15
-2.39652e-15
3.53435e-15
-2.47803e-15
3.51452e-15
-2.55831e-15
3.49406e-15
-2.63819e-15
3.47288e-15
-2.71647e-15
3.45079e-15
-2.79465e-15
3.4278e-15
-2.87174e-15
3.40417e-15
-2.94811e-15
3.37968e-15
-3.02433e-15
3.35412e-15
-3.0996e-15
3.32728e-15
-3.17427e-15
3.30011e-15
-3.24844e-15
3.27193e-15
-3.32219e-15
3.24227e-15
-3.39564e-15
3.21115e-15
-3.46935e-15
3.17906e-15
-3.54318e-15
3.14653e-15
-3.61722e-15
3.11385e-15
-3.6895e-15
3.07955e-15
-3.76188e-15
3.0439e-15
-3.83391e-15
3.00717e-15
-3.90566e-15
2.96889e-15
-3.97691e-15
2.92907e-15
-4.04773e-15
2.88829e-15
-4.11874e-15
2.84605e-15
-4.18944e-15
2.80352e-15
-4.2599e-15
2.76021e-15
-4.33019e-15
2.71442e-15
-4.39919e-15
2.66559e-15
-4.46875e-15
2.61674e-15
-4.53835e-15
2.56736e-15
-4.60686e-15
2.51693e-15
-4.67746e-15
2.46553e-15
-4.74456e-15
2.41069e-15
-4.81076e-15
2.35437e-15
-4.8781e-15
2.29733e-15
-4.94606e-15
2.24033e-15
-5.01341e-15
2.17947e-15
-5.07957e-15
2.11478e-15
-5.14601e-15
2.05115e-15
-5.21008e-15
1.98665e-15
-5.27184e-15
1.91856e-15
-5.33209e-15
1.84841e-15
-5.39168e-15
1.77845e-15
-5.44998e-15
1.70446e-15
-5.50863e-15
1.63171e-15
-5.5678e-15
1.5589e-15
-5.62918e-15
1.48163e-15
-5.68686e-15
1.40152e-15
-5.74095e-15
1.3218e-15
-5.7947e-15
1.23953e-15
-5.8467e-15
1.15483e-15
-5.89713e-15
1.06625e-15
-5.94778e-15
9.80357e-16
-6.00048e-15
8.92512e-16
-6.05387e-15
8.06177e-16
-6.10485e-15
7.18266e-16
-6.15364e-15
6.25608e-16
-6.20213e-15
5.33408e-16
-6.25227e-15
4.43598e-16
-6.30435e-15
3.53008e-16
-6.3535e-15
2.63598e-16
-6.40171e-15
1.68647e-16
-6.4422e-15
7.53539e-17
-6.49111e-15
-1.77902e-17
-6.53818e-15
-1.06949e-16
-6.58191e-15
-1.91788e-16
-6.62261e-15
-2.75579e-16
-6.66058e-15
-3.61663e-16
-6.69615e-15
-4.53451e-16
-6.72963e-15
-5.39644e-16
-6.76324e-15
-6.29176e-16
-6.80107e-15
-7.25524e-16
-6.83041e-15
-8.26585e-16
-6.86664e-15
-9.16993e-16
-6.89886e-15
-1.00772e-15
-6.93125e-15
-1.10228e-15
-6.95655e-15
-1.19656e-15
-6.9867e-15
-1.29024e-15
-7.01441e-15
-1.38686e-15
-7.04399e-15
-1.48222e-15
-7.07201e-15
-1.57597e-15
-7.10285e-15
-1.67168e-15
-7.13307e-15
-1.76904e-15
-7.1552e-15
-1.86372e-15
-7.17362e-15
-1.95533e-15
-7.1968e-15
-2.06351e-15
-7.21717e-15
-2.168e-15
-7.24726e-15
-2.26845e-15
-7.27147e-15
-2.36447e-15
-7.29029e-15
-2.46782e-15
-7.30826e-15
-2.57416e-15
-7.32584e-15
-2.67909e-15
-7.33939e-15
-2.79872e-15
-7.36161e-15
-2.92471e-15
-7.3806e-15
-3.04454e-15
-7.39679e-15
-3.14975e-15
-7.41899e-15
-3.2649e-15
-7.43937e-15
-3.38566e-15
-7.46251e-15
-3.49525e-15
-7.48058e-15
-3.59754e-15
-7.49825e-15
-3.70479e-15
-7.51598e-15
-3.81268e-15
-7.53426e-15
-3.91264e-15
-7.57041e-15
-4.02125e-15
-7.59988e-15
-4.13818e-15
-7.62317e-15
-4.26324e-15
-7.6153e-15
-4.38806e-15
-7.61842e-15
-4.51298e-15
-7.63263e-15
-4.63833e-15
-7.64117e-15
-4.7558e-15
-7.65261e-15
-4.87404e-15
-7.66711e-15
-5.01035e-15
-7.68465e-15
-5.14833e-15
-7.69673e-15
-5.25454e-15
-7.70352e-15
-5.37174e-15
-7.72193e-15
-5.4835e-15
-7.75201e-15
-5.59005e-15
-7.77697e-15
-5.69143e-15
-7.80554e-15
-5.81344e-15
-7.82932e-15
-5.94816e-15
-7.83106e-15
-6.07113e-15
-7.84424e-15
-6.17497e-15
-7.86864e-15
-6.27731e-15
-7.89573e-15
-6.39578e-15
-7.90828e-15
-6.52285e-15
-7.93955e-15
-6.64287e-15
-7.9468e-15
-6.73157e-15
-7.96346e-15
-6.80693e-15
-7.96388e-15
-6.91194e-15
-7.99775e-15
-7.00577e-15
-8.01399e-15
-7.09759e-15
-8.02874e-15
-7.1631e-15
-8.03334e-15
-7.23657e-15
-8.01876e-15
-7.30259e-15
-8.05101e-15
-7.41316e-15
-8.09564e-15
-7.53666e-15
-8.13527e-15
-7.65848e-15
-8.16941e-15
-7.76413e-15
-8.1973e-15
-7.82283e-15
-8.23522e-15
-7.85291e-15
-8.26825e-15
-7.92077e-15
-8.27952e-15
-7.99456e-15
-8.30066e-15
-8.10961e-15
-8.32912e-15
-8.18703e-15
-8.38e-15
-8.24544e-15
-8.42081e-15
-8.28556e-15
-8.46876e-15
-8.32349e-15
-8.50872e-15
-8.3918e-15
-8.52424e-15
-8.42656e-15
-8.59592e-15
-8.41323e-15
-8.64721e-15
-8.46181e-15
-8.6795e-15
-8.45964e-15
-8.71059e-15
-8.51768e-15
-8.75582e-15
-8.58964e-15
-8.79898e-15
-8.59796e-15
-8.81044e-15
-8.65174e-15
-8.82021e-15
-8.70631e-15
-8.87402e-15
-8.77911e-15
-8.90855e-15
-8.79283e-15
-8.94226e-15
-8.83997e-15
-8.95926e-15
-8.92108e-15
-8.95737e-15
-8.94708e-15
-8.98004e-15
-8.93592e-15
-8.98336e-15
-8.94698e-15
-9.01282e-15
-8.94965e-15
-9.07185e-15
-8.97045e-15
-9.0431e-15
-8.97507e-15
-9.0462e-15
-8.99708e-15
-9.08116e-15
-9.01121e-15
-9.00428e-15
-8.98819e-15
-8.99055e-15
-8.9024e-15
-8.95479e-15
-8.8948e-15
-8.92378e-15
-8.88067e-15
-8.81189e-15
-8.83284e-15
-8.81288e-15
-8.78811e-15
-8.81791e-15
-8.74552e-15
-8.74942e-15
-8.70013e-15
-8.63606e-15
-8.65286e-15
-8.58085e-15
-8.63754e-15
-8.55e-15
-8.60221e-15
-8.57282e-15
-8.54704e-15
-8.54922e-15
-8.4909e-15
-8.48776e-15
-8.47908e-15
-8.43362e-15
-8.40503e-15
-8.38954e-15
-8.37526e-15
-8.40812e-15
-8.34194e-15
-8.39011e-15
-8.32589e-15
-8.28631e-15
-8.24987e-15
-8.26999e-15
-8.14081e-15
-8.27938e-15
-8.00885e-15
-8.21402e-15
-7.9281e-15
-8.15076e-15
-7.85963e-15
-8.06901e-15
-7.77178e-15
-7.97724e-15
-7.73871e-15
-7.89125e-15
-7.69616e-15
-7.64967e-15
-7.64967e-15
-7.54402e-15
-7.56622e-15
-7.44226e-15
-7.50038e-15
-7.38363e-15
-7.41207e-15
-7.35117e-15
-7.33769e-15
-7.23717e-15
-7.27068e-15
-7.1226e-15
-7.1804e-15
-7.09172e-15
-7.1158e-15
-2.52352e-16
-3.20169e-16
-2.52485e-16
-3.2023e-16
-2.52754e-16
-3.2032e-16
-2.53175e-16
-3.20469e-16
-2.5376e-16
-3.20683e-16
-2.54502e-16
-3.20962e-16
-2.55388e-16
-3.2132e-16
-2.56438e-16
-3.21785e-16
-2.57608e-16
-3.22307e-16
-2.58976e-16
-3.2285e-16
-2.60512e-16
-3.23515e-16
-2.62255e-16
-3.2423e-16
-2.64171e-16
-3.24929e-16
-2.66299e-16
-3.25664e-16
-2.68496e-16
-3.26525e-16
-2.70843e-16
-3.27492e-16
-2.73355e-16
-3.28544e-16
-2.75981e-16
-3.29768e-16
-2.78796e-16
-3.30956e-16
-2.81749e-16
-3.32237e-16
-2.84833e-16
-3.33693e-16
-2.88079e-16
-3.35207e-16
-2.91514e-16
-3.36706e-16
-2.95091e-16
-3.38309e-16
-2.98763e-16
-3.40058e-16
-3.02669e-16
-3.41771e-16
-3.06652e-16
-3.43529e-16
-3.10915e-16
-3.45617e-16
-3.15238e-16
-3.47757e-16
-3.19681e-16
-3.4982e-16
-3.24302e-16
-3.51949e-16
-3.29025e-16
-3.54217e-16
-3.33842e-16
-3.56692e-16
-3.38744e-16
-3.59315e-16
-3.43849e-16
-3.62152e-16
-3.49147e-16
-3.64901e-16
-3.54324e-16
-3.67939e-16
-3.59859e-16
-3.7103e-16
-3.65502e-16
-3.74066e-16
-3.71481e-16
-3.77412e-16
-3.77669e-16
-3.80958e-16
-3.84062e-16
-3.846e-16
-3.90652e-16
-3.88577e-16
-3.97661e-16
-3.92447e-16
-4.04633e-16
-3.96788e-16
-4.11679e-16
-4.01275e-16
-4.18798e-16
-4.06147e-16
-4.26435e-16
-4.11418e-16
-4.34365e-16
-4.16213e-16
-4.42587e-16
-4.20547e-16
-4.51326e-16
-4.26112e-16
-4.6036e-16
-4.32258e-16
-4.70142e-16
-4.37879e-16
-4.80226e-16
-4.44119e-16
-4.90842e-16
-4.50317e-16
-5.02228e-16
-4.56024e-16
-5.13929e-16
-4.62641e-16
-5.26417e-16
-4.69258e-16
-5.3923e-16
-4.76363e-16
-5.5261e-16
-4.84218e-16
-5.6632e-16
-4.92853e-16
-5.80851e-16
-5.01311e-16
-5.95968e-16
-5.09847e-16
-6.10914e-16
-5.18978e-16
-6.26441e-16
-5.28984e-16
-6.42812e-16
-5.39637e-16
-6.60829e-16
-5.49642e-16
-6.78912e-16
-5.60592e-16
-6.97319e-16
-5.73337e-16
-7.16589e-16
-5.86829e-16
-7.37288e-16
-5.9829e-16
-7.57729e-16
-6.09368e-16
-7.78456e-16
-6.22363e-16
-8.00624e-16
-6.37333e-16
-8.21275e-16
-6.53743e-16
-8.43954e-16
-6.72238e-16
-8.67466e-16
-6.87367e-16
-8.93664e-16
-7.01515e-16
-9.16924e-16
-7.22214e-16
-9.40958e-16
-7.44536e-16
-9.66397e-16
-7.64637e-16
-9.93241e-16
-7.84422e-16
-1.02149e-15
-8.06542e-16
-1.04979e-15
-8.33079e-16
-1.07878e-15
-8.60048e-16
-1.10773e-15
-8.83991e-16
-1.13731e-15
-9.0693e-16
-1.16818e-15
-9.3451e-16
-1.20106e-15
-9.63248e-16
-1.23447e-15
-9.92437e-16
-1.26544e-15
-1.02282e-15
-1.29981e-15
-1.05441e-15
-1.3361e-15
-1.08422e-15
-1.36972e-15
-1.11373e-15
-1.40517e-15
-1.14599e-15
-1.44242e-15
-1.17639e-15
-1.4846e-15
-1.20487e-15
-1.52858e-15
-1.23772e-15
-1.57434e-15
-1.27339e-15
-1.62023e-15
-1.31193e-15
-1.66784e-15
-1.3501e-15
-1.71548e-15
-1.38293e-15
-1.7631e-15
-1.41693e-15
-1.81063e-15
-1.45881e-15
-1.86477e-15
-1.49852e-15
-1.91534e-15
-1.53599e-15
-1.96565e-15
-1.57803e-15
-2.0191e-15
-1.62468e-15
-2.07565e-15
-1.67074e-15
-2.13002e-15
-1.71264e-15
-2.17854e-15
-1.75914e-15
-2.23535e-15
-1.8067e-15
-2.28789e-15
-1.85711e-15
-2.34688e-15
-1.90493e-15
-2.40504e-15
-1.95193e-15
-2.46047e-15
-2.0017e-15
-2.52228e-15
-2.04687e-15
-2.58307e-15
-2.09844e-15
-2.64275e-15
-2.15647e-15
-2.70311e-15
-2.21533e-15
-2.76028e-15
-2.26743e-15
-2.82556e-15
-2.30882e-15
-2.8837e-15
-2.35458e-15
-2.94224e-15
-2.41237e-15
-3.00498e-15
-2.47066e-15
-3.06799e-15
-2.52938e-15
-3.12729e-15
-2.58848e-15
-3.19059e-15
-2.63613e-15
-3.25394e-15
-2.68786e-15
-3.32519e-15
-2.7515e-15
-3.38846e-15
-2.8231e-15
-3.45553e-15
-2.88273e-15
-3.52238e-15
-2.94622e-15
-3.59295e-15
-3.00946e-15
-3.65917e-15
-3.07636e-15
-3.7209e-15
-3.1428e-15
-3.77799e-15
-3.21683e-15
-3.83841e-15
-3.29032e-15
-3.91021e-15
-3.35912e-15
-3.96878e-15
-3.43127e-15
-4.02626e-15
-3.5026e-15
-4.0742e-15
-3.56473e-15
-4.12062e-15
-3.62576e-15
-4.18606e-15
-3.69389e-15
-4.24554e-15
-3.769e-15
-4.30716e-15
-3.8385e-15
-4.37495e-15
-3.9064e-15
-4.43211e-15
-3.96418e-15
-4.49524e-15
-4.02412e-15
-4.56008e-15
-4.09018e-15
-4.61813e-15
-4.179e-15
-4.6774e-15
-4.27386e-15
-4.73746e-15
-4.34108e-15
-4.82347e-15
-4.39723e-15
-4.88503e-15
-4.4586e-15
-4.95593e-15
-4.54174e-15
-5.02755e-15
-4.62953e-15
-5.09125e-15
-4.68788e-15
-5.1555e-15
-4.75024e-15
-5.21173e-15
-4.83309e-15
-5.26808e-15
-4.9022e-15
-5.34134e-15
-4.96583e-15
-5.41462e-15
-5.06593e-15
-5.49611e-15
-5.16845e-15
-5.56851e-15
-5.23931e-15
-5.62325e-15
-5.31213e-15
-5.68545e-15
-5.36954e-15
-5.74654e-15
-5.4448e-15
-5.81486e-15
-5.53745e-15
-5.88158e-15
-5.6049e-15
-5.94658e-15
-5.68061e-15
-6.00961e-15
-5.77259e-15
-6.07019e-15
-5.84664e-15
-6.14489e-15
-5.91078e-15
-6.22552e-15
-5.97272e-15
-6.29553e-15
-6.05705e-15
-6.3803e-15
-6.1464e-15
-6.46284e-15
-6.24035e-15
-6.52628e-15
-6.32174e-15
-6.5788e-15
-6.35692e-15
-6.63769e-15
-6.41211e-15
-6.68657e-15
-6.46973e-15
-6.72507e-15
-6.54557e-15
-6.73513e-15
-6.63928e-15
-6.78094e-15
-6.68495e-15
-6.86194e-15
-6.69812e-15
-6.86322e-15
-6.7426e-15
-6.93255e-15
-6.78561e-15
-7.00391e-15
-6.84194e-15
-7.078e-15
-6.91007e-15
-7.15522e-15
-6.9882e-15
-7.21928e-15
-7.05893e-15
-7.26973e-15
-7.15458e-15
-7.3211e-15
-7.21099e-15
-7.37266e-15
-7.29322e-15
-7.43914e-15
-7.32017e-15
-7.48969e-15
-7.35454e-15
-7.54015e-15
-7.39554e-15
-7.62246e-15
-7.44156e-15
-7.69008e-15
-7.47487e-15
-7.74476e-15
-7.5244e-15
-7.81842e-15
-7.60393e-15
-7.87902e-15
-7.63431e-15
-7.91294e-15
-7.73917e-15
-7.98007e-15
-7.82661e-15
-8.00033e-15
-7.8968e-15
-8.06424e-15
-7.96836e-15
-8.07761e-15
-8.05671e-15
-8.15967e-15
-8.10297e-15
-8.20541e-15
-8.13573e-15
-8.24652e-15
-8.1852e-15
-8.25232e-15
-8.28233e-15
-8.30668e-15
-8.35865e-15
-8.30026e-15
-8.35635e-15
-8.29316e-15
-8.30564e-15
-8.25697e-15
-8.29021e-15
-8.21619e-15
-8.30907e-15
-8.28468e-15
-8.27828e-15
-8.2943e-15
-8.25052e-15
-8.22035e-15
-8.24981e-15
-8.22912e-15
-8.19419e-15
-8.18489e-15
-8.1058e-15
-8.14696e-15
-8.09242e-15
-8.081e-15
-8.09805e-15
-8.06414e-15
-8.10244e-15
-8.04052e-15
-8.1094e-15
-8.00703e-15
-8.09438e-15
-8.01558e-15
-8.06004e-15
-7.95728e-15
-8.11263e-15
-7.98024e-15
-8.16062e-15
-7.94648e-15
-8.10178e-15
-7.91326e-15
-8.01675e-15
-7.94002e-15
-7.97555e-15
-7.90062e-15
-7.93987e-15
-7.92469e-15
-7.93427e-15
-7.89242e-15
-7.85284e-15
-7.86225e-15
-7.79441e-15
-7.88633e-15
-7.81056e-15
-7.81762e-15
-7.7773e-15
-7.70094e-15
-7.67842e-15
-7.6307e-15
-7.61791e-15
-7.60504e-15
-7.59384e-15
-7.55276e-15
-7.53227e-15
-7.47011e-15
-7.45443e-15
-7.38334e-15
-7.38607e-15
-7.31428e-15
-7.3548e-15
-7.25225e-15
-7.25332e-15
-7.17815e-15
-7.14226e-15
-7.10596e-15
-7.10293e-15
-7.08079e-15
-7.05266e-15
-7.05575e-15
-7.06645e-15
-6.9261e-15
-6.98279e-15
-6.92334e-15
-6.91842e-15
-6.92668e-15
-6.90243e-15
-6.9442e-15
-6.87832e-15
-6.88348e-15
-6.83601e-15
-6.8607e-15
-6.80521e-15
-6.80356e-15
-6.78634e-15
-6.79417e-15
-6.76378e-15
-6.78782e-15
-6.73409e-15
-6.74188e-15
-6.71772e-15
-6.69977e-15
-6.69681e-15
-6.63998e-15
-6.6277e-15
-6.58364e-15
-6.5566e-15
-6.55848e-15
-6.52798e-15
-6.56561e-15
-6.54195e-15
-6.52605e-15
-6.49878e-15
-6.46427e-15
-6.47686e-15
-6.45322e-15
-6.48169e-15
-6.43787e-15
-6.48561e-15
-6.43865e-15
-6.48871e-15
-6.42938e-15
-6.49286e-15
-6.46648e-15
-6.52797e-15
-6.49647e-15
-6.51495e-15
-6.49595e-15
-6.50339e-15
-6.49509e-15
-6.49138e-15
-6.52323e-15
-6.4768e-15
-6.5866e-15
-6.48252e-15
-6.60823e-15
-6.53142e-15
-6.58477e-15
-6.54264e-15
-6.56908e-15
-6.49167e-15
-6.53704e-15
-6.46245e-15
-6.54357e-15
-6.42546e-15
-6.56145e-15
-6.43661e-15
-6.53398e-15
-6.43765e-15
-6.48528e-15
-6.43284e-15
-6.47047e-15
-6.39739e-15
-6.49307e-15
-6.36098e-15
-6.43509e-15
-6.34949e-15
-6.39775e-15
-6.30635e-15
-6.39697e-15
-6.32271e-15
-6.38543e-15
-6.30734e-15
-6.34823e-15
-6.27303e-15
-6.33212e-15
-6.28157e-15
-6.35163e-15
-6.25685e-15
-6.33198e-15
-6.27211e-15
-6.30143e-15
-6.25159e-15
-6.30533e-15
-6.24481e-15
-6.29613e-15
-6.25153e-15
-6.27195e-15
-6.24091e-15
-6.26376e-15
-6.23082e-15
-6.2716e-15
-6.22056e-15
-6.27989e-15
-6.20933e-15
-6.25722e-15
-6.22818e-15
-6.26601e-15
-6.26297e-15
-6.27372e-15
-6.23435e-15
-6.24962e-15
-6.1568e-15
-6.26013e-15
-6.14195e-15
-6.25758e-15
-6.18898e-15
-6.2569e-15
-6.23454e-15
-6.25658e-15
-6.24754e-15
-6.25638e-15
-6.21193e-15
-6.25718e-15
-6.19233e-15
-6.24275e-15
-6.18819e-15
-6.24625e-15
-6.1834e-15
-6.25104e-15
-6.14418e-15
-6.25791e-15
-6.11934e-15
-6.25075e-15
-6.1251e-15
-6.24578e-15
-6.12848e-15
-6.2426e-15
-6.16316e-15
-6.29087e-15
-6.17977e-15
-6.3244e-15
-6.19434e-15
-6.31839e-15
-6.17265e-15
-6.32355e-15
-6.18166e-15
-6.33969e-15
-6.20495e-15
-6.34969e-15
-6.22599e-15
-6.35324e-15
-6.22803e-15
-6.35871e-15
-6.25335e-15
-6.36561e-15
-6.31087e-15
-6.38148e-15
-6.31672e-15
-6.39804e-15
-6.30492e-15
-6.39869e-15
-6.30922e-15
-6.40878e-15
-6.32119e-15
-6.4197e-15
-6.34079e-15
-6.41431e-15
-6.36813e-15
-6.40903e-15
-6.37807e-15
-6.40357e-15
-6.37939e-15
-6.40635e-15
-6.38074e-15
-6.42586e-15
-6.39063e-15
-6.41963e-15
-6.40055e-15
-6.4385e-15
-6.4022e-15
-6.4657e-15
-6.37842e-15
-6.48483e-15
-6.37108e-15
-6.50469e-15
-6.38834e-15
-6.52541e-15
-6.37931e-15
-6.53032e-15
-6.37762e-15
-6.53641e-15
-6.38322e-15
-6.54362e-15
-6.38766e-15
-6.5436e-15
-6.39094e-15
-6.56154e-15
-6.39311e-15
-6.57228e-15
-6.41093e-15
-6.5758e-15
-6.41925e-15
-6.58041e-15
-6.4266e-15
-6.59022e-15
-6.42885e-15
-6.59689e-15
-6.43016e-15
-6.59211e-15
-6.43887e-15
-6.60488e-15
-6.44681e-15
-6.61856e-15
-6.45396e-15
-6.62907e-15
-6.45204e-15
-6.64056e-15
-6.45756e-15
-6.64892e-15
-6.46222e-15
-6.65006e-15
-6.46193e-15
-6.64807e-15
-6.46902e-15
-6.65106e-15
-6.47129e-15
-6.65083e-15
-6.47286e-15
-6.64738e-15
-6.48593e-15
-6.64064e-15
-6.49033e-15
-6.63457e-15
-6.49024e-15
-6.63313e-15
-6.48172e-15
-6.6363e-15
-6.4648e-15
-6.63617e-15
-6.45937e-15
-6.64067e-15
-6.44949e-15
-6.6498e-15
-6.43909e-15
-6.64004e-15
-6.42424e-15
-6.63886e-15
-6.39717e-15
-6.63846e-15
-6.39287e-15
-6.63883e-15
-6.3918e-15
-6.63223e-15
-6.38623e-15
-6.62256e-15
-6.36859e-15
-6.61743e-15
-6.36183e-15
-6.61299e-15
-6.35826e-15
-6.60922e-15
-6.35409e-15
-6.59859e-15
-6.34186e-15
-6.58861e-15
-6.33655e-15
-6.58293e-15
-6.33625e-15
-6.57229e-15
-6.33357e-15
-6.56401e-15
-6.32311e-15
-6.55986e-15
-6.3104e-15
-6.5472e-15
-6.30987e-15
-6.53862e-15
-6.31066e-15
-6.53047e-15
-6.31101e-15
-6.52095e-15
-6.30568e-15
-6.51183e-15
-6.30525e-15
-6.51001e-15
-6.30273e-15
-6.50676e-15
-6.30162e-15
-6.50381e-15
-6.30019e-15
-6.50113e-15
-6.29846e-15
-6.49872e-15
-6.29646e-15
-6.49989e-15
-6.29585e-15
-6.49632e-15
-6.29333e-15
-6.493e-15
-6.29059e-15
-6.49314e-15
-6.29409e-15
-6.49186e-15
-6.29733e-15
-6.49236e-15
-6.30034e-15
-6.49458e-15
-6.29998e-15
-6.49539e-15
-6.29633e-15
-6.49789e-15
-6.29406e-15
-6.50051e-15
-6.29469e-15
-6.50175e-15
-6.29363e-15
-6.50313e-15
-6.29241e-15
-6.50464e-15
-6.29105e-15
-6.50555e-15
-6.28954e-15
-6.5073e-15
-6.28791e-15
-6.50704e-15
-6.28685e-15
-6.50621e-15
-6.28637e-15
-6.50552e-15
-6.28714e-15
-6.50565e-15
-6.28914e-15
-6.50656e-15
-6.2883e-15
-6.50691e-15
-6.28601e-15
-6.50605e-15
-6.28364e-15
-6.50531e-15
-6.28249e-15
-6.50532e-15
-6.28252e-15
-6.5048e-15
-6.28245e-15
-6.50377e-15
-6.28166e-15
-6.50284e-15
-6.27955e-15
-6.50262e-15
-6.27678e-15
-6.50189e-15
-6.27634e-15
-6.50185e-15
-6.2764e-15
-6.50247e-15
-6.2758e-15
-6.50146e-15
-6.27626e-15
-6.49997e-15
-6.27608e-15
-6.49858e-15
-6.27748e-15
-6.49728e-15
-6.27932e-15
-6.49607e-15
-6.27893e-15
-6.49521e-15
-6.27768e-15
-6.49415e-15
-6.27743e-15
-6.49318e-15
-6.27737e-15
-6.49227e-15
-6.27625e-15
-6.49143e-15
-6.27508e-15
-6.49017e-15
-6.27559e-15
-6.48921e-15
-6.27629e-15
-6.48855e-15
-6.2762e-15
-6.48724e-15
-6.27606e-15
-6.48575e-15
-6.27635e-15
-6.48455e-15
-6.27659e-15
-6.48386e-15
-6.27655e-15
-6.48368e-15
-6.2767e-15
-6.48286e-15
-6.27681e-15
-6.4823e-15
-6.27688e-15
-6.48178e-15
-6.27668e-15
-6.48107e-15
-6.27689e-15
-6.48063e-15
-6.27774e-15
-6.48032e-15
-6.27811e-15
-6.47993e-15
-6.27778e-15
-6.47946e-15
-6.27753e-15
-6.47924e-15
-6.2778e-15
-6.47928e-15
-6.2776e-15
-6.47922e-15
-6.27737e-15
-6.47931e-15
-6.27688e-15
-6.47919e-15
-6.27659e-15
-6.4792e-15
-6.27673e-15
-6.47901e-15
-6.27662e-15
-6.47896e-15
-6.27613e-15
-6.47893e-15
-6.27573e-15
-6.47903e-15
-6.27554e-15
-6.47916e-15
-6.27533e-15
-6.47932e-15
-6.27528e-15
-6.4793e-15
-6.27534e-15
-6.47917e-15
-6.27538e-15
-6.47952e-15
-6.27527e-15
-6.47969e-15
-6.27514e-15
-6.47981e-15
-6.27513e-15
-6.47994e-15
-6.2751e-15
-6.4801e-15
-6.27491e-15
-6.4802e-15
-6.2747e-15
-6.48025e-15
-6.27462e-15
-6.48031e-15
-6.2746e-15
-6.48042e-15
-6.27452e-15
-6.48051e-15
-6.27451e-15
-6.48061e-15
-6.27444e-15
-6.48069e-15
-6.2744e-15
-6.48074e-15
-6.27442e-15
-6.4808e-15
-6.27436e-15
-6.48083e-15
-6.27428e-15
-6.48087e-15
-6.27431e-15
-6.48097e-15
-6.27425e-15
-6.48105e-15
-6.2742e-15
-6.48104e-15
-6.27416e-15
-6.48108e-15
-6.27416e-15
-6.48112e-15
-6.27412e-15
-6.48116e-15
-6.27405e-15
-6.4812e-15
-6.274e-15
-6.48117e-15
-6.27397e-15
-6.48116e-15
-6.27396e-15
-6.48117e-15
-6.27396e-15
-6.48118e-15
-6.27396e-15
-6.48119e-15
-6.27395e-15
-6.4812e-15
-6.27394e-15
-6.48119e-15
-6.27394e-15
-6.48119e-15
-6.27394e-15
-7.01358e-15
-6.98604e-15
-6.94813e-15
-6.94909e-15
-6.88521e-15
-6.90786e-15
-6.85994e-15
-6.91945e-15
-6.90928e-15
-6.89903e-15
-6.85909e-15
-6.85401e-15
-6.83164e-15
-6.80962e-15
-6.8553e-15
-6.78542e-15
-6.82449e-15
-6.7711e-15
-6.78232e-15
-6.74652e-15
-6.74636e-15
-6.71592e-15
-6.61421e-15
-6.65361e-15
-6.62036e-15
-6.61981e-15
-6.57309e-15
-6.61089e-15
-6.54425e-15
-6.58683e-15
-6.53336e-15
-6.54806e-15
-6.51752e-15
-6.5118e-15
-6.47507e-15
-6.50211e-15
-6.45604e-15
-6.55199e-15
-6.50486e-15
-6.59365e-15
-6.49188e-15
-6.57313e-15
-6.44413e-15
-6.56866e-15
-6.46434e-15
-6.52931e-15
-6.50452e-15
-6.52557e-15
-6.48682e-15
-6.52489e-15
-6.49244e-15
-6.52974e-15
-6.49388e-15
-6.54078e-15
-6.48887e-15
-6.56018e-15
-6.50047e-15
-6.56204e-15
-6.50087e-15
-6.54244e-15
-6.43511e-15
-6.49745e-15
-6.47456e-15
-6.48744e-15
-6.51038e-15
-6.45009e-15
-6.4611e-15
-6.43815e-15
-6.49881e-15
-6.39454e-15
-6.48354e-15
-6.34086e-15
-6.41858e-15
-6.27269e-15
-6.45286e-15
-6.24966e-15
-6.43923e-15
-6.20842e-15
-6.39533e-15
-6.17728e-15
-6.39604e-15
-6.20447e-15
-6.36239e-15
-6.26243e-15
-6.3029e-15
-6.25124e-15
-6.27599e-15
-6.25194e-15
-6.24874e-15
-6.32868e-15
-6.2614e-15
-6.31775e-15
-6.28513e-15
-6.23204e-15
-6.31119e-15
-6.222e-15
-6.34181e-15
-6.22296e-15
-6.33127e-15
-6.15393e-15
-6.32997e-15
-6.17081e-15
-6.35303e-15
-6.16351e-15
-6.35352e-15
-6.17935e-15
-6.36246e-15
-6.18766e-15
-6.33156e-15
-6.17224e-15
-6.3077e-15
-6.14915e-15
-6.32273e-15
-6.11877e-15
-6.297e-15
-6.1297e-15
-6.27739e-15
-6.15129e-15
-6.27855e-15
-6.16829e-15
-6.26696e-15
-6.1644e-15
-6.2751e-15
-6.1562e-15
-6.28694e-15
-6.14376e-15
-6.25333e-15
-6.12666e-15
-6.27313e-15
-6.13863e-15
-6.29677e-15
-6.11322e-15
-6.30886e-15
-6.08282e-15
-6.31022e-15
-6.08004e-15
-6.31756e-15
-6.10501e-15
-6.3136e-15
-6.12504e-15
-6.31443e-15
-6.15751e-15
-6.31874e-15
-6.18657e-15
-6.32561e-15
-6.20453e-15
-6.33488e-15
-6.18668e-15
-6.34699e-15
-6.19152e-15
-6.36194e-15
-6.21891e-15
-6.37098e-15
-6.24381e-15
-6.39075e-15
-6.26676e-15
-6.41277e-15
-6.29637e-15
-6.41994e-15
-6.2731e-15
-6.42957e-15
-6.24733e-15
-6.44201e-15
-6.25259e-15
-6.45736e-15
-6.2804e-15
-6.46684e-15
-6.30561e-15
-6.4872e-15
-6.33706e-15
-6.50133e-15
-6.33242e-15
-6.50097e-15
-6.32552e-15
-6.51167e-15
-6.32483e-15
-6.53351e-15
-6.31327e-15
-6.54122e-15
-6.316e-15
-6.54334e-15
-6.31599e-15
-6.5482e-15
-6.32184e-15
-6.5471e-15
-6.33376e-15
-6.53974e-15
-6.34356e-15
-6.54274e-15
-6.35991e-15
-6.54736e-15
-6.35767e-15
-6.5536e-15
-6.37073e-15
-6.53597e-15
-6.38228e-15
-6.54483e-15
-6.3842e-15
-6.54642e-15
-6.39334e-15
-6.54063e-15
-6.40139e-15
-6.55247e-15
-6.40005e-15
-6.56522e-15
-6.40604e-15
-6.56216e-15
-6.41513e-15
-6.56827e-15
-6.41075e-15
-6.57519e-15
-6.40123e-15
-6.57473e-15
-6.41558e-15
-6.56674e-15
-6.42067e-15
-6.5801e-15
-6.42488e-15
-6.58995e-15
-6.43649e-15
-6.59217e-15
-6.44315e-15
-6.59495e-15
-6.44495e-15
-6.59827e-15
-6.44194e-15
-6.59807e-15
-6.43819e-15
-6.59844e-15
-6.44185e-15
-6.59528e-15
-6.44076e-15
-6.59667e-15
-6.43494e-15
-6.58651e-15
-6.43647e-15
-6.58486e-15
-6.42935e-15
-6.57569e-15
-6.42561e-15
-6.56696e-15
-6.42927e-15
-6.56651e-15
-6.42054e-15
-6.56641e-15
-6.40347e-15
-6.56667e-15
-6.39379e-15
-6.56733e-15
-6.39141e-15
-6.56449e-15
-6.39631e-15
-6.55815e-15
-6.40075e-15
-6.55598e-15
-6.39707e-15
-6.55796e-15
-6.3892e-15
-6.55645e-15
-6.39241e-15
-6.55148e-15
-6.40283e-15
-6.55432e-15
-6.40538e-15
-6.54993e-15
-6.40017e-15
-6.54768e-15
-6.40218e-15
-6.54384e-15
-6.40395e-15
-6.54577e-15
-6.4055e-15
-6.53698e-15
-6.40138e-15
-6.52484e-15
-6.40254e-15
-6.52916e-15
-6.40357e-15
-6.53186e-15
-6.39553e-15
-6.52588e-15
-6.38917e-15
-6.52016e-15
-6.38798e-15
-6.51817e-15
-6.38667e-15
-6.51985e-15
-6.38178e-15
-6.51656e-15
-6.3785e-15
-6.51348e-15
-6.37683e-15
-6.51399e-15
-6.36997e-15
-6.51637e-15
-6.36303e-15
-6.51891e-15
-6.35934e-15
-6.52163e-15
-6.34894e-15
-6.52289e-15
-6.34011e-15
-6.52597e-15
-6.33443e-15
-6.53244e-15
-6.33024e-15
-6.53271e-15
-6.32589e-15
-6.53477e-15
-6.32141e-15
-6.53703e-15
-6.31679e-15
-6.53947e-15
-6.31049e-15
-6.53906e-15
-6.30712e-15
-6.54036e-15
-6.30209e-15
-6.54334e-15
-6.29396e-15
-6.54502e-15
-6.28867e-15
-6.54543e-15
-6.28398e-15
-6.54244e-15
-6.28132e-15
-6.54323e-15
-6.27921e-15
-6.54489e-15
-6.27556e-15
-6.54602e-15
-6.27177e-15
-6.54459e-15
-6.2706e-15
-6.54469e-15
-6.26995e-15
-6.54429e-15
-6.26649e-15
-6.54275e-15
-6.2662e-15
-6.54138e-15
-6.26576e-15
-6.53954e-15
-6.26583e-15
-6.53723e-15
-6.26449e-15
-6.53634e-15
-6.26242e-15
-6.53498e-15
-6.26209e-15
-6.53316e-15
-6.26104e-15
-6.53149e-15
-6.26108e-15
-6.52995e-15
-6.26217e-15
-6.52856e-15
-6.26545e-15
-6.52671e-15
-6.26631e-15
-6.52499e-15
-6.26706e-15
-6.52284e-15
-6.26936e-15
-6.52027e-15
-6.27263e-15
-6.51836e-15
-6.27363e-15
-6.51734e-15
-6.27426e-15
-6.51746e-15
-6.27482e-15
-6.51611e-15
-6.27581e-15
-6.51485e-15
-6.27697e-15
-6.51342e-15
-6.27806e-15
-6.51208e-15
-6.27956e-15
-6.51082e-15
-6.28025e-15
-6.50939e-15
-6.28112e-15
-6.5085e-15
-6.28217e-15
-6.50721e-15
-6.28362e-15
-6.50575e-15
-6.28455e-15
-6.50458e-15
-6.28496e-15
-6.50347e-15
-6.28555e-15
-6.50241e-15
-6.28633e-15
-6.50095e-15
-6.28706e-15
-6.49954e-15
-6.28752e-15
-6.49884e-15
-6.28772e-15
-6.49795e-15
-6.28834e-15
-6.49699e-15
-6.28959e-15
-6.49573e-15
-6.29092e-15
-6.4945e-15
-6.292e-15
-6.49419e-15
-6.29271e-15
-6.49324e-15
-6.2933e-15
-6.49253e-15
-6.29408e-15
-6.49185e-15
-6.29496e-15
-6.49072e-15
-6.29571e-15
-6.48962e-15
-6.29621e-15
-6.48875e-15
-6.29681e-15
-6.48814e-15
-6.29763e-15
-6.48742e-15
-6.29833e-15
-6.48658e-15
-6.29902e-15
-6.48601e-15
-6.29932e-15
-6.4855e-15
-6.29956e-15
-6.48475e-15
-6.2999e-15
-6.48414e-15
-6.30037e-15
-6.48386e-15
-6.30083e-15
-6.48346e-15
-6.30122e-15
-6.48306e-15
-6.30159e-15
-6.48268e-15
-6.30183e-15
-6.48229e-15
-6.30205e-15
-6.48206e-15
-6.30227e-15
-6.48191e-15
-6.30241e-15
-6.48162e-15
-6.30268e-15
-6.48138e-15
-6.3028e-15
-6.48122e-15
-6.3028e-15
-6.4811e-15
-6.30279e-15
-6.48092e-15
-6.30293e-15
-6.4807e-15
-6.30297e-15
-6.48061e-15
-6.30293e-15
-6.48053e-15
-6.30305e-15
-6.48028e-15
-6.30325e-15
-6.48012e-15
-6.30331e-15
-6.48008e-15
-6.30334e-15
-6.48003e-15
-6.30341e-15
-6.47996e-15
-6.30348e-15
-6.47996e-15
-6.30352e-15
-6.47993e-15
-6.30352e-15
-6.4799e-15
-6.30353e-15
-6.47986e-15
-6.30357e-15
-6.47983e-15
-6.30357e-15
-6.47983e-15
-6.30358e-15
-6.47984e-15
-6.3036e-15
-6.47983e-15
-6.30362e-15
-6.4798e-15
-6.30363e-15
-6.47979e-15
-6.30364e-15
-6.4798e-15
-6.30364e-15
)
;

boundaryField
{
    walls
    {
        type            zeroGradient;
    }
    inlet
    {
        type            cyclic;
    }
    outlet
    {
        type            cyclic;
    }
    sides
    {
        type            empty;
    }
}


// ************************************************************************* //
