/*--------------------------------*- C++ -*----------------------------------*\
| =========                 |                                                 |
| \\      /  F ield         | OpenFOAM: The Open Source CFD Toolbox           |
|  \\    /   O peration     | Version:  2106                                  |
|   \\  /    A nd           | Website:  www.openfoam.com                      |
|    \\/     M anipulation  |                                                 |
\*---------------------------------------------------------------------------*/
FoamFile
{
    version     2.0;
    format      ascii;
    arch        "LSB;label=32;scalar=64";
    class       volSymmTensorField;
    location    "10000";
    object      turbulenceProperties:R;
}
// * * * * * * * * * * * * * * * * * * * * * * * * * * * * * * * * * * * * * //

dimensions      [0 2 -2 0 0 0 0];

internalField   nonuniform List<symmTensor> 
2000
(
(1.0537e-07 -2.7792e-12 -5.14378e-15 1.0537e-07 -1.56007e-27 1.0537e-07)
(1.0537e-07 -2.7792e-12 -5.14378e-15 1.0537e-07 6.76365e-29 1.0537e-07)
(1.69516e-08 -2.5756e-12 -1.43908e-14 1.69516e-08 -3.75647e-27 1.69516e-08)
(1.69516e-08 -2.5756e-12 -1.43908e-14 1.69516e-08 5.78649e-28 1.69516e-08)
(1.5629e-08 -7.03095e-12 -5.45069e-14 1.5629e-08 3.58103e-42 1.5629e-08)
(1.5629e-08 -7.03095e-12 -5.45069e-14 1.5629e-08 -1.35958e-28 1.5629e-08)
(4.29524e-08 -4.11429e-11 -3.2491e-13 4.29524e-08 4.33626e-26 4.29524e-08)
(4.29524e-08 -4.11429e-11 -3.2491e-13 4.29524e-08 -9.03966e-27 4.29524e-08)
(1.09178e-07 -1.85278e-10 -1.49047e-12 1.09178e-07 1.79093e-26 1.09178e-07)
(1.09178e-07 -1.85278e-10 -1.49047e-12 1.09178e-07 5.19519e-29 1.09178e-07)
(2.33785e-07 -6.27312e-10 -5.14061e-12 2.33785e-07 1.0238e-26 2.33785e-07)
(2.33785e-07 -6.27312e-10 -5.14061e-12 2.33785e-07 1.5537e-28 2.33785e-07)
(4.41005e-07 -1.73373e-09 -1.44725e-11 4.41005e-07 -5.98379e-25 4.41005e-07)
(4.41005e-07 -1.73373e-09 -1.44725e-11 4.41005e-07 4.24495e-28 4.41005e-07)
(7.59332e-07 -4.14262e-09 -3.52264e-11 7.59332e-07 -1.693e-24 7.59332e-07)
(7.59332e-07 -4.14262e-09 -3.52264e-11 7.59332e-07 1.27784e-27 7.59332e-07)
(1.22163e-06 -8.88243e-09 -7.69408e-11 1.22163e-06 -3.71805e-24 1.22163e-06)
(1.22163e-06 -8.88243e-09 -7.69408e-11 1.22163e-06 2.86351e-27 1.22163e-06)
(1.8654e-06 -1.75209e-08 -1.54601e-10 1.8654e-06 -7.52138e-24 1.8654e-06)
(1.8654e-06 -1.75209e-08 -1.54601e-10 1.8654e-06 8.57249e-27 1.8654e-06)
(2.7331e-06 -3.23492e-08 -2.9077e-10 2.7331e-06 -1.42472e-23 2.7331e-06)
(2.7331e-06 -3.23492e-08 -2.9077e-10 2.7331e-06 1.82243e-26 2.7331e-06)
(3.87254e-06 -5.66072e-08 -5.18308e-10 3.87254e-06 -2.55632e-23 3.87254e-06)
(3.87254e-06 -5.66072e-08 -5.18308e-10 3.87254e-06 2.74914e-26 3.87254e-06)
(5.33729e-06 -9.47563e-08 -8.83802e-10 5.33729e-06 -4.38534e-23 5.33729e-06)
(5.33729e-06 -9.47563e-08 -8.83802e-10 5.33729e-06 5.82744e-26 5.33729e-06)
(7.18713e-06 -1.52807e-07 -1.45184e-09 7.18713e-06 -7.2452e-23 7.18713e-06)
(7.18713e-06 -1.52807e-07 -1.45184e-09 7.18713e-06 1.10517e-25 7.18713e-06)
(9.4885e-06 -2.38706e-07 -2.3103e-09 9.4885e-06 -1.1586e-22 9.4885e-06)
(9.4885e-06 -2.38706e-07 -2.3103e-09 9.4885e-06 1.83056e-25 9.4885e-06)
(1.2315e-05 -3.62798e-07 -3.57684e-09 1.2315e-05 -1.80155e-22 1.2315e-05)
(1.2315e-05 -3.62798e-07 -3.57684e-09 1.2315e-05 3.62271e-25 1.2315e-05)
(1.57481e-05 -5.38363e-07 -5.40675e-09 1.57481e-05 -2.73556e-22 1.57481e-05)
(1.57481e-05 -5.38363e-07 -5.40675e-09 1.57481e-05 5.35553e-25 1.57481e-05)
(1.98772e-05 -7.82233e-07 -8.00246e-09 1.98772e-05 -4.06646e-22 1.98772e-05)
(1.98772e-05 -7.82233e-07 -8.00246e-09 1.98772e-05 7.23513e-25 1.98772e-05)
(2.48008e-05 -1.11551e-06 -1.16248e-08 2.48008e-05 -5.93201e-22 2.48008e-05)
(2.48008e-05 -1.11551e-06 -1.16248e-08 2.48008e-05 1.63616e-24 2.48008e-05)
(3.06266e-05 -1.5644e-06 -1.66066e-08 3.06266e-05 -8.50626e-22 3.06266e-05)
(3.06266e-05 -1.5644e-06 -1.66066e-08 3.06266e-05 2.16778e-24 3.06266e-05)
(3.74722e-05 -2.16108e-06 -2.33682e-08 3.74722e-05 -1.20088e-21 3.74722e-05)
(3.74722e-05 -2.16108e-06 -2.33682e-08 3.74722e-05 2.22714e-24 3.74722e-05)
(4.54656e-05 -2.94475e-06 -3.24355e-08 4.54656e-05 -1.67174e-21 4.54656e-05)
(4.54656e-05 -2.94475e-06 -3.24355e-08 4.54656e-05 3.75932e-24 4.54656e-05)
(5.47457e-05 -3.96277e-06 -4.44616e-08 5.47457e-05 -2.29663e-21 5.47457e-05)
(5.47457e-05 -3.96277e-06 -4.44616e-08 5.47457e-05 5.13941e-24 5.47457e-05)
(6.54626e-05 -5.27178e-06 -6.02496e-08 6.54626e-05 -3.11793e-21 6.54626e-05)
(6.54626e-05 -5.27178e-06 -6.02496e-08 6.54626e-05 7.41808e-24 6.54626e-05)
(7.77782e-05 -6.93905e-06 -8.07797e-08 7.77782e-05 -4.18774e-21 7.77782e-05)
(7.77782e-05 -6.93905e-06 -8.07797e-08 7.77782e-05 1.49418e-23 7.77782e-05)
(9.18657e-05 -9.0437e-06 -1.07238e-07 9.18657e-05 -5.34211e-21 9.18657e-05)
(9.18657e-05 -9.0437e-06 -1.07238e-07 9.18657e-05 2.06465e-23 9.18657e-05)
(0.000107911 -1.1678e-05 -1.41048e-07 0.000107911 -6.14011e-21 0.000107911)
(0.000107911 -1.1678e-05 -1.41048e-07 0.000107911 1.95846e-23 0.000107911)
(0.000126109 -1.49487e-05 -1.83902e-07 0.000126109 -7.22625e-21 0.000126109)
(0.000126109 -1.49487e-05 -1.83902e-07 0.000126109 3.32099e-23 0.000126109)
(0.00014667 -1.89778e-05 -2.37797e-07 0.00014667 -9.29684e-21 0.00014667)
(0.00014667 -1.89778e-05 -2.37797e-07 0.00014667 5.66316e-23 0.00014667)
(0.00016981 -2.39037e-05 -3.05066e-07 0.00016981 -1.18173e-20 0.00016981)
(0.00016981 -2.39037e-05 -3.05066e-07 0.00016981 7.09211e-23 0.00016981)
(0.000195757 -2.98814e-05 -3.88406e-07 0.000195757 -1.49078e-20 0.000195757)
(0.000195757 -2.98814e-05 -3.88406e-07 0.000195757 8.20505e-23 0.000195757)
(0.000224744 -3.70825e-05 -4.90906e-07 0.000224744 -1.86604e-20 0.000224744)
(0.000224744 -3.70825e-05 -4.90906e-07 0.000224744 1.02828e-22 0.000224744)
(0.00025701 -4.56945e-05 -6.16064e-07 0.00025701 -2.31115e-20 0.00025701)
(0.00025701 -4.56945e-05 -6.16064e-07 0.00025701 1.69191e-22 0.00025701)
(0.000292797 -5.59198e-05 -7.67793e-07 0.000292797 -2.83839e-20 0.000292797)
(0.000292797 -5.59198e-05 -7.67793e-07 0.000292797 2.09064e-22 0.000292797)
(0.000332345 -6.79724e-05 -9.50414e-07 0.000332345 -3.45762e-20 0.000332345)
(0.000332345 -6.79724e-05 -9.50414e-07 0.000332345 2.37985e-22 0.000332345)
(0.000375888 -8.20753e-05 -1.16863e-06 0.000375888 -4.16889e-20 0.000375888)
(0.000375888 -8.20753e-05 -1.16863e-06 0.000375888 3.36979e-22 0.000375888)
(0.00042365 -9.84561e-05 -1.4275e-06 0.00042365 -4.9833e-20 0.00042365)
(0.00042365 -9.84561e-05 -1.4275e-06 0.00042365 3.57629e-22 0.00042365)
(0.000475842 -0.000117341 -1.73234e-06 0.000475842 -5.9006e-20 0.000475842)
(0.000475842 -0.000117341 -1.73234e-06 0.000475842 5.88483e-22 0.000475842)
(0.000532652 -0.000138948 -2.08866e-06 0.000532652 -6.92246e-20 0.000532652)
(0.000532652 -0.000138948 -2.08866e-06 0.000532652 7.45185e-22 0.000532652)
(0.000594241 -0.00016348 -2.50205e-06 0.000594241 -8.05587e-20 0.000594241)
(0.000594241 -0.00016348 -2.50205e-06 0.000594241 5.7632e-22 0.000594241)
(0.000660739 -0.000191119 -2.97806e-06 0.000660739 -9.21592e-20 0.000660739)
(0.000660739 -0.000191119 -2.97806e-06 0.000660739 5.64393e-22 0.000660739)
(0.000732236 -0.000222013 -3.52202e-06 0.000732236 -1.0427e-19 0.000732236)
(0.000732236 -0.000222013 -3.52202e-06 0.000732236 1.07847e-21 0.000732236)
(0.000808777 -0.000256274 -4.13891e-06 0.000808777 -1.1771e-19 0.000808777)
(0.000808777 -0.000256274 -4.13891e-06 0.000808777 2.13393e-21 0.000808777)
(0.000890359 -0.000293968 -4.83323e-06 0.000890359 -1.31674e-19 0.000890359)
(0.000890359 -0.000293968 -4.83323e-06 0.000890359 2.05327e-21 0.000890359)
(0.000976927 -0.000335109 -5.60879e-06 0.000976927 -1.45283e-19 0.000976927)
(0.000976927 -0.000335109 -5.60879e-06 0.000976927 2.28503e-21 0.000976927)
(0.00106837 -0.000379656 -6.46864e-06 0.00106837 -1.58107e-19 0.00106837)
(0.00106837 -0.000379656 -6.46864e-06 0.00106837 1.89896e-21 0.00106837)
(0.00116452 -0.000427515 -7.41496e-06 0.00116452 -1.70573e-19 0.00116452)
(0.00116452 -0.000427515 -7.41496e-06 0.00116452 3.70951e-22 0.00116452)
(0.00126516 -0.000478533 -8.44895e-06 0.00126516 -1.82356e-19 0.00126516)
(0.00126516 -0.000478533 -8.44895e-06 0.00126516 -1.89993e-22 0.00126516)
(0.00137001 -0.000532507 -9.57087e-06 0.00137001 -1.94166e-19 0.00137001)
(0.00137001 -0.000532507 -9.57087e-06 0.00137001 9.64249e-22 0.00137001)
(0.00147874 -0.000589185 -1.078e-05 0.00147874 -2.02031e-19 0.00147874)
(0.00147874 -0.000589185 -1.078e-05 0.00147874 -1.68889e-23 0.00147874)
(0.00159101 -0.000648277 -1.20747e-05 0.00159101 -2.09653e-19 0.00159101)
(0.00159101 -0.000648277 -1.20747e-05 0.00159101 -2.09475e-21 0.00159101)
(0.0017064 -0.00070946 -1.34524e-05 0.0017064 -2.17387e-19 0.0017064)
(0.0017064 -0.00070946 -1.34524e-05 0.0017064 -4.31438e-21 0.0017064)
(0.00182448 -0.00077239 -1.491e-05 0.00182448 -2.20881e-19 0.00182448)
(0.00182448 -0.00077239 -1.491e-05 0.00182448 -4.23189e-21 0.00182448)
(0.00194482 -0.000836709 -1.64438e-05 0.00194482 -2.27226e-19 0.00194482)
(0.00194482 -0.000836709 -1.64438e-05 0.00194482 -5.25779e-21 0.00194482)
(0.00206694 -0.000902057 -1.80493e-05 0.00206694 -2.28348e-19 0.00206694)
(0.00206694 -0.000902057 -1.80493e-05 0.00206694 -6.28777e-21 0.00206694)
(0.0021904 -0.000968078 -1.97222e-05 0.0021904 -2.27405e-19 0.0021904)
(0.0021904 -0.000968078 -1.97222e-05 0.0021904 -6.44312e-21 0.0021904)
(0.00231473 -0.00103443 -2.14576e-05 0.00231473 -2.29678e-19 0.00231473)
(0.00231473 -0.00103443 -2.14576e-05 0.00231473 -1.14519e-20 0.00231473)
(0.00243949 -0.00110079 -2.32508e-05 0.00243949 -2.30851e-19 0.00243949)
(0.00243949 -0.00110079 -2.32508e-05 0.00243949 -1.36756e-20 0.00243949)
(0.00256425 -0.00116686 -2.5097e-05 0.00256425 -2.32709e-19 0.00256425)
(0.00256425 -0.00116686 -2.5097e-05 0.00256425 -1.27178e-20 0.00256425)
(0.00268862 -0.00123236 -2.69917e-05 0.00268862 -2.33506e-19 0.00268862)
(0.00268862 -0.00123236 -2.69917e-05 0.00268862 -1.35097e-20 0.00268862)
(0.00281222 -0.00129706 -2.89306e-05 0.00281222 -2.3123e-19 0.00281222)
(0.00281222 -0.00129706 -2.89306e-05 0.00281222 -1.53827e-20 0.00281222)
(0.0029347 -0.00136073 -3.09097e-05 0.0029347 -2.31032e-19 0.0029347)
(0.0029347 -0.00136073 -3.09097e-05 0.0029347 -1.78322e-20 0.0029347)
(0.00305575 -0.0014232 -3.29251e-05 0.00305575 -2.22464e-19 0.00305575)
(0.00305575 -0.0014232 -3.29251e-05 0.00305575 -1.94035e-20 0.00305575)
(0.00317509 -0.00148431 -3.49736e-05 0.00317509 -2.26355e-19 0.00317509)
(0.00317509 -0.00148431 -3.49736e-05 0.00317509 -1.72851e-20 0.00317509)
(0.00329247 -0.00154394 -3.70522e-05 0.00329247 -2.41401e-19 0.00329247)
(0.00329247 -0.00154394 -3.70522e-05 0.00329247 -1.66022e-20 0.00329247)
(0.00340769 -0.00160199 -3.91582e-05 0.00340769 -2.42919e-19 0.00340769)
(0.00340769 -0.00160199 -3.91582e-05 0.00340769 -2.09484e-20 0.00340769)
(0.00352055 -0.00165837 -4.12893e-05 0.00352055 -2.49202e-19 0.00352055)
(0.00352055 -0.00165837 -4.12893e-05 0.00352055 -2.44596e-20 0.00352055)
(0.0036309 -0.00171304 -4.34437e-05 0.0036309 -2.57894e-19 0.0036309)
(0.0036309 -0.00171304 -4.34437e-05 0.0036309 -2.87812e-20 0.0036309)
(0.00373862 -0.00176595 -4.56196e-05 0.00373862 -2.71063e-19 0.00373862)
(0.00373862 -0.00176595 -4.56196e-05 0.00373862 -3.27804e-20 0.00373862)
(0.00384361 -0.00181709 -4.78158e-05 0.00384361 -2.82038e-19 0.00384361)
(0.00384361 -0.00181709 -4.78158e-05 0.00384361 -3.11956e-20 0.00384361)
(0.00394579 -0.00186645 -5.00313e-05 0.00394579 -2.94464e-19 0.00394579)
(0.00394579 -0.00186645 -5.00313e-05 0.00394579 -3.48131e-20 0.00394579)
(0.00404511 -0.00191404 -5.22652e-05 0.00404511 -3.10902e-19 0.00404511)
(0.00404511 -0.00191404 -5.22652e-05 0.00404511 -3.96882e-20 0.00404511)
(0.00414153 -0.00195986 -5.45169e-05 0.00414153 -3.21098e-19 0.00414153)
(0.00414153 -0.00195986 -5.45169e-05 0.00414153 -3.46139e-20 0.00414153)
(0.00423503 -0.00200395 -5.67861e-05 0.00423503 -3.5593e-19 0.00423503)
(0.00423503 -0.00200395 -5.67861e-05 0.00423503 -3.07441e-20 0.00423503)
(0.00432561 -0.00204633 -5.90726e-05 0.00432561 -3.95767e-19 0.00432561)
(0.00432561 -0.00204633 -5.90726e-05 0.00432561 -3.60071e-20 0.00432561)
(0.00441329 -0.00208705 -6.13763e-05 0.00441329 -4.00217e-19 0.00441329)
(0.00441329 -0.00208705 -6.13763e-05 0.00441329 -4.26595e-20 0.00441329)
(0.00449808 -0.00212614 -6.36974e-05 0.00449808 -4.35394e-19 0.00449808)
(0.00449808 -0.00212614 -6.36974e-05 0.00449808 -4.99816e-20 0.00449808)
(0.00458001 -0.00216364 -6.60361e-05 0.00458001 -4.40119e-19 0.00458001)
(0.00458001 -0.00216364 -6.60361e-05 0.00458001 -4.69364e-20 0.00458001)
(0.00465912 -0.00219961 -6.83927e-05 0.00465912 -4.661e-19 0.00465912)
(0.00465912 -0.00219961 -6.83927e-05 0.00465912 -2.06146e-20 0.00465912)
(0.00473547 -0.00223408 -7.07677e-05 0.00473547 -5.53886e-19 0.00473547)
(0.00473547 -0.00223408 -7.07677e-05 0.00473547 -1.70508e-20 0.00473547)
(0.00480909 -0.00226711 -7.31614e-05 0.00480909 -5.91198e-19 0.00480909)
(0.00480909 -0.00226711 -7.31614e-05 0.00480909 -3.29119e-20 0.00480909)
(0.00488005 -0.00229875 -7.55746e-05 0.00488005 -6.03955e-19 0.00488005)
(0.00488005 -0.00229875 -7.55746e-05 0.00488005 -4.12078e-20 0.00488005)
(0.00494841 -0.00232905 -7.80078e-05 0.00494841 -6.15735e-19 0.00494841)
(0.00494841 -0.00232905 -7.80078e-05 0.00494841 -3.30017e-20 0.00494841)
(0.00501423 -0.00235805 -8.04616e-05 0.00501423 -6.95511e-19 0.00501423)
(0.00501423 -0.00235805 -8.04616e-05 0.00501423 1.95973e-21 0.00501423)
(0.00507758 -0.0023858 -8.29368e-05 0.00507758 -7.44365e-19 0.00507758)
(0.00507758 -0.0023858 -8.29368e-05 0.00507758 -8.48207e-21 0.00507758)
(0.00513851 -0.00241234 -8.54341e-05 0.00513851 -7.43643e-19 0.00513851)
(0.00513851 -0.00241234 -8.54341e-05 0.00513851 -3.87815e-20 0.00513851)
(0.0051971 -0.00243773 -8.79543e-05 0.0051971 -8.21945e-19 0.0051971)
(0.0051971 -0.00243773 -8.79543e-05 0.0051971 -2.31804e-20 0.0051971)
(0.00525342 -0.002462 -9.04982e-05 0.00525342 -9.25525e-19 0.00525342)
(0.00525342 -0.002462 -9.04982e-05 0.00525342 -2.142e-20 0.00525342)
(0.00530752 -0.00248521 -9.30665e-05 0.00530752 -9.82326e-19 0.00530752)
(0.00530752 -0.00248521 -9.30665e-05 0.00530752 -4.83237e-20 0.00530752)
(0.00535948 -0.00250738 -9.56602e-05 0.00535948 -1.04097e-18 0.00535948)
(0.00535948 -0.00250738 -9.56602e-05 0.00535948 -2.5501e-20 0.00535948)
(0.00540935 -0.00252857 -9.82799e-05 0.00540935 -1.11586e-18 0.00540935)
(0.00540935 -0.00252857 -9.82799e-05 0.00540935 -1.23124e-20 0.00540935)
(0.00545721 -0.0025488 -0.000100927 0.00545721 -1.14524e-18 0.00545721)
(0.00545721 -0.0025488 -0.000100927 0.00545721 -2.61877e-20 0.00545721)
(0.00550312 -0.00256812 -0.000103601 0.00550312 -1.10494e-18 0.00550312)
(0.00550312 -0.00256812 -0.000103601 0.00550312 5.70261e-20 0.00550312)
(0.00554713 -0.00258656 -0.000106304 0.00554713 -1.13669e-18 0.00554713)
(0.00554713 -0.00258656 -0.000106304 0.00554713 -1.6402e-19 0.00554713)
(0.00558931 -0.00260416 -0.000109037 0.00558931 -1.33227e-18 0.00558931)
(0.00558931 -0.00260416 -0.000109037 0.00558931 -7.44261e-19 0.00558931)
(0.00562972 -0.00262094 -0.0001118 0.00562972 -1.44272e-18 0.00562972)
(0.00562972 -0.00262094 -0.0001118 0.00562972 -1.07313e-18 0.00562972)
(0.0056684 -0.00263694 -0.000114594 0.0056684 -1.48898e-18 0.0056684)
(0.0056684 -0.00263694 -0.000114594 0.0056684 -1.16815e-18 0.0056684)
(0.00570543 -0.00265218 -0.00011742 0.00570543 -1.59375e-18 0.00570543)
(0.00570543 -0.00265218 -0.00011742 0.00570543 -1.2944e-18 0.00570543)
(0.00574084 -0.0026667 -0.000120278 0.00574084 -1.75981e-18 0.00574084)
(0.00574084 -0.0026667 -0.000120278 0.00574084 -1.27002e-18 0.00574084)
(0.00577469 -0.00268052 -0.000123171 0.00577469 -1.78137e-18 0.00577469)
(0.00577469 -0.00268052 -0.000123171 0.00577469 -1.2725e-18 0.00577469)
(0.00580702 -0.00269367 -0.000126098 0.00580702 -1.7307e-18 0.00580702)
(0.00580702 -0.00269367 -0.000126098 0.00580702 -1.32805e-18 0.00580702)
(0.00583789 -0.00270616 -0.00012906 0.00583789 -1.81378e-18 0.00583789)
(0.00583789 -0.00270616 -0.00012906 0.00583789 -1.35265e-18 0.00583789)
(0.00586735 -0.00271803 -0.000132059 0.00586735 -2.0027e-18 0.00586735)
(0.00586735 -0.00271803 -0.000132059 0.00586735 -1.54831e-18 0.00586735)
(0.00589542 -0.00272929 -0.000135094 0.00589542 -2.13252e-18 0.00589542)
(0.00589542 -0.00272929 -0.000135094 0.00589542 -1.60806e-18 0.00589542)
(0.00592216 -0.00273997 -0.000138167 0.00592216 -2.19543e-18 0.00592216)
(0.00592216 -0.00273997 -0.000138167 0.00592216 -1.45723e-18 0.00592216)
(0.00594761 -0.00275009 -0.000141279 0.00594761 -2.15374e-18 0.00594761)
(0.00594761 -0.00275009 -0.000141279 0.00594761 -1.49548e-18 0.00594761)
(0.0059718 -0.00275966 -0.00014443 0.0059718 -2.18023e-18 0.0059718)
(0.0059718 -0.00275966 -0.00014443 0.0059718 -1.67282e-18 0.0059718)
(0.00599478 -0.0027687 -0.000147621 0.00599478 -2.15155e-18 0.00599478)
(0.00599478 -0.0027687 -0.000147621 0.00599478 -1.84958e-18 0.00599478)
(0.00601657 -0.00277722 -0.000150852 0.00601657 -2.55406e-18 0.00601657)
(0.00601657 -0.00277722 -0.000150852 0.00601657 -1.84586e-18 0.00601657)
(0.00603721 -0.00278526 -0.000154126 0.00603721 -2.71511e-18 0.00603721)
(0.00603721 -0.00278526 -0.000154126 0.00603721 -1.77568e-18 0.00603721)
(0.00605673 -0.00279281 -0.000157442 0.00605673 -2.34227e-18 0.00605673)
(0.00605673 -0.00279281 -0.000157442 0.00605673 -1.77059e-18 0.00605673)
(0.00607516 -0.00279989 -0.0001608 0.00607516 -2.61876e-18 0.00607516)
(0.00607516 -0.00279989 -0.0001608 0.00607516 -1.6702e-18 0.00607516)
(0.00609254 -0.00280652 -0.000164203 0.00609254 -2.75869e-18 0.00609254)
(0.00609254 -0.00280652 -0.000164203 0.00609254 -1.70451e-18 0.00609254)
(0.00610889 -0.00281271 -0.00016765 0.00610889 -2.82558e-18 0.00610889)
(0.00610889 -0.00281271 -0.00016765 0.00610889 -1.79465e-18 0.00610889)
(0.00612423 -0.00281846 -0.000171143 0.00612423 -3.04297e-18 0.00612423)
(0.00612423 -0.00281846 -0.000171143 0.00612423 -1.94805e-18 0.00612423)
(0.00613859 -0.00282381 -0.000174681 0.00613859 -3.30754e-18 0.00613859)
(0.00613859 -0.00282381 -0.000174681 0.00613859 -1.69474e-18 0.00613859)
(0.006152 -0.00282874 -0.000178266 0.006152 -3.57294e-18 0.006152)
(0.006152 -0.00282874 -0.000178266 0.006152 -1.66977e-18 0.006152)
(0.00616448 -0.00283328 -0.000181898 0.00616448 -3.24266e-18 0.00616448)
(0.00616448 -0.00283328 -0.000181898 0.00616448 -2.14665e-18 0.00616448)
(0.00617605 -0.00283743 -0.000185578 0.00617605 -3.48032e-18 0.00617605)
(0.00617605 -0.00283743 -0.000185578 0.00617605 -2.28153e-18 0.00617605)
(0.00618674 -0.0028412 -0.000189306 0.00618674 -3.61857e-18 0.00618674)
(0.00618674 -0.0028412 -0.000189306 0.00618674 -1.70723e-18 0.00618674)
(0.00619655 -0.0028446 -0.000193084 0.00619655 -3.63799e-18 0.00619655)
(0.00619655 -0.0028446 -0.000193084 0.00619655 -1.2753e-18 0.00619655)
(0.00620551 -0.00284763 -0.000196912 0.00620551 -3.66603e-18 0.00620551)
(0.00620551 -0.00284763 -0.000196912 0.00620551 -1.53174e-18 0.00620551)
(0.00621364 -0.00285031 -0.000200789 0.00621364 -3.7764e-18 0.00621364)
(0.00621364 -0.00285031 -0.000200789 0.00621364 -1.7056e-18 0.00621364)
(0.00622095 -0.00285265 -0.000204718 0.00622095 -4.21207e-18 0.00622095)
(0.00622095 -0.00285265 -0.000204718 0.00622095 -1.60369e-18 0.00622095)
(0.00622747 -0.00285464 -0.000208698 0.00622747 -4.17775e-18 0.00622747)
(0.00622747 -0.00285464 -0.000208698 0.00622747 -1.58192e-18 0.00622747)
(0.00623319 -0.00285629 -0.00021273 0.00623319 -4.32585e-18 0.00623319)
(0.00623319 -0.00285629 -0.00021273 0.00623319 -1.49831e-18 0.00623319)
(0.00623815 -0.00285762 -0.000216814 0.00623815 -4.40768e-18 0.00623815)
(0.00623815 -0.00285762 -0.000216814 0.00623815 -1.07961e-18 0.00623815)
(0.00624235 -0.00285862 -0.000220952 0.00624235 6.79753e-19 0.00624235)
(0.00624235 -0.00285862 -0.000220952 0.00624235 -1.01374e-18 0.00624235)
(0.0062458 -0.00285929 -0.000225142 0.0062458 8.22482e-19 0.0062458)
(0.0062458 -0.00285929 -0.000225142 0.0062458 -1.18314e-18 0.0062458)
(0.00624852 -0.00285965 -0.000229387 0.00624852 1.26749e-18 0.00624852)
(0.00624852 -0.00285965 -0.000229387 0.00624852 -1.22302e-18 0.00624852)
(0.00625051 -0.0028597 -0.000233686 0.00625051 5.62627e-19 0.00625051)
(0.00625051 -0.0028597 -0.000233686 0.00625051 -9.88485e-19 0.00625051)
(0.00625179 -0.00285945 -0.000238039 0.00625179 6.16899e-19 0.00625179)
(0.00625179 -0.00285945 -0.000238039 0.00625179 -1.73313e-18 0.00625179)
(0.00625237 -0.00285888 -0.000242447 0.00625237 1.95872e-18 0.00625237)
(0.00625237 -0.00285888 -0.000242447 0.00625237 -2.2021e-18 0.00625237)
(0.00625226 -0.00285802 -0.000246911 0.00625226 1.89452e-18 0.00625226)
(0.00625226 -0.00285802 -0.000246911 0.00625226 -1.3678e-18 0.00625226)
(0.00625146 -0.00285685 -0.00025143 0.00625146 2.12801e-18 0.00625146)
(0.00625146 -0.00285685 -0.00025143 0.00625146 -1.16181e-18 0.00625146)
(0.00624998 -0.00285539 -0.000256005 0.00624998 1.77675e-18 0.00624998)
(0.00624998 -0.00285539 -0.000256005 0.00624998 -1.65383e-18 0.00624998)
(0.00624783 -0.00285364 -0.000260636 0.00624783 1.92701e-18 0.00624783)
(0.00624783 -0.00285364 -0.000260636 0.00624783 -1.94586e-18 0.00624783)
(0.00624501 -0.00285159 -0.000265323 0.00624501 2.34804e-18 0.00624501)
(0.00624501 -0.00285159 -0.000265323 0.00624501 -1.59441e-18 0.00624501)
(0.00624154 -0.00284925 -0.000270066 0.00624154 1.83604e-18 0.00624154)
(0.00624154 -0.00284925 -0.000270066 0.00624154 -2.13402e-18 0.00624154)
(0.00623742 -0.00284663 -0.000274866 0.00623742 2.74292e-18 0.00623742)
(0.00623742 -0.00284663 -0.000274866 0.00623742 -2.66869e-18 0.00623742)
(0.00623265 -0.00284371 -0.000279722 0.00623265 3.16564e-18 0.00623265)
(0.00623265 -0.00284371 -0.000279722 0.00623265 -1.88696e-18 0.00623265)
(0.00622723 -0.00284051 -0.000284634 0.00622723 2.03633e-18 0.00622723)
(0.00622723 -0.00284051 -0.000284634 0.00622723 -9.66355e-19 0.00622723)
(0.00622118 -0.00283702 -0.000289603 0.00622118 2.25082e-18 0.00622118)
(0.00622118 -0.00283702 -0.000289603 0.00622118 -1.47568e-18 0.00622118)
(0.00621449 -0.00283325 -0.000294628 0.00621449 3.51541e-18 0.00621449)
(0.00621449 -0.00283325 -0.000294628 0.00621449 -2.54532e-18 0.00621449)
(0.00620718 -0.00282919 -0.000299709 0.00620718 3.41171e-18 0.00620718)
(0.00620718 -0.00282919 -0.000299709 0.00620718 -1.73425e-18 0.00620718)
(0.00619923 -0.00282485 -0.000304847 0.00619923 2.86793e-18 0.00619923)
(0.00619923 -0.00282485 -0.000304847 0.00619923 -6.38556e-19 0.00619923)
(0.00619065 -0.00282022 -0.000310039 0.00619065 3.1505e-18 0.00619065)
(0.00619065 -0.00282022 -0.000310039 0.00619065 -7.15751e-19 0.00619065)
(0.00618145 -0.00281531 -0.000315287 0.00618145 4.14798e-18 0.00618145)
(0.00618145 -0.00281531 -0.000315287 0.00618145 -8.92763e-19 0.00618145)
(0.00617163 -0.00281011 -0.00032059 0.00617163 3.59019e-18 0.00617163)
(0.00617163 -0.00281011 -0.00032059 0.00617163 -2.67165e-19 0.00617163)
(0.00616119 -0.00280463 -0.000325948 0.00616119 3.91803e-18 0.00616119)
(0.00616119 -0.00280463 -0.000325948 0.00616119 -6.09526e-19 0.00616119)
(0.00615012 -0.00279885 -0.000331359 0.00615012 5.23462e-18 0.00615012)
(0.00615012 -0.00279885 -0.000331359 0.00615012 -1.50176e-18 0.00615012)
(0.00613844 -0.00279279 -0.000336823 0.00613844 5.84832e-18 0.00613844)
(0.00613844 -0.00279279 -0.000336823 0.00613844 -1.50903e-18 0.00613844)
(0.00612613 -0.00278644 -0.00034234 0.00612613 6.36775e-18 0.00612613)
(0.00612613 -0.00278644 -0.00034234 0.00612613 -3.87496e-18 0.00612613)
(0.00611321 -0.0027798 -0.000347909 0.00611321 8.24241e-18 0.00611321)
(0.00611321 -0.0027798 -0.000347909 0.00611321 -6.93358e-18 0.00611321)
(0.00609966 -0.00277286 -0.000353529 0.00609966 5.44025e-18 0.00609966)
(0.00609966 -0.00277286 -0.000353529 0.00609966 -6.17249e-18 0.00609966)
(0.00608549 -0.00276564 -0.000359198 0.00608549 4.80428e-18 0.00608549)
(0.00608549 -0.00276564 -0.000359198 0.00608549 -4.94548e-18 0.00608549)
(0.0060707 -0.00275811 -0.000364916 0.0060707 5.14757e-18 0.0060707)
(0.0060707 -0.00275811 -0.000364916 0.0060707 -6.06703e-18 0.0060707)
(0.00605529 -0.00275029 -0.000370682 0.00605529 6.46351e-18 0.00605529)
(0.00605529 -0.00275029 -0.000370682 0.00605529 -7.73971e-18 0.00605529)
(0.00603924 -0.00274217 -0.000376495 0.00603924 3.32189e-18 0.00603924)
(0.00603924 -0.00274217 -0.000376495 0.00603924 -7.55843e-18 0.00603924)
(0.00602257 -0.00273374 -0.000382352 0.00602257 1.00625e-18 0.00602257)
(0.00602257 -0.00273374 -0.000382352 0.00602257 8.15375e-18 0.00602257)
(0.00600527 -0.00272501 -0.000388253 0.00600527 2.27193e-18 0.00600527)
(0.00600527 -0.00272501 -0.000388253 0.00600527 1.43386e-17 0.00600527)
(0.00598733 -0.00271597 -0.000394196 0.00598733 1.167e-18 0.00598733)
(0.00598733 -0.00271597 -0.000394196 0.00598733 2.0046e-17 0.00598733)
(0.00596876 -0.00270663 -0.000400179 0.00596876 1.92659e-18 0.00596876)
(0.00596876 -0.00270663 -0.000400179 0.00596876 2.11449e-17 0.00596876)
(0.00594955 -0.00269696 -0.0004062 0.00594955 2.65085e-18 0.00594955)
(0.00594955 -0.00269696 -0.0004062 0.00594955 1.89914e-17 0.00594955)
(0.0059297 -0.00268699 -0.000412258 0.0059297 2.53796e-18 0.0059297)
(0.0059297 -0.00268699 -0.000412258 0.0059297 1.88144e-17 0.0059297)
(0.0059092 -0.00267669 -0.000418349 0.0059092 4.43579e-18 0.0059092)
(0.0059092 -0.00267669 -0.000418349 0.0059092 1.99476e-17 0.0059092)
(0.00588805 -0.00266607 -0.000424473 0.00588805 2.49798e-18 0.00588805)
(0.00588805 -0.00266607 -0.000424473 0.00588805 2.26083e-17 0.00588805)
(0.00586624 -0.00265513 -0.000430625 0.00586624 4.28305e-18 0.00586624)
(0.00586624 -0.00265513 -0.000430625 0.00586624 2.52168e-17 0.00586624)
(0.00584378 -0.00264385 -0.000436805 0.00584378 4.94747e-18 0.00584378)
(0.00584378 -0.00264385 -0.000436805 0.00584378 2.39041e-17 0.00584378)
(0.00582065 -0.00263224 -0.000443008 0.00582065 5.81152e-18 0.00582065)
(0.00582065 -0.00263224 -0.000443008 0.00582065 2.34795e-17 0.00582065)
(0.00579685 -0.0026203 -0.000449232 0.00579685 3.24231e-18 0.00579685)
(0.00579685 -0.0026203 -0.000449232 0.00579685 2.7326e-17 0.00579685)
(0.00577238 -0.00260801 -0.000455474 0.00577238 4.19928e-18 0.00577238)
(0.00577238 -0.00260801 -0.000455474 0.00577238 2.82949e-17 0.00577238)
(0.00574722 -0.00259537 -0.00046173 0.00574722 5.10854e-18 0.00574722)
(0.00574722 -0.00259537 -0.00046173 0.00574722 2.63028e-17 0.00574722)
(0.00572139 -0.00258239 -0.000467996 0.00572139 7.09318e-18 0.00572139)
(0.00572139 -0.00258239 -0.000467996 0.00572139 2.5601e-17 0.00572139)
(0.00569486 -0.00256905 -0.00047427 0.00569486 1.87393e-18 0.00569486)
(0.00569486 -0.00256905 -0.00047427 0.00569486 2.73102e-17 0.00569486)
(0.00566763 -0.00255536 -0.000480547 0.00566763 4.05572e-18 0.00566763)
(0.00566763 -0.00255536 -0.000480547 0.00566763 2.98304e-17 0.00566763)
(0.00563971 -0.0025413 -0.000486822 0.00563971 8.23294e-18 0.00563971)
(0.00563971 -0.0025413 -0.000486822 0.00563971 2.88825e-17 0.00563971)
(0.00561107 -0.00252687 -0.000493091 0.00561107 8.45835e-18 0.00561107)
(0.00561107 -0.00252687 -0.000493091 0.00561107 2.96537e-17 0.00561107)
(0.00558171 -0.00251207 -0.00049935 0.00558171 8.28038e-18 0.00558171)
(0.00558171 -0.00251207 -0.00049935 0.00558171 2.6729e-17 0.00558171)
(0.00555164 -0.00249689 -0.000505593 0.00555164 6.99289e-18 0.00555164)
(0.00555164 -0.00249689 -0.000505593 0.00555164 2.64729e-17 0.00555164)
(0.00552083 -0.00248133 -0.000511815 0.00552083 9.78372e-19 0.00552083)
(0.00552083 -0.00248133 -0.000511815 0.00552083 3.01643e-17 0.00552083)
(0.00548928 -0.00246538 -0.00051801 0.00548928 2.12622e-18 0.00548928)
(0.00548928 -0.00246538 -0.00051801 0.00548928 3.18403e-17 0.00548928)
(0.00545699 -0.00244903 -0.000524173 0.00545699 2.49011e-18 0.00545699)
(0.00545699 -0.00244903 -0.000524173 0.00545699 3.78657e-17 0.00545699)
(0.00542395 -0.00243229 -0.000530298 0.00542395 5.51003e-18 0.00542395)
(0.00542395 -0.00243229 -0.000530298 0.00542395 3.76995e-17 0.00542395)
(0.00539015 -0.00241514 -0.000536377 0.00539015 6.43733e-18 0.00539015)
(0.00539015 -0.00241514 -0.000536377 0.00539015 3.1036e-17 0.00539015)
(0.00535558 -0.00239758 -0.000542404 0.00535558 5.12395e-19 0.00535558)
(0.00535558 -0.00239758 -0.000542404 0.00535558 2.86794e-17 0.00535558)
(0.00532023 -0.0023796 -0.000548372 0.00532023 1.3192e-18 0.00532023)
(0.00532023 -0.0023796 -0.000548372 0.00532023 2.90593e-17 0.00532023)
(0.0052841 -0.0023612 -0.000554273 0.0052841 2.97832e-18 0.0052841)
(0.0052841 -0.0023612 -0.000554273 0.0052841 3.32889e-17 0.0052841)
(0.00524718 -0.00234236 -0.000560099 0.00524718 2.832e-18 0.00524718)
(0.00524718 -0.00234236 -0.000560099 0.00524718 3.00068e-17 0.00524718)
(0.00520946 -0.0023231 -0.000565842 0.00520946 -4.95471e-18 0.00520946)
(0.00520946 -0.0023231 -0.000565842 0.00520946 2.7598e-17 0.00520946)
(0.00517094 -0.00230338 -0.000571493 0.00517094 -2.94901e-18 0.00517094)
(0.00517094 -0.00230338 -0.000571493 0.00517094 1.67056e-17 0.00517094)
(0.00513159 -0.00228322 -0.000577043 0.00513159 2.09889e-18 0.00513159)
(0.00513159 -0.00228322 -0.000577043 0.00513159 1.13867e-17 0.00513159)
(0.00509142 -0.00226261 -0.000582481 0.00509142 2.5588e-18 0.00509142)
(0.00509142 -0.00226261 -0.000582481 0.00509142 4.8796e-18 0.00509142)
(0.00505042 -0.00224153 -0.000587799 0.00505042 6.34547e-18 0.00505042)
(0.00505042 -0.00224153 -0.000587799 0.00505042 6.95469e-18 0.00505042)
(0.00500858 -0.00221997 -0.000592984 0.00500858 1.79929e-18 0.00500858)
(0.00500858 -0.00221997 -0.000592984 0.00500858 1.30515e-18 0.00500858)
(0.00496589 -0.00219795 -0.000598027 0.00496589 -3.07174e-18 0.00496589)
(0.00496589 -0.00219795 -0.000598027 0.00496589 -1.30578e-17 0.00496589)
(0.00492235 -0.00217543 -0.000602914 0.00492235 -3.53937e-18 0.00492235)
(0.00492235 -0.00217543 -0.000602914 0.00492235 -3.90713e-18 0.00492235)
(0.00487794 -0.00215243 -0.000607635 0.00487794 3.09161e-18 0.00487794)
(0.00487794 -0.00215243 -0.000607635 0.00487794 -9.74235e-19 0.00487794)
(0.00483266 -0.00212892 -0.000612176 0.00483266 1.51622e-18 0.00483266)
(0.00483266 -0.00212892 -0.000612176 0.00483266 2.8543e-18 0.00483266)
(0.0047865 -0.0021049 -0.000616524 0.0047865 2.47049e-18 0.0047865)