/*--------------------------------*- C++ -*----------------------------------*\
| =========                 |                                                 |
| \\      /  F ield         | OpenFOAM: The Open Source CFD Toolbox           |
|  \\    /   O peration     | Version:  2106                                  |
|   \\  /    A nd           | Website:  www.openfoam.com                      |
|    \\/     M anipulation  |                                                 |
\*---------------------------------------------------------------------------*/
FoamFile
{
    version     2.0;
    format      ascii;
    arch        "LSB;label=32;scalar=64";
    class       volVectorField;
    location    "10000";
    object      U;
}
// * * * * * * * * * * * * * * * * * * * * * * * * * * * * * * * * * * * * * //

dimensions      [0 1 -1 0 0 0 0];

internalField   nonuniform List<vector> 
2000
(
(0.00220455 -1.09225e-15 1.23738e-18)
(0.00220455 -1.85908e-19 1.25295e-22)
(0.00665396 -5.8515e-16 3.18524e-17)
(0.00665396 2.36402e-19 -2.15964e-19)
(0.0111856 -2.10619e-15 3.56782e-17)
(0.0111856 4.07088e-19 -2.03346e-18)
(0.0158008 -1.73575e-15 3.19171e-17)
(0.0158008 6.87146e-19 -5.65881e-21)
(0.0205013 -1.76116e-15 3.16906e-17)
(0.0205013 9.87445e-19 -9.18434e-21)
(0.0252886 -1.76184e-15 3.02243e-17)
(0.0252886 1.26685e-18 -1.27738e-20)
(0.0301643 -1.76591e-15 3.16255e-17)
(0.0301643 1.5575e-18 -1.62968e-20)
(0.0351299 -1.76626e-15 3.3632e-17)
(0.0351299 1.87333e-18 -2.04134e-20)
(0.0401871 -1.76663e-15 3.57283e-17)
(0.0401871 2.16669e-18 -2.43298e-20)
(0.0453375 -1.76737e-15 3.7918e-17)
(0.0453375 2.47157e-18 -2.89438e-20)
(0.0505829 -1.76815e-15 4.02053e-17)
(0.0505829 2.77765e-18 -3.47793e-20)
(0.055925 -1.76884e-15 4.25938e-17)
(0.055925 3.10214e-18 -4.06887e-20)
(0.0613656 -1.76951e-15 4.50872e-17)
(0.0613656 3.4666e-18 -4.66289e-20)
(0.0669062 -1.77017e-15 4.76887e-17)
(0.0669062 3.79514e-18 -5.35231e-20)
(0.0725489 -1.77079e-15 5.0402e-17)
(0.0725489 4.10489e-18 -6.055e-20)
(0.0782953 -1.77151e-15 5.32309e-17)
(0.0782953 4.41582e-18 -6.82261e-20)
(0.0841472 -1.77236e-15 5.61786e-17)
(0.0841472 4.69832e-18 -7.76666e-20)
(0.0901065 -1.77319e-15 5.92497e-17)
(0.0901065 5.01778e-18 -8.63257e-20)
(0.096175 -1.77401e-15 6.24486e-17)
(0.096175 5.41138e-18 -9.67873e-20)
(0.102354 -1.77479e-15 6.57795e-17)
(0.102354 5.75415e-18 -1.11406e-19)
(0.108646 -1.77555e-15 6.92465e-17)
(0.108646 6.07763e-18 -1.20825e-19)
(0.115053 -1.77635e-15 7.28537e-17)
(0.115053 6.33986e-18 -1.30111e-19)
(0.121576 -1.77718e-15 7.66052e-17)
(0.121576 6.58015e-18 -1.42605e-19)
(0.128216 -1.7781e-15 8.05036e-17)
(0.128216 6.97907e-18 -1.56061e-19)
(0.134975 -1.77906e-15 8.45526e-17)
(0.134975 7.42551e-18 -1.71591e-19)
(0.141854 -1.77992e-15 8.8755e-17)
(0.141854 7.75672e-18 -1.93125e-19)
(0.148855 -1.78067e-15 9.27671e-17)
(0.148855 7.88273e-18 -2.06161e-19)
(0.155979 -1.78158e-15 9.61972e-17)
(0.155979 8.10318e-18 -2.22117e-19)
(0.163225 -1.78245e-15 9.9735e-17)
(0.163225 8.50796e-18 -2.48048e-19)
(0.170594 -1.78327e-15 1.03378e-16)
(0.170594 8.76009e-18 -2.71974e-19)
(0.178087 -1.78413e-15 1.07104e-16)
(0.178087 8.94351e-18 -2.96791e-19)
(0.185702 -1.78485e-15 1.10934e-16)
(0.185702 9.1403e-18 -3.185e-19)
(0.193439 -1.78571e-15 1.14852e-16)
(0.193439 9.36599e-18 -3.45332e-19)
(0.201295 -1.78671e-15 1.18848e-16)
(0.201295 9.52297e-18 -3.80508e-19)
(0.209268 -1.78768e-15 1.22914e-16)
(0.209268 9.75016e-18 -4.10656e-19)
(0.217356 -1.78855e-15 1.27042e-16)
(0.217356 1.00323e-17 -4.44608e-19)
(0.225554 -1.78949e-15 1.31212e-16)
(0.225554 1.03036e-17 -4.85251e-19)
(0.233858 -1.79046e-15 1.35422e-16)
(0.233858 1.09183e-17 -5.22222e-19)
(0.242262 -1.79143e-15 1.39641e-16)
(0.242262 1.10804e-17 -5.73931e-19)
(0.250759 -1.79222e-15 1.43866e-16)
(0.250759 1.08266e-17 -6.12738e-19)
(0.259342 -1.79282e-15 1.48076e-16)
(0.259342 1.0709e-17 -6.41778e-19)
(0.268002 -1.79396e-15 1.52215e-16)
(0.268002 1.10705e-17 -6.74912e-19)
(0.276731 -1.79528e-15 1.56283e-16)
(0.276731 1.17742e-17 -7.48859e-19)
(0.285517 -1.79657e-15 1.60301e-16)
(0.285517 1.16261e-17 -8.20732e-19)
(0.294351 -1.79764e-15 1.6421e-16)
(0.294351 1.176e-17 -8.76636e-19)
(0.303221 -1.79817e-15 1.67992e-16)
(0.303221 1.14986e-17 -9.4153e-19)
(0.312115 -1.79893e-15 1.71632e-16)
(0.312115 1.05547e-17 -9.97014e-19)
(0.321021 -1.80012e-15 1.75134e-16)
(0.321021 1.07061e-17 -1.02454e-18)
(0.329927 -1.80114e-15 1.78454e-16)
(0.329927 1.10317e-17 -1.0651e-18)
(0.338821 -1.80177e-15 1.81646e-16)
(0.338821 1.0034e-17 -1.13502e-18)
(0.347691 -1.80283e-15 1.84583e-16)
(0.347691 1.02947e-17 -1.19526e-18)
(0.356526 -1.80433e-15 1.87426e-16)
(0.356526 1.04271e-17 -1.24288e-18)
(0.365315 -1.80544e-15 1.90023e-16)
(0.365315 1.09751e-17 -1.28871e-18)
(0.374048 -1.80627e-15 1.92468e-16)
(0.374048 1.07025e-17 -1.331e-18)
(0.382714 -1.80714e-15 1.94781e-16)
(0.382714 1.05064e-17 -1.37753e-18)
(0.391307 -1.80824e-15 1.96879e-16)
(0.391307 1.06851e-17 -1.43823e-18)
(0.399818 -1.80949e-15 1.98849e-16)
(0.399818 1.06814e-17 -1.50389e-18)
(0.40824 -1.81045e-15 2.00678e-16)
(0.40824 1.05381e-17 -1.5433e-18)
(0.416568 -1.81103e-15 2.02385e-16)
(0.416568 9.88953e-18 -1.60588e-18)
(0.424796 -1.81049e-15 2.03979e-16)
(0.424796 8.42112e-18 -1.6781e-18)
(0.432921 -1.80894e-15 2.05507e-16)
(0.432921 6.40257e-18 -1.74066e-18)
(0.440939 -1.80773e-15 2.06925e-16)
(0.440939 5.218e-18 -1.79458e-18)
(0.448847 -1.80678e-15 2.08266e-16)
(0.448847 4.19956e-18 -1.83919e-18)
(0.456645 -1.80669e-15 2.09423e-16)
(0.456645 2.30706e-18 -1.88999e-18)
(0.46433 -1.80733e-15 2.10658e-16)
(0.46433 1.7664e-18 -1.96988e-18)
(0.471902 -1.80752e-15 2.11818e-16)
(0.471902 1.72544e-18 -2.04579e-18)
(0.479362 -1.8076e-15 2.12941e-16)
(0.479362 1.08372e-18 -2.10542e-18)
(0.486709 -1.80744e-15 2.14042e-16)
(0.486709 2.45039e-19 -2.16341e-18)
(0.493944 -1.80669e-15 2.15145e-16)
(0.493944 -2.67627e-19 -2.19665e-18)
(0.501068 -1.8057e-15 2.16286e-16)
(0.501068 -5.74883e-19 -2.24307e-18)
(0.508083 -1.80513e-15 2.17391e-16)
(0.508083 -1.73268e-18 -2.32496e-18)
(0.51499 -1.80411e-15 2.18514e-16)
(0.51499 -2.15713e-18 -2.35928e-18)
(0.521791 -1.80287e-15 2.19675e-16)
(0.521791 -2.76172e-18 -2.42978e-18)
(0.528488 -1.80165e-15 2.20795e-16)
(0.528488 -5.32245e-18 -2.5348e-18)
(0.535084 -1.80035e-15 2.22108e-16)
(0.535084 -6.33273e-18 -2.62508e-18)
(0.541579 -1.79889e-15 2.23402e-16)
(0.541579 -7.54265e-18 -2.71185e-18)
(0.547978 -1.79601e-15 2.24666e-16)
(0.547978 -9.70961e-18 -2.75391e-18)
(0.554281 -1.79326e-15 2.26179e-16)
(0.554281 -1.24209e-17 -2.80677e-18)
(0.560492 -1.79284e-15 2.27379e-16)
(0.560492 -1.36449e-17 -2.85803e-18)
(0.566612 -1.79172e-15 2.28821e-16)
(0.566612 -1.48294e-17 -3.0494e-18)
(0.572645 -1.7889e-15 2.30466e-16)
(0.572645 -1.81589e-17 -3.14351e-18)
(0.578591 -1.78612e-15 2.32128e-16)
(0.578591 -1.9615e-17 -3.22406e-18)
(0.584455 -1.78292e-15 2.33753e-16)
(0.584455 -2.37459e-17 -3.2898e-18)
(0.590238 -1.78099e-15 2.35423e-16)
(0.590238 -2.6814e-17 -3.37237e-18)
(0.595942 -1.78057e-15 2.37275e-16)
(0.595942 -2.66928e-17 -3.55237e-18)
(0.601569 -1.78139e-15 2.39015e-16)
(0.601569 -2.72652e-17 -3.60028e-18)
(0.607123 -1.78318e-15 2.4085e-16)
(0.607123 -2.91387e-17 -3.68908e-18)
(0.612604 -1.78459e-15 2.4284e-16)
(0.612604 -3.14509e-17 -3.80138e-18)
(0.618016 -1.78432e-15 2.44946e-16)
(0.618016 -3.15066e-17 -3.91773e-18)
(0.623359 -1.78227e-15 2.47112e-16)
(0.623359 -3.36447e-17 -3.98681e-18)
(0.628636 -1.77934e-15 2.49515e-16)
(0.628636 -3.92467e-17 -4.18461e-18)
(0.63385 -1.77386e-15 2.51972e-16)
(0.63385 -4.462e-17 -4.23415e-18)
(0.639001 -1.767e-15 2.54611e-16)
(0.639001 -5.03679e-17 -4.31235e-18)
(0.644092 -1.76343e-15 2.56933e-16)
(0.644092 -5.32442e-17 -4.56592e-18)
(0.649125 -1.76252e-15 2.59356e-16)
(0.649125 -5.5025e-17 -3.67004e-18)
(0.6541 -1.76185e-15 2.62133e-16)
(0.6541 -5.70599e-17 -1.71663e-18)
(0.659021 -1.76099e-15 2.64861e-16)
(0.659021 -6.01966e-17 3.54315e-19)
(0.663888 -1.75892e-15 2.67737e-16)
(0.663888 -6.29918e-17 2.66505e-18)
(0.668702 -1.75725e-15 2.70865e-16)
(0.668702 -6.55347e-17 5.13813e-18)
(0.673467 -1.75309e-15 2.74212e-16)
(0.673467 -7.02812e-17 7.30333e-18)
(0.678182 -1.74773e-15 2.7755e-16)
(0.678182 -7.31003e-17 9.8806e-18)
(0.68285 -1.74424e-15 2.80744e-16)
(0.68285 -7.40561e-17 1.21831e-17)
(0.687472 -1.74192e-15 2.84113e-16)
(0.687472 -7.87573e-17 1.47575e-17)
(0.692048 -1.73878e-15 2.8775e-16)
(0.692048 -8.4059e-17 1.78148e-17)
(0.696581 -1.73362e-15 2.91545e-16)
(0.696581 -8.83017e-17 2.05882e-17)
(0.701072 -1.7279e-15 2.95506e-16)
(0.701072 -9.28389e-17 2.31185e-17)
(0.705521 -1.72263e-15 2.99134e-16)
(0.705521 -9.79436e-17 2.60955e-17)
(0.709931 -1.71724e-15 3.03061e-16)
(0.709931 -1.04806e-16 2.91968e-17)
(0.714301 -1.71268e-15 3.0653e-16)
(0.714301 -1.08525e-16 3.2768e-17)
(0.718634 -1.70404e-15 3.11577e-16)
(0.718634 -1.13263e-16 3.58674e-17)
(0.72293 -1.69251e-15 3.15896e-16)
(0.72293 -1.21141e-16 3.93333e-17)
(0.72719 -1.68758e-15 3.20058e-16)
(0.72719 -1.29787e-16 4.25849e-17)
(0.731415 -1.68272e-15 3.24403e-16)
(0.731415 -1.35937e-16 4.58633e-17)
(0.735606 -1.67557e-15 3.28904e-16)
(0.735606 -1.44537e-16 4.93467e-17)
(0.739765 -1.66886e-15 3.33649e-16)
(0.739765 -1.53169e-16 5.31618e-17)
(0.743891 -1.66358e-15 3.3867e-16)
(0.743891 -1.57562e-16 5.73688e-17)
(0.747987 -1.65725e-15 3.43937e-16)
(0.747987 -1.63191e-16 6.05953e-17)
(0.752052 -1.64665e-15 3.49784e-16)
(0.752052 -1.71808e-16 6.48389e-17)
(0.756087 -1.63625e-15 3.54565e-16)
(0.756087 -1.81368e-16 6.97379e-17)
(0.760094 -1.62262e-15 3.6103e-16)
(0.760094 -1.91032e-16 7.47568e-17)
(0.764073 -1.61291e-15 3.66548e-16)
(0.764073 -2.00253e-16 7.84382e-17)
(0.768024 -1.60381e-15 3.72499e-16)
(0.768024 -2.11363e-16 8.2719e-17)
(0.771949 -1.58972e-15 3.77946e-16)
(0.771949 -2.23784e-16 8.7565e-17)
(0.775848 -1.57864e-15 3.84871e-16)
(0.775848 -2.37636e-16 9.28193e-17)
(0.779721 -1.56705e-15 3.91011e-16)
(0.779721 -2.467e-16 9.79163e-17)
(0.783571 -1.55378e-15 3.97881e-16)
(0.783571 -2.57855e-16 1.03498e-16)
(0.787396 -1.54075e-15 4.04615e-16)
(0.787396 -2.71083e-16 1.08899e-16)
(0.791198 -1.52665e-15 4.11632e-16)
(0.791198 -2.83978e-16 1.14073e-16)
(0.794977 -1.51293e-15 4.11728e-16)
(0.794977 -3.00436e-16 1.19827e-16)
(0.798733 -1.50215e-15 4.10786e-16)
(0.798733 -3.06696e-16 1.26089e-16)
(0.802468 -1.49604e-15 4.10143e-16)
(0.802468 -3.11327e-16 1.32337e-16)
(0.806182 -1.48647e-15 4.1033e-16)
(0.806182 -3.13701e-16 1.38306e-16)
(0.809876 -1.47426e-15 4.08636e-16)
(0.809876 -3.18563e-16 1.46611e-16)
(0.813549 -1.46194e-15 4.07364e-16)
(0.813549 -3.20808e-16 1.54043e-16)
(0.817202 -1.45081e-15 4.05912e-16)
(0.817202 -3.21198e-16 1.6066e-16)
(0.820836 -1.44648e-15 4.03895e-16)
(0.820836 -3.28761e-16 1.67968e-16)
(0.824452 -1.4393e-15 4.02181e-16)
(0.824452 -3.32906e-16 1.76264e-16)
(0.828049 -1.4267e-15 4.00339e-16)
(0.828049 -3.36918e-16 1.845e-16)
(0.831628 -1.41814e-15 3.98624e-16)
(0.831628 -3.37604e-16 1.924e-16)
(0.83519 -1.40555e-15 3.97367e-16)
(0.83519 -3.46871e-16 2.0254e-16)
(0.838735 -1.39368e-15 3.94196e-16)
(0.838735 -3.52366e-16 2.1277e-16)
(0.842263 -1.38382e-15 3.91842e-16)
(0.842263 -3.54998e-16 2.21259e-16)
(0.845774 -1.37023e-15 3.91147e-16)
(0.845774 -3.65335e-16 2.29442e-16)
(0.84927 -1.35447e-15 3.88824e-16)
(0.84927 -3.69653e-16 2.40386e-16)
(0.852749 -1.34382e-15 3.8577e-16)
(0.852749 -3.78558e-16 2.5167e-16)
(0.856214 -1.33693e-15 3.8271e-16)
(0.856214 -3.8841e-16 2.61459e-16)
(0.859663 -1.3278e-15 3.80248e-16)
(0.859663 -3.98581e-16 2.71195e-16)
(0.863098 -1.31678e-15 3.77023e-16)
(0.863098 -4.11058e-16 2.82281e-16)
(0.866518 -1.30386e-15 3.72612e-16)
(0.866518 -4.19041e-16 2.93792e-16)
(0.869924 -1.28591e-15 3.71283e-16)
(0.869924 -4.30405e-16 3.04258e-16)
(0.873317 -1.27099e-15 3.66837e-16)
(0.873317 -4.36646e-16 3.18024e-16)
(0.876695 -1.27107e-15 3.62157e-16)
(0.876695 -4.32609e-16 3.31845e-16)
(0.880061 -1.27862e-15 3.54512e-16)
(0.880061 -4.39651e-16 3.4582e-16)
(0.883413 -1.25581e-15 3.46805e-16)
(0.883413 -4.49188e-16 3.66551e-16)
(0.886752 -1.2486e-15 3.40404e-16)
(0.886752 -4.45485e-16 3.88737e-16)
(0.890079 -1.23681e-15 3.35581e-16)
(0.890079 -4.51059e-16 4.08307e-16)
(0.893393 -1.22207e-15 3.31948e-16)
(0.893393 -4.60626e-16 4.28072e-16)
(0.896695 -1.20418e-15 3.27129e-16)
(0.896695 -4.75196e-16 4.51074e-16)
(0.899985 -1.1903e-15 3.21277e-16)
(0.899985 -4.85154e-16 4.76677e-16)
(0.903263 -1.17495e-15 3.23061e-16)
(0.903263 -4.89295e-16 5.00906e-16)
(0.90653 -1.15422e-15 3.23156e-16)
(0.90653 -5.09961e-16 5.04089e-16)
(0.909785 -1.13642e-15 3.23542e-16)
(0.909785 -5.19428e-16 4.98988e-16)
(0.913028 -1.11973e-15 3.25554e-16)
(0.913028 -5.26609e-16 4.91429e-16)
(0.916261 -1.10245e-15 3.23842e-16)
(0.916261 -5.30103e-16 4.85836e-16)
(0.919482 -1.08551e-15 3.24447e-16)
(0.919482 -5.27124e-16 4.83696e-16)
(0.922692 -1.07431e-15 3.22955e-16)
(0.922692 -5.3042e-16 4.79515e-16)
(0.925892 -1.08609e-15 3.17478e-16)
(0.925892 -5.29774e-16 4.75642e-16)
(0.929081 -1.06294e-15 3.17016e-16)
(0.929081 -5.30966e-16 4.65221e-16)
(0.932259 -1.04081e-15 3.14711e-16)
(0.932259 -5.37637e-16 4.56706e-16)
(0.935426 -1.02201e-15 3.12466e-16)
(0.935426 -5.43107e-16 4.51644e-16)
(0.938584 -1.01192e-15 3.07057e-16)
(0.938584 -5.47758e-16 4.4597e-16)
(0.94173 -9.94524e-16 3.08194e-16)
(0.94173 -5.49278e-16 4.33749e-16)
(0.944867 -9.85665e-16 3.02966e-16)
(0.944867 -5.56177e-16 4.27331e-16)
(0.947993 -9.71874e-16 2.99036e-16)
(0.947993 -5.61114e-16 4.20261e-16)
(0.951109 -9.72394e-16 2.90787e-16)
(0.951109 -5.59088e-16 4.16454e-16)
(0.954215 -9.50141e-16 2.94609e-16)
(0.954215 -5.66201e-16 4.02654e-16)
(0.95731 -9.30538e-16 2.89243e-16)
(0.95731 -5.77828e-16 3.97912e-16)
(0.960396 -9.1654e-16 2.82091e-16)
(0.960396 -5.7193e-16 3.8788e-16)
(0.963471 -9.10725e-16 2.74085e-16)
(0.963471 -5.72789e-16 3.81387e-16)
(0.966536 -8.91703e-16 2.64148e-16)
(0.966536 -5.78543e-16 3.79983e-16)
(0.969591 -8.7095e-16 2.64759e-16)
(0.969591 -5.83863e-16 3.70662e-16)
(0.972636 -8.41022e-16 2.70365e-16)
(0.972636 -5.79746e-16 3.66913e-16)
(0.97567 -8.16932e-16 2.72078e-16)
(0.97567 -5.74028e-16 3.55868e-16)
(0.978694 -7.95239e-16 2.74542e-16)
(0.978694 -5.97439e-16 3.39963e-16)
(0.981708 -7.93259e-16 2.67791e-16)
(0.981708 -6.11914e-16 3.33288e-16)
(0.984711 -7.92081e-16 2.5937e-16)
(0.984711 -6.19511e-16 3.35681e-16)
(0.987703 -7.8373e-16 2.67194e-16)
(0.987703 -6.25716e-16 3.37439e-16)
(0.990685 -7.92848e-16 2.6013e-16)
(0.990685 -6.37341e-16 3.34743e-16)
(0.993656 -7.72654e-16 2.59747e-16)
(0.993656 -6.55276e-16 3.25109e-16)
(0.996616 -7.68439e-16 2.62665e-16)
(0.996616 -6.60063e-16 3.14996e-16)
(0.999565 -7.56206e-16 2.74489e-16)
(0.999565 -6.71114e-16 3.07832e-16)
(1.0025 -7.34077e-16 2.7619e-16)
(1.0025 -6.76334e-16 3.14737e-16)
(1.00543 -7.21245e-16 2.80329e-16)
(1.00543 -6.75631e-16 3.14083e-16)
(1.00834 -7.16226e-16 2.76128e-16)
(1.00834 -6.81882e-16 3.25788e-16)
(1.01125 -7.04625e-16 2.66448e-16)
(1.01125 -6.93577e-16 3.22154e-16)
(1.01414 -6.91022e-16 2.77838e-16)
(1.01414 -6.93809e-16 3.28388e-16)
(1.01702 -6.93843e-16 2.81861e-16)
(1.01702 -6.80005e-16 3.5663e-16)
(1.01988 -6.88004e-16 2.87195e-16)
(1.01988 -7.06029e-16 3.62823e-16)
(1.02273 -6.83592e-16 2.83767e-16)
(1.02273 -6.92791e-16 3.6347e-16)
(1.02557 -6.70587e-16 2.8852e-16)
(1.02557 -6.77091e-16 3.56225e-16)
(1.0284 -6.63804e-16 2.84676e-16)
(1.0284 -6.59031e-16 3.5677e-16)
(1.03121 -6.72466e-16 2.65572e-16)
(1.03121 -6.30059e-16 3.55258e-16)
(1.03401 -6.60602e-16 2.60669e-16)
(1.03401 -6.166e-16 3.48446e-16)
(1.03679 -6.38518e-16 2.86723e-16)
(1.03679 -6.01572e-16 3.21464e-16)
(1.03956 -6.04522e-16 2.84046e-16)
(1.03956 -5.64429e-16 3.14055e-16)
(1.04231 -5.87597e-16 2.98582e-16)
(1.04231 -5.4871e-16 3.13882e-16)
(1.04504 -5.86073e-16 2.97607e-16)
(1.04504 -5.73893e-16 3.00725e-16)
(1.04776 -5.69367e-16 2.99379e-16)
(1.04776 -5.59882e-16 2.75183e-16)
(1.05046 -5.38184e-16 2.87834e-16)
(1.05046 -5.38123e-16 2.73366e-16)
(1.05314 -5.32833e-16 2.77755e-16)
(1.05314 -5.35729e-16 2.91103e-16)
(1.05581 -5.01536e-16 2.91872e-16)
(1.05581 -5.15388e-16 2.94183e-16)
(1.05845 -4.85999e-16 3.26742e-16)
(1.05845 -5.06255e-16 2.88789e-16)
(1.06108 -5.11025e-16 3.04778e-16)
(1.06108 -5.09644e-16 3.04059e-16)
(1.06368 -5.02604e-16 3.20422e-16)
(1.06368 -4.86854e-16 2.94779e-16)
(1.06626 -5.10704e-16 3.26517e-16)
(1.06626 -4.95566e-16 3.08557e-16)
(1.06882 -5.14828e-16 3.34743e-16)
(1.06882 -4.93755e-16 3.2905e-16)
(1.07135 -5.41326e-16 3.6552e-16)
(1.07135 -4.81394e-16 2.93285e-16)
(1.07386 -5.37656e-16 3.06076e-16)
(1.07386 -5.34148e-16 3.05368e-16)
(1.07635 -5.38805e-16 3.25541e-16)
(1.07635 -5.38289e-16 3.03852e-16)
(1.07881 -5.4423e-16 3.72148e-16)
(1.07881 -5.36988e-16 3.03782e-16)
(1.08123 -5.45833e-16 3.83687e-16)
(1.08123 -5.54028e-16 3.2283e-16)
(1.08363 -5.08162e-16 3.43619e-16)
(1.08363 -5.50765e-16 3.50112e-16)
(1.086 -4.35967e-16 3.65071e-16)
(1.086 -5.20266e-16 3.74492e-16)
(1.08833 -5.55102e-16 4.1051e-16)
(1.08833 -4.53807e-16 3.52292e-16)
(1.09063 -5.32723e-16 4.13943e-16)
(1.09063 -4.5516e-16 3.1635e-16)
(1.0929 -4.81226e-16 3.57032e-16)
(1.0929 -5.09206e-16 2.82614e-16)
(1.09512 -4.47235e-16 3.63046e-16)
(1.09512 -4.8834e-16 2.97521e-16)
(1.09731 -4.32302e-16 3.47518e-16)
(1.09731 -4.48826e-16 3.0904e-16)
(1.09945 -4.47086e-16 4.1328e-16)
(1.09945 -4.89265e-16 2.85084e-16)
(1.10154 -4.38641e-16 4.08608e-16)
(1.10154 -4.65188e-16 2.30541e-16)
(1.10359 -4.13309e-16 3.69207e-16)
(1.10359 -4.06659e-16 2.90436e-16)
(1.10559 -4.08877e-16 3.51361e-16)
(1.10559 -3.79316e-16 2.81112e-16)
(1.10753 -3.94681e-16 3.23371e-16)
(1.10753 -4.01737e-16 3.04091e-16)
(1.10942 -3.54196e-16 3.58882e-16)
(1.10942 -4.28972e-16 3.35841e-16)
(1.11124 -4.21205e-16 3.67679e-16)
(1.11124 -4.46967e-16 3.12131e-16)
(1.113 -3.99494e-16 3.14396e-16)
(1.113 -4.56168e-16 3.4309e-16)
(1.11469 -3.54726e-16 3.18887e-16)
(1.11469 -4.77765e-16 4.31901e-16)
(1.1163 -4.45426e-16 3.4121e-16)
(1.1163 -4.58176e-16 3.85577e-16)
(1.11783 -4.58085e-16 3.58676e-16)
(1.11783 -4.40283e-16 3.6847e-16)
(1.11928 -4.53404e-16 4.00983e-16)
(1.11928 -4.62432e-16 3.79216e-16)
(1.12064 -4.47432e-16 3.92169e-16)
(1.12064 -4.39424e-16 3.59959e-16)
(1.1219 -5.12231e-16 3.29694e-16)
(1.1219 -3.93628e-16 3.00884e-16)
(1.12305 -5.23066e-16 3.73316e-16)
(1.12305 -3.94165e-16 1.44125e-16)
(1.12409 -4.56913e-16 2.09467e-16)
(1.12409 -3.83442e-16 1.64154e-16)
(1.12501 -3.97583e-16 2.00681e-16)
(1.12501 -4.02763e-16 1.61985e-16)
(1.1258 -3.78521e-16 1.6822e-16)
(1.1258 -4.20559e-16 2.07894e-16)
(1.12646 -3.55317e-16 1.80015e-16)
(1.12646 -3.91087e-16 1.84819e-16)
(1.12696 -3.65191e-16 2.23216e-16)
(1.12696 -3.61835e-16 2.03366e-16)
(1.1273 -3.31454e-16 2.15883e-16)
(1.1273 -3.60654e-16 1.98102e-16)
(1.12748 -3.26744e-16 1.63725e-16)
(1.12748 -3.55672e-16 1.6875e-16)
(0.00220455 -5.21194e-20 7.61581e-19)
(0.00220455 -1.51859e-20 8.42393e-19)
(0.00665396 1.71003e-19 5.98493e-18)
(0.00665396 8.96347e-20 -1.08774e-17)
(0.0111856 3.00284e-19 6.66141e-18)
(0.0111856 1.42645e-19 -1.12908e-17)
(0.0158008 4.83263e-19 5.70518e-18)
(0.0158008 2.26026e-19 -1.17224e-17)
(0.0205013 6.70394e-19 5.01988e-18)
(0.0205013 3.19022e-19 -1.2173e-17)
(0.0252886 8.60411e-19 4.51418e-18)
(0.0252886 4.17119e-19 -1.26433e-17)
(0.0301643 1.04818e-18 3.98874e-18)
(0.0301643 5.33876e-19 -1.31345e-17)
(0.0351299 1.24081e-18 3.4158e-18)
(0.0351299 6.49009e-19 -1.36477e-17)
(0.0401871 1.45193e-18 2.80894e-18)
(0.0401871 7.85641e-19 -1.41835e-17)
(0.0453375 1.70869e-18 2.16945e-18)
(0.0453375 9.14686e-19 -1.47419e-17)
(0.0505829 1.98305e-18 1.49671e-18)
(0.0505829 9.8563e-19 -1.53261e-17)
(0.055925 2.25953e-18 7.86823e-19)
(0.055925 1.0638e-18 -1.59358e-17)
(0.0613656 2.52372e-18 3.77655e-20)
(0.0613656 1.16261e-18 -1.65712e-17)
(0.0669062 2.74125e-18 -7.52344e-19)
(0.0669062 1.2813e-18 -1.72344e-17)
(0.0725489 2.97572e-18 -1.5822e-18)
(0.0725489 1.42357e-18 -1.79278e-17)
(0.0782953 3.17203e-18 -2.4558e-18)
(0.0782953 1.65339e-18 -1.86516e-17)
(0.0841472 3.39274e-18 -3.37596e-18)
(0.0841472 1.87179e-18 -1.94064e-17)
(0.0901065 3.7124e-18 -4.34032e-18)
(0.0901065 2.03094e-18 -2.01953e-17)
(0.096175 4.02014e-18 -5.35418e-18)
(0.096175 2.2227e-18 -2.10158e-17)
(0.102354 4.33196e-18 -6.41778e-18)
(0.102354 2.3964e-18 -2.18701e-17)
(0.108646 4.66436e-18 -7.53119e-18)
(0.108646 2.62081e-18 -2.27614e-17)
(0.115053 5.02484e-18 -8.69934e-18)
(0.115053 2.84236e-18 -2.36896e-17)
(0.121576 5.32283e-18 -9.92571e-18)
(0.121576 3.01354e-18 -2.46533e-17)
(0.128216 5.68473e-18 -1.12092e-17)
(0.128216 3.16445e-18 -2.56556e-17)
(0.134975 6.17632e-18 -1.1744e-17)
(0.134975 3.31279e-18 -2.67013e-17)
(0.141854 6.5904e-18 -1.21054e-17)
(0.141854 3.50171e-18 -2.77842e-17)
(0.148855 7.0014e-18 -1.24756e-17)
(0.148855 3.74347e-18 -2.89057e-17)
(0.155979 7.50896e-18 -1.38397e-17)
(0.155979 3.95487e-18 -3.00761e-17)
(0.163225 7.9093e-18 -1.80287e-17)
(0.163225 4.19278e-18 -3.12865e-17)
(0.170594 8.29745e-18 -2.0209e-17)
(0.170594 4.42054e-18 -3.25306e-17)
(0.178087 8.71434e-18 -2.19421e-17)
(0.178087 4.65674e-18 -3.38151e-17)
(0.185702 9.0653e-18 -2.37404e-17)
(0.185702 5.12044e-18 -3.51355e-17)
(0.193439 9.41829e-18 -2.56019e-17)
(0.193439 5.56708e-18 -3.64956e-17)
(0.201295 9.73933e-18 -2.75281e-17)
(0.201295 5.80864e-18 -3.7889e-17)
(0.209268 1.00845e-17 -2.95172e-17)
(0.209268 6.17914e-18 -3.93147e-17)
(0.217356 1.03055e-17 -3.15763e-17)
(0.217356 6.67666e-18 -4.07601e-17)
(0.225554 1.08447e-17 -3.36845e-17)
(0.225554 7.195e-18 -4.22287e-17)
(0.233858 1.14773e-17 -3.585e-17)
(0.233858 7.61781e-18 -4.37133e-17)
(0.242262 1.18195e-17 -3.80671e-17)
(0.242262 7.70252e-18 -4.5204e-17)
(0.250759 1.24485e-17 -4.03266e-17)
(0.250759 8.12131e-18 -4.67035e-17)
(0.259342 1.31444e-17 -4.26223e-17)
(0.259342 9.05856e-18 -4.82069e-17)
(0.268002 1.36045e-17 -4.4952e-17)
(0.268002 9.38475e-18 -4.97004e-17)
(0.276731 1.41595e-17 -4.72965e-17)
(0.276731 9.72e-18 -5.11897e-17)
(0.285517 1.43163e-17 -4.96786e-17)
(0.285517 1.0509e-17 -5.26333e-17)
(0.294351 1.435e-17 -5.20652e-17)
(0.294351 1.15035e-17 -5.40502e-17)
(0.303221 1.49114e-17 -5.44401e-17)
(0.303221 1.24276e-17 -5.54358e-17)
(0.312115 1.52313e-17 -5.67918e-17)
(0.312115 1.25113e-17 -5.67824e-17)
(0.321021 1.55894e-17 -5.91281e-17)
(0.321021 1.28311e-17 -5.81007e-17)
(0.329927 1.63235e-17 -6.14763e-17)
(0.329927 1.31995e-17 -5.93485e-17)
(0.338821 1.69476e-17 -6.38108e-17)
(0.338821 1.36024e-17 -6.05077e-17)
(0.347691 1.74687e-17 -6.61004e-17)
(0.347691 1.472e-17 -6.16412e-17)
(0.356526 1.84405e-17 -6.83273e-17)
(0.356526 1.57041e-17 -6.27179e-17)
(0.365315 1.90603e-17 -7.05504e-17)
(0.365315 1.57297e-17 -6.36959e-17)
(0.374048 1.94005e-17 -7.27002e-17)
(0.374048 1.57236e-17 -6.46358e-17)
(0.382714 2.06931e-17 -7.48007e-17)
(0.382714 1.61645e-17 -6.55068e-17)
(0.391307 2.17431e-17 -7.6882e-17)
(0.391307 1.65508e-17 -6.62902e-17)
(0.399818 2.21037e-17 -7.88862e-17)
(0.399818 1.77014e-17 -6.70433e-17)
(0.40824 2.28363e-17 -8.08952e-17)
(0.40824 1.86366e-17 -6.77342e-17)
(0.416568 2.35707e-17 -8.28454e-17)
(0.416568 1.92397e-17 -6.83964e-17)
(0.424796 2.39356e-17 -8.4764e-17)
(0.424796 2.00817e-17 -6.90272e-17)
(0.432921 2.43334e-17 -8.66408e-17)
(0.432921 2.1032e-17 -6.96225e-17)
(0.440939 2.44532e-17 -8.85596e-17)
(0.440939 2.16549e-17 -7.01441e-17)
(0.448847 2.44891e-17 -9.04761e-17)
(0.448847 2.23653e-17 -7.06472e-17)
(0.456645 2.49217e-17 -9.2339e-17)
(0.456645 2.38758e-17 -7.11649e-17)
(0.46433 2.54578e-17 -9.41425e-17)
(0.46433 2.4696e-17 -7.16874e-17)
(0.471902 2.65146e-17 -9.5957e-17)
(0.471902 2.52547e-17 -7.22019e-17)
(0.479362 2.78702e-17 -9.78631e-17)
(0.479362 2.57022e-17 -7.26414e-17)
(0.486709 2.83894e-17 -9.96868e-17)
(0.486709 2.60842e-17 -7.30912e-17)
(0.493944 2.88772e-17 -1.01441e-16)
(0.493944 2.68542e-17 -7.35705e-17)
(0.501068 2.95802e-17 -1.03211e-16)
(0.501068 2.85322e-17 -7.40586e-17)
(0.508083 2.88166e-17 -1.05172e-16)
(0.508083 2.95925e-17 -7.43973e-17)
(0.51499 2.7591e-17 -1.07141e-16)
(0.51499 3.0409e-17 -7.47235e-17)
(0.521791 2.79287e-17 -1.09027e-16)
(0.521791 3.22699e-17 -7.51672e-17)
(0.528488 2.74078e-17 -1.10848e-16)
(0.528488 3.32924e-17 -7.57124e-17)
(0.535084 2.60389e-17 -1.12534e-16)
(0.535084 3.43447e-17 -7.62297e-17)
(0.541579 2.62701e-17 -1.14311e-16)
(0.541579 3.4054e-17 -7.69052e-17)
(0.547978 2.67555e-17 -1.16325e-16)
(0.547978 3.57763e-17 -7.73547e-17)
(0.554281 2.53138e-17 -1.18655e-16)
(0.554281 3.68514e-17 -7.76527e-17)
(0.560492 2.40291e-17 -1.20625e-16)
(0.560492 3.64326e-17 -7.83056e-17)
(0.566612 2.46188e-17 -1.22608e-16)
(0.566612 3.85926e-17 -7.90179e-17)
(0.572645 2.57152e-17 -1.24845e-16)
(0.572645 3.96141e-17 -7.95435e-17)
(0.578591 2.61097e-17 -1.27288e-16)
(0.578591 4.12485e-17 -8.00241e-17)
(0.584455 2.54027e-17 -1.29839e-16)
(0.584455 4.23162e-17 -8.06532e-17)
(0.590238 2.61086e-17 -1.32197e-16)
(0.590238 4.14894e-17 -8.14468e-17)
(0.595942 2.70864e-17 -1.34554e-16)
(0.595942 4.20882e-17 -8.22447e-17)
(0.601569 2.70435e-17 -1.37123e-16)
(0.601569 4.4996e-17 -8.29056e-17)
(0.607123 2.83752e-17 -1.39807e-16)
(0.607123 4.59786e-17 -8.34994e-17)
(0.612604 2.78746e-17 -1.42347e-16)
(0.612604 4.89323e-17 -8.42795e-17)
(0.618016 2.68891e-17 -1.45081e-16)
(0.618016 5.24682e-17 -8.50611e-17)
(0.623359 2.64032e-17 -1.47787e-16)
(0.623359 5.31131e-17 -8.59397e-17)
(0.628636 2.48255e-17 -1.50325e-16)
(0.628636 5.4578e-17 -8.68297e-17)
(0.63385 2.41405e-17 -1.53122e-16)
(0.63385 5.63659e-17 -8.78658e-17)
(0.639001 2.28321e-17 -1.56161e-16)
(0.639001 5.54295e-17 -8.88765e-17)
(0.644092 2.15068e-17 -1.59008e-16)
(0.644092 5.37428e-17 -8.98969e-17)
(0.649125 2.11154e-17 -1.61706e-16)
(0.649125 5.6018e-17 -9.12765e-17)
(0.6541 2.32913e-17 -1.64569e-16)
(0.6541 5.84043e-17 -9.26476e-17)
(0.659021 2.64196e-17 -1.67723e-16)
(0.659021 5.82046e-17 -9.39896e-17)
(0.663888 2.79534e-17 -1.70671e-16)
(0.663888 6.04366e-17 -9.55926e-17)
(0.668702 2.76201e-17 -1.73573e-16)
(0.668702 6.20618e-17 -9.73866e-17)
(0.673467 2.73512e-17 -1.7634e-16)
(0.673467 5.99691e-17 -9.9696e-17)
(0.678182 2.76589e-17 -1.79291e-16)
(0.678182 6.22235e-17 -1.0196e-16)
(0.68285 2.79136e-17 -1.82641e-16)
(0.68285 6.44164e-17 -1.03928e-16)
(0.687472 2.93298e-17 -1.85973e-16)
(0.687472 6.28926e-17 -1.05974e-16)
(0.692048 3.084e-17 -1.89097e-16)
(0.692048 6.53268e-17 -1.08402e-16)
(0.696581 3.10514e-17 -1.93128e-16)
(0.696581 6.83021e-17 -1.10639e-16)
(0.701072 2.86895e-17 -1.97253e-16)
(0.701072 6.79828e-17 -1.1294e-16)
(0.705521 2.75039e-17 -2.01449e-16)
(0.705521 7.1051e-17 -1.15523e-16)
(0.709931 2.80624e-17 -2.05683e-16)
(0.709931 7.48339e-17 -1.18373e-16)
(0.714301 2.47556e-17 -2.10199e-16)
(0.714301 7.5887e-17 -1.21029e-16)
(0.718634 2.08977e-17 -2.14643e-16)
(0.718634 7.50868e-17 -1.23576e-16)
(0.72293 1.93844e-17 -2.18423e-16)
(0.72293 7.53917e-17 -1.24316e-16)
(0.72719 1.67465e-17 -2.23001e-16)
(0.72719 7.88827e-17 -1.25201e-16)
(0.731415 1.78967e-17 -2.27318e-16)
(0.731415 7.98377e-17 -1.25698e-16)
(0.735606 2.05801e-17 -2.3217e-16)
(0.735606 7.87809e-17 -1.26801e-16)
(0.739765 1.92624e-17 -2.37072e-16)
(0.739765 7.79771e-17 -1.27499e-16)
(0.743891 1.95129e-17 -2.41633e-16)
(0.743891 7.67884e-17 -1.27515e-16)
(0.747987 2.1775e-17 -2.47125e-16)
(0.747987 7.96081e-17 -1.28723e-16)
(0.752052 2.17971e-17 -2.52493e-16)
(0.752052 7.8724e-17 -1.29215e-16)
(0.756087 1.98794e-17 -2.57571e-16)
(0.756087 7.6248e-17 -1.28966e-16)
(0.760094 2.10055e-17 -2.62832e-16)
(0.760094 7.39555e-17 -1.28421e-16)
(0.764073 2.446e-17 -2.68306e-16)
(0.764073 7.102e-17 -1.28717e-16)
(0.768024 2.31666e-17 -2.75052e-16)
(0.768024 7.05601e-17 -1.30359e-16)
(0.771949 2.05235e-17 -2.81254e-16)
(0.771949 7.05695e-17 -1.30918e-16)
(0.775848 1.90581e-17 -2.86341e-16)
(0.775848 7.14425e-17 -1.31172e-16)
(0.779721 1.82204e-17 -2.9204e-16)
(0.779721 7.23304e-17 -1.31876e-16)
(0.783571 1.87374e-17 -2.9723e-16)
(0.783571 7.15722e-17 -1.32667e-16)
(0.787396 2.07819e-17 -3.02169e-16)
(0.787396 6.88534e-17 -1.32872e-16)
(0.791198 2.29163e-17 -3.08701e-16)
(0.791198 7.15727e-17 -1.33697e-16)
(0.794977 2.25525e-17 -3.15418e-16)
(0.794977 7.52301e-17 -1.33963e-16)
(0.798733 2.16694e-17 -3.22442e-16)
(0.798733 7.5338e-17 -1.34582e-16)
(0.802468 2.15258e-17 -3.28503e-16)
(0.802468 7.59605e-17 -1.33954e-16)
(0.806182 2.48133e-17 -3.36528e-16)
(0.806182 7.98262e-17 -1.34066e-16)
(0.809876 2.63362e-17 -3.44815e-16)
(0.809876 8.17012e-17 -1.32356e-16)
(0.813549 2.15757e-17 -3.53928e-16)
(0.813549 7.72351e-17 -1.30663e-16)
(0.817202 1.45148e-17 -3.63049e-16)
(0.817202 7.29176e-17 -1.28906e-16)
(0.820836 8.97782e-18 -3.71708e-16)
(0.820836 7.52064e-17 -1.26898e-16)
(0.824452 4.72356e-18 -3.78855e-16)
(0.824452 7.92293e-17 -1.23641e-16)
(0.828049 1.8187e-18 -3.86552e-16)
(0.828049 7.69216e-17 -1.20736e-16)
(0.831628 -1.43585e-18 -3.9581e-16)
(0.831628 7.09015e-17 -1.20109e-16)
(0.83519 -8.56459e-18 -4.02874e-16)
(0.83519 6.36335e-17 -1.16983e-16)
(0.838735 -1.66153e-17 -4.10287e-16)
(0.838735 6.75413e-17 -1.12994e-16)
(0.842263 -1.8945e-17 -4.1776e-16)
(0.842263 7.06545e-17 -1.08481e-16)
(0.845774 -1.65577e-17 -4.25176e-16)
(0.845774 6.32088e-17 -1.04583e-16)
(0.84927 -1.67719e-17 -4.34302e-16)
(0.84927 6.34379e-17 -1.0224e-16)
(0.852749 -1.63286e-17 -4.42874e-16)
(0.852749 6.15183e-17 -9.7705e-17)
(0.856214 -1.39586e-17 -4.52523e-16)
(0.856214 5.62444e-17 -9.41899e-17)
(0.859663 -1.7063e-17 -4.63582e-16)
(0.859663 5.25444e-17 -9.17546e-17)
(0.863098 -2.10716e-17 -4.74415e-16)
(0.863098 4.71688e-17 -8.75525e-17)
(0.866518 -2.33782e-17 -4.86521e-16)
(0.866518 4.57442e-17 -8.29728e-17)
(0.869924 -2.76779e-17 -4.91108e-16)
(0.869924 4.01491e-17 -7.89313e-17)
(0.873317 -3.32261e-17 -4.93601e-16)
(0.873317 3.28137e-17 -7.06907e-17)
(0.876695 -3.5807e-17 -4.9341e-16)
(0.876695 3.29215e-17 -6.42185e-17)
(0.880061 -2.60077e-17 -4.94214e-16)
(0.880061 2.85848e-17 -6.45082e-17)
(0.883413 -2.39504e-17 -4.88943e-16)
(0.883413 3.11211e-17 -7.07986e-17)
(0.886752 -3.03816e-17 -4.88609e-16)
(0.886752 2.36855e-17 -6.97669e-17)
(0.890079 -3.36438e-17 -4.86931e-16)
(0.890079 2.90418e-17 -6.92333e-17)
(0.893393 -3.5518e-17 -4.85473e-16)
(0.893393 3.5394e-17 -7.02416e-17)
(0.896695 -3.71724e-17 -4.86235e-16)