/*--------------------------------*- C++ -*----------------------------------*\
| =========                 |                                                 |
| \\      /  F ield         | OpenFOAM: The Open Source CFD Toolbox           |
|  \\    /   O peration     | Version:  2106                                  |
|   \\  /    A nd           | Website:  www.openfoam.com                      |
|    \\/     M anipulation  |                                                 |
\*---------------------------------------------------------------------------*/
FoamFile
{
    version     2.0;
    format      ascii;
    arch        "LSB;label=32;scalar=64";
    class       volTensorField;
    location    "10060";
    object      grad(U);
}
// * * * * * * * * * * * * * * * * * * * * * * * * * * * * * * * * * * * * * //

dimensions      [0 0 -1 0 0 0 0];

internalField   nonuniform List<tensor> 
800
(
(0 -3.93457e-30 -4.48416e-44 13.3705 -2.65065e-12 3.66972e-46 0.0613706 -6.5481e-15 -3.38503e-28)
(0 5.2461e-30 6.14777e-32 13.3705 -4.3113e-16 4.19763e-15 0.0613706 -1.9499e-17 6.78298e-17)
(-2.20239e-17 -1.6727e-26 2.67674e-28 13.3642 7.82543e-32 2.30418e-14 0.186976 0 2.04577e-16)
(0 -1.92353e-28 3.91223e-32 13.3642 3.9443e-31 3.82481e-15 0.186976 -3.08149e-33 3.0749e-16)
(-5.97673e-18 -1.22864e-29 2.24065e-31 13.3576 1.44325e-13 1.29715e-14 0.275433 -2.596e-15 2.53844e-16)
(4.78138e-17 1.67302e-29 -2.24065e-31 13.3576 6.79259e-16 4.56038e-16 0.275433 1.64817e-17 3.35234e-16)
(0 0 0 13.3507 1.09663e-13 1.52346e-14 0.288395 -3.23384e-15 3.23446e-16)
(-8.02694e-17 0 0 13.3507 1.73366e-15 3.13995e-16 0.288395 2.82761e-17 3.63929e-16)
(-4.14188e-17 -1.11976e-31 6.42649e-32 13.3435 2.19645e-14 1.61796e-14 0.30196 -1.3512e-15 3.75307e-16)
(0 6.5331e-30 -2.0416e-31 13.3435 1.5785e-15 1.92556e-16 0.30196 3.3622e-17 3.93717e-16)
(0 1.45511e-29 -5.1968e-31 13.3359 -1.29641e-14 1.71112e-14 0.316154 -1.73644e-16 4.1837e-16)
(-2.41606e-16 -1.4563e-29 5.1968e-31 13.3359 1.39173e-15 6.23478e-17 0.316154 3.07835e-17 4.24536e-16)
(-8.02781e-17 8.21668e-30 -2.65105e-31 13.328 -4.85334e-15 1.82078e-14 0.331006 -5.92306e-17 4.66383e-16)
(0 -1.98424e-30 1.24015e-31 13.328 1.23629e-15 -8.1326e-17 0.331006 2.91773e-17 4.5622e-16)
(-1.0109e-16 -1.52216e-30 -2.53009e-32 13.3196 -2.21836e-15 1.93462e-14 0.346544 -5.34191e-17 5.18415e-16)
(0 7.57621e-30 -1.18378e-31 13.3196 1.17337e-15 -2.36762e-16 0.346544 3.05096e-17 4.88622e-16)
(-1.2288e-16 1.31133e-29 -7.12736e-31 13.3108 -2.21129e-15 2.05072e-14 0.362799 -6.46197e-17 5.75164e-16)
(9.83044e-16 -7.15987e-30 4.51991e-31 13.3108 1.06681e-15 -4.05113e-16 0.362799 2.62113e-17 5.21546e-16)
(4.85767e-16 -6.90316e-30 4.31448e-31 13.3015 -2.30644e-15 2.16988e-14 0.3798 -6.40631e-17 6.37032e-16)
(-2.42884e-16 6.90316e-30 -4.31448e-31 13.3015 6.40122e-16 -5.93843e-16 0.3798 9.10883e-18 5.54889e-16)
(4.63688e-16 -6.5894e-30 2.05919e-31 13.2916 -1.76778e-15 2.20194e-14 0.397579 -3.86828e-17 6.5043e-16)
(-6.78328e-16 -1.4013e-45 -2.05919e-31 13.2916 1.06399e-30 -7.96333e-16 0.397579 2.46519e-32 5.88172e-16)
(-4.15897e-16 5.42019e-30 1.8164e-28 13.281 -9.93242e-16 0 0.416164 -2.17484e-17 0)
(7.78361e-16 6.53353e-32 1.9656e-31 13.281 -7.32768e-17 -9.91249e-16 0.416164 1.12184e-18 6.21137e-16)
(0 9.00603e-30 -7.50503e-31 13.2694 -6.3366e-16 -1.90079e-15 0.435584 -1.88362e-17 5.12621e-17)
(4.60594e-16 -5.93944e-30 3.75251e-31 13.2694 -4.41882e-16 -1.18953e-15 0.435584 9.37171e-18 6.53791e-16)
(-2.48183e-16 1.0874e-29 -7.00715e-31 13.2567 -5.15519e-16 -2.48013e-15 0.455863 -1.57395e-17 7.11449e-17)
(0 -2.86556e-30 1.79098e-31 13.2567 -6.30768e-16 -1.43328e-15 0.455863 2.10429e-17 6.86008e-16)
(0 0 -3.41915e-31 13.2423 0 -3.07492e-15 0.477018 0 9.61244e-17)
(0 -5.47064e-30 0 13.2423 -9.51557e-16 -1.05616e-15 0.477018 7.84844e-17 7.16642e-16)
(0 1.30907e-30 -1.63187e-31 13.2258 5.02827e-16 -3.64402e-15 0.499058 -9.27242e-18 1.20958e-16)
(0 -5.22199e-30 0 13.2258 -1.65023e-15 -3.62933e-16 0.499058 1.34568e-16 7.56875e-16)
(-3.50763e-16 7.47696e-30 -4.6731e-31 13.2062 1.77747e-15 -4.208e-15 0.521976 -6.09917e-17 1.48474e-16)
(0 -4.98464e-30 1.5577e-31 13.2062 -2.16456e-15 -1.93784e-16 0.521976 1.28917e-16 7.98903e-16)
(-7.42579e-16 1.16682e-29 -4.12147e-31 13.1824 2.31362e-15 -4.80169e-15 0.545744 -7.67273e-17 1.7737e-16)
(-2.1548e-15 -4.75808e-30 0 13.1824 -2.61261e-15 -2.64092e-16 0.545744 1.13079e-16 8.26604e-16)
(-2.33455e-16 4.55514e-30 -5.88906e-31 13.1528 2.91408e-15 -5.39832e-15 0.570302 -1.11375e-16 2.12155e-16)
(-3.246e-15 -2.27091e-30 2.83864e-31 13.1528 -2.97625e-15 -3.27642e-16 0.570302 9.16681e-17 8.49448e-16)
(-4.41819e-16 1.74247e-29 -9.21777e-31 13.1154 2.03268e-15 -6.00702e-15 0.595547 -1.36345e-16 2.46468e-16)
(0 -1.51739e-29 8.12885e-31 13.1154 -3.11653e-15 -3.66725e-16 0.595547 8.15274e-17 8.68892e-16)
(4.79566e-16 -4.49187e-29 6.12112e-31 13.0673 1.80755e-15 -6.75083e-15 0.621322 -4.20605e-17 2.88208e-16)
(-1.91827e-15 8.27668e-30 -5.17292e-31 13.0673 -4.01116e-15 -4.097e-16 0.621322 6.02967e-17 8.82872e-16)
(5.55947e-16 -5.92537e-30 2.4689e-31 13.005 5.35285e-15 -7.4979e-15 0.647394 -3.11282e-16 3.41378e-16)
(2.07624e-15 7.90049e-30 -3.70335e-31 13.005 -4.65443e-15 -2.95045e-16 0.647394 2.04104e-17 8.9107e-16)
(-5.60368e-16 4.11357e-30 -5.92731e-32 12.9242 4.50509e-15 -8.07499e-15 0.673446 -2.08276e-16 3.90889e-16)
(6.72441e-15 -1.88535e-30 0 12.9242 -4.83471e-15 -1.62679e-16 0.673446 -1.68767e-17 8.96171e-16)
(1.01312e-15 -7.19863e-30 1.12479e-31 12.8196 5.3331e-15 -8.70768e-15 0.699061 -2.52969e-16 4.35016e-16)
(0 1.07979e-29 -1.12479e-31 12.8196 -5.84983e-15 -3.28162e-16 0.699061 -7.70193e-17 8.94857e-16)
(0 -3.43572e-30 -1.07366e-31 12.6856 6.57589e-15 -9.50034e-15 0.72372 -3.19303e-16 4.98321e-16)
(0 3.43572e-30 1.07366e-31 12.6856 -6.23398e-15 -5.43833e-16 0.72372 -1.71732e-16 8.78643e-16)
(6.95641e-16 -2.16938e-30 0 12.5159 7.12502e-15 -1.02691e-14 0.746814 -4.20282e-16 5.06781e-16)
(0 0 0 12.5159 -5.58589e-15 -5.76594e-16 0.746814 -2.45953e-16 8.50746e-16)
(1.76232e-15 -6.261e-30 1.46742e-31 12.3046 7.28904e-15 -1.10541e-14 0.76767 -4.16466e-16 3.71024e-16)
(-1.76232e-15 9.3915e-30 -1.46742e-31 12.3046 -6.02511e-15 -5.62184e-16 0.76767 -3.02745e-16 8.11933e-16)
(-7.95346e-16 8.11659e-30 -1.05054e-31 12.0468 8.46099e-15 -1.16883e-14 0.785603 -4.81921e-16 2.12369e-16)
(1.49917e-15 -2.98822e-30 7.00363e-32 12.0468 -6.37771e-15 -4.64971e-16 0.785603 -3.70251e-16 7.60405e-16)
(-8.47863e-16 -9.30117e-30 4.45687e-32 11.7392 9.90018e-15 -1.21219e-14 0.79998 -6.11734e-16 3.39949e-17)
(5.17715e-15 1.4262e-29 -2.22843e-32 11.7392 -6.74034e-15 -4.60883e-16 0.79998 -4.38007e-16 7.02314e-16)
(9.01941e-16 3.3731e-30 4.2543e-32 11.3808 1.10031e-14 -1.24809e-14 0.810296 -7.27882e-16 -1.63814e-16)
(0 -5.4455e-30 0 11.3808 -8.7285e-15 -5.02088e-16 0.810296 -5.6379e-16 6.28274e-16)
(0 -1.2995e-29 -4.06093e-31 10.9739 1.12924e-14 -1.28467e-14 0.816233 -8.31122e-16 -3.74378e-16)
(7.65874e-15 1.2995e-29 4.06093e-31 10.9739 -9.30769e-15 -3.13123e-16 0.816233 -7.53601e-16 5.42415e-16)
(1.01378e-15 -4.48715e-30 0 10.5235 1.09676e-14 -1.30455e-14 0.817705 -8.42752e-16 -6.03624e-16)
(4.0551e-15 2.48087e-30 0 10.5235 -8.48685e-15 -2.82792e-16 0.817705 -9.44103e-16 4.5511e-16)
(1.33313e-15 -7.10433e-30 -2.96014e-31 10.0374 1.13379e-14 -1.31955e-14 0.814862 -8.60522e-16 -8.42325e-16)
(0 9.47244e-30 4.44021e-31 10.0374 -7.94853e-15 -5.91454e-16 0.814862 -1.1176e-15 3.56644e-16)
(-1.1284e-15 -2.5867e-30 -8.47678e-31 9.52512 1.19439e-14 -1.33484e-14 0.808065 -9.86582e-16 -1.10457e-15)
(3.24105e-15 6.78143e-30 8.47678e-31 9.52512 -7.09264e-15 -6.03364e-16 0.808065 -1.28894e-15 2.4171e-16)
(-2.37178e-15 5.9443e-30 4.64765e-32 8.99721 1.18215e-14 -1.32862e-14 0.797827 -1.05014e-15 -1.21069e-15)
(4.74355e-15 -2.15773e-30 0 8.99721 -6.90967e-15 -3.90547e-16 0.797827 -1.46016e-15 1.29605e-16)
(-1.15949e-15 6.17898e-30 7.72373e-31 8.46397 1.29762e-14 -1.31627e-14 0.784752 -1.06041e-15 -1.25188e-15)
(-1.15949e-15 0 0 8.46397 -7.51412e-15 -4.64059e-16 0.784752 -1.64152e-15 1.84293e-17)
(-3.12751e-15 1.19901e-29 2.35574e-30 7.9348 1.31259e-14 -1.27276e-14 0.769472 -1.37361e-15 -1.24146e-15)
(7.41212e-15 -1.17963e-29 -1.96605e-30 7.9348 -7.77844e-15 -4.35804e-16 0.769472 -1.83607e-15 -9.38754e-17)
(3.46833e-15 -7.38597e-30 -1.5399e-30 7.41763 1.04559e-14 -1.25011e-14 0.752589 -1.19383e-15 -1.32634e-15)
(3.30853e-15 5.63006e-30 1.40751e-30 7.41763 -7.41392e-15 -5.72207e-17 0.752589 -2.02484e-15 -1.9331e-16)
(3.42701e-15 -5.34051e-30 -1.50744e-30 6.91865 1.06472e-14 -1.27549e-14 0.734649 -9.46476e-16 -1.41837e-15)
(5.64033e-15 1.79139e-30 1.34354e-30 6.91865 -7.88617e-15 8.86609e-17 0.734649 -2.23801e-15 -2.7331e-16)
(-4.6162e-16 1.76149e-30 6.42171e-31 6.44233 1.20192e-14 -1.25808e-14 0.716116 -1.35234e-15 -1.41551e-15)
(0 0 -4.27492e-31 6.44233 -9.08303e-15 1.18515e-16 0.716116 -2.53598e-15 -3.4952e-16)
(1.83775e-15 -3.26449e-30 -8.04277e-30 5.99157 9.47383e-15 -4.51509e-15 0.697371 -1.35517e-15 -2.66374e-16)
(0 3.26449e-30 9.89937e-31 5.99157 -8.11236e-15 7.31083e-17 0.697371 -2.8495e-15 -4.029e-16)
(-4.88802e-15 6.43033e-30 2.36469e-45 5.56794 7.93014e-15 8.62712e-30 0.678711 -8.69213e-16 0)
(0 0 -2.62743e-46 5.56794 -6.61123e-15 -1.03538e-30 0.678711 -3.13033e-15 -4.57999e-16)
(1.61654e-15 -1.59846e-30 3.62922e-31 5.17194 8.61019e-15 4.05192e-15 0.660362 -1.09658e-15 -5.0602e-16)
(-6.46618e-15 2.97448e-30 7.43621e-31 5.17194 -5.53911e-15 -2.44759e-16 0.660362 -3.43912e-15 -5.1878e-16)
(1.66485e-15 -4.40368e-30 -1.77776e-30 4.80332 8.02725e-15 4.2251e-15 0.642486 -1.13428e-15 -5.44292e-16)
(6.65939e-15 2.83929e-30 2.12947e-30 4.80332 -5.10161e-15 2.34688e-17 0.642486 -3.60969e-15 -5.66847e-16)
(1.71183e-15 -1.54962e-30 -3.31584e-31 4.46123 7.61311e-15 4.06226e-15 0.625196 -1.04156e-15 -6.03461e-16)
(-6.84731e-15 0 -7.06477e-32 4.46123 -5.65975e-15 -6.30316e-46 0.625196 -3.90112e-15 -5.09071e-16)
(-2.91276e-15 5.17411e-30 1.29353e-30 4.14449 7.38704e-15 3.99666e-15 0.608561 -1.12435e-15 -5.49972e-16)
(0 -2.58705e-30 -6.46763e-31 4.14449 -4.97194e-15 -4.07021e-16 0.608561 -4.22397e-15 -4.20423e-16)
(-1.80196e-15 1.47561e-30 9.01121e-31 3.85165 7.77457e-15 4.09257e-15 0.592623 -1.07419e-15 -6.423e-16)
(0 0 0 3.85165 -5.06765e-15 -6.33208e-16 0.592623 -4.45241e-15 -3.6218e-16)
(0 -4.71445e-30 -1.17861e-30 3.58118 7.39064e-15 3.70678e-15 0.577398 -1.35775e-15 -6.34225e-16)
(2.654e-15 2.35723e-30 1.17861e-30 3.58118 -4.48858e-15 -1.34746e-15 0.577398 -4.75404e-15 -2.67844e-16)
(-3.77454e-15 7.33779e-30 2.18617e-30 3.3315 5.18289e-15 3.33343e-15 0.562884 -1.05046e-15 -5.75841e-16)
(7.54908e-15 -4.50018e-30 -1.68757e-30 3.3315 -3.95501e-15 -2.27873e-15 0.562884 -4.88718e-15 -3.55988e-16)
(2.41823e-15 0 0 3.10104 5.11817e-15 2.1795e-15 0.549067 -7.16253e-16 -5.65193e-16)
(-7.71299e-15 0 0 3.10104 -4.98304e-15 -2.6216e-15 0.549067 -5.2143e-15 -4.9059e-16)
(1.62802e-15 1.37114e-30 9.78393e-31 2.88831 6.28551e-15 7.53687e-16 0.535926 -1.12912e-15 -2.08241e-16)
(1.0181e-14 -4.10039e-30 -1.53765e-30 2.88831 -3.74494e-15 -1.37332e-15 0.535926 -5.52268e-15 -6.521e-16)
(-2.2034e-15 0 0 2.69187 6.65118e-15 -5.8485e-18 0.52343 -1.23516e-15 -7.7563e-17)
(5.82496e-15 1.95701e-30 9.78506e-31 2.69187 -3.36563e-15 4.61019e-16 0.52343 -5.75128e-15 -6.59888e-16)
(0 3.73612e-30 1.75162e-46 2.51038 6.96993e-15 0 0.51155 -1.38658e-15 0)
(0 -3.73612e-30 -1.86806e-30 2.51038 -3.95871e-15 1.17191e-15 0.51155 -5.97728e-15 -5.86994e-16)
(0 3.56631e-30 4.93889e-31 2.34259 6.28776e-15 9.1587e-17 0.50025 -1.49017e-15 -9.89202e-18)
(0 -3.56631e-30 -1.78316e-30 2.34259 -1.44481e-15 1.26249e-15 0.50025 -6.14107e-15 -5.18438e-16)
(0 1.70211e-30 8.51054e-31 2.18736 5.47393e-15 1.56368e-15 0.489495 -1.22003e-15 -2.52055e-16)
(6.55691e-15 1.70211e-30 -4.25527e-31 2.18736 -7.33881e-17 8.68391e-16 0.489495 -6.24716e-15 -4.0227e-16)
(4.30743e-15 -6.63917e-31 7.04687e-31 2.04363 4.86439e-15 1.72075e-15 0.479251 -1.25835e-15 -4.60511e-16)
(0 -1.62475e-30 -1.62475e-30 2.04363 -6.07179e-16 2.82383e-16 0.479251 -6.30336e-15 -3.39008e-16)
(-2.18833e-15 -1.98117e-30 -1.28437e-30 1.91043 3.22653e-15 2.03424e-15 0.469482 -1.04309e-15 -3.52878e-16)
(1.75066e-14 3.1018e-30 1.5509e-30 1.91043 1.47874e-15 -1.62706e-16 0.469482 -6.42704e-15 -4.46122e-16)
(5.55578e-15 -2.63316e-30 -5.6389e-31 1.78688 2.73258e-15 2.81717e-15 0.460156 -5.481e-16 -6.64837e-16)
(8.88879e-15 1.48041e-30 1.11031e-30 1.78688 6.23749e-16 -5.94261e-16 0.460156 -6.23592e-15 -5.39377e-16)
(9.26701e-16 -1.74262e-30 -1.61644e-30 1.67218 3.92819e-15 2.42982e-15 0.451239 -8.81631e-16 -8.04401e-16)
(0 2.82624e-30 2.11968e-30 1.67218 -1.68067e-15 -3.976e-16 0.451239 -6.52321e-15 -5.21263e-16)
(0 -2.69778e-30 -1.01167e-30 1.5656 2.73543e-15 1.66238e-15 0.4427 -1.26885e-15 -5.13464e-16)
(1.83029e-14 2.69778e-30 1.01167e-30 1.5656 3.94435e-16 -2.8859e-16 0.4427 -6.76801e-15 -4.67456e-16)
(5.21909e-15 -3.70346e-30 -7.91631e-31 1.46647 -5.57177e-17 1.95778e-15 0.434509 -3.17163e-16 -4.34102e-16)
(9.27886e-15 2.57517e-30 6.43791e-31 1.46647 1.86305e-15 -8.63456e-16 0.434509 -6.57359e-15 -7.01011e-16)
(2.7676e-15 -5.49671e-60 -3.07265e-31 1.37418 -9.81008e-30 1.88045e-15 0.426639 0 -7.44472e-16)
(9.40383e-15 2.45812e-30 3.07265e-31 1.37418 9.52217e-16 -1.03423e-15 0.426639 -6.6391e-15 -8.71488e-16)
(0 2.3464e-30 0 1.28818 1.94107e-15 6.96485e-16 0.419061 -4.5438e-16 -4.26805e-16)
(-9.52645e-15 0 0 1.28818 5.90459e-16 -1.04331e-15 0.419061 -6.75551e-15 -9.02492e-16)
(2.41171e-15 -3.38813e-30 -2.13078e-30 1.20798 2.75488e-15 1.22706e-16 0.411749 -8.28917e-16 -2.11027e-17)
(9.64682e-15 2.23975e-30 5.59937e-31 1.20798 -1.76567e-17 -1.50963e-15 0.411749 -6.89097e-15 -9.06653e-16)
(2.44126e-15 1.05753e-30 -1.36174e-31 1.13311 3.38443e-15 8.60314e-16 0.40468 -1.07184e-15 -4.66978e-16)
(-2.40712e-15 2.13795e-30 0 1.13311 -1.04832e-15 -1.87046e-15 0.40468 -6.13518e-15 -9.70041e-16)
(-2.47029e-15 -1.04969e-30 -7.61794e-32 1.06316 3.0793e-15 -5.87489e-17 0.397828 -1.37423e-15 -1.97885e-16)
(1.97623e-14 -3.10032e-30 -3.20592e-30 1.06316 -8.97297e-16 -7.45943e-16 0.397828 -4.35521e-15 -1.40793e-16)
(-2.49882e-15 9.99535e-31 6.34963e-46 0.997758 2.54498e-15 -5.70944e-31 0.391173 -9.40494e-16 -6.53094e-48)
(-9.99527e-15 4.33578e-30 6.6304e-31 0.997758 -1.19074e-15 -1.0431e-17 0.391173 -3.1462e-15 -2.64558e-16)
(0 -1.85948e-30 0 0.936548 2.3508e-15 1.6522e-15 0.38469 -1.07555e-15 -3.70453e-16)
(0 0 0 0.936548 4.34645e-16 5.01285e-17 0.38469 -1.38775e-15 -6.92031e-17)
(-9.10572e-15 1.90486e-30 2.2187e-31 0.879216 3.55173e-15 8.00579e-16 0.37836 -8.6746e-16 -9.02048e-16)
(3.99686e-15 0 0 0.879216 8.06929e-16 -7.2989e-16 0.37836 -1.60443e-15 -6.17259e-16)
(-2.58155e-15 -1.01591e-30 0 0.825473 3.93774e-15 -1.38628e-15 0.372161 -2.24769e-15 -1.10337e-15)
(-1.03262e-14 3.22696e-30 6.19745e-31 0.825473 4.73139e-30 9.08675e-31 0.372161 0 0)
(0 0 -1.92331e-31 0.775054 7.91088e-16 -1.09434e-15 0.366073 -1.76163e-15 -2.60637e-16)
(0 0 0 0.775054 1.84513e-15 2.04424e-16 0.366073 -6.11695e-16 -8.1408e-16)
(-5.2689e-15 1.53882e-31 2.1179e-31 0.727715 -1.0472e-15 -8.69303e-18 0.360076 -4.39077e-16 -2.169e-18)
(0 1.54377e-30 3.80223e-32 0.727715 1.46672e-16 -8.63805e-16 0.360076 -1.15884e-15 -2.15528e-16)
(5.97852e-15 -6.52637e-31 -7.97596e-31 0.683232 -2.42252e-15 -5.11498e-16 0.354148 -2.13321e-15 -5.77667e-16)
(0 0 0 0.683232 -1.65126e-15 -3.03981e-30 0.354148 -6.52782e-16 -1.97215e-31)
(-2.20385e-15 -8.75812e-47 -2.18953e-47 0.641398 0 0 0.348269 0 0)
(1.07426e-14 -3.40078e-30 -2.2801e-31 0.641398 -2.24873e-16 7.19419e-16 0.348269 -8.54839e-16 -7.04223e-16)
(5.7341e-15 -1.00167e-30 -1.52971e-31 0.602023 2.30053e-16 8.75402e-16 0.342417 -5.40791e-16 -3.4646e-16)
(1.86615e-14 -6.83856e-30 -2.72437e-31 0.602023 3.37606e-16 7.22094e-16 0.342417 -7.45735e-16 -7.7376e-16)
(5.77211e-15 -7.66661e-31 0 0.564928 3.25405e-30 1.49771e-15 0.336571 0 -6.65485e-16)
(1.09408e-14 -3.23875e-30 -9.65998e-32 0.564928 -3.74631e-16 1.73292e-15 0.336571 -9.8639e-16 -5.20803e-16)
(-2.75936e-15 6.90731e-31 0 0.529952 -2.94085e-16 9.41478e-16 0.330705 -1.77469e-15 -6.86325e-16)
(0 9.75576e-31 0 0.529952 3.26683e-45 6.44064e-16 0.330705 -7.88861e-31 -1.79634e-16)
(5.25933e-15 3.50325e-46 -8.79813e-31 0.496939 3.05941e-30 3.99749e-17 0.324794 1.57772e-30 -1.31852e-17)
(2.22651e-14 -4.44345e-30 -1.62997e-30 0.496939 2.02965e-15 -3.04101e-16 0.324794 -2.51766e-15 -1.00304e-16)
(-2.8065e-15 5.62457e-31 0 0.465749 2.34342e-15 1.64629e-15 0.318812 -2.7969e-15 -2.2909e-16)
(1.1226e-14 -2.84551e-30 -9.1711e-31 0.465749 3.39047e-16 1.37393e-15 0.318812 -1.17907e-15 -4.74752e-16)
(-2.82947e-15 8.89736e-31 0 0.436247 1.06644e-15 4.31394e-16 0.312726 -3.86048e-16 1.64443e-16)
(-1.611e-14 3.04472e-30 0 0.436247 -1.64325e-15 1.82466e-15 0.312726 -1.64464e-15 3.92904e-16)
(0 2.0314e-30 -8.2196e-32 0.408307 8.42202e-16 1.97215e-31 0.306503 -3.28742e-15 1.97428e-16)
(1.14081e-14 -1.12104e-44 -3.80887e-31 0.408307 5.1276e-30 1.57605e-15 0.306503 0 7.06705e-16)
(4.36639e-15 -4.37906e-46 -1.06666e-30 0.381808 1.8351e-29 4.11674e-16 0.300103 -1.57772e-30 1.44135e-16)
(-4.36639e-15 0 8.93328e-45 0.381808 4.6027e-15 -1.99775e-30 0.300103 -5.53224e-15 0)
(-2.89593e-15 1.83473e-30 -1.7959e-31 0.356638 2.15135e-15 1.30922e-16 0.293484 -1.19931e-15 2.94108e-16)
(-1.15837e-14 -4.0222e-31 9.21851e-32 0.356638 -2.46519e-30 -3.73647e-15 0.293484 -2.8983e-15 -3.56371e-16)
(-3.97849e-15 -8.83403e-31 -8.83403e-31 0.332685 1.80598e-15 -6.61081e-16 0.286593 -2.41049e-15 -5.6711e-16)
(-7.6905e-15 3.9128e-30 0 0.332685 -1.03996e-15 2.69204e-45 0.286593 -1.20884e-15 0)
(2.93814e-15 -1.39193e-30 3.99188e-32 0.309844 1.04337e-15 -2.93549e-46 0.279371 -2.03925e-15 -2.87645e-16)
(-1.17525e-14 3.13274e-30 2.10813e-31 0.309844 1.4858e-29 2.15413e-15 0.279371 0 -8.1947e-16)
(6.58363e-15 1.24381e-30 -1.25769e-31 0.28801 8.02572e-17 -5.21206e-16 0.271746 -3.07441e-15 1.60875e-16)
(1.18343e-14 -5.41121e-30 7.54616e-32 0.28801 3.84017e-16 1.27355e-15 0.271746 -1.83767e-16 -2.79996e-16)
(1.28777e-14 -1.48758e-30 -5.16227e-31 0.267077 -6.12406e-16 -2.33459e-15 0.263633 -7.56467e-16 7.21697e-17)
(-6.92058e-15 0 4.56201e-31 0.267077 9.68135e-16 1.20691e-15 0.263633 -1.19825e-15 4.62606e-16)
(6.30108e-15 -7.3236e-31 -1.48672e-30 0.246939 -5.09882e-16 -5.34693e-30 0.254929 -1.00836e-15 0)
(-3.30301e-15 0 1.45385e-44 0.246939 1.39436e-15 3.28908e-30 0.254929 -7.32308e-16 0)
(3.15289e-15 -2.3407e-31 -1.7502e-31 0.227488 -2.49836e-29 2.31498e-15 0.245508 7.88861e-31 -4.2845e-17)
(-3.15289e-15 0 2.62531e-31 0.227488 8.99703e-16 -1.84043e-15 0.245508 -3.40712e-15 3.14643e-17)
(0 0 0 0.208604 1.12052e-15 7.69416e-16 0.235211 -2.10185e-15 4.24777e-16)
(0 0 -8.35327e-32 0.208604 0 -5.40956e-16 0.235211 -1.80028e-15 1.38696e-16)
(0 0 0 0.190163 -6.61901e-16 1.08879e-16 0.22384 -2.10095e-15 9.67003e-17)
(0 0 -7.9736e-32 0.190163 -1.31079e-15 -1.96087e-16 0.22384 -2.10052e-15 -7.58187e-18)
(0 1.4013e-43 -1.52224e-31 0.172019 -3.15208e-29 -5.49077e-16 0.211141 -1.54697e-46 2.71871e-16)
(-2.74222e-15 1.56553e-31 8.33362e-47 0.172019 -4.24607e-16 9.49689e-32 0.211141 -2.68605e-16 4.93038e-32)
(6.17472e-15 8.75812e-44 -3.14704e-31 0.15401 -1.97167e-29 -9.86076e-32 0.196788 -1.59236e-15 4.67844e-16)
(7.11428e-15 -1.7648e-30 0 0.15401 -1.34158e-16 1.21203e-16 0.196788 -1.03285e-15 1.75805e-16)
(0 0 0 0.135944 -6.7128e-16 1.0005e-15 0.180359 -1.37256e-15 6.8423e-16)
(0 1.10961e-30 0 0.135944 -7.09356e-16 -7.47656e-16 0.180359 -9.34826e-16 9.35333e-16)
(-3.11845e-15 7.45352e-31 -5.47382e-48 0.117592 -2.32835e-16 -2.06053e-32 0.161312 -2.39054e-15 -1.2326e-32)
(1.24738e-14 -2.82665e-30 4.19298e-32 0.117592 -1.24031e-15 5.76487e-32 0.161312 -2.71506e-15 1.51068e-16)
(1.42053e-15 0 -5.05515e-31 0.0986895 -1.42627e-30 -4.87275e-15 0.138961 -5.93438e-15 9.58766e-16)
(-4.55328e-15 0 5.05515e-31 0.0986895 -1.56595e-15 -2.0811e-15 0.138961 -2.04211e-15 1.87945e-16)
(0 -2.52259e-30 -9.65078e-31 0.078943 4.20727e-29 -6.43807e-15 0.112488 -1.57772e-30 -1.71556e-15)
(2.51685e-14 -8.28567e-30 9.65078e-31 0.078943 3.11957e-17 -3.01199e-15 0.112488 -1.942e-16 -4.89401e-16)
(-3.15824e-15 6.15221e-31 -3.41567e-45 0.0580619 7.73811e-16 1.79264e-29 0.0809988 -6.47105e-16 0)
(1.2633e-14 -3.44974e-30 0 0.0580619 9.92111e-16 5.93693e-17 0.0809988 -2.24132e-15 -2.57351e-16)
(-3.96021e-15 -5.60519e-45 -4.39672e-31 0.0358266 -1.57772e-30 5.58957e-15 0.0436807 -5.58523e-15 1.4069e-15)
(0 8.79343e-31 1.1851e-31 0.0358266 1.19807e-15 1.35274e-31 0.0436807 -1.0496e-15 8.53957e-16)
(1.84097e-18 -7.526e-31 -8.39376e-31 5.61673e-11 -2.59482e-16 -2.12009e-15 5.15463e-11 -4.98335e-15 1.27881e-15)
(-3.78021e-15 8.39376e-31 8.39376e-31 5.6177e-11 2.12329e-15 5.98416e-16 5.15605e-11 -5.38456e-15 3.02767e-16)
(0 -3.84236e-33 -6.14777e-32 13.3705 2.71932e-16 -7.76683e-15 -0.0613706 6.5481e-15 6.41644e-17)
(0 3.84236e-33 -4.24123e-28 13.3705 1.75082e-16 2.90757e-14 -0.0613706 1.9499e-17 -6.78298e-17)
(-4.40478e-17 -2.44514e-33 1.56489e-31 13.3642 1.0988e-16 -2.54581e-15 -0.186976 1.80442e-14 -2.04577e-16)
(0 0 8.11443e-28 13.3642 5.05122e-16 1.04403e-14 -0.186976 -1.80215e-17 -1.00383e-16)
(1.19535e-17 -2.33401e-33 1.12032e-31 13.3576 6.35035e-16 -1.21742e-15 -0.275433 1.7395e-14 -2.53844e-16)
(0 -3.58583e-30 -1.12032e-31 13.3576 2.42899e-16 5.14483e-15 -0.275433 -1.64817e-17 -1.07063e-16)
(0 0 0 13.3507 1.17354e-15 -1.15828e-15 -0.288395 1.65802e-14 -3.23446e-16)
(0 0 -7.12936e-32 13.3507 5.48351e-16 5.22572e-15 -0.288395 -2.82761e-17 -1.13666e-16)
(4.14188e-17 -4.25332e-33 6.80532e-32 13.3435 1.09572e-15 -1.08655e-15 -0.30196 1.62363e-14 -4.02605e-16)
(-2.42296e-16 0 -2.87879e-31 13.3435 6.02823e-16 5.28771e-15 -0.30196 -4.0574e-17 -1.20308e-16)
(0 -8.12001e-33 4.2224e-31 13.3359 1.05945e-15 -1.00245e-15 -0.316154 1.63356e-14 -4.905e-16)
(-2.41606e-16 8.12001e-33 -5.87468e-31 13.3359 7.06229e-16 5.33285e-15 -0.316154 -5.23788e-17 -1.26889e-16)
(0 0 0 13.328 1.03437e-15 -9.04225e-16 -0.331006 1.63727e-14 -5.8942e-16)
(0 -7.75094e-33 0 13.328 8.10915e-16 5.36202e-15 -0.331006 -6.48872e-17 -1.33487e-16)
(1.33282e-16 -7.39865e-33 2.36757e-31 13.3196 9.26122e-16 -7.92756e-16 -0.346544 1.63813e-14 -7.00727e-16)
(-5.37642e-16 0 -3.11927e-31 13.3196 8.83099e-16 5.37538e-15 -0.346544 -7.72126e-17 -1.39956e-16)
(-8.6877e-18 -2.82495e-32 5.64989e-31 13.3108 8.50227e-16 -6.73086e-16 -0.362799 1.63891e-14 -8.25556e-16)
(0 1.41247e-32 -6.77987e-31 13.3108 1.03383e-15 5.38105e-15 -0.362799 -9.10611e-17 -1.46811e-16)
(1.45695e-16 -1.34827e-32 3.77517e-31 13.3015 7.56279e-16 -5.43879e-16 -0.3798 1.63995e-14 -9.65173e-16)
(-5.82781e-16 1.34827e-32 -7.08483e-31 13.3015 1.01589e-15 5.37016e-15 -0.3798 -1.0519e-16 -1.52979e-16)
(2.31844e-16 2.57399e-32 -1.54439e-31 13.2916 5.87806e-16 -4.06732e-16 -0.397579 1.64108e-14 -1.12104e-15)
(-6.78328e-16 -2.66078e-32 7.04885e-32 13.2916 7.98383e-16 5.33009e-15 -0.397579 -1.12476e-16 -1.58727e-16)
(0 -1.2285e-32 4.91399e-31 13.281 3.93369e-16 -2.61679e-16 -0.416164 1.64166e-14 -1.28112e-15)
(-7.78361e-16 -3.09706e-33 -9.41378e-31 13.281 9.27433e-16 5.27781e-15 -0.416164 -9.11097e-17 -1.64616e-16)
(-2.20772e-16 -8.16172e-31 4.43956e-31 13.2694 -5.68313e-28 -8.3439e-17 -0.435584 1.64199e-14 -1.26685e-15)
(4.60594e-16 2.04424e-32 8.01674e-32 13.2694 1.2992e-15 5.2348e-15 -0.435584 -4.66361e-17 -1.71378e-16)
(1.55109e-16 0 -6.93182e-31 13.2567 -1.29183e-16 4.1255e-29 -0.455863 1.64253e-14 -1.24873e-15)
(-1.39602e-15 -5.46286e-32 -9.09606e-31 13.2567 1.20645e-15 5.17607e-15 -0.455863 -3.41589e-17 -1.76626e-16)
(0 4.27394e-32 7.69309e-31 13.2423 -1.69734e-16 1.92232e-16 -0.477018 1.64308e-14 -1.22571e-15)
(-1.10752e-15 -9.49002e-32 -1.06698e-30 13.2423 1.06968e-15 5.06946e-15 -0.477018 -4.13234e-17 -1.80401e-16)
(6.1384e-16 0 0 13.2258 -2.38922e-16 3.48524e-16 -0.499058 1.64299e-14 -1.19787e-15)
(0 0 0 13.2258 1.31098e-15 4.82157e-15 -0.499058 -5.57118e-17 -1.75126e-16)
(-3.38369e-16 0 0 13.2062 -3.28551e-16 5.23709e-16 -0.521976 1.64176e-14 -1.16482e-15)
(1.35347e-15 5.72128e-32 6.11194e-31 13.2062 1.06449e-15 3.82049e-15 -0.521976 -2.58518e-17 -1.1879e-16)
(-7.42579e-16 7.43451e-32 7.43451e-31 13.1824 -4.15124e-16 7.30092e-16 -0.545744 1.64018e-14 -1.12657e-15)
(-1.48516e-15 -9.77466e-32 -9.95388e-31 13.1824 7.78506e-16 2.76715e-15 -0.545744 -3.74409e-17 -1.04899e-16)
(1.04495e-15 0 -2.83864e-31 13.1528 -7.38841e-16 9.03625e-16 -0.570302 1.63791e-14 -1.08228e-15)
(0 3.5483e-32 4.25796e-31 13.1528 1.47574e-15 2.32588e-15 -0.570302 -8.8912e-17 -9.20575e-17)
(4.41819e-16 3.38702e-32 6.77404e-31 13.1154 -1.06394e-15 1.02656e-15 -0.595547 1.63557e-14 -1.03112e-15)
(0 -3.38702e-32 -8.12885e-31 13.1154 1.71576e-15 1.87724e-15 -0.595547 -6.29236e-17 -7.43167e-17)
(1.06199e-15 -6.46615e-32 -3.87969e-31 13.0673 -1.31421e-15 1.13047e-15 -0.621322 1.63581e-14 -9.71457e-16)
(-1.91827e-15 6.46615e-32 -7.29467e-32 13.0673 1.4033e-15 1.36857e-15 -0.621322 -6.02967e-17 -5.25602e-17)
(5.19061e-16 0 0 13.005 -1.47664e-15 1.21288e-15 -0.647394 1.6298e-14 -9.00063e-16)
(0 -3.08613e-32 -1.23445e-31 13.005 1.48616e-15 8.43514e-16 -0.647394 -2.04104e-17 -2.91458e-17)
(1.12074e-15 -5.89172e-32 -4.71337e-31 12.9242 -1.03461e-15 1.30758e-15 -0.673446 1.62643e-14 -8.17997e-16)
(0 5.89172e-32 4.71337e-31 12.9242 1.04045e-15 1.01724e-16 -0.673446 1.68767e-17 -2.59784e-18)
(0 -8.4359e-32 -2.24957e-31 12.8196 -5.42294e-16 1.4792e-15 -0.699061 1.62089e-14 -7.27029e-16)
(0 4.27543e-32 5.60519e-45 12.8196 1.59005e-30 -1.87086e-45 -0.699061 7.70193e-17 6.51554e-30)
(0 0 0 12.6856 -9.97838e-16 1.65451e-15 -0.72372 1.61357e-14 -6.24332e-16)
(-9.6707e-16 -2.68416e-32 0 12.6856 1.89668e-16 -1.02029e-15 -0.72372 1.71732e-16 -3.71272e-17)
(-9.23115e-16 2.04973e-31 5.12432e-31 12.5159 -1.84238e-15 1.65668e-15 -0.746814 1.60523e-14 -5.06781e-16)
(0 -2.30594e-31 -7.17404e-31 12.5159 1.11016e-15 -1.68669e-15 -0.746814 2.45953e-16 -7.82155e-17)
(7.44567e-16 -1.22285e-31 -3.91313e-31 12.3046 -2.45215e-15 1.50036e-15 -0.76767 1.59808e-14 -3.71024e-16)
(0 1.22285e-31 3.91313e-31 12.3046 1.99239e-15 -2.3651e-15 -0.76767 3.02745e-16 -1.20879e-16)
(0 1.40073e-31 1.86763e-31 12.0468 -3.00236e-15 1.24399e-15 -0.785603 1.59034e-14 -2.12369e-16)
(2.34028e-15 -7.00363e-32 1.40254e-31 12.0468 2.18053e-15 -2.93193e-15 -0.785603 3.70251e-16 -1.71302e-16)
(-8.47863e-16 2.89696e-31 5.34824e-31 11.7392 -2.75555e-15 9.92398e-16 -0.79998 1.58044e-14 -3.39949e-17)
(-8.02878e-16 9.37496e-30 -5.34824e-31 11.7392 4.62455e-16 -3.44199e-15 -0.79998 4.38007e-16 -2.0747e-16)
(1.80388e-15 -3.72251e-31 -3.40344e-31 11.3808 -1.79646e-15 9.42669e-16 -0.810296 1.56611e-14 1.63814e-16)
(3.60777e-15 0 5.45598e-31 11.3808 -7.16938e-46 -4.01124e-15 -0.810296 5.6379e-16 -2.58521e-16)
(1.91469e-15 0 0 10.9739 -1.52914e-15 9.8811e-16 -0.816233 1.54779e-14 3.74378e-16)
(0 0 0 10.9739 -9.56352e-16 -4.35956e-15 -0.816233 7.53601e-16 -3.10147e-16)
(0 3.07686e-31 2.32581e-31 10.5235 -2.00367e-15 9.95523e-16 -0.817705 1.52995e-14 6.03624e-16)
(0 -4.31245e-31 -3.10109e-31 10.5235 -9.00842e-16 -4.49649e-15 -0.817705 9.44103e-16 -3.36579e-16)
(0 -1.85009e-31 0 10.0374 -2.13261e-15 8.89764e-16 -0.814862 1.51302e-14 8.42325e-16)
(0 2.40511e-31 1.48007e-31 10.0374 -5.32842e-16 -4.64705e-15 -0.814862 1.1176e-15 -3.56644e-16)
(1.1284e-15 -2.47239e-31 0 9.52512 -1.68834e-15 7.76757e-16 -0.808065 1.49243e-14 1.10457e-15)
(0 2.47239e-31 0 9.52512 -9.48944e-16 -4.72772e-15 -0.808065 1.28894e-15 -2.4171e-16)
(0 5.39433e-31 0 8.99721 -1.63273e-15 6.89727e-16 -0.797827 1.46927e-14 1.37814e-15)
(0 -5.39433e-31 0 8.99721 -9.85374e-16 -4.61302e-15 -0.797827 1.46016e-15 -1.29605e-16)
(1.24306e-15 0 0 8.46397 -1.28074e-15 4.03733e-16 -0.784752 1.44698e-14 1.66709e-15)
(-1.15949e-15 -3.21822e-32 0 8.46397 -5.19548e-16 -4.31535e-15 -0.784752 1.64152e-15 -1.84293e-17)
(-9.13935e-16 5.8367e-31 -1.53597e-31 7.9348 -3.86396e-16 2.07614e-16 -0.769472 1.41435e-14 1.97511e-15)
(5.19854e-15 -5.22231e-31 1.22878e-31 7.9348 -5.05251e-17 -3.89329e-15 -0.769472 1.83607e-15 9.38754e-17)
(-7.57589e-16 -2.34586e-31 8.79697e-32 7.41763 -7.60945e-17 3.4134e-16 -0.752589 1.38465e-14 2.28025e-15)
(5.42149e-15 -1.4013e-45 -1.17293e-31 7.41763 -4.93038e-32 -3.44852e-15 -0.752589 2.02484e-15 1.9331e-16)
(2.82017e-15 1.11962e-31 -6.99761e-32 6.91865 -5.62115e-16 3.27836e-16 -0.734649 1.36123e-14 2.59938e-15)
(-2.01692e-15 -1.11962e-31 8.39713e-32 6.91865 -1.58567e-15 -2.99625e-15 -0.734649 2.23801e-15 2.7331e-16)
(2.92726e-15 0 5.75453e-32 6.44233 -1.17148e-15 0 -0.716116 1.33026e-14 2.94898e-15)
(0 0 3.33978e-32 6.44233 -1.76895e-15 -2.42911e-15 -0.716116 2.53598e-15 2.42007e-16)
(-2.15957e-15 3.06046e-31 -2.42287e-31 5.99157 -1.0789e-15 -3.39883e-17 -0.697371 1.30016e-14 3.30674e-15)
(6.06369e-15 -1.02015e-31 5.41078e-32 5.99157 -1.97493e-15 -1.97944e-15 -0.697371 2.8495e-15 2.2471e-16)
(1.5669e-15 0 1.6486e-31 5.56794 -1.67061e-15 -3.02849e-29 -0.678711 1.28099e-14 3.37132e-15)
(0 0 0 5.56794 -2.91828e-15 -1.73045e-15 -0.678711 3.13033e-15 2.0258e-16)
(-3.23309e-15 0 4.64763e-32 5.17194 -2.39066e-15 -2.45029e-16 -0.660362 1.26147e-14 3.24925e-15)
(-1.67449e-15 0 0 5.17194 -1.91393e-15 -1.4409e-15 -0.660362 3.43912e-15 1.69843e-16)
(1.66485e-15 -1.77456e-31 2.21819e-31 4.80332 -2.02492e-15 -4.46666e-16 -0.642486 1.24069e-14 3.12477e-15)
(8.25776e-15 1.0251e-29 3.50325e-46 4.80332 -1.05247e-15 0 -0.642486 3.60969e-15 -1.10473e-45)
(0 1.6939e-31 -2.11737e-31 4.46123 -1.32951e-15 -5.35528e-16 -0.625196 1.22077e-14 2.99278e-15)
(-6.84731e-15 0 3.40351e-31 4.46123 -2.97435e-15 2.08346e-15 -0.625196 3.90112e-15 2.01094e-16)
(1.75752e-15 0 1.81902e-31 4.14449 -6.63688e-16 8.96824e-17 -0.608561 1.19593e-14 2.87448e-15)
(7.03007e-15 0 -1.95658e-31 4.14449 -2.46287e-15 2.38966e-15 -0.608561 4.22397e-15 3.95642e-16)
(1.80196e-15 3.08684e-31 -1.83281e-31 3.85165 -1.3438e-15 6.50828e-16 -0.592623 1.17071e-14 2.68696e-15)
(-7.20783e-15 -3.08684e-31 2.09996e-31 3.85165 -1.70717e-15 2.57884e-15 -0.592623 4.45241e-15 3.14054e-16)
(1.84519e-15 0 2.70398e-31 3.58118 -2.0714e-15 2.46519e-32 -0.577398 1.14578e-14 2.50466e-15)
(0 0 -1.84158e-31 3.58118 -8.8066e-16 1.47519e-15 -0.577398 4.75404e-15 2.67844e-16)