/*--------------------------------*- C++ -*----------------------------------*\
| =========                 |                                                 |
| \\      /  F ield         | OpenFOAM: The Open Source CFD Toolbox           |
|  \\    /   O peration     | Version:  2106                                  |
|   \\  /    A nd           | Website:  www.openfoam.com                      |
|    \\/     M anipulation  |                                                 |
\*---------------------------------------------------------------------------*/
FoamFile
{
    version     2.0;
    format      ascii;
    arch        "LSB;label=32;scalar=64";
    class       volScalarField;
    location    "10060";
    object      p;
}
// * * * * * * * * * * * * * * * * * * * * * * * * * * * * * * * * * * * * * //

dimensions      [0 2 -2 0 0 0 0];

internalField   nonuniform List<scalar> 
800
(
1.62981e-15
6.19021e-15
3.32821e-15
6.18694e-15
3.52799e-15
6.18278e-15
3.34222e-15
6.17663e-15
3.18828e-15
6.16829e-15
3.08939e-15
6.15784e-15
3.00252e-15
6.14522e-15
2.92046e-15
6.13051e-15
2.84528e-15
6.11382e-15
2.77749e-15
6.09535e-15
2.71746e-15
6.07493e-15
2.66456e-15
6.0527e-15
2.61823e-15
6.02904e-15
2.57833e-15
6.00413e-15
2.54498e-15
5.97756e-15
2.51763e-15
5.9496e-15
2.49581e-15
5.92052e-15
2.47906e-15
5.8906e-15
2.46758e-15
5.85944e-15
2.46004e-15
5.82699e-15
2.45721e-15
5.79348e-15
2.45896e-15
5.75839e-15
2.46466e-15
5.72286e-15
2.47366e-15
5.68773e-15
2.48687e-15
5.65191e-15
2.503e-15
5.61475e-15
2.522e-15
5.57623e-15
2.54526e-15
5.53633e-15
2.5702e-15
5.49609e-15
2.59742e-15
5.45456e-15
2.62618e-15
5.41243e-15
2.65741e-15
5.37059e-15
2.68994e-15
5.32882e-15
2.72531e-15
5.28476e-15
2.76138e-15
5.23975e-15
2.79926e-15
5.19403e-15
2.83793e-15
5.14729e-15
2.87288e-15
5.09975e-15
2.91277e-15
5.05283e-15
2.95614e-15
5.00682e-15
2.99529e-15
4.96199e-15
3.04087e-15
4.91872e-15
3.08365e-15
4.87471e-15
3.12434e-15
4.8288e-15
3.17338e-15
4.78524e-15
3.22238e-15
4.74282e-15
3.27103e-15
4.69587e-15
3.3161e-15
4.65003e-15
3.36028e-15
4.60834e-15
3.40011e-15
4.5678e-15
3.44487e-15
4.52191e-15
3.49156e-15
4.47991e-15
3.52694e-15
4.44823e-15
3.56067e-15
4.41335e-15
3.58901e-15
4.37837e-15
3.61517e-15
4.33569e-15
3.63935e-15
4.29554e-15
3.65402e-15
4.26489e-15
3.68194e-15
4.22833e-15
3.70072e-15
4.18437e-15
3.71082e-15
4.14746e-15
3.73729e-15
4.12499e-15
3.77387e-15
4.09918e-15
3.79747e-15
4.04172e-15
3.83702e-15
3.98142e-15
3.85468e-15
3.94658e-15
3.87036e-15
3.95144e-15
3.8742e-15
3.94143e-15
3.89568e-15
3.92436e-15
3.88297e-15
3.91449e-15
3.85176e-15
3.91137e-15
3.81494e-15
3.86035e-15
3.77389e-15
3.85704e-15
3.74283e-15
3.80626e-15
3.74159e-15
3.76518e-15
3.71148e-15
3.76964e-15
3.71122e-15
3.80899e-15
3.64862e-15
3.72496e-15
3.65651e-15
3.685e-15
3.66221e-15
3.70046e-15
3.64563e-15
3.62056e-15
3.57979e-15
3.61706e-15
3.602e-15
3.61862e-15
3.56426e-15
3.51838e-15
3.4875e-15
3.48872e-15
3.39409e-15
3.44393e-15
3.34948e-15
3.449e-15
3.38211e-15
3.48402e-15
3.39573e-15
3.46235e-15
3.40644e-15
3.41706e-15
3.34895e-15
3.36949e-15
3.33155e-15
3.3372e-15
3.32488e-15
3.32605e-15
3.37598e-15
3.37725e-15
3.4257e-15
3.44112e-15
3.4473e-15
3.50205e-15
3.63659e-15
3.61168e-15
3.83106e-15
3.81199e-15
4.19255e-15
3.9833e-15
4.18779e-15
4.24201e-15
5.23055e-15
5.30698e-15
5.22904e-15
5.30662e-15
5.22705e-15
5.30614e-15
5.22403e-15
5.30541e-15
5.21995e-15
5.30436e-15
5.21485e-15
5.30291e-15
5.20875e-15
5.30115e-15
5.20165e-15
5.29891e-15
5.19368e-15
5.29629e-15
5.18473e-15
5.29316e-15
5.17503e-15
5.28956e-15
5.16467e-15
5.28539e-15
5.1536e-15
5.28077e-15
5.14199e-15
5.27574e-15
5.12975e-15
5.27009e-15
5.11717e-15
5.26355e-15
5.10419e-15
5.25663e-15
5.09065e-15
5.24946e-15
5.07684e-15
5.2415e-15
5.06255e-15
5.23298e-15
5.04814e-15
5.22362e-15
5.03394e-15
5.21331e-15
5.0196e-15
5.20197e-15
5.00479e-15
5.19031e-15
4.99018e-15
5.17868e-15
4.9756e-15
5.16616e-15
4.96062e-15
5.15221e-15
4.94568e-15
5.1383e-15
4.93147e-15
5.12273e-15
4.91728e-15
5.10552e-15
4.90298e-15
5.08854e-15
4.88816e-15
5.07118e-15
4.87294e-15
5.05286e-15
4.85744e-15
5.0335e-15
4.84069e-15
5.0136e-15
4.82388e-15
4.99255e-15
4.80825e-15
4.96918e-15
4.79056e-15
4.94567e-15
4.76853e-15
4.92437e-15
4.74926e-15
4.89946e-15
4.73305e-15
4.87327e-15
4.71265e-15
4.84831e-15
4.6932e-15
4.82472e-15
4.67222e-15
4.80003e-15
4.65529e-15
4.77709e-15
4.63573e-15
4.75044e-15
4.61353e-15
4.73022e-15
4.59457e-15
4.70511e-15
4.57919e-15
4.67812e-15
4.55837e-15
4.65241e-15
4.53844e-15
4.62826e-15
4.51624e-15
4.60607e-15
4.50178e-15
4.57954e-15
4.48884e-15
4.55198e-15
4.47439e-15
4.52336e-15
4.44798e-15
4.48632e-15
4.43174e-15
4.45542e-15
4.39638e-15
4.43468e-15
4.37166e-15
4.40995e-15
4.35003e-15
4.37373e-15
4.30805e-15
4.34974e-15
4.26862e-15
4.33995e-15
4.25486e-15
4.32205e-15
4.25026e-15
4.29641e-15
4.2389e-15
4.27192e-15
4.23833e-15
4.26754e-15
4.24945e-15
4.25862e-15
4.20124e-15
4.23471e-15
4.16341e-15
4.22597e-15
4.16992e-15
4.21822e-15
4.167e-15
4.17275e-15
4.10202e-15
4.14206e-15
4.04885e-15
4.11332e-15
4.04595e-15
4.06942e-15
4.04141e-15
4.0272e-15
3.97851e-15
3.98219e-15
3.9163e-15
3.91279e-15
3.87411e-15
3.87395e-15
3.8106e-15
3.85069e-15
3.75473e-15
3.78731e-15
3.70137e-15
3.69562e-15
3.56046e-15
3.65942e-15
3.62752e-15
3.66081e-15
3.58852e-15
3.58101e-15
3.55624e-15
3.55987e-15
3.53625e-15
3.55483e-15
3.48674e-15
3.53055e-15
3.44877e-15
3.4942e-15
3.45897e-15
3.48523e-15
3.41574e-15
3.44221e-15
3.35692e-15
3.36633e-15
3.29283e-15
3.2946e-15
3.33163e-15
3.32688e-15
3.37846e-15
3.35599e-15
3.44935e-15
3.4799e-15
3.50168e-15
3.53072e-15
3.68463e-15
3.63352e-15
3.83379e-15
3.82123e-15
4.00603e-15
4.00192e-15
4.185e-15
4.1954e-15
4.38004e-15
4.34876e-15
4.50842e-15
4.52573e-15
4.65959e-15
4.66978e-15
4.79993e-15
4.80194e-15
4.94967e-15
4.95622e-15
5.11879e-15
5.13233e-15
5.28911e-15
5.21102e-15
5.31066e-15
5.31324e-15
5.38703e-15
5.3984e-15
5.55185e-15
5.53812e-15
5.67641e-15
5.67548e-15
5.74859e-15
5.7682e-15
5.84716e-15
5.87161e-15
5.86903e-15
5.89079e-15
5.93405e-15
5.98767e-15
5.93518e-15
5.97596e-15
5.97445e-15
5.98935e-15
6.05276e-15
6.05613e-15
6.12288e-15
6.12119e-15
6.05421e-15
6.09559e-15
6.06647e-15
6.08557e-15
6.08976e-15
6.10008e-15
6.12594e-15
6.13527e-15
6.15539e-15
6.172e-15
6.17775e-15
6.17009e-15
6.15213e-15
6.14523e-15
6.14389e-15
6.13923e-15
6.15294e-15
6.15116e-15
6.1796e-15
6.16143e-15
6.1663e-15
6.14898e-15
6.15337e-15
6.11453e-15
6.1427e-15
6.09381e-15
6.13369e-15
6.10413e-15
6.13384e-15
6.11904e-15
6.1328e-15
6.12147e-15
6.13072e-15
6.13074e-15
6.12708e-15
6.13024e-15
6.13035e-15
6.12029e-15
6.133e-15
6.13386e-15
6.13479e-15
6.14647e-15
6.13549e-15
6.13484e-15
6.13599e-15
6.14675e-15
6.14389e-15
6.15841e-15
6.1513e-15
6.15487e-15
6.15115e-15
6.1439e-15
6.14407e-15
6.15092e-15
6.14419e-15
6.14728e-15
6.14771e-15
6.14381e-15
6.15118e-15
6.14708e-15
6.1413e-15
6.15027e-15
6.13783e-15
6.15363e-15
6.13719e-15
6.1572e-15
6.13301e-15
6.16407e-15
6.13729e-15
6.16523e-15
6.13509e-15
6.16382e-15
6.13244e-15
6.1628e-15
6.13216e-15
6.1635e-15
6.13011e-15
6.16448e-15
6.12771e-15
6.16311e-15
6.12753e-15
6.16204e-15
6.13071e-15
6.15877e-15
6.13235e-15
6.15575e-15
6.13256e-15
6.15762e-15
6.13257e-15
6.16072e-15
6.13352e-15
6.16275e-15
6.13427e-15
6.16156e-15
6.13432e-15
6.16104e-15
6.13531e-15
6.16115e-15
6.13671e-15
6.16187e-15
6.13641e-15
6.1616e-15
6.13546e-15
6.16193e-15
6.13496e-15
6.16233e-15
6.13464e-15
6.16334e-15
6.13451e-15
6.16359e-15
6.13401e-15
6.16389e-15
6.13343e-15
6.16455e-15
6.13369e-15
6.16467e-15
6.13421e-15
6.16419e-15
6.13387e-15
6.16407e-15
6.13399e-15
6.16397e-15
6.13424e-15
6.16372e-15
6.13428e-15
6.16368e-15
6.13429e-15
6.16367e-15
6.13446e-15
6.16409e-15
6.1344e-15
6.16412e-15
6.13431e-15
6.16405e-15
6.13419e-15
6.16424e-15
6.13416e-15
6.1642e-15
6.13411e-15
6.16418e-15
6.13404e-15
6.16417e-15
6.13388e-15
6.16418e-15
6.13399e-15
6.16427e-15
6.13401e-15
6.16437e-15
6.13394e-15
6.16429e-15
6.1339e-15
6.16425e-15
6.13393e-15
6.16431e-15
6.13396e-15
6.16433e-15
6.13393e-15
6.16435e-15
6.13391e-15
6.16436e-15
6.13389e-15
6.16437e-15
4.34655e-15
4.36978e-15
4.4395e-15
4.59788e-15
4.65004e-15
4.70273e-15
4.77636e-15
4.76652e-15
4.8976e-15
4.92592e-15
5.08291e-15
5.09723e-15
5.23068e-15
5.26172e-15
5.31794e-15
5.35281e-15
5.43693e-15
5.4289e-15
5.52018e-15
5.50913e-15
5.65639e-15
5.62739e-15
5.80222e-15
5.76522e-15
5.87173e-15
5.82134e-15
5.86487e-15
5.83503e-15
5.87198e-15
5.8731e-15
5.91665e-15
5.9372e-15
5.99926e-15
6.00044e-15
6.08439e-15
6.0649e-15
6.08168e-15
6.07375e-15
6.07505e-15
6.07253e-15
6.11941e-15
6.11447e-15
6.14793e-15
6.13495e-15
6.16318e-15
6.13343e-15
6.18857e-15
6.14755e-15
6.24659e-15
6.17274e-15
6.21596e-15
6.16308e-15
6.19974e-15
6.16742e-15
6.19277e-15
6.16896e-15
6.21207e-15
6.16847e-15
6.1987e-15
6.16303e-15
6.19141e-15
6.15447e-15
6.20912e-15
6.14433e-15
6.19808e-15
6.14947e-15
6.19411e-15
6.17076e-15
6.18531e-15
6.15564e-15
6.18062e-15
6.15768e-15
6.1791e-15
6.1678e-15
6.17123e-15
6.16961e-15
6.16469e-15
6.16422e-15
6.15907e-15
6.15965e-15
6.14599e-15
6.15549e-15
6.133e-15
6.16804e-15
6.13444e-15
6.17427e-15
6.14195e-15
6.16677e-15
6.14096e-15
6.16038e-15
6.13568e-15
6.15125e-15
6.14424e-15
6.14628e-15
6.15256e-15
6.14842e-15
6.16083e-15
6.14028e-15
6.15612e-15
6.1385e-15
6.15843e-15
6.1493e-15
6.16414e-15
6.15335e-15
6.16699e-15
6.1571e-15
6.17011e-15
6.15759e-15
6.17059e-15
6.15788e-15
6.16571e-15
6.16081e-15
6.16256e-15
6.16086e-15
6.16099e-15
6.16355e-15
6.15957e-15
6.16358e-15
6.15828e-15
6.16238e-15
6.15833e-15
6.16123e-15
6.15725e-15
6.16014e-15
6.15859e-15
6.16146e-15
6.15652e-15
6.16391e-15
6.15564e-15
6.16524e-15
6.15477e-15
6.16493e-15
6.15501e-15
6.16359e-15
6.15471e-15
6.16338e-15
6.15495e-15
6.1648e-15
6.15519e-15
6.16466e-15
6.15597e-15
6.16562e-15
6.15622e-15
6.16607e-15
6.15591e-15
6.16656e-15
6.15589e-15
6.16681e-15
6.15586e-15
6.16621e-15
6.15613e-15
6.16591e-15
6.15548e-15
6.16624e-15
6.15545e-15
6.16628e-15
6.15542e-15
6.166e-15
6.15539e-15
6.1659e-15
6.15536e-15
6.16617e-15
6.15514e-15
6.16627e-15
6.15491e-15
6.16659e-15
6.15487e-15
6.16672e-15
6.15493e-15
6.16677e-15
6.155e-15
6.16682e-15
6.15484e-15
6.16713e-15
6.15466e-15
6.16733e-15
6.15461e-15
6.16729e-15
6.15455e-15
6.16725e-15
6.15477e-15
6.16708e-15
6.15471e-15
6.16727e-15
6.15471e-15
6.16733e-15
6.15472e-15
6.16727e-15
6.15469e-15
6.16721e-15
6.15474e-15
6.16719e-15
6.15475e-15
6.16718e-15
6.1547e-15
6.16717e-15
6.15471e-15
6.16719e-15
6.15471e-15
6.16719e-15
)
;

boundaryField
{
    walls
    {
        type            zeroGradient;
    }
    inlet
    {
        type            cyclic;
    }
    outlet
    {
        type            cyclic;
    }
    sides
    {
        type            empty;
    }
}


// ************************************************************************* //
