/*--------------------------------*- C++ -*----------------------------------*\
| =========                 |                                                 |
| \\      /  F ield         | OpenFOAM: The Open Source CFD Toolbox           |
|  \\    /   O peration     | Version:  2106                                  |
|   \\  /    A nd           | Website:  www.openfoam.com                      |
|    \\/     M anipulation  |                                                 |
\*---------------------------------------------------------------------------*/
FoamFile
{
    version     2.0;
    format      ascii;
    arch        "LSB;label=32;scalar=64";
    class       volScalarField;
    location    "10060";
    object      p;
}
// * * * * * * * * * * * * * * * * * * * * * * * * * * * * * * * * * * * * * //

dimensions      [0 2 -2 0 0 0 0];

internalField   nonuniform List<scalar> 
2000
(
8.82067e-15
4.38658e-14
1.85245e-14
4.38658e-14
2.0368e-14
4.3866e-14
2.01463e-14
4.38666e-14
2.01927e-14
4.38675e-14
2.04648e-14
4.38688e-14
2.07756e-14
4.38704e-14
2.10823e-14
4.38724e-14
2.13861e-14
4.38748e-14
2.1686e-14
4.38775e-14
2.198e-14
4.38805e-14
2.22678e-14
4.38839e-14
2.25495e-14
4.38876e-14
2.28253e-14
4.38917e-14
2.30952e-14
4.38961e-14
2.33593e-14
4.39009e-14
2.36181e-14
4.39059e-14
2.38714e-14
4.39112e-14
2.41193e-14
4.3917e-14
2.43619e-14
4.39229e-14
2.45993e-14
4.39292e-14
2.48316e-14
4.39361e-14
2.50588e-14
4.39432e-14
2.52813e-14
4.39505e-14
2.54989e-14
4.39581e-14
2.57116e-14
4.39661e-14
2.59198e-14
4.39742e-14
2.61235e-14
4.39829e-14
2.63227e-14
4.39918e-14
2.65174e-14
4.40012e-14
2.67074e-14
4.40105e-14
2.68935e-14
4.40199e-14
2.70754e-14
4.40297e-14
2.72529e-14
4.40398e-14
2.74265e-14
4.40502e-14
2.75962e-14
4.40606e-14
2.77622e-14
4.40712e-14
2.79242e-14
4.40819e-14
2.80825e-14
4.40929e-14
2.82374e-14
4.41041e-14
2.83886e-14
4.41154e-14
2.85361e-14
4.41272e-14
2.86801e-14
4.41395e-14
2.88213e-14
4.41515e-14
2.89585e-14
4.41634e-14
2.90928e-14
4.41753e-14
2.92237e-14
4.41871e-14
2.9352e-14
4.41991e-14
2.94773e-14
4.42117e-14
2.96002e-14
4.42243e-14
2.97197e-14
4.42364e-14
2.98373e-14
4.42481e-14
2.99511e-14
4.42602e-14
3.00635e-14
4.42724e-14
3.01731e-14
4.42848e-14
3.02794e-14
4.4297e-14
3.03836e-14
4.4309e-14
3.0486e-14
4.43218e-14
3.05859e-14
4.43344e-14
3.06834e-14
4.43466e-14
3.07793e-14
4.4358e-14
3.08728e-14
4.43693e-14
3.0964e-14
4.43809e-14
3.10533e-14
4.43928e-14
3.11416e-14
4.44035e-14
3.12284e-14
4.44137e-14
3.13139e-14
4.44231e-14
3.13974e-14
4.44322e-14
3.14798e-14
4.4441e-14
3.15606e-14
4.44498e-14
3.16406e-14
4.4458e-14
3.17195e-14
4.44657e-14
3.17975e-14
4.44733e-14
3.18738e-14
4.44801e-14
3.19502e-14
4.44852e-14
3.20256e-14
4.44897e-14
3.21005e-14
4.44946e-14
3.21754e-14
4.4499e-14
3.2248e-14
4.45027e-14
3.23215e-14
4.45053e-14
3.2396e-14
4.45063e-14
3.24699e-14
4.45068e-14
3.2543e-14
4.45077e-14
3.2616e-14
4.4506e-14
3.26893e-14
4.45035e-14
3.27626e-14
4.4502e-14
3.28355e-14
4.44994e-14
3.29113e-14
4.4494e-14
3.29868e-14
4.44875e-14
3.30631e-14
4.44816e-14
3.31405e-14
4.44737e-14
3.32179e-14
4.44656e-14
3.32957e-14
4.44574e-14
3.33715e-14
4.44481e-14
3.34506e-14
4.44372e-14
3.35311e-14
4.44264e-14
3.36114e-14
4.44146e-14
3.36939e-14
4.44005e-14
3.37768e-14
4.43867e-14
3.38612e-14
4.43712e-14
3.39468e-14
4.43563e-14
3.40339e-14
4.43425e-14
3.4123e-14
4.43277e-14
3.42136e-14
4.43093e-14
3.43055e-14
4.42919e-14
3.44011e-14
4.42743e-14
3.44958e-14
4.42597e-14
3.45937e-14
4.42424e-14
3.46914e-14
4.42241e-14
3.4796e-14
4.42035e-14
3.48953e-14
4.41839e-14
3.49948e-14
4.41655e-14
3.50941e-14
4.41501e-14
3.5196e-14
4.41364e-14
3.52985e-14
4.412e-14
3.53982e-14
4.41027e-14
3.55008e-14
4.40879e-14
3.56093e-14
4.40678e-14
3.57137e-14
4.40426e-14
3.58265e-14
4.40124e-14
3.59376e-14
4.39888e-14
3.60516e-14
4.39671e-14
3.61698e-14
4.39408e-14
3.6297e-14
4.39117e-14
3.64229e-14
4.38817e-14
3.65471e-14
4.38541e-14
3.66727e-14
4.38257e-14
3.67995e-14
4.37932e-14
3.69236e-14
4.37634e-14
3.70552e-14
4.37297e-14
3.71908e-14
4.37024e-14
3.733e-14
4.36745e-14
3.7462e-14
4.36426e-14
3.75937e-14
4.36101e-14
3.77248e-14
4.35878e-14
3.78588e-14
4.3565e-14
3.79918e-14
4.35417e-14
3.81236e-14
4.35214e-14
3.82614e-14
4.35006e-14
3.8394e-14
4.34753e-14
3.8525e-14
4.34416e-14
3.86542e-14
4.34145e-14
3.87854e-14
4.33977e-14
3.89185e-14
4.33758e-14
3.90496e-14
4.33564e-14
3.91709e-14
4.33392e-14
3.93018e-14
4.3324e-14
3.94269e-14
4.33108e-14
3.95538e-14
4.32954e-14
3.96866e-14
4.32813e-14
3.97977e-14
4.32684e-14
3.99028e-14
4.32525e-14
4.00017e-14
4.32414e-14
4.01428e-14
4.32188e-14
4.027e-14
4.32084e-14
4.03836e-14
4.32097e-14
4.04999e-14
4.32062e-14
4.06111e-14
4.32057e-14
4.07254e-14
4.3183e-14
4.08186e-14
4.31869e-14
4.09239e-14
4.32005e-14
4.1033e-14
4.32072e-14
4.11296e-14
4.32062e-14
4.12223e-14
4.32141e-14
4.13113e-14
4.32391e-14
4.13965e-14
4.32391e-14
4.14864e-14
4.32304e-14
4.15901e-14
4.32377e-14
4.16826e-14
4.32688e-14
4.17726e-14
4.32898e-14
4.18603e-14
4.32916e-14
4.19376e-14
4.32991e-14
4.20047e-14
4.32948e-14
4.20961e-14
4.33121e-14
4.21608e-14
4.33419e-14
4.22502e-14
4.33408e-14
4.22962e-14
4.33422e-14
4.23589e-14
4.3337e-14
4.24214e-14
4.33587e-14
4.24921e-14
4.33724e-14
4.25973e-14
4.33684e-14
4.26698e-14
4.33526e-14
4.27106e-14
4.33403e-14
4.27721e-14
4.33477e-14
4.28372e-14
4.33397e-14
4.29073e-14
4.33668e-14
4.29664e-14
4.34277e-14
4.30136e-14
4.34541e-14
4.30662e-14
4.34627e-14
4.3108e-14
4.34178e-14
4.31411e-14
4.33852e-14
4.31671e-14
4.33799e-14
4.31869e-14
4.34005e-14
4.31997e-14
4.34296e-14
4.32214e-14
4.34333e-14
4.32859e-14
4.34792e-14
4.33252e-14
4.35489e-14
4.33549e-14
4.35754e-14
4.33913e-14
4.36097e-14
4.34171e-14
4.3618e-14
4.34496e-14
4.35826e-14
4.34747e-14
4.36178e-14
4.35256e-14
4.36234e-14
4.35714e-14
4.36135e-14
4.35808e-14
4.35844e-14
4.35884e-14
4.36512e-14
4.36246e-14
4.36317e-14
4.36427e-14
4.3589e-14
4.36455e-14
4.36679e-14
4.36935e-14
4.37246e-14
4.37369e-14
4.3726e-14
4.37792e-14
4.37352e-14
4.37734e-14
4.37513e-14
4.37828e-14
4.37459e-14
4.37758e-14
4.36839e-14
4.36919e-14
4.36536e-14
4.36521e-14
4.37215e-14
4.36433e-14
4.37386e-14
4.36307e-14
4.36779e-14
4.35846e-14
4.36299e-14
4.36281e-14
4.36226e-14
4.35793e-14
4.35227e-14
4.35363e-14
4.35049e-14
4.35257e-14
4.354e-14
4.35093e-14
4.36346e-14
4.34772e-14
4.36184e-14
4.34562e-14
4.35879e-14
4.34745e-14
4.35428e-14
4.34212e-14
4.35318e-14
4.3437e-14
4.35021e-14
4.3437e-14
4.35102e-14
4.342e-14
4.35582e-14
4.34627e-14
4.3509e-14
4.34664e-14
4.34923e-14
4.35204e-14
4.3533e-14
4.35459e-14
4.35804e-14
4.35983e-14
4.36095e-14
4.36858e-14
4.36458e-14
4.36867e-14
4.37172e-14
4.36983e-14
4.37277e-14
4.37402e-14
4.37251e-14
4.3816e-14
4.37816e-14
4.3909e-14
4.38951e-14
4.39408e-14
4.39933e-14
4.39779e-14
4.40102e-14
4.39959e-14
4.40195e-14
4.39989e-14
4.40179e-14
4.40887e-14
4.40502e-14
4.4129e-14
4.40988e-14
4.41751e-14
4.41188e-14
4.26592e-14
4.3508e-14
4.26593e-14
4.3508e-14
4.26594e-14
4.3508e-14
4.26597e-14
4.3508e-14
4.26603e-14
4.35081e-14
4.2661e-14
4.35082e-14
4.26619e-14
4.35083e-14
4.2663e-14
4.35084e-14
4.26643e-14
4.35086e-14
4.26658e-14
4.35089e-14
4.26675e-14
4.35091e-14
4.26693e-14
4.35094e-14
4.26713e-14
4.35097e-14
4.26735e-14
4.35101e-14
4.26758e-14
4.35106e-14
4.26784e-14
4.35111e-14
4.2681e-14
4.35117e-14
4.26838e-14
4.35122e-14
4.26868e-14
4.35129e-14
4.26899e-14
4.35138e-14
4.26932e-14
4.35146e-14
4.26968e-14
4.35155e-14
4.27004e-14
4.35164e-14
4.27042e-14
4.35174e-14
4.27082e-14
4.35183e-14
4.27124e-14
4.35194e-14
4.2717e-14
4.35207e-14
4.27217e-14
4.35216e-14
4.27265e-14
4.35226e-14
4.27315e-14
4.35239e-14
4.27366e-14
4.35253e-14
4.2742e-14
4.35267e-14
4.27475e-14
4.35279e-14
4.27532e-14
4.35293e-14
4.27591e-14
4.35304e-14
4.27651e-14
4.35319e-14
4.27714e-14
4.35335e-14
4.27776e-14
4.35354e-14
4.27838e-14
4.35372e-14
4.27903e-14
4.35387e-14
4.2797e-14
4.35404e-14
4.28037e-14
4.35425e-14
4.28105e-14
4.35443e-14
4.28173e-14
4.35463e-14
4.28242e-14
4.35484e-14
4.28313e-14
4.35508e-14
4.28394e-14
4.35526e-14
4.28473e-14
4.35545e-14
4.28549e-14
4.35575e-14
4.28626e-14
4.35615e-14
4.28706e-14
4.35642e-14
4.28785e-14
4.35668e-14
4.28862e-14
4.35703e-14
4.28946e-14
4.35732e-14
4.2903e-14
4.35764e-14
4.29116e-14
4.35804e-14
4.29204e-14
4.35845e-14
4.2929e-14
4.3589e-14
4.29378e-14
4.35933e-14
4.2947e-14
4.35976e-14
4.29564e-14
4.36019e-14
4.29652e-14
4.36071e-14
4.2974e-14
4.36121e-14
4.29839e-14
4.36171e-14
4.2994e-14
4.36223e-14
4.3004e-14
4.36275e-14
4.30136e-14
4.36334e-14
4.30234e-14
4.36392e-14
4.30338e-14
4.36433e-14
4.30444e-14
4.36477e-14
4.30542e-14
4.36544e-14
4.30639e-14
4.36614e-14
4.30733e-14
4.36676e-14
4.30825e-14
4.36734e-14
4.30928e-14
4.36787e-14
4.31035e-14
4.36829e-14
4.31134e-14
4.36903e-14
4.31224e-14
4.36996e-14
4.31327e-14
4.37058e-14
4.3143e-14
4.37116e-14
4.31531e-14
4.37197e-14
4.31633e-14
4.3729e-14
4.3173e-14
4.37375e-14
4.31825e-14
4.37439e-14
4.31924e-14
4.37496e-14
4.32037e-14
4.37575e-14
4.32157e-14
4.37662e-14
4.32264e-14
4.37736e-14
4.32345e-14
4.37811e-14
4.32436e-14
4.37894e-14
4.32554e-14
4.37971e-14
4.32656e-14
4.38056e-14
4.32752e-14
4.3815e-14
4.32876e-14
4.38232e-14
4.32997e-14
4.38309e-14
4.33106e-14
4.38408e-14
4.33221e-14
4.38518e-14
4.33334e-14
4.38608e-14
4.33441e-14
4.38709e-14
4.33542e-14
4.38784e-14
4.33624e-14
4.38876e-14
4.33745e-14
4.39001e-14
4.33872e-14
4.3913e-14
4.34019e-14
4.3922e-14
4.34115e-14
4.39343e-14
4.34279e-14
4.39457e-14
4.34423e-14
4.39577e-14
4.34548e-14
4.39672e-14
4.34656e-14
4.39804e-14
4.34808e-14
4.39927e-14
4.35005e-14
4.40042e-14
4.35126e-14
4.40135e-14
4.35266e-14
4.40234e-14
4.35378e-14
4.40358e-14
4.3551e-14
4.40491e-14
4.35647e-14
4.40618e-14
4.35729e-14
4.40802e-14
4.35834e-14
4.40982e-14
4.35947e-14
4.41078e-14
4.36087e-14
4.41138e-14
4.36255e-14
4.41243e-14
4.3632e-14
4.41429e-14
4.36383e-14
4.4158e-14
4.36476e-14
4.41598e-14
4.36533e-14
4.41649e-14
4.36607e-14
4.41718e-14
4.36698e-14
4.41806e-14
4.36842e-14
4.41915e-14
4.36971e-14
4.42047e-14
4.37016e-14
4.42167e-14
4.37082e-14
4.42241e-14
4.37204e-14
4.42379e-14
4.37314e-14
4.42509e-14
4.37411e-14
4.42597e-14
4.37532e-14
4.42609e-14
4.37641e-14
4.42581e-14
4.37778e-14
4.42549e-14
4.37868e-14
4.42553e-14
4.37763e-14
4.42593e-14
4.37798e-14
4.42522e-14
4.37862e-14
4.42453e-14
4.38032e-14
4.42463e-14
4.38196e-14
4.42479e-14
4.38124e-14
4.42462e-14
4.38006e-14
4.42493e-14
4.37996e-14
4.42458e-14
4.37939e-14
4.42436e-14
4.37991e-14
4.4243e-14
4.37995e-14
4.42482e-14
4.37989e-14
4.42435e-14
4.38173e-14
4.42211e-14
4.38391e-14
4.41967e-14
4.38566e-14
4.41945e-14
4.3862e-14
4.41985e-14
4.3855e-14
4.42089e-14
4.38597e-14
4.41938e-14
4.38517e-14
4.41855e-14
4.38555e-14
4.42092e-14
4.38544e-14
4.42326e-14
4.38562e-14
4.42314e-14
4.38609e-14
4.4239e-14
4.38518e-14
4.42474e-14
4.38534e-14
4.42237e-14
4.3849e-14
4.41928e-14
4.38557e-14
4.41966e-14
4.3865e-14
4.41931e-14
4.38685e-14
4.42081e-14
4.38829e-14
4.42166e-14
4.38825e-14
4.4202e-14
4.38928e-14
4.42237e-14
4.39049e-14
4.42227e-14
4.39189e-14
4.42161e-14
4.39436e-14
4.4221e-14
4.39536e-14
4.42464e-14
4.39654e-14
4.42756e-14
4.3996e-14
4.42752e-14
4.402e-14
4.42795e-14
4.40378e-14
4.42885e-14
4.40756e-14
4.42941e-14
4.41081e-14
4.43393e-14
4.41266e-14
4.43906e-14
4.41558e-14
4.44066e-14
4.41787e-14
4.43879e-14
4.42136e-14
4.43341e-14
4.42282e-14
4.43123e-14
4.41887e-14
4.43392e-14
4.4231e-14
4.43479e-14
4.42352e-14
4.43719e-14
4.42352e-14
4.43779e-14
4.42306e-14
4.43665e-14
4.42214e-14
4.43388e-14
4.42081e-14
4.43467e-14
4.4207e-14
4.434e-14
4.42184e-14
4.43706e-14
4.42421e-14
4.43712e-14
4.42452e-14
4.44274e-14
4.42593e-14
4.44566e-14
4.42837e-14
4.44766e-14
4.42848e-14
4.44712e-14
4.42798e-14
4.44743e-14
4.42679e-14
4.44872e-14
4.42645e-14
4.44454e-14
4.42373e-14
4.4465e-14
4.42668e-14
4.44652e-14
4.4287e-14
4.44292e-14
4.42676e-14
4.44897e-14
4.42547e-14
4.44841e-14
4.42799e-14
4.44483e-14
4.42971e-14
4.44473e-14
4.43082e-14
4.44952e-14
4.42938e-14
4.44796e-14
4.43183e-14
4.44183e-14
4.43213e-14
4.43212e-14
4.43107e-14
4.43422e-14
4.42845e-14
4.4387e-14
4.43021e-14
4.43685e-14
4.43382e-14
4.43187e-14
4.43072e-14
4.42595e-14
4.43081e-14
4.42184e-14
4.43145e-14
4.4225e-14
4.42671e-14
4.42503e-14
4.42199e-14
4.43031e-14
4.4196e-14
4.42455e-14
4.42005e-14
4.41993e-14
4.41167e-14
4.42186e-14
4.40861e-14
4.41577e-14
4.40817e-14
4.41051e-14
4.40203e-14
4.41159e-14
4.40108e-14
4.40525e-14
4.40032e-14
4.39676e-14
4.39778e-14
4.39388e-14
4.39649e-14
4.39633e-14
4.39026e-14
4.39572e-14
4.38939e-14
4.39336e-14
4.38539e-14
4.3834e-14
4.38435e-14
4.38703e-14
4.38245e-14
4.38773e-14
4.37876e-14
4.38029e-14
4.38132e-14
4.38295e-14
4.39028e-14
4.39247e-14
4.39792e-14
4.39315e-14
4.39783e-14
4.39492e-14
4.39998e-14
4.4005e-14
4.40295e-14
4.41002e-14
4.40802e-14
4.41414e-14
4.40749e-14
4.41579e-14
4.41124e-14
4.42102e-14
4.41397e-14
4.42569e-14
4.41436e-14
4.42545e-14
4.41726e-14
4.41972e-14
4.41848e-14
4.4165e-14
4.42509e-14
4.42971e-14
4.42523e-14
4.43356e-14
4.428e-14
4.42862e-14
4.42944e-14
4.42839e-14
4.43617e-14
4.43812e-14
4.43703e-14
4.44207e-14
4.4418e-14
4.44599e-14
4.44633e-14
4.44471e-14
4.44629e-14
4.44302e-14
4.44979e-14
4.44053e-14
4.45245e-14
4.44453e-14
4.45625e-14
4.45499e-14
4.46002e-14
4.46543e-14
4.46017e-14
4.46872e-14
4.4618e-14
4.46506e-14
4.46258e-14
4.47048e-14
4.4674e-14
4.47705e-14
4.47054e-14
4.47917e-14
4.47514e-14
4.48275e-14
4.4787e-14
4.48816e-14
4.48394e-14
4.49237e-14
4.49095e-14
4.49772e-14
4.49697e-14
4.50375e-14
4.49893e-14
4.51058e-14
4.50539e-14
4.51238e-14
4.51085e-14
4.5176e-14
4.51229e-14
4.51714e-14
4.50987e-14
4.51371e-14
4.51608e-14
4.51345e-14
4.52211e-14
4.51561e-14
4.52187e-14
4.52602e-14
4.52089e-14
4.53659e-14
4.5211e-14
4.53624e-14
4.532e-14
4.53427e-14
4.53899e-14
4.53905e-14
4.54228e-14
4.54714e-14
4.54461e-14
4.54912e-14
4.54615e-14
4.55803e-14
4.54635e-14
4.568e-14
4.54953e-14
4.56809e-14
4.55605e-14
4.56795e-14
4.56323e-14
4.57381e-14
4.56632e-14
4.57549e-14
4.56879e-14
4.58106e-14
4.57554e-14
4.58248e-14
4.58027e-14
4.58606e-14
4.57972e-14
4.58988e-14
4.58371e-14
4.59078e-14
4.58908e-14
4.59365e-14
4.59085e-14
4.59823e-14
4.59232e-14
4.60464e-14
4.59505e-14
4.60803e-14
4.59903e-14
4.60843e-14
4.6028e-14
4.60566e-14
4.6048e-14
4.61128e-14
4.60827e-14
4.62197e-14
4.60789e-14
4.62773e-14
4.60853e-14
4.62709e-14
4.6085e-14
4.6252e-14
4.60782e-14
4.62543e-14
4.60816e-14
4.62786e-14
4.60777e-14
4.63082e-14
4.61002e-14
4.63098e-14
4.61153e-14
4.62825e-14
4.61246e-14
4.62765e-14
4.61117e-14
4.62908e-14
4.61105e-14
4.62914e-14
4.61384e-14
4.62781e-14
4.61625e-14
4.62324e-14
4.61326e-14
4.62044e-14
4.61091e-14
4.61941e-14
4.61261e-14
4.62105e-14
4.61321e-14
4.62019e-14
4.61277e-14
4.61676e-14
4.6122e-14
4.61413e-14
4.6124e-14
4.61313e-14
4.61253e-14
4.60943e-14
4.61265e-14
4.60298e-14
4.61118e-14
4.60221e-14
4.60893e-14
4.60283e-14
4.60927e-14
4.60319e-14
4.60878e-14
4.6033e-14
4.60747e-14
4.60234e-14
4.60955e-14
4.59951e-14
4.61002e-14
4.59814e-14
4.6106e-14
4.59736e-14
4.60961e-14
4.59802e-14
4.60705e-14
4.59844e-14
4.60621e-14
4.59869e-14
4.60541e-14
4.59961e-14
4.60464e-14
4.60123e-14
4.60386e-14
4.60195e-14
4.60307e-14
4.60095e-14
4.60227e-14
4.60073e-14
4.60145e-14
4.60128e-14
4.59899e-14
4.60098e-14
4.59894e-14
4.60067e-14
4.59884e-14
4.60116e-14
4.59871e-14
4.60083e-14
4.59854e-14
4.59971e-14
4.59914e-14
4.59897e-14
4.59933e-14
4.59901e-14
4.59989e-14
4.59864e-14
4.60005e-14
4.59903e-14
4.60138e-14
4.59861e-14
4.60115e-14
4.59817e-14
4.60055e-14
4.59846e-14
4.59956e-14
4.59873e-14
4.59971e-14
4.59822e-14
4.59986e-14
4.59768e-14
4.6e-14
4.59751e-14
4.59977e-14
4.59805e-14
4.59917e-14
4.59821e-14
4.59894e-14
4.59798e-14
4.59797e-14
4.59699e-14
4.59736e-14
4.59673e-14
4.59675e-14
4.59646e-14
4.59577e-14
4.59653e-14
4.59515e-14
4.59695e-14
4.59416e-14
4.59666e-14
4.59351e-14
4.59602e-14
4.5925e-14
4.59573e-14
4.59286e-14
4.59614e-14
4.59319e-14
4.59655e-14
4.59282e-14
4.59594e-14
4.59244e-14
4.59466e-14
4.59255e-14
4.59423e-14
4.59314e-14
4.59464e-14
4.59289e-14
4.59486e-14
4.59279e-14
4.59411e-14
4.59236e-14
4.594e-14
4.59257e-14
4.59405e-14
4.59245e-14
4.59377e-14
4.59231e-14
4.59334e-14
4.59233e-14
4.59337e-14
4.59234e-14
4.59372e-14
4.59234e-14
4.59421e-14
4.59248e-14
4.59423e-14
4.59231e-14
4.5941e-14
4.59213e-14
4.59427e-14
4.59195e-14
4.59459e-14
4.59176e-14
4.59491e-14
4.59156e-14
4.59522e-14
4.5915e-14
4.59554e-14
4.59143e-14
4.59571e-14
4.59135e-14
4.59602e-14
4.59111e-14
4.59634e-14
4.59058e-14
4.5968e-14
4.59047e-14
4.59712e-14
4.5907e-14
4.59738e-14
4.59057e-14
4.59749e-14
4.59035e-14
4.59754e-14
4.59026e-14
4.5976e-14
4.59016e-14
4.59773e-14
4.59012e-14
4.59801e-14
4.59007e-14
4.59843e-14
4.58994e-14
4.59851e-14
4.59001e-14
4.59838e-14
4.58993e-14
4.59847e-14
4.58991e-14
4.5985e-14
4.58988e-14
4.5986e-14
4.58984e-14
4.59863e-14
4.58979e-14
4.59867e-14
4.5898e-14
4.59879e-14
4.5898e-14
4.59884e-14
4.58973e-14
4.59875e-14
4.58964e-14
4.59889e-14
4.58962e-14
4.59903e-14
4.58978e-14
4.59914e-14
4.58989e-14
4.59922e-14
4.58989e-14
4.59914e-14
4.58999e-14
4.59912e-14
4.59008e-14
4.59913e-14
4.59018e-14
4.59923e-14
4.59026e-14
4.59937e-14
4.59026e-14
4.59943e-14
4.59022e-14
4.59938e-14
4.59008e-14
4.59937e-14
4.59011e-14
4.59932e-14
4.59004e-14
4.59936e-14
4.58997e-14
4.59932e-14
4.58999e-14
4.59914e-14
4.58999e-14
4.5991e-14
4.59e-14
4.59916e-14
4.58999e-14
4.59912e-14
4.59001e-14
4.59904e-14
4.59003e-14
4.59908e-14
4.59006e-14
4.59912e-14
4.59012e-14
4.59907e-14
4.59015e-14
4.59901e-14
4.5901e-14
4.59906e-14
4.59012e-14
4.59914e-14
4.59017e-14
4.59915e-14
4.59019e-14
4.59918e-14
4.59012e-14
4.59924e-14
4.59005e-14
4.59933e-14
4.59003e-14
4.5994e-14
4.58995e-14
4.59944e-14
4.58993e-14
4.59949e-14
4.58989e-14
4.5995e-14
4.58986e-14
4.59943e-14
4.58979e-14
4.59941e-14
4.58976e-14
4.59951e-14
4.58974e-14
4.59957e-14
4.58968e-14
4.59956e-14
4.58963e-14
4.59957e-14
4.58959e-14
4.59958e-14
4.58959e-14
4.59961e-14
4.58957e-14
4.59959e-14
4.58957e-14
4.59951e-14
4.58957e-14
4.59946e-14
4.58958e-14
4.59945e-14
4.58962e-14
4.59944e-14
4.58961e-14
4.59941e-14
4.58962e-14
4.59939e-14
4.58962e-14
4.59934e-14
4.58967e-14
4.59927e-14
4.58972e-14
4.59923e-14
4.58972e-14
4.59922e-14
4.58974e-14
4.59921e-14
4.58976e-14
4.59919e-14
4.5898e-14
4.59915e-14
4.58981e-14
4.59916e-14
4.58983e-14
4.59917e-14
4.58986e-14
4.59916e-14
4.58988e-14
4.59914e-14
4.58989e-14
4.59912e-14
4.5899e-14
4.5991e-14
4.5899e-14
4.5991e-14
4.58991e-14
4.5991e-14
4.58993e-14
4.59908e-14
4.58994e-14
4.59908e-14
4.58996e-14
4.59908e-14
4.58997e-14
4.59907e-14
4.58997e-14
4.59906e-14
4.58998e-14
4.59906e-14
4.58999e-14
4.59905e-14
4.59e-14
4.59904e-14
4.59e-14
4.59903e-14
4.59e-14
4.59903e-14
4.59e-14
4.59903e-14
4.59001e-14
4.59903e-14
4.59002e-14
4.59903e-14
4.59001e-14
4.59902e-14
4.59001e-14
4.59902e-14
4.59001e-14
4.59902e-14
4.59001e-14
4.59902e-14
4.59001e-14
4.59902e-14
4.59001e-14
4.59902e-14
4.41944e-14
4.4262e-14
4.42513e-14
4.43064e-14
4.42939e-14
4.43666e-14
4.43761e-14
4.43443e-14
4.43194e-14
4.43211e-14
4.43716e-14
4.44624e-14
4.44044e-14
4.45274e-14
4.43602e-14
4.45238e-14
4.44107e-14
4.44529e-14
4.44475e-14
4.44456e-14
4.44835e-14
4.44117e-14
4.45599e-14
4.45034e-14
4.45944e-14
4.45348e-14
4.45861e-14
4.4611e-14
4.46007e-14
4.46599e-14
4.4663e-14
4.46593e-14
4.4701e-14
4.47166e-14
4.47135e-14
4.47776e-14
4.47489e-14
4.4761e-14
4.47565e-14
4.47144e-14
4.47999e-14
4.48026e-14
4.4874e-14
4.49165e-14
4.49453e-14
4.50059e-14
4.5012e-14
4.50444e-14
4.50472e-14
4.51484e-14
4.51052e-14
4.52056e-14
4.51554e-14
4.52167e-14
4.51709e-14
4.52364e-14
4.51823e-14
4.52037e-14
4.52585e-14
4.52389e-14
4.53416e-14
4.5309e-14
4.53065e-14
4.532e-14
4.53696e-14
4.5239e-14
4.54508e-14
4.52696e-14
4.54601e-14
4.53141e-14
4.55187e-14
4.53787e-14
4.55929e-14
4.5465e-14
4.5585e-14
4.54769e-14
4.56223e-14
4.55136e-14
4.56395e-14
4.56066e-14
4.56481e-14
4.55964e-14
4.56648e-14
4.55803e-14
4.56898e-14
4.56725e-14
4.57008e-14
4.57453e-14
4.57272e-14
4.5737e-14
4.57541e-14
4.57775e-14
4.57799e-14
4.58854e-14
4.58168e-14
4.59152e-14
4.58326e-14
4.59333e-14
4.58945e-14
4.60245e-14
4.58999e-14
4.60727e-14
4.58976e-14
4.61134e-14
4.59199e-14
4.61304e-14
4.59162e-14
4.61398e-14
4.60051e-14
4.62103e-14
4.60518e-14
4.62914e-14
4.60557e-14
4.63672e-14
4.60999e-14
4.63877e-14
4.6135e-14
4.63507e-14
4.6164e-14
4.63218e-14
4.62066e-14
4.62989e-14
4.61967e-14
4.62967e-14
4.62027e-14
4.62975e-14
4.62425e-14
4.63009e-14
4.62307e-14
4.63057e-14
4.62185e-14
4.633e-14
4.6222e-14
4.63577e-14
4.62235e-14
4.63549e-14
4.62061e-14
4.63558e-14
4.62206e-14
4.63436e-14
4.62159e-14
4.63007e-14
4.62016e-14
4.62864e-14
4.61952e-14
4.6292e-14
4.61963e-14
4.63175e-14
4.61957e-14
4.63204e-14
4.61935e-14
4.6301e-14
4.61901e-14
4.62849e-14
4.61856e-14
4.62716e-14
4.61803e-14
4.62526e-14
4.61829e-14
4.62706e-14
4.61761e-14
4.62831e-14
4.6177e-14
4.62734e-14
4.61686e-14
4.62497e-14
4.61682e-14
4.62115e-14
4.61594e-14
4.61752e-14
4.61508e-14
4.61656e-14
4.61676e-14
4.61573e-14
4.61597e-14
4.61584e-14
4.61437e-14
4.6152e-14
4.61364e-14
4.61466e-14
4.61295e-14
4.61338e-14
4.61229e-14
4.61135e-14
4.61167e-14
4.61019e-14
4.61111e-14
4.60907e-14
4.60896e-14
4.60796e-14
4.60686e-14
4.60851e-14
4.60477e-14
4.60911e-14
4.60511e-14
4.60733e-14
4.60465e-14
4.60722e-14
4.6042e-14
4.60635e-14
4.60535e-14
4.60552e-14
4.60492e-14
4.60471e-14
4.60413e-14
4.60432e-14
4.60453e-14
4.60355e-14
4.60416e-14
4.60437e-14
4.6042e-14
4.6052e-14
4.60462e-14
4.60488e-14
4.60621e-14
4.6042e-14
4.60514e-14
4.6043e-14
4.60446e-14
4.60402e-14
4.60419e-14
4.60376e-14
4.6043e-14
4.60351e-14
4.60443e-14
4.60328e-14
4.6042e-14
4.60416e-14
4.60324e-14
4.60432e-14
4.60339e-14
4.60339e-14
4.60283e-14
4.60357e-14
4.60227e-14
4.60268e-14
4.60137e-14
4.60253e-14
4.6012e-14
4.60204e-14
4.60068e-14
4.60121e-14
4.60052e-14
4.60074e-14
4.60037e-14
4.60064e-14
4.60024e-14
4.60054e-14
4.60011e-14
4.60011e-14
4.6e-14
4.59969e-14
4.60024e-14
4.59961e-14
4.59998e-14
4.60055e-14
4.59973e-14
4.60132e-14
4.59949e-14
4.60143e-14
4.59959e-14
4.60091e-14
4.59903e-14
4.6012e-14
4.59929e-14
4.60135e-14
4.59923e-14
4.60103e-14
4.59933e-14
4.60072e-14
4.59865e-14
4.60059e-14
4.59891e-14
4.60046e-14
4.59917e-14
4.60034e-14
4.59851e-14
4.60023e-14
4.59832e-14
4.60044e-14
4.59859e-14
4.60065e-14
4.5987e-14
4.60057e-14
4.59867e-14
4.60065e-14
4.59849e-14
4.60073e-14
4.5986e-14
4.60067e-14
4.59887e-14
4.60062e-14
4.59913e-14
4.60072e-14
4.59926e-14
4.60067e-14
4.59909e-14
4.60078e-14
4.59922e-14
4.60089e-14
4.59942e-14
4.60086e-14
4.59941e-14
4.60084e-14
4.59926e-14
4.60082e-14
4.59926e-14
4.6008e-14
4.59919e-14
4.60071e-14
4.59919e-14
4.6007e-14
4.5992e-14
4.60076e-14
4.5992e-14
4.60089e-14
4.59928e-14
4.60096e-14
4.59915e-14
4.6011e-14
4.59902e-14
4.60124e-14
4.59904e-14
4.60131e-14
4.5992e-14
4.60139e-14
4.59915e-14
4.60139e-14
4.59917e-14
4.6014e-14
4.59919e-14
4.60134e-14
4.59929e-14
4.60128e-14
4.59931e-14
4.60115e-14
4.59941e-14
4.60117e-14
4.59952e-14
4.60108e-14
4.59959e-14
4.60106e-14
4.59966e-14
4.60105e-14
4.59989e-14
4.60103e-14
4.59985e-14
4.60121e-14
4.59985e-14
4.60128e-14
4.59989e-14
4.60135e-14
4.59994e-14
4.60138e-14
4.5999e-14
4.60137e-14
4.59991e-14
4.60128e-14
4.59991e-14
4.60135e-14
4.59992e-14
4.60143e-14
4.59998e-14
4.60134e-14
4.60003e-14
4.60124e-14
4.60005e-14
4.60124e-14
4.59997e-14
4.60128e-14
4.5998e-14
4.6013e-14
4.59975e-14
4.6013e-14
4.59969e-14
4.60127e-14
4.59969e-14
4.60122e-14
4.59968e-14
4.60114e-14
4.59968e-14
4.60114e-14
4.5997e-14
4.60112e-14
4.59965e-14
4.60104e-14
4.59962e-14
4.60093e-14
4.59962e-14
4.60085e-14
4.5996e-14
4.60086e-14
4.59957e-14
4.60083e-14
4.59951e-14
4.60081e-14
4.59955e-14
4.60081e-14
4.59958e-14
4.60084e-14
4.59952e-14
4.60092e-14
4.59953e-14
4.60096e-14
4.59955e-14
4.60093e-14
4.5996e-14
4.60091e-14
4.59961e-14
4.60095e-14
4.59955e-14
4.60102e-14
4.59958e-14
4.60106e-14
4.59957e-14
4.60103e-14
4.59958e-14
4.60101e-14
4.59957e-14
4.60103e-14
4.59956e-14
4.60108e-14
4.59954e-14
4.60111e-14
4.59951e-14
4.60112e-14
4.59948e-14
4.60113e-14
4.59947e-14
4.60115e-14
4.59944e-14
4.6012e-14
4.59941e-14
4.60124e-14
4.59943e-14
4.60127e-14
4.59942e-14
4.60129e-14
4.59936e-14
4.6013e-14
4.59935e-14
4.60131e-14
4.59934e-14
4.60132e-14
4.59934e-14
4.60132e-14
4.59933e-14
4.60133e-14
4.59931e-14
4.60135e-14
4.5993e-14
4.60134e-14
4.5993e-14
4.60132e-14
4.59929e-14
4.6013e-14
4.59929e-14
4.60131e-14
4.59928e-14
4.60131e-14
4.59928e-14
4.6013e-14
4.59928e-14
4.6013e-14
4.59927e-14
4.60131e-14
4.59926e-14
4.6013e-14
4.59927e-14
4.60128e-14
4.59928e-14
4.60129e-14
4.59927e-14
4.6013e-14
4.59926e-14
4.6013e-14
4.59925e-14
4.60131e-14
4.59924e-14
4.60131e-14
4.59924e-14
4.60131e-14
4.59924e-14
4.60132e-14
4.59924e-14
4.60132e-14
4.59924e-14
4.60132e-14
4.59923e-14
4.60133e-14
4.59923e-14
4.60133e-14
4.59923e-14
4.60133e-14
4.59923e-14
4.60133e-14
4.59922e-14
4.60133e-14
4.59922e-14
4.60133e-14
)
;

boundaryField
{
    walls
    {
        type            zeroGradient;
    }
    inlet
    {
        type            cyclic;
    }
    outlet
    {
        type            cyclic;
    }
    sides
    {
        type            empty;
    }
}


// ************************************************************************* //
