/*--------------------------------*- C++ -*----------------------------------*\
| =========                 |                                                 |
| \\      /  F ield         | OpenFOAM: The Open Source CFD Toolbox           |
|  \\    /   O peration     | Version:  2106                                  |
|   \\  /    A nd           | Website:  www.openfoam.com                      |
|    \\/     M anipulation  |                                                 |
\*---------------------------------------------------------------------------*/
FoamFile
{
    version     2.0;
    format      ascii;
    arch        "LSB;label=32;scalar=64";
    class       surfaceScalarField;
    location    "10060";
    object      phi;
}
// * * * * * * * * * * * * * * * * * * * * * * * * * * * * * * * * * * * * * //

dimensions      [0 3 -1 0 0 0 0];

oriented        oriented;

internalField   nonuniform List<scalar> 
3996
(
9.04481e-09
-6.34648e-18
-1.1484e-22
-2.37451e-22
3.71e-27
2.78095e-08
-6.34577e-18
-2.3535e-22
-6.92994e-22
-1.17172e-23
4.76216e-08
-6.34507e-18
-2.35863e-22
-1.13767e-21
-1.23847e-23
6.85268e-08
-6.34433e-18
-2.47985e-22
-1.61004e-21
-1.30858e-23
9.05724e-08
-6.34355e-18
-2.58669e-22
-2.1116e-21
-1.38217e-23
1.13808e-07
-6.34275e-18
-2.68143e-22
-2.61544e-21
-1.45935e-23
1.38284e-07
-6.34191e-18
-2.77457e-22
-3.16822e-21
-1.54034e-23
1.64055e-07
-6.34106e-18
-2.86963e-22
-3.71071e-21
-1.62516e-23
1.91176e-07
-6.34017e-18
-2.96743e-22
-4.29569e-21
-1.71403e-23
2.19704e-07
-6.33933e-18
-3.06841e-22
-4.82172e-21
-1.80717e-23
2.497e-07
-6.33837e-18
-3.17282e-22
-5.41616e-21
-1.90468e-23
2.81226e-07
-6.33738e-18
-3.28082e-22
-6.07433e-21
-2.00673e-23
3.14346e-07
-6.33642e-18
-3.39248e-22
-6.6931e-21
-2.11332e-23
3.49128e-07
-6.33526e-18
-3.5079e-22
-7.33666e-21
-2.22474e-23
3.85642e-07
-6.33414e-18
-3.62724e-22
-8.07549e-21
-2.34088e-23
4.2396e-07
-6.33315e-18
-3.7506e-22
-8.70462e-21
-2.46206e-23
4.64158e-07
-6.33199e-18
-3.87806e-22
-9.43901e-21
-2.58872e-23
5.06315e-07
-6.33084e-18
-4.00981e-22
-1.02509e-20
-2.72048e-23
5.50512e-07
-6.32956e-18
-4.14599e-22
-1.0959e-20
-2.85756e-23
5.96835e-07
-6.32827e-18
-4.28679e-22
-1.1811e-20
-3.0004e-23
6.4537e-07
-6.32695e-18
-4.43235e-22
-1.28778e-20
-3.14806e-23
6.9621e-07
-6.32561e-18
-4.58286e-22
-1.34949e-20
-3.29987e-23
7.49449e-07
-6.32426e-18
-4.73849e-22
-1.42444e-20
-3.45721e-23
8.05187e-07
-6.32271e-18
-4.8994e-22
-1.52567e-20
-3.61984e-23
8.63526e-07
-6.32116e-18
-5.06589e-22
-1.62395e-20
-3.78698e-23
9.24573e-07
-6.31967e-18
-5.23825e-22
-1.71321e-20
-3.95901e-23
9.88439e-07
-6.31805e-18
-5.41679e-22
-1.83345e-20
-4.13614e-23
1.05524e-06
-6.31638e-18
-5.60169e-22
-1.95429e-20
-4.31578e-23
1.12509e-06
-6.31449e-18
-5.79314e-22
-2.09012e-20
-4.49896e-23
1.19812e-06
-6.31252e-18
-5.99148e-22
-2.19528e-20
-4.68523e-23
1.27445e-06
-6.31068e-18
-6.19704e-22
-2.28198e-20
-4.87532e-23
1.35422e-06
-6.30832e-18
-6.41e-22
-2.40862e-20
-5.0699e-23
1.43758e-06
-6.30631e-18
-6.63085e-22
-2.57122e-20
-5.26556e-23
1.52465e-06
-6.30422e-18
-6.85997e-22
-2.7218e-20
-5.46202e-23
1.61559e-06
-6.30216e-18
-7.09772e-22
-2.82307e-20
-5.65758e-23
1.71057e-06
-6.30001e-18
-7.34435e-22
-2.96088e-20
-5.85667e-23
1.80973e-06
-6.2977e-18
-7.60044e-22
-3.0952e-20
-6.05631e-23
1.91325e-06
-6.29549e-18
-7.86623e-22
-3.22058e-20
-6.25564e-23
2.02129e-06
-6.2929e-18
-8.14232e-22
-3.41693e-20
-6.45169e-23
2.13405e-06
-6.29046e-18
-8.42948e-22
-3.56679e-20
-6.63886e-23
2.2517e-06
-6.28793e-18
-8.72819e-22
-3.76837e-20
-6.82097e-23
2.37444e-06
-6.28509e-18
-9.03872e-22
-4.00451e-20
-6.99459e-23
2.50247e-06
-6.28283e-18
-9.36197e-22
-4.14488e-20
-7.15636e-23
2.636e-06
-6.27889e-18
-9.69826e-22
-4.32676e-20
-7.31274e-23
2.77525e-06
-6.27575e-18
-1.00492e-21
-4.5565e-20
-7.46434e-23
2.92044e-06
-6.27257e-18
-1.04147e-21
-4.78057e-20
-7.60537e-23
3.07179e-06
-6.26976e-18
-1.07963e-21
-5.04893e-20
-7.73431e-23
3.22956e-06
-6.26637e-18
-1.11933e-21
-5.22774e-20
-7.8494e-23
3.39398e-06
-6.26338e-18
-1.16071e-21
-5.42937e-20
-7.95814e-23
3.56532e-06
-6.25893e-18
-1.20378e-21
-5.64043e-20
-8.06214e-23
3.74385e-06
-6.25554e-18
-1.24873e-21
-5.90588e-20
-8.14374e-23
3.92983e-06
-6.25107e-18
-1.29557e-21
-6.14592e-20
-8.203e-23
4.12355e-06
-6.24877e-18
-1.34449e-21
-6.46195e-20
-8.24717e-23
4.32531e-06
-6.24284e-18
-1.39549e-21
-6.87996e-20
-8.24608e-23
4.53541e-06
-6.23721e-18
-1.44894e-21
-7.2473e-20
-8.20355e-23
4.75416e-06
-6.23319e-18
-1.50498e-21
-7.51232e-20
-8.13412e-23
4.98189e-06
-6.22983e-18
-1.56354e-21
-7.82134e-20
-8.0349e-23
5.21892e-06
-6.22489e-18
-1.62469e-21
-8.13619e-20
-7.89188e-23
5.4656e-06
-6.21881e-18
-1.68878e-21
-8.64998e-20
-7.68811e-23
5.72228e-06
-6.21328e-18
-1.75608e-21
-9.03521e-20
-7.41424e-23
5.98932e-06
-6.20732e-18
-1.82662e-21
-9.44434e-20
-7.08592e-23
6.26708e-06
-6.20024e-18
-1.90031e-21
-9.78973e-20
-6.71059e-23
6.55596e-06
-6.19352e-18
-1.97759e-21
-1.0254e-19
-6.25819e-23
6.85632e-06
-6.18713e-18
-2.05868e-21
-1.06259e-19
-5.72119e-23
7.16858e-06
-6.18091e-18
-2.14343e-21
-1.09759e-19
-5.14173e-23
7.49312e-06
-6.17314e-18
-2.23196e-21
-1.13719e-19
-4.49797e-23
7.83037e-06
-6.16569e-18
-2.32433e-21
-1.18874e-19
-3.79864e-23
8.18073e-06
-6.15817e-18
-2.42043e-21
-1.26019e-19
-3.03431e-23
8.54462e-06
-6.14848e-18
-2.52096e-21
-1.33249e-19
-2.08191e-23
8.92247e-06
-6.14137e-18
-2.62602e-21
-1.37902e-19
-1.00474e-23
9.3147e-06
-6.13356e-18
-2.73539e-21
-1.42798e-19
1.11786e-24
9.72175e-06
-6.12511e-18
-2.84919e-21
-1.47366e-19
1.33261e-23
1.0144e-05
-6.11636e-18
-2.96741e-21
-1.54682e-19
2.65233e-23
1.0582e-05
-6.10763e-18
-3.09028e-21
-1.62166e-19
4.07522e-23
1.10361e-05
-6.09881e-18
-3.21804e-21
-1.67286e-19
5.60496e-23
1.15066e-05
-6.0899e-18
-3.35112e-21
-1.7535e-19
7.27234e-23
1.19942e-05
-6.07746e-18
-3.48865e-21
-1.83736e-19
8.96038e-23
1.2499e-05
-6.0646e-18
-3.63063e-21
-1.92325e-19
1.06701e-22
1.30216e-05
-6.05448e-18
-3.77769e-21
-1.99706e-19
1.25528e-22
1.35624e-05
-6.04408e-18
-3.92892e-21
-2.07876e-19
1.4482e-22
1.41217e-05
-6.0311e-18
-4.0838e-21
-2.16578e-19
1.63722e-22
1.47e-05
-6.01634e-18
-4.24292e-21
-2.27025e-19
1.82886e-22
1.52975e-05
-6.00061e-18
-4.40642e-21
-2.40814e-19
2.02681e-22
1.59147e-05
-5.98733e-18
-4.57502e-21
-2.50907e-19
2.2421e-22
1.65518e-05
-5.97123e-18
-4.74679e-21
-2.6508e-19
2.46239e-22
1.72092e-05
-5.95641e-18
-4.92358e-21
-2.71046e-19
2.69723e-22
1.78872e-05
-5.94745e-18
-5.10454e-21
-2.81661e-19
2.91387e-22
1.85862e-05
-5.93487e-18
-5.28626e-21
-2.89949e-19
3.13503e-22
1.93064e-05
-5.91715e-18
-5.47017e-21
-3.02524e-19
3.35331e-22
2.00481e-05
-5.90316e-18
-5.65916e-21
-3.13441e-19
3.57291e-22
2.08116e-05
-5.8834e-18
-5.85227e-21
-3.29936e-19
3.77788e-22
2.15971e-05
-5.86074e-18
-6.04783e-21
-3.47869e-19
3.97705e-22
2.24049e-05
-5.83372e-18
-6.24607e-21
-3.65268e-19
4.18064e-22
2.32354e-05
-5.81609e-18
-6.44971e-21
-3.79676e-19
4.37469e-22
2.40886e-05
-5.79545e-18
-6.65253e-21
-3.92831e-19
4.54004e-22
2.4965e-05
-5.7732e-18
-6.85386e-21
-4.0757e-19
4.65497e-22
2.58647e-05
-5.75039e-18
-7.05674e-21
-4.23051e-19
4.72691e-22
2.67881e-05
-5.7284e-18
-7.26019e-21
-4.42805e-19
4.78691e-22
2.77354e-05
-5.70282e-18
-7.4614e-21
-4.59931e-19
4.81856e-22
2.87069e-05
-5.67539e-18
-7.66435e-21
-4.81008e-19
4.83223e-22
2.97029e-05
-5.65682e-18
-7.86584e-21
-4.91263e-19
4.82482e-22
3.07236e-05
-5.63635e-18
-8.0688e-21
-5.09422e-19
4.74453e-22
3.17695e-05
-5.61223e-18
-8.27017e-21
-5.26483e-19
4.6769e-22
3.28408e-05
-5.58998e-18
-8.47733e-21
-5.4367e-19
4.63921e-22
3.39379e-05
-5.57018e-18
-8.68489e-21
-5.63159e-19
4.58154e-22
3.50611e-05
-5.54494e-18
-8.90149e-21
-5.86499e-19
4.53218e-22
3.62108e-05
-5.51849e-18
-9.12445e-21
-6.05099e-19
4.54216e-22
3.73875e-05
-5.49434e-18
-9.35406e-21
-6.29816e-19
4.62664e-22
3.85914e-05
-5.46668e-18
-9.5876e-21
-6.43804e-19
4.64665e-22
3.98231e-05
-5.42381e-18
-9.83183e-21
-6.70315e-19
4.59405e-22
4.1083e-05
-5.38558e-18
-1.00939e-20
-6.95867e-19
4.49754e-22
4.23716e-05
-5.34794e-18
-1.03563e-20
-7.28214e-19
4.45274e-22
4.36893e-05
-5.3106e-18
-1.063e-20
-7.55627e-19
4.45257e-22
4.50367e-05
-5.26961e-18
-1.09038e-20
-7.82052e-19
4.38641e-22
4.64143e-05
-5.22195e-18
-1.11902e-20
-8.14756e-19
4.2147e-22
4.78225e-05
-5.19031e-18
-1.14889e-20
-8.28945e-19
4.01654e-22
4.92621e-05
-5.15621e-18
-1.17714e-20
-8.46203e-19
3.56553e-22
5.07336e-05
-5.11283e-18
-1.2048e-20
-8.61823e-19
2.96643e-22
5.22375e-05
-5.07552e-18
-1.23196e-20
-8.81272e-19
2.26703e-22
5.37746e-05
-5.01839e-18
-1.25705e-20
-9.18265e-19
1.34159e-22
5.53454e-05
-4.98528e-18
-1.28243e-20
-9.43199e-19
3.8188e-23
5.69506e-05
-4.95238e-18
-1.30382e-20
-9.63456e-19
-7.89318e-23
5.85909e-05
-4.92817e-18
-1.32093e-20
-9.88861e-19
-2.17449e-22
6.0267e-05
-4.88631e-18
-1.33433e-20
-1.01037e-18
-3.42705e-22
6.19797e-05
-4.83184e-18
-1.34675e-20
-1.02804e-18
-4.90368e-22
6.37296e-05
-4.79383e-18
-1.36162e-20
-1.05942e-18
-6.67532e-22
6.55176e-05
-4.74971e-18
-1.37592e-20
-1.0853e-18
-8.42212e-22
6.73443e-05
-4.71237e-18
-1.39167e-20
-1.10658e-18
-1.02024e-21
6.92107e-05
-4.68187e-18
-1.40844e-20
-1.13025e-18
-1.23359e-21
7.11175e-05
-4.64407e-18
-1.4231e-20
-1.15848e-18
-1.4622e-21
7.30657e-05
-4.59487e-18
-1.43818e-20
-1.18296e-18
-1.68082e-21
7.50559e-05
-4.53988e-18
-1.45775e-20
-1.20757e-18
-1.92393e-21
7.70893e-05
-4.48494e-18
-1.47795e-20
-1.22912e-18
-2.17005e-21
7.91665e-05
-4.43656e-18
-1.50092e-20
-1.26374e-18
-2.4046e-21
8.12887e-05
-4.3889e-18
-1.52414e-20
-1.28341e-18
-2.57655e-21
8.34566e-05
-4.33872e-18
-1.54418e-20
-1.31269e-18
-2.73079e-21
8.56714e-05
-4.27735e-18
-1.56248e-20
-1.35156e-18
-2.89373e-21
8.7934e-05
-4.23233e-18
-1.58128e-20
-1.3708e-18
-3.04588e-21
9.02453e-05
-4.17638e-18
-1.5931e-20
-1.40571e-18
-3.21666e-21
9.26065e-05
-4.11558e-18
-1.6064e-20
-1.42034e-18
-3.38017e-21
9.50186e-05
-4.07076e-18
-1.62436e-20
-1.44235e-18
-3.59849e-21
9.74827e-05
-4.01659e-18
-1.64721e-20
-1.47881e-18
-3.83402e-21
9.99999e-05
-3.9638e-18
-1.66639e-20
-1.49792e-18
-4.05739e-21
0.000102571
-3.90853e-18
-1.67754e-20
-1.52073e-18
-4.30101e-21
0.000105198
-3.84493e-18
-1.6893e-20
-1.5368e-18
-4.54184e-21
0.000107882
-3.80394e-18
-1.70609e-20
-1.56052e-18
-4.77308e-21
0.000110623
-3.74998e-18
-1.71746e-20
-1.58145e-18
-4.99069e-21
0.000113423
-3.70156e-18
-1.73305e-20
-1.59626e-18
-5.22433e-21
0.000116283
-3.65203e-18
-1.74544e-20
-1.62043e-18
-5.50369e-21
0.000119205
-3.57915e-18
-1.75747e-20
-1.63522e-18
-5.73511e-21
0.00012219
-3.51292e-18
-1.78959e-20
-1.65655e-18
-5.91976e-21
0.000125239
-3.46598e-18
-1.83593e-20
-1.66738e-18
-6.05722e-21
0.000128353
-3.48362e-18
-1.88115e-20
-1.6676e-18
-6.27367e-21
0.000131535
-3.42847e-18
-1.89581e-20
-1.68444e-18
-6.50283e-21
0.000134784
-3.39087e-18
-1.89969e-20
-1.686e-18
-6.80324e-21
0.000138104
-3.34697e-18
-1.89374e-20
-1.69159e-18
-7.12955e-21
0.000141495
-3.28387e-18
-1.86705e-20
-1.70144e-18
-7.5375e-21
0.000144959
-3.25658e-18
-1.84864e-20
-1.71471e-18
-8.11891e-21
0.000148496
-3.16727e-18
-1.81822e-20
-1.75998e-18
-8.77627e-21
0.00015211
-3.14609e-18
-1.8079e-20
-1.76502e-18
-9.08032e-21
0.000155802
-3.10094e-18
-1.7837e-20
-1.76666e-18
-9.34195e-21
0.000159572
-3.04918e-18
-1.74915e-20
-1.76174e-18
-9.60669e-21
0.000163423
-3.0101e-18
-1.73488e-20
-1.76494e-18
-9.60179e-21
0.000167357
-2.96811e-18
-1.72912e-20
-1.79278e-18
-9.56028e-21
0.000171375
-2.92627e-18
-1.73126e-20
-1.77689e-18
-9.55812e-21
0.000175479
-2.91081e-18
-1.73733e-20
-1.77854e-18
-9.59986e-21
0.000179671
-2.90498e-18
-1.72556e-20
-1.78164e-18
-9.86319e-21
0.000183952
-2.84203e-18
-1.6987e-20
-1.81146e-18
-9.93473e-21
0.000188325
-2.8077e-18
-1.68031e-20
-1.80679e-18
-9.63136e-21
0.000192791
-2.76977e-18
-1.68297e-20
-1.80155e-18
-9.6751e-21
0.000197353
-2.71248e-18
-1.6892e-20
-1.81366e-18
-9.88741e-21
0.000202011
-2.65243e-18
-1.70553e-20
-1.77269e-18
-1.02307e-20
0.00020677
-2.65785e-18
-1.73956e-20
-1.76741e-18
-1.09853e-20
0.000211629
-2.57597e-18
-1.73066e-20
-1.75666e-18
-1.17025e-20
0.000216592
-2.55801e-18
-1.77666e-20
-1.73856e-18
-1.23319e-20
0.000221661
-2.48491e-18
-1.82182e-20
-1.73699e-18
-1.29478e-20
0.000226837
-2.4603e-18
-1.9039e-20
-1.69035e-18
-1.37355e-20
0.000232124
-2.43962e-18
-1.9742e-20
-1.68696e-18
-1.48044e-20
0.000237522
-2.41272e-18
-2.07212e-20
-1.65795e-18
-1.56213e-20
0.000243036
-2.42136e-18
-2.16947e-20
-1.64373e-18
-1.69201e-20
0.000248666
-2.35354e-18
-2.19206e-20
-1.71034e-18
-1.87293e-20
0.000254415
-2.28328e-18
-2.2272e-20
-1.71202e-18
-1.97964e-20
0.000260286
-2.24816e-18
-2.25679e-20
-1.72005e-18
-2.03214e-20
0.000266281
-2.20342e-18
-2.28678e-20
-1.71614e-18
-1.9611e-20
0.000272403
-2.17187e-18
-2.3003e-20
-1.69062e-18
-1.86891e-20
0.000278654
-2.16125e-18
-2.20804e-20
-1.72185e-18
-1.80416e-20
0.000285037
-2.11087e-18
-2.13931e-20
-1.70424e-18
-1.68272e-20
0.000291555
-2.08521e-18
-2.04435e-20
-1.73367e-18
-1.62863e-20
0.000298209
-2.0174e-18
-1.93998e-20
-1.67773e-18
-1.52526e-20
0.000305004
-2.00783e-18
-1.8467e-20
-1.7325e-18
-1.52572e-20
0.000311941
-1.9692e-18
-1.70185e-20
-1.75293e-18
-1.48604e-20
0.000319023
-1.94604e-18
-1.61371e-20
-1.78389e-18
-1.45599e-20
0.000326254
-1.91498e-18
-1.61166e-20
-1.83183e-18
-1.35662e-20
0.000333636
-1.93755e-18
-1.70926e-20
-1.86019e-18
-1.35131e-20
0.000341172
-1.99233e-18
-1.76e-20
-1.90527e-18
-1.25307e-20
0.000348866
-1.96684e-18
-1.6446e-20
-1.88817e-18
-1.14297e-20
0.00035672
-1.95554e-18
-1.6008e-20
-1.90814e-18
-1.037e-20
0.000364737
-1.90229e-18
-1.52953e-20
-1.93238e-18
-1.0163e-20
0.00037292
-1.86909e-18
-1.55808e-20
-1.86668e-18
-9.57158e-21
0.000381274
-1.93396e-18
-1.60976e-20
-1.79967e-18
-9.89305e-21
0.0003898
-1.90296e-18
-1.48404e-20
-1.80565e-18
-1.16055e-20
0.000398502
-1.90656e-18
-1.30437e-20
-1.73636e-18
-1.09299e-20
0.000407384
-1.90714e-18
-9.85684e-21
-1.73091e-18
-1.27023e-20
0.000416448
-1.77204e-18
-8.51729e-21
-1.68428e-18
-1.60547e-20
0.000425698
-1.72646e-18
-1.00665e-20
-1.71575e-18
-1.91883e-20
0.000435138
-1.70822e-18
-1.10461e-20
-1.68356e-18
-2.17341e-20
0.000444772
-1.68248e-18
-1.28669e-20
-1.65362e-18
-2.4296e-20
0.000454601
-1.57622e-18
-1.36405e-20
-1.73765e-18
-2.6114e-20
0.00046463
-1.62948e-18
-1.63236e-20
-1.64115e-18
-2.48148e-20
0.000474863
-1.59611e-18
-1.47758e-20
-1.52621e-18
-2.59666e-20
0.000485303
-1.59062e-18
-1.17325e-20
-1.49032e-18
-2.62445e-20
0.000495954
-1.47441e-18
-1.00643e-20
-1.4864e-18
-2.15878e-20
0.000506819
-1.43252e-18
-1.07961e-20
-1.35006e-18
-1.54284e-20
0.000517902
-1.40092e-18
-9.66083e-21
-1.3491e-18
-1.64902e-20
0.000529206
-1.23042e-18
-1.02641e-20
-1.43657e-18
-1.77378e-20
0.000540735
-1.29618e-18
-2.08551e-20
-1.37512e-18
-1.46815e-20
0.000552492
-1.41008e-18
-2.87608e-20
-1.40188e-18
-1.02875e-20
0.000564482
-1.39213e-18
-3.12154e-20
-1.3273e-18
-8.02186e-21
0.000576708
-1.34369e-18
-3.38438e-20
-1.33551e-18
-1.36963e-20
0.000589172
-1.43855e-18
-4.0056e-20
-1.36352e-18
-2.26696e-20
0.00060188
-1.3478e-18
-3.78554e-20
-1.34267e-18
-2.97888e-20
0.000614834
-1.27381e-18
-3.7782e-20
-1.4538e-18
-3.9042e-20
0.000628037
-1.35344e-18
-3.96981e-20
-1.41893e-18
-3.82689e-20
0.000641493
-1.39393e-18
-3.86324e-20
-1.37441e-18
-3.44126e-20
0.000655204
-1.30784e-18
-2.90927e-20
-1.32091e-18
-3.82043e-20
0.000669175
-1.17694e-18
-2.95615e-20
-1.43922e-18
-4.14753e-20
0.000683408
-1.34993e-18
-4.16438e-20
-1.29414e-18
-3.59516e-20
0.000697905
-1.2722e-18
-3.93078e-20
-1.22729e-18
-3.558e-20
0.000712669
-1.35421e-18
-4.14724e-20
-1.2963e-18
-3.16124e-20
0.000727703
-1.31217e-18
-3.98228e-20
-1.31951e-18
-2.58504e-20
0.000743008
-1.1953e-18
-3.86557e-20
-1.33003e-18
-1.89671e-20
0.000758587
-1.38025e-18
-4.63412e-20
-1.27457e-18
-1.44363e-20
0.000774439
-1.34725e-18
-3.2692e-20
-1.24939e-18
-1.48879e-20
0.000790568
-1.36786e-18
-2.79947e-20
-1.2929e-18
-1.65612e-20
0.000806973
-1.34755e-18
-2.22332e-20
-1.31805e-18
-7.17584e-21
0.000823654
-1.43083e-18
-2.20575e-20
-1.38597e-18
-9.90396e-21
0.00084061
-1.44763e-18
-1.28988e-20
-1.45004e-18
-1.33874e-20
0.000857841
-1.36519e-18
3.47989e-21
-1.39463e-18
-5.24453e-21
0.000875344
-1.3971e-18
1.64264e-21
-1.35827e-18
-1.93571e-21
0.000893117
-1.4328e-18
-1.68728e-20
-1.3459e-18
-1.17499e-20
0.000911157
-1.52123e-18
-3.1649e-20
-1.44694e-18
-1.83399e-20
0.000929457
-1.45748e-18
-2.13293e-20
-1.47204e-18
-1.65034e-20
0.000948013
-1.28555e-18
-1.21946e-20
-1.35598e-18
-1.00544e-20
0.000966818
-1.24506e-18
-2.09416e-20
-1.1979e-18
-1.67226e-20
0.000985863
-1.11515e-18
-2.74582e-20
-1.18722e-18
-2.67729e-20
0.00100514
-1.04608e-18
-1.54314e-20
-1.12263e-18
-3.60794e-20
0.00102464
-1.17704e-18
-2.77502e-20
-1.00381e-18
-4.13643e-20
0.00104434
-1.02584e-18
-8.67275e-21
-1.04623e-18
-4.44209e-20
0.00106424
-1.06093e-18
1.05398e-20
-9.97493e-19
-2.29357e-20
0.00108432
3.43736e-20
-8.08998e-19
2.73856e-21
-1.14268e-18
9.04481e-09
-1.11257e-22
-3.98009e-24
2.78095e-08
-3.20262e-22
-3.44658e-23
4.76216e-08
-5.39702e-22
-6.39966e-23
6.85268e-08
-7.57064e-22
-1.13663e-22
9.05724e-08
-9.94863e-22
-1.47582e-22
1.13808e-07
-1.22675e-21
-1.92245e-22
1.38284e-07
-1.46134e-21
-2.0634e-22
1.64055e-07
-1.70972e-21
-2.4237e-22
1.91176e-07
-1.96022e-21
-3.08715e-22
2.19704e-07
-2.22529e-21
-3.09399e-22
2.497e-07
-2.46455e-21
-3.92078e-22
2.81226e-07
-2.72342e-21
-4.42939e-22
3.14346e-07
-3.0424e-21
-5.32406e-22
3.49128e-07
-3.37184e-21
-5.54762e-22
3.85642e-07
-3.65319e-21
-6.68273e-22
4.2396e-07
-3.95827e-21
-7.30468e-22
4.64158e-07
-4.27769e-21
-7.47513e-22
5.06315e-07
-4.65777e-21
-8.91111e-22
5.50512e-07
-5.03803e-21
-1.03959e-21
5.96835e-07
-5.42446e-21
-1.01934e-21
6.4537e-07
-5.83801e-21
-9.66378e-22
6.9621e-07
-6.27191e-21
-9.13465e-22
7.49449e-07
-6.65238e-21
-9.77071e-22
8.05187e-07
-6.97595e-21
-1.09597e-21
8.63526e-07
-7.45785e-21
-1.28284e-21
9.24573e-07
-8.18423e-21
-1.46503e-21
9.88439e-07
-8.64845e-21
-1.31694e-21
1.05524e-06
-8.96e-21
-1.48412e-21
1.12509e-06
-9.37775e-21
-1.64242e-21
1.19812e-06
-9.91193e-21
-1.80807e-21
1.27445e-06
-1.04443e-20
-2.04742e-21
1.35422e-06
-1.08673e-20
-1.81863e-21
1.43758e-06
-1.16199e-20
-2.03725e-21
1.52465e-06
-1.23153e-20
-1.98497e-21
1.61559e-06
-1.2806e-20
-2.41418e-21
1.71057e-06
-1.34534e-20
-2.70732e-21
1.80973e-06
-1.35728e-20
-3.07657e-21
1.91325e-06
-1.412e-20
-3.14337e-21
2.02129e-06
-1.49298e-20
-3.13314e-21
2.13405e-06
-1.58145e-20
-3.30395e-21
2.2517e-06
-1.61737e-20
-3.535e-21
2.37444e-06
-1.6892e-20
-3.77998e-21
2.50247e-06
-1.77549e-20
-3.83842e-21
2.636e-06
-1.85327e-20
-4.12434e-21
2.77525e-06
-1.9618e-20
-3.83784e-21
2.92044e-06
-2.17468e-20
-3.60612e-21
3.07179e-06
-2.25794e-20
-4.22805e-21
3.22956e-06
-2.34478e-20
-4.7644e-21
3.39398e-06
-2.43596e-20
-5.64738e-21
3.56532e-06
-2.51492e-20
-4.96112e-21
3.74385e-06
-2.60923e-20
-4.87995e-21
3.92983e-06
-2.67162e-20
-5.85284e-21
4.12355e-06
-2.88485e-20
-5.24942e-21
4.32531e-06
-2.99379e-20
-5.5672e-21
4.53541e-06
-3.09312e-20
-6.71811e-21
4.75416e-06
-3.17378e-20
-7.76369e-21
4.98189e-06
-3.24192e-20
-8.63314e-21
5.21892e-06
-3.35524e-20
-8.1938e-21
5.4656e-06
-3.48523e-20
-9.00227e-21
5.72228e-06
-3.66003e-20
-9.59428e-21
5.98932e-06
-3.66475e-20
-1.11249e-20
6.26708e-06
-3.82982e-20
-1.05408e-20
6.55596e-06
-4.11141e-20
-1.00202e-20
6.85632e-06
-4.29728e-20
-1.11791e-20
7.16858e-06
-4.53835e-20
-1.13258e-20
7.49312e-06
-4.68105e-20
-1.20533e-20
7.83037e-06
-4.77486e-20
-1.3787e-20
8.18073e-06
-5.20336e-20
-1.1671e-20
8.54462e-06
-5.39178e-20
-1.28314e-20
8.92247e-06
-5.56926e-20
-1.44037e-20
9.3147e-06
-5.69777e-20
-1.39559e-20
9.72175e-06
-5.7841e-20
-1.41599e-20
1.0144e-05
-6.02181e-20
-1.47366e-20
1.0582e-05
-6.416e-20
-1.55999e-20
1.10361e-05
-6.98312e-20
-1.33752e-20
1.15066e-05
-7.18717e-20
-1.68876e-20
1.19942e-05
-7.25527e-20
-2.03946e-20
1.2499e-05
-7.63031e-20
-2.06089e-20
1.30216e-05
-8.00688e-20
-2.19968e-20
1.35624e-05
-8.24842e-20
-2.3425e-20
1.41217e-05
-8.44879e-20
-2.44538e-20
1.47e-05
-8.67847e-20
-2.52534e-20
1.52975e-05
-9.1877e-20
-2.30023e-20
1.59147e-05
-9.20087e-20
-2.21366e-20
1.65518e-05
-9.53398e-20
-2.22762e-20
1.72092e-05
-9.7585e-20
-2.42233e-20
1.78872e-05
-9.51831e-20
-2.33945e-20
1.85862e-05
-9.4327e-20
-2.27582e-20
1.93064e-05
-9.84821e-20
-2.56267e-20
2.00481e-05
-1.06511e-19
-2.82278e-20
2.08116e-05
-1.08706e-19
-3.09668e-20
2.15971e-05
-1.12227e-19
-3.07354e-20
2.24049e-05
-1.20742e-19
-3.2719e-20
2.32354e-05
-1.26511e-19
-3.37723e-20
2.40886e-05
-1.27986e-19
-3.51787e-20
2.4965e-05
-1.3417e-19
-3.89507e-20
2.58647e-05
-1.3858e-19
-3.91796e-20
2.67881e-05
-1.37964e-19
-4.48808e-20
2.77354e-05
-1.42941e-19
-4.55778e-20
2.87069e-05
-1.42149e-19
-4.98263e-20
2.97029e-05
-1.565e-19
-5.26477e-20
3.07236e-05
-1.62198e-19
-5.52175e-20
3.17695e-05
-1.73704e-19
-5.52356e-20
3.28408e-05
-1.74548e-19
-5.78288e-20
3.39379e-05
-1.86901e-19
-6.09504e-20
3.50611e-05
-1.89199e-19
-6.52626e-20
3.62108e-05
-1.93011e-19
-5.56806e-20
3.73875e-05
-1.98598e-19
-6.26915e-20
3.85914e-05
-2.12765e-19
-6.0301e-20
3.98231e-05
-2.21304e-19
-6.80582e-20
4.1083e-05
-2.13424e-19
-5.89558e-20
4.23716e-05
-2.19863e-19
-5.78896e-20
4.36893e-05
-2.1417e-19
-6.58723e-20
4.50367e-05
-2.21366e-19
-7.33863e-20
4.64143e-05
-2.24418e-19
-7.82063e-20
4.78225e-05
-2.2009e-19
-8.86621e-20
4.92621e-05
-2.30723e-19
-9.18939e-20
5.07336e-05
-2.40917e-19
-8.65777e-20
5.22375e-05
-2.46743e-19
-9.29438e-20
5.37746e-05
-2.515e-19
-9.89064e-20
5.53454e-05
-2.41718e-19
-1.04872e-19
5.69506e-05
-2.33398e-19
-1.10749e-19
5.85909e-05
-2.40536e-19
-9.99613e-20
6.0267e-05
-2.48994e-19
-1.11394e-19
6.19797e-05
-2.64282e-19
-1.24423e-19
6.37296e-05
-2.67112e-19
-1.3015e-19
6.55176e-05
-2.70289e-19
-1.33104e-19
6.73443e-05
-2.76159e-19
-1.45514e-19
6.92107e-05
-2.73184e-19
-1.53634e-19
7.11175e-05
-2.76887e-19
-1.58074e-19
7.30657e-05
-2.95929e-19
-1.64823e-19
7.50559e-05
-2.95847e-19
-1.52234e-19
7.70893e-05
-3.12463e-19
-1.48566e-19
7.91665e-05
-3.29833e-19
-1.48636e-19
8.12887e-05
-3.38283e-19
-1.45888e-19
8.34566e-05
-3.50464e-19
-1.52957e-19
8.56714e-05
-3.60685e-19
-1.65859e-19
8.7934e-05
-3.49253e-19
-1.78129e-19
9.02453e-05
-3.62348e-19
-1.86045e-19
9.26065e-05
-3.84957e-19
-1.88308e-19
9.50186e-05
-4.17828e-19
-1.8983e-19
9.74827e-05
-4.03616e-19
-2.10267e-19
9.99999e-05
-3.79747e-19
-2.27317e-19
0.000102571
-3.87539e-19
-2.35868e-19
0.000105198
-4.02836e-19
-2.39944e-19
0.000107882
-4.07342e-19
-2.47653e-19
0.000110623
-4.30819e-19
-2.50912e-19
0.000113423
-4.34476e-19
-2.59376e-19
0.000116283
-4.43492e-19
-2.70641e-19
0.000119205
-4.86977e-19
-2.90671e-19
0.00012219
-5.12719e-19
-2.97744e-19
0.000125239
-5.07078e-19
-3.09255e-19
0.000128353
-4.89997e-19
-2.97074e-19
0.000131535
-4.57465e-19
-3.32942e-19
0.000134784
-4.62867e-19
-3.46874e-19
0.000138104
-4.51751e-19
-3.5807e-19
0.000141495
-4.75346e-19
-3.85266e-19
0.000144959
-4.76578e-19
-4.1061e-19
0.000148496
-4.82845e-19
-3.94767e-19
0.00015211
-4.84763e-19
-3.90541e-19
0.000155802
-4.70187e-19
-4.00099e-19
0.000159572
-4.96614e-19
-3.81535e-19
0.000163423
-5.04512e-19
-3.94166e-19
0.000167357
-5.1046e-19
-4.31237e-19
0.000171375
-5.17378e-19
-4.18526e-19
0.000175479
-5.23388e-19
-4.483e-19
0.000179671
-5.42693e-19
-4.62775e-19
0.000183952
-5.40081e-19
-4.77222e-19
0.000188325
-5.82556e-19
-5.16074e-19
0.000192791
-5.93124e-19
-5.27698e-19
0.000197353
-5.99624e-19
-5.55003e-19
0.000202011
-6.1123e-19
-5.54201e-19
0.00020677
-5.98761e-19
-5.48678e-19
0.000211629
-6.30922e-19
-5.49641e-19
0.000216592
-6.6876e-19
-5.56292e-19
0.000221661
-6.78633e-19
-5.9495e-19
0.000226837
-6.7795e-19
-5.94709e-19
0.000232124
-7.17238e-19
-5.73852e-19
0.000237522
-7.34046e-19
-5.90249e-19
0.000243036
-7.36172e-19
-6.34472e-19
0.000248666
-7.38035e-19
-6.41531e-19
0.000254415
-7.21079e-19
-6.31711e-19
0.000260286
-7.49661e-19
-5.67916e-19
0.000266281
-7.50083e-19
-5.37109e-19
0.000272403
-6.71711e-19
-5.70461e-19
0.000278654
-7.05905e-19
-6.3521e-19
0.000285037
-6.81492e-19
-6.87778e-19
0.000291555
-7.02092e-19
-6.64163e-19
0.000298209
-6.87768e-19
-6.85758e-19
0.000305004
-6.70363e-19
-7.30102e-19
0.000311941
-6.737e-19
-7.73339e-19
0.000319023
-7.17627e-19
-7.57496e-19
0.000326254
-7.57267e-19
-8.25156e-19
0.000333636
-7.63229e-19
-7.54392e-19
0.000341172
-7.51542e-19
-7.67074e-19
0.000348866
-7.60354e-19
-7.51412e-19
0.00035672
-7.11173e-19
-7.84381e-19
0.000364737
-6.98672e-19
-7.33474e-19
0.00037292
-6.67575e-19
-6.67378e-19
0.000381274
-6.65677e-19
-6.76904e-19
0.0003898
-6.6156e-19
-6.12569e-19
0.000398502
-6.48947e-19
-6.36461e-19
0.000407384
-7.369e-19
-7.23392e-19
0.000416448
-7.24757e-19
-7.36035e-19
0.000425698
-6.97098e-19
-7.8406e-19
0.000435138
-7.66888e-19
-7.37105e-19
0.000444772
-7.60779e-19
-6.74004e-19
0.000454601
-7.72857e-19
-6.88741e-19
0.00046463
-7.39349e-19
-7.38757e-19
0.000474863
-7.15866e-19
-7.26086e-19
0.000485303
-8.01099e-19
-6.59066e-19
0.000495954
-8.18201e-19
-6.76485e-19
0.000506819
-7.8847e-19
-7.55735e-19
0.000517902
-8.34279e-19
-7.18642e-19
0.000529206
-9.15848e-19
-7.16084e-19
0.000540735
-9.00093e-19
-7.28155e-19
0.000552492
-8.79381e-19
-8.28716e-19
0.000564482
-8.36579e-19
-8.81385e-19
0.000576708
-8.53043e-19
-9.34869e-19
0.000589172
-7.86521e-19
-8.55102e-19
0.00060188
-7.66642e-19
-8.37935e-19
0.000614834
-7.41631e-19
-8.122e-19
0.000628037
-7.71651e-19
-7.4689e-19
0.000641493
-6.50523e-19
-8.09242e-19
0.000655204
-7.31742e-19
-7.28022e-19
0.000669175
-8.08679e-19
-6.98058e-19
0.000683408
-7.43043e-19
-7.80275e-19
0.000697905
-7.45942e-19
-7.70357e-19
0.000712669
-7.84497e-19
-6.89447e-19
0.000727703
-7.31948e-19
-6.15405e-19
0.000743008
-6.76026e-19
-6.56762e-19
0.000758587
-4.8445e-19
-5.75742e-19
0.000774439
-5.36834e-19
-5.20794e-19
0.000790568
-4.98286e-19
-4.13502e-19
0.000806973
-4.8466e-19
-5.12435e-19
0.000823654
-4.86385e-19
-5.79592e-19
0.00084061
-5.07875e-19
-6.26386e-19
0.000857841
-6.87171e-19
-6.57466e-19
0.000875344
-9.34128e-19
-7.2058e-19
0.000893117
-9.81261e-19
-7.63593e-19
0.000911157
-9.12474e-19
-9.62958e-19
0.000929457
-9.05516e-19
-1.02124e-18
0.000948013
-9.26513e-19
-1.03538e-18
0.000966818
-9.7818e-19
-1.01744e-18
0.000985863
-7.59903e-19
-1.05938e-18
0.00100514
-9.02016e-19
-9.06862e-19
0.00102464
-8.54732e-19
-8.48015e-19
0.00104434
-7.82316e-19
-8.10969e-19
0.00106424
-7.48889e-19
-6.35325e-19
0.00108432
-6.69076e-19
-7.76578e-19
0.00108432
-9.87715e-19
2.53778e-20
-9.30112e-19
1.24535e-20
0.00106424
-7.17554e-19
2.5883e-20
-7.55907e-19
6.91658e-21
0.00104434
-7.37424e-19
1.0086e-20
-6.30391e-19
-1.78248e-20
0.00102464
-7.20804e-19
-1.38125e-20
-6.85501e-19
-3.32829e-20
0.00100514
-7.9489e-19
-1.15342e-20
-6.3228e-19
-3.43751e-20
0.000985863
-6.26284e-19
-1.42245e-20
-6.87075e-19
-3.84568e-20
0.000966818
-7.84881e-19
-2.16049e-20
-7.04707e-19
-3.21431e-20
0.000948013
-7.75605e-19
7.002e-21
-7.0151e-19
-1.35437e-20
0.000929457
-7.17308e-19
1.47444e-20
-6.9138e-19
3.31591e-21
0.000911157
-7.34912e-19
1.31869e-20
-6.65649e-19
3.47509e-21
0.000893117
-6.93371e-19
1.19573e-20
-8.30244e-19
5.50639e-21
0.000875344
-7.18805e-19
1.34291e-21
-7.53524e-19
8.18324e-21
0.000857841
-7.26997e-19
-3.70869e-21
-6.82767e-19
1.42162e-20
0.00084061
-6.07747e-19
-1.16404e-22
-7.78521e-19
6.8809e-21
0.000823654
-6.51423e-19
-3.25201e-21
-6.12061e-19
3.24902e-21
0.000806973
-5.25631e-19
-1.02145e-20
-6.4779e-19
-1.12393e-21
0.000790568
-5.79381e-19
-1.70765e-20
-5.5892e-19
-1.49324e-21
0.00077444
-5.23055e-19
-9.98115e-21
-6.13346e-19
-5.30452e-21
0.000758586
-5.78127e-19
-7.7631e-21
-5.72616e-19
-1.29335e-21
0.000743008
-5.2659e-19
-3.23357e-21
-5.80854e-19
5.30581e-21
0.000727703
-5.93858e-19
-2.70508e-21
-5.83951e-19
2.59264e-21
0.000712669
-5.87853e-19
-3.21887e-21
-5.70553e-19
-3.00726e-21
0.000697905
-5.7542e-19
-2.13524e-21
-4.76921e-19
-6.53905e-21
0.000683408
-4.69706e-19
-8.67836e-22
-3.80757e-19
-2.84441e-21
0.000669175
-4.93458e-19
-3.83871e-21
-3.54934e-19
-7.89592e-21
0.000655205
-4.55879e-19
-4.78978e-21
-4.38722e-19
-1.38427e-20
0.000641493
-4.15381e-19
-5.21602e-21
-3.91358e-19
-8.68415e-21
0.000628037
-3.05944e-19
-5.7784e-21
-4.13411e-19
-8.40596e-21
0.000614834
-4.66242e-19
-1.18537e-20
-4.4035e-19
-7.63054e-21
0.00060188
-4.39062e-19
-1.38842e-20
-3.50826e-19
-8.74283e-21
0.000589172
-3.51437e-19
-1.74553e-20
-4.84054e-19
-1.00831e-20
0.000576708
-3.41757e-19
-1.6768e-20
-4.96076e-19
-1.18784e-21
0.000564482
-4.21998e-19
-1.97246e-20
-3.36228e-19
1.23206e-20
0.000552492
-5.18195e-19
-1.91734e-20
-3.21067e-19
5.63224e-21
0.000540735
-4.7861e-19
-1.32086e-20
-4.48968e-19
-7.19971e-22
0.000529206
-4.44623e-19
-1.48809e-20
-4.76283e-19
-1.64907e-21
0.000517902
-3.5148e-19
-1.41319e-20
-4.7786e-19
-1.66974e-21
0.000506819
-3.32971e-19
-1.18764e-20
-5.04086e-19
1.7048e-21
0.000495954
-3.18108e-19
-1.51171e-20
-5.15638e-19
6.93948e-21
0.000485303
-3.77163e-19
-1.45417e-20
-4.3909e-19
6.63978e-21
0.000474863
-4.06376e-19
-1.18258e-20
-3.62472e-19
6.39843e-21
0.00046463
-3.94825e-19
-8.49786e-21
-3.98851e-19
6.01776e-21
0.000454601
-3.15338e-19
-4.07233e-21
-3.26705e-19
3.86616e-21
0.000444772
-3.21801e-19
-2.15161e-21
-3.63622e-19
5.63062e-22
0.000435138
-3.94074e-19
-1.06912e-21
-2.57644e-19
7.39118e-22
0.000425698
-3.49816e-19
1.04885e-21
-2.76697e-19
-2.47618e-21
0.000416448
-2.80925e-19
9.37219e-22
-2.93615e-19
-5.07352e-21
0.000407384
-2.80889e-19
-1.31039e-21
-3.08695e-19
-6.05018e-21
0.000398502
-2.77749e-19
-1.7239e-21
-2.91377e-19
-6.06508e-21
0.0003898
-2.52297e-19
-2.71445e-21
-3.18896e-19
-6.77828e-21
0.000381274
-2.5274e-19
-2.40359e-21
-3.34476e-19
-5.67988e-21
0.00037292
-2.6023e-19
-1.28886e-21
-2.4573e-19
-2.77683e-21
0.000364737
-2.53863e-19
-5.71316e-22
-2.65591e-19
-1.77102e-21
0.00035672
-2.06241e-19
7.45584e-22
-2.24496e-19
-1.26437e-21
0.000348866
-2.21623e-19
-1.15413e-21
-2.49835e-19
-2.42501e-21
0.000341172
-2.11759e-19
-1.26026e-21
-2.06333e-19
-2.17493e-21
0.000333636
-1.56021e-19
-5.27369e-22
-2.10562e-19
-1.5794e-21
0.000326254
-1.39243e-19
-1.18147e-21
-1.33114e-19
-2.11288e-22
0.000319023
-1.17642e-19
-1.59513e-21
-1.26565e-19
1.08235e-21
0.000311941
-6.89717e-20
-2.1089e-21
-1.14951e-19
2.14614e-21
0.000305004
-1.16929e-19
-3.57928e-21
-1.12134e-19
2.99834e-21
0.000298209
-1.04143e-19
-3.75342e-21