/*--------------------------------*- C++ -*----------------------------------*\
| =========                 |                                                 |
| \\      /  F ield         | OpenFOAM: The Open Source CFD Toolbox           |
|  \\    /   O peration     | Version:  2106                                  |
|   \\  /    A nd           | Website:  www.openfoam.com                      |
|    \\/     M anipulation  |                                                 |
\*---------------------------------------------------------------------------*/
FoamFile
{
    version     2.0;
    format      ascii;
    arch        "LSB;label=32;scalar=64";
    class       surfaceScalarField;
    location    "10060";
    object      phi;
}
// * * * * * * * * * * * * * * * * * * * * * * * * * * * * * * * * * * * * * //

dimensions      [0 3 -1 0 0 0 0];

oriented        oriented;

internalField   nonuniform List<scalar> 
1596
(
7.04068e-08
-4.07708e-18
-8.29567e-23
-3.93126e-22
7.78213e-23
2.24721e-07
-4.08154e-18
1.66607e-21
1.98101e-21
3.7088e-22
4.01021e-07
-4.08619e-18
1.77443e-21
4.47157e-21
4.24082e-22
6.0177e-07
-4.09099e-18
1.81533e-21
6.92789e-21
4.83404e-22
8.29684e-07
-4.09559e-18
1.84245e-21
9.09371e-21
5.49258e-22
1.08776e-06
-4.10027e-18
1.86329e-21
1.11929e-20
6.22091e-22
1.37929e-06
-4.10441e-18
1.8688e-21
1.31074e-20
7.02284e-22
1.70791e-06
-4.10901e-18
1.85487e-21
1.50182e-20
7.90253e-22
2.07764e-06
-4.1129e-18
1.81883e-21
1.6734e-20
8.86296e-22
2.49288e-06
-4.11769e-18
1.75734e-21
1.78507e-20
9.90829e-22
2.95847e-06
-4.12103e-18
1.66677e-21
1.85216e-20
1.10401e-21
3.47977e-06
-4.12258e-18
1.54246e-21
1.7936e-20
1.22588e-21
4.06263e-06
-4.12409e-18
1.37932e-21
1.66424e-20
1.35674e-21
4.7135e-06
-4.12487e-18
1.17189e-21
1.55278e-20
1.49667e-21
5.43946e-06
-4.12594e-18
9.14313e-22
1.39076e-20
1.64494e-21
6.24824e-06
-4.12354e-18
6.0051e-22
9.92103e-21
1.80091e-21
7.14832e-06
-4.11829e-18
2.23118e-22
4.01126e-21
1.96383e-21
8.14895e-06
-4.1141e-18
-2.2537e-22
-1.67143e-21
2.13247e-21
9.26015e-06
-4.10445e-18
-7.506e-22
-1.03095e-20
2.30351e-21
1.04928e-05
-4.09763e-18
-1.36245e-21
-1.88789e-20
2.47709e-21
1.18585e-05
-4.08726e-18
-2.0662e-21
-2.94609e-20
2.64908e-21
1.33698e-05
-4.07398e-18
-2.86972e-21
-4.39584e-20
2.81526e-21
1.50398e-05
-4.0573e-18
-3.77835e-21
-6.12486e-20
2.97257e-21
1.6882e-05
-4.04276e-18
-4.79546e-21
-7.91757e-20
3.11628e-21
1.89104e-05
-4.01795e-18
-5.91405e-21
-1.02955e-19
3.23215e-21
2.1139e-05
-3.98889e-18
-7.13861e-21
-1.22928e-19
3.31428e-21
2.35813e-05
-3.96776e-18
-8.46527e-21
-1.42981e-19
3.35589e-21
2.62503e-05
-3.92875e-18
-9.87419e-21
-1.73642e-19
3.34318e-21
2.91579e-05
-3.88969e-18
-1.13623e-20
-1.97739e-19
3.28349e-21
3.23146e-05
-3.83856e-18
-1.29014e-20
-2.34766e-19
3.15411e-21
3.57297e-05
-3.78564e-18
-1.44656e-20
-2.83793e-19
2.94518e-21
3.94111e-05
-3.73087e-18
-1.60341e-20
-3.26802e-19
2.67716e-21
4.33659e-05
-3.67985e-18
-1.75727e-20
-3.60077e-19
2.34443e-21
4.76004e-05
-3.60693e-18
-1.90611e-20
-4.01367e-19
1.93092e-21
5.21208e-05
-3.54636e-18
-2.05029e-20
-4.40339e-19
1.44892e-21
5.69339e-05
-3.47652e-18
-2.18629e-20
-4.80254e-19
9.16012e-22
6.20472e-05
-3.37497e-18
-2.31533e-20
-5.30441e-19
3.55545e-22
6.74693e-05
-3.32429e-18
-2.4424e-20
-5.81289e-19
-2.16767e-22
7.32104e-05
-3.25724e-18
-2.55162e-20
-6.27171e-19
-7.97707e-22
7.92821e-05
-3.15041e-18
-2.65179e-20
-6.98185e-19
-1.37022e-21
8.56977e-05
-3.097e-18
-2.7573e-20
-7.57514e-19
-1.88163e-21
9.24721e-05
-3.03904e-18
-2.8451e-20
-8.09804e-19
-2.40524e-21
9.96218e-05
-2.95506e-18
-2.92276e-20
-8.45887e-19
-2.92966e-21
0.000107165
-2.90574e-18
-2.99239e-20
-8.93483e-19
-3.42918e-21
0.000115121
-2.82003e-18
-3.04542e-20
-9.53574e-19
-3.87042e-21
0.000123512
-2.76494e-18
-3.09153e-20
-9.87017e-19
-4.16653e-21
0.000132359
-2.68472e-18
-3.09643e-20
-1.03864e-18
-4.76989e-21
0.000141688
-2.60391e-18
-3.09063e-20
-1.08846e-18
-5.32647e-21
0.000151523
-2.5499e-18
-3.10742e-20
-1.13258e-18
-5.69294e-21
0.000161893
-2.49581e-18
-3.1116e-20
-1.17849e-18
-5.94761e-21
0.000172825
-2.42318e-18
-3.12688e-20
-1.22019e-18
-6.37106e-21
0.00018435
-2.34143e-18
-3.13946e-20
-1.27817e-18
-6.60399e-21
0.000196501
-2.24577e-18
-3.16993e-20
-1.32767e-18
-6.2546e-21
0.000209311
-2.1572e-18
-3.22357e-20
-1.34794e-18
-5.61095e-21
0.000222815
-2.08627e-18
-3.28793e-20
-1.32985e-18
-4.93687e-21
0.000237051
-2.01354e-18
-3.2739e-20
-1.35093e-18
-4.7144e-21
0.000252058
-1.95195e-18
-3.29285e-20
-1.33535e-18
-4.90907e-21
0.000267877
-1.94912e-18
-3.17936e-20
-1.29955e-18
-5.51193e-21
0.000284552
-1.84178e-18
-2.98815e-20
-1.34817e-18
-6.71771e-21
0.000302128
-1.78235e-18
-2.90133e-20
-1.34479e-18
-6.99242e-21
0.000320653
-1.81771e-18
-2.83657e-20
-1.30407e-18
-8.16367e-21
0.000340176
-1.82077e-18
-2.60708e-20
-1.29896e-18
-1.02224e-20
0.000360751
-1.73792e-18
-2.51226e-20
-1.25879e-18
-1.2281e-20
0.000382433
-1.71939e-18
-2.62055e-20
-1.26155e-18
-1.49101e-20
0.000405279
-1.6158e-18
-2.48241e-20
-1.28399e-18
-1.93626e-20
0.000429351
-1.55768e-18
-2.51476e-20
-1.34436e-18
-2.43172e-20
0.000454711
-1.4736e-18
-2.75678e-20
-1.344e-18
-2.59331e-20
0.000481427
-1.50258e-18
-2.64824e-20
-1.34053e-18
-2.67199e-20
0.000509568
-1.32465e-18
-2.08703e-20
-1.29707e-18
-2.81955e-20
0.000539208
-1.18258e-18
-2.43525e-20
-1.36424e-18
-3.39233e-20
0.000570422
-1.20004e-18
-3.23871e-20
-1.1955e-18
-2.94796e-20
0.000603292
-1.22529e-18
-3.59615e-20
-1.27183e-18
-3.59784e-20
0.000637901
-1.28606e-18
-3.74389e-20
-1.29961e-18
-3.94521e-20
0.000674336
-1.34537e-18
-4.41649e-20
-1.31637e-18
-3.81386e-20
0.00071269
-1.30819e-18
-4.31619e-20
-1.27094e-18
-3.62252e-20
0.000753057
-1.29903e-18
-3.8967e-20
-1.40532e-18
-3.40758e-20
0.000795537
-1.23418e-18
-2.95456e-20
-1.18271e-18
-1.67712e-20
0.000840234
-1.24833e-18
-3.08165e-20
-1.20754e-18
-2.97826e-20
0.000887257
-1.20091e-18
-2.16604e-20
-1.24398e-18
-2.60743e-20
0.000936718
-1.14678e-18
-2.0788e-20
-1.09306e-18
-4.07619e-21
0.000988732
-1.03002e-18
-3.02825e-20
-1.11525e-18
5.45045e-21
0.00104342
-1.21782e-18
-4.27357e-21
-9.31159e-19
1.59713e-20
0.00110091
-9.14792e-19
1.06017e-20
-7.7221e-19
-1.13849e-20
0.00116133
-8.56867e-19
-4.55941e-21
-9.37978e-19
-2.75658e-20
0.00122481
-7.6394e-19
3.12981e-21
-9.63414e-19
-2.25458e-20
0.00129149
-7.84085e-19
-9.17482e-21
-9.55329e-19
-3.9102e-21
0.0013615
-7.2542e-19
-2.00118e-20
-9.03048e-19
1.33731e-20
0.00143498
-9.51169e-19
-4.99594e-20
-7.45987e-19
3.55042e-20
0.00151207
-8.08793e-19
-2.96147e-20
-6.48743e-19
3.88349e-21
0.00159292
-8.30998e-19
-4.1395e-21
-7.14114e-19
-8.83861e-21
0.00167764
-7.88475e-19
2.85145e-21
-7.67603e-19
-1.00686e-20
0.00176637
-8.61122e-19
-1.07907e-20
-9.2432e-19
-2.96633e-20
0.00185922
-9.01259e-19
-1.03477e-20
-9.32756e-19
-1.93438e-20
0.00195629
-8.31415e-19
2.00078e-20
-8.75262e-19
-3.03631e-21
0.00205764
-1.0565e-18
-5.82483e-20
-1.10506e-18
-7.92605e-20
0.0021633
-1.24811e-18
-1.84476e-20
-1.119e-18
-3.45902e-20
0.00227324
-1.20925e-18
-8.37021e-20
-1.26937e-18
-4.56324e-20
0.00238736
-1.31333e-18
-2.83647e-20
-1.0592e-18
-6.87494e-20
0.00250547
-6.56261e-19
1.54069e-19
-9.48336e-19
-3.0613e-20
0.00262728
-7.96793e-20
-7.58535e-19
-1.89433e-20
-5.84114e-19
7.04068e-08
-8.78452e-23
8.69309e-23
2.24721e-07
1.42239e-21
6.02792e-22
4.01021e-07
3.05277e-21
1.15703e-21
6.0177e-07
4.70024e-21
1.89756e-21
8.29684e-07
6.20778e-21
2.77134e-21
1.08776e-06
7.68976e-21
3.72131e-21
1.37929e-06
9.42187e-21
5.08115e-21
1.70791e-06
1.08008e-20
6.26683e-21
2.07764e-06
1.22344e-20
8.18768e-21
2.49288e-06
1.3708e-20
9.89981e-21
2.95847e-06
1.45863e-20
1.14004e-20
3.47977e-06
1.55772e-20
1.30803e-20
4.06263e-06
1.55065e-20
1.58077e-20
4.7135e-06
1.54244e-20
1.81467e-20
5.43946e-06
1.48793e-20
2.08256e-20
6.24824e-06
1.42749e-20
2.37954e-20
7.14832e-06
1.33384e-20
2.65171e-20
8.14895e-06
1.31268e-20
2.71327e-20
9.26015e-06
1.06282e-20
3.25253e-20
1.04928e-05
7.92076e-21
3.68122e-20
1.18585e-05
3.57431e-21
4.12085e-20
1.33698e-05
-9.44162e-22
4.60199e-20
1.50398e-05
-4.92677e-21
5.01552e-20
1.6882e-05
-4.79517e-21
4.84761e-20
1.89104e-05
-8.72286e-21
4.77635e-20
2.1139e-05
-1.55007e-20
5.42567e-20
2.35813e-05
-2.65264e-20
6.03074e-20
2.62503e-05
-3.92582e-20
7.17059e-20
2.91579e-05
-5.20065e-20
7.705e-20
3.23146e-05
-5.66378e-20
7.33432e-20
3.57297e-05
-6.56254e-20
6.89537e-20
3.94111e-05
-7.18973e-20
6.39653e-20
4.33659e-05
-8.73282e-20
6.41353e-20
4.76004e-05
-9.30509e-20
5.5713e-20
5.21208e-05
-1.02211e-19
4.99009e-20
5.69339e-05
-1.13639e-19
5.22549e-20
6.20472e-05
-1.14764e-19
5.06319e-20
6.74693e-05
-1.07287e-19
4.33628e-20
7.32104e-05
-1.15025e-19
3.75126e-20
7.92821e-05
-1.29234e-19
2.721e-20
8.56977e-05
-1.29433e-19
5.87948e-21
9.24721e-05
-1.50771e-19
-1.84803e-20
9.96218e-05
-1.61607e-19
-2.51643e-20
0.000107165
-1.87884e-19
-4.55367e-20
0.000115121
-2.01337e-19
-5.87535e-20
0.000123512
-1.91949e-19
-1.06089e-19
0.000132359
-2.04988e-19
-1.12069e-19
0.000141688
-2.46185e-19
-1.16539e-19
0.000151523
-2.42863e-19
-1.28751e-19
0.000161893
-2.7696e-19
-1.61943e-19
0.000172825
-2.9506e-19
-1.79881e-19
0.00018435
-3.2243e-19
-1.94316e-19
0.000196501
-3.35104e-19
-1.94376e-19
0.000209311
-3.51985e-19
-2.08113e-19
0.000222815
-3.15011e-19
-2.19933e-19
0.000237051
-3.39991e-19
-2.4421e-19
0.000252058
-2.58047e-19
-2.63888e-19
0.000267877
-2.79136e-19
-2.8035e-19
0.000284552
-2.96329e-19
-2.93805e-19
0.000302128
-3.09447e-19
-3.39178e-19
0.000320653
-3.35203e-19
-3.58554e-19
0.000340176
-4.61613e-19
-3.97559e-19
0.000360751
-5.33026e-19
-4.09949e-19
0.000382433
-5.26209e-19
-4.7022e-19
0.000405279
-5.38211e-19
-4.88889e-19
0.000429351
-5.70371e-19
-5.09774e-19
0.000454711
-4.69554e-19
-5.15584e-19
0.000481427
-4.9748e-19
-5.29144e-19
0.000509568
-5.52581e-19
-6.06005e-19
0.000539208
-4.76299e-19
-4.56284e-19
0.000570422
-4.09638e-19
-4.47032e-19
0.000603292
-4.109e-19
-4.52668e-19
0.000637901
-5.35739e-19
-3.98447e-19
0.000674336
-4.85933e-19
-4.28658e-19
0.00071269
-4.52555e-19
-4.25394e-19
0.000753057
-4.02568e-19
-3.96303e-19
0.000795537
-4.36757e-19
-4.3594e-19
0.000840234
-4.33091e-19
-4.08539e-19
0.000887257
-5.52882e-19
-4.93807e-19
0.000936718
-6.58477e-19
-5.45189e-19
0.000988732
-3.85116e-19
-6.62567e-19
0.00104342
-7.66107e-19
-8.3809e-19
0.00110091
-7.77928e-19
-6.99632e-19
0.00116133
-6.41883e-19
-7.45857e-19
0.00122481
-6.18276e-19
-6.34663e-19
0.00129149
-6.77817e-19
-7.02394e-19
0.0013615
-7.22034e-19
-7.10669e-19
0.00143498
-7.48842e-19
-7.50706e-19
0.00151207
-6.67523e-19
-6.82602e-19
0.00159292
-7.53957e-19
-7.21076e-19
0.00167764
-7.25073e-19
-7.36764e-19
0.00176637
-8.10852e-19
-7.99664e-19
0.00185922
-8.54171e-19
-8.41303e-19
0.00195629
-1.05148e-18
-1.0605e-18
0.00205764
-9.81359e-19
-1.04968e-18
0.0021633
-1.2359e-18
-1.03938e-18
0.00227324
-1.02017e-18
-1.18103e-18
0.00238736
-9.93028e-19
-9.31641e-19
0.00250547
-8.7816e-19
-8.99447e-19
0.00262728
-8.40814e-19
-8.55424e-19
0.00262728
-5.47882e-19
-8.87705e-20
-6.11802e-19
-1.53805e-19
0.00250547
-6.20657e-19
6.53032e-21
-6.63585e-19
-3.55097e-20
0.00238736
-4.35146e-19
9.4999e-20
-5.53922e-19
1.72208e-20
0.00227324
-6.07544e-19
8.12165e-22
-5.03828e-19
6.76502e-20
0.0021633
-6.69805e-19
2.16131e-20
-6.17229e-19
1.32726e-20
0.00205764
-7.62879e-19
1.56644e-21
-6.69508e-19
-2.76197e-20
0.00195629
-6.18363e-19
1.45362e-20
-7.82545e-19
-3.29326e-20
0.00185922
-7.30628e-19
-3.50274e-20
-7.50369e-19
6.89564e-21
0.00176637
-6.82474e-19
-1.6274e-20
-8.15309e-19
-1.63859e-20
0.00167764
-7.03821e-19
3.79366e-21
-6.71607e-19
3.17519e-20
0.00159292
-6.41134e-19
1.18364e-20
-5.29412e-19
3.9653e-20
0.00151207
-5.8072e-19
-1.11118e-20
-5.26825e-19
1.12875e-21
0.00143498
-5.34495e-19
-3.14384e-20
-5.08828e-19
3.63889e-20
0.0013615
-4.85425e-19
-5.2549e-21
-6.30819e-19
8.82444e-21
0.00129149
-4.07001e-19
2.30942e-20
-5.32876e-19
3.1147e-20
0.00122481
-5.49311e-19
-6.13585e-21
-4.38517e-19
1.15244e-20
0.00116133
-5.54793e-19
-1.08529e-20
-5.5064e-19
-2.31433e-20
0.00110091
-4.56517e-19
-2.94688e-20
-5.79018e-19
-2.40079e-22
0.00104342
-2.77349e-19
-1.88126e-20
-3.48733e-19
1.45848e-20
0.000988732
-3.8514e-19
-3.11437e-20
-1.68499e-19
2.70071e-23
0.000936718
-3.11144e-19
-9.07638e-21
-2.29095e-19
-1.26577e-20
0.000887257
-2.41258e-19
7.03829e-21
-2.22128e-19
-1.02323e-20
0.000840234
-2.57299e-19
-2.36557e-22
-2.31495e-19
1.33426e-21
0.000795537
-2.72137e-19
-6.75548e-21
-2.58685e-19
8.41657e-22
0.000753057
-2.00113e-19
-1.78151e-20
-1.83247e-19
-1.92801e-23
0.00071269
-1.45072e-19
-1.22498e-20
-2.14769e-19
-4.10084e-21
0.000674336
-1.93624e-19
-8.08804e-21
-1.30539e-19
-1.16655e-21
0.000637901
-1.94926e-19
8.944e-22
-1.17102e-19
-8.75028e-22
0.000603292
-1.08649e-19
-7.2155e-22
-1.10906e-19
-9.55293e-22
0.000570422
-1.42872e-19
-2.13938e-21
-1.00824e-19
-3.01619e-21
0.000539208
-1.51864e-19
-3.45632e-21
-1.87972e-19
-6.84331e-21
0.000509568
-1.58116e-19
-6.10101e-21
-2.04893e-19
-5.85298e-21
0.000481427
-1.78312e-19
-6.03003e-21
-1.76126e-19
-4.05466e-21
0.000454711
-1.51402e-19
-4.42371e-21
-1.5183e-19
-4.81258e-21
0.000429351
-1.50449e-19
-4.10773e-21
-1.85209e-19
-4.0423e-21
0.000405279
-1.22263e-19
-4.08838e-21
-1.46583e-19
-2.91544e-21
0.000382433
-1.40136e-19
-4.36093e-21
-1.39109e-19
-3.01979e-21
0.000360751
-1.1681e-19
-1.92395e-21
-1.68831e-19
-3.18084e-21
0.000340176
-1.19491e-19
1.16949e-22
-1.52427e-19
-9.63055e-22
0.000320653
-1.2566e-19
1.89788e-21
-6.31094e-20
8.27678e-22
0.000302128
-1.31842e-19
3.85175e-21
-7.6551e-20
5.42283e-22
0.000284552
-1.23494e-19
5.04039e-21
-1.0193e-19
4.98755e-22
0.000267877
-9.59167e-20
4.76929e-21
-1.02966e-19
1.24806e-21
0.000252058
-9.10754e-20
3.9252e-21
-6.59162e-20
1.80514e-21
0.000237051
-6.33835e-20
3.35873e-21
-8.71566e-20
1.48801e-21
0.000222815
-5.43995e-20
2.64356e-21
-5.01896e-20
1.83248e-21
0.000209311
-5.58453e-20
1.9113e-21
-6.63583e-20
1.75491e-21
0.000196501
-3.19655e-20
1.41077e-21
-7.49676e-20
1.53882e-21
0.00018435
-3.61859e-21
8.16817e-22
-6.71733e-20
1.77814e-21
0.000172825
-2.0627e-20
3.04746e-22
-5.06257e-20
1.87576e-21
0.000161893
-6.66403e-22
1.30772e-24
-5.0623e-20
1.43099e-21
0.000151523
1.05491e-20
-2.7827e-22
-5.61725e-20
1.06711e-21
0.000141688
-1.04424e-20
-4.08592e-22
-3.6634e-20
8.39181e-22
0.000132359
4.63022e-21
-3.87541e-22
-1.7149e-20
6.16103e-22
0.000123512
3.94599e-21
-4.28899e-22
-5.0741e-21
5.01765e-22
0.000115121
7.90624e-21
-2.95367e-22
-8.61826e-21
2.77398e-22
0.000107165
1.02217e-20
-2.13216e-22
-1.28935e-20
1.93554e-22
9.96218e-05
8.02123e-21
-1.8177e-22
4.75264e-21
1.31784e-22
9.24721e-05
7.26635e-21
-1.94494e-22
-3.9035e-22
8.1752e-23
8.56977e-05
-2.70127e-20
-2.12304e-22
-5.9711e-22
8.89349e-23
7.92821e-05
-2.24087e-20
-1.42304e-22
-1.45561e-21
7.08637e-23
7.32104e-05
-1.53092e-20
-1.11543e-22
-1.00069e-20
5.66473e-23
6.74693e-05
-1.38808e-20
-1.43852e-22
-7.88879e-21
6.70124e-23
6.20472e-05
-1.74817e-20
-1.42282e-22
-8.58075e-21
7.66367e-23
5.69339e-05
-1.71373e-20
-1.41312e-22
-8.76701e-21
6.44849e-23
5.21208e-05
-1.49152e-20
-1.40542e-22
-7.67801e-21
6.14948e-23
4.76004e-05
-1.86512e-20
-1.50826e-22
-1.29416e-21
5.31124e-23
4.33659e-05
-1.52869e-20
-1.48801e-22
-4.64717e-22
4.29646e-23
3.94111e-05
-8.85836e-21
-1.53499e-22
-2.19246e-21
2.855e-23
3.57297e-05
-6.03027e-21
-1.58211e-22
-6.84133e-21
2.60916e-23
3.23146e-05
-5.99125e-21
-1.65903e-22
-3.65428e-21
2.17038e-23
2.91579e-05
-5.03011e-21
-1.60759e-22
-5.23961e-21
2.0579e-23
2.62503e-05
-4.96929e-21
-1.49437e-22
-6.67026e-21
2.18805e-23
2.35813e-05
-3.90531e-21
-1.38746e-22
-6.13043e-21
2.10917e-23
2.1139e-05
-3.63199e-21
-1.27531e-22
-7.9392e-21
2.30617e-23
1.89104e-05
-9.7404e-21
-1.17971e-22
-2.26218e-21
2.46021e-23
1.6882e-05
-8.59655e-21
-1.01456e-22
5.43916e-22
1.95467e-23
1.50398e-05
-4.28852e-21
-8.78455e-23
4.08366e-22
1.62922e-23
1.33698e-05
-5.17848e-21
-7.75557e-23
8.80036e-22
1.61916e-23
1.18585e-05
-3.30635e-21
-6.64947e-23
2.59581e-21
1.57553e-23
1.04928e-05
-2.58404e-21
-5.73417e-23
1.1707e-21
1.39989e-23
9.26015e-06
-2.33443e-21
-4.94805e-23
9.52259e-22
1.2433e-23
8.14895e-06
-2.28182e-21
-4.27303e-23
-3.72417e-22
1.04204e-23
7.14833e-06
-6.74802e-22
-3.69328e-23
-2.96287e-22
9.30152e-24
6.24824e-06
-3.95039e-22
-3.24017e-23
-2.75802e-23
8.0872e-24
5.43946e-06
4.20672e-22
-2.84707e-23
-3.6917e-22
6.80175e-24
4.7135e-06
-1.79849e-22
-2.50785e-23
-2.36282e-22
5.72588e-24
4.06263e-06
-7.15819e-23
-2.19111e-23
7.40254e-23
4.90956e-24
3.47977e-06
-3.19414e-23
-1.92252e-23
-8.87869e-23
4.33615e-24
2.95847e-06
-3.418e-23
-1.68285e-23
3.51186e-23
3.84285e-24
2.49288e-06
-3.75548e-22
-1.48119e-23
3.19125e-22
3.46484e-24
2.07764e-06
-2.13009e-22
-1.28768e-23
2.00275e-22
2.99311e-24
1.70792e-06
-1.13688e-22
-1.1243e-23
1.88784e-22
2.63058e-24
1.37929e-06
-8.45908e-23
-9.84309e-24
7.87132e-23
2.29923e-24
1.08776e-06
-1.90571e-22
-8.58922e-24
-1.09324e-22
1.98322e-24
8.29683e-07
-1.20134e-22
-7.46509e-24
-2.60085e-23
1.73808e-24
6.01771e-07
6.98222e-23
-6.48445e-24
-1.08833e-22
1.51108e-24
4.01021e-07
2.14443e-23
-5.64235e-24
-2.19212e-23
1.3229e-24
2.2472e-07
3.20016e-24
-4.91475e-24
1.07797e-23
1.14751e-24
7.04068e-08
-1.54623e-24
-7.45428e-26
0.00262728
-5.90408e-19
-6.73714e-19
0.00250547
-5.41864e-19
-6.64189e-19
0.00238736
-5.59404e-19
-4.50037e-19
0.00227324
-5.30046e-19
-5.28055e-19
0.0021633
-6.39536e-19
-6.30583e-19
0.00205764
-6.72689e-19
-6.22088e-19
0.00195629
-6.51773e-19
-5.90957e-19
0.00185922
-6.6661e-19
-7.31938e-19
0.00176637
-6.45054e-19
-6.79739e-19
0.00167764
-6.54335e-19
-6.01713e-19
0.00159292
-6.86421e-19
-5.96468e-19
0.00151207
-6.75448e-19
-4.51017e-19
0.00143498
-4.63819e-19
-6.92336e-19
0.0013615
-3.61369e-19
-5.28833e-19
0.00129149
-5.00293e-19
-5.21545e-19
0.00122481
-5.49501e-19
-5.70723e-19
0.00116133
-6.6329e-19
-4.81845e-19
0.00110091
-3.98303e-19
-5.41628e-19
0.00104342
-4.20557e-19
-5.06755e-19
0.000988732
-3.86035e-19
-3.90741e-19
0.000936718
-3.49126e-19
-3.77327e-19
0.000887257
-4.23584e-19
-2.69267e-19
0.000840234
-4.33543e-19
-3.29017e-19
0.000795537
-5.01273e-19
-3.46248e-19
0.000753057
-2.3522e-19
-3.18045e-19
0.00071269
-1.8908e-19
-2.75802e-19
0.000674336
-1.47752e-19
-2.55525e-19
0.000637901
-2.62592e-19
-2.26856e-19
0.000603292
-1.48791e-19
-1.72867e-19
0.000570422
-1.68035e-19
-1.45199e-19
0.000539208
-1.839e-19
-1.24227e-19
0.000509568
-1.12913e-19
-1.19046e-19
0.000481427
-8.87048e-20
-1.70779e-19
0.000454711
-8.63366e-20
-1.14893e-19
0.000429351
-8.89928e-20
-1.14989e-19
0.000405279
-9.04357e-20
-9.12407e-20
0.000382433
-4.84996e-20
-1.2378e-19
0.000360751
-4.33196e-20
-1.24446e-19
0.000340176
-3.02199e-20
-1.12252e-19
0.000320653
-2.59225e-21
-7.55295e-20
0.000302128
-2.28536e-20
-7.09507e-20
0.000284552
-7.00442e-20
-6.59096e-20
0.000267877
-7.36926e-20
-4.80962e-20
0.000252058
-6.33347e-20
-3.88861e-20
0.000237051
-6.20418e-20
-3.70616e-20
0.000222815
-8.08607e-20
-3.67038e-20
0.000209311
-9.07396e-20
-6.5481e-20
0.000196501
-9.0329e-20
-4.89166e-20
0.00018435
-6.45745e-20
-3.2649e-20
0.000172825
-7.17616e-20
-4.74468e-20
0.000161893
-6.37576e-20
-4.00669e-20
0.000151523
-4.37699e-20
-4.12771e-20
0.000141688
-4.31121e-20
-4.12786e-20
0.000132359
-3.28393e-20
-1.79438e-20
0.000123512
3.41439e-21
-3.98256e-20
0.000115121
5.46712e-21
-2.81689e-20
0.000107165
6.27038e-21
-3.24547e-20
9.96218e-05
-2.55277e-21
-1.96487e-20
9.24721e-05
-1.45033e-21
-9.04375e-21
8.56977e-05
-2.54502e-21
-1.45924e-20
7.92821e-05
1.49278e-22
-1.40924e-20
7.32104e-05
-8.33788e-21
-1.16138e-20
6.74693e-05
1.06281e-20
-1.10665e-20
6.20472e-05
1.2358e-20
-1.63554e-20
5.69339e-05
1.2684e-20
-7.33572e-21
5.21208e-05
6.49709e-21
-1.36872e-20
4.76004e-05
5.5891e-21
-1.08992e-20
4.33659e-05
-1.64581e-21
-1.38761e-20
3.94111e-05
-2.58397e-21
-6.42559e-21
3.57297e-05
-1.00984e-20
-7.20185e-21
3.23146e-05
-7.11857e-21
-2.61557e-21
2.91579e-05
-5.05871e-21
-2.92436e-21
2.62503e-05
-7.364e-21
-3.90681e-21
2.35813e-05
-5.23634e-21
-1.5492e-21
2.1139e-05
-6.75343e-21
-3.82445e-21
1.89104e-05
-4.10225e-21
-4.32325e-21
1.6882e-05
-5.35445e-21
-1.26906e-21
1.50398e-05
-4.26764e-21
-1.37686e-21
1.33698e-05
-2.49686e-21
-3.2167e-21
1.18585e-05
-2.18649e-21
-3.80967e-21
1.04928e-05
-1.30535e-21
-4.48854e-21
9.26015e-06
-8.67297e-22
-5.15475e-21
8.14895e-06
-1.13475e-21
-3.93105e-21
7.14833e-06
-1.03089e-21
-3.3111e-21
6.24824e-06
-6.24029e-22
-2.85343e-21
5.43946e-06
2.88852e-22
-2.65823e-21
4.7135e-06
6.39663e-22
-1.80224e-21
4.06263e-06
1.81249e-22
-1.0763e-21
3.47977e-06
1.63486e-22
-1.14981e-21
2.95847e-06
-3.32748e-22
-2.91814e-22
2.49288e-06
2.44584e-22
-5.94771e-22
2.07764e-06
2.07117e-22
-2.67599e-22
1.70792e-06
1.17073e-22
-5.51578e-23
1.37929e-06
1.38297e-22
-2.07041e-22
1.08776e-06
1.21145e-22
-1.13147e-22
8.29683e-07
1.28371e-22
-1.0767e-22
6.01771e-07
1.43636e-22
-5.79225e-23
4.01021e-07
4.10436e-24
-6.10713e-23
2.2472e-07
5.90108e-24
-1.79001e-24
7.04068e-08
)
;

boundaryField
{
    walls
    {
        type            calculated;
        value           uniform 0;
    }
    inlet
    {
        type            cyclic;
        value           nonuniform List<scalar> 
400
(
-7.04068e-08
-2.24721e-07
-4.01021e-07
-6.0177e-07
-8.29684e-07
-1.08776e-06
-1.37929e-06
-1.70791e-06
-2.07764e-06
-2.49288e-06
-2.95847e-06
-3.47977e-06
-4.06263e-06
-4.7135e-06
-5.43946e-06
-6.24824e-06
-7.14832e-06
-8.14895e-06
-9.26015e-06
-1.04928e-05
-1.18585e-05
-1.33698e-05
-1.50398e-05
-1.6882e-05
-1.89104e-05
-2.1139e-05
-2.35813e-05
-2.62503e-05
-2.91579e-05
-3.23146e-05
-3.57297e-05
-3.94111e-05
-4.33659e-05
-4.76004e-05
-5.21208e-05
-5.69339e-05
-6.20472e-05
-6.74693e-05
-7.32104e-05
-7.92821e-05
-8.56977e-05
-9.24721e-05
-9.96218e-05
-0.000107165
-0.000115121
-0.000123512
-0.000132359
-0.000141688
-0.000151523
-0.000161893
-0.000172825
-0.00018435
-0.000196501
-0.000209311
-0.000222815
-0.000237051
-0.000252058
-0.000267877
-0.000284552
-0.000302128
-0.000320653
-0.000340176
-0.000360751
-0.000382433
-0.000405279
-0.000429351
-0.000454711
-0.000481427
-0.000509568
-0.000539208
-0.000570422
-0.000603292
-0.000637901
-0.000674336
-0.00071269
-0.000753057
-0.000795537
-0.000840234
-0.000887257
-0.000936718
-0.000988732
-0.00104342
-0.00110091
-0.00116133
-0.00122481
-0.00129149
-0.0013615
-0.00143498
-0.00151207
-0.00159292
-0.00167764
-0.00176637
-0.00185922
-0.00195629
-0.00205764
-0.0021633
-0.00227324
-0.00238736
-0.00250547
-0.00262728
-7.04068e-08
-2.24721e-07
-4.01021e-07
-6.0177e-07
-8.29684e-07
-1.08776e-06
-1.37929e-06
-1.70791e-06
-2.07764e-06
-2.49288e-06
-2.95847e-06
-3.47977e-06
-4.06263e-06
-4.7135e-06
-5.43946e-06
-6.24824e-06
-7.14832e-06
-8.14895e-06
-9.26015e-06
-1.04928e-05
-1.18585e-05
-1.33698e-05
-1.50398e-05
-1.6882e-05
-1.89104e-05
-2.1139e-05
-2.35813e-05
-2.62503e-05
-2.91579e-05
-3.23146e-05
-3.57297e-05
-3.94111e-05
-4.33659e-05
-4.76004e-05
-5.21208e-05
-5.69339e-05
-6.20472e-05
-6.74693e-05
-7.32104e-05
-7.92821e-05
-8.56977e-05
-9.24721e-05
-9.96218e-05
-0.000107165
-0.000115121
-0.000123512
-0.000132359
-0.000141688
-0.000151523
-0.000161893
-0.000172825
-0.00018435
-0.000196501
-0.000209311
-0.000222815
-0.000237051
-0.000252058
-0.000267877
-0.000284552
-0.000302128
-0.000320653
-0.000340176
-0.000360751
-0.000382433
-0.000405279
-0.000429351
-0.000454711
-0.000481427
-0.000509568
-0.000539208
-0.000570422
-0.000603292
-0.000637901
-0.000674336
-0.00071269
-0.000753057
-0.000795537
-0.000840234
-0.000887257
-0.000936718
-0.000988732
-0.00104342
-0.00110091
-0.00116133
-0.00122481
-0.00129149
-0.0013615
-0.00143498
-0.00151207
-0.00159292
-0.00167764
-0.00176637
-0.00185922
-0.00195629
-0.00205764
-0.0021633
-0.00227324
-0.00238736
-0.00250547
-0.00262728
-0.00262728
-0.00250547
-0.00238736
-0.00227324
-0.0021633
-0.00205764
-0.00195629
-0.00185922
-0.00176637
-0.00167764
-0.00159292
-0.00151207
-0.00143498
-0.0013615
-0.00129149
-0.00122481
-0.00116133
-0.00110091
-0.00104342
-0.000988732
-0.000936718
-0.000887257
-0.000840234
-0.000795537
-0.000753057
-0.00071269
-0.000674336
-0.000637901
-0.000603292
-0.000570422
-0.000539208
-0.000509568
-0.000481427
-0.000454711
-0.000429351
-0.000405279
-0.000382433
-0.000360751
-0.000340176
-0.000320653
-0.000302128
-0.000284552
-0.000267877
-0.000252058
-0.000237051
-0.000222815
-0.000209311
-0.000196501
-0.00018435
-0.000172825
-0.000161893
-0.000151523
-0.000141688
-0.000132359
-0.000123512
-0.000115121
-0.000107165
-9.96218e-05
-9.24721e-05
-8.56977e-05
-7.92821e-05
-7.32104e-05
-6.74693e-05
-6.20472e-05
-5.69339e-05
-5.21208e-05
-4.76004e-05
-4.33659e-05
-3.94111e-05
-3.57297e-05
-3.23146e-05
-2.91579e-05
-2.62503e-05
-2.35813e-05
-2.1139e-05
-1.89104e-05
-1.6882e-05
-1.50398e-05
-1.33698e-05
-1.18585e-05
-1.04928e-05
-9.26015e-06
-8.14895e-06
-7.14833e-06
-6.24824e-06
-5.43946e-06
-4.7135e-06
-4.06263e-06
-3.47977e-06
-2.95847e-06
-2.49288e-06
-2.07764e-06
-1.70792e-06
-1.37929e-06
-1.08776e-06
-8.29683e-07
-6.01771e-07
-4.01021e-07
-2.2472e-07
-7.04068e-08
-0.00262728
-0.00250547
-0.00238736
-0.00227324
-0.0021633
-0.00205764
-0.00195629
-0.00185922
-0.00176637
-0.00167764
-0.00159292
-0.00151207
-0.00143498
-0.0013615
-0.00129149
-0.00122481
-0.00116133
-0.00110091
-0.00104342
-0.000988732
-0.000936718
-0.000887257
-0.000840234
-0.000795537
-0.000753057
-0.00071269
-0.000674336
-0.000637901
-0.000603292
-0.000570422
-0.000539208
-0.000509568
-0.000481427
-0.000454711
-0.000429351
-0.000405279
-0.000382433
-0.000360751
-0.000340176
-0.000320653
-0.000302128
-0.000284552
-0.000267877
-0.000252058
-0.000237051
-0.000222815
-0.000209311
-0.000196501
-0.00018435
-0.000172825
-0.000161893
-0.000151523
-0.000141688
-0.000132359
-0.000123512
-0.000115121
-0.000107165
-9.96218e-05
-9.24721e-05
-8.56977e-05
-7.92821e-05
-7.32104e-05
-6.74693e-05
-6.20472e-05
-5.69339e-05
-5.21208e-05
-4.76004e-05
-4.33659e-05
-3.94111e-05
-3.57297e-05
-3.23146e-05
-2.91579e-05
-2.62503e-05
-2.35813e-05
-2.1139e-05
-1.89104e-05
-1.6882e-05
-1.50398e-05
-1.33698e-05
-1.18585e-05
-1.04928e-05
-9.26015e-06
-8.14895e-06
-7.14833e-06
-6.24824e-06
-5.43946e-06
-4.7135e-06
-4.06263e-06
-3.47977e-06
-2.95847e-06
-2.49288e-06
-2.07764e-06
-1.70792e-06
-1.37929e-06
-1.08776e-06
-8.29683e-07
-6.01771e-07
-4.01021e-07
-2.2472e-07
-7.04068e-08
)
;
    }
    outlet
    {
        type            cyclic;
        value           nonuniform List<scalar> 
400
(
7.04068e-08
2.24721e-07
4.01021e-07
6.0177e-07
8.29684e-07
1.08776e-06
1.37929e-06
1.70791e-06
2.07764e-06
2.49288e-06
2.95847e-06
3.47977e-06
4.06263e-06
4.7135e-06
5.43946e-06
6.24824e-06
7.14832e-06
8.14895e-06
9.26015e-06
1.04928e-05
1.18585e-05
1.33698e-05
1.50398e-05
1.6882e-05
1.89104e-05
2.1139e-05
2.35813e-05
2.62503e-05
2.91579e-05
3.23146e-05
3.57297e-05
3.94111e-05
4.33659e-05
4.76004e-05
5.21208e-05
5.69339e-05
6.20472e-05
6.74693e-05
7.32104e-05
7.92821e-05
8.56977e-05
9.24721e-05
9.96218e-05
0.000107165
0.000115121
0.000123512
0.000132359
0.000141688
0.000151523
0.000161893
0.000172825
0.00018435
0.000196501
0.000209311
0.000222815
0.000237051
0.000252058
0.000267877
0.000284552
0.000302128
0.000320653
0.000340176
0.000360751
0.000382433
0.000405279
0.000429351
0.000454711
0.000481427
0.000509568
0.000539208
0.000570422
0.000603292
0.000637901
0.000674336
0.00071269
0.000753057
0.000795537
0.000840234
0.000887257
0.000936718
0.000988732
0.00104342
0.00110091
0.00116133
0.00122481
0.00129149
0.0013615
0.00143498
0.00151207
0.00159292
0.00167764
0.00176637
0.00185922
0.00195629
0.00205764
0.0021633
0.00227324
0.00238736
0.00250547
0.00262728
7.04068e-08
2.24721e-07
4.01021e-07
6.0177e-07
8.29684e-07
1.08776e-06
1.37929e-06
1.70791e-06
2.07764e-06
2.49288e-06
2.95847e-06
3.47977e-06
4.06263e-06
4.7135e-06
5.43946e-06
6.24824e-06
7.14832e-06
8.14895e-06
9.26015e-06
1.04928e-05
1.18585e-05
1.33698e-05
1.50398e-05
1.6882e-05
1.89104e-05
2.1139e-05
2.35813e-05
2.62503e-05
2.91579e-05
3.23146e-05
3.57297e-05
3.94111e-05
4.33659e-05
4.76004e-05
5.21208e-05
5.69339e-05
6.20472e-05
6.74693e-05
7.32104e-05
7.92821e-05
8.56977e-05
9.24721e-05
9.96218e-05
0.000107165
0.000115121
0.000123512
0.000132359
0.000141688
0.000151523
0.000161893
0.000172825
0.00018435
0.000196501
0.000209311
0.000222815
0.000237051
0.000252058
0.000267877
0.000284552
0.000302128
0.000320653
0.000340176
0.000360751
0.000382433
0.000405279
0.000429351
0.000454711
0.000481427
0.000509568
0.000539208
0.000570422
0.000603292
0.000637901
0.000674336
0.00071269
0.000753057
0.000795537
0.000840234
0.000887257
0.000936718
0.000988732
0.00104342
0.00110091
0.00116133
0.00122481
0.00129149
0.0013615
0.00143498
0.00151207
0.00159292
0.00167764
0.00176637
0.00185922
0.00195629
0.00205764
0.0021633
0.00227324
0.00238736
0.00250547
0.00262728
0.00262728
0.00250547
0.00238736
0.00227324
0.0021633
0.00205764
0.00195629
0.00185922
0.00176637
0.00167764
0.00159292
0.00151207
0.00143498
0.0013615
0.00129149
0.00122481
0.00116133
0.00110091
0.00104342
0.000988732
0.000936718
0.000887257
0.000840234
0.000795537
0.000753057
0.00071269
0.000674336
0.000637901
0.000603292
0.000570422
0.000539208
0.000509568
0.000481427
0.000454711
0.000429351
0.000405279
0.000382433
0.000360751
0.000340176
0.000320653
0.000302128
0.000284552
0.000267877
0.000252058
0.000237051
0.000222815
0.000209311
0.000196501
0.00018435
0.000172825
0.000161893
0.000151523
0.000141688
0.000132359
0.000123512
0.000115121
0.000107165
9.96218e-05
9.24721e-05
8.56977e-05
7.92821e-05
7.32104e-05
6.74693e-05
6.20472e-05
5.69339e-05
5.21208e-05
4.76004e-05
4.33659e-05
3.94111e-05
3.57297e-05
3.23146e-05
2.91579e-05
2.62503e-05
2.35813e-05
2.1139e-05
1.89104e-05
1.6882e-05
1.50398e-05
1.33698e-05
1.18585e-05
1.04928e-05
9.26015e-06
8.14895e-06
7.14833e-06
6.24824e-06
5.43946e-06
4.7135e-06
4.06263e-06
3.47977e-06
2.95847e-06
2.49288e-06
2.07764e-06
1.70792e-06
1.37929e-06
1.08776e-06
8.29683e-07
6.01771e-07
4.01021e-07
2.2472e-07
7.04068e-08
0.00262728
0.00250547
0.00238736
0.00227324
0.0021633
0.00205764
0.00195629
0.00185922
0.00176637
0.00167764
0.00159292
0.00151207
0.00143498
0.0013615
0.00129149
0.00122481
0.00116133
0.00110091
0.00104342
0.000988732
0.000936718
0.000887257
0.000840234
0.000795537
0.000753057
0.00071269