/*--------------------------------*- C++ -*----------------------------------*\
| =========                 |                                                 |
| \\      /  F ield         | OpenFOAM: The Open Source CFD Toolbox           |
|  \\    /   O peration     | Version:  2106                                  |
|   \\  /    A nd           | Website:  www.openfoam.com                      |
|    \\/     M anipulation  |                                                 |
\*---------------------------------------------------------------------------*/
FoamFile
{
    version     2.0;
    format      ascii;
    arch        "LSB;label=32;scalar=64";
    class       volSymmTensorField;
    location    "10060";
    object      turbulenceProperties:R;
}
// * * * * * * * * * * * * * * * * * * * * * * * * * * * * * * * * * * * * * //

dimensions      [0 2 -2 0 0 0 0];

internalField   nonuniform List<symmTensor> 
2000
(
(2.07004e-08 -7.31303e-14 -1.3535e-16 2.07004e-08 6.64586e-28 2.07004e-08)
(2.07004e-08 -7.31303e-14 -1.3535e-16 2.07004e-08 9.29523e-35 2.07004e-08)
(3.10379e-09 -6.31657e-14 -3.52927e-16 3.10379e-09 9.90804e-29 3.10379e-09)
(3.10379e-09 -6.31657e-14 -3.52927e-16 3.10379e-09 1.1169e-32 3.10379e-09)
(1.42807e-09 -8.60504e-14 -6.671e-16 1.42807e-09 8.79057e-29 1.42807e-09)
(1.42807e-09 -8.60504e-14 -6.671e-16 1.42807e-09 6.66214e-32 1.42807e-09)
(2.34076e-09 -3.00323e-13 -2.37169e-15 2.34076e-09 3.10628e-28 2.34076e-09)
(2.34076e-09 -3.00323e-13 -2.37169e-15 2.34076e-09 3.00705e-31 2.34076e-09)
(5.36265e-09 -1.21898e-12 -9.80612e-15 5.36265e-09 1.26147e-27 5.36265e-09)
(5.36265e-09 -1.21898e-12 -9.80612e-15 5.36265e-09 1.45246e-30 5.36265e-09)
(1.12477e-08 -4.04262e-12 -3.3128e-14 1.12477e-08 2.55529e-27 1.12477e-08)
(1.12477e-08 -4.04262e-12 -3.3128e-14 1.12477e-08 5.72896e-30 1.12477e-08)
(2.11049e-08 -1.11138e-11 -9.27743e-14 2.11049e-08 7.13366e-27 2.11049e-08)
(2.11049e-08 -1.11138e-11 -9.27743e-14 2.11049e-08 1.85251e-29 2.11049e-08)
(3.62777e-08 -2.65119e-11 -2.25443e-13 3.62777e-08 1.74413e-26 3.62777e-08)
(3.62777e-08 -2.65119e-11 -2.25443e-13 3.62777e-08 5.02e-29 3.62777e-08)
(5.83275e-08 -5.68128e-11 -4.92121e-13 5.83275e-08 3.82878e-26 5.83275e-08)
(5.83275e-08 -5.68128e-11 -4.92121e-13 5.83275e-08 1.18686e-28 5.83275e-08)
(8.90406e-08 -1.12043e-10 -9.88651e-13 8.90406e-08 7.72023e-26 8.90406e-08)
(8.90406e-08 -1.12043e-10 -9.88651e-13 8.90406e-08 2.63508e-28 8.90406e-08)
(1.30442e-07 -2.06864e-10 -1.8594e-12 1.30442e-07 1.45742e-25 1.30442e-07)
(1.30442e-07 -2.06864e-10 -1.8594e-12 1.30442e-07 5.68249e-28 1.30442e-07)
(1.84814e-07 -3.6202e-10 -3.31477e-12 1.84814e-07 2.60729e-25 1.84814e-07)
(1.84814e-07 -3.6202e-10 -3.31477e-12 1.84814e-07 1.10794e-27 1.84814e-07)
(2.54715e-07 -6.06109e-10 -5.6533e-12 2.54715e-07 4.46107e-25 2.54715e-07)
(2.54715e-07 -6.06109e-10 -5.6533e-12 2.54715e-07 2.02677e-27 2.54715e-07)
(3.43002e-07 -9.77707e-10 -9.28948e-12 3.43002e-07 7.35509e-25 3.43002e-07)
(3.43002e-07 -9.77707e-10 -9.28948e-12 3.43002e-07 3.63807e-27 3.43002e-07)
(4.52857e-07 -1.52793e-09 -1.47883e-11 4.52857e-07 1.17456e-24 4.52857e-07)
(4.52857e-07 -1.52793e-09 -1.47883e-11 4.52857e-07 6.05953e-27 4.52857e-07)
(5.8781e-07 -2.32349e-09 -2.29079e-11 5.8781e-07 1.82488e-24 5.8781e-07)
(5.8781e-07 -2.32349e-09 -2.29079e-11 5.8781e-07 9.93327e-27 5.8781e-07)
(7.51769e-07 -3.4503e-09 -3.46524e-11 7.51769e-07 2.76888e-24 7.51769e-07)
(7.51769e-07 -3.4503e-09 -3.46524e-11 7.51769e-07 1.66514e-26 7.51769e-07)
(9.49053e-07 -5.01779e-09 -5.13357e-11 9.49053e-07 4.11446e-24 9.49053e-07)
(9.49053e-07 -5.01779e-09 -5.13357e-11 9.49053e-07 2.59188e-26 9.49053e-07)
(1.18442e-06 -7.16392e-09 -7.46601e-11 1.18442e-06 6.0018e-24 1.18442e-06)
(1.18442e-06 -7.16392e-09 -7.46601e-11 1.18442e-06 3.98092e-26 1.18442e-06)
(1.46311e-06 -1.00611e-08 -1.06811e-10 1.46311e-06 8.61132e-24 1.46311e-06)
(1.46311e-06 -1.00611e-08 -1.06811e-10 1.46311e-06 6.32806e-26 1.46311e-06)
(1.79087e-06 -1.39232e-08 -1.5057e-10 1.79087e-06 1.21731e-23 1.79087e-06)
(1.79087e-06 -1.39232e-08 -1.5057e-10 1.79087e-06 9.02109e-26 1.79087e-06)
(2.17401e-06 -1.90135e-08 -2.09456e-10 2.17401e-06 1.69787e-23 2.17401e-06)
(2.17401e-06 -1.90135e-08 -2.09456e-10 2.17401e-06 1.24118e-25 2.17401e-06)
(2.61945e-06 -2.56542e-08 -2.87885e-10 2.61945e-06 2.33985e-23 2.61945e-06)
(2.61945e-06 -2.56542e-08 -2.87885e-10 2.61945e-06 1.83264e-25 2.61945e-06)
(3.13473e-06 -3.42371e-08 -3.91371e-10 3.13473e-06 3.18949e-23 3.13473e-06)
(3.13473e-06 -3.42371e-08 -3.91371e-10 3.13473e-06 2.64075e-25 3.13473e-06)
(3.72811e-06 -4.52364e-08 -5.26757e-10 3.72811e-06 4.30391e-23 3.72811e-06)
(3.72811e-06 -4.52364e-08 -5.26757e-10 3.72811e-06 3.67685e-25 3.72811e-06)
(4.4086e-06 -5.92233e-08 -7.02499e-10 4.4086e-06 5.75379e-23 4.4086e-06)
(4.4086e-06 -5.92233e-08 -7.02499e-10 4.4086e-06 5.1483e-25 4.4086e-06)
(5.18601e-06 -7.68826e-08 -9.28991e-10 5.18601e-06 7.62798e-23 5.18601e-06)
(5.18601e-06 -7.68826e-08 -9.28991e-10 5.18601e-06 7.12495e-25 5.18601e-06)
(6.07103e-06 -9.90317e-08 -1.21896e-09 6.07103e-06 1.00331e-22 6.07103e-06)
(6.07103e-06 -9.90317e-08 -1.21896e-09 6.07103e-06 9.79049e-25 6.07103e-06)
(7.07528e-06 -1.26643e-07 -1.58791e-09 7.07528e-06 1.31027e-22 7.07528e-06)
(7.07528e-06 -1.26643e-07 -1.58791e-09 7.07528e-06 1.30393e-24 7.07528e-06)
(8.21138e-06 -1.6087e-07 -2.0547e-09 8.21138e-06 1.55865e-22 8.21138e-06)
(8.21138e-06 -1.6087e-07 -2.0547e-09 8.21138e-06 1.69835e-24 8.21138e-06)
(9.49306e-06 -2.03072e-07 -2.64214e-09 9.49306e-06 1.30493e-22 9.49306e-06)
(9.49306e-06 -2.03072e-07 -2.64214e-09 9.49306e-06 2.27381e-24 9.49306e-06)
(1.09352e-05 -2.54855e-07 -3.37775e-09 1.09352e-05 1.00386e-22 1.09352e-05)
(1.09352e-05 -2.54855e-07 -3.37775e-09 1.09352e-05 3.07178e-24 1.09352e-05)
(1.25539e-05 -3.18099e-07 -4.29464e-09 1.25539e-05 1.25808e-22 1.25539e-05)
(1.25539e-05 -3.18099e-07 -4.29464e-09 1.25539e-05 4.08549e-24 1.25539e-05)
(1.43665e-05 -3.95009e-07 -5.43252e-09 1.43665e-05 1.56732e-22 1.43665e-05)
(1.43665e-05 -3.95009e-07 -5.43252e-09 1.43665e-05 5.22136e-24 1.43665e-05)
(1.63921e-05 -4.88157e-07 -6.83886e-09 1.63921e-05 1.94008e-22 1.63921e-05)
(1.63921e-05 -4.88157e-07 -6.83886e-09 1.63921e-05 6.5057e-24 1.63921e-05)
(1.8651e-05 -6.00541e-07 -8.5703e-09 1.8651e-05 2.38825e-22 1.8651e-05)
(1.8651e-05 -6.00541e-07 -8.5703e-09 1.8651e-05 8.07674e-24 1.8651e-05)
(2.11653e-05 -7.35641e-07 -1.06942e-08 2.11653e-05 2.93667e-22 2.11653e-05)
(2.11653e-05 -7.35641e-07 -1.06942e-08 2.11653e-05 1.04223e-23 2.11653e-05)
(2.39588e-05 -8.97495e-07 -1.32906e-08 2.39588e-05 3.59927e-22 2.39588e-05)
(2.39588e-05 -8.97495e-07 -1.32906e-08 2.39588e-05 1.31708e-23 2.39588e-05)
(2.70572e-05 -1.09077e-06 -1.6454e-08 2.70572e-05 4.38819e-22 2.70572e-05)
(2.70572e-05 -1.09077e-06 -1.6454e-08 2.70572e-05 1.62935e-23 2.70572e-05)
(3.04881e-05 -1.32084e-06 -2.02964e-08 3.04881e-05 5.33167e-22 3.04881e-05)
(3.04881e-05 -1.32084e-06 -2.02964e-08 3.04881e-05 2.09163e-23 3.04881e-05)
(3.42814e-05 -1.59392e-06 -2.49496e-08 3.42814e-05 6.47404e-22 3.42814e-05)
(3.42814e-05 -1.59392e-06 -2.49496e-08 3.42814e-05 2.83259e-23 3.42814e-05)
(3.84692e-05 -1.91712e-06 -3.05685e-08 3.84692e-05 7.85793e-22 3.84692e-05)
(3.84692e-05 -1.91712e-06 -3.05685e-08 3.84692e-05 3.41466e-23 3.84692e-05)
(4.3086e-05 -2.29861e-06 -3.73351e-08 4.3086e-05 9.43901e-22 4.3086e-05)
(4.3086e-05 -2.29861e-06 -3.73351e-08 4.3086e-05 3.88833e-23 4.3086e-05)
(4.81688e-05 -2.74773e-06 -4.54624e-08 4.81688e-05 1.13205e-21 4.81688e-05)
(4.81688e-05 -2.74773e-06 -4.54624e-08 4.81688e-05 4.76802e-23 4.81688e-05)
(5.37575e-05 -3.27514e-06 -5.51994e-08 5.37575e-05 1.35781e-21 5.37575e-05)
(5.37575e-05 -3.27514e-06 -5.51994e-08 5.37575e-05 5.98419e-23 5.37575e-05)
(5.98948e-05 -3.89299e-06 -6.68364e-08 5.98948e-05 1.61685e-21 5.98948e-05)
(5.98948e-05 -3.89299e-06 -6.68364e-08 5.98948e-05 7.4692e-23 5.98948e-05)
(6.66263e-05 -4.61508e-06 -8.07114e-08 6.66263e-05 1.91855e-21 6.66263e-05)
(6.66263e-05 -4.61508e-06 -8.07114e-08 6.66263e-05 1.04462e-22 6.66263e-05)
(7.40011e-05 -5.45709e-06 -9.72166e-08 7.40011e-05 2.27884e-21 7.40011e-05)
(7.40011e-05 -5.45709e-06 -9.72166e-08 7.40011e-05 1.3254e-22 7.40011e-05)
(8.20714e-05 -6.43674e-06 -1.16807e-07 8.20714e-05 2.70188e-21 8.20714e-05)
(8.20714e-05 -6.43674e-06 -1.16807e-07 8.20714e-05 1.48039e-22 8.20714e-05)
(9.08932e-05 -7.57405e-06 -1.40008e-07 9.08932e-05 3.18711e-21 9.08932e-05)
(9.08932e-05 -7.57405e-06 -1.40008e-07 9.08932e-05 1.60665e-22 9.08932e-05)
(0.000100526 -8.89159e-06 -1.67427e-07 0.000100526 3.72756e-21 0.000100526)
(0.000100526 -8.89159e-06 -1.67427e-07 0.000100526 2.04448e-22 0.000100526)
(0.000111034 -1.04147e-05 -1.99762e-07 0.000111034 4.38645e-21 0.000111034)
(0.000111034 -1.04147e-05 -1.99762e-07 0.000111034 2.62488e-22 0.000111034)
(0.000122484 -1.21718e-05 -2.37815e-07 0.000122484 5.14041e-21 0.000122484)
(0.000122484 -1.21718e-05 -2.37815e-07 0.000122484 3.3562e-22 0.000122484)
(0.000134947 -1.41947e-05 -2.82507e-07 0.000134947 5.99059e-21 0.000134947)
(0.000134947 -1.41947e-05 -2.82507e-07 0.000134947 3.84697e-22 0.000134947)
(0.000148502 -1.65189e-05 -3.34887e-07 0.000148502 7.06084e-21 0.000148502)
(0.000148502 -1.65189e-05 -3.34887e-07 0.000148502 4.55827e-22 0.000148502)
(0.000163227 -1.91837e-05 -3.96153e-07 0.000163227 8.18637e-21 0.000163227)
(0.000163227 -1.91837e-05 -3.96153e-07 0.000163227 6.0266e-22 0.000163227)
(0.000179208 -2.22329e-05 -4.67667e-07 0.000179208 9.43481e-21 0.000179208)
(0.000179208 -2.22329e-05 -4.67667e-07 0.000179208 7.8781e-22 0.000179208)
(0.000196535 -2.57147e-05 -5.50974e-07 0.000196535 1.09426e-20 0.000196535)
(0.000196535 -2.57147e-05 -5.50974e-07 0.000196535 8.6594e-22 0.000196535)
(0.000215302 -2.96823e-05 -6.4782e-07 0.000215302 1.26547e-20 0.000215302)
(0.000215302 -2.96823e-05 -6.4782e-07 0.000215302 9.0346e-22 0.000215302)
(0.000235609 -3.41941e-05 -7.60169e-07 0.000235609 1.44503e-20 0.000235609)
(0.000235609 -3.41941e-05 -7.60169e-07 0.000235609 1.07579e-21 0.000235609)
(0.000257559 -3.93137e-05 -8.90232e-07 0.000257559 1.6443e-20 0.000257559)
(0.000257559 -3.93137e-05 -8.90232e-07 0.000257559 1.58265e-21 0.000257559)
(0.00028126 -4.51105e-05 -1.04048e-06 0.00028126 1.89319e-20 0.00028126)
(0.00028126 -4.51105e-05 -1.04048e-06 0.00028126 1.96316e-21 0.00028126)
(0.000306826 -5.16597e-05 -1.21367e-06 0.000306826 2.16882e-20 0.000306826)
(0.000306826 -5.16597e-05 -1.21367e-06 0.000306826 2.13313e-21 0.000306826)
(0.000334372 -5.90421e-05 -1.41286e-06 0.000334372 2.42636e-20 0.000334372)
(0.000334372 -5.90421e-05 -1.41286e-06 0.000334372 2.23417e-21 0.000334372)
(0.000364019 -6.73446e-05 -1.64144e-06 0.000364019 3.19674e-20 0.000364019)
(0.000364019 -6.73446e-05 -1.64144e-06 0.000364019 2.69411e-21 0.000364019)
(0.00039589 -7.66596e-05 -1.90314e-06 0.00039589 4.47814e-20 0.00039589)
(0.00039589 -7.66596e-05 -1.90314e-06 0.00039589 3.31674e-21 0.00039589)
(0.000430111 -8.70852e-05 -2.20203e-06 0.000430111 5.44715e-20 0.000430111)
(0.000430111 -8.70852e-05 -2.20203e-06 0.000430111 4.06052e-21 0.000430111)
(0.00046681 -9.87242e-05 -2.54256e-06 0.00046681 6.24513e-20 0.00046681)
(0.00046681 -9.87242e-05 -2.54256e-06 0.00046681 4.84004e-21 0.00046681)
(0.000506116 -0.000111684 -2.92957e-06 0.000506116 7.22924e-20 0.000506116)
(0.000506116 -0.000111684 -2.92957e-06 0.000506116 5.52559e-21 0.000506116)
(0.000548158 -0.000126077 -3.36826e-06 0.000548158 8.28966e-20 0.000548158)
(0.000548158 -0.000126077 -3.36826e-06 0.000548158 6.53065e-21 0.000548158)
(0.000593064 -0.000142016 -3.86419e-06 0.000593064 9.40016e-20 0.000593064)
(0.000593064 -0.000142016 -3.86419e-06 0.000593064 7.99051e-21 0.000593064)
(0.00064096 -0.000159617 -4.4233e-06 0.00064096 1.06983e-19 0.00064096)
(0.00064096 -0.000159617 -4.4233e-06 0.00064096 9.44156e-21 0.00064096)
(0.000691969 -0.000178996 -5.05185e-06 0.000691969 1.20743e-19 0.000691969)
(0.000691969 -0.000178996 -5.05185e-06 0.000691969 9.93314e-21 0.000691969)
(0.000746207 -0.000200269 -5.75641e-06 0.000746207 1.35868e-19 0.000746207)
(0.000746207 -0.000200269 -5.75641e-06 0.000746207 1.08054e-20 0.000746207)
(0.000803784 -0.000223546 -6.54381e-06 0.000803784 1.51988e-19 0.000803784)
(0.000803784 -0.000223546 -6.54381e-06 0.000803784 1.44542e-20 0.000803784)
(0.000864804 -0.000248934 -7.4211e-06 0.000864804 1.68974e-19 0.000864804)
(0.000864804 -0.000248934 -7.4211e-06 0.000864804 1.85038e-20 0.000864804)
(0.000929357 -0.000276534 -8.39545e-06 0.000929357 1.89697e-19 0.000929357)
(0.000929357 -0.000276534 -8.39545e-06 0.000929357 2.05066e-20 0.000929357)
(0.000997523 -0.000306436 -9.47413e-06 0.000997523 2.11158e-19 0.000997523)
(0.000997523 -0.000306436 -9.47413e-06 0.000997523 2.30395e-20 0.000997523)
(0.00106937 -0.000338718 -1.06644e-05 0.00106937 2.30169e-19 0.00106937)
(0.00106937 -0.000338718 -1.06644e-05 0.00106937 2.61243e-20 0.00106937)
(0.00114494 -0.000373446 -1.19734e-05 0.00114494 2.48718e-19 0.00114494)
(0.00114494 -0.000373446 -1.19734e-05 0.00114494 2.97636e-20 0.00114494)
(0.00122427 -0.00041067 -1.34082e-05 0.00122427 2.69626e-19 0.00122427)
(0.00122427 -0.00041067 -1.34082e-05 0.00122427 3.81517e-20 0.00122427)
(0.00130737 -0.000450421 -1.49754e-05 0.00130737 2.94363e-19 0.00130737)
(0.00130737 -0.000450421 -1.49754e-05 0.00130737 4.62252e-20 0.00130737)
(0.00139423 -0.000492712 -1.66813e-05 0.00139423 3.19962e-19 0.00139423)
(0.00139423 -0.000492712 -1.66813e-05 0.00139423 5.25561e-20 0.00139423)
(0.00148483 -0.000537536 -1.85317e-05 0.00148483 3.40648e-19 0.00148483)
(0.00148483 -0.000537536 -1.85317e-05 0.00148483 6.31572e-20 0.00148483)
(0.0015791 -0.000584861 -2.0532e-05 0.0015791 3.63112e-19 0.0015791)
(0.0015791 -0.000584861 -2.0532e-05 0.0015791 7.19578e-20 0.0015791)
(0.00167698 -0.000634636 -2.26866e-05 0.00167698 3.86728e-19 0.00167698)
(0.00167698 -0.000634636 -2.26866e-05 0.00167698 8.27969e-20 0.00167698)
(0.00177836 -0.000686786 -2.49995e-05 0.00177836 3.9627e-19 0.00177836)
(0.00177836 -0.000686786 -2.49995e-05 0.00177836 9.93386e-20 0.00177836)
(0.00188311 -0.000741215 -2.74738e-05 0.00188311 4.03646e-19 0.00188311)
(0.00188311 -0.000741215 -2.74738e-05 0.00188311 1.11124e-19 0.00188311)
(0.0019911 -0.000797806 -3.01117e-05 0.0019911 4.29824e-19 0.0019911)
(0.0019911 -0.000797806 -3.01117e-05 0.0019911 1.20528e-19 0.0019911)
(0.00210214 -0.000856422 -3.29147e-05 0.00210214 4.48355e-19 0.00210214)
(0.00210214 -0.000856422 -3.29147e-05 0.00210214 1.38892e-19 0.00210214)
(0.00221606 -0.000916907 -3.58834e-05 0.00221606 4.5957e-19 0.00221606)
(0.00221606 -0.000916907 -3.58834e-05 0.00221606 1.60867e-19 0.00221606)
(0.00233263 -0.000979092 -3.90176e-05 0.00233263 4.8851e-19 0.00233263)
(0.00233263 -0.000979092 -3.90176e-05 0.00233263 1.76991e-19 0.00233263)
(0.00245164 -0.00104279 -4.23162e-05 0.00245164 5.12046e-19 0.00245164)
(0.00245164 -0.00104279 -4.23162e-05 0.00245164 2.05886e-19 0.00245164)
(0.00257283 -0.00110782 -4.57775e-05 0.00257283 5.01342e-19 0.00257283)
(0.00257283 -0.00110782 -4.57775e-05 0.00257283 2.43032e-19 0.00257283)
(0.00269597 -0.00117396 -4.93991e-05 0.00269597 4.69876e-19 0.00269597)
(0.00269597 -0.00117396 -4.93991e-05 0.00269597 2.74386e-19 0.00269597)
(0.00282077 -0.00124102 -5.31777e-05 0.00282077 4.45706e-19 0.00282077)
(0.00282077 -0.00124102 -5.31777e-05 0.00282077 3.04218e-19 0.00282077)
(0.00294697 -0.00130879 -5.71099e-05 0.00294697 4.26473e-19 0.00294697)
(0.00294697 -0.00130879 -5.71099e-05 0.00294697 3.41158e-19 0.00294697)
(0.0030743 -0.00137706 -6.11915e-05 0.0030743 4.07136e-19 0.0030743)
(0.0030743 -0.00137706 -6.11915e-05 0.0030743 3.72366e-19 0.0030743)
(0.00320247 -0.00144562 -6.5418e-05 0.00320247 4.00169e-19 0.00320247)
(0.00320247 -0.00144562 -6.5418e-05 0.00320247 4.10747e-19 0.00320247)
(0.0033312 -0.00151428 -6.97847e-05 0.0033312 4.12609e-19 0.0033312)
(0.0033312 -0.00151428 -6.97847e-05 0.0033312 4.57596e-19 0.0033312)
(0.00346023 -0.00158285 -7.42866e-05 0.00346023 3.81017e-19 0.00346023)
(0.00346023 -0.00158285 -7.42866e-05 0.00346023 5.06762e-19 0.00346023)
(0.00358928 -0.00165114 -7.89187e-05 0.00358928 3.30535e-19 0.00358928)
(0.00358928 -0.00165114 -7.89187e-05 0.00358928 5.52511e-19 0.00358928)
(0.00371809 -0.00171898 -8.36758e-05 0.00371809 3.20487e-19 0.00371809)
(0.00371809 -0.00171898 -8.36758e-05 0.00371809 6.11303e-19 0.00371809)
(0.0038464 -0.00178622 -8.85529e-05 0.0038464 3.11067e-19 0.0038464)
(0.0038464 -0.00178622 -8.85529e-05 0.0038464 6.76659e-19 0.0038464)
(0.00397398 -0.0018527 -9.35449e-05 0.00397398 3.05964e-19 0.00397398)
(0.00397398 -0.0018527 -9.35449e-05 0.00397398 7.27327e-19 0.00397398)
(0.0041006 -0.0019183 -9.86469e-05 0.0041006 3.48276e-19 0.0041006)
(0.0041006 -0.0019183 -9.86469e-05 0.0041006 7.90577e-19 0.0041006)
(0.00422604 -0.00198288 -0.000103854 0.00422604 4.39174e-19 0.00422604)
(0.00422604 -0.00198288 -0.000103854 0.00422604 8.70325e-19 0.00422604)
(0.00435009 -0.00204635 -0.000109162 0.00435009 4.74409e-19 0.00435009)
(0.00435009 -0.00204635 -0.000109162 0.00435009 9.68871e-19 0.00435009)
(0.00447258 -0.00210859 -0.000114567 0.00447258 4.85655e-19 0.00447258)
(0.00447258 -0.00210859 -0.000114567 0.00447258 1.07995e-18 0.00447258)
(0.00459331 -0.00216954 -0.000120064 0.00459331 5.9292e-19 0.00459331)
(0.00459331 -0.00216954 -0.000120064 0.00459331 1.18518e-18 0.00459331)
(0.00471215 -0.00222911 -0.00012565 0.00471215 7.11864e-19 0.00471215)
(0.00471215 -0.00222911 -0.00012565 0.00471215 1.28298e-18 0.00471215)
(0.00482893 -0.00228725 -0.000131321 0.00482893 7.62599e-19 0.00482893)
(0.00482893 -0.00228725 -0.000131321 0.00482893 1.38329e-18 0.00482893)
(0.00494354 -0.00234391 -0.000137075 0.00494354 8.12747e-19 0.00494354)
(0.00494354 -0.00234391 -0.000137075 0.00494354 1.51402e-18 0.00494354)
(0.00505586 -0.00239904 -0.000142907 0.00505586 8.37647e-19 0.00505586)
(0.00505586 -0.00239904 -0.000142907 0.00505586 1.6691e-18 0.00505586)
(0.00516578 -0.00245261 -0.000148817 0.00516578 9.11341e-19 0.00516578)
(0.00516578 -0.00245261 -0.000148817 0.00516578 1.44808e-18 0.00516578)
(0.00527323 -0.0025046 -0.0001548 0.00527323 8.26416e-19 0.00527323)
(0.00527323 -0.0025046 -0.0001548 0.00527323 1.17613e-18 0.00527323)
(0.00537811 -0.002555 -0.000160856 0.00537811 4.34884e-19 0.00537811)
(0.00537811 -0.002555 -0.000160856 0.00537811 1.59532e-18 0.00537811)
(0.00548038 -0.00260379 -0.000166982 0.00548038 3.77494e-19 0.00548038)
(0.00548038 -0.00260379 -0.000166982 0.00548038 2.31811e-18 0.00548038)
(0.00557997 -0.00265097 -0.000173177 0.00557997 -1.24672e-19 0.00557997)
(0.00557997 -0.00265097 -0.000173177 0.00557997 3.3015e-18 0.00557997)
(0.00567685 -0.00269654 -0.000179439 0.00567685 -2.62086e-19 0.00567685)
(0.00567685 -0.00269654 -0.000179439 0.00567685 3.62165e-18 0.00567685)
(0.00577098 -0.00274052 -0.000185768 0.00577098 -5.19738e-19 0.00577098)
(0.00577098 -0.00274052 -0.000185768 0.00577098 3.93614e-18 0.00577098)
(0.00586235 -0.0027829 -0.000192162 0.00586235 -1.11809e-18 0.00586235)
(0.00586235 -0.0027829 -0.000192162 0.00586235 4.34829e-18 0.00586235)
(0.00595092 -0.00282372 -0.00019862 0.00595092 -1.69064e-18 0.00595092)
(0.00595092 -0.00282372 -0.00019862 0.00595092 4.51888e-18 0.00595092)
(0.00603671 -0.00286297 -0.000205142 0.00603671 -2.10292e-18 0.00603671)
(0.00603671 -0.00286297 -0.000205142 0.00603671 4.84076e-18 0.00603671)
(0.0061197 -0.00290069 -0.000211727 0.0061197 -2.03069e-18 0.0061197)
(0.0061197 -0.00290069 -0.000211727 0.0061197 5.31148e-18 0.0061197)
(0.0061999 -0.00293689 -0.000218375 0.0061999 -1.98943e-18 0.0061999)
(0.0061999 -0.00293689 -0.000218375 0.0061999 5.69149e-18 0.0061999)
(0.00627732 -0.00297161 -0.000225085 0.00627732 -1.92869e-18 0.00627732)
(0.00627732 -0.00297161 -0.000225085 0.00627732 5.96622e-18 0.00627732)
(0.00635198 -0.00300486 -0.000231858 0.00635198 -1.9217e-18 0.00635198)
(0.00635198 -0.00300486 -0.000231858 0.00635198 6.38078e-18 0.00635198)
(0.0064239 -0.00303667 -0.000238693 0.0064239 -2.17924e-18 0.0064239)
(0.0064239 -0.00303667 -0.000238693 0.0064239 6.93886e-18 0.0064239)
(0.0064931 -0.00306707 -0.00024559 0.0064931 -2.05136e-18 0.0064931)
(0.0064931 -0.00306707 -0.00024559 0.0064931 7.25299e-18 0.0064931)
(0.00655961 -0.00309608 -0.00025255 0.00655961 -6.55685e-19 0.00655961)
(0.00655961 -0.00309608 -0.00025255 0.00655961 7.60693e-18 0.00655961)
(0.00662345 -0.00312375 -0.000259572 0.00662345 8.8097e-19 0.00662345)
(0.00662345 -0.00312375 -0.000259572 0.00662345 7.996e-18 0.00662345)
(0.00668466 -0.00315008 -0.000266657 0.00668466 1.17925e-18 0.00668466)
(0.00668466 -0.00315008 -0.000266657 0.00668466 8.19361e-18 0.00668466)
(0.00674327 -0.00317512 -0.000273805 0.00674327 1.11942e-18 0.00674327)
(0.00674327 -0.00317512 -0.000273805 0.00674327 8.09583e-18 0.00674327)
(0.00679932 -0.00319888 -0.000281015 0.00679932 1.10054e-18 0.00679932)
(0.00679932 -0.00319888 -0.000281015 0.00679932 8.05797e-18 0.00679932)
(0.00685284 -0.00322141 -0.000288289 0.00685284 1.19161e-18 0.00685284)
(0.00685284 -0.00322141 -0.000288289 0.00685284 8.33951e-18 0.00685284)
(0.00690388 -0.00324272 -0.000295626 0.00690388 1.46823e-18 0.00690388)
(0.00690388 -0.00324272 -0.000295626 0.00690388 8.79712e-18 0.00690388)
(0.00695247 -0.00326284 -0.000303027 0.00695247 1.17859e-18 0.00695247)
(0.00695247 -0.00326284 -0.000303027 0.00695247 9.2793e-18 0.00695247)
(0.00699864 -0.0032818 -0.000310491 0.00699864 6.42691e-19 0.00699864)
(0.00699864 -0.0032818 -0.000310491 0.00699864 9.77045e-18 0.00699864)
(0.00704245 -0.00329962 -0.00031802 0.00704245 2.15479e-18 0.00704245)
(0.00704245 -0.00329962 -0.00031802 0.00704245 1.04883e-17 0.00704245)
(0.00708392 -0.00331633 -0.000325613 0.00708392 2.64682e-18 0.00708392)
(0.00708392 -0.00331633 -0.000325613 0.00708392 1.11754e-17 0.00708392)
(0.0071231 -0.00333196 -0.00033327 0.0071231 1.24644e-18 0.0071231)
(0.0071231 -0.00333196 -0.00033327 0.0071231 1.16094e-17 0.0071231)
(0.00716002 -0.00334652 -0.000340991 0.00716002 8.0714e-19 0.00716002)
(0.00716002 -0.00334652 -0.000340991 0.00716002 1.23107e-17 0.00716002)
(0.00719473 -0.00336004 -0.000348777 0.00719473 -4.99933e-19 0.00719473)
(0.00719473 -0.00336004 -0.000348777 0.00719473 1.28901e-17 0.00719473)
(0.00722726 -0.00337255 -0.000356626 0.00722726 -2.12942e-20 0.00722726)
(0.00722726 -0.00337255 -0.000356626 0.00722726 1.33028e-17 0.00722726)
(0.00725765 -0.00338406 -0.000364541 0.00725765 -1.68774e-19 0.00725765)
(0.00725765 -0.00338406 -0.000364541 0.00725765 1.36683e-17 0.00725765)
(0.00728594 -0.00339459 -0.000372519 0.00728594 -3.86527e-19 0.00728594)
(0.00728594 -0.00339459 -0.000372519 0.00728594 1.41725e-17 0.00728594)
(0.00731215 -0.00340416 -0.000380561 0.00731215 -2.43807e-19 0.00731215)
(0.00731215 -0.00340416 -0.000380561 0.00731215 1.49969e-17 0.00731215)
(0.00733634 -0.0034128 -0.000388667 0.00733634 -3.41971e-19 0.00733634)
(0.00733634 -0.0034128 -0.000388667 0.00733634 1.54486e-17 0.00733634)
(0.00735852 -0.00342051 -0.000396836 0.00735852 8.97127e-19 0.00735852)
(0.00735852 -0.00342051 -0.000396836 0.00735852 1.58491e-17 0.00735852)
(0.00737874 -0.00342732 -0.000405067 0.00737874 2.84863e-18 0.00737874)
(0.00737874 -0.00342732 -0.000405067 0.00737874 1.60652e-17 0.00737874)
(0.00739702 -0.00343325 -0.000413361 0.00739702 2.83349e-18 0.00739702)
(0.00739702 -0.00343325 -0.000413361 0.00739702 1.66081e-17 0.00739702)
(0.00741341 -0.0034383 -0.000421716 0.00741341 5.31168e-19 0.00741341)
(0.00741341 -0.0034383 -0.000421716 0.00741341 1.75247e-17 0.00741341)
(0.00742791 -0.0034425 -0.000430132 0.00742791 -1.5551e-18 0.00742791)
(0.00742791 -0.0034425 -0.000430132 0.00742791 1.84727e-17 0.00742791)
(0.00744058 -0.00344585 -0.000438607 0.00744058 -1.63415e-18 0.00744058)
(0.00744058 -0.00344585 -0.000438607 0.00744058 1.95678e-17 0.00744058)
(0.00745142 -0.00344837 -0.000447141 0.00745142 -2.80455e-18 0.00745142)
(0.00745142 -0.00344837 -0.000447141 0.00745142 2.07537e-17 0.00745142)
(0.00746048 -0.00345008 -0.000455732 0.00746048 -2.77879e-18 0.00746048)
(0.00746048 -0.00345008 -0.000455732 0.00746048 2.22705e-17 0.00746048)
(0.00746777 -0.00345098 -0.000464379 0.00746777 -3.26839e-18 0.00746777)
(0.00746777 -0.00345098 -0.000464379 0.00746777 2.40483e-17 0.00746777)
(0.00747333 -0.00345108 -0.000473081 0.00747333 -2.31933e-18 0.00747333)
(0.00747333 -0.00345108 -0.000473081 0.00747333 2.35794e-17 0.00747333)
(0.00747717 -0.0034504 -0.000481836 0.00747717 -1.85616e-18 0.00747717)
(0.00747717 -0.0034504 -0.000481836 0.00747717 2.26394e-17 0.00747717)
(0.00747931 -0.00344895 -0.000490643 0.00747931 -3.64017e-18 0.00747931)
(0.00747931 -0.00344895 -0.000490643 0.00747931 2.29707e-17 0.00747931)
(0.00747978 -0.00344672 -0.000499498 0.00747978 -2.44253e-18 0.00747978)
(0.00747978 -0.00344672 -0.000499498 0.00747978 2.27848e-17 0.00747978)
(0.0074786 -0.00344375 -0.000508401 0.0074786 -1.56613e-18 0.0074786)
(0.0074786 -0.00344375 -0.000508401 0.0074786 2.19432e-17 0.0074786)
(0.00747579 -0.00344001 -0.000517348 0.00747579 -8.05084e-19 0.00747579)
(0.00747579 -0.00344001 -0.000517348 0.00747579 2.27249e-17 0.00747579)
(0.00747136 -0.00343554 -0.000526338 0.00747136 -2.09004e-19 0.00747136)
(0.00747136 -0.00343554 -0.000526338 0.00747136 2.38699e-17 0.00747136)
(0.00746533 -0.00343033 -0.000535367 0.00746533 -1.36873e-18 0.00746533)
(0.00746533 -0.00343033 -0.000535367 0.00746533 2.56085e-17 0.00746533)
(0.00745772 -0.00342439 -0.000544433 0.00745772 -3.20943e-18 0.00745772)
(0.00745772 -0.00342439 -0.000544433 0.00745772 2.64629e-17 0.00745772)
(0.00744855 -0.00341772 -0.000553533 0.00744855 -2.37138e-18 0.00744855)
(0.00744855 -0.00341772 -0.000553533 0.00744855 2.54251e-17 0.00744855)
(0.00743782 -0.00341033 -0.000562662 0.00743782 -4.63769e-19 0.00743782)
(0.00743782 -0.00341033 -0.000562662 0.00743782 2.64517e-17 0.00743782)
(0.00742554 -0.00340222 -0.000571818 0.00742554 -1.66249e-19 0.00742554)
(0.00742554 -0.00340222 -0.000571818 0.00742554 2.83961e-17 0.00742554)
(0.00741174 -0.0033934 -0.000580997 0.00741174 9.48832e-19 0.00741174)
(0.00741174 -0.0033934 -0.000580997 0.00741174 3.14861e-17 0.00741174)
(0.00739643 -0.00338387 -0.000590193 0.00739643 3.01885e-18 0.00739643)
(0.00739643 -0.00338387 -0.000590193 0.00739643 3.38665e-17 0.00739643)
(0.0073796 -0.00337362 -0.000599404 0.0073796 1.58165e-18 0.0073796)
(0.0073796 -0.00337362 -0.000599404 0.0073796 3.51538e-17 0.0073796)
(0.00736128 -0.00336268 -0.000608625 0.00736128 6.24198e-19 0.00736128)
(0.00736128 -0.00336268 -0.000608625 0.00736128 3.51018e-17 0.00736128)
(0.00734147 -0.00335102 -0.000617849 0.00734147 4.18309e-18 0.00734147)
(0.00734147 -0.00335102 -0.000617849 0.00734147 3.40538e-17 0.00734147)
(0.00732017 -0.00333866 -0.000627072 0.00732017 4.41599e-18 0.00732017)
(0.00732017 -0.00333866 -0.000627072 0.00732017 3.66185e-17 0.00732017)
(0.0072974 -0.0033256 -0.000636288 0.0072974 5.16014e-18 0.0072974)
(0.0072974 -0.0033256 -0.000636288 0.0072974 3.85802e-17 0.0072974)
(0.00727316 -0.00331184 -0.000645492 0.00727316 5.01536e-18 0.00727316)
(0.00727316 -0.00331184 -0.000645492 0.00727316 3.8494e-17 0.00727316)
(0.00724745 -0.00329737 -0.000654676 0.00724745 4.56263e-18 0.00724745)
(0.00724745 -0.00329737 -0.000654676 0.00724745 3.93702e-17 0.00724745)
(0.00722028 -0.00328219 -0.000663835 0.00722028 7.78325e-19 0.00722028)
(0.00722028 -0.00328219 -0.000663835 0.00722028 4.28142e-17 0.00722028)
(0.00719166 -0.00326631 -0.00067296 0.00719166 1.39e-18 0.00719166)
(0.00719166 -0.00326631 -0.00067296 0.00719166 4.31728e-17 0.00719166)
(0.00716158 -0.00324972 -0.000682044 0.00716158 3.47458e-18 0.00716158)
(0.00716158 -0.00324972 -0.000682044 0.00716158 4.08866e-17 0.00716158)
(0.00713005 -0.00323243 -0.00069108 0.00713005 2.57327e-18 0.00713005)
(0.00713005 -0.00323243 -0.00069108 0.00713005 3.46951e-17 0.00713005)
(0.00709706 -0.00321442 -0.000700059 0.00709706 2.48075e-18 0.00709706)
(0.00709706 -0.00321442 -0.000700059 0.00709706 2.64577e-17 0.00709706)
(0.00706263 -0.00319569 -0.000708972 0.00706263 -9.21835e-19 0.00706263)
(0.00706263 -0.00319569 -0.000708972 0.00706263 2.67359e-17 0.00706263)
(0.00702674 -0.00317625 -0.000717809 0.00702674 -5.3638e-18 0.00702674)
(0.00702674 -0.00317625 -0.000717809 0.00702674 2.64835e-17 0.00702674)
(0.0069894 -0.00315608 -0.000726561 0.0069894 -4.10595e-18 0.0069894)
(0.0069894 -0.00315608 -0.000726561 0.0069894 2.46073e-17 0.0069894)
(0.00695062 -0.00313519 -0.000735218 0.00695062 -4.33611e-18 0.00695062)
(0.00695062 -0.00313519 -0.000735218 0.00695062 2.17659e-17 0.00695062)
(0.00691037 -0.00311357 -0.000743768 0.00691037 -3.53699e-18 0.00691037)
(0.00691037 -0.00311357 -0.000743768 0.00691037 2.0442e-17 0.00691037)
(0.00686867 -0.00309121 -0.0007522 0.00686867 -4.50134e-18 0.00686867)
(0.00686867 -0.00309121 -0.0007522 0.00686867 1.99549e-17 0.00686867)
(0.00682551 -0.00306812 -0.000760501 0.00682551 -6.23424e-18 0.00682551)
(0.00682551 -0.00306812 -0.000760501 0.00682551 1.58139e-17 0.00682551)
(0.00678089 -0.00304427 -0.00076866 0.00678089 -1.6725e-18 0.00678089)
(0.00678089 -0.00304427 -0.00076866 0.00678089 1.14356e-17 0.00678089)
(0.00673481 -0.00301968 -0.000776663 0.00673481 4.00721e-18 0.00673481)
(0.00673481 -0.00301968 -0.000776663 0.00673481 6.18036e-18 0.00673481)
(0.00668725 -0.00299433 -0.000784496 0.00668725 6.58508e-18 0.00668725)
(0.00668725 -0.00299433 -0.000784496 0.00668725 2.87033e-18 0.00668725)
(0.00663823 -0.00296821 -0.000792144 0.00663823 1.89149e-32 0.00663823)
(0.00663823 -0.00296821 -0.000792144 0.00663823 1.24773e-18 0.00663823)
(0.00658772 -0.00294132 -0.000799591 0.00658772 -3.52881e-18 0.00658772)
(0.00658772 -0.00294132 -0.000799591 0.00658772 1.99906e-18 0.00658772)
(0.00653574 -0.00291366 -0.000806822 0.00653574 -3.36728e-18 0.00653574)
(0.00653574 -0.00291366 -0.000806822 0.00653574 3.36268e-18 0.00653574)
(0.00648227 -0.0028852 -0.00081382 0.00648227 -1.49913e-18 0.00648227)
(0.00648227 -0.0028852 -0.00081382 0.00648227 -6.05006e-19 0.00648227)
(0.00642731 -0.00285596 -0.000820566 0.00642731 7.20559e-18 0.00642731)