/*--------------------------------*- C++ -*----------------------------------*\
| =========                 |                                                 |
| \\      /  F ield         | OpenFOAM: The Open Source CFD Toolbox           |
|  \\    /   O peration     | Version:  2106                                  |
|   \\  /    A nd           | Website:  www.openfoam.com                      |
|    \\/     M anipulation  |                                                 |
\*---------------------------------------------------------------------------*/
FoamFile
{
    version     2.0;
    format      ascii;
    arch        "LSB;label=32;scalar=64";
    class       volVectorField;
    location    "10100";
    object      grad(T);
}
// * * * * * * * * * * * * * * * * * * * * * * * * * * * * * * * * * * * * * //

dimensions      [0 -1 0 1 0 0 0];

internalField   nonuniform List<vector> 
2000
(
(0 874.932 1.61918)
(0 874.932 1.61918)
(0 874.93 4.88776)
(0 874.93 4.88776)
(-1.96331e-15 874.925 6.78343)
(1.76431e-15 874.925 6.78343)
(-6.52134e-16 874.915 6.90994)
(2.60854e-15 874.915 6.90994)
(0 874.891 7.03866)
(0 874.891 7.03866)
(0 874.837 7.16943)
(-6.336e-15 874.837 7.16943)
(0 874.722 7.30196)
(1.15294e-14 874.722 7.30196)
(0 874.491 7.43566)
(2.04097e-14 874.491 7.43566)
(-3.04857e-15 874.061 7.56966)
(0 874.061 7.56966)
(0 873.309 7.70259)
(0 873.309 7.70259)
(1.21733e-14 872.066 7.83255)
(0 872.066 7.83255)
(4.59803e-15 870.109 7.95699)
(1.83921e-14 870.109 7.95699)
(0 867.16 8.07268)
(0 867.16 8.07268)
(-1.71962e-14 862.894 8.17575)
(0 862.894 8.17575)
(-6.2353e-15 856.955 8.26189)
(-1.13052e-14 856.955 8.26189)
(1.78977e-14 848.983 8.32663)
(-2.71984e-14 848.983 8.32663)
(0 838.655 8.36573)
(0 838.655 8.36573)
(2.65972e-14 825.719 8.37568)
(3.18043e-14 825.719 8.37568)
(-8.53523e-15 810.041 8.35412)
(0 810.041 8.35412)
(9.1224e-15 791.624 8.3002)
(3.64896e-14 791.624 8.3002)
(-9.71022e-15 770.622 8.21462)
(7.76817e-14 770.622 8.21462)
(0 747.325 8.09962)
(2.13199e-14 747.325 8.09962)
(0 722.13 7.95862)
(4.35111e-14 722.13 7.95862)
(0 695.498 7.79586)
(2.66669e-14 695.498 7.79586)
(-1.20185e-14 667.912 7.61597)
(0 667.912 7.61597)
(0 639.841 7.42357)
(5.02947e-14 639.841 7.42357)
(-1.31166e-14 611.707 7.22296)
(0 611.707 7.22296)
(-1.36463e-14 583.873 7.01798)
(0 583.873 7.01798)
(0 556.63 6.81186)
(-1.74526e-14 556.63 6.81186)
(-3.17957e-14 530.203 6.60724)
(-5.86517e-14 530.203 6.60724)
(1.51493e-14 504.752 6.40616)
(6.05971e-14 504.752 6.40616)
(0 480.384 6.21016)
(-1.65106e-14 480.384 6.21016)
(-1.60783e-14 457.16 6.02037)
(0 457.16 6.02037)
(-1.65214e-14 435.108 5.8375)
(0 435.108 5.8375)
(-1.56195e-14 414.226 5.66202)
(8.34227e-14 414.226 5.66202)
(3.06665e-14 394.494 5.49415)
(-3.06665e-14 394.494 5.49415)
(3.28227e-14 375.875 5.33394)
(5.60295e-14 375.875 5.33394)
(-1.81617e-14 358.326 5.18132)
(7.26469e-14 358.326 5.18132)
(-1.85414e-14 341.796 5.03611)
(0 341.796 5.03611)
(2.84798e-14 326.231 4.89809)
(4.71603e-14 326.231 4.89809)
(-3.85362e-14 311.576 4.76698)
(4.91145e-14 311.576 4.76698)
(0 297.776 4.64247)
(2.74456e-14 297.776 4.64247)
(0 284.778 4.52426)
(2.69426e-14 284.778 4.52426)
(-2.02842e-14 272.53 4.41201)
(-1.07586e-13 272.53 4.41201)
(2.06051e-14 260.984 4.30542)
(5.64563e-14 260.984 4.30542)
(2.09179e-14 250.092 4.20417)
(-8.36717e-14 250.092 4.20417)
(3.79839e-15 239.811 4.10796)
(8.4892e-14 239.811 4.10796)
(0 230.101 4.0165)
(1.72166e-13 230.101 4.0165)
(2.18115e-14 220.922 3.92951)
(8.72461e-14 220.922 3.92951)
(-2.20957e-14 212.24 3.84674)
(-8.83827e-14 212.24 3.84674)
(0 204.021 3.76793)
(2.32372e-14 204.021 3.76793)
(-4.54567e-14 196.235 3.69286)
(-2.28113e-14 196.235 3.69286)
(0 188.853 3.62131)
(0 188.853 3.62131)
(0 181.848 3.55307)
(-9.26893e-14 181.848 3.55307)
(1.84775e-15 175.197 3.48795)
(0 175.197 3.48795)
(-2.36786e-14 168.876 3.42576)
(0 168.876 3.42576)
(-2.70525e-14 162.866 3.36635)
(9.5698e-14 162.866 3.36635)
(-2.4166e-14 157.146 3.30956)
(0 157.146 3.30956)
(-8.72373e-15 151.698 3.25523)
(-1.37695e-13 151.698 3.25523)
(2.46363e-14 146.506 3.20323)
(-9.8545e-14 146.506 3.20323)
(0 141.554 3.15344)
(-3.86271e-14 141.554 3.15344)
(-5.01818e-14 136.828 3.10572)
(2.00727e-13 136.828 3.10572)
(-2.53127e-14 132.315 3.05998)
(1.01251e-13 132.315 3.05998)
(0 128.002 3.0161)
(0 128.002 3.0161)
(-2.57463e-14 123.878 2.974)
(1.02985e-13 123.878 2.974)
(0 119.932 2.93356)
(-3.52153e-14 119.932 2.93356)
(-2.61672e-14 116.154 2.89472)
(-3.457e-14 116.154 2.89472)
(0 112.535 2.85738)
(-3.39365e-14 112.535 2.85738)
(0 109.066 2.82148)
(1.06306e-13 109.066 2.82148)
(0 105.74 2.78694)
(0 105.74 2.78694)
(-2.69751e-14 102.547 2.75369)
(1.079e-13 102.547 2.75369)
(0 99.4822 2.72168)
(1.08682e-13 99.4822 2.72168)
(-2.73637e-14 96.5381 2.69084)
(-1.09455e-13 96.5381 2.69084)
(0 93.7086 2.66112)
(-7.98462e-14 93.7086 2.66112)
(-5.54864e-14 90.9879 2.63247)
(1.10973e-13 90.9879 2.63247)
(-5.58594e-14 88.3707 2.60483)
(0 88.3707 2.60483)
(-2.87328e-14 85.8518 2.57817)
(1.41189e-13 85.8518 2.57817)
(-2.82966e-14 83.4264 2.55243)
(-1.41393e-13 83.4264 2.55243)
(2.84772e-14 81.09 2.52758)
(0 81.09 2.52758)
(1.47388e-15 78.8384 2.50358)
(-8.74415e-14 78.8384 2.50358)
(-5.76656e-14 76.6677 2.48038)
(-2.66839e-14 76.6677 2.48038)
(0 74.5739 2.45797)
(0 74.5739 2.45797)
(2.91816e-14 72.5537 2.4363)
(-2.33453e-13 72.5537 2.4363)
(2.93536e-14 70.6037 2.41533)
(0 70.6037 2.41533)
(0 68.7207 2.39506)
(1.18096e-13 68.7207 2.39506)
(7.83469e-14 66.9018 2.37543)
(1.18772e-13 66.9018 2.37543)
(-1.19583e-14 65.1442 2.35644)
(0 65.1442 2.35644)
(-6.00528e-14 63.4451 2.33805)
(1.20106e-13 63.4451 2.33805)
(-1.58369e-14 61.8022 2.32024)
(2.87557e-13 61.8022 2.32024)
(-3.03545e-14 60.2129 2.30299)
(0 60.2129 2.30299)
(-6.10333e-14 58.6752 2.28627)
(1.22067e-13 58.6752 2.28627)
(-3.06775e-14 57.1867 2.27006)
(1.2271e-13 57.1867 2.27006)
(-4.27458e-14 55.7456 2.25436)
(-4.27458e-14 55.7456 2.25436)
(3.09958e-14 54.3498 2.23913)
(1.23983e-13 54.3498 2.23913)
(3.11532e-14 52.9976 2.22436)
(1.24613e-13 52.9976 2.22436)
(-3.13095e-14 51.6872 2.21003)
(1.25238e-13 51.6872 2.21003)
(3.14648e-14 50.417 2.19613)
(0 50.417 2.19613)
(-3.16191e-14 49.1854 2.18264)
(8.7506e-14 49.1854 2.18264)
(3.17723e-14 47.991 2.16954)
(0 47.991 2.16954)
(5.63045e-15 46.8322 2.15683)
(9.01434e-14 46.8322 2.15683)
(3.2076e-14 45.7078 2.14449)
(9.14371e-14 45.7078 2.14449)
(3.61913e-14 44.6164 2.13251)
(9.27146e-14 44.6164 2.13251)
(0 43.5568 2.12087)
(-1.65032e-13 43.5568 2.12087)
(0 42.528 2.10956)
(1.30099e-13 42.528 2.10956)
(-3.26727e-14 41.5286 2.09857)
(0 41.5286 2.09857)
(-3.28198e-14 40.5577 2.0879)
(1.31279e-13 40.5577 2.0879)
(0 39.6143 2.07752)
(0 39.6143 2.07752)
(0 38.6974 2.06744)
(0 38.6974 2.06744)
(3.32565e-14 37.8059 2.05763)
(1.33026e-13 37.8059 2.05763)
(-2.90271e-14 36.9392 2.0481)
(1.33602e-13 36.9392 2.0481)
(0 36.0962 2.03883)
(1.34176e-13 36.0962 2.03883)
(-6.73734e-14 35.2763 2.02982)
(1.34747e-13 35.2763 2.02982)
(3.38288e-14 34.4785 2.02105)
(1.35315e-13 34.4785 2.02105)
(2.8988e-14 33.7022 2.01253)
(-1.64869e-13 33.7022 2.01253)
(0 32.9466 2.00423)
(-2.84568e-14 32.9466 2.00423)
(-6.85024e-14 32.211 1.99616)
(0 32.211 1.99616)
(2.04562e-14 31.4948 1.9883)
(-5.48469e-14 31.4948 1.9883)
(-5.38419e-14 30.7974 1.98066)
(-1.38119e-13 30.7974 1.98066)
(6.93366e-14 30.1181 1.97321)
(0 30.1181 1.97321)
(1.77257e-14 29.4564 1.96597)
(1.39225e-13 29.4564 1.96597)
(-3.49436e-14 28.8117 1.95892)
(1.39774e-13 28.8117 1.95892)
(1.20163e-13 28.1834 1.95205)
(-5.00025e-14 28.1834 1.95205)
(3.52169e-14 27.5711 1.94537)
(1.40867e-13 27.5711 1.94537)
(-3.53528e-14 26.9742 1.93885)
(-4.81867e-14 26.9742 1.93885)
(0 26.3922 1.93251)
(2.83905e-13 26.3922 1.93251)
(-3.56231e-14 25.8248 1.92633)
(0 25.8248 1.92633)
(0 25.2714 1.92031)
(2.86061e-13 25.2714 1.92031)
(-3.58917e-14 24.7316 1.91444)
(0 24.7316 1.91444)
(0 24.2051 1.90873)
(1.44101e-13 24.2051 1.90873)
(3.61585e-14 23.6913 1.90315)
(2.89268e-13 23.6913 1.90315)
(-3.62913e-14 23.19 1.89772)
(1.45165e-13 23.19 1.89772)
(-5.13576e-15 22.7008 1.89242)
(1.04136e-13 22.7008 1.89242)
(-3.23136e-14 22.2233 1.88725)
(1.05425e-13 22.2233 1.88725)
(-4.00503e-14 21.7571 1.88221)
(2.935e-13 21.7571 1.88221)
(0 21.302 1.8773)
(1.07959e-13 21.302 1.8773)
(-3.69497e-14 20.8576 1.8725)
(0 20.8576 1.8725)
(7.4969e-14 20.4236 1.86781)
(-3.78887e-14 20.4236 1.86781)
(3.71944e-14 19.9997 1.86324)
(-3.71944e-14 19.9997 1.86324)
(-3.73404e-14 19.5857 1.85878)
(-3.65128e-14 19.5857 1.85878)
(-1.62622e-15 19.1812 1.85442)
(-1.85724e-13 19.1812 1.85442)
(-3.75992e-14 18.786 1.85015)
(3.00794e-13 18.786 1.85015)
(0 18.3997 1.84599)
(1.50913e-13 18.3997 1.84599)
(-3.78569e-14 18.0223 1.84191)
(1.17518e-13 18.0223 1.84191)
(0 17.6534 1.83793)
(1.51941e-13 17.6534 1.83793)
(-3.81133e-14 17.2928 1.83403)
(1.52453e-13 17.2928 1.83403)
(0 16.9402 1.83021)
(1.52964e-13 16.9402 1.83021)
(-3.83686e-14 16.5955 1.82647)
(0 16.5955 1.82647)
(-3.84958e-14 16.2584 1.82281)
(0 16.2584 1.82281)
(-3.86228e-14 15.9287 1.81922)
(0 15.9287 1.81922)
(-2.08334e-14 15.6063 1.81569)
(-1.54998e-13 15.6063 1.81569)
(0 15.2909 1.81223)
(0 15.2909 1.81223)
(0 14.9823 1.80884)
(0 14.9823 1.80884)
(9.54953e-14 14.6804 1.8055)
(0 14.6804 1.8055)
(-9.45882e-14 14.385 1.80222)
(1.57016e-13 14.385 1.80222)
(-3.93795e-14 14.0959 1.79898)
(1.57518e-13 14.0959 1.79898)
(-3.95047e-14 13.8129 1.7958)
(0 13.8129 1.7958)
(0 13.5359 1.79266)
(1.58519e-13 13.5359 1.79266)
(-3.97546e-14 13.2648 1.78956)
(-1.59018e-13 13.2648 1.78956)
(3.98792e-14 12.9993 1.7865)
(1.59517e-13 12.9993 1.7865)
(4.00036e-14 12.7394 1.78347)
(1.60014e-13 12.7394 1.78347)
(4.01277e-14 12.4849 1.78048)
(0 12.4849 1.78048)
(-4.7724e-14 12.2356 1.77751)
(2.08731e-13 12.2356 1.77751)
(-4.03755e-14 11.9914 1.77457)
(0 11.9914 1.77457)
(4.5991e-14 11.7522 1.77164)
(1.61996e-13 11.7522 1.77164)
(-4.06223e-14 11.5179 1.76873)
(0 11.5179 1.76873)
(0 11.2883 1.76584)
(0 11.2883 1.76584)
(0 11.0633 1.76295)
(1.63474e-13 11.0633 1.76295)
(0 10.8428 1.76007)
(1.63964e-13 10.8428 1.76007)
(-4.11136e-14 10.6267 1.75718)
(0 10.6267 1.75718)
(-4.1236e-14 10.4148 1.75429)
(0 10.4148 1.75429)
(-8.17643e-14 10.2072 1.7514)
(4.04062e-14 10.2072 1.7514)
(4.32944e-14 10.0035 1.74849)
(1.26254e-13 10.0035 1.74849)
(-8.58665e-14 9.80385 1.74557)
(1.66407e-13 9.80385 1.74557)
(-3.82253e-14 9.60803 1.74262)
(1.66893e-13 9.60803 1.74262)
(-4.18446e-14 9.41596 1.73965)
(-3.75249e-14 9.41596 1.73965)
(-7.8803e-14 9.22755 1.73664)
(0 9.22755 1.73664)
(0 9.04271 1.7336)
(0 9.04271 1.7336)
(0 8.86135 1.73052)
(1.6883e-13 8.86135 1.73052)
(-4.23279e-14 8.68337 1.72739)
(-1.69312e-13 8.68337 1.72739)
(0 8.50869 1.72421)
(0 8.50869 1.72421)
(-4.25683e-14 8.33723 1.72097)
(-4.07714e-13 8.33723 1.72097)
(-1.08624e-13 8.1689 1.71766)
(0 8.1689 1.71766)
(0 8.00363 1.71429)
(0 8.00363 1.71429)
(0 7.84133 1.71083)
(1.08167e-13 7.84133 1.71083)
(-8.6093e-14 7.68193 1.7073)
(3.44372e-13 7.68193 1.7073)
(0 7.52535 1.70367)
(1.72662e-13 7.52535 1.70367)
(-4.32842e-14 7.37151 1.69994)
(0 7.37151 1.69994)
(0 7.22035 1.6961)
(-1.73611e-13 7.22035 1.6961)
(-4.35209e-14 7.0718 1.69215)
(0 7.0718 1.69215)
(0 6.92577 1.68808)
(1.74556e-13 6.92577 1.68808)
(0 6.78221 1.68387)
(1.75026e-13 6.78221 1.68387)
(4.38741e-14 6.64104 1.67953)
(3.50993e-13 6.64104 1.67953)
(4.39912e-14 6.50221 1.67503)
(1.75965e-13 6.50221 1.67503)
(0 6.36563 1.67037)
(1.76432e-13 6.36563 1.67037)
(4.42247e-14 6.23126 1.66554)
(1.76899e-13 6.23126 1.66554)
(-4.43409e-14 6.09902 1.66052)
(3.54728e-13 6.09902 1.66052)
(-4.44569e-14 5.96886 1.65531)
(-1.77828e-13 5.96886 1.65531)
(0 5.8407 1.64989)
(9.80935e-14 5.8407 1.64989)
(3.46019e-15 5.71449 1.64425)
(-4.8148e-14 5.71449 1.64425)
(-8.96054e-14 5.59017 1.63838)
(-9.45313e-14 5.59017 1.63838)
(-4.49172e-14 5.46768 1.63225)
(1.79669e-13 5.46768 1.63225)
(9.10986e-14 5.34695 1.62587)
(-9.10986e-14 5.34695 1.62587)
(-4.51451e-14 5.22793 1.61919)
(0 5.22793 1.61919)
(-4.38952e-14 5.11056 1.61222)
(-4.38952e-14 5.11056 1.61222)
(2.28045e-15 4.99477 1.60493)
(4.06061e-13 4.99477 1.60493)
(9.09675e-14 4.88052 1.5973)
(-2.66537e-13 4.88052 1.5973)
(9.11913e-14 4.76773 1.58932)
(0 4.76773 1.58932)
(9.14142e-14 4.65634 1.58095)
(3.65657e-13 4.65634 1.58095)
(4.5818e-14 4.54631 1.57218)
(1.43254e-13 4.54631 1.57218)
(4.59284e-14 4.43756 1.56297)
(1.83714e-13 4.43756 1.56297)
(-4.60382e-14 4.33004 1.55331)
(1.84153e-13 4.33004 1.55331)
(-4.61474e-14 4.22368 1.54316)
(0 4.22368 1.54316)
(0 4.11842 1.5325)
(1.85024e-13 4.11842 1.5325)
(-9.27277e-14 4.01419 1.52128)
(1.12488e-13 4.01419 1.52128)
(-4.6471e-14 3.91093 1.50947)
(0 3.91093 1.50947)
(0 3.80856 1.49704)
(3.7262e-13 3.80856 1.49704)
(0 3.70703 1.48394)
(-6.90287e-14 3.70703 1.48394)
(4.67881e-14 3.60626 1.47013)
(-1.87152e-13 3.60626 1.47013)
(-1.96299e-14 3.50617 1.45555)
(6.6522e-14 3.50617 1.45555)
(-2.86875e-14 3.40668 1.44017)
(0 3.40668 1.44017)
(3.00885e-14 3.30771 1.42391)
(-6.41064e-14 3.30771 1.42391)
(0 3.20919 1.40672)
(1.88795e-13 3.20919 1.40672)
(0 3.11101 1.38852)
(1.89195e-13 3.11101 1.38852)
(4.73978e-14 3.01309 1.36926)
(1.89591e-13 3.01309 1.36926)
(0 2.91532 1.34883)
(-2.49518e-13 2.91532 1.34883)
(1.08518e-14 2.8176 1.32717)
(-5.84441e-14 2.8176 1.32717)
(-4.76875e-14 2.71982 1.30417)
(1.9075e-13 2.71982 1.30417)
(0 2.62186 1.27973)
(1.91126e-13 2.62186 1.27973)
(7.41586e-15 2.52359 1.25373)
(-1.91495e-13 2.52359 1.25373)
(4.79646e-14 2.42488 1.22605)
(3.83717e-13 2.42488 1.22605)
(0 2.32557 1.19655)
(1.92215e-13 2.32557 1.19655)
(-4.81412e-14 2.22552 1.16507)
(0 2.22552 1.16507)
(-3.12033e-15 2.12455 1.13146)
(2.44254e-13 2.12455 1.13146)
(5.25021e-14 2.02248 1.09552)
(1.93241e-13 2.02248 1.09552)
(-4.83916e-14 1.91912 1.05706)
(1.93566e-13 1.91912 1.05706)
(4.85757e-14 1.81428 1.01587)
(0 1.81428 1.01587)
(4.85473e-14 1.70773 0.971702)
(9.53712e-14 1.70773 0.971702)
(-1.90866e-13 1.59925 0.924309)
(2.88109e-13 1.59925 0.924309)
(0 1.48861 0.873419)
(9.19079e-14 1.48861 0.873419)
(0 1.37557 0.818745)
(9.02237e-14 1.37557 0.818745)
(4.54043e-15 1.2599 0.759986)
(2.39588e-13 1.2599 0.759986)
(-5.41344e-15 1.14137 0.696833)
(1.95548e-13 1.14137 0.696833)
(-1.34299e-13 1.01976 0.628975)
(0 1.01976 0.628975)
(0 0.894905 0.556107)
(0 0.894905 0.556107)
(0 0.766643 0.47794)
(-1.96192e-13 0.766643 0.47794)
(-4.90929e-14 0.634884 0.394211)
(0 0.634884 0.394211)
(-9.49884e-15 0.499598 0.304698)
(1.96531e-13 0.499598 0.304698)
(0 0.360827 0.209228)
(1.96668e-13 0.360827 0.209228)
(2.71935e-14 0.218696 0.107682)
(-7.63891e-14 0.218696 0.107682)
(-1.24207e-13 3.33291e-07 1.2336e-07)
(4.68844e-13 3.3358e-07 1.23467e-07)
(4.57698e-16 874.932 -1.61918)
(-4.57698e-16 874.932 -1.61918)
(-8.98622e-16 874.93 -4.88776)
(0 874.93 -4.88776)
(-3.97994e-16 874.925 -6.78343)
(0 874.925 -6.78343)
(6.52134e-16 874.915 -6.90994)
(0 874.915 -6.90994)
(-2.22749e-15 874.891 -7.03866)
(0 874.891 -7.03866)
(4.92217e-15 874.837 -7.16943)
(-3.33817e-15 874.837 -7.16943)
(-3.277e-15 874.722 -7.30196)
(-3.277e-15 874.722 -7.30196)
(5.10242e-15 874.491 -7.43566)
(0 874.491 -7.43566)
(-9.36457e-15 874.061 -7.56966)
(1.21943e-14 874.061 -7.56966)
(3.55537e-15 873.309 -7.70259)
(-1.42215e-14 873.309 -7.70259)
(8.14361e-15 872.066 -7.83255)
(-2.23739e-14 872.066 -7.83255)
(4.59803e-15 870.109 -7.95699)
(0 870.109 -7.95699)
(-5.1341e-15 867.16 -8.07268)
(-2.05364e-14 867.16 -8.07268)
(1.15163e-14 862.894 -8.17575)
(-3.42361e-14 862.894 -8.17575)
(6.2353e-15 856.955 -8.26189)
(-2.49412e-14 856.955 -8.26189)
(-1.10981e-14 848.983 -8.32663)
(0 848.983 -8.32663)
(1.82667e-14 838.655 -8.36573)
(-4.03825e-14 838.655 -8.36573)
(7.95106e-15 825.719 -8.37568)
(3.18043e-14 825.719 -8.37568)
(8.53523e-15 810.041 -8.35412)
(0 810.041 -8.35412)
(2.85515e-14 791.624 -8.3002)
(-1.03067e-14 791.624 -8.3002)
(9.71022e-15 770.622 -8.21462)
(2.87231e-14 770.622 -8.21462)
(1.02962e-14 747.325 -8.09962)
(4.11847e-14 747.325 -8.09962)
(-1.08778e-14 722.13 -7.95862)
(0 722.13 -7.95862)
(4.20487e-14 695.498 -7.79586)
(-1.91435e-14 695.498 -7.79586)
(1.20185e-14 667.912 -7.61597)
(0 667.912 -7.61597)
(0 639.841 -7.42357)
(1.84483e-14 639.841 -7.42357)
(-1.81102e-14 611.707 -7.22296)
(-1.81102e-14 611.707 -7.22296)
(2.72925e-14 583.873 -7.01798)
(0 583.873 -7.01798)
(1.41618e-14 556.63 -6.81186)
(5.66474e-14 556.63 -6.81186)
(2.93258e-14 530.203 -6.60724)
(0 530.203 -6.60724)
(1.51493e-14 504.752 -6.40616)
(0 504.752 -6.40616)
(1.5621e-14 480.384 -6.21016)
(0 480.384 -6.21016)
(1.60783e-14 457.16 -6.02037)
(-6.4313e-14 457.16 -6.02037)
(1.59111e-14 435.108 -5.8375)
(-8.19966e-14 435.108 -5.8375)
(0 414.226 -5.66202)
(0 414.226 -5.66202)
(3.27002e-14 394.494 -5.49415)
(-8.48012e-14 394.494 -5.49415)
(5.43629e-15 375.875 -5.33394)
(0 375.875 -5.33394)
(-1.81617e-14 358.326 -5.18132)
(-7.26469e-14 358.326 -5.18132)
(-1.85414e-14 341.796 -5.03611)
(-1.48331e-13 341.796 -5.03611)
(-1.891e-14 326.231 -4.89809)
(0 326.231 -4.89809)
(-1.92681e-14 311.576 -4.76698)
(0 311.576 -4.76698)
(-1.96161e-14 297.776 -4.64247)
(-1.56929e-13 297.776 -4.64247)
(3.99094e-14 284.778 -4.52426)
(0 284.778 -4.52426)
(2.02842e-14 272.53 -4.41201)
(-8.11368e-14 272.53 -4.41201)
(4.12103e-14 260.984 -4.30542)
(5.64563e-14 260.984 -4.30542)
(4.64064e-14 250.092 -4.20417)
(-8.36717e-14 250.092 -4.20417)
(-4.2446e-14 239.811 -4.10796)
(-8.4892e-14 239.811 -4.10796)
(4.30415e-14 230.101 -4.0165)
(8.6083e-14 230.101 -4.0165)
(0 220.922 -3.92951)
(0 220.922 -3.92951)
(1.57525e-15 212.24 -3.84674)
(-2.00436e-13 212.24 -3.84674)
(2.23735e-14 204.021 -3.76793)
(-8.94941e-14 204.021 -3.76793)
(-2.29773e-14 196.235 -3.69286)
(4.56227e-14 196.235 -3.69286)
(0 188.853 -3.62131)
(-1.83293e-13 188.853 -3.62131)
(2.31723e-14 181.848 -3.55307)
(0 181.848 -3.55307)
(4.68558e-14 175.197 -3.48795)
(0 175.197 -3.48795)
(0 168.876 -3.42576)
(-1.15899e-13 168.876 -3.42576)
(3.12802e-15 162.866 -3.36635)
(0 162.866 -3.36635)
(6.49968e-14 157.146 -3.30956)
(-1.37495e-13 157.146 -3.30956)
(0 151.698 -3.25523)
(-9.76127e-14 151.698 -3.25523)
(0 146.506 -3.20323)
(-9.8545e-14 146.506 -3.20323)
(2.48654e-14 141.554 -3.15344)
(0 141.554 -3.15344)
(0 136.828 -3.10572)
(-3.79192e-14 136.828 -3.10572)
(2.53127e-14 132.315 -3.05998)
(0 132.315 -3.05998)
(2.55311e-14 128.002 -3.0161)
(-3.65423e-14 128.002 -3.0161)
(0 123.878 -2.974)
(-1.02985e-13 123.878 -2.974)
(0 119.932 -2.93356)
(0 119.932 -2.93356)
(2.61672e-14 116.154 -2.89472)
(-1.04669e-13 116.154 -2.89472)
(0 112.535 -2.85738)
(-1.05493e-13 112.535 -2.85738)
(0 109.066 -2.82148)
(0 109.066 -2.82148)
(-5.94812e-14 105.74 -2.78694)
(2.46921e-13 105.74 -2.78694)
(0 102.547 -2.75369)
(0 102.547 -2.75369)
(5.86871e-14 99.4822 -2.72168)
(-1.40199e-13 99.4822 -2.72168)
(2.73637e-14 96.5381 -2.69084)
(-1.09455e-13 96.5381 -2.69084)
(3.0372e-14 93.7086 -2.66112)
(-2.20436e-13 93.7086 -2.66112)
(3.18878e-14 90.9879 -2.63247)
(-5.9631e-14 90.9879 -2.63247)
(5.85383e-14 88.3707 -2.60483)
(0 88.3707 -2.60483)
(0 85.8518 -2.57817)
(1.12457e-13 85.8518 -2.57817)
(-9.03352e-17 83.4264 -2.55243)
(-4.80952e-13 83.4264 -2.55243)
(5.69543e-14 81.09 -2.52758)
(-1.13909e-13 81.09 -2.52758)
(-2.86559e-14 78.8384 -2.50358)
(0 78.8384 -2.50358)
(-2.88328e-14 76.6677 -2.48038)
(-1.15331e-13 76.6677 -2.48038)
(-3.18211e-14 74.5739 -2.45797)
(-1.42227e-13 74.5739 -2.45797)
(2.22482e-14 72.5537 -2.4363)
(-2.84883e-13 72.5537 -2.4363)
(5.87071e-14 70.6037 -2.41533)
(-1.17414e-13 70.6037 -2.41533)
(2.9524e-14 68.7207 -2.39506)
(1.18096e-13 68.7207 -2.39506)
(0 66.9018 -2.37543)
(1.18772e-13 66.9018 -2.37543)
(-1.79021e-14 65.1442 -2.35644)
(-1.19441e-13 65.1442 -2.35644)
(-1.0694e-13 63.4451 -2.33805)
(7.32184e-14 63.4451 -2.33805)
(3.01911e-14 61.8022 -2.32024)
(-4.6028e-14 61.8022 -2.32024)
(1.483e-14 60.2129 -2.30299)
(0 60.2129 -2.30299)
(4.43566e-14 58.6752 -2.28627)
(-4.43566e-14 58.6752 -2.28627)
(3.06775e-14 57.1867 -2.27006)
(1.2271e-13 57.1867 -2.27006)
(8.54916e-14 55.7456 -2.25436)
(-1.23349e-13 55.7456 -2.25436)
(0 54.3498 -2.23913)
(-4.19625e-14 54.3498 -2.23913)
(3.11532e-14 52.9976 -2.22436)
(8.34192e-14 52.9976 -2.22436)
(0 51.6872 -2.21003)
(0 51.6872 -2.21003)
(0 50.417 -2.19613)
(-2.51718e-13 50.417 -2.19613)
(3.89702e-14 49.1854 -2.18264)
(-3.89702e-14 49.1854 -2.18264)
(3.17723e-14 47.991 -2.16954)
(-1.27089e-13 47.991 -2.16954)
(6.94797e-14 46.8322 -2.15683)
(-3.75551e-14 46.8322 -2.15683)
(3.2076e-14 45.7078 -2.14449)
(2.93475e-13 45.7078 -2.14449)
(3.22265e-14 44.6164 -2.13251)
(0 44.6164 -2.13251)
(3.23761e-14 43.5568 -2.12087)
(-1.65032e-13 43.5568 -2.12087)
(-2.35229e-15 42.528 -2.10956)
(1.30099e-13 42.528 -2.10956)
(0 41.5286 -2.09857)
(0 41.5286 -2.09857)
(-3.28198e-14 40.5577 -2.0879)
(-1.31279e-13 40.5577 -2.0879)
(0 39.6143 -2.07752)
(-3.29947e-14 39.6143 -2.07752)
(0 38.6974 -2.06744)
(-3.23901e-14 38.6974 -2.06744)
(0 37.8059 -2.05763)
(0 37.8059 -2.05763)
(3.12139e-14 36.9392 -2.0481)
(-1.64816e-13 36.9392 -2.0481)
(-6.12837e-14 36.0962 -2.03883)
(-3.06419e-14 36.0962 -2.03883)
(6.01607e-14 35.2763 -2.02982)
(-6.01607e-14 35.2763 -2.02982)
(3.38288e-14 34.4785 -2.02105)
(-2.95292e-14 34.4785 -2.02105)
(-3.39702e-14 33.7022 -2.01253)
(0 33.7022 -2.01253)
(-3.4111e-14 32.9466 -2.00423)
(-5.69137e-14 32.9466 -2.00423)
(3.42512e-14 32.211 -1.99616)
(-2.79354e-14 32.211 -1.99616)
(0 31.4948 -1.9883)
(0 31.4948 -1.9883)
(-1.52177e-14 30.7974 -1.98066)
(-2.76239e-13 30.7974 -1.98066)
(0 30.1181 -1.97321)
(0 30.1181 -1.97321)
(3.48062e-14 29.4564 -1.96597)
(0 29.4564 -1.96597)
(-5.09359e-14 28.8117 -1.95892)
(1.39774e-13 28.8117 -1.95892)
(0 28.1834 -1.95205)
(-1.90324e-13 28.1834 -1.95205)
(0 27.5711 -1.94537)
(-1.40867e-13 27.5711 -1.94537)
(1.2834e-14 26.9742 -1.93885)
(-1.89598e-13 26.9742 -1.93885)
(0 26.3922 -1.93251)
(9.46489e-14 26.3922 -1.93251)
(3.56231e-14 25.8248 -1.92633)
(0 25.8248 -1.92633)
(7.15152e-14 25.2714 -1.92031)
(1.4303e-13 25.2714 -1.92031)
(-3.58917e-14 24.7316 -1.91444)
(1.43567e-13 24.7316 -1.91444)
(-4.39306e-14 24.2051 -1.90873)
(-4.39306e-14 24.2051 -1.90873)
(7.92841e-14 23.6913 -1.90315)
(-4.31256e-14 23.6913 -1.90315)
(3.62913e-14 23.19 -1.89772)
(1.45165e-13 23.19 -1.89772)
(7.79833e-14 22.7008 -1.89242)
(1.04136e-13 22.7008 -1.89242)
(3.65558e-14 22.2233 -1.88725)
(0 22.2233 -1.88725)
(4.00503e-14 21.7571 -1.88221)
(-1.4675e-13 21.7571 -1.88221)
(7.61352e-14 21.302 -1.8773)
(-3.93164e-14 21.302 -1.8773)
(4.02423e-14 20.8576 -1.8725)
(-3.8596e-14 20.8576 -1.8725)
(0 20.4236 -1.86781)
(0 20.4236 -1.86781)
(1.6068e-17 19.9997 -1.86324)
(0 19.9997 -1.86324)
(7.46808e-14 19.5857 -1.85878)
(3.65128e-14 19.5857 -1.85878)
(0 19.1812 -1.85442)
(3.58438e-14 19.1812 -1.85442)
(7.27862e-14 18.786 -1.85015)
(3.00794e-13 18.786 -1.85015)
(0 18.3997 -1.84599)
(0 18.3997 -1.84599)
(-1.05675e-13 18.0223 -1.84191)
(0 18.0223 -1.84191)
(-3.79852e-14 17.6534 -1.83793)
(0 17.6534 -1.83793)
(0 17.2928 -1.83403)
(0 17.2928 -1.83403)
(3.82411e-14 16.9402 -1.83021)
(0 16.9402 -1.83021)
(6.29823e-14 16.5955 -1.82647)
(0 16.5955 -1.82647)
(7.69917e-14 16.2584 -1.82281)
(-1.53983e-13 16.2584 -1.82281)
(7.72457e-14 15.9287 -1.81922)
(-1.54491e-13 15.9287 -1.81922)
(2.08334e-14 15.6063 -1.81569)
(-4.64995e-13 15.6063 -1.81569)
(1.96151e-14 15.2909 -1.81223)
(-5.84911e-14 15.2909 -1.81223)
(0 14.9823 -1.80884)
(9.85896e-14 14.9823 -1.80884)
(0 14.6804 -1.8055)
(-5.63671e-14 14.6804 -1.8055)
(3.9254e-14 14.385 -1.80222)
(0 14.385 -1.80222)
(-3.93795e-14 14.0959 -1.79898)
(-1.57518e-13 14.0959 -1.79898)
(0 13.8129 -1.7958)
(0 13.8129 -1.7958)
(9.19774e-14 13.5359 -1.79266)
(1.58519e-13 13.5359 -1.79266)
(7.95092e-14 13.2648 -1.78956)
(-1.59018e-13 13.2648 -1.78956)
(0 12.9993 -1.7865)
(-2.09964e-13 12.9993 -1.7865)
(4.00036e-14 12.7394 -1.78347)
(0 12.7394 -1.78347)
(-4.86148e-14 12.4849 -1.78048)
(-1.60511e-13 12.4849 -1.78048)
(0 12.2356 -1.77751)
(-3.22014e-13 12.2356 -1.77751)
(-4.68495e-14 11.9914 -1.77457)
(0 11.9914 -1.77457)
(8.0998e-14 11.7522 -1.77164)
(1.61996e-13 11.7522 -1.77164)
(4.06223e-14 11.5179 -1.76873)
(0 11.5179 -1.76873)
(0 11.2883 -1.76584)
(1.62982e-13 11.2883 -1.76584)
(8.43771e-14 11.0633 -1.76295)
(-2.06982e-13 11.0633 -1.76295)
(4.27114e-14 10.8428 -1.76007)
(-2.06676e-13 10.8428 -1.76007)
(0 10.6267 -1.75718)
(0 10.6267 -1.75718)
(4.1236e-14 10.4148 -1.75429)
(-1.64944e-13 10.4148 -1.75429)
(8.27162e-14 10.2072 -1.7514)
(-1.65432e-13 10.2072 -1.7514)
(8.11458e-14 10.0035 -1.74849)
(1.26254e-13 10.0035 -1.74849)
(4.42647e-14 9.80385 -1.74557)
(1.66407e-13 9.80385 -1.74557)
(4.17233e-14 9.60803 -1.74262)
(0 9.60803 -1.74262)
(-4.31978e-15 9.41596 -1.73965)
(0 9.41596 -1.73965)
(4.19658e-14 9.22755 -1.73664)
(-1.67863e-13 9.22755 -1.73664)
(4.20867e-14 9.04271 -1.7336)
(1.68347e-13 9.04271 -1.7336)
(1.19914e-13 8.86135 -1.73052)
(-3.54995e-14 8.86135 -1.73052)
(0 8.68337 -1.72739)
(1.69312e-13 8.68337 -1.72739)
(-4.24482e-14 8.50869 -1.72421)
(-2.38214e-13 8.50869 -1.72421)
(8.51366e-14 8.33723 -1.72097)
(-1.70273e-13 8.33723 -1.72097)
(-4.26882e-14 8.1689 -1.71766)
(-3.41506e-13 8.1689 -1.71766)
(4.28078e-14 8.00363 -1.71429)
(-2.35959e-13 8.00363 -1.71429)
(-6.35418e-14 7.84133 -1.71083)
(1.71709e-13 7.84133 -1.71083)
(2.37155e-14 7.68193 -1.7073)
(1.72186e-13 7.68193 -1.7073)
(1.044e-13 7.52535 -1.70367)
(-2.33896e-13 7.52535 -1.70367)
(-1.68281e-14 7.37151 -1.69994)
(0 7.37151 -1.69994)
(0 7.22035 -1.6961)
(-2.32621e-13 7.22035 -1.6961)
(0 7.0718 -1.69215)
(-1.74084e-13 7.0718 -1.69215)
(5.68679e-14 6.92577 -1.68808)
(-2.31423e-13 6.92577 -1.68808)
(5.58258e-14 6.78221 -1.68387)
(0 6.78221 -1.68387)
(4.38741e-14 6.64104 -1.67953)
(0 6.64104 -1.67953)
(4.39912e-14 6.50221 -1.67503)
(1.75965e-13 6.50221 -1.67503)
(4.41081e-14 6.36563 -1.67037)
(-5.28127e-14 6.36563 -1.67037)
(0 6.23126 -1.66554)
(1.76899e-13 6.23126 -1.66554)
(0 6.09902 -1.66052)
(0 6.09902 -1.66052)
(0 5.96886 -1.65531)
(-1.77828e-13 5.96886 -1.65531)
(0 5.8407 -1.64989)
(-4.90467e-14 5.8407 -1.64989)
(-4.46878e-14 5.71449 -1.64425)
(0 5.71449 -1.64425)
(-4.48027e-14 5.59017 -1.63838)
(-1.79211e-13 5.59017 -1.63838)
(1.48233e-15 5.46768 -1.63225)
(-2.26068e-13 5.46768 -1.63225)
(9.10986e-14 5.34695 -1.62587)
(-9.10986e-14 5.34695 -1.62587)
(8.94292e-14 5.22793 -1.61919)
(-4.5059e-13 5.22793 -1.61919)
(0 5.11056 -1.61222)
(-2.68824e-13 5.11056 -1.61222)
(0 4.99477 -1.60493)
(0 4.99477 -1.60493)
(0 4.88052 -1.5973)
(-2.24236e-13 4.88052 -1.5973)
(3.74565e-14 4.76773 -1.58932)
(-4.15261e-14 4.76773 -1.58932)
(5.06491e-14 4.65634 -1.58095)
(1.82828e-13 4.65634 -1.58095)
(9.16361e-14 4.54631 -1.57218)
(0 4.54631 -1.57218)
(1.31142e-13 4.43756 -1.56297)
(-2.22998e-13 4.43756 -1.56297)
(8.46031e-14 4.33004 -1.55331)
(0 4.33004 -1.55331)
(-4.61474e-14 4.22368 -1.54316)
(-7.57164e-14 4.22368 -1.54316)
(0 4.11842 -1.5325)
(1.85024e-13 4.11842 -1.5325)
(-4.63638e-14 4.01419 -1.52128)
(1.12488e-13 4.01419 -1.52128)
(0 3.91093 -1.50947)
(-2.57514e-13 3.91093 -1.50947)
(0 3.80856 -1.49704)
(-2.56627e-13 3.80856 -1.49704)
(-1.15712e-13 3.70703 -1.48394)
(-1.86733e-13 3.70703 -1.48394)
(9.35762e-14 3.60626 -1.47013)
(-1.87152e-13 3.60626 -1.47013)
(-1.96299e-14 3.50617 -1.45555)
(6.6522e-14 3.50617 -1.45555)
(-6.5303e-14 3.40668 -1.44017)
(1.22678e-13 3.40668 -1.44017)
(0 3.30771 -1.42391)
(0 3.30771 -1.42391)
(0 3.20919 -1.40672)
(-2.51726e-13 3.20919 -1.40672)
(6.17784e-14 3.11101 -1.38852)
(-6.17784e-14 3.11101 -1.38852)
(-1.32486e-14 3.01309 -1.36926)
(1.28945e-13 3.01309 -1.36926)
(1.66566e-13 2.91532 -1.34883)
(-4.99035e-13 2.91532 -1.34883)
(1.16888e-13 2.8176 -1.32717)
(-1.16888e-13 2.8176 -1.32717)
(-9.68558e-15 2.71982 -1.30417)
(0 2.71982 -1.30417)
(4.77814e-14 2.62186 -1.27973)
(-2.47447e-13 2.62186 -1.27973)
(-1.03163e-13 2.52359 -1.25373)
(1.91495e-13 2.52359 -1.25373)
(4.16528e-14 2.42488 -1.22605)
(1.91859e-13 2.42488 -1.22605)
(4.28257e-14 2.32557 -1.19655)
(0 2.32557 -1.19655)
(-4.16432e-15 2.22552 -1.16507)
(-5.23055e-14 2.22552 -1.16507)
(4.82267e-14 2.12455 -1.13146)
(0 2.12455 -1.13146)
(-2.09592e-15 2.02248 -1.09552)
(-2.43647e-13 2.02248 -1.09552)
(4.83916e-14 1.91912 -1.05706)
(1.93566e-13 1.91912 -1.05706)
(0 1.81428 -1.01587)
(-1.93883e-13 1.81428 -1.01587)
(4.85473e-14 1.70773 -0.971702)
(-1.94189e-13 1.70773 -0.971702)
(9.5433e-14 1.59925 -0.924309)
(0 1.59925 -0.924309)
(4.59539e-14 1.48861 -0.873419)
(1.9477e-13 1.48861 -0.873419)
(0 1.37557 -0.818745)
(-3.90085e-13 1.37557 -0.818745)
(-8.85704e-14 1.2599 -0.759986)
(-1.06732e-13 1.2599 -0.759986)
(4.88871e-14 1.14137 -0.696833)
(-1.95548e-13 1.14137 -0.696833)
(4.89449e-14 1.01976 -0.628975)
(1.9578e-13 1.01976 -0.628975)
(1.32789e-13 0.894905 -0.556107)
(-4.75779e-13 0.894905 -0.556107)
(1.80351e-13 0.766643 -0.47794)
(-2.78447e-13 0.766643 -0.47794)
(0 0.634884 -0.394211)
(0 0.634884 -0.394211)
(-4.91326e-14 0.499598 -0.304698)
(1.56897e-13 0.499598 -0.304698)
(7.78151e-14 0.360827 -0.209228)
(-2.74483e-13 0.360827 -0.209228)
(-4.91956e-14 0.218696 -0.107682)
(1.20393e-13 0.218696 -0.107682)
(4.92181e-14 3.32833e-07 -1.2319e-07)
(1.97092e-13 3.33313e-07 -1.23368e-07)
(4.92731e-14 -2.65508e-07 9.82742e-08)
(2.71862e-13 -1.71161e-07 6.33513e-08)
(-7.63891e-14 -0.218696 0.107681)
(3.93565e-13 -0.218696 0.107681)
(-4.9167e-14 -0.360827 0.209228)
(-7.78151e-14 -0.360827 0.209228)
(0 -0.499597 0.304698)
(1.96531e-13 -0.499597 0.304698)
(0 -0.634884 0.394211)
(3.92743e-13 -0.634884 0.394211)
(-4.90481e-14 -0.766643 0.477939)
(-1.96192e-13 -0.766643 0.477939)
(0 -0.894905 0.556107)
(0 -0.894905 0.556107)
(-4.89449e-14 -1.01976 0.628975)
(-1.9578e-13 -1.01976 0.628975)
(0 -1.14137 0.696833)
(0 -1.14137 0.696833)
(9.31108e-14 -1.2599 0.759986)
(0 -1.2599 0.759986)
(0 -1.37557 0.818745)
(1.95043e-13 -1.37557 0.818745)
(0 -1.48861 0.873419)
(2.40724e-13 -1.48861 0.873419)
(0 -1.59925 0.924309)
(0 -1.59925 0.924309)
(-4.85473e-14 -1.70773 0.971702)
(-1.94189e-13 -1.70773 0.971702)
(1.45517e-13 -1.81428 1.01587)
(-4.85757e-14 -1.81428 1.01587)
(-4.94825e-14 -1.91912 1.05706)
(4.94825e-14 -1.91912 1.05706)
(1.47027e-13 -2.02248 1.09552)
(1.42835e-13 -2.02248 1.09552)
(-4.82267e-14 -2.12455 1.13146)
(-2.95601e-13 -2.12455 1.13146)