/*--------------------------------*- C++ -*----------------------------------*\
| =========                 |                                                 |
| \\      /  F ield         | OpenFOAM: The Open Source CFD Toolbox           |
|  \\    /   O peration     | Version:  2106                                  |
|   \\  /    A nd           | Website:  www.openfoam.com                      |
|    \\/     M anipulation  |                                                 |
\*---------------------------------------------------------------------------*/
FoamFile
{
    version     2.0;
    format      ascii;
    arch        "LSB;label=32;scalar=64";
    class       volTensorField;
    location    "10100";
    object      grad(U);
}
// * * * * * * * * * * * * * * * * * * * * * * * * * * * * * * * * * * * * * //

dimensions      [0 0 -1 0 0 0 0];

internalField   nonuniform List<tensor> 
2000
(
(0 -5.10247e-26 1.52444e-31 61.5997 -6.34334e-12 -2.03962e-13 0.114009 -5.85983e-15 -1.44676e-16)
(0 -3.59449e-28 -1.52444e-31 61.5997 3.9443e-31 2.74114e-17 0.114009 -8.98628e-29 2.3579e-16)
(0 -5.60519e-45 6.96781e-31 61.588 0 -3.44712e-14 0.344113 -3.15544e-30 -1.29969e-16)
(-1.12328e-16 -2.55404e-29 -5.98603e-31 61.588 -5.68098e-15 4.19886e-17 0.344113 -1.74079e-17 3.92952e-16)
(-1.40308e-17 -7.02657e-31 -4.37488e-32 61.5761 5.34669e-13 -1.6431e-14 0.477364 -4.23628e-15 -1.2239e-16)
(0 6.26809e-30 1.95878e-31 61.5761 -2.04488e-15 2.95944e-17 0.477364 -1.51761e-17 4.07843e-16)
(1.70566e-16 -3.82309e-30 -2.32214e-31 61.5638 3.9774e-13 -1.64392e-14 0.486175 -3.97542e-15 -1.34995e-16)
(-3.27704e-17 9.22985e-30 3.84577e-31 61.5638 -4.2281e-15 5.64106e-17 0.486175 -2.34765e-17 4.2346e-16)
(0 1.2081e-29 2.83147e-31 61.5504 1.17194e-13 -1.75532e-14 0.495136 -2.233e-15 -1.44928e-16)
(0 -9.06071e-30 -9.43824e-32 61.5504 -4.28389e-15 7.1069e-17 0.495136 -3.16469e-17 4.39769e-16)
(-2.08636e-16 -2.11097e-28 7.41223e-31 61.5345 -2.32309e-14 -1.82866e-14 0.504234 -9.43145e-17 -1.52103e-16)
(-2.37435e-16 -1.77894e-29 -7.41223e-31 61.5345 -4.20202e-15 8.16621e-17 0.504234 -3.93841e-17 4.56802e-16)
(2.04813e-16 -1.90755e-28 -1.8191e-31 61.5134 -1.36433e-27 -1.87733e-14 0.513442 -3.15544e-30 -1.58515e-16)
(3.761e-16 8.73169e-30 1.8191e-31 61.5134 -4.10145e-15 8.13331e-17 0.513442 -4.75177e-17 4.74544e-16)
(0 -5.71445e-30 1.78577e-31 61.4826 6.21023e-15 -1.91659e-14 0.522712 -5.00217e-17 -1.64513e-16)
(1.43655e-15 8.57168e-30 0 61.4826 -4.22801e-15 8.59425e-17 0.522712 -5.65741e-17 4.92966e-16)
(-2.14555e-16 2.81247e-30 7.51656e-32 61.4352 5.78523e-15 -1.94761e-14 0.531968 -5.46722e-17 -1.69862e-16)
(0 2.80487e-30 1.75304e-31 61.4352 -4.57247e-15 9.95671e-17 0.531968 -6.69129e-17 5.12075e-16)
(0 -8.26041e-30 -3.44184e-31 61.3609 5.21231e-15 -1.96764e-14 0.541096 -4.45432e-17 -1.74247e-16)
(0 8.26041e-30 5.16276e-31 61.3609 -4.84365e-15 1.09038e-16 0.541096 -7.88528e-17 5.31746e-16)
(3.80415e-16 -2.70301e-29 -1.18257e-30 61.2453 5.64097e-15 -1.97344e-14 0.549936 -4.66204e-17 -1.77306e-16)
(0 2.16241e-29 1.18257e-30 61.2453 -4.73553e-15 1.1505e-16 0.549936 -9.0894e-17 5.51883e-16)
(-4.23367e-16 -1.55684e-31 4.06883e-31 61.07 6.30097e-15 -1.9606e-14 0.558274 -5.39285e-17 -1.78461e-16)
(1.29409e-15 0 -3.31685e-31 61.07 -4.53611e-15 1.22372e-16 0.558274 -1.00932e-16 5.72315e-16)
(0 0 1.62804e-31 60.8117 6.58584e-15 -1.9243e-14 0.565841 -6.04649e-17 -1.77215e-16)
(0 0 -1.62804e-31 60.8117 -4.40882e-15 1.32321e-16 0.565841 -1.11498e-16 5.92749e-16)
(-3.99574e-16 2.58195e-29 1.38147e-30 60.4439 6.73946e-15 -1.86022e-14 0.57232 -6.12754e-17 -1.73008e-16)
(0 -2.0457e-29 -1.11874e-30 60.4439 -4.15973e-15 1.40217e-16 0.57232 -1.22055e-16 6.12858e-16)
(-1.85174e-15 1.28442e-29 7.37189e-31 59.9374 7.0608e-15 -1.76442e-14 0.577358 -6.56628e-17 -1.65348e-16)
(0 -2.51027e-30 -3.13783e-31 59.9374 -4.44187e-15 1.53623e-16 0.577358 -1.32144e-16 6.32246e-16)
(1.86546e-15 -1.01935e-29 -1.04073e-30 59.2636 7.39412e-15 -1.63531e-14 0.580598 -6.98054e-17 -1.54065e-16)
(-1.9128e-15 4.92853e-30 7.70083e-31 59.2636 -5.27802e-15 1.52609e-16 0.580598 -1.44721e-16 6.50461e-16)
(0 -9.67644e-30 -4.53583e-31 58.3975 7.47344e-15 -1.47437e-14 0.581715 -7.47105e-17 -1.39247e-16)
(0 9.67644e-30 4.53583e-31 58.3975 -5.01575e-15 1.48696e-16 0.581715 -1.59667e-16 6.66868e-16)
(1.78619e-15 -2.45909e-29 -1.44937e-30 57.3214 6.9257e-15 -1.28611e-14 0.580455 -7.40293e-17 -1.21343e-16)
(1.56705e-15 1.66235e-29 1.03897e-30 57.3214 -4.31426e-15 1.61342e-16 0.580455 -1.71805e-16 6.81244e-16)
(-5.99674e-16 5.12694e-30 4.29354e-31 56.028 6.3838e-15 -1.07843e-14 0.576672 -6.63167e-17 -1.01202e-16)
(0 0 0 56.028 -4.67756e-15 1.69919e-16 0.576672 -1.8348e-16 6.92968e-16)
(1.9289e-15 -1.19483e-29 -4.30529e-31 54.5223 6.72015e-15 -8.61825e-15 0.570353 -6.55224e-17 -7.99186e-17)
(1.27393e-15 1.37313e-29 4.29102e-31 54.5223 -4.75752e-15 1.43582e-16 0.570353 -1.9769e-16 7.01856e-16)
(-6.81354e-16 2.79091e-30 4.31174e-31 52.8219 7.97003e-15 -6.47049e-15 0.561621 -7.59582e-17 -5.85566e-17)
(5.45083e-15 0 -2.80826e-31 52.8219 -4.41636e-15 1.21954e-16 0.561621 -2.08176e-16 7.07707e-16)
(-1.24155e-15 4.41088e-30 5.5136e-31 50.9555 8.33708e-15 -4.43837e-15 0.550719 -9.50282e-17 -3.81514e-17)
(2.88735e-15 0 -2.7568e-31 50.9555 -4.32262e-15 1.47834e-16 0.550719 -2.16939e-16 7.10775e-16)
(1.2188e-15 -8.6601e-30 -8.11884e-31 48.9596 7.19283e-15 -2.61506e-15 0.537982 -8.69085e-17 -1.98358e-17)
(1.82847e-15 8.6601e-30 8.11884e-31 48.9596 -4.34601e-15 1.55138e-16 0.537982 -2.29932e-16 7.11218e-16)
(0 1.27521e-29 -8.29425e-30 46.8745 6.6581e-15 -7.10283e-16 0.523794 -7.29246e-17 -4.02273e-18)
(3.20447e-15 -8.5014e-30 0 46.8745 -4.67541e-15 1.35412e-16 0.523794 -2.45153e-16 7.09141e-16)
(-8.39578e-16 -1.39039e-30 2.18953e-47 44.7408 6.67428e-15 6.56603e-32 0.508554 -7.79562e-17 -1.97215e-31)
(0 4.17281e-30 5.21601e-31 44.7408 -4.35893e-15 1.34614e-16 0.508554 -2.60154e-16 7.05029e-16)
(0 -1.63854e-29 -1.02409e-30 42.596 6.38387e-15 1.17861e-15 0.492643 -7.60494e-17 -8.91637e-18)
(3.5083e-15 1.63854e-29 1.02409e-30 42.596 -3.74926e-15 1.39604e-16 0.492643 -2.71403e-16 6.99413e-16)
(1.35027e-15 -9.2842e-30 -3.41261e-31 40.4729 5.62208e-15 1.87493e-15 0.476399 -7.40031e-17 -1.88824e-17)
(-1.13189e-15 1.20638e-29 5.0266e-31 40.4729 -3.66031e-15 1.35906e-16 0.476399 -2.82344e-16 6.9251e-16)
(-9.48829e-16 6.72778e-30 1.59991e-31 38.3976 4.90089e-15 2.32682e-15 0.460111 -6.05026e-17 -2.60826e-17)
(0 0 2.46724e-31 38.3976 -3.00389e-15 1.48707e-16 0.460111 -2.95749e-16 6.84943e-16)
(0 3.87525e-30 4.84407e-31 36.3904 4.7248e-15 2.57363e-15 0.444009 -5.90348e-17 -3.07202e-17)
(0 0 -2.42203e-31 36.3904 -3.04533e-15 1.53008e-16 0.444009 -3.06538e-16 6.76904e-16)
(-3.15758e-15 2.17982e-29 1.82209e-30 34.4656 4.63666e-15 2.65558e-15 0.42827 -5.83661e-17 -3.32557e-17)
(-4.06394e-15 -1.5217e-29 -1.42659e-30 34.4656 -2.85844e-15 1.45641e-16 0.42827 -3.21874e-16 6.68379e-16)
(1.04782e-15 -2.77556e-30 -3.90301e-31 32.6322 4.62122e-15 2.60415e-15 0.413024 -5.90074e-17 -3.39714e-17)
(3.14009e-15 0 2.33408e-31 32.6322 -1.55685e-15 1.40399e-16 0.413024 -3.29264e-16 6.59856e-16)
(0 7.33219e-30 4.58262e-31 30.8952 4.43992e-15 2.45532e-15 0.398358 -6.01634e-17 -3.31705e-17)
(0 -3.66609e-30 -2.29131e-31 30.8952 -1.98296e-15 1.28198e-16 0.398358 -3.3032e-16 6.51484e-16)
(-1.1081e-15 6.37186e-30 3.80788e-31 29.2563 4.27035e-15 2.24104e-15 0.384327 -5.64244e-17 -3.13055e-17)
(0 -3.59891e-30 -2.24932e-31 29.2563 -2.94779e-15 1.27101e-16 0.384327 -3.39235e-16 6.43391e-16)
(-1.13662e-15 2.77128e-30 -2.86017e-31 27.7148 4.16538e-15 1.98058e-15 0.37096 -5.78509e-17 -2.86334e-17)
(0 3.53297e-30 8.83241e-31 27.7148 -2.66488e-15 1.35188e-16 0.37096 -3.50506e-16 6.35793e-16)
(0 -1.73411e-29 -6.50292e-31 26.2681 3.63896e-15 1.68963e-15 0.358267 -5.56627e-17 -2.53199e-17)
(4.6565e-15 1.73411e-29 6.50292e-31 26.2681 -2.34427e-15 1.38681e-16 0.358267 -3.55344e-16 6.28881e-16)
(0 3.40467e-30 2.12792e-31 24.9126 4.28248e-15 1.37801e-15 0.34624 -4.52783e-17 -2.15586e-17)
(0 0 0 24.9126 -2.37319e-15 1.16228e-16 0.34624 -3.64552e-16 6.22464e-16)
(1.21626e-15 7.26421e-30 2.6247e-31 23.6437 5.15406e-15 1.0612e-15 0.334866 -7.61312e-17 -1.7378e-17)
(4.86503e-15 -1.00268e-29 -4.17785e-31 23.6437 -1.89446e-15 9.75732e-17 0.334866 -3.72915e-16 6.16481e-16)
(-1.24099e-15 -1.03636e-29 -6.66e-31 22.4565 3.98753e-15 7.43635e-16 0.324121 -7.23305e-17 -1.31578e-17)
(4.96394e-15 1.31241e-29 8.20259e-31 22.4565 -2.19125e-15 1.4823e-16 0.324121 -3.76194e-16 6.11093e-16)
(-1.26488e-15 -1.33409e-29 -8.53133e-31 21.3461 3.48435e-15 4.20806e-16 0.313977 -4.44435e-17 -8.62561e-18)
(0 1.61046e-29 1.00653e-30 21.3461 -3.02235e-15 1.5835e-16 0.313977 -3.88658e-16 6.06684e-16)
(0 1.58094e-29 5.92854e-31 20.3075 3.57012e-15 1.06162e-16 0.304405 -5.98717e-17 -3.91175e-18)
(5.15199e-15 -1.58094e-29 -5.92854e-31 20.3075 -2.40292e-15 8.85199e-17 0.304405 -3.98345e-16 6.02922e-16)
(-2.62075e-15 1.79377e-29 8.84953e-31 19.3355 2.97168e-15 -1.93607e-16 0.295374 -4.87549e-17 -5.32764e-18)
(5.2415e-15 -9.31184e-30 -1.93997e-31 19.3355 -1.82628e-15 7.71139e-17 0.295374 -3.97621e-16 5.99549e-16)
(1.71535e-15 -9.14121e-30 -5.71326e-31 18.4256 2.98354e-15 -4.77827e-16 0.286852 -4.33883e-17 -9.81461e-18)
(-1.71535e-15 9.14121e-30 5.71326e-31 18.4256 -1.84861e-15 1.49479e-16 0.286852 -4.05665e-16 5.96884e-16)
(1.68391e-15 -1.19649e-29 -1.86952e-31 17.5733 3.02961e-15 -7.4886e-16 0.278809 -5.09707e-17 -1.43352e-17)
(0 1.19649e-29 1.86952e-31 17.5733 -2.06037e-15 2.19059e-16 0.278809 -4.13869e-16 5.95577e-16)
(-3.02653e-15 1.15676e-29 6.97776e-31 16.7743 2.83589e-15 -1.00314e-15 0.271214 -4.65202e-17 -1.8601e-17)
(-5.49389e-15 -2.93642e-30 -3.67052e-31 16.7743 -1.49728e-15 1.86997e-16 0.271214 -4.20362e-16 5.94647e-16)
(1.39329e-15 8.77311e-30 3.94416e-31 16.0247 4.45669e-15 -1.24047e-15 0.26404 -4.64793e-17 -2.28776e-17)
(2.32762e-15 -8.64783e-30 -3.60326e-31 16.0247 -2.20542e-15 1.15699e-16 0.26404 -4.15883e-16 5.93878e-16)
(-1.80478e-16 8.57281e-30 9.16023e-31 15.3208 5.28876e-15 -1.45587e-15 0.257258 -1.02923e-16 -2.67005e-17)
(-4.05718e-15 -1.13192e-29 -1.06117e-30 15.3208 -4.63106e-15 1.22756e-16 0.257258 -4.21243e-16 5.93475e-16)
(-1.43129e-15 -2.80829e-30 -3.76458e-31 14.6592 3.27118e-15 -1.65804e-15 0.250843 -7.68099e-17 -3.0813e-17)
(5.72517e-15 5.55587e-30 5.20862e-31 14.6592 -3.58357e-15 7.86609e-17 0.250843 -4.4478e-16 5.94405e-16)
(0 -1.90892e-29 -1.02264e-30 14.0369 2.51967e-15 -1.85634e-15 0.244771 -3.62094e-17 -3.47745e-17)
(1.15963e-14 1.90892e-29 1.02264e-30 14.0369 -1.52782e-15 1.38912e-17 0.244771 -4.48706e-16 5.95494e-16)
(2.97437e-15 -2.68409e-29 -1.31434e-30 13.4509 3.21344e-15 -2.04435e-15 0.23902 -5.29193e-17 -3.88002e-17)
(5.86929e-15 1.87394e-29 1.0039e-30 13.4509 -2.14507e-15 8.66982e-17 0.23902 -4.47565e-16 5.96878e-16)
(-4.44353e-15 1.58838e-29 6.35396e-31 12.8986 4.77701e-15 -2.21298e-15 0.233568 -6.27626e-17 -4.23214e-17)
(-5.93866e-15 -7.884e-30 -1.6425e-31 12.8986 -3.31528e-15 1.67098e-16 0.233568 -4.65467e-16 5.99016e-16)
(1.45232e-15 -1.28992e-29 -4.8372e-31 12.3776 5.56763e-15 -2.36837e-15 0.228396 -1.12741e-16 -4.61168e-17)
(0 1.28992e-29 4.8372e-31 12.3776 -3.13297e-15 1.14025e-16 0.228396 -4.88399e-16 6.02277e-16)
(-4.36954e-15 1.5395e-29 1.40835e-30 11.8856 4.08463e-15 -2.52173e-15 0.223486 -9.49142e-17 -4.98017e-17)
(0 -5.06514e-30 -7.91427e-31 11.8856 -2.65503e-15 6.25667e-17 0.223486 -4.90585e-16 6.05641e-16)
(2.79917e-15 -4.97232e-30 -4.66155e-31 11.4205 3.8062e-15 -2.40848e-15 0.218822 -6.00744e-17 -4.34269e-17)
(-2.79917e-15 4.97232e-30 4.66155e-31 11.4205 -3.79524e-15 8.99802e-17 0.218822 -4.98464e-16 6.09159e-16)
(0 9.7624e-30 7.62688e-31 10.9805 5.31846e-15 -1.52404e-15 0.214386 -8.76058e-17 -1.64564e-17)
(-6.20029e-15 -1.46436e-29 -9.15225e-31 10.9805 -4.81437e-15 1.31429e-16 0.214386 -5.19159e-16 6.14129e-16)
(2.16776e-16 6.86087e-30 3.02914e-31 10.5639 5.81422e-15 -8.29192e-16 0.210166 -1.22563e-16 -1.68748e-17)
(0 -2.39588e-30 0 10.5639 -4.08337e-15 1.26805e-16 0.210166 -5.31814e-16 6.19925e-16)
(-1.58068e-15 -1.98309e-30 -2.95713e-31 10.1691 4.45576e-15 -8.5519e-16 0.206147 -1.11019e-16 -1.81509e-17)
(0 9.4079e-30 7.34992e-31 10.1691 -3.27948e-15 1.9971e-17 0.206147 -5.47463e-16 6.25216e-16)
(-1.89124e-15 -1.07153e-29 -8.66654e-31 9.79451 3.77808e-15 -9.79512e-16 0.202318 -7.10434e-17 -2.27442e-17)
(6.38205e-15 1.38533e-29 5.77219e-31 9.79451 -3.71621e-15 -6.23599e-17 0.202318 -5.59898e-16 6.30907e-16)
(-1.61006e-15 -1.81378e-30 -1.40629e-31 9.43888 4.00615e-15 -1.14944e-15 0.198666 -8.6674e-17 -2.61218e-17)
(0 4.53313e-30 2.83321e-31 9.43888 -5.00411e-15 4.40885e-17 0.198666 -5.72271e-16 6.37242e-16)
(-5.75382e-15 2.32379e-29 1.39651e-30 9.10097 3.60428e-15 -1.23751e-15 0.19518 -8.35003e-17 -2.74482e-17)
(-3.99214e-15 -1.78003e-29 -1.11252e-30 9.10097 -5.22467e-15 2.14314e-16 0.19518 -5.95943e-16 6.4603e-16)
(1.63833e-15 1.47556e-29 4.05146e-31 8.77961 3.28433e-15 -1.35538e-15 0.191852 -7.23854e-17 -3.23512e-17)
(-6.55333e-15 -2.18426e-29 -8.19097e-31 8.77961 -4.23779e-15 2.20117e-16 0.191852 -6.22666e-16 6.56361e-16)
(0 4.28847e-30 1.07212e-30 8.47376 2.9591e-15 -1.47142e-15 0.188671 -7.24098e-17 -3.37427e-17)
(0 0 -5.36058e-31 8.47376 -3.22721e-15 6.70998e-17 0.188671 -6.49319e-16 6.6639e-16)
(-9.61246e-16 -7.19971e-30 -2.47233e-31 8.18244 3.07028e-15 -1.5546e-15 0.18563 -6.03706e-17 -3.74108e-17)
(1.09548e-14 1.26296e-29 2.63118e-31 8.18244 -3.14925e-15 -5.2891e-17 0.18563 -6.71796e-16 6.75008e-16)
(-1.67888e-15 1.09757e-29 9.14059e-31 7.90476 4.12955e-15 -1.59354e-15 0.182719 -8.02719e-17 -3.68459e-17)
(6.71553e-15 -8.26547e-30 -7.74888e-31 7.90476 -4.84555e-15 3.98576e-19 0.182719 -7.01797e-16 6.84447e-16)
(2.28389e-15 -8.11401e-30 -5.07126e-31 7.63987 5.13335e-15 -1.71585e-15 0.179933 -1.1247e-16 -4.46811e-17)
(0 8.11401e-30 5.07126e-31 7.63987 -5.47941e-15 4.76736e-17 0.179933 -7.30431e-16 6.95421e-16)
(-3.94684e-15 2.69617e-30 3.86492e-31 7.38702 5.09964e-15 -1.84405e-15 0.177263 -1.31394e-16 -4.44915e-17)
(6.81922e-15 7.96532e-30 0 7.38702 -4.31376e-15 6.60241e-17 0.177263 -7.55185e-16 7.07473e-16)
(0 1.1729e-29 4.8871e-31 7.14548 3.83102e-15 -1.87005e-15 0.174704 -1.15063e-16 -4.76577e-17)
(-2.20095e-15 -7.81936e-30 -2.44355e-31 7.14548 -2.89217e-15 1.86071e-16 0.174704 -7.81325e-16 7.21179e-16)
(-1.72992e-15 1.03731e-29 3.76041e-31 6.91459 2.06646e-15 -1.95022e-15 0.172249 -7.32689e-17 -5.02284e-17)
(-2.16062e-15 -3.83804e-30 0 6.91459 -1.04898e-15 2.52885e-16 0.172249 -7.94566e-16 7.35552e-16)
(4.24206e-15 7.53541e-30 2.35482e-31 6.69375 5.2607e-16 -1.99465e-15 0.169892 -3.00266e-17 -5.1746e-17)
(-4.24206e-15 -3.76771e-30 0 6.69375 7.19081e-16 2.74074e-16 0.169892 -8.03005e-16 7.5054e-16)
(0 -2.70863e-30 -1.61817e-30 6.48237 2.10771e-28 -2.10473e-15 0.16763 0 -5.79065e-17)
(7.01722e-15 1.84933e-29 1.61817e-30 6.48237 3.19015e-16 2.3178e-16 0.16763 -8.02428e-16 7.67054e-16)
(0 1.81544e-29 1.36158e-30 6.27994 6.36586e-16 -2.2218e-15 0.165456 -1.14578e-17 -5.99634e-17)
(0 -1.81544e-29 -1.36158e-30 6.27994 -2.07374e-15 1.03899e-16 0.165456 -8.07829e-16 7.82329e-16)
(-1.77801e-15 -8.62277e-31 1.34126e-31 6.08594 4.03574e-16 -2.28315e-15 0.163367 -2.24099e-17 -6.34342e-17)
(7.11204e-15 7.1287e-30 2.22772e-31 6.08594 -1.79246e-15 5.59735e-17 0.163367 -8.29351e-16 7.94848e-16)
(1.96978e-15 -2.70504e-30 -1.74952e-30 5.89993 1.93869e-28 -2.39354e-15 0.161357 0 -6.83558e-17)
(5.18871e-15 2.09942e-29 1.74952e-30 5.89993 -3.49463e-16 1.63474e-16 0.161357 -8.38363e-16 8.08109e-16)
(-1.80109e-15 1.29227e-29 1.63596e-30 5.72147 1.1844e-15 -2.44266e-15 0.159423 -1.6602e-17 -6.86047e-17)
(-7.20436e-15 -1.03048e-29 -1.50278e-30 5.72147 -6.53098e-16 4.0378e-16 0.159423 -8.32463e-16 8.24153e-16)
(1.89825e-15 -6.74395e-30 -4.21497e-31 5.55017 1.75169e-15 -2.57236e-15 0.157562 -5.06133e-17 -7.84084e-17)
(-9.14789e-15 6.74395e-30 4.21497e-31 5.55017 2.03823e-16 4.11288e-16 0.157562 -8.33921e-16 8.42546e-16)
(-3.64718e-15 5.39915e-30 2.65082e-31 5.38564 1.45725e-15 -2.69801e-15 0.155769 -4.9425e-17 -7.85683e-17)
(7.29436e-15 0 0 5.38564 2.5065e-16 1.56365e-16 0.155769 -8.22988e-16 8.57776e-16)
(-3.66928e-15 2.1541e-30 2.65399e-31 5.22754 2.10796e-15 -2.71693e-15 0.154041 -3.52296e-17 -8.24953e-17)
(0 3.24953e-30 0 5.22754 -7.53301e-16 6.77686e-17 0.154041 -8.18433e-16 8.73626e-16)
(0 -9.56994e-30 -7.97495e-31 5.07553 2.75187e-15 -2.87335e-15 0.152376 -9.02138e-17 -9.10609e-17)
(7.38224e-15 9.56994e-30 7.97495e-31 5.07553 -3.15882e-16 1.93082e-16 0.152376 -8.0525e-16 8.87015e-16)
(-1.85636e-15 1.83508e-29 1.69803e-30 4.92933 2.80014e-15 -2.92649e-15 0.15077 -7.57955e-17 -8.89024e-17)
(-9.18831e-15 -1.25261e-29 -1.37004e-30 4.92933 -5.935e-16 2.40117e-16 0.15077 -8.12514e-16 8.99121e-16)
(1.86703e-15 -1.1912e-29 -7.08751e-31 4.78862 3.96217e-15 -2.92659e-15 0.14922 -9.66096e-17 -9.44983e-17)
(0 9.22242e-30 5.76401e-31 4.78862 -1.96883e-15 1.47982e-16 0.14922 -8.3682e-16 9.14523e-16)
(1.7872e-16 -5.69434e-30 -1.07627e-30 4.65315 3.81121e-15 -2.99132e-15 0.147725 -1.52132e-16 -9.64221e-17)
(-5.8115e-15 3.01781e-30 9.43065e-31 4.65315 -2.86748e-15 1.17221e-16 0.147725 -8.37926e-16 9.29547e-16)
(-3.77609e-15 8.32594e-30 1.19238e-30 4.52266 3.05017e-15 -3.03282e-15 0.146281 -9.05259e-17 -1.00782e-16)
(0 0 -3.70313e-31 4.52266 -1.71081e-15 9.62954e-17 0.146281 -8.58738e-16 9.42229e-16)
(0 1.16329e-29 7.27055e-31 4.39691 3.80868e-15 -3.06454e-15 0.144886 -1.07927e-16 -1.02176e-16)
(0 -1.45411e-29 -1.09058e-30 4.39691 -3.25554e-15 8.92451e-17 0.144886 -8.50593e-16 9.5267e-16)
(1.90863e-15 3.04326e-30 5.80338e-31 4.27568 4.88295e-15 -3.11359e-15 0.143538 -1.44637e-16 -1.0792e-16)
(-1.5269e-14 -5.70985e-30 -7.13732e-31 4.27568 -2.49134e-15 1.17706e-17 0.143538 -8.93137e-16 9.65521e-16)
(1.91877e-15 -1.10617e-29 -8.34092e-31 4.15876 4.79965e-15 -3.25717e-15 0.142236 -1.85141e-16 -1.15985e-16)
(0 8.40784e-30 7.00653e-31 4.15876 -1.53728e-15 -3.12889e-17 0.142236 -8.93271e-16 9.76401e-16)
(0 -1.37563e-29 -1.37563e-30 4.04595 3.62522e-15 -3.29007e-15 0.140976 -1.44309e-16 -1.14311e-16)
(7.71526e-15 1.37563e-29 1.37563e-30 4.04595 -4.14671e-15 6.8925e-17 0.140976 -9.23895e-16 9.89803e-16)
(1.93877e-15 -5.35355e-30 -1.35785e-31 3.93705 2.0357e-15 -3.26928e-15 0.139758 -1.09138e-16 -1.18859e-16)
(7.75506e-15 2.70084e-30 3.37605e-31 3.93705 -4.63042e-15 5.21985e-17 0.139758 -9.52033e-16 1.00273e-15)
(2.07305e-15 -1.32418e-29 -2.04944e-30 3.83191 6.2179e-16 -3.4007e-15 0.138579 -3.53426e-17 -1.28253e-16)
(0 1.06054e-29 1.98851e-30 3.83191 -5.27598e-15 -2.75032e-17 0.138579 -1.01801e-15 1.01154e-15)
(-3.9168e-15 -2.91556e-29 -1.67923e-30 3.73034 5.18188e-16 -3.47617e-15 0.137439 -9.58591e-18 -1.28975e-16)
(7.8336e-15 1.56166e-29 1.62673e-30 3.73034 -4.47719e-15 -2.70232e-17 0.137439 -1.06673e-15 1.02043e-15)
(1.96809e-15 -1.53995e-29 -1.73422e-30 3.63219 5.50533e-15 -3.40724e-15 0.136334 -1.90742e-16 -1.27842e-16)
(1.57447e-14 1.27753e-29 1.59692e-30 3.63219 -5.53135e-15 7.69808e-17 0.136334 -1.09515e-15 1.03013e-15)
(-1.9777e-15 2.61192e-30 1.36721e-31 3.53731 5.77041e-15 -3.45418e-15 0.135265 -2.24545e-16 -1.37473e-16)
(0 5.01649e-30 6.27062e-31 3.53731 -7.34948e-15 1.55758e-16 0.135265 -1.16354e-15 1.04355e-15)
(-3.97446e-15 5.21424e-30 5.83299e-31 3.44556 5.73945e-15 -3.54786e-15 0.134228 -2.18474e-16 -1.40055e-16)
(7.94892e-15 0 -3.07785e-31 3.44556 -5.38247e-15 1.10774e-16 0.134228 -1.21957e-15 1.05774e-15)
(-1.99668e-15 2.59736e-30 1.38233e-31 3.35682 5.29804e-15 -3.58527e-15 0.133224 -2.30562e-16 -1.45661e-16)
(7.98673e-15 4.83433e-30 6.04291e-31 3.35682 -4.75974e-15 9.2383e-17 0.133224 -1.24051e-15 1.07074e-15)
(-2.67161e-15 9.49148e-30 1.18643e-30 3.27094 4.77843e-15 -3.52112e-15 0.132251 -1.91208e-16 -1.40077e-16)
(0 0 -5.93217e-31 3.27094 -6.38076e-15 1.17358e-16 0.132251 -1.31746e-15 1.08373e-15)
(2.01537e-15 -4.92145e-30 -1.30419e-30 3.18781 5.28694e-15 -3.49307e-15 0.131308 -1.96682e-16 -1.4881e-16)
(8.06148e-15 2.32939e-30 1.16469e-30 3.18781 -6.16036e-15 1.42891e-16 0.131308 -1.40589e-15 1.09595e-15)
(2.02461e-15 -1.62983e-29 -1.85426e-30 3.10733 5.25862e-15 -3.66393e-15 0.130393 -2.40848e-16 -1.5988e-16)
(8.09843e-15 1.37202e-29 1.71503e-30 3.10733 -5.50024e-15 1.5814e-16 0.130393 -1.42048e-15 1.11135e-15)
(-2.03378e-15 7.06674e-30 1.39717e-31 3.02937 5.38773e-15 -3.78238e-15 0.129505 -2.01686e-16 -1.64675e-16)
(8.13512e-15 0 5.612e-31 3.02937 -6.76373e-15 1.24776e-16 0.129505 -1.42625e-15 1.12568e-15)
(2.04288e-15 -6.96967e-30 -9.67135e-31 2.95385 6.27029e-15 -3.78438e-15 0.128644 -2.61105e-16 -1.66081e-16)
(0 4.40733e-30 8.26374e-31 2.95385 -7.39173e-15 1.50941e-16 0.128644 -1.50736e-15 1.14089e-15)
(-2.05193e-15 1.12042e-29 1.22528e-30 2.88066 5.13877e-15 -3.65413e-15 0.127808 -2.87139e-16 -1.59175e-16)
(8.20771e-15 -4.32656e-30 -8.11231e-31 2.88066 -5.18617e-15 1.56025e-16 0.127808 -1.56689e-15 1.16297e-15)
(2.06091e-15 -1.10577e-29 -1.20467e-30 2.8097 3.03627e-15 -3.67396e-15 0.126997 -1.69266e-16 -1.74154e-16)
(0 8.49456e-30 1.06182e-30 2.8097 -3.32112e-15 7.41718e-17 0.126997 -1.59126e-15 1.18489e-15)
(-4.41702e-15 1.09068e-29 1.18681e-30 2.74091 3.05052e-15 -3.81913e-15 0.126209 -1.05504e-16 -1.7871e-16)
(8.27932e-15 -4.16945e-30 -5.21181e-31 2.74091 -2.07722e-15 6.18114e-17 0.126209 -1.65376e-15 1.20781e-15)
(2.07869e-15 5.63434e-30 3.65248e-31 2.67418 4.13043e-15 -3.8072e-15 0.125444 -1.76973e-16 -1.79584e-16)
(8.31477e-15 -4.09305e-30 0 2.67418 -1.20011e-15 7.65658e-17 0.125444 -1.65759e-15 1.2314e-15)
(0 4.01804e-30 1.50677e-30 2.60944 3.84066e-15 -3.87075e-15 0.124701 -2.12056e-16 -1.91593e-16)
(8.35e-15 0 -1.00451e-30 2.60944 -2.55477e-15 -2.71298e-16 0.124701 -1.63721e-15 1.24575e-15)
(0 7.88883e-30 1.47916e-30 2.54661 3.19687e-15 -3.99706e-15 0.123978 -1.55604e-16 -1.98801e-16)
(-8.38502e-15 -3.94441e-30 -9.86104e-31 2.54661 -3.08185e-15 -1.72876e-15 0.123978 -1.69559e-15 1.25591e-15)
(0 1.54885e-29 1.45205e-30 2.48563 2.55667e-15 -4.02862e-15 0.123277 -1.56591e-16 -2.01981e-16)
(8.41982e-15 -1.54885e-29 -1.45205e-30 2.48563 -2.12979e-15 -2.73269e-15 0.123277 -1.7168e-15 1.2438e-15)
(-2.1136e-15 -1.64625e-29 -2.22616e-30 2.42642 1.88121e-15 -4.10921e-15 0.122595 -9.71886e-17 -2.14535e-16)
(0 1.90059e-29 2.37574e-30 2.42642 -2.71073e-15 -2.46006e-15 0.122595 -1.71387e-15 1.22941e-15)
(-2.1222e-15 6.27055e-30 6.18665e-31 2.36893 1.98246e-15 -4.12465e-15 0.121931 -9.34053e-17 -2.11201e-16)
(8.48881e-15 0 0 2.36893 -3.41456e-15 -2.38245e-15 0.121931 -1.77133e-15 1.217e-15)
(2.06217e-15 -7.32629e-30 -1.37368e-30 2.31307 2.3053e-15 -4.1229e-15 0.121286 -1.114e-16 -2.22433e-16)
(-2.06217e-15 7.32629e-30 1.37368e-30 2.31307 -4.31932e-15 -2.54109e-15 0.121286 -1.82086e-15 1.20684e-15)
(-2.02438e-15 7.19204e-30 8.99004e-31 2.25881 2.68201e-15 -4.09249e-15 0.120659 -1.31189e-16 -2.15872e-16)
(0 -3.59602e-30 -4.49502e-31 2.25881 -4.25777e-15 -2.69995e-15 0.120659 -1.8889e-15 1.19632e-15)
(2.14771e-15 -2.36963e-29 -2.35965e-30 2.20608 3.67797e-15 -4.27663e-15 0.120049 -1.56326e-16 -2.51094e-16)
(8.59085e-15 1.76506e-29 2.20633e-30 2.20608 -3.46792e-15 -2.64777e-15 0.120049 -1.95447e-15 1.18119e-15)
(-1.74561e-15 7.89704e-30 1.57741e-30 2.15482 5.6792e-15 -4.51498e-15 0.119455 -2.4582e-16 -2.50747e-16)
(8.6245e-15 0 -4.33179e-31 2.15482 -3.72371e-15 -2.60214e-15 0.119455 -2.02906e-15 1.16437e-15)
(0 0 -4.25241e-31 2.10498 5.89878e-15 -4.4144e-15 0.118877 -3.86731e-16 -2.49061e-16)
(8.65797e-15 6.80386e-30 4.25241e-31 2.10498 -3.89724e-15 -2.70064e-15 0.118877 -2.07868e-15 1.14748e-15)
(-4.34564e-15 4.94358e-30 3.22533e-31 2.05652 4.64284e-15 -4.29471e-15 0.118315 -2.80177e-16 -2.46262e-16)
(8.69128e-15 0 0 2.05652 -3.74659e-15 -2.56024e-15 0.118315 -2.12737e-15 1.13227e-15)
(4.02668e-15 -1.88546e-29 -2.6203e-30 2.00939 5.03301e-15 -4.31392e-15 0.117767 -2.55093e-16 -2.60724e-16)
(6.87885e-15 1.6392e-29 2.4588e-30 2.00939 -4.3606e-15 -2.54906e-15 0.117767 -2.16826e-15 1.12697e-15)
(0 1.28733e-29 2.41374e-30 1.96353 5.29575e-15 -4.46861e-15 0.117234 -3.37004e-16 -2.74228e-16)
(-8.75741e-15 -1.28733e-29 -2.41374e-30 1.96353 -5.07734e-15 -2.82684e-15 0.117234 -2.22635e-15 1.11618e-15)
(0 0 1.18475e-30 1.91892 4.34318e-15 -4.56123e-15 0.116715 -2.96445e-16 -2.81947e-16)
(0 0 -3.94918e-31 1.91892 -4.00587e-15 -3.1197e-15 0.116715 -2.2941e-15 1.07021e-15)
(-4.41145e-15 1.72829e-29 3.43217e-30 1.8755 3.82378e-15 -4.52265e-15 0.116209 -2.32482e-16 -2.79725e-16)
(0 -1.24058e-29 -3.10145e-30 1.8755 -3.14952e-15 -2.91169e-15 0.116209 -2.33332e-15 9.98909e-16)
(-2.21386e-15 8.51362e-30 9.22355e-31 1.83323 5.37246e-15 -4.73397e-15 0.115716 -2.42507e-16 -3.19556e-16)
(0 -3.04462e-30 -7.61154e-31 1.83323 -3.2627e-15 -2.79694e-15 0.115716 -2.3539e-15 9.41011e-16)
(-3.36512e-15 1.7933e-29 2.98883e-30 1.79209 7.02754e-15 -4.66019e-15 0.115236 -4.39e-16 -2.80668e-16)
(-8.88782e-15 -1.49441e-29 -2.98883e-30 1.79209 -3.60418e-15 -3.35755e-15 0.115236 -2.44125e-15 8.68297e-16)
(4.46003e-15 -1.79902e-30 -3.30092e-31 1.75202 6.63509e-15 -4.63519e-15 0.114767 -4.66936e-16 -3.28285e-16)
(0 -2.93406e-30 0 1.75202 -3.61491e-15 -3.57895e-15 0.114767 -2.51869e-15 7.7429e-16)
(1.23317e-15 9.67349e-30 1.82076e-30 1.713 5.61703e-15 -4.8686e-15 0.114311 -4.03539e-16 -3.2275e-16)
(8.95217e-15 -1.15212e-29 -2.16022e-30 1.713 -3.53112e-15 -3.12234e-15 0.114311 -2.55459e-15 6.81997e-16)
(-2.24604e-15 2.35943e-30 1.71296e-31 1.67499 4.9376e-15 -4.84001e-15 0.113866 -3.47113e-16 -3.36724e-16)
(8.98415e-15 5.65502e-30 7.06878e-31 1.67499 -5.27872e-15 -2.81626e-15 0.113866 -2.62088e-15 6.01632e-16)
(7.63315e-15 -1.91681e-30 3.4228e-31 1.63796 4.72117e-15 -4.70237e-15 0.113431 -3.25325e-16 -3.15634e-16)
(-3.12516e-15 -2.7757e-30 -6.93924e-31 1.63796 -5.97211e-15 -3.03409e-15 0.113431 -2.72638e-15 5.22541e-16)
(5.32982e-15 -2.33377e-30 -8.52089e-31 1.60187 4.47772e-15 -4.77015e-15 0.113008 -3.29879e-16 -3.59082e-16)
(9.04771e-15 0 6.81208e-31 1.60187 -5.28165e-15 -3.38681e-15 0.113008 -2.83481e-15 4.39266e-16)
(-2.26983e-15 1.03556e-29 8.41801e-31 1.56671 5.32907e-15 -5.11314e-15 0.112594 -3.02847e-16 -3.77379e-16)
(0 -5.3498e-30 0 1.56671 -5.91895e-15 -3.50581e-15 0.112594 -2.95094e-15 3.45477e-16)
(-2.95648e-15 -5.25177e-30 -6.56471e-31 1.53243 7.71338e-15 -5.11939e-15 0.112191 -4.66048e-16 -3.73539e-16)
(2.1178e-14 7.87765e-30 1.31294e-30 1.53243 -7.26424e-15 -3.2013e-15 0.112191 -3.01953e-15 2.57474e-16)
(-5.18784e-15 -5.48908e-30 -3.0424e-30 1.49901 9.56575e-15 -5.14992e-15 0.111797 -6.67273e-16 -3.96204e-16)
(2.90231e-15 1.28888e-29 3.22221e-30 1.49901 -7.48118e-15 -3.0867e-15 0.111797 -3.1583e-15 1.87054e-16)
(0 -7.59159e-30 -1.8979e-30 1.46643 8.19429e-15 -5.17746e-15 0.111413 -7.62987e-16 -3.91847e-16)
(1.83468e-14 1.01221e-29 2.53053e-30 1.46643 -4.60167e-15 -3.27409e-15 0.111413 -3.32032e-15 1.10825e-16)
(-2.30113e-15 1.46457e-29 3.29294e-30 1.43466 5.29926e-15 -5.17904e-15 0.111037 -4.81711e-16 -4.1138e-16)
(0 -1.24208e-29 -3.1052e-30 1.43466 -3.92718e-15 -3.82736e-15 0.111037 -3.33717e-15 3.12408e-17)
(0 -2.43864e-30 0 1.40367 5.71435e-15 -5.3294e-15 0.110671 -3.38653e-16 -4.30583e-16)
(9.23554e-15 2.43864e-30 0 1.40367 -5.01569e-15 -3.91985e-15 0.110671 -3.45308e-15 -8.36736e-17)
(2.31661e-15 -1.41516e-29 -3.78446e-30 1.37344 6.79969e-15 -5.3766e-15 0.110312 -5.66038e-16 -4.34547e-16)
(1.85329e-14 1.19697e-29 3.59092e-30 1.37344 -5.4826e-15 -3.19031e-15 0.110312 -3.54177e-15 -1.80217e-16)
(-2.32432e-15 2.16452e-30 1.9605e-31 1.34395 6.23262e-15 -5.49996e-15 0.109962 -5.27676e-16 -4.67215e-16)
(9.29727e-15 4.70016e-30 1.17504e-30 1.34395 -6.26229e-15 -2.98246e-15 0.109962 -3.66251e-15 -2.46812e-16)
(-2.65476e-16 4.76717e-30 3.25306e-30 1.31517 6.20569e-15 -5.28879e-15 0.109619 -4.93555e-16 -4.15336e-16)
(6.73051e-15 0 0 1.31517 -5.33209e-15 -3.51659e-15 0.109619 -3.79413e-15 -3.2085e-16)
(-4.67929e-15 8.79944e-30 1.53011e-30 1.28709 7.69697e-15 -5.35335e-15 0.109285 -5.43022e-16 -4.95904e-16)
(6.80872e-15 0 0 1.28709 -4.49483e-15 -3.86265e-15 0.109285 -3.89238e-15 -4.2412e-16)
(-2.50315e-15 -4.44648e-30 -2.22324e-30 1.25968 8.24659e-15 -5.46019e-15 0.108957 -7.68157e-16 -4.49669e-16)
(1.87782e-14 6.66972e-30 3.33486e-30 1.25968 -3.46691e-15 -3.3844e-15 0.108957 -4.02846e-15 -5.3441e-16)
(0 4.365e-30 1.09125e-30 1.23292 4.9295e-15 -5.13412e-15 0.108636 -6.59597e-16 -4.56507e-16)
(6.96225e-15 0 0 1.23292 -1.53607e-15 -3.19024e-15 0.108636 -4.07308e-15 -5.96499e-16)
(-2.36246e-15 6.43055e-30 1.28612e-30 1.2068 2.45213e-15 -5.18966e-15 0.108323 -2.0621e-16 -4.76693e-16)
(-2.41225e-15 0 0 1.2068 -1.59725e-15 -3.7206e-15 0.108323 -4.01684e-15 -6.77101e-16)
(2.37002e-15 2.06541e-30 1.8566e-30 1.18129 2.66538e-15 -4.22735e-15 0.108015 -2.34907e-16 -2.95826e-16)
(0 -8.41298e-30 -3.15487e-30 1.18129 -8.23431e-16 -3.86022e-15 0.108015 -4.06404e-15 -7.78294e-16)
(0 4.12941e-30 -7.75173e-30 1.15639 2.87166e-15 -5.16398e-30 0.107714 -2.53399e-16 0)
(0 0 0 1.15639 8.21557e-16 -3.92382e-15 0.107714 -4.07328e-15 -8.73182e-16)
(-2.38507e-15 1.42723e-29 4.33229e-30 1.13206 3.34618e-15 3.37613e-16 0.107419 -2.826e-16 -2.3412e-17)
(0 -1.21612e-29 -4.05374e-30 1.13206 -1.75905e-15 -4.29038e-15 0.107419 -4.10454e-15 -9.78176e-16)
(-2.39257e-15 6.06867e-30 1.26816e-30 1.1083 3.73332e-15 8.25982e-16 0.10713 -3.53968e-16 -4.09098e-17)
(-9.57027e-15 0 0 1.1083 -3.66261e-15 -4.79268e-15 0.10713 -4.30706e-15 -1.11031e-15)
(-4.59922e-15 2.07821e-30 -1.69674e-30 1.08509 4.11547e-15 7.38719e-16 0.106847 -3.68893e-16 -1.19719e-16)
(2.13995e-14 3.90653e-30 1.95327e-30 1.08509 -1.75818e-15 -4.41362e-15 0.106847 -4.39749e-15 -1.28343e-15)
(0 -7.6699e-30 -2.87621e-30 1.06241 3.69165e-15 -4.77111e-17 0.106569 -4.4337e-16 -3.52243e-17)
(9.62997e-15 7.6699e-30 2.87621e-30 1.06241 -3.27295e-16 -3.67749e-15 0.106569 -4.42175e-15 -1.41421e-15)
(-2.95602e-16 5.81882e-30 0 1.04025 3.12725e-15 4.93038e-32 0.106296 -2.96862e-16 -3.9443e-31)
(7.54038e-15 0 0 1.04025 -1.78526e-15 -4.07223e-15 0.106296 -4.4841e-15 -1.53607e-15)
(0 3.69569e-30 9.23922e-31 1.01859 4.30176e-15 9.88563e-16 0.106028 -3.43503e-16 -8.59645e-17)
(9.68935e-15 0 0 1.01859 -1.8664e-15 -4.79152e-15 0.106028 -4.55263e-15 -1.66259e-15)