/*--------------------------------*- C++ -*----------------------------------*\
| =========                 |                                                 |
| \\      /  F ield         | OpenFOAM: The Open Source CFD Toolbox           |
|  \\    /   O peration     | Version:  2106                                  |
|   \\  /    A nd           | Website:  www.openfoam.com                      |
|    \\/     M anipulation  |                                                 |
\*---------------------------------------------------------------------------*/
FoamFile
{
    version     2.0;
    format      ascii;
    arch        "LSB;label=32;scalar=64";
    class       surfaceScalarField;
    location    "10100";
    object      phi;
}
// * * * * * * * * * * * * * * * * * * * * * * * * * * * * * * * * * * * * * //

dimensions      [0 3 -1 0 0 0 0];

oriented        oriented;

internalField   nonuniform List<scalar> 
3996
(
5.27474e-08
-5.09812e-18
-2.94955e-22
-9.09677e-22
9.45543e-23
1.62179e-07
-5.09532e-18
-8.95342e-22
-2.7783e-21
7.53605e-24
2.77718e-07
-5.09246e-18
-9.25605e-22
-4.75477e-21
8.08406e-24
3.9963e-07
-5.08938e-18
-9.63402e-22
-6.8055e-21
8.74381e-24
5.28192e-07
-5.08608e-18
-9.99177e-22
-9.05214e-21
9.53062e-24
6.63688e-07
-5.0829e-18
-1.03422e-21
-1.11159e-20
1.04669e-23
8.06411e-07
-5.07976e-18
-1.06991e-21
-1.31892e-20
1.1567e-23
9.56655e-07
-5.07596e-18
-1.10657e-21
-1.55433e-20
1.2848e-23
1.11471e-06
-5.07257e-18
-1.14423e-21
-1.79316e-20
1.43317e-23
1.28087e-06
-5.0689e-18
-1.1828e-21
-2.06193e-20
1.60257e-23
1.45538e-06
-5.06571e-18
-1.22211e-21
-2.32477e-20
1.79566e-23
1.63846e-06
-5.06144e-18
-1.26183e-21
-2.58134e-20
2.01394e-23
1.83029e-06
-5.05763e-18
-1.30143e-21
-2.84885e-20
2.2575e-23
2.03092e-06
-5.05356e-18
-1.3402e-21
-3.05871e-20
2.52602e-23
2.24036e-06
-5.04886e-18
-1.37728e-21
-3.34211e-20
2.81874e-23
2.45844e-06
-5.04466e-18
-1.41167e-21
-3.6408e-20
3.13452e-23
2.68489e-06
-5.03941e-18
-1.4423e-21
-4.0052e-20
3.4711e-23
2.91929e-06
-5.03524e-18
-1.4682e-21
-4.22498e-20
3.83042e-23
3.1611e-06
-5.03088e-18
-1.48845e-21
-4.55955e-20
4.20234e-23
3.40968e-06
-5.02715e-18
-1.50246e-21
-4.81438e-20
4.58702e-23
3.66432e-06
-5.022e-18
-1.5099e-21
-5.17119e-20
4.9798e-23
3.9243e-06
-5.0152e-18
-1.51087e-21
-5.44538e-20
5.38143e-23
4.18892e-06
-5.01159e-18
-1.50577e-21
-5.73065e-20
5.78841e-23
4.45755e-06
-5.00665e-18
-1.49509e-21
-6.09017e-20
6.19588e-23
4.72962e-06
-5.00184e-18
-1.47969e-21
-6.40555e-20
6.60927e-23
5.00471e-06
-4.99734e-18
-1.46041e-21
-6.67191e-20
7.02677e-23
5.28246e-06
-4.99307e-18
-1.43812e-21
-6.97474e-20
7.45027e-23
5.56265e-06
-4.98964e-18
-1.41359e-21
-7.18398e-20
7.88297e-23
5.84513e-06
-4.98619e-18
-1.38749e-21
-7.4195e-20
8.32091e-23
6.12985e-06
-4.98239e-18
-1.36039e-21
-7.6868e-20
8.76047e-23
6.41682e-06
-4.97882e-18
-1.33282e-21
-7.75148e-20
9.209e-23
6.70612e-06
-4.97566e-18
-1.3052e-21
-7.9443e-20
9.66643e-23
6.99785e-06
-4.97148e-18
-1.27776e-21
-8.19722e-20
1.01375e-22
7.29215e-06
-4.96829e-18
-1.25084e-21
-8.39023e-20
1.06199e-22
7.58921e-06
-4.96476e-18
-1.22453e-21
-8.64622e-20
1.11207e-22
7.8892e-06
-4.96219e-18
-1.19899e-21
-8.81311e-20
1.16396e-22
8.19234e-06
-4.95574e-18
-1.17429e-21
-8.98095e-20
1.21807e-22
8.49883e-06
-4.95317e-18
-1.15071e-21
-9.22349e-20
1.27519e-22
8.80888e-06
-4.94937e-18
-1.12811e-21
-9.4605e-20
1.33552e-22
9.12273e-06
-4.94663e-18
-1.10672e-21
-9.72215e-20
1.40122e-22
9.44058e-06
-4.94312e-18
-1.08633e-21
-9.90016e-20
1.47094e-22
9.76266e-06
-4.9407e-18
-1.0671e-21
-1.00478e-19
1.54533e-22
1.00892e-05
-4.9377e-18
-1.0488e-21
-1.0311e-19
1.6249e-22
1.04204e-05
-4.9343e-18
-1.03167e-21
-1.04461e-19
1.70919e-22
1.07565e-05
-4.93087e-18
-1.01568e-21
-1.05717e-19
1.79902e-22
1.10976e-05
-4.92239e-18
-1.00083e-21
-1.12408e-19
1.89304e-22
1.14441e-05
-4.92148e-18
-9.87349e-22
-1.1473e-19
1.99648e-22
1.17962e-05
-4.91708e-18
-9.7459e-22
-1.17927e-19
2.10647e-22
1.21539e-05
-4.9155e-18
-9.62982e-22
-1.19829e-19
2.22311e-22
1.25177e-05
-4.90805e-18
-9.52187e-22
-1.23187e-19
2.34343e-22
1.28875e-05
-4.90233e-18
-9.42554e-22
-1.26387e-19
2.46928e-22
1.32638e-05
-4.89624e-18
-9.34028e-22
-1.30042e-19
2.59836e-22
1.36467e-05
-4.89392e-18
-9.26625e-22
-1.34559e-19
2.73211e-22
1.40363e-05
-4.88632e-18
-9.2025e-22
-1.41577e-19
2.87691e-22
1.44329e-05
-4.87865e-18
-9.15121e-22
-1.45351e-19
3.03098e-22
1.48368e-05
-4.87306e-18
-9.11518e-22
-1.49248e-19
3.18979e-22
1.52481e-05
-4.8697e-18
-9.09158e-22
-1.54027e-19
3.3584e-22
1.5667e-05
-4.86216e-18
-9.07754e-22
-1.62184e-19
3.5363e-22
1.60938e-05
-4.85764e-18
-9.09084e-22
-1.69073e-19
3.73071e-22
1.65287e-05
-4.85412e-18
-9.12167e-22
-1.7405e-19
3.93758e-22
1.69719e-05
-4.84921e-18
-9.17065e-22
-1.775e-19
4.15222e-22
1.74235e-05
-4.84531e-18
-9.23755e-22
-1.83612e-19
4.37368e-22
1.7884e-05
-4.83888e-18
-9.32391e-22
-1.9092e-19
4.60768e-22
1.83533e-05
-4.83185e-18
-9.43235e-22
-1.98021e-19
4.85695e-22
1.88319e-05
-4.82238e-18
-9.56433e-22
-2.05812e-19
5.12746e-22
1.93198e-05
-4.81725e-18
-9.71938e-22
-2.11492e-19
5.42088e-22
1.98175e-05
-4.81437e-18
-9.88948e-22
-2.1075e-19
5.72735e-22
2.0325e-05
-4.81244e-18
-1.00824e-21
-2.10519e-19
6.04492e-22
2.08426e-05
-4.81491e-18
-1.02968e-21
-2.08317e-19
6.37415e-22
2.13706e-05
-4.81164e-18
-1.05275e-21
-2.12608e-19
6.71037e-22
2.19092e-05
-4.81098e-18
-1.07713e-21
-2.16733e-19
7.04634e-22
2.24587e-05
-4.81243e-18
-1.10287e-21
-2.18056e-19
7.39935e-22
2.30193e-05
-4.80764e-18
-1.12988e-21
-2.18912e-19
7.76329e-22
2.35912e-05
-4.80714e-18
-1.16031e-21
-2.15078e-19
8.13738e-22
2.41748e-05
-4.80296e-18
-1.19133e-21
-2.17105e-19
8.49641e-22
2.47704e-05
-4.79873e-18
-1.22299e-21
-2.19486e-19
8.87086e-22
2.53781e-05
-4.79482e-18
-1.25744e-21
-2.19801e-19
9.24182e-22
2.59982e-05
-4.78917e-18
-1.29209e-21
-2.18732e-19
9.5917e-22
2.66311e-05
-4.7815e-18
-1.33012e-21
-2.22872e-19
9.95008e-22
2.7277e-05
-4.77421e-18
-1.37015e-21
-2.29694e-19
1.02994e-21
2.79362e-05
-4.76767e-18
-1.41145e-21
-2.32416e-19
1.06286e-21
2.86091e-05
-4.75844e-18
-1.45475e-21
-2.38721e-19
1.09407e-21
2.92958e-05
-4.75035e-18
-1.50052e-21
-2.35844e-19
1.12538e-21
2.99968e-05
-4.73633e-18
-1.54756e-21
-2.47299e-19
1.15191e-21
3.07123e-05
-4.73174e-18
-1.59907e-21
-2.58823e-19
1.17831e-21
3.14427e-05
-4.72317e-18
-1.65226e-21
-2.68592e-19
1.20541e-21
3.21883e-05
-4.72903e-18
-1.70815e-21
-2.78544e-19
1.22975e-21
3.29493e-05
-4.71887e-18
-1.76235e-21
-2.87754e-19
1.25472e-21
3.37263e-05
-4.70657e-18
-1.8163e-21
-3.02854e-19
1.27874e-21
3.45194e-05
-4.69253e-18
-1.87293e-21
-3.22323e-19
1.30322e-21
3.53291e-05
-4.67632e-18
-1.93429e-21
-3.32762e-19
1.3321e-21
3.61557e-05
-4.66535e-18
-1.99923e-21
-3.45974e-19
1.36135e-21
3.69995e-05
-4.65238e-18
-2.06451e-21
-3.60817e-19
1.38908e-21
3.7861e-05
-4.63956e-18
-2.13531e-21
-3.78426e-19
1.41634e-21
3.87406e-05
-4.62454e-18
-2.20801e-21
-3.92718e-19
1.44791e-21
3.96385e-05
-4.61245e-18
-2.28372e-21
-4.09163e-19
1.48027e-21
4.05553e-05
-4.59311e-18
-2.3624e-21
-4.31722e-19
1.51454e-21
4.14913e-05
-4.57783e-18
-2.44874e-21
-4.46442e-19
1.55402e-21
4.24469e-05
-4.57178e-18
-2.54042e-21
-4.53311e-19
1.59032e-21
4.34226e-05
-4.5636e-18
-2.63586e-21
-4.61003e-19
1.62318e-21
4.44187e-05
-4.54757e-18
-2.73396e-21
-4.6318e-19
1.65121e-21
4.54358e-05
-4.5388e-18
-2.84276e-21
-4.74183e-19
1.67087e-21
4.64742e-05
-4.52687e-18
-2.96225e-21
-4.79838e-19
1.69672e-21
4.75344e-05
-4.51897e-18
-3.09483e-21
-4.86492e-19
1.72082e-21
4.86169e-05
-4.5169e-18
-3.23545e-21
-4.96614e-19
1.7384e-21
4.97221e-05
-4.5056e-18
-3.37826e-21
-5.06443e-19
1.75618e-21
5.08506e-05
-4.50294e-18
-3.52488e-21
-5.22997e-19
1.77533e-21
5.20028e-05
-4.48855e-18
-3.66657e-21
-5.33363e-19
1.79336e-21
5.31793e-05
-4.48228e-18
-3.81086e-21
-5.47935e-19
1.80234e-21
5.43805e-05
-4.45962e-18
-3.95027e-21
-5.61516e-19
1.79998e-21
5.56069e-05
-4.43691e-18
-4.10163e-21
-5.71439e-19
1.79935e-21
5.68591e-05
-4.42206e-18
-4.25231e-21
-5.89195e-19
1.79312e-21
5.81377e-05
-4.40274e-18
-4.40466e-21
-6.04657e-19
1.78445e-21
5.94432e-05
-4.38411e-18
-4.5505e-21
-6.24782e-19
1.77887e-21
6.07761e-05
-4.36487e-18
-4.68798e-21
-6.33651e-19
1.7689e-21
6.21371e-05
-4.35459e-18
-4.83325e-21
-6.54514e-19
1.75176e-21
6.35267e-05
-4.33393e-18
-4.95895e-21
-6.64945e-19
1.73171e-21
6.49456e-05
-4.29519e-18
-5.07708e-21
-6.76404e-19
1.69331e-21
6.63943e-05
-4.27853e-18
-5.21025e-21
-6.86962e-19
1.626e-21
6.78735e-05
-4.25329e-18
-5.33763e-21
-7.08232e-19
1.55254e-21
6.93838e-05
-4.22856e-18
-5.48222e-21
-7.28342e-19
1.47251e-21
7.09258e-05
-4.21082e-18
-5.62172e-21
-7.58944e-19
1.38062e-21
7.25003e-05
-4.19268e-18
-5.75399e-21
-7.75509e-19
1.30963e-21
7.41079e-05
-4.16764e-18
-5.8977e-21
-8.03583e-19
1.24294e-21
7.57493e-05
-4.13359e-18
-6.0417e-21
-8.39927e-19
1.19594e-21
7.74253e-05
-4.0842e-18
-6.19769e-21
-8.77133e-19
1.18827e-21
7.91365e-05
-4.03999e-18
-6.38718e-21
-9.04226e-19
1.19358e-21
8.08836e-05
-4.02551e-18
-6.59433e-21
-9.08026e-19
1.20788e-21
8.26675e-05
-3.99483e-18
-6.78818e-21
-9.36363e-19
1.16325e-21
8.44888e-05
-3.9586e-18
-6.96124e-21
-9.66695e-19
1.09948e-21
8.63485e-05
-3.92969e-18
-7.13894e-21
-1.00213e-18
1.07394e-21
8.82472e-05
-3.8969e-18
-7.27772e-21
-1.02354e-18
1.0114e-21
9.01858e-05
-3.86259e-18
-7.44462e-21
-1.04155e-18
9.15273e-22
9.21651e-05
-3.79644e-18
-7.6053e-21
-1.0792e-18
8.07424e-22
9.4186e-05
-3.78501e-18
-7.85185e-21
-1.0833e-18
7.86947e-22
9.62493e-05
-3.76881e-18
-8.05044e-21
-1.09164e-18
7.96513e-22
9.8356e-05
-3.75122e-18
-8.23652e-21
-1.09458e-18
8.43353e-22
0.000100507
-3.74251e-18
-8.42182e-21
-1.08484e-18
8.70979e-22
0.000102703
-3.71346e-18
-8.53735e-21
-1.0964e-18
8.78164e-22
0.000104945
-3.69765e-18
-8.67755e-21
-1.11718e-18
8.75847e-22
0.000107234
-3.66556e-18
-8.79377e-21
-1.13139e-18
8.66917e-22
0.000109571
-3.64252e-18
-8.96285e-21
-1.14648e-18
8.58013e-22
0.000111957
-3.62723e-18
-9.14628e-21
-1.14406e-18
8.57093e-22
0.000114393
-3.60278e-18
-9.2333e-21
-1.14198e-18
8.58763e-22
0.00011688
-3.55598e-18
-9.34737e-21
-1.16971e-18
8.14218e-22
0.00011942
-3.52051e-18
-9.5521e-21
-1.17717e-18
8.17497e-22
0.000122012
-3.50722e-18
-9.71626e-21
-1.19383e-18
7.97364e-22
0.000124659
-3.44986e-18
-9.80268e-21
-1.23807e-18
7.30646e-22
0.000127361
-3.42339e-18
-9.97129e-21
-1.26208e-18
7.40309e-22
0.000130119
-3.37946e-18
-1.0142e-20
-1.27608e-18
7.9982e-22
0.000132936
-3.33601e-18
-1.04319e-20
-1.28734e-18
8.21474e-22
0.000135811
-3.34091e-18
-1.08787e-20
-1.28412e-18
8.13107e-22
0.000138746
-3.35033e-18
-1.12287e-20
-1.31098e-18
5.69101e-22
0.000141743
-3.28619e-18
-1.13773e-20
-1.34127e-18
2.00262e-22
0.000144802
-3.24848e-18
-1.16429e-20
-1.36378e-18
-1.3438e-22
0.000147926
-3.25168e-18
-1.19258e-20
-1.3684e-18
-5.59059e-22
0.000151114
-3.22005e-18
-1.2014e-20
-1.38871e-18
-1.06378e-21
0.000154369
-3.17516e-18
-1.21909e-20
-1.40829e-18
-1.70137e-21
0.000157692
-3.14867e-18
-1.24769e-20
-1.4478e-18
-2.40551e-21
0.000161084
-3.10399e-18
-1.27898e-20
-1.46436e-18
-2.72635e-21
0.000164547
-3.07399e-18
-1.31352e-20
-1.47265e-18
-3.17316e-21
0.000168082
-3.03226e-18
-1.32463e-20
-1.50938e-18
-3.65022e-21
0.000171691
-2.98759e-18
-1.34647e-20
-1.52328e-18
-3.75203e-21
0.000175375
-2.95605e-18
-1.35595e-20
-1.56866e-18
-3.98936e-21
0.000179136
-2.92567e-18
-1.36761e-20
-1.58517e-18
-4.20576e-21
0.000182975
-2.87301e-18
-1.38173e-20
-1.59991e-18
-4.28554e-21
0.000186893
-2.86104e-18
-1.41095e-20
-1.60651e-18
-4.38507e-21
0.000190894
-2.8362e-18
-1.42185e-20
-1.608e-18
-4.36206e-21
0.000194977
-2.8021e-18
-1.42375e-20
-1.60888e-18
-4.08867e-21
0.000199145
-2.76829e-18
-1.42379e-20
-1.63876e-18
-3.99104e-21
0.0002034
-2.73402e-18
-1.41396e-20
-1.62243e-18
-3.7878e-21
0.000207743
-2.70115e-18
-1.40153e-20
-1.63229e-18
-3.87786e-21
0.000212176
-2.69686e-18
-1.41159e-20
-1.6237e-18
-3.84851e-21
0.000216701
-2.65572e-18
-1.37797e-20
-1.61507e-18
-3.99611e-21
0.000221319
-2.62731e-18
-1.35224e-20
-1.63091e-18
-4.35217e-21
0.000226034
-2.53987e-18
-1.31954e-20
-1.67574e-18
-4.57238e-21
0.000230846
-2.54357e-18
-1.34008e-20
-1.65745e-18
-4.47904e-21
0.000235757
-2.52696e-18
-1.35118e-20
-1.67959e-18
-4.44249e-21
0.00024077
-2.51275e-18
-1.35494e-20
-1.67179e-18
-4.25107e-21
0.000245887
-2.48135e-18
-1.36504e-20
-1.69642e-18
-4.43687e-21
0.000251109
-2.38032e-18
-1.35333e-20
-1.69644e-18
-4.52896e-21
0.000256439
-2.32966e-18
-1.40677e-20
-1.72495e-18
-4.9434e-21
0.000261878
-2.28686e-18
-1.53452e-20
-1.75166e-18
-5.16268e-21
0.00026743
-2.29866e-18
-1.62762e-20
-1.75466e-18
-5.33682e-21
0.000273096
-2.26805e-18
-1.60513e-20
-1.82032e-18
-6.45311e-21
0.000278879
-2.22955e-18
-1.56084e-20
-1.90525e-18
-7.1499e-21
0.00028478
-2.21509e-18
-1.6618e-20
-1.8895e-18
-7.27829e-21
0.000290803
-2.1863e-18
-1.67514e-20
-1.93466e-18
-8.09996e-21
0.000296949
-2.16774e-18
-1.65884e-20
-1.9435e-18
-9.50504e-21
0.000303222
-2.11798e-18
-1.66092e-20
-1.97195e-18
-1.16469e-20
0.000309623
-2.10402e-18
-1.652e-20
-1.93801e-18
-1.2053e-20
0.000316155
-2.08309e-18
-1.65512e-20
-1.96245e-18
-1.36753e-20
0.00032282
-2.07846e-18
-1.6937e-20
-1.9608e-18
-1.55871e-20
0.000329622
-2.05947e-18
-1.7774e-20
-1.96841e-18
-1.78409e-20
0.000336562
-2.05177e-18
-1.8023e-20
-1.93167e-18
-1.93361e-20
0.000343644
-1.91577e-18
-1.79794e-20
-2.03386e-18
-2.14904e-20
0.00035087
-1.90736e-18
-2.02457e-20
-2.02639e-18
-2.07721e-20
0.000358243
-1.97447e-18
-2.32386e-20
-1.99921e-18
-2.08193e-20
0.000365766
-1.97427e-18
-2.38969e-20
-1.95813e-18
-2.10412e-20
0.000373441
-1.93229e-18
-2.38553e-20
-1.83011e-18
-2.23864e-20
0.000381272
-1.93074e-18
-2.53958e-20
-1.83715e-18
-2.60813e-20
0.000389261
-1.89147e-18
-2.57774e-20
-1.78526e-18
-2.6113e-20
0.000397412
-1.85157e-18
-2.71179e-20
-1.75887e-18
-2.7385e-20
0.000405727
-1.75592e-18
-2.90571e-20
-1.72073e-18
-2.90183e-20
0.00041421
-1.71911e-18
-3.1214e-20
-1.72045e-18
-2.87253e-20
0.000422863
-1.66522e-18
-3.29786e-20
-1.68438e-18
-2.67103e-20
0.00043169
-1.61518e-18
-3.36965e-20
-1.65741e-18
-2.47247e-20
0.000440693
-1.60457e-18
-3.32797e-20
-1.58934e-18
-2.40845e-20
0.000449877
-1.51988e-18
-2.83136e-20
-1.55798e-18
-2.32729e-20
0.000459244
-1.47633e-18
-2.22719e-20
-1.49542e-18
-2.29915e-20
0.000468798
-1.45872e-18
-1.62206e-20
-1.4451e-18
-2.22561e-20
0.000478542
-1.38498e-18
-1.16123e-20
-1.45308e-18
-2.11414e-20
0.000488478
-1.43748e-18
-8.83759e-21
-1.40063e-18
-2.14785e-20
0.000498612
-1.36784e-18
-7.51146e-21
-1.40837e-18
-2.58587e-20
0.000508945
-1.40353e-18
-9.73776e-21
-1.43229e-18
-2.98072e-20
0.000519481
-1.39836e-18
-1.59839e-20
-1.39592e-18
-3.36973e-20
0.000530224
-1.46372e-18
-2.4339e-20
-1.24803e-18
-3.41149e-20
0.000541178
-1.40361e-18
-2.63644e-20
-1.353e-18
-4.00311e-20
0.000552344
-1.41343e-18
-2.96256e-20
-1.33762e-18
-4.44381e-20
0.000563728
-1.48734e-18
-3.78913e-20
-1.35156e-18
-4.81256e-20
0.000575332
-1.29316e-18
-3.7154e-20
-1.2945e-18
-4.93776e-20
0.00058716
-1.26029e-18
-4.50765e-20
-1.26787e-18
-5.29653e-20
0.000599215
-1.21262e-18
-5.40609e-20
-1.25722e-18
-4.37221e-20
0.0006115
-1.20957e-18
-5.22515e-20
-1.23739e-18
-3.60089e-20
0.000624019
-1.21955e-18
-5.05852e-20
-1.25795e-18
-3.21149e-20
0.000636775
-1.23473e-18
-5.22203e-20
-1.16478e-18
-2.75491e-20
0.00064977
-1.1479e-18
-4.63901e-20
-1.22221e-18
-3.8171e-20
0.000663009
-1.1136e-18
-4.5331e-20
-1.20107e-18
-4.00629e-20
0.000676494
-1.25536e-18
-5.11942e-20
-1.19346e-18
-3.82249e-20
0.000690228
-1.04967e-18
-4.31272e-20
-1.14757e-18
-4.16191e-20
0.000704213
-1.04436e-18
-4.1128e-20
-1.20544e-18
-4.33128e-20
0.000718453
-9.66915e-19
-3.98011e-20
-1.21822e-18
-3.38913e-20
0.000732949
-9.89021e-19
-4.57946e-20
-1.18271e-18
-3.09026e-20
0.000747703
-1.17131e-18
-5.3204e-20
-1.01926e-18
-2.50983e-20
0.000762717
-9.76136e-19
-3.97526e-20
-1.13339e-18
-2.51349e-20
0.000777993
-1.10083e-18
-4.82166e-20
-1.15797e-18
-2.15264e-20
0.000793532
-1.24734e-18
-5.06937e-20
-1.22277e-18
-2.22283e-20
0.000809335
-1.17891e-18
-4.5261e-20
-1.19487e-18
-1.61127e-20
0.000825401
-1.34376e-18
-5.58873e-20
-1.15935e-18
-1.69896e-20
0.000841732
-1.3329e-18
-6.47172e-20
-1.13015e-18
-1.99262e-20
0.000858325
-1.32039e-18
-5.62215e-20
-1.0573e-18
-3.09926e-20
0.000875179
-1.28362e-18
-4.36081e-20
-1.11574e-18
-3.41298e-20
0.000892293
-1.09952e-18
-2.7316e-20
-9.57148e-19
-1.96902e-20
0.000909664
-9.4368e-19
-2.80426e-20
-9.55389e-19
-1.50169e-20
0.000927287
-8.29283e-19
-1.83423e-20
-8.43641e-19
-6.66636e-21
0.00094516
-7.8454e-19
-1.49157e-20
-7.80868e-19
-1.56454e-21
0.000963276
-8.12369e-19
-2.61161e-20
-8.04281e-19
-1.04648e-20
0.000981629
-7.13453e-19
-3.49928e-20
-8.78182e-19
-1.04485e-20
0.00100021
-5.9868e-19
-3.1575e-20
-7.72266e-19
1.339e-20
0.00101902
-1.90032e-20
-7.5172e-19
3.42204e-20
-6.80768e-19
5.27474e-08
-2.6454e-22
7.11757e-23
1.62179e-07
-1.0906e-21
3.95686e-23
2.77718e-07
-1.93295e-21
-2.31909e-23
3.9963e-07
-2.81116e-21
-7.76561e-23
5.28192e-07
-3.96093e-21
1.04872e-22
6.63688e-07
-4.93909e-21
2.93338e-22
8.06411e-07
-5.88574e-21
2.57516e-22
9.56655e-07
-6.75549e-21
1.20623e-22
1.11471e-06
-7.23818e-21
-4.13316e-22
1.28087e-06
-8.11977e-21
-6.71108e-22
1.45538e-06
-9.41973e-21
-6.683e-22
1.63846e-06
-1.05916e-20
-7.09142e-22
1.83029e-06
-1.17225e-20
-9.73784e-22
2.03092e-06
-1.32508e-20
-8.19134e-22
2.24036e-06
-1.42583e-20
-1.13268e-21
2.45844e-06
-1.49571e-20
-1.58891e-21
2.68489e-06
-1.68165e-20
-1.24744e-21
2.91929e-06
-1.74909e-20
-2.00423e-21
3.1611e-06
-1.87019e-20
-2.06035e-21
3.40968e-06
-2.00098e-20
-1.87115e-21
3.66432e-06
-2.18911e-20
-1.48172e-21
3.9243e-06
-2.34515e-20
-8.7956e-22
4.18892e-06
-2.48829e-20
-1.96381e-21
4.45755e-06
-2.62642e-20
-2.06784e-21
4.72962e-06
-2.755e-20
-2.45813e-21
5.00471e-06
-2.95053e-20
-2.43719e-21
5.28246e-06
-3.09145e-20
-2.52476e-21
5.56265e-06
-3.22857e-20
-3.11798e-21
5.84513e-06
-3.2261e-20
-4.71083e-21
6.12985e-06
-3.31371e-20
-5.23889e-21
6.41682e-06
-3.4975e-20
-4.72764e-21
6.70612e-06
-3.54347e-20
-4.25391e-21
6.99785e-06
-3.66704e-20
-4.877e-21
7.29215e-06
-3.72767e-20
-3.90732e-21
7.58921e-06
-3.74977e-20
-4.37988e-21
7.8892e-06
-3.71158e-20
-4.22142e-21
8.19234e-06
-3.69948e-20
-3.65076e-21
8.49883e-06
-3.68044e-20
-4.86078e-21
8.80888e-06
-3.97696e-20
-2.78685e-21
9.12273e-06
-4.02756e-20
-2.85518e-21
9.44058e-06
-4.26301e-20
-1.91264e-21
9.76266e-06
-4.27614e-20
-1.39145e-21
1.00892e-05
-4.48197e-20
-2.22492e-21
1.04204e-05
-4.5242e-20
2.76014e-23
1.07565e-05
-4.65917e-20
9.97511e-22
1.10976e-05
-4.73185e-20
3.40149e-21
1.14441e-05
-4.6513e-20
4.32281e-21
1.17962e-05
-4.69992e-20
5.06402e-21
1.21539e-05
-4.65626e-20
4.3831e-21
1.25177e-05
-4.57922e-20
4.74074e-21
1.28875e-05
-4.63573e-20
4.58209e-21
1.32638e-05
-4.68331e-20
4.76807e-21
1.36467e-05
-5.10334e-20
8.13398e-21
1.40363e-05
-5.19373e-20
9.38344e-21
1.44329e-05
-5.40025e-20
9.96003e-21
1.48368e-05
-5.39545e-20
1.23417e-20
1.52481e-05
-5.1525e-20
1.24673e-20
1.5667e-05
-5.83053e-20
1.56448e-20
1.60938e-05
-5.85287e-20
1.65708e-20
1.65287e-05
-5.9943e-20
1.57333e-20
1.69719e-05
-5.83691e-20
1.39329e-20
1.74235e-05
-5.92576e-20
1.0961e-20
1.7884e-05
-6.0831e-20
9.94066e-21
1.83533e-05
-6.30739e-20
1.32699e-20
1.88319e-05
-6.22353e-20
1.39992e-20
1.93198e-05
-5.97886e-20
1.08156e-20
1.98175e-05
-6.26033e-20
1.17039e-20
2.0325e-05
-6.41005e-20
9.39222e-21
2.08426e-05
-6.69891e-20
1.01939e-20
2.13706e-05
-6.22266e-20
6.05566e-21
2.19092e-05
-6.07573e-20
7.47532e-21
2.24587e-05
-6.2254e-20
6.16759e-21
2.30193e-05
-7.06556e-20
1.10029e-20
2.35912e-05
-7.19288e-20
8.51034e-21
2.41748e-05
-6.94402e-20
1.34655e-20
2.47704e-05
-7.6619e-20
1.56019e-20
2.53781e-05
-7.40385e-20
1.21863e-20
2.59982e-05
-8.28736e-20
1.6707e-20
2.66311e-05
-8.43951e-20
1.61926e-20
2.7277e-05
-8.30446e-20
1.66442e-20
2.79362e-05
-8.32717e-20
1.80228e-20
2.86091e-05
-8.4381e-20
2.19775e-20
2.92958e-05
-8.28534e-20
2.15079e-20
2.99968e-05
-8.21882e-20
2.14242e-20
3.07123e-05
-7.96768e-20
2.40569e-20
3.14427e-05
-7.58667e-20
1.77821e-20
3.21883e-05
-7.24807e-20
2.13507e-20
3.29493e-05
-6.21817e-20
2.09751e-20
3.37263e-05
-6.18466e-20
1.84086e-20
3.45194e-05
-6.58233e-20
2.40512e-20
3.53291e-05
-6.64695e-20
2.85115e-20
3.61557e-05
-6.41412e-20
2.4958e-20
3.69995e-05
-7.18186e-20
1.98459e-20
3.7861e-05
-7.25293e-20
2.60212e-20
3.87406e-05
-7.30464e-20
3.53943e-20
3.96385e-05
-7.58992e-20
4.34548e-20
4.05553e-05
-8.17273e-20
4.95483e-20
4.14913e-05
-8.36965e-20
4.8684e-20
4.24469e-05
-8.69785e-20
5.03327e-20
4.34226e-05
-8.31314e-20
4.70945e-20
4.44187e-05
-8.43943e-20
4.63136e-20
4.54358e-05
-8.81576e-20
5.59875e-20
4.64742e-05
-9.02057e-20
5.73706e-20
4.75344e-05
-9.00824e-20
5.70879e-20
4.86169e-05
-8.878e-20
5.9813e-20
4.97221e-05
-8.51442e-20
5.99714e-20
5.08506e-05
-8.1788e-20
5.87707e-20
5.20028e-05
-8.17379e-20
5.79583e-20
5.31793e-05
-8.58094e-20
4.46972e-20
5.43805e-05
-9.8332e-20
4.82319e-20
5.56069e-05
-9.19422e-20
5.01977e-20
5.68591e-05
-9.22833e-20
4.77793e-20
5.81377e-05
-8.35376e-20
5.5707e-20
5.94432e-05
-8.09554e-20
5.62789e-20
6.07761e-05
-9.47175e-20
6.26822e-20
6.21371e-05
-8.64185e-20
6.3653e-20
6.35267e-05
-8.17788e-20
6.38396e-20
6.49456e-05
-8.60965e-20
5.30907e-20
6.63943e-05
-9.25352e-20
6.38481e-20
6.78735e-05
-1.03024e-19
6.03479e-20
6.93838e-05
-8.97977e-20
5.60747e-20
7.09258e-05
-8.36939e-20
6.10688e-20
7.25003e-05
-9.44975e-20
5.66431e-20
7.41079e-05
-9.40485e-20
5.8435e-20
7.57493e-05
-9.70157e-20
7.12378e-20
7.74253e-05
-9.84762e-20
6.17821e-20
7.91365e-05
-9.34272e-20
6.58792e-20
8.08836e-05
-1.02358e-19
6.5356e-20
8.26675e-05
-9.49387e-20
5.95457e-20
8.44888e-05
-9.75497e-20
7.84478e-20
8.63485e-05
-8.20048e-20
6.29701e-20
8.82472e-05
-1.04243e-19
6.61555e-20
9.01858e-05
-1.06696e-19
5.74875e-20
9.21651e-05
-1.2801e-19
5.59844e-20
9.4186e-05
-1.32818e-19
6.5493e-20
9.62493e-05
-1.4603e-19
8.37304e-20
9.8356e-05
-1.6e-19
7.24661e-20
0.000100507
-1.45308e-19
6.57393e-20
0.000102703
-1.48137e-19
4.61389e-20
0.000104945
-1.45464e-19
3.32337e-20
0.000107234
-1.5374e-19
2.6276e-20
0.000109571
-1.52212e-19
1.16251e-20
0.000111957
-1.24856e-19
1.89493e-20
0.000114393
-1.39071e-19
1.58613e-20
0.00011688
-1.57427e-19
1.41846e-20
0.00011942
-1.52714e-19
1.0577e-20
0.000122012
-1.63184e-19
-2.28728e-21
0.000124659
-1.74206e-19
-9.50081e-21
0.000127361
-1.84797e-19
-2.17925e-20
0.000130119
-2.13319e-19
-5.46534e-20
0.000132936
-2.39491e-19
-4.9108e-20
0.000135811
-2.39282e-19
-5.35109e-20
0.000138746
-2.27252e-19
-6.00385e-20
0.000141743
-2.21151e-19
-5.26168e-20
0.000144802
-2.24539e-19
-8.27722e-20
0.000147926
-2.24832e-19
-7.91097e-20
0.000151114
-2.43665e-19
-9.25998e-20
0.000154369
-2.53399e-19
-1.07965e-19
0.000157692
-2.68008e-19
-7.47847e-20
0.000161084
-2.65864e-19
-1.04411e-19
0.000164547
-2.31247e-19
-1.04809e-19
0.000168082
-2.48515e-19
-8.92292e-20
0.000171691
-2.17296e-19
-1.18178e-19
0.000175375
-2.22514e-19
-1.34693e-19
0.000179136
-2.26071e-19
-1.02693e-19
0.000182975
-2.35298e-19
-9.27355e-20
0.000186893
-2.40202e-19
-1.03947e-19
0.000190894
-2.5131e-19
-9.4651e-20
0.000194977
-2.58078e-19
-1.02065e-19
0.000199145
-2.47565e-19
-1.1261e-19
0.0002034
-2.5446e-19
-1.45769e-19
0.000207743
-2.98978e-19
-1.2693e-19
0.000212176
-2.73862e-19
-1.33601e-19
0.000216701
-2.80359e-19
-1.56758e-19
0.000221319
-2.8735e-19
-1.68167e-19
0.000226034
-2.87512e-19
-1.88755e-19
0.000230846
-3.02043e-19
-1.85741e-19
0.000235757
-2.93497e-19
-1.95484e-19
0.00024077
-3.2069e-19
-2.10559e-19
0.000245887
-3.26581e-19
-2.06969e-19
0.000251109
-3.3986e-19
-2.1405e-19
0.000256439
-4.10193e-19
-2.24001e-19
0.000261878
-3.8143e-19
-2.2121e-19
0.00026743
-3.20726e-19
-2.19843e-19
0.000273096
-2.70681e-19
-2.21932e-19
0.000278879
-3.43685e-19
-2.77495e-19
0.00028478
-3.02038e-19
-2.82172e-19
0.000290803
-2.99289e-19
-3.2058e-19
0.000296949
-3.21532e-19
-3.71256e-19
0.000303222
-2.88334e-19
-2.92548e-19
0.000309623
-3.03709e-19
-3.48443e-19
0.000316155
-3.23041e-19
-4.00743e-19
0.00032282
-3.64709e-19
-4.01994e-19
0.000329622
-3.36987e-19
-3.41748e-19
0.000336562
-3.46761e-19
-3.51263e-19
0.000343644
-3.45431e-19
-3.36973e-19
0.00035087
-3.74205e-19
-3.8648e-19
0.000358243
-3.53311e-19
-3.63197e-19
0.000365766
-3.54204e-19
-3.76623e-19
0.000373441
-4.17222e-19
-4.13035e-19
0.000381272
-4.16724e-19
-3.32553e-19
0.000389261
-4.7686e-19
-3.57812e-19
0.000397412
-5.0995e-19
-3.84104e-19
0.000405727
-4.79295e-19
-3.3666e-19
0.00041421
-5.08839e-19
-3.39181e-19
0.000422863
-5.09592e-19
-3.27753e-19
0.00043169
-4.86206e-19
-3.62795e-19
0.000440693
-3.64936e-19
-3.49496e-19
0.000449877
-2.9253e-19
-4.13411e-19
0.000459244
-2.99684e-19
-4.42874e-19
0.000468798
-3.72678e-19
-4.62231e-19
0.000478542
-3.93915e-19
-5.11572e-19
0.000488478
-5.0447e-19
-5.31526e-19
0.000498612
-4.9183e-19
-4.82807e-19
0.000508945
-5.86431e-19
-5.4096e-19
0.000519481
-6.47025e-19
-5.31069e-19
0.000530224
-5.85005e-19
-5.62404e-19
0.000541178
-5.46524e-19
-6.26503e-19
0.000552344
-6.56961e-19
-5.92625e-19
0.000563728
-5.58876e-19
-4.96946e-19
0.000575332
-5.97761e-19
-4.89266e-19
0.00058716
-6.25484e-19
-2.99875e-19
0.000599215
-3.94569e-19
-3.41397e-19
0.0006115
-4.02006e-19
-3.43948e-19
0.000624019
-4.62719e-19
-3.52806e-19
0.000636775
-3.61685e-19
-5.26622e-19
0.00064977
-3.81077e-19
-5.06003e-19
0.000663009
-4.71727e-19
-4.97148e-19
0.000676494
-4.3578e-19
-5.02765e-19
0.000690228
-3.62823e-19
-4.44573e-19
0.000704213
-3.47024e-19
-3.96976e-19
0.000718453
-3.14513e-19
-4.4818e-19
0.000732949
-3.38158e-19
-3.56761e-19
0.000747703
-2.44457e-19
-2.61019e-19
0.000762717
-2.46709e-19
-2.52108e-19
0.000777993
-2.46926e-19
-3.00365e-19
0.000793532
-3.24447e-19
-3.34557e-19
0.000809335
-4.33638e-19
-4.0429e-19
0.000825401
-6.05761e-19
-3.73617e-19
0.000841732
-5.15459e-19
-5.29649e-19
0.000858325
-5.77678e-19
-5.48173e-19
0.000875179
-5.81588e-19
-4.97249e-19
0.000892293
-6.21474e-19
-4.59282e-19
0.000909664
-4.74653e-19
-5.55724e-19
0.000927287
-4.43802e-19
-5.38244e-19
0.00094516
-4.42501e-19
-4.92886e-19
0.000963276
-4.76187e-19
-4.44306e-19
0.000981629
-4.03051e-19
-4.45378e-19
0.00100021
-2.89534e-19
-3.8158e-19
0.00101902
-5.17267e-19
-3.76332e-19
0.00101902
-6.92689e-19
-1.31604e-20
-6.31954e-19
3.98954e-20
0.00100021
-4.99541e-19
-1.8817e-20
-3.59826e-19
3.69837e-20
0.000981629
-3.91406e-19
-2.08997e-20
-4.82249e-19
2.59264e-21
0.000963276
-4.14974e-19
-2.56878e-20
-3.99939e-19
-4.28524e-21
0.00094516
-3.90153e-19
-2.0714e-20
-3.77647e-19
1.06836e-21
0.000927287
-3.16502e-19
-2.81916e-20
-3.83583e-19
6.28056e-21
0.000909664
-4.75808e-19
-2.85888e-20
-4.2546e-19
-1.20337e-20
0.000892293
-3.9925e-19
-1.44127e-20
-5.03283e-19
-5.10588e-21
0.000875179
-3.47194e-19
-2.26416e-20
-4.70753e-19
-1.15169e-21
0.000858325
-4.74659e-19
-3.77738e-20
-3.82716e-19
-1.58074e-20
0.000841732
-3.92117e-19
-2.91891e-20
-3.66137e-19
-1.79122e-20
0.000825401
-4.57246e-19
-3.05475e-20
-3.71221e-19
-3.38408e-20
0.000809335
-4.27868e-19
-1.27822e-20
-4.02626e-19
-3.02893e-20
0.000793532
-3.92939e-19
-1.29677e-20
-3.37865e-19
-1.76456e-20
0.000777993
-2.16567e-19
-1.62302e-20
-4.38717e-19
-1.48806e-20
0.000762717
-3.91982e-19
-2.19691e-20
-2.12162e-19
1.89231e-23
0.000747703
-3.23196e-19
-1.25742e-20
-2.85121e-19
-5.0298e-21
0.000732949
-2.15009e-19
-9.1882e-21
-2.78023e-19
-2.20833e-21
0.000718453
-2.5494e-19
-8.32028e-21
-1.84171e-19
1.06651e-21
0.000704214
-2.36471e-19
-7.70265e-21
-2.74427e-19
3.67439e-22
0.000690228
-2.84923e-19
-4.23188e-21
-2.29486e-19
-5.91199e-22
0.000676494
-2.16256e-19
-1.33205e-21
-2.69124e-19
-1.06231e-20
0.000663009
-2.36609e-19
-3.16243e-22
-1.8528e-19
-1.30864e-20
0.00064977
-2.74049e-19
3.97104e-21
-1.47096e-19
-1.45619e-20
0.000636775
-1.66352e-19
7.0042e-22
-2.09727e-19
-1.35286e-20
0.000624019
-1.44065e-19
-4.81229e-21
-2.00036e-19
-7.92788e-21
0.0006115
-1.85153e-19
-6.10794e-21
-2.20483e-19
-7.29685e-21
0.000599215
-2.68768e-19
-6.15354e-21
-3.05219e-19
-7.55785e-21
0.00058716
-3.05977e-19
-3.49321e-21
-3.45929e-19
-6.55424e-21
0.000575332
-3.15134e-19
-2.59263e-21
-3.1052e-19
-3.47724e-21
0.000563728
-3.08864e-19
-3.37611e-21
-2.69618e-19
-2.48911e-21
0.000552344
-3.02246e-19
2.59354e-21
-2.87595e-19
-1.71226e-21
0.000541178
-2.39133e-19
5.95869e-21
-2.92587e-19
-1.49589e-21
0.000530224
-2.89743e-19
3.14674e-21
-3.19913e-19
-2.67349e-22
0.000519481
-3.97913e-19
6.1092e-21
-3.36082e-19
-3.63027e-21
0.000508945
-4.49485e-19
8.40012e-21
-3.30007e-19
-4.89121e-21
0.000498612
-2.61949e-19
7.37561e-21
-2.7429e-19
-6.18772e-21
0.000488478
-3.602e-19
5.23582e-21
-3.587e-19
-6.11138e-21
0.000478542
-4.1431e-19
3.27278e-21
-3.56855e-19
-3.56901e-21
0.000468798
-2.97375e-19
3.85834e-21
-3.32914e-19
-2.41238e-21
0.000459244
-2.76558e-19
3.33732e-21
-3.97658e-19
-3.06173e-21
0.000449877
-2.55038e-19
1.48389e-21
-3.89356e-19
-2.27387e-21
0.000440693
-3.23577e-19
-8.68602e-22
-2.79084e-19
-2.51804e-21
0.00043169
-2.89479e-19
-5.82092e-22
-2.7342e-19
-4.78482e-21
0.000422863
-3.19753e-19
-1.21979e-22
-2.75068e-19
-4.73649e-21
0.00041421
-3.24333e-19
1.37773e-21
-2.93798e-19
-4.32751e-21
0.000405727
-2.58423e-19
2.16951e-21
-2.95167e-19
-4.71408e-21
0.000397412
-2.17605e-19
1.77048e-21
-2.78337e-19
-2.36544e-21
0.000389261
-2.18643e-19
1.54702e-21
-2.76339e-19
-3.00237e-21
0.000381272
-2.20496e-19
8.84362e-22
-3.09725e-19
-5.01346e-21
0.000373441
-2.2745e-19
1.26165e-21
-2.78069e-19
-4.42088e-21
0.000365766
-1.83264e-19
2.23399e-21
-2.48932e-19
-4.28554e-21
0.000358243
-2.3897e-19
2.39718e-21
-1.86421e-19
-2.42007e-21
0.00035087
-2.02447e-19
3.34457e-21
-1.80507e-19
-2.22202e-21
0.000343644
-2.05591e-19
3.03844e-21
-1.61851e-19
-2.22418e-21
0.000336562
-2.01261e-19
3.33872e-21
-1.683e-19
-2.0062e-21
0.000329622
-1.50629e-19
3.53765e-21
-1.77841e-19
-1.86827e-21
0.00032282
-1.47609e-19
2.9336e-21
-1.727e-19
-2.06975e-21
0.000316155
-1.13441e-19
2.0172e-21
-1.9279e-19
-2.65337e-21
0.000309623
-1.26286e-19
1.62339e-21
-1.86879e-19
-3.41595e-21
0.000303222
-7.37721e-20
1.77708e-21
-1.97546e-19
-4.12688e-21
0.00029695
-1.1016e-19
7.39075e-22
-1.42804e-19
-3.51358e-21
0.000290803
-1.46714e-19
4.38801e-22
-9.8236e-20
-3.15546e-21
0.00028478
-1.77538e-19
1.27737e-21
-1.3134e-19
-3.93695e-21
0.000278879
-1.60077e-19
2.8443e-21
-8.99316e-20
-3.70825e-21