/*--------------------------------*- C++ -*----------------------------------*\
| =========                 |                                                 |
| \\      /  F ield         | OpenFOAM: The Open Source CFD Toolbox           |
|  \\    /   O peration     | Version:  2106                                  |
|   \\  /    A nd           | Website:  www.openfoam.com                      |
|    \\/     M anipulation  |                                                 |
\*---------------------------------------------------------------------------*/
FoamFile
{
    version     2.0;
    format      ascii;
    arch        "LSB;label=32;scalar=64";
    class       volSymmTensorField;
    location    "10100";
    object      turbulenceProperties:R;
}
// * * * * * * * * * * * * * * * * * * * * * * * * * * * * * * * * * * * * * //

dimensions      [0 2 -2 0 0 0 0];

internalField   nonuniform List<symmTensor> 
2000
(
(7.06839e-07 -1.74752e-10 -3.23433e-13 7.06839e-07 5.95244e-25 7.06839e-07)
(7.06839e-07 -1.74752e-10 -3.23433e-13 7.06839e-07 -7.77633e-29 7.06839e-07)
(1.48347e-07 -2.11274e-10 -1.18046e-12 1.48347e-07 1.18251e-25 1.48347e-07)
(1.48347e-07 -2.11274e-10 -1.18046e-12 1.48347e-07 -8.43226e-29 1.48347e-07)
(3.56069e-07 -1.50142e-09 -1.16396e-11 3.56069e-07 5.03932e-25 3.56069e-07)
(3.56069e-07 -1.50142e-09 -1.16396e-11 3.56069e-07 -3.51563e-28 3.56069e-07)
(1.22083e-06 -1.09596e-08 -8.6549e-11 1.22083e-06 3.63421e-24 1.22083e-06)
(1.22083e-06 -1.09596e-08 -8.6549e-11 1.22083e-06 -5.86293e-27 1.22083e-06)
(3.19269e-06 -5.07614e-08 -4.08345e-10 3.19269e-06 1.63179e-23 3.19269e-06)
(3.19269e-06 -5.07614e-08 -4.08345e-10 3.19269e-06 -3.25118e-26 3.19269e-06)
(6.87113e-06 -1.7261e-07 -1.41443e-09 6.87113e-06 5.15604e-23 6.87113e-06)
(6.87113e-06 -1.7261e-07 -1.41443e-09 6.87113e-06 -1.18594e-25 6.87113e-06)
(1.29731e-05 -4.76815e-07 -3.9799e-09 1.29731e-05 1.4552e-22 1.29731e-05)
(1.29731e-05 -4.76815e-07 -3.9799e-09 1.29731e-05 -2.62117e-25 1.29731e-05)
(2.23294e-05 -1.13619e-06 -9.65965e-09 2.23294e-05 3.55108e-22 2.23294e-05)
(2.23294e-05 -1.13619e-06 -9.65965e-09 2.23294e-05 -5.42724e-25 2.23294e-05)
(3.58831e-05 -2.42412e-06 -2.09905e-08 3.58831e-05 7.70647e-22 3.58831e-05)
(3.58831e-05 -2.42412e-06 -2.09905e-08 3.58831e-05 -1.28847e-24 3.58831e-05)
(5.46838e-05 -4.74481e-06 -4.1841e-08 5.46838e-05 1.52495e-21 5.46838e-05)
(5.46838e-05 -4.74481e-06 -4.1841e-08 5.46838e-05 -2.33414e-24 5.46838e-05)
(7.98751e-05 -8.66173e-06 -7.77757e-08 7.98751e-05 2.79757e-21 7.98751e-05)
(7.98751e-05 -8.66173e-06 -7.77757e-08 7.98751e-05 -3.41629e-24 7.98751e-05)
(0.000112669 -1.49178e-05 -1.36372e-07 0.000112669 4.8024e-21 0.000112669)
(0.000112669 -1.49178e-05 -1.36372e-07 0.000112669 -5.23727e-24 0.000112669)
(0.000154307 -2.44382e-05 -2.27393e-07 0.000154307 7.7574e-21 0.000154307)
(0.000154307 -2.44382e-05 -2.27393e-07 0.000154307 -8.36782e-24 0.000154307)
(0.000206 -3.83057e-05 -3.62702e-07 0.000206 1.18278e-20 0.000206)
(0.000206 -3.83057e-05 -3.62702e-07 0.000206 -1.15103e-23 0.000206)
(0.000268851 -5.76988e-05 -5.55794e-07 0.000268851 1.70485e-20 0.000268851)
(0.000268851 -5.76988e-05 -5.55794e-07 0.000268851 -2.0677e-23 0.000268851)
(0.000343761 -8.37899e-05 -8.2088e-07 0.000343761 2.32196e-20 0.000343761)
(0.000343761 -8.37899e-05 -8.2088e-07 0.000343761 -1.11521e-23 0.000343761)
(0.000431329 -0.00011761 -1.17155e-06 0.000431329 2.98436e-20 0.000431329)
(0.000431329 -0.00011761 -1.17155e-06 0.000431329 2.20939e-23 0.000431329)
(0.000531757 -0.000159899 -1.61919e-06 0.000531757 3.60825e-20 0.000531757)
(0.000531757 -0.000159899 -1.61919e-06 0.000531757 2.91859e-23 0.000531757)
(0.000644777 -0.000210973 -2.17145e-06 0.000644777 4.08579e-20 0.000644777)
(0.000644777 -0.000210973 -2.17145e-06 0.000644777 5.10667e-23 0.000644777)
(0.000769629 -0.00027064 -2.83115e-06 0.000769629 4.31049e-20 0.000769629)
(0.000769629 -0.00027064 -2.83115e-06 0.000769629 2.68588e-22 0.000769629)
(0.000905077 -0.000338193 -3.59578e-06 0.000905077 4.19137e-20 0.000905077)
(0.000905077 -0.000338193 -3.59578e-06 0.000905077 5.52035e-22 0.000905077)
(0.00104949 -0.000412469 -4.4579e-06 0.00104949 3.66964e-20 0.00104949)
(0.00104949 -0.000412469 -4.4579e-06 0.00104949 5.59388e-22 0.00104949)
(0.00120093 -0.000491988 -5.4061e-06 0.00120093 2.71517e-20 0.00120093)
(0.00120093 -0.000491988 -5.4061e-06 0.00120093 7.51595e-22 0.00120093)
(0.00135736 -0.000575105 -6.42644e-06 0.00135736 9.6092e-21 0.00135736)
(0.00135736 -0.000575105 -6.42644e-06 0.00135736 1.34641e-21 0.00135736)
(0.00151667 -0.000660169 -7.50394e-06 0.00151667 1.15028e-21 0.00151667)
(0.00151667 -0.000660169 -7.50394e-06 0.00151667 1.8524e-21 0.00151667)
(0.00167691 -0.000745656 -8.62386e-06 0.00167691 -1.93006e-20 0.00167691)
(0.00167691 -0.000745656 -8.62386e-06 0.00167691 2.30718e-21 0.00167691)
(0.00183629 -0.000830247 -9.7727e-06 0.00183629 -3.69436e-20 0.00183629)
(0.00183629 -0.000830247 -9.7727e-06 0.00183629 3.00398e-21 0.00183629)
(0.00199329 -0.000912875 -1.09388e-05 0.00199329 -5.38801e-20 0.00199329)
(0.00199329 -0.000912875 -1.09388e-05 0.00199329 3.4958e-21 0.00199329)
(0.00214666 -0.00099273 -1.21126e-05 0.00214666 -6.85981e-20 0.00214666)
(0.00214666 -0.00099273 -1.21126e-05 0.00214666 4.18828e-21 0.00214666)
(0.00229541 -0.00106924 -1.32864e-05 0.00229541 -8.05745e-20 0.00229541)
(0.00229541 -0.00106924 -1.32864e-05 0.00229541 5.46735e-21 0.00229541)
(0.00243883 -0.00114205 -1.44548e-05 0.00243883 -8.9074e-20 0.00243883)
(0.00243883 -0.00114205 -1.44548e-05 0.00243883 6.60982e-21 0.00243883)
(0.00257643 -0.00121095 -1.56138e-05 0.00257643 -9.3879e-20 0.00257643)
(0.00257643 -0.00121095 -1.56138e-05 0.00257643 7.92225e-21 0.00257643)
(0.00270788 -0.00127589 -1.67608e-05 0.00270788 -9.52725e-20 0.00270788)
(0.00270788 -0.00127589 -1.67608e-05 0.00270788 9.25131e-21 0.00270788)
(0.00283306 -0.0013369 -1.78942e-05 0.00283306 -9.27481e-20 0.00283306)
(0.00283306 -0.0013369 -1.78942e-05 0.00283306 1.03864e-20 0.00283306)
(0.00295194 -0.00139408 -1.90136e-05 0.00295194 -8.67165e-20 0.00295194)
(0.00295194 -0.00139408 -1.90136e-05 0.00295194 1.14985e-20 0.00295194)
(0.0030646 -0.00144759 -2.01189e-05 0.0030646 -7.74409e-20 0.0030646)
(0.0030646 -0.00144759 -2.01189e-05 0.0030646 1.44293e-20 0.0030646)
(0.00317118 -0.00149761 -2.12107e-05 0.00317118 -6.23948e-20 0.00317118)
(0.00317118 -0.00149761 -2.12107e-05 0.00317118 1.74404e-20 0.00317118)
(0.00327188 -0.00154433 -2.22898e-05 0.00327188 -4.61656e-20 0.00327188)
(0.00327188 -0.00154433 -2.22898e-05 0.00327188 1.56771e-20 0.00327188)
(0.00336695 -0.00158797 -2.33572e-05 0.00336695 -2.79981e-20 0.00336695)
(0.00336695 -0.00158797 -2.33572e-05 0.00336695 1.7133e-20 0.00336695)
(0.00345663 -0.00162872 -2.44142e-05 0.00345663 -3.71263e-21 0.00345663)
(0.00345663 -0.00162872 -2.44142e-05 0.00345663 2.48489e-20 0.00345663)
(0.0035412 -0.00166678 -2.54622e-05 0.0035412 2.08923e-20 0.0035412)
(0.0035412 -0.00166678 -2.54622e-05 0.0035412 2.76287e-20 0.0035412)
(0.00362093 -0.00170235 -2.65023e-05 0.00362093 4.81551e-20 0.00362093)
(0.00362093 -0.00170235 -2.65023e-05 0.00362093 2.3669e-20 0.00362093)
(0.0036961 -0.00173559 -2.75361e-05 0.0036961 7.89937e-20 0.0036961)
(0.0036961 -0.00173559 -2.75361e-05 0.0036961 1.92401e-20 0.0036961)
(0.00376695 -0.0017667 -2.85647e-05 0.00376695 1.10552e-19 0.00376695)
(0.00376695 -0.0017667 -2.85647e-05 0.00376695 2.45784e-20 0.00376695)
(0.00383376 -0.00179581 -2.95896e-05 0.00383376 1.44222e-19 0.00383376)
(0.00383376 -0.00179581 -2.95896e-05 0.00383376 3.36402e-20 0.00383376)
(0.00389677 -0.00182308 -3.0612e-05 0.00389677 1.85487e-19 0.00389677)
(0.00389677 -0.00182308 -3.0612e-05 0.00389677 3.55181e-20 0.00389677)
(0.00395621 -0.00184864 -3.16331e-05 0.00395621 2.18777e-19 0.00395621)
(0.00395621 -0.00184864 -3.16331e-05 0.00395621 4.61703e-20 0.00395621)
(0.0040123 -0.00187262 -3.26541e-05 0.0040123 2.52479e-19 0.0040123)
(0.0040123 -0.00187262 -3.26541e-05 0.0040123 5.80071e-20 0.0040123)
(0.00406525 -0.00189513 -3.3676e-05 0.00406525 2.95489e-19 0.00406525)
(0.00406525 -0.00189513 -3.3676e-05 0.00406525 5.08433e-20 0.00406525)
(0.00411525 -0.00191628 -3.46999e-05 0.00411525 3.38095e-19 0.00411525)
(0.00411525 -0.00191628 -3.46999e-05 0.00411525 4.43271e-20 0.00411525)
(0.0041625 -0.00193617 -3.57269e-05 0.0041625 3.88109e-19 0.0041625)
(0.0041625 -0.00193617 -3.57269e-05 0.0041625 5.85616e-20 0.0041625)
(0.00420716 -0.00195488 -3.67579e-05 0.00420716 4.30372e-19 0.00420716)
(0.00420716 -0.00195488 -3.67579e-05 0.00420716 7.03982e-20 0.00420716)
(0.00424938 -0.0019725 -3.77938e-05 0.00424938 4.26356e-19 0.00424938)
(0.00424938 -0.0019725 -3.77938e-05 0.00424938 7.05513e-20 0.00424938)
(0.00428932 -0.00198909 -3.88355e-05 0.00428932 2.91946e-19 0.00428932)
(0.00428932 -0.00198909 -3.88355e-05 0.00428932 7.02362e-20 0.00428932)
(0.00432713 -0.00200475 -3.98838e-05 0.00432713 1.80617e-19 0.00432713)
(0.00432713 -0.00200475 -3.98838e-05 0.00432713 7.68596e-20 0.00432713)
(0.00436291 -0.00201951 -4.09395e-05 0.00436291 1.91883e-19 0.00436291)
(0.00436291 -0.00201951 -4.09395e-05 0.00436291 1.04756e-19 0.00436291)
(0.00439681 -0.00203345 -4.20034e-05 0.00439681 2.18107e-19 0.00439681)
(0.00439681 -0.00203345 -4.20034e-05 0.00439681 1.29188e-19 0.00439681)
(0.00442891 -0.00204661 -4.30761e-05 0.00442891 2.68024e-19 0.00442891)
(0.00442891 -0.00204661 -4.30761e-05 0.00442891 1.14524e-19 0.00442891)
(0.00445935 -0.00205905 -4.41585e-05 0.00445935 2.98871e-19 0.00445935)
(0.00445935 -0.00205905 -4.41585e-05 0.00445935 8.63414e-20 0.00445935)
(0.00448819 -0.0020708 -4.52511e-05 0.00448819 3.3676e-19 0.00448819)
(0.00448819 -0.0020708 -4.52511e-05 0.00448819 9.49472e-20 0.00448819)
(0.00451555 -0.00208192 -4.63547e-05 0.00451555 3.79305e-19 0.00451555)
(0.00451555 -0.00208192 -4.63547e-05 0.00451555 1.43046e-19 0.00451555)
(0.00454149 -0.00209244 -4.74698e-05 0.00454149 4.12984e-19 0.00454149)
(0.00454149 -0.00209244 -4.74698e-05 0.00454149 1.85319e-19 0.00454149)
(0.0045661 -0.00210239 -4.8597e-05 0.0045661 4.45176e-19 0.0045661)
(0.0045661 -0.00210239 -4.8597e-05 0.0045661 1.86548e-19 0.0045661)
(0.00458945 -0.00211181 -4.9737e-05 0.00458945 5.05386e-19 0.00458945)
(0.00458945 -0.00211181 -4.9737e-05 0.00458945 1.88728e-19 0.00458945)
(0.00461161 -0.00212073 -5.08903e-05 0.00461161 5.67129e-19 0.00461161)
(0.00461161 -0.00212073 -5.08903e-05 0.00461161 1.97851e-19 0.00461161)
(0.00463263 -0.00212918 -5.20575e-05 0.00463263 5.91517e-19 0.00463263)
(0.00463263 -0.00212918 -5.20575e-05 0.00463263 1.77371e-19 0.00463263)
(0.00465258 -0.00213718 -5.3239e-05 0.00465258 6.25425e-19 0.00465258)
(0.00465258 -0.00213718 -5.3239e-05 0.00465258 1.67424e-19 0.00465258)
(0.00467152 -0.00214475 -5.44355e-05 0.00467152 6.48731e-19 0.00467152)
(0.00467152 -0.00214475 -5.44355e-05 0.00467152 1.69475e-19 0.00467152)
(0.00468948 -0.00215193 -5.56475e-05 0.00468948 6.987e-19 0.00468948)
(0.00468948 -0.00215193 -5.56475e-05 0.00468948 1.89436e-19 0.00468948)
(0.00470653 -0.00215872 -5.68754e-05 0.00470653 7.67679e-19 0.00470653)
(0.00470653 -0.00215872 -5.68754e-05 0.00470653 2.41975e-19 0.00470653)
(0.00472269 -0.00216515 -5.81197e-05 0.00472269 8.2023e-19 0.00472269)
(0.00472269 -0.00216515 -5.81197e-05 0.00472269 2.75139e-19 0.00472269)
(0.00473802 -0.00217123 -5.9381e-05 0.00473802 8.80846e-19 0.00473802)
(0.00473802 -0.00217123 -5.9381e-05 0.00473802 2.48366e-19 0.00473802)
(0.00475255 -0.00217699 -6.06598e-05 0.00475255 9.35739e-19 0.00475255)
(0.00475255 -0.00217699 -6.06598e-05 0.00475255 1.63112e-19 0.00475255)
(0.00476632 -0.00218244 -6.19564e-05 0.00476632 1.03141e-18 0.00476632)
(0.00476632 -0.00218244 -6.19564e-05 0.00476632 1.66188e-19 0.00476632)
(0.00477937 -0.00218758 -6.32715e-05 0.00477937 1.11598e-18 0.00477937)
(0.00477937 -0.00218758 -6.32715e-05 0.00477937 2.70775e-19 0.00477937)
(0.00479171 -0.00219245 -6.46054e-05 0.00479171 1.15427e-18 0.00479171)
(0.00479171 -0.00219245 -6.46054e-05 0.00479171 3.14831e-19 0.00479171)
(0.00480339 -0.00219704 -6.59586e-05 0.00480339 1.28283e-18 0.00480339)
(0.00480339 -0.00219704 -6.59586e-05 0.00480339 2.64988e-19 0.00480339)
(0.00481442 -0.00220136 -6.73315e-05 0.00481442 1.34078e-18 0.00481442)
(0.00481442 -0.00220136 -6.73315e-05 0.00481442 2.55624e-19 0.00481442)
(0.00482485 -0.00220544 -6.87247e-05 0.00482485 1.39236e-18 0.00482485)
(0.00482485 -0.00220544 -6.87247e-05 0.00482485 3.1725e-19 0.00482485)
(0.00483468 -0.00220928 -7.01386e-05 0.00483468 1.49249e-18 0.00483468)
(0.00483468 -0.00220928 -7.01386e-05 0.00483468 3.42185e-19 0.00483468)
(0.00484394 -0.00221289 -7.15735e-05 0.00484394 1.52822e-18 0.00484394)
(0.00484394 -0.00221289 -7.15735e-05 0.00484394 3.73055e-19 0.00484394)
(0.00485266 -0.00221627 -7.30301e-05 0.00485266 1.59909e-18 0.00485266)
(0.00485266 -0.00221627 -7.30301e-05 0.00485266 3.83759e-19 0.00485266)
(0.00486084 -0.00221944 -7.45086e-05 0.00486084 1.6913e-18 0.00486084)
(0.00486084 -0.00221944 -7.45086e-05 0.00486084 4.57503e-19 0.00486084)
(0.00486852 -0.0022224 -7.60096e-05 0.00486852 1.83954e-18 0.00486852)
(0.00486852 -0.0022224 -7.60096e-05 0.00486852 4.94076e-19 0.00486852)
(0.00487571 -0.00222517 -7.75334e-05 0.00487571 1.88882e-18 0.00487571)
(0.00487571 -0.00222517 -7.75334e-05 0.00487571 4.70211e-19 0.00487571)
(0.00488242 -0.00222774 -7.90806e-05 0.00488242 1.91164e-18 0.00488242)
(0.00488242 -0.00222774 -7.90806e-05 0.00488242 5.09161e-19 0.00488242)
(0.00488868 -0.00223012 -8.06515e-05 0.00488868 1.99973e-18 0.00488868)
(0.00488868 -0.00223012 -8.06515e-05 0.00488868 6.08475e-19 0.00488868)
(0.00489449 -0.00223232 -8.22466e-05 0.00489449 2.08596e-18 0.00489449)
(0.00489449 -0.00223232 -8.22466e-05 0.00489449 6.54526e-19 0.00489449)
(0.00489986 -0.00223435 -8.38664e-05 0.00489986 2.21331e-18 0.00489986)
(0.00489986 -0.00223435 -8.38664e-05 0.00489986 6.26328e-19 0.00489986)
(0.00490482 -0.00223621 -8.55112e-05 0.00490482 2.32561e-18 0.00490482)
(0.00490482 -0.00223621 -8.55112e-05 0.00490482 6.37097e-19 0.00490482)
(0.00490937 -0.0022379 -8.71815e-05 0.00490937 2.44624e-18 0.00490937)
(0.00490937 -0.0022379 -8.71815e-05 0.00490937 7.20162e-19 0.00490937)
(0.00491352 -0.00223943 -8.88777e-05 0.00491352 2.54565e-18 0.00491352)
(0.00491352 -0.00223943 -8.88777e-05 0.00491352 7.65947e-19 0.00491352)
(0.00491728 -0.0022408 -9.06002e-05 0.00491728 2.54317e-18 0.00491728)
(0.00491728 -0.0022408 -9.06002e-05 0.00491728 8.22146e-19 0.00491728)
(0.00492067 -0.00224201 -9.23496e-05 0.00492067 2.59503e-18 0.00492067)
(0.00492067 -0.00224201 -9.23496e-05 0.00492067 8.88275e-19 0.00492067)
(0.00492369 -0.00224308 -9.41261e-05 0.00492369 2.81873e-18 0.00492369)
(0.00492369 -0.00224308 -9.41261e-05 0.00492369 9.11244e-19 0.00492369)
(0.00492636 -0.002244 -9.59303e-05 0.00492636 2.95118e-18 0.00492636)
(0.00492636 -0.002244 -9.59303e-05 0.00492636 9.64062e-19 0.00492636)
(0.00492867 -0.00224477 -9.77625e-05 0.00492867 3.07436e-18 0.00492867)
(0.00492867 -0.00224477 -9.77625e-05 0.00492867 1.03081e-18 0.00492867)
(0.00493064 -0.0022454 -9.96233e-05 0.00493064 3.07212e-18 0.00493064)
(0.00493064 -0.0022454 -9.96233e-05 0.00493064 1.09974e-18 0.00493064)
(0.00493227 -0.0022459 -0.000101513 0.00493227 3.07203e-18 0.00493227)
(0.00493227 -0.0022459 -0.000101513 0.00493227 1.21266e-18 0.00493227)
(0.00493357 -0.00224625 -0.000103432 0.00493357 3.21635e-18 0.00493357)
(0.00493357 -0.00224625 -0.000103432 0.00493357 1.30465e-18 0.00493357)
(0.00493455 -0.00224648 -0.000105381 0.00493455 3.34696e-18 0.00493455)
(0.00493455 -0.00224648 -0.000105381 0.00493455 1.32816e-18 0.00493455)
(0.0049352 -0.00224657 -0.00010736 0.0049352 3.51505e-18 0.0049352)
(0.0049352 -0.00224657 -0.00010736 0.0049352 1.64311e-18 0.0049352)
(0.00493555 -0.00224653 -0.000109369 0.00493555 3.66333e-18 0.00493555)
(0.00493555 -0.00224653 -0.000109369 0.00493555 3.02083e-18 0.00493555)
(0.00493559 -0.00224636 -0.00011141 0.00493559 3.78233e-18 0.00493559)
(0.00493559 -0.00224636 -0.00011141 0.00493559 4.02117e-18 0.00493559)
(0.00493532 -0.00224606 -0.000113482 0.00493532 3.89372e-18 0.00493532)
(0.00493532 -0.00224606 -0.000113482 0.00493532 3.86367e-18 0.00493532)
(0.00493475 -0.00224564 -0.000115586 0.00493475 3.99853e-18 0.00493475)
(0.00493475 -0.00224564 -0.000115586 0.00493475 3.93759e-18 0.00493475)
(0.00493389 -0.00224509 -0.000117722 0.00493389 4.10984e-18 0.00493389)
(0.00493389 -0.00224509 -0.000117722 0.00493389 4.23375e-18 0.00493389)
(0.00493273 -0.00224442 -0.00011989 0.00493273 4.19676e-18 0.00493273)
(0.00493273 -0.00224442 -0.00011989 0.00493273 4.55961e-18 0.00493273)
(0.00493129 -0.00224362 -0.000122092 0.00493129 4.5084e-18 0.00493129)
(0.00493129 -0.00224362 -0.000122092 0.00493129 4.68058e-18 0.00493129)
(0.00492955 -0.00224271 -0.000124328 0.00492955 4.95498e-18 0.00492955)
(0.00492955 -0.00224271 -0.000124328 0.00492955 4.82009e-18 0.00492955)
(0.00492754 -0.00224167 -0.000126597 0.00492754 5.11289e-18 0.00492754)
(0.00492754 -0.00224167 -0.000126597 0.00492754 5.08966e-18 0.00492754)
(0.00492524 -0.00224051 -0.0001289 0.00492524 4.98418e-18 0.00492524)
(0.00492524 -0.00224051 -0.0001289 0.00492524 5.107e-18 0.00492524)
(0.00492267 -0.00223923 -0.000131238 0.00492267 5.09164e-18 0.00492267)
(0.00492267 -0.00223923 -0.000131238 0.00492267 5.2569e-18 0.00492267)
(0.00491981 -0.00223783 -0.000133611 0.00491981 5.47694e-18 0.00491981)
(0.00491981 -0.00223783 -0.000133611 0.00491981 5.7591e-18 0.00491981)
(0.00491668 -0.00223632 -0.00013602 0.00491668 5.66116e-18 0.00491668)
(0.00491668 -0.00223632 -0.00013602 0.00491668 6.30926e-18 0.00491668)
(0.00491328 -0.00223468 -0.000138464 0.00491328 5.66579e-18 0.00491328)
(0.00491328 -0.00223468 -0.000138464 0.00491328 6.24949e-18 0.00491328)
(0.0049096 -0.00223292 -0.000140945 0.0049096 6.06147e-18 0.0049096)
(0.0049096 -0.00223292 -0.000140945 0.0049096 6.27384e-18 0.0049096)
(0.00490566 -0.00223105 -0.000143462 0.00490566 6.3482e-18 0.00490566)
(0.00490566 -0.00223105 -0.000143462 0.00490566 7.21918e-18 0.00490566)
(0.00490144 -0.00222905 -0.000146016 0.00490144 6.49131e-18 0.00490144)
(0.00490144 -0.00222905 -0.000146016 0.00490144 7.75788e-18 0.00490144)
(0.00489695 -0.00222694 -0.000148607 0.00489695 6.8539e-18 0.00489695)
(0.00489695 -0.00222694 -0.000148607 0.00489695 7.38014e-18 0.00489695)
(0.00489219 -0.0022247 -0.000151235 0.00489219 6.88948e-18 0.00489219)
(0.00489219 -0.0022247 -0.000151235 0.00489219 7.22156e-18 0.00489219)
(0.00488717 -0.00222235 -0.000153902 0.00488717 6.82148e-18 0.00488717)
(0.00488717 -0.00222235 -0.000153902 0.00488717 7.81571e-18 0.00488717)
(0.00488187 -0.00221988 -0.000156606 0.00488187 7.06761e-18 0.00488187)
(0.00488187 -0.00221988 -0.000156606 0.00488187 8.62191e-18 0.00488187)
(0.0048763 -0.00221728 -0.000159349 0.0048763 7.66496e-18 0.0048763)
(0.0048763 -0.00221728 -0.000159349 0.0048763 9.1379e-18 0.0048763)
(0.00487047 -0.00221457 -0.000162131 0.00487047 8.0717e-18 0.00487047)
(0.00487047 -0.00221457 -0.000162131 0.00487047 8.98992e-18 0.00487047)
(0.00486437 -0.00221173 -0.000164952 0.00486437 8.583e-18 0.00486437)
(0.00486437 -0.00221173 -0.000164952 0.00486437 9.21421e-18 0.00486437)
(0.00485799 -0.00220877 -0.000167812 0.00485799 8.94761e-18 0.00485799)
(0.00485799 -0.00220877 -0.000167812 0.00485799 9.93262e-18 0.00485799)
(0.00485135 -0.00220568 -0.000170712 0.00485135 8.70299e-18 0.00485135)
(0.00485135 -0.00220568 -0.000170712 0.00485135 1.10149e-17 0.00485135)
(0.00484443 -0.00220247 -0.000173651 0.00484443 8.89365e-18 0.00484443)
(0.00484443 -0.00220247 -0.000173651 0.00484443 1.15687e-17 0.00484443)
(0.00483725 -0.00219914 -0.000176631 0.00483725 9.5153e-18 0.00483725)
(0.00483725 -0.00219914 -0.000176631 0.00483725 1.07794e-17 0.00483725)
(0.00482979 -0.00219568 -0.000179651 0.00482979 9.84767e-18 0.00482979)
(0.00482979 -0.00219568 -0.000179651 0.00482979 1.08562e-17 0.00482979)
(0.00482205 -0.00219209 -0.000182711 0.00482205 9.63787e-18 0.00482205)
(0.00482205 -0.00219209 -0.000182711 0.00482205 1.21853e-17 0.00482205)
(0.00481404 -0.00218838 -0.000185812 0.00481404 1.00253e-17 0.00481404)
(0.00481404 -0.00218838 -0.000185812 0.00481404 1.31856e-17 0.00481404)
(0.00480576 -0.00218453 -0.000188953 0.00480576 1.08012e-17 0.00480576)
(0.00480576 -0.00218453 -0.000188953 0.00480576 1.28554e-17 0.00480576)
(0.00479719 -0.00218056 -0.000192135 0.00479719 1.02468e-17 0.00479719)
(0.00479719 -0.00218056 -0.000192135 0.00479719 1.2846e-17 0.00479719)
(0.00478835 -0.00217645 -0.000195359 0.00478835 9.73141e-18 0.00478835)
(0.00478835 -0.00217645 -0.000195359 0.00478835 1.39544e-17 0.00478835)
(0.00477922 -0.00217221 -0.000198623 0.00477922 8.20538e-18 0.00477922)
(0.00477922 -0.00217221 -0.000198623 0.00477922 1.45715e-17 0.00477922)
(0.00476981 -0.00216784 -0.000201928 0.00476981 4.75039e-19 0.00476981)
(0.00476981 -0.00216784 -0.000201928 0.00476981 1.49919e-17 0.00476981)
(0.00476012 -0.00216333 -0.000205275 0.00476012 -1.05129e-19 0.00476012)
(0.00476012 -0.00216333 -0.000205275 0.00476012 1.60424e-17 0.00476012)
(0.00475014 -0.00215868 -0.000208662 0.00475014 -9.19361e-19 0.00475014)
(0.00475014 -0.00215868 -0.000208662 0.00475014 1.77239e-17 0.00475014)
(0.00473987 -0.00215389 -0.000212091 0.00473987 -7.34101e-19 0.00473987)
(0.00473987 -0.00215389 -0.000212091 0.00473987 1.749e-17 0.00473987)
(0.0047293 -0.00214896 -0.00021556 0.0047293 9.93324e-19 0.0047293)
(0.0047293 -0.00214896 -0.00021556 0.0047293 1.63826e-17 0.0047293)
(0.00471845 -0.00214389 -0.000219071 0.00471845 6.11818e-19 0.00471845)
(0.00471845 -0.00214389 -0.000219071 0.00471845 1.76342e-17 0.00471845)
(0.00470729 -0.00213868 -0.000222622 0.00470729 -1.3544e-18 0.00470729)
(0.00470729 -0.00213868 -0.000222622 0.00470729 1.96194e-17 0.00470729)
(0.00469584 -0.00213332 -0.000226213 0.00469584 -4.66463e-19 0.00469584)
(0.00469584 -0.00213332 -0.000226213 0.00469584 1.92495e-17 0.00469584)
(0.00468409 -0.00212781 -0.000229845 0.00468409 5.84811e-19 0.00468409)
(0.00468409 -0.00212781 -0.000229845 0.00468409 1.89905e-17 0.00468409)
(0.00467203 -0.00212215 -0.000233517 0.00467203 -6.46501e-19 0.00467203)
(0.00467203 -0.00212215 -0.000233517 0.00467203 2.07084e-17 0.00467203)
(0.00465966 -0.00211634 -0.000237229 0.00465966 -8.41286e-19 0.00465966)
(0.00465966 -0.00211634 -0.000237229 0.00465966 2.15794e-17 0.00465966)
(0.00464698 -0.00211038 -0.00024098 0.00464698 9.45566e-19 0.00464698)
(0.00464698 -0.00211038 -0.00024098 0.00464698 2.16373e-17 0.00464698)
(0.00463399 -0.00210426 -0.000244771 0.00463399 1.29036e-18 0.00463399)
(0.00463399 -0.00210426 -0.000244771 0.00463399 2.31967e-17 0.00463399)
(0.00462069 -0.00209799 -0.0002486 0.00462069 2.62785e-20 0.00462069)
(0.00462069 -0.00209799 -0.0002486 0.00462069 2.56363e-17 0.00462069)
(0.00460706 -0.00209155 -0.000252467 0.00460706 -4.40965e-18 0.00460706)
(0.00460706 -0.00209155 -0.000252467 0.00460706 1.92999e-17 0.00460706)
(0.00459311 -0.00208495 -0.000256371 0.00459311 -7.51689e-18 0.00459311)
(0.00459311 -0.00208495 -0.000256371 0.00459311 1.00689e-17 0.00459311)
(0.00457883 -0.00207819 -0.000260313 0.00457883 -3.92647e-18 0.00457883)
(0.00457883 -0.00207819 -0.000260313 0.00457883 9.38465e-18 0.00457883)
(0.00456422 -0.00207126 -0.000264291 0.00456422 -9.84816e-19 0.00456422)
(0.00456422 -0.00207126 -0.000264291 0.00456422 1.4644e-17 0.00456422)
(0.00454928 -0.00206416 -0.000268304 0.00454928 -3.97369e-18 0.00454928)
(0.00454928 -0.00206416 -0.000268304 0.00454928 1.83526e-17 0.00454928)
(0.004534 -0.00205689 -0.000272352 0.004534 -5.84992e-18 0.004534)
(0.004534 -0.00205689 -0.000272352 0.004534 2.01056e-17 0.004534)
(0.00451838 -0.00204944 -0.000276434 0.00451838 -6.27577e-18 0.00451838)
(0.00451838 -0.00204944 -0.000276434 0.00451838 2.23041e-17 0.00451838)
(0.00450241 -0.00204182 -0.000280548 0.00450241 -7.81207e-18 0.00450241)
(0.00450241 -0.00204182 -0.000280548 0.00450241 2.07814e-17 0.00450241)
(0.0044861 -0.00203402 -0.000284695 0.0044861 -3.63001e-18 0.0044861)
(0.0044861 -0.00203402 -0.000284695 0.0044861 1.89695e-17 0.0044861)
(0.00446942 -0.00202604 -0.000288872 0.00446942 -1.6216e-19 0.00446942)
(0.00446942 -0.00202604 -0.000288872 0.00446942 1.9794e-17 0.00446942)
(0.00445239 -0.00201787 -0.000293079 0.00445239 2.19639e-19 0.00445239)
(0.00445239 -0.00201787 -0.000293079 0.00445239 1.75515e-17 0.00445239)
(0.004435 -0.00200951 -0.000297315 0.004435 1.61358e-18 0.004435)
(0.004435 -0.00200951 -0.000297315 0.004435 1.70779e-17 0.004435)
(0.00441724 -0.00200096 -0.000301577 0.00441724 -3.97915e-20 0.00441724)
(0.00441724 -0.00200096 -0.000301577 0.00441724 1.97177e-17 0.00441724)
(0.00439911 -0.00199222 -0.000305864 0.00439911 -1.10681e-19 0.00439911)
(0.00439911 -0.00199222 -0.000305864 0.00439911 2.08391e-17 0.00439911)
(0.0043806 -0.00198328 -0.000310175 0.0043806 -2.91186e-20 0.0043806)
(0.0043806 -0.00198328 -0.000310175 0.0043806 2.15724e-17 0.0043806)
(0.00436171 -0.00197414 -0.000314509 0.00436171 1.33902e-19 0.00436171)
(0.00436171 -0.00197414 -0.000314509 0.00436171 2.14679e-17 0.00436171)
(0.00434243 -0.0019648 -0.000318863 0.00434243 -8.75296e-19 0.00434243)
(0.00434243 -0.0019648 -0.000318863 0.00434243 1.84164e-17 0.00434243)
(0.00432276 -0.00195525 -0.000323235 0.00432276 -1.39782e-18 0.00432276)
(0.00432276 -0.00195525 -0.000323235 0.00432276 1.92116e-17 0.00432276)
(0.0043027 -0.00194549 -0.000327624 0.0043027 -1.87801e-18 0.0043027)
(0.0043027 -0.00194549 -0.000327624 0.0043027 2.01852e-17 0.0043027)
(0.00428223 -0.00193552 -0.000332027 0.00428223 -1.11251e-18 0.00428223)
(0.00428223 -0.00193552 -0.000332027 0.00428223 1.95965e-17 0.00428223)
(0.00426136 -0.00192533 -0.000336442 0.00426136 1.72483e-19 0.00426136)
(0.00426136 -0.00192533 -0.000336442 0.00426136 2.12418e-17 0.00426136)
(0.00424007 -0.00191492 -0.000340866 0.00424007 -1.76949e-18 0.00424007)
(0.00424007 -0.00191492 -0.000340866 0.00424007 2.25448e-17 0.00424007)
(0.00421837 -0.00190428 -0.000345297 0.00421837 -4.81916e-18 0.00421837)
(0.00421837 -0.00190428 -0.000345297 0.00421837 2.53126e-17 0.00421837)
(0.00419624 -0.00189342 -0.000349733 0.00419624 -1.45774e-18 0.00419624)
(0.00419624 -0.00189342 -0.000349733 0.00419624 2.42178e-17 0.00419624)
(0.00417369 -0.00188233 -0.000354169 0.00417369 2.60989e-18 0.00417369)
(0.00417369 -0.00188233 -0.000354169 0.00417369 2.3055e-17 0.00417369)
(0.00415069 -0.001871 -0.000358604 0.00415069 3.44414e-19 0.00415069)
(0.00415069 -0.001871 -0.000358604 0.00415069 2.35874e-17 0.00415069)
(0.00412726 -0.00185944 -0.000363034 0.00412726 -2.36527e-18 0.00412726)
(0.00412726 -0.00185944 -0.000363034 0.00412726 2.23765e-17 0.00412726)
(0.00410338 -0.00184763 -0.000367456 0.00410338 -6.04134e-18 0.00410338)
(0.00410338 -0.00184763 -0.000367456 0.00410338 2.58474e-17 0.00410338)
(0.00407905 -0.00183557 -0.000371865 0.00407905 -4.80985e-18 0.00407905)
(0.00407905 -0.00183557 -0.000371865 0.00407905 2.64915e-17 0.00407905)
(0.00405426 -0.00182327 -0.000376259 0.00405426 5.0161e-18 0.00405426)
(0.00405426 -0.00182327 -0.000376259 0.00405426 2.76491e-17 0.00405426)
(0.004029 -0.0018107 -0.000380633 0.004029 1.15817e-17 0.004029)
(0.004029 -0.0018107 -0.000380633 0.004029 3.07536e-17 0.004029)
(0.00400328 -0.00179788 -0.000384983 0.00400328 1.12346e-17 0.00400328)
(0.00400328 -0.00179788 -0.000384983 0.00400328 2.86157e-17 0.00400328)
(0.00397707 -0.0017848 -0.000389304 0.00397707 1.38507e-18 0.00397707)
(0.00397707 -0.0017848 -0.000389304 0.00397707 3.13148e-17 0.00397707)
(0.00395038 -0.00177144 -0.000393593 0.00395038 -6.5024e-18 0.00395038)
(0.00395038 -0.00177144 -0.000393593 0.00395038 3.76479e-17 0.00395038)
(0.0039232 -0.00175781 -0.000397843 0.0039232 1.54678e-18 0.0039232)
(0.0039232 -0.00175781 -0.000397843 0.0039232 3.3048e-17 0.0039232)
(0.00389552 -0.00174391 -0.00040205 0.00389552 4.87422e-18 0.00389552)
(0.00389552 -0.00174391 -0.00040205 0.00389552 2.933e-17 0.00389552)
(0.00386733 -0.00172972 -0.000406208 0.00386733 3.79948e-18 0.00386733)
(0.00386733 -0.00172972 -0.000406208 0.00386733 2.82958e-17 0.00386733)
(0.00383864 -0.00171524 -0.000410311 0.00383864 3.62036e-18 0.00383864)
(0.00383864 -0.00171524 -0.000410311 0.00383864 2.86038e-17 0.00383864)
(0.00380943 -0.00170048 -0.000414355 0.00380943 3.07946e-18 0.00380943)
(0.00380943 -0.00170048 -0.000414355 0.00380943 2.29166e-17 0.00380943)
(0.00377969 -0.00168541 -0.000418331 0.00377969 3.22944e-18 0.00377969)
(0.00377969 -0.00168541 -0.000418331 0.00377969 1.46202e-17 0.00377969)
(0.00374942 -0.00167004 -0.000422235 0.00374942 3.55648e-18 0.00374942)
(0.00374942 -0.00167004 -0.000422235 0.00374942 1.77689e-17 0.00374942)
(0.00371862 -0.00165437 -0.000426058 0.00371862 4.78785e-18 0.00371862)
(0.00371862 -0.00165437 -0.000426058 0.00371862 2.21018e-17 0.00371862)
(0.00368727 -0.00163838 -0.000429793 0.00368727 2.80344e-18 0.00368727)
(0.00368727 -0.00163838 -0.000429793 0.00368727 1.46573e-17 0.00368727)
(0.00365537 -0.00162207 -0.000433433 0.00365537 3.81552e-18 0.00365537)
(0.00365537 -0.00162207 -0.000433433 0.00365537 1.11116e-17 0.00365537)
(0.00362291 -0.00160544 -0.000436971 0.00362291 1.37337e-17 0.00362291)
(0.00362291 -0.00160544 -0.000436971 0.00362291 4.37798e-18 0.00362291)
(0.00358989 -0.00158848 -0.000440396 0.00358989 1.89641e-17 0.00358989)
(0.00358989 -0.00158848 -0.000440396 0.00358989 -1.22058e-18 0.00358989)
(0.0035563 -0.00157119 -0.000443701 0.0035563 7.60033e-18 0.0035563)
(0.0035563 -0.00157119 -0.000443701 0.0035563 9.54073e-19 0.0035563)
(0.00352214 -0.00155355 -0.000446877 0.00352214 1.53222e-19 0.00352214)
(0.00352214 -0.00155355 -0.000446877 0.00352214 1.2624e-17 0.00352214)
(0.00348739 -0.00153557 -0.000449913 0.00348739 4.54233e-18 0.00348739)
(0.00348739 -0.00153557 -0.000449913 0.00348739 1.63296e-17 0.00348739)
(0.00345206 -0.00151723 -0.0004528 0.00345206 3.07054e-18 0.00345206)
(0.00345206 -0.00151723 -0.0004528 0.00345206 1.06203e-17 0.00345206)
(0.00341613 -0.00149854 -0.000455528 0.00341613 -5.20164e-19 0.00341613)
(0.00341613 -0.00149854 -0.000455528 0.00341613 1.79503e-17 0.00341613)