/*--------------------------------*- C++ -*----------------------------------*\
| =========                 |                                                 |
| \\      /  F ield         | OpenFOAM: The Open Source CFD Toolbox           |
|  \\    /   O peration     | Version:  2106                                  |
|   \\  /    A nd           | Website:  www.openfoam.com                      |
|    \\/     M anipulation  |                                                 |
\*---------------------------------------------------------------------------*/
FoamFile
{
    version     2.0;
    format      ascii;
    arch        "LSB;label=32;scalar=64";
    class       volVectorField;
    location    "10100";
    object      U;
}
// * * * * * * * * * * * * * * * * * * * * * * * * * * * * * * * * * * * * * //

dimensions      [0 1 -1 0 0 0 0];

internalField   nonuniform List<vector> 
2000
(
(0.00570046 -5.86345e-16 -1.83689e-17)
(0.00570046 6.15882e-19 -1.85691e-21)
(0.0172056 -2.28092e-15 -5.74848e-17)
(0.0172056 -1.52274e-18 1.2132e-20)
(0.0289233 -2.17501e-15 -6.0734e-17)
(0.0289233 -1.50612e-18 1.38609e-20)
(0.0408574 -2.07563e-15 -6.37938e-17)
(0.0408574 -2.31576e-18 2.35722e-20)
(0.0530118 -2.0198e-15 -6.71686e-17)
(0.0530118 -3.16067e-18 3.59559e-20)
(0.0653902 -2.02953e-15 -7.07918e-17)
(0.0653902 -4.02326e-18 5.19297e-20)
(0.0779961 -2.03188e-15 -7.45944e-17)
(0.0779961 -4.86645e-18 6.91209e-20)
(0.0908321 -2.03063e-15 -7.85573e-17)
(0.0908321 -5.71956e-18 8.55593e-20)
(0.1039 -2.02927e-15 -8.26701e-17)
(0.1039 -6.64835e-18 1.05358e-19)
(0.117199 -2.02815e-15 -8.69167e-17)
(0.117199 -7.68281e-18 1.28318e-19)
(0.130727 -2.02699e-15 -9.12728e-17)
(0.130727 -8.76625e-18 1.53042e-19)
(0.144475 -2.02564e-15 -9.57055e-17)
(0.144475 -9.79109e-18 1.79568e-19)
(0.158432 -2.02413e-15 -1.00167e-16)
(0.158432 -1.08241e-17 2.08577e-19)
(0.172578 -2.0226e-15 -1.04597e-16)
(0.172578 -1.18281e-17 2.40743e-19)
(0.186886 -2.02095e-15 -1.08923e-16)
(0.186886 -1.27817e-17 2.74596e-19)
(0.20132 -2.01921e-15 -1.13056e-16)
(0.20132 -1.39602e-17 3.14463e-19)
(0.215835 -2.01734e-15 -1.16908e-16)
(0.215835 -1.53619e-17 3.49092e-19)
(0.230378 -2.01549e-15 -1.20389e-16)
(0.230378 -1.6453e-17 3.88496e-19)
(0.244889 -2.01383e-15 -1.23423e-16)
(0.244889 -1.75487e-17 4.30899e-19)
(0.259306 -2.0122e-15 -1.25953e-16)
(0.259306 -1.88703e-17 4.76257e-19)
(0.273565 -2.0103e-15 -1.27951e-16)
(0.273565 -2.00497e-17 5.06277e-19)
(0.287605 -2.00792e-15 -1.29415e-16)
(0.287605 -2.12366e-17 5.41649e-19)
(0.301373 -2.00575e-15 -1.30368e-16)
(0.301373 -2.24088e-17 5.87056e-19)
(0.314823 -2.00392e-15 -1.30864e-16)
(0.314823 -2.36536e-17 6.27859e-19)
(0.327917 -2.00198e-15 -1.30965e-16)
(0.327917 -2.50582e-17 6.63701e-19)
(0.340631 -2.00007e-15 -1.30742e-16)
(0.340631 -2.61656e-17 7.05578e-19)
(0.352947 -1.99822e-15 -1.3027e-16)
(0.352947 -2.72615e-17 7.45731e-19)
(0.364857 -1.99671e-15 -1.29618e-16)
(0.364857 -2.83569e-17 7.8695e-19)
(0.37636 -1.99524e-15 -1.2885e-16)
(0.37636 -2.90901e-17 8.36496e-19)
(0.38746 -1.99378e-15 -1.28018e-16)
(0.38746 -3.02527e-17 8.81965e-19)
(0.398167 -1.9923e-15 -1.27169e-16)
(0.398167 -3.08942e-17 9.28672e-19)
(0.408493 -1.9908e-15 -1.2634e-16)
(0.408493 -3.12537e-17 9.72445e-19)
(0.418452 -1.98939e-15 -1.25557e-16)
(0.418452 -3.22018e-17 1.01282e-18)
(0.42806 -1.98794e-15 -1.24841e-16)
(0.42806 -3.32263e-17 1.05751e-18)
(0.437334 -1.98655e-15 -1.24208e-16)
(0.437334 -3.40155e-17 1.10497e-18)
(0.446291 -1.98542e-15 -1.23669e-16)
(0.446291 -3.4854e-17 1.15378e-18)
(0.454947 -1.98351e-15 -1.23235e-16)
(0.454947 -3.56935e-17 1.18701e-18)
(0.463318 -1.98171e-15 -1.22906e-16)
(0.463318 -3.62156e-17 1.2241e-18)
(0.471421 -1.98059e-15 -1.2269e-16)
(0.471421 -3.73066e-17 1.29609e-18)
(0.479271 -1.9791e-15 -1.22593e-16)
(0.479271 -3.84753e-17 1.34221e-18)
(0.486881 -1.97788e-15 -1.22611e-16)
(0.486881 -3.91314e-17 1.36326e-18)
(0.494265 -1.97679e-15 -1.22744e-16)
(0.494265 -3.98928e-17 1.40219e-18)
(0.501436 -1.97552e-15 -1.22989e-16)
(0.501436 -4.05913e-17 1.48173e-18)
(0.508407 -1.97436e-15 -1.23348e-16)
(0.508407 -4.15534e-17 1.57865e-18)
(0.515187 -1.97319e-15 -1.23813e-16)
(0.515187 -4.18124e-17 1.63466e-18)
(0.521788 -1.97062e-15 -1.24385e-16)
(0.521788 -4.34076e-17 1.67514e-18)
(0.528219 -1.9687e-15 -1.25052e-16)
(0.528219 -4.57592e-17 1.73932e-18)
(0.534491 -1.9678e-15 -1.25822e-16)
(0.534491 -4.64983e-17 1.74274e-18)
(0.54061 -1.96647e-15 -1.26692e-16)
(0.54061 -4.71068e-17 1.75163e-18)
(0.546585 -1.9649e-15 -1.27662e-16)
(0.546585 -4.8434e-17 1.82127e-18)
(0.552425 -1.96209e-15 -1.2872e-16)
(0.552425 -5.01473e-17 1.90483e-18)
(0.558134 -1.95971e-15 -1.29873e-16)
(0.558134 -5.13529e-17 1.92711e-18)
(0.563722 -1.95821e-15 -1.31118e-16)
(0.563722 -5.26722e-17 1.96445e-18)
(0.569192 -1.95602e-15 -1.32203e-16)
(0.569192 -5.50376e-17 2.01435e-18)
(0.574552 -1.95296e-15 -1.32615e-16)
(0.574552 -5.74213e-17 2.09437e-18)
(0.579806 -1.95018e-15 -1.33037e-16)
(0.579806 -5.91344e-17 2.14146e-18)
(0.58496 -1.94841e-15 -1.3349e-16)
(0.58496 -6.07774e-17 2.11412e-18)
(0.590018 -1.94624e-15 -1.34059e-16)
(0.590018 -6.30147e-17 2.07635e-18)
(0.594984 -1.94415e-15 -1.34712e-16)
(0.594984 -6.61003e-17 2.16209e-18)
(0.599864 -1.94234e-15 -1.35398e-16)
(0.599864 -6.86628e-17 2.30879e-18)
(0.60466 -1.94053e-15 -1.36207e-16)
(0.60466 -7.07668e-17 2.40422e-18)
(0.609377 -1.93902e-15 -1.37051e-16)
(0.609377 -7.22806e-17 2.38305e-18)
(0.614018 -1.93702e-15 -1.37986e-16)
(0.614018 -7.4374e-17 2.34356e-18)
(0.618586 -1.9342e-15 -1.38907e-16)
(0.618586 -7.79395e-17 2.38425e-18)
(0.623084 -1.93092e-15 -1.40024e-16)
(0.623084 -8.0871e-17 2.39991e-18)
(0.627515 -1.92804e-15 -1.41136e-16)
(0.627515 -8.31486e-17 2.46453e-18)
(0.631883 -1.92621e-15 -1.42328e-16)
(0.631883 -8.44235e-17 2.62999e-18)
(0.636189 -1.92546e-15 -1.43584e-16)
(0.636189 -8.4453e-17 2.78164e-18)
(0.640437 -1.92555e-15 -1.44877e-16)
(0.640437 -8.34955e-17 2.98067e-18)
(0.644627 -1.92526e-15 -1.46325e-16)
(0.644627 -8.40517e-17 3.08247e-18)
(0.648764 -1.9247e-15 -1.47824e-16)
(0.648764 -8.62607e-17 3.11784e-18)
(0.652848 -1.92472e-15 -1.4941e-16)
(0.652848 -8.64544e-17 3.15813e-18)
(0.656882 -1.9243e-15 -1.51119e-16)
(0.656882 -8.67424e-17 3.34413e-18)
(0.660867 -1.92304e-15 -1.52834e-16)
(0.660867 -8.7373e-17 3.72593e-18)
(0.664806 -1.9218e-15 -1.54794e-16)
(0.664806 -8.64369e-17 3.92976e-18)
(0.668701 -1.92092e-15 -1.56758e-16)
(0.668701 -8.70225e-17 3.95169e-18)
(0.672552 -1.91867e-15 -1.58821e-16)
(0.672552 -8.75525e-17 4.0307e-18)
(0.676361 -1.91677e-15 -1.61097e-16)
(0.676361 -8.74938e-17 4.24436e-18)
(0.68013 -1.91436e-15 -1.6332e-16)
(0.68013 -8.84747e-17 4.39935e-18)
(0.683861 -1.91055e-15 -1.65682e-16)
(0.683861 -9.0588e-17 4.47541e-18)
(0.687554 -1.90829e-15 -1.68093e-16)
(0.687554 -9.30529e-17 4.5867e-18)
(0.691211 -1.90559e-15 -1.70612e-16)
(0.691211 -9.33484e-17 4.63129e-18)
(0.694833 -1.90198e-15 -1.73167e-16)
(0.694833 -9.84876e-17 4.735e-18)
(0.698422 -1.89735e-15 -1.75865e-16)
(0.698422 -9.74933e-17 4.64939e-18)
(0.701977 -1.89374e-15 -1.78764e-16)
(0.701977 -1.01172e-16 4.68234e-18)
(0.705502 -1.89101e-15 -1.81622e-16)
(0.705502 -1.04749e-16 4.77053e-18)
(0.708996 -1.89013e-15 -1.84594e-16)
(0.708996 -1.09437e-16 4.77462e-18)
(0.71246 -1.88989e-15 -1.878e-16)
(0.71246 -1.14332e-16 4.72004e-18)
(0.715896 -1.88512e-15 -1.91024e-16)
(0.715896 -1.17705e-16 4.72518e-18)
(0.719305 -1.87951e-15 -1.9422e-16)
(0.719305 -1.2479e-16 4.86636e-18)
(0.722686 -1.87404e-15 -1.97657e-16)
(0.722686 -1.31812e-16 5.02433e-18)
(0.726042 -1.86828e-15 -2.01158e-16)
(0.726042 -1.35282e-16 5.08205e-18)
(0.729373 -1.8635e-15 -2.048e-16)
(0.729373 -1.41317e-16 5.20899e-18)
(0.732679 -1.85858e-15 -2.08302e-16)
(0.732679 -1.48238e-16 5.32003e-18)
(0.735961 -1.85256e-15 -2.12022e-16)
(0.735961 -1.5404e-16 5.50503e-18)
(0.739221 -1.84752e-15 -2.16019e-16)
(0.739221 -1.59819e-16 5.65266e-18)
(0.742459 -1.84099e-15 -2.20136e-16)
(0.742459 -1.68575e-16 5.7724e-18)
(0.745675 -1.83381e-15 -2.24288e-16)
(0.745675 -1.75956e-16 5.9833e-18)
(0.74887 -1.82958e-15 -2.28267e-16)
(0.74887 -1.80088e-16 6.11897e-18)
(0.752045 -1.82694e-15 -2.32621e-16)
(0.752045 -1.83479e-16 6.1505e-18)
(0.7552 -1.82252e-15 -2.37089e-16)
(0.7552 -1.84867e-16 6.26247e-18)
(0.758336 -1.81722e-15 -2.41579e-16)
(0.758336 -1.86303e-16 6.33023e-18)
(0.761454 -1.81333e-15 -2.46368e-16)
(0.761454 -1.9102e-16 5.60494e-18)
(0.764553 -1.80941e-15 -2.51339e-16)
(0.764553 -1.93809e-16 2.0839e-18)
(0.767635 -1.80698e-15 -2.56388e-16)
(0.767635 -1.96314e-16 -1.18872e-18)
(0.7707 -1.80465e-15 -2.61751e-16)
(0.7707 -2.00694e-16 -4.14533e-18)
(0.773749 -1.80186e-15 -2.67031e-16)
(0.773749 -2.05126e-16 -7.33911e-18)
(0.776781 -1.79858e-15 -2.72592e-16)
(0.776781 -2.12072e-16 -1.08281e-17)
(0.779797 -1.79468e-15 -2.77989e-16)
(0.779797 -2.16505e-16 -1.45716e-17)
(0.782798 -1.78853e-15 -2.84266e-16)
(0.782798 -2.21537e-16 -1.80483e-17)
(0.785785 -1.77886e-15 -2.90535e-16)
(0.785785 -2.26855e-16 -2.18049e-17)
(0.788757 -1.77186e-15 -2.96762e-16)
(0.788757 -2.32573e-16 -2.56941e-17)
(0.791715 -1.76548e-15 -3.02918e-16)
(0.791715 -2.37652e-16 -2.91836e-17)
(0.794659 -1.75706e-15 -3.09436e-16)
(0.794659 -2.45406e-16 -3.31862e-17)
(0.79759 -1.74964e-15 -3.16292e-16)
(0.79759 -2.52841e-16 -3.76462e-17)
(0.800507 -1.74383e-15 -3.23341e-16)
(0.800507 -2.57591e-16 -4.27005e-17)
(0.803413 -1.73777e-15 -3.30334e-16)
(0.803413 -2.62623e-16 -4.66766e-17)
(0.806306 -1.72679e-15 -3.38323e-16)
(0.806306 -2.67912e-16 -5.15551e-17)
(0.809186 -1.71512e-15 -3.45339e-16)
(0.809186 -2.74245e-16 -5.75042e-17)
(0.812056 -1.70503e-15 -3.53546e-16)
(0.812056 -2.79769e-16 -6.32999e-17)
(0.814913 -1.69636e-15 -3.61615e-16)
(0.814913 -2.86057e-16 -6.79323e-17)
(0.81776 -1.68822e-15 -3.70033e-16)
(0.81776 -2.97797e-16 -7.28943e-17)
(0.820596 -1.67998e-15 -3.77924e-16)
(0.820596 -3.0675e-16 -7.84641e-17)
(0.823421 -1.6724e-15 -3.86901e-16)
(0.823421 -3.1647e-16 -8.48711e-17)
(0.826236 -1.66075e-15 -3.96336e-16)
(0.826236 -3.28076e-16 -9.10832e-17)
(0.829041 -1.64407e-15 -4.05674e-16)
(0.829041 -3.43141e-16 -9.66045e-17)
(0.831836 -1.625e-15 -4.15579e-16)
(0.831836 -3.56003e-16 -1.02619e-16)
(0.834621 -1.61295e-15 -4.25375e-16)
(0.834621 -3.60576e-16 -1.09068e-16)
(0.837397 -1.60449e-15 -4.3566e-16)
(0.837397 -3.71283e-16 -1.17473e-16)
(0.840164 -1.59034e-15 -4.46424e-16)
(0.840164 -3.80367e-16 -1.24534e-16)
(0.842921 -1.57714e-15 -4.57288e-16)
(0.842921 -3.93373e-16 -1.30294e-16)
(0.845671 -1.56481e-15 -4.68969e-16)
(0.845671 -4.06024e-16 -1.36761e-16)
(0.848411 -1.55123e-15 -4.79352e-16)
(0.848411 -4.15601e-16 -1.44989e-16)
(0.851143 -1.53203e-15 -4.9175e-16)
(0.851143 -4.25135e-16 -1.53185e-16)
(0.853867 -1.51554e-15 -5.02991e-16)
(0.853867 -4.3058e-16 -1.59632e-16)
(0.856583 -1.51038e-15 -5.14404e-16)
(0.856583 -4.31874e-16 -1.67272e-16)
(0.859291 -1.50451e-15 -5.26321e-16)
(0.859291 -4.37802e-16 -1.76368e-16)
(0.861991 -1.49817e-15 -5.33717e-16)
(0.861991 -4.35569e-16 -1.84941e-16)
(0.864684 -1.49111e-15 -5.33132e-16)
(0.864684 -4.33976e-16 -1.94679e-16)
(0.86737 -1.48226e-15 -5.32109e-16)
(0.86737 -4.44034e-16 -2.05333e-16)
(0.870048 -1.47304e-15 -5.29116e-16)
(0.870048 -4.51679e-16 -2.17892e-16)
(0.872719 -1.46195e-15 -5.28489e-16)
(0.872719 -4.5264e-16 -2.27061e-16)
(0.875383 -1.45453e-15 -5.29369e-16)
(0.875383 -4.5332e-16 -2.36361e-16)
(0.878041 -1.44594e-15 -5.2722e-16)
(0.878041 -4.61846e-16 -2.47915e-16)
(0.880691 -1.43206e-15 -5.2421e-16)
(0.880691 -4.62978e-16 -2.61349e-16)
(0.883336 -1.41577e-15 -5.23133e-16)
(0.883336 -4.68576e-16 -2.71403e-16)
(0.885973 -1.40498e-15 -5.22138e-16)
(0.885973 -4.77097e-16 -2.83409e-16)
(0.888605 -1.39063e-15 -5.18673e-16)
(0.888605 -4.87781e-16 -2.96678e-16)
(0.89123 -1.37453e-15 -5.16842e-16)
(0.89123 -4.98971e-16 -3.09484e-16)
(0.893848 -1.36076e-15 -5.17364e-16)
(0.893848 -5.06097e-16 -3.2172e-16)
(0.896461 -1.34209e-15 -5.16021e-16)
(0.896461 -5.14634e-16 -3.36763e-16)
(0.899068 -1.33728e-15 -5.12985e-16)
(0.899068 -5.12884e-16 -3.53393e-16)
(0.901669 -1.33833e-15 -5.03755e-16)
(0.901669 -5.19992e-16 -3.52509e-16)
(0.904264 -1.32661e-15 -4.94249e-16)
(0.904264 -5.31981e-16 -3.45074e-16)
(0.906853 -1.30766e-15 -4.91079e-16)
(0.906853 -5.39338e-16 -3.41299e-16)
(0.909437 -1.29899e-15 -4.86938e-16)
(0.909437 -5.48455e-16 -3.4563e-16)
(0.912015 -1.29359e-15 -4.7885e-16)
(0.912015 -5.49361e-16 -3.4914e-16)
(0.914588 -1.2787e-15 -4.70859e-16)
(0.914588 -5.5879e-16 -3.57495e-16)
(0.917155 -1.26525e-15 -4.59055e-16)
(0.917155 -5.7583e-16 -3.64918e-16)
(0.919716 -1.25146e-15 -4.4754e-16)
(0.919716 -5.78391e-16 -3.67279e-16)
(0.922272 -1.23538e-15 -4.4615e-16)
(0.922272 -5.88232e-16 -3.69487e-16)
(0.924823 -1.22051e-15 -4.42522e-16)
(0.924823 -5.96848e-16 -3.72579e-16)
(0.927368 -1.20524e-15 -4.42412e-16)
(0.927368 -6.06856e-16 -3.68881e-16)
(0.929908 -1.18795e-15 -4.38928e-16)
(0.929908 -6.18753e-16 -3.67335e-16)
(0.932443 -1.17507e-15 -4.37111e-16)
(0.932443 -6.2804e-16 -3.68638e-16)
(0.934973 -1.16159e-15 -4.34682e-16)
(0.934973 -6.39757e-16 -3.68322e-16)
(0.937497 -1.14739e-15 -4.32821e-16)
(0.937497 -6.43526e-16 -3.70507e-16)
(0.940016 -1.13792e-15 -4.30489e-16)
(0.940016 -6.41629e-16 -3.6908e-16)
(0.942529 -1.12715e-15 -4.27497e-16)
(0.942529 -6.41565e-16 -3.62798e-16)
(0.945037 -1.11452e-15 -4.23322e-16)
(0.945037 -6.49386e-16 -3.62126e-16)
(0.947541 -1.10168e-15 -4.18395e-16)
(0.947541 -6.54178e-16 -3.56856e-16)
(0.950038 -1.08607e-15 -4.1606e-16)
(0.950038 -6.52875e-16 -3.51809e-16)
(0.952531 -1.07749e-15 -4.13377e-16)
(0.952531 -6.52183e-16 -3.49696e-16)
(0.955018 -1.07205e-15 -4.08381e-16)
(0.955018 -6.44824e-16 -3.47919e-16)
(0.957499 -1.05534e-15 -3.98788e-16)
(0.957499 -6.47584e-16 -3.52218e-16)
(0.959975 -1.03375e-15 -3.98469e-16)
(0.959975 -6.61886e-16 -3.45642e-16)
(0.962446 -1.01793e-15 -3.95654e-16)
(0.962446 -6.70324e-16 -3.43524e-16)
(0.964911 -1.01228e-15 -3.93311e-16)
(0.964911 -6.65367e-16 -3.36114e-16)
(0.96737 -1.01007e-15 -3.87148e-16)
(0.96737 -6.68731e-16 -3.30251e-16)
(0.969824 -9.99823e-16 -3.76321e-16)
(0.969824 -6.70485e-16 -3.30317e-16)
(0.972272 -9.72138e-16 -3.70192e-16)
(0.972272 -6.76135e-16 -3.2483e-16)
(0.974714 -9.42772e-16 -3.78467e-16)
(0.974714 -6.87905e-16 -3.26146e-16)
(0.97715 -9.22746e-16 -3.89054e-16)
(0.97715 -6.92159e-16 -3.27179e-16)
(0.97958 -9.14123e-16 -4.00293e-16)
(0.97958 -7.05998e-16 -3.19178e-16)
(0.982004 -9.11385e-16 -3.93347e-16)
(0.982004 -7.17395e-16 -3.25249e-16)
(0.984421 -9.00462e-16 -3.81256e-16)
(0.984421 -7.41236e-16 -3.35793e-16)
(0.986832 -8.89499e-16 -3.92864e-16)
(0.986832 -7.55988e-16 -3.43834e-16)
(0.989237 -8.79634e-16 -3.94963e-16)
(0.989237 -7.66358e-16 -3.55167e-16)
(0.991634 -8.69885e-16 -3.98789e-16)
(0.991634 -7.80949e-16 -3.69136e-16)
(0.994025 -8.57352e-16 -4.00378e-16)
(0.994025 -7.82672e-16 -3.92497e-16)
(0.996409 -8.44869e-16 -4.01312e-16)
(0.996409 -7.83891e-16 -3.96855e-16)
(0.998785 -8.38622e-16 -4.03303e-16)
(0.998785 -7.79961e-16 -4.03493e-16)
(1.00115 -8.30963e-16 -4.08282e-16)
(1.00115 -7.79759e-16 -4.17705e-16)
(1.00352 -8.28535e-16 -4.13039e-16)
(1.00352 -7.88464e-16 -4.40349e-16)
(1.00587 -8.2245e-16 -4.15048e-16)
(1.00587 -7.87978e-16 -4.45628e-16)
(1.00821 -7.91416e-16 -4.20868e-16)
(1.00821 -7.85245e-16 -4.54109e-16)
(1.01055 -7.67689e-16 -4.38282e-16)
(1.01055 -8.08657e-16 -4.49139e-16)
(1.01288 -7.77568e-16 -4.53782e-16)
(1.01288 -8.1306e-16 -4.48115e-16)
(1.0152 -7.86951e-16 -4.54381e-16)
(1.0152 -7.87743e-16 -4.52007e-16)
(1.01751 -7.81609e-16 -4.54002e-16)
(1.01751 -7.63577e-16 -4.71277e-16)
(1.01981 -7.75399e-16 -4.64986e-16)
(1.01981 -7.33635e-16 -4.86805e-16)
(1.0221 -7.64969e-16 -4.59424e-16)
(1.0221 -7.19053e-16 -4.88592e-16)
(1.02438 -7.45242e-16 -4.57074e-16)
(1.02438 -7.08222e-16 -5.13785e-16)
(1.02665 -7.23736e-16 -4.78355e-16)
(1.02665 -7.07301e-16 -5.17494e-16)
(1.0289 -6.97035e-16 -4.89504e-16)
(1.0289 -6.82539e-16 -5.01122e-16)
(1.03115 -6.73868e-16 -5.08445e-16)
(1.03115 -6.6733e-16 -4.84458e-16)
(1.03339 -6.57916e-16 -5.19397e-16)
(1.03339 -6.84429e-16 -4.70416e-16)
(1.03561 -6.43822e-16 -5.24131e-16)
(1.03561 -6.5106e-16 -4.54214e-16)
(1.03782 -6.24574e-16 -4.98422e-16)
(1.03782 -6.19861e-16 -4.42804e-16)
(1.04001 -5.9844e-16 -4.69839e-16)
(1.04001 -6.12996e-16 -4.508e-16)
(1.04219 -5.80493e-16 -4.43103e-16)
(1.04219 -5.83526e-16 -4.37475e-16)
(1.04436 -5.70894e-16 -4.53869e-16)
(1.04436 -5.76798e-16 -4.28921e-16)
(1.04651 -5.12458e-16 -4.24517e-16)
(1.04651 -5.77628e-16 -4.15075e-16)
(1.04864 -5.56757e-16 -4.3192e-16)
(1.04864 -5.56115e-16 -4.2006e-16)
(1.05076 -5.65186e-16 -4.41402e-16)
(1.05076 -5.79047e-16 -4.6144e-16)
(1.05286 -5.61602e-16 -4.51526e-16)
(1.05286 -5.70799e-16 -4.73756e-16)
(1.05494 -5.68549e-16 -4.88858e-16)
(1.05494 -5.1227e-16 -4.48691e-16)
(1.05701 -5.75346e-16 -4.73259e-16)
(1.05701 -5.22445e-16 -4.71665e-16)
(1.05905 -5.59658e-16 -4.67749e-16)
(1.05905 -5.41733e-16 -4.8588e-16)
(1.06107 -5.5868e-16 -4.73113e-16)
(1.06107 -5.3351e-16 -4.90563e-16)
(1.06306 -5.5725e-16 -4.7171e-16)
(1.06306 -5.32787e-16 -5.0786e-16)
(1.06504 -5.08492e-16 -5.15703e-16)
(1.06504 -5.03405e-16 -5.4711e-16)
(1.06699 -4.95556e-16 -5.23909e-16)
(1.06699 -4.9512e-16 -4.90015e-16)
(1.06891 -4.81658e-16 -4.95082e-16)
(1.06891 -4.88411e-16 -4.41349e-16)
(1.0708 -4.86591e-16 -4.81471e-16)
(1.0708 -4.91437e-16 -4.35307e-16)
(1.07267 -4.94463e-16 -5.07096e-16)
(1.07267 -5.00016e-16 -3.86308e-16)
(1.0745 -4.75961e-16 -5.16762e-16)
(1.0745 -4.51476e-16 -3.96002e-16)
(1.07631 -4.48201e-16 -5.15989e-16)
(1.07631 -4.64558e-16 -4.07546e-16)
(1.07807 -4.34874e-16 -5.10253e-16)
(1.07807 -4.85558e-16 -3.93176e-16)
(1.0798 -4.63681e-16 -4.60638e-16)
(1.0798 -4.65671e-16 -3.81107e-16)
(1.08149 -4.12163e-16 -4.46201e-16)
(1.08149 -4.49154e-16 -3.96854e-16)
(1.08314 -4.06191e-16 -4.80792e-16)
(1.08314 -4.85197e-16 -3.71202e-16)
(1.08475 -3.94414e-16 -5.11848e-16)
(1.08475 -4.84174e-16 -3.87462e-16)
(1.08631 -3.9256e-16 -5.24019e-16)
(1.08631 -4.43682e-16 -4.00441e-16)
(1.08781 -4.28266e-16 -5.07834e-16)
(1.08781 -4.29804e-16 -3.85761e-16)
(1.08927 -4.53928e-16 -5.38378e-16)
(1.08927 -4.51366e-16 -4.71033e-16)
(1.09067 -3.59847e-16 -4.93123e-16)
(1.09067 -4.89441e-16 -5.05976e-16)
(1.092 -4.84451e-16 -4.11948e-16)
(1.092 -4.85977e-16 -3.96881e-16)
(1.09327 -5.09782e-16 -4.29371e-16)
(1.09327 -4.593e-16 -3.75923e-16)
(1.09447 -5.36261e-16 -4.83637e-16)
(1.09447 -4.66121e-16 -3.94922e-16)
(1.09559 -5.15474e-16 -4.07037e-16)
(1.09559 -4.48755e-16 -4.16604e-16)
(1.09664 -5.25823e-16 -3.10631e-16)
(1.09664 -4.27986e-16 -3.18361e-16)
(1.09759 -4.78727e-16 -2.46487e-16)
(1.09759 -4.1325e-16 -2.26533e-16)
(1.09846 -4.07463e-16 -2.44987e-16)
(1.09846 -3.72519e-16 -2.13763e-16)
(1.09922 -3.40636e-16 -2.2143e-16)
(1.09922 -3.5281e-16 -1.94693e-16)
(1.09987 -3.17744e-16 -2.56591e-16)
(1.09987 -3.30581e-16 -1.41504e-16)
(1.10041 -2.29465e-16 -2.32564e-16)
(1.10041 -3.30023e-16 -2.04171e-16)
(1.10083 -2.92688e-16 -2.00115e-16)
(1.10083 -3.22974e-16 -1.64815e-16)
(1.10112 -2.57316e-16 -1.96144e-16)
(1.10112 -3.32606e-16 -1.04822e-16)
(1.10127 -2.70334e-16 -1.43209e-16)
(1.10127 -2.62358e-16 -7.29306e-17)
(0.00570046 3.62075e-19 3.90134e-18)
(0.00570046 2.1479e-19 2.35808e-17)
(0.0172056 -7.10517e-19 9.11532e-18)
(0.0172056 -2.18052e-19 3.9283e-17)
(0.0289233 -6.148e-19 9.44685e-18)
(0.0289233 -1.14879e-20 4.07704e-17)
(0.0408574 -9.59582e-19 9.78434e-18)
(0.0408574 -3.18868e-20 4.23224e-17)
(0.0530118 -1.36602e-18 1.01273e-17)
(0.0530118 -4.025e-21 4.3941e-17)
(0.0653902 -1.7853e-18 1.04734e-17)
(0.0653902 8.48483e-20 4.56283e-17)
(0.0779961 -2.17218e-18 1.08219e-17)
(0.0779961 1.14686e-19 4.73853e-17)
(0.0908321 -2.52226e-18 1.11717e-17)
(0.0908321 6.21505e-20 4.92111e-17)
(0.1039 -2.79793e-18 1.15214e-17)
(0.1039 -4.29432e-20 5.11022e-17)
(0.117199 -3.07188e-18 1.1871e-17)
(0.117199 -2.02468e-19 5.30463e-17)
(0.130727 -3.48076e-18 1.22136e-17)
(0.130727 -3.23152e-19 5.50353e-17)
(0.144475 -3.97071e-18 1.25428e-17)
(0.144475 -3.02123e-19 5.70519e-17)
(0.158432 -4.46201e-18 1.28547e-17)
(0.158432 -3.25775e-19 5.90664e-17)
(0.172578 -5.01691e-18 1.31434e-17)
(0.172578 -3.77321e-19 6.10451e-17)
(0.186886 -5.50203e-18 1.33963e-17)
(0.186886 -4.32679e-19 6.295e-17)
(0.20132 -5.8619e-18 1.36081e-17)
(0.20132 -5.11917e-19 6.47316e-17)
(0.215835 -6.37698e-18 1.37707e-17)
(0.215835 -6.04795e-19 6.63377e-17)
(0.230378 -6.87021e-18 1.38671e-17)
(0.230378 -7.27429e-19 6.77359e-17)
(0.244889 -7.29495e-18 1.39014e-17)
(0.244889 -7.99361e-19 6.88659e-17)
(0.259306 -7.75975e-18 1.38654e-17)
(0.259306 -8.98734e-19 6.97094e-17)
(0.273565 -8.36448e-18 1.37578e-17)
(0.273565 -7.67918e-19 7.02644e-17)
(0.287605 -9.05322e-18 1.35831e-17)
(0.287605 -4.57341e-19 7.05359e-17)
(0.301373 -9.69521e-18 1.33505e-17)
(0.301373 -5.84412e-19 7.05348e-17)
(0.314823 -1.02704e-17 1.30764e-17)
(0.314823 -8.61725e-19 7.02863e-17)
(0.327917 -1.07619e-17 1.27661e-17)
(0.327917 -9.57151e-19 6.98392e-17)
(0.340631 -1.1383e-17 1.24325e-17)
(0.340631 -9.74704e-19 6.92357e-17)
(0.352947 -1.21171e-17 1.20817e-17)
(0.352947 -9.72865e-19 6.85053e-17)
(0.364857 -1.26748e-17 1.1724e-17)
(0.364857 -1.21796e-18 6.77073e-17)
(0.37636 -1.28996e-17 1.13692e-17)
(0.37636 -1.56368e-18 6.68539e-17)
(0.38746 -1.30757e-17 1.10362e-17)
(0.38746 -1.93465e-18 6.59559e-17)
(0.398167 -1.35993e-17 1.07185e-17)
(0.398167 -2.03228e-18 6.50569e-17)
(0.408493 -1.40715e-17 1.04095e-17)
(0.408493 -1.77827e-18 6.4176e-17)
(0.418452 -1.43709e-17 1.01206e-17)
(0.418452 -1.72173e-18 6.33263e-17)
(0.42806 -1.47588e-17 9.85372e-18)
(0.42806 -1.8243e-18 6.25218e-17)
(0.437334 -1.50772e-17 9.60611e-18)
(0.437334 -1.51892e-18 6.17831e-17)
(0.446291 -1.50217e-17 9.38435e-18)
(0.446291 -1.60127e-18 6.10926e-17)
(0.454947 -1.47897e-17 9.58054e-18)
(0.454947 -1.59797e-18 6.04611e-17)
(0.463318 -1.47125e-17 1.04352e-17)
(0.463318 -1.40377e-18 5.98852e-17)
(0.471421 -1.52559e-17 1.12902e-17)
(0.471421 -1.55924e-18 5.93723e-17)
(0.479271 -1.59246e-17 1.20997e-17)
(0.479271 -1.35912e-18 5.895e-17)
(0.486881 -1.64788e-17 1.29242e-17)
(0.486881 -6.30704e-19 5.85917e-17)
(0.494265 -1.709e-17 1.37707e-17)
(0.494265 -6.73744e-19 5.82862e-17)
(0.501436 -1.7537e-17 1.45883e-17)
(0.501436 -7.9553e-19 5.80759e-17)
(0.508407 -1.7915e-17 1.54209e-17)
(0.508407 -4.82819e-19 5.7886e-17)
(0.515187 -1.83234e-17 1.62681e-17)
(0.515187 2.24111e-19 5.77532e-17)
(0.521788 -1.86154e-17 1.71249e-17)
(0.521788 1.28335e-18 5.76724e-17)
(0.528219 -1.88135e-17 1.79165e-17)
(0.528219 1.28118e-18 5.77012e-17)
(0.534491 -1.87758e-17 1.87541e-17)
(0.534491 1.62775e-18 5.78067e-17)
(0.54061 -1.84953e-17 1.9677e-17)
(0.54061 2.35024e-18 5.79361e-17)
(0.546585 -1.84947e-17 2.06426e-17)
(0.546585 1.88729e-18 5.80803e-17)
(0.552425 -1.84271e-17 2.15825e-17)
(0.552425 1.30742e-18 5.83228e-17)
(0.558134 -1.8501e-17 2.25207e-17)
(0.558134 2.2944e-18 5.8637e-17)
(0.563722 -1.9565e-17 2.35728e-17)
(0.563722 2.8258e-18 5.89515e-17)
(0.569192 -2.06703e-17 2.45204e-17)
(0.569192 3.12165e-18 5.93986e-17)
(0.574552 -2.11718e-17 2.54974e-17)
(0.574552 4.23987e-18 5.98981e-17)
(0.579806 -2.15046e-17 2.65349e-17)
(0.579806 4.38808e-18 6.03801e-17)
(0.58496 -2.11087e-17 2.75312e-17)
(0.58496 4.78761e-18 6.09766e-17)
(0.590018 -2.19267e-17 2.86269e-17)
(0.590018 5.78758e-18 6.16479e-17)
(0.594984 -2.33218e-17 2.96481e-17)
(0.594984 6.50604e-18 6.2441e-17)
(0.599864 -2.3729e-17 3.0621e-17)
(0.599864 6.39618e-18 6.33274e-17)
(0.60466 -2.35094e-17 3.16332e-17)
(0.60466 5.83493e-18 6.42348e-17)
(0.609377 -2.33527e-17 3.27884e-17)
(0.609377 5.101e-18 6.51178e-17)
(0.614018 -2.39608e-17 3.40178e-17)
(0.614018 4.19425e-18 6.61011e-17)
(0.618586 -2.47455e-17 3.52485e-17)
(0.618586 4.89644e-18 6.71579e-17)
(0.623084 -2.50179e-17 3.64414e-17)
(0.623084 5.35251e-18 6.83474e-17)
(0.627515 -2.45495e-17 3.77221e-17)
(0.627515 5.01608e-18 6.96534e-17)
(0.631883 -2.45482e-17 3.91886e-17)
(0.631883 4.96693e-18 7.09252e-17)
(0.636189 -2.53028e-17 4.05603e-17)
(0.636189 4.15251e-18 7.22724e-17)
(0.640437 -2.62259e-17 4.18319e-17)
(0.640437 3.25269e-18 7.37247e-17)
(0.644627 -2.57848e-17 4.31403e-17)
(0.644627 3.26882e-18 7.51504e-17)
(0.648764 -2.45926e-17 4.48323e-17)
(0.648764 3.32558e-18 7.63669e-17)
(0.652848 -2.44683e-17 4.65703e-17)
(0.652848 2.61813e-18 7.76528e-17)
(0.656882 -2.64707e-17 4.82859e-17)
(0.656882 3.49615e-18 7.90711e-17)
(0.660867 -2.83484e-17 4.99134e-17)
(0.660867 3.98088e-18 8.05287e-17)
(0.664806 -2.83888e-17 5.14312e-17)
(0.664806 4.13805e-18 8.18479e-17)
(0.668701 -2.9463e-17 5.28885e-17)
(0.668701 5.17923e-18 8.34109e-17)
(0.672552 -3.00586e-17 5.46875e-17)
(0.672552 7.02749e-18 8.46708e-17)
(0.676361 -3.14618e-17 5.6898e-17)
(0.676361 6.24248e-18 8.56677e-17)
(0.68013 -3.33307e-17 5.85016e-17)
(0.68013 4.79273e-18 8.70529e-17)
(0.683861 -3.33027e-17 6.00552e-17)
(0.683861 6.79534e-18 8.84793e-17)
(0.687554 -3.3144e-17 6.1964e-17)
(0.687554 7.17913e-18 8.96362e-17)
(0.691211 -3.34877e-17 6.41007e-17)
(0.691211 8.28905e-18 9.06358e-17)
(0.694833 -3.39687e-17 6.62546e-17)
(0.694833 9.17389e-18 9.18171e-17)
(0.698422 -3.346e-17 6.81135e-17)
(0.698422 8.16625e-18 9.29907e-17)
(0.701977 -3.23326e-17 6.98191e-17)
(0.701977 8.78231e-18 9.42979e-17)
(0.705502 -3.13835e-17 7.18928e-17)
(0.705502 9.54603e-18 9.55026e-17)
(0.708996 -2.92757e-17 7.43152e-17)
(0.708996 7.63591e-18 9.63797e-17)
(0.71246 -2.65328e-17 7.66014e-17)
(0.71246 7.65984e-18 9.73231e-17)
(0.715896 -2.48497e-17 7.93045e-17)
(0.715896 8.1903e-18 9.82881e-17)
(0.719305 -2.5032e-17 8.19553e-17)
(0.719305 8.43613e-18 9.94887e-17)
(0.722686 -2.64317e-17 8.43874e-17)
(0.722686 9.85582e-18 1.0075e-16)
(0.726042 -2.63733e-17 8.69851e-17)
(0.726042 1.12314e-17 1.01992e-16)
(0.729373 -2.69895e-17 9.01017e-17)
(0.729373 9.57098e-18 1.03164e-16)
(0.732679 -2.88627e-17 9.29003e-17)
(0.732679 7.64897e-18 1.04275e-16)
(0.735961 -2.91964e-17 9.57033e-17)
(0.735961 1.1992e-17 1.0563e-16)
(0.739221 -2.96776e-17 9.88753e-17)
(0.739221 1.71938e-17 1.06915e-16)
(0.742459 -3.14798e-17 1.02098e-16)
(0.742459 1.78391e-17 1.08317e-16)
(0.745675 -3.31276e-17 1.0487e-16)
(0.745675 1.92674e-17 1.10314e-16)
(0.74887 -3.42758e-17 1.07919e-16)
(0.74887 2.09623e-17 1.1237e-16)
(0.752045 -3.39929e-17 1.10668e-16)
(0.752045 1.81032e-17 1.1463e-16)
(0.7552 -3.39078e-17 1.1365e-16)
(0.7552 1.91079e-17 1.16877e-16)
(0.758336 -3.497e-17 1.17521e-16)
(0.758336 2.25821e-17 1.18245e-16)
(0.761454 -3.5543e-17 1.20978e-16)
(0.761454 2.14609e-17 1.19986e-16)
(0.764553 -3.59459e-17 1.23616e-16)
(0.764553 2.21293e-17 1.22296e-16)
(0.767635 -3.54593e-17 1.27151e-16)
(0.767635 2.49272e-17 1.2413e-16)
(0.7707 -3.42537e-17 1.30942e-16)
(0.7707 2.3561e-17 1.25845e-16)
(0.773749 -3.35331e-17 1.34596e-16)
(0.773749 2.30399e-17 1.28023e-16)
(0.776781 -3.23744e-17 1.38366e-16)
(0.776781 2.31813e-17 1.3046e-16)
(0.779797 -3.36324e-17 1.42399e-16)
(0.779797 2.10577e-17 1.3269e-16)
(0.782798 -3.69592e-17 1.47278e-16)
(0.782798 1.86314e-17 1.34485e-16)
(0.785785 -3.82424e-17 1.51155e-16)
(0.785785 1.89864e-17 1.36553e-16)
(0.788757 -3.72705e-17 1.55931e-16)
(0.788757 1.98351e-17 1.38921e-16)
(0.791715 -3.45679e-17 1.60473e-16)
(0.791715 2.08264e-17 1.41881e-16)
(0.794659 -3.261e-17 1.65791e-16)
(0.794659 2.27707e-17 1.44804e-16)
(0.79759 -3.53286e-17 1.71371e-16)
(0.79759 2.34314e-17 1.44667e-16)
(0.800507 -3.65776e-17 1.76215e-16)
(0.800507 2.42584e-17 1.42591e-16)
(0.803413 -3.34322e-17 1.82221e-16)
(0.803413 2.72331e-17 1.40778e-16)
(0.806306 -3.39302e-17 1.87934e-16)
(0.806306 2.37873e-17 1.38385e-16)
(0.809186 -3.68442e-17 1.93583e-16)
(0.809186 2.23755e-17 1.34933e-16)
(0.812056 -3.87492e-17 1.9897e-16)
(0.812056 2.43104e-17 1.315e-16)
(0.814913 -3.85067e-17 2.04511e-16)
(0.814913 2.39692e-17 1.28096e-16)
(0.81776 -3.49658e-17 2.11777e-16)
(0.81776 2.51589e-17 1.25148e-16)
(0.820596 -3.46677e-17 2.18883e-16)
(0.820596 2.32696e-17 1.22391e-16)
(0.823421 -3.7432e-17 2.24449e-16)
(0.823421 2.13758e-17 1.19419e-16)
(0.826236 -3.86815e-17 2.30579e-16)
(0.826236 2.61234e-17 1.16831e-16)
(0.829041 -3.97866e-17 2.36489e-16)
(0.829041 2.73117e-17 1.1531e-16)
(0.831836 -3.8206e-17 2.42429e-16)
(0.831836 2.3971e-17 1.13701e-16)
(0.834621 -3.84639e-17 2.48955e-16)
(0.834621 2.68585e-17 1.12192e-16)
(0.837397 -3.99712e-17 2.56092e-16)
(0.837397 2.5975e-17 1.09106e-16)
(0.840164 -3.84753e-17 2.63512e-16)
(0.840164 2.61892e-17 1.06512e-16)
(0.842921 -3.53215e-17 2.69298e-16)
(0.842921 2.71222e-17 1.05613e-16)
(0.845671 -3.65843e-17 2.77942e-16)
(0.845671 2.66111e-17 1.04676e-16)
(0.848411 -4.14869e-17 2.8646e-16)
(0.848411 2.63626e-17 1.02577e-16)
(0.851143 -4.67155e-17 2.95372e-16)
(0.851143 2.22891e-17 9.97441e-17)
(0.853867 -5.20757e-17 3.04164e-16)
(0.853867 2.32719e-17 9.99818e-17)
(0.856583 -5.62626e-17 3.11905e-16)
(0.856583 3.01904e-17 9.9562e-17)
(0.859291 -6.1796e-17 3.1901e-16)
(0.859291 3.13972e-17 9.85383e-17)
(0.861991 -6.20169e-17 3.27109e-16)
(0.861991 2.82413e-17 9.7623e-17)
(0.864684 -5.83779e-17 3.30075e-16)
(0.864684 2.35216e-17 9.68613e-17)
(0.86737 -5.85754e-17 3.31086e-16)
(0.86737 1.33282e-17 9.43023e-17)
(0.870048 -6.13578e-17 3.32299e-16)
(0.870048 1.19305e-17 8.95484e-17)
(0.872719 -6.07831e-17 3.35239e-16)
(0.872719 1.04651e-17 8.56397e-17)
(0.875383 -5.53264e-17 3.38011e-16)
(0.875383 4.91054e-18 8.27545e-17)
(0.878041 -5.29507e-17 3.4016e-16)
(0.878041 6.58218e-18 8.16558e-17)
(0.880691 -5.82426e-17 3.40281e-16)
(0.880691 6.02376e-18 7.89078e-17)
(0.883336 -6.15411e-17 3.40363e-16)
(0.883336 4.46959e-18 7.79508e-17)
(0.885973 -6.31784e-17 3.40751e-16)
(0.885973 2.34634e-18 7.73774e-17)
(0.888605 -6.77004e-17 3.42617e-16)
(0.888605 -2.61331e-18 7.43929e-17)
(0.89123 -7.17337e-17 3.44384e-16)
(0.89123 -3.42801e-18 7.24101e-17)
(0.893848 -7.94129e-17 3.44855e-16)
(0.893848 -1.63197e-17 7.19029e-17)
(0.896461 -9.186e-17 3.43758e-16)
(0.896461 -2.694e-17 6.81196e-17)
(0.899068 -9.60599e-17 3.40769e-16)
(0.899068 -1.91558e-17 6.37844e-17)
(0.901669 -9.38377e-17 3.39386e-16)
(0.901669 -2.18749e-17 5.62293e-17)
(0.904264 -8.95818e-17 3.36882e-16)
(0.904264 -2.07486e-17 4.99594e-17)
(0.906853 -8.73464e-17 3.37263e-16)
(0.906853 -2.57582e-17 4.91304e-17)