/*--------------------------------*- C++ -*----------------------------------*\
| =========                 |                                                 |
| \\      /  F ield         | OpenFOAM: The Open Source CFD Toolbox           |
|  \\    /   O peration     | Version:  2106                                  |
|   \\  /    A nd           | Website:  www.openfoam.com                      |
|    \\/     M anipulation  |                                                 |
\*---------------------------------------------------------------------------*/
FoamFile
{
    version     2.0;
    format      ascii;
    arch        "LSB;label=32;scalar=64";
    class       volTensorField;
    location    "10060";
    object      grad(U);
}
// * * * * * * * * * * * * * * * * * * * * * * * * * * * * * * * * * * * * * //

dimensions      [0 0 -1 0 0 0 0];

internalField   nonuniform List<tensor> 
2000
(
(0 -3.14559e-26 1.01629e-31 35.0311 -8.05725e-12 -9.8379e-14 0.0648358 -7.45464e-15 -1.04754e-16)
(0 -1.80962e-28 -1.01629e-31 35.0311 1.97215e-31 1.0271e-17 0.0648358 -4.52407e-29 1.01646e-16)
(0 0 3.02096e-31 35.0244 0 -1.50417e-14 0.195693 -3.15544e-30 -5.67126e-17)
(0 -2.23478e-29 -2.49418e-31 35.0244 -1.90545e-15 1.37748e-17 0.195693 -5.021e-18 1.34885e-16)
(1.0229e-16 1.37091e-33 -1.78203e-32 35.0177 6.00835e-13 -6.07056e-15 0.271472 -2.44019e-15 -3.63609e-17)
(-1.10269e-16 9.40214e-30 9.79389e-32 35.0177 -1.21055e-15 1.28456e-17 0.271472 -6.00961e-18 1.40015e-16)
(-2.61206e-17 2.28923e-30 -6.45944e-32 35.0109 3.9257e-13 -5.04894e-15 0.276485 -6.83102e-15 -4.27125e-17)
(1.04482e-16 3.07662e-30 1.92288e-31 35.0109 -1.58829e-15 1.95544e-17 0.276485 -8.79687e-18 1.45388e-16)
(0 -1.79366e-43 1.41574e-31 35.0039 2.95146e-30 -5.68408e-15 0.28159 0 -4.79509e-17)
(0 -3.02024e-30 -9.43824e-32 35.0039 -1.70274e-15 2.1165e-17 0.28159 -1.16816e-17 1.50994e-16)
(-2.08636e-16 2.6684e-29 1.85306e-31 34.9968 5.93266e-14 -6.06775e-15 0.286787 -1.07381e-15 -5.06106e-17)
(-4.50248e-17 -2.6684e-29 -1.85306e-31 34.9968 -1.85894e-15 2.36991e-17 0.286787 -1.50781e-17 1.56843e-16)
(1.02406e-16 -3.89625e-28 -9.09551e-32 34.9895 -1.56194e-27 -6.25339e-15 0.292079 -3.15544e-30 -5.28574e-17)
(3.30323e-16 5.82112e-30 9.09551e-32 34.9895 -1.87128e-15 2.58244e-17 0.292079 -1.85428e-17 1.62952e-16)
(0 0 -8.92883e-32 34.9819 3.56938e-15 -6.41145e-15 0.297465 -2.82157e-17 -5.52062e-17)
(8.16802e-16 5.71445e-30 1.33933e-31 34.9819 -1.89405e-15 2.82698e-17 0.297465 -2.19796e-17 1.6933e-16)
(-1.2198e-16 6.0298e-30 -5.54e-33 34.9739 2.79724e-15 -6.56882e-15 0.302946 -3.1968e-17 -5.75757e-17)
(0 0 1.31478e-31 34.9739 -1.98945e-15 2.91494e-17 0.302946 -2.56217e-17 1.75999e-16)
(1.93758e-16 -2.75347e-30 -4.3023e-32 34.9653 1.77738e-15 -6.71871e-15 0.308522 -1.59007e-17 -5.99321e-17)
(-1.93758e-16 2.75347e-30 4.3023e-32 34.9653 -2.11959e-15 2.75287e-17 0.308522 -2.94185e-17 1.82948e-16)
(5.70623e-16 -2.70301e-29 -4.22346e-31 34.9558 1.90523e-15 -6.861e-15 0.314191 -1.51725e-17 -6.23035e-17)
(0 2.70301e-29 4.22346e-31 34.9558 -2.15077e-15 2.86724e-17 0.314191 -3.39881e-17 1.90197e-16)
(1.83851e-16 -5.72241e-31 3.9242e-32 34.9451 2.36526e-15 -6.99761e-15 0.319951 -1.87985e-17 -6.46923e-17)
(5.48682e-16 0 -8.29213e-32 34.9451 -2.09843e-15 2.95277e-17 0.319951 -3.78575e-17 1.97767e-16)
(0 0 8.14018e-32 34.9325 2.86175e-15 -7.1296e-15 0.325797 -2.41695e-17 -6.71137e-17)
(0 0 -8.14018e-32 34.9325 -2.17056e-15 2.9834e-17 0.325797 -4.20412e-17 2.05652e-16)
(-5.86909e-16 2.87943e-29 4.47252e-31 34.9175 3.08939e-15 -7.25723e-15 0.331721 -2.87698e-17 -6.95557e-17)
(0 -2.0457e-29 -3.99551e-31 34.9175 -2.10936e-15 3.03592e-17 0.331721 -4.70195e-17 2.1387e-16)
(-6.025e-16 8.24275e-30 4.42078e-31 34.899 3.08265e-15 -7.37881e-15 0.337716 -2.94064e-17 -7.19963e-17)
(0 0 -1.56892e-31 34.899 -2.25848e-15 2.86091e-17 0.337716 -5.15042e-17 2.22423e-16)
(9.65435e-16 -1.30785e-29 -2.06101e-31 34.8759 2.98341e-15 -7.49381e-15 0.343766 -2.97234e-17 -7.44446e-17)
(-1.08722e-15 9.85707e-30 1.54017e-31 34.8759 -2.6046e-15 3.11847e-17 0.343766 -5.60167e-17 2.31294e-16)
(0 -4.83822e-30 -1.51194e-31 34.8468 2.7729e-15 -7.60018e-15 0.349856 -2.85574e-17 -7.68462e-17)
(0 4.83822e-30 2.26792e-31 34.8468 -2.48568e-15 3.24756e-17 0.349856 -6.08966e-17 2.40545e-16)
(1.30493e-15 -3.49389e-29 -5.58993e-31 34.8098 2.71285e-15 -7.69465e-15 0.355962 -2.66144e-17 -7.91831e-17)
(1.27297e-15 2.84974e-29 3.71059e-31 34.8098 -2.38565e-15 3.41816e-17 0.355962 -6.53976e-17 2.5012e-16)
(-3.42096e-16 1.25451e-29 1.3226e-31 34.7627 2.98922e-15 -7.77268e-15 0.362057 -2.84047e-17 -8.13684e-17)
(-6.56192e-16 -4.66253e-30 0 34.7627 -2.41463e-15 3.13124e-17 0.362057 -7.02301e-17 2.60048e-16)
(3.6638e-16 -3.21845e-30 -1.33582e-31 34.7028 3.24864e-15 -7.82832e-15 0.368105 -3.33786e-17 -8.33485e-17)
(1.46552e-15 4.57709e-30 1.43034e-31 34.7028 -2.30314e-15 2.65412e-17 0.368105 -7.7061e-17 2.70222e-16)
(-3.91095e-16 -1.27602e-30 6.48258e-32 34.6272 3.43548e-15 -7.85751e-15 0.374064 -3.49839e-17 -8.50658e-17)
(3.12876e-15 4.49321e-30 0 34.6272 -2.65341e-15 3.56969e-17 0.374064 -8.45545e-17 2.80649e-16)
(0 1.32326e-29 1.3784e-31 34.5322 3.8055e-15 -7.85576e-15 0.379884 -3.86779e-17 -8.64508e-17)
(1.0442e-15 -8.82175e-30 0 34.5322 -3.41329e-15 4.489e-17 0.379884 -9.33042e-17 2.91334e-16)
(6.094e-16 -1.29901e-29 -2.70628e-31 34.414 3.80431e-15 -7.81902e-15 0.385507 -4.44557e-17 -8.74466e-17)
(1.15789e-15 1.29901e-29 2.70628e-31 34.414 -3.52115e-15 4.87739e-17 0.385507 -1.03542e-16 3.02239e-16)
(0 1.27521e-29 3.98503e-31 34.2684 3.56259e-15 -7.74333e-15 0.390867 -4.01088e-17 -8.79777e-17)
(1.87132e-15 -8.5014e-30 -2.65669e-31 34.2684 -3.22714e-15 4.55307e-17 0.390867 -1.12807e-16 3.13319e-16)
(-4.94253e-16 3.21218e-30 -5.35675e-32 34.0906 3.98785e-15 -7.62301e-15 0.395893 -4.06036e-17 -8.79391e-17)
(0 4.17281e-30 2.60801e-31 34.0906 -3.15033e-15 4.12293e-17 0.395893 -1.222e-16 3.24458e-16)
(0 -2.04817e-29 -6.40054e-31 33.8762 4.09678e-15 -7.45321e-15 0.400508 -5.15255e-17 -8.72641e-17)
(2.08433e-15 2.04817e-29 6.40054e-31 33.8762 -2.9452e-15 4.03251e-17 0.400508 -1.32644e-16 3.35594e-16)
(1.76426e-17 -4.83361e-30 -4.23451e-32 33.6204 3.51165e-15 -7.23441e-15 0.40463 -4.47184e-17 -8.59643e-17)
(0 8.04256e-30 2.5133e-31 33.6204 -2.92737e-15 3.56501e-17 0.40463 -1.4203e-16 3.46601e-16)
(-5.75886e-16 -7.39046e-31 8.66349e-32 33.3192 3.95577e-15 -6.96548e-15 0.408181 -3.93243e-17 -8.39309e-17)
(0 3.94759e-30 1.23362e-31 33.3192 -3.29517e-15 3.46923e-17 0.408181 -1.51293e-16 3.57401e-16)
(0 3.87525e-30 1.21102e-31 32.9686 4.7067e-15 -6.64759e-15 0.411085 -5.73385e-17 -8.12306e-17)
(0 0 0 32.9686 -3.7735e-15 4.09405e-17 0.411085 -1.59732e-16 3.67947e-16)
(-2.77362e-15 2.98326e-29 9.25492e-31 32.5658 4.73426e-15 -6.28279e-15 0.413271 -5.96401e-17 -7.77734e-17)
(-1.45731e-15 -1.90212e-29 -5.94412e-31 32.5658 -3.75512e-15 4.00968e-17 0.413271 -1.71703e-16 3.78203e-16)
(6.60508e-16 -3.20091e-30 -2.13329e-31 32.1088 4.97153e-15 -5.87561e-15 0.414683 -6.02032e-17 -7.36942e-17)
(2.64203e-15 0 1.16704e-31 32.1088 -3.60144e-15 3.64893e-17 0.414683 -1.85183e-16 3.87954e-16)
(-1.03191e-15 7.33219e-30 2.29131e-31 31.5971 5.2086e-15 -5.43434e-15 0.415276 -6.80626e-17 -6.90052e-17)
(0 -3.66609e-30 -1.14565e-31 31.5971 -4.17568e-15 4.0686e-17 0.415276 -1.97827e-16 3.97168e-16)
(-1.73106e-15 1.75911e-29 4.40424e-31 31.0312 5.14318e-15 -4.96708e-15 0.415026 -6.8757e-17 -6.38518e-17)
(1.013e-15 -1.43957e-29 -3.37398e-31 31.0312 -4.30137e-15 5.03975e-17 0.415026 -2.12328e-16 4.05819e-16)
(2.47439e-16 -3.39275e-31 -2.25141e-31 30.4132 4.79762e-15 -4.48124e-15 0.413924 -6.88604e-17 -5.82395e-17)
(-9.94441e-16 7.06593e-30 4.41621e-31 30.4132 -3.40457e-15 5.13594e-17 0.413924 -2.27232e-16 4.13946e-16)
(0 -2.42776e-29 -7.58674e-31 29.7466 4.50976e-15 -3.9894e-15 0.411983 -6.18413e-17 -5.24743e-17)
(3.10397e-15 2.42776e-29 7.58674e-31 29.7466 -3.20731e-15 4.47873e-17 0.411983 -2.38342e-16 4.21322e-16)
(-1.91666e-15 3.40467e-30 3.19188e-31 29.0359 4.63559e-15 -3.50389e-15 0.409233 -6.33881e-17 -4.65739e-17)
(0 0 -1.06396e-31 29.0359 -3.85619e-15 4.4891e-17 0.409233 -2.52655e-16 4.27885e-16)
(8.33845e-16 1.53991e-31 9.48326e-32 28.2868 4.73334e-15 -3.02829e-15 0.405723 -6.77638e-17 -4.06209e-17)
(3.33538e-15 -3.34228e-30 -2.08893e-31 28.2868 -3.83826e-15 4.63147e-17 0.405723 -2.68203e-16 4.33654e-16)
(-8.62582e-16 -1.65003e-29 -7.04024e-31 27.5056 4.94513e-15 -2.57351e-15 0.401513 -6.86192e-17 -3.48569e-17)
(2.5268e-15 2.29672e-29 9.22791e-31 27.5056 -4.18711e-15 4.36311e-17 0.401513 -2.77825e-16 4.38567e-16)
(-8.91114e-16 -1.61432e-29 -5.86439e-31 26.6992 5.23951e-15 -2.14866e-15 0.396676 -7.65914e-17 -2.93311e-17)
(-9.06606e-16 2.25464e-29 9.05881e-31 26.6992 -4.87127e-15 4.01718e-17 0.396676 -2.9747e-16 4.42612e-16)
(0 1.89713e-29 8.89281e-31 25.8745 5.04505e-15 -1.76199e-15 0.391291 -8.00882e-17 -2.42842e-17)
(3.67754e-15 -1.89713e-29 -8.89281e-31 25.8745 -4.73185e-15 3.93245e-17 0.391291 -3.1518e-16 4.45847e-16)
(-1.8947e-15 9.46071e-30 7.27068e-31 25.0383 4.78174e-15 -1.41798e-15 0.385441 -7.34997e-17 -1.96643e-17)
(3.7894e-15 0 -2.90995e-31 25.0383 -4.60783e-15 4.65564e-17 0.385441 -3.26422e-16 4.48288e-16)
(8.57674e-16 -3.04707e-30 -3.80884e-31 24.1973 4.86914e-15 -1.11795e-15 0.379208 -7.48609e-17 -1.56288e-17)
(0 3.04707e-30 3.80884e-31 24.1973 -3.61417e-15 3.55512e-17 0.379208 -3.4565e-16 4.50073e-16)
(0 -1.19649e-29 -3.73904e-31 23.3574 4.27881e-15 -8.6128e-16 0.372674 -7.90574e-17 -1.20654e-17)
(0 1.19649e-29 5.60856e-31 23.3574 -2.41015e-15 1.92719e-18 0.372674 -3.56409e-16 4.51079e-16)
(-1.02898e-15 1.49199e-29 8.57472e-31 22.524 4.11872e-15 -6.44751e-16 0.365914 -5.85e-17 -9.05063e-18)
(-4.11591e-15 -8.80926e-30 -3.67052e-31 22.524 -1.5973e-15 -1.26628e-17 0.365914 -3.67496e-16 4.51096e-16)
(1.05533e-15 2.59556e-30 4.16804e-31 21.7019 4.57313e-15 -4.7108e-16 0.358997 -7.67375e-17 -6.6642e-18)
(2.59854e-15 -2.88261e-30 -3.60326e-31 21.7019 -1.73468e-15 -1.60244e-17 0.358997 -3.70499e-16 4.50483e-16)
(1.08121e-15 2.51304e-29 5.83606e-31 20.8951 4.28062e-15 -3.33882e-16 0.351989 -7.6026e-17 -4.67931e-18)
(-4.32484e-15 -2.82979e-29 -7.07447e-31 20.8951 -3.72378e-15 2.18932e-18 0.351989 -3.76852e-16 4.49128e-16)
(-1.10661e-15 -5.16716e-30 -2.23368e-31 20.1068 3.81372e-15 -2.24671e-16 0.344943 -6.95821e-17 -3.09422e-18)
(4.42645e-15 8.3338e-30 5.20862e-31 20.1068 -3.53126e-15 2.07068e-17 0.344943 -3.99205e-16 4.47711e-16)
(0 -1.90892e-29 -5.11318e-31 19.3396 3.55241e-15 -1.45286e-16 0.337909 -6.2555e-17 -2.02621e-18)
(9.05219e-15 2.45433e-29 6.81757e-31 19.3396 -2.24889e-15 2.05789e-17 0.337909 -4.06048e-16 4.46079e-16)
(2.66299e-15 -2.72576e-29 -9.6013e-31 18.5955 3.82409e-15 -9.62355e-17 0.330927 -6.28903e-17 -1.42997e-18)
(4.62376e-15 2.40935e-29 6.69264e-31 18.5955 -3.41481e-15 2.58537e-17 0.330927 -4.11011e-16 4.44034e-16)
(-1.17986e-15 1.63002e-29 4.51773e-31 17.876 4.80795e-15 -6.42666e-17 0.324031 -7.4776e-17 -9.2021e-19)
(-4.71944e-15 -7.884e-30 0 17.876 -3.99758e-15 1.63259e-17 0.324031 -4.37085e-16 4.41778e-16)
(0 -7.73953e-30 -4.8372e-31 17.1819 5.58773e-15 -4.95722e-17 0.317249 -1.01648e-16 -9.30238e-19)
(0 7.73953e-30 6.44961e-31 17.1819 -3.2703e-15 5.27052e-18 0.317249 -4.56735e-16 4.39167e-16)
(-2.65193e-15 2.34104e-29 7.55679e-31 16.5139 5.866e-15 -5.22778e-17 0.310603 -1.06972e-16 -1.05872e-18)
(0 -1.51954e-29 -3.16571e-31 16.5139 -3.25908e-15 2.65121e-17 0.310603 -4.58166e-16 4.36535e-16)
(0 -4.97232e-30 -3.1077e-31 15.8721 6.34953e-15 -6.53615e-17 0.304112 -1.16158e-16 -1.47679e-18)
(0 4.97232e-30 3.1077e-31 15.8721 -3.87474e-15 3.19258e-17 0.304112 -4.78129e-16 4.3419e-16)
(0 9.7624e-30 4.57613e-31 15.2564 6.94332e-15 -8.92275e-17 0.297787 -1.29906e-16 -2.04907e-18)
(-5.08261e-15 -1.95248e-29 -6.1015e-31 15.2564 -4.43272e-15 2.12219e-17 0.297787 -5.07738e-16 4.31689e-16)
(-5.65894e-17 6.45143e-30 6.2728e-31 14.6664 7.49877e-15 -1.134e-16 0.291638 -1.44182e-16 -2.51305e-18)
(0 -4.79176e-30 -4.49227e-31 14.6664 -4.79731e-15 2.7946e-17 0.291638 -5.26125e-16 4.29211e-16)
(-1.31323e-15 3.12507e-30 -1.72967e-31 14.1017 6.66865e-15 -1.40895e-16 0.285672 -1.57335e-16 -3.26252e-18)
(0 4.70395e-30 4.40995e-31 14.1017 -4.86252e-15 4.70207e-17 0.285672 -5.55545e-16 4.26686e-16)
(-1.36794e-15 -1.22171e-29 -4.80222e-31 13.5616 5.49728e-15 -1.75654e-16 0.279891 -1.1531e-16 -4.07099e-18)
(5.33544e-15 1.38533e-29 5.77219e-31 13.5616 -4.50669e-15 5.97302e-17 0.279891 -5.81594e-16 4.24578e-16)
(-1.35406e-15 3.12367e-30 1.20164e-31 13.0454 5.87213e-15 -2.2251e-16 0.274298 -1.13953e-16 -5.39472e-18)
(0 0 0 13.0454 -4.60251e-15 5.37674e-17 0.274298 -5.97701e-16 4.2241e-16)
(-5.25284e-15 2.84851e-29 1.07399e-30 12.5522 6.06901e-15 -2.77019e-16 0.268893 -1.3573e-16 -6.60552e-18)
(-2.9902e-15 -2.22503e-29 -8.34387e-31 12.5522 -4.28616e-15 1.79389e-17 0.268893 -6.19052e-16 4.20555e-16)
(1.39322e-15 5.62238e-30 1.53571e-31 12.0811 5.18375e-15 -3.34602e-16 0.263673 -1.26847e-16 -8.16034e-18)
(-5.57289e-15 -1.74741e-29 -4.09548e-31 12.0811 -3.47117e-15 -3.88322e-17 0.263673 -6.40725e-16 4.18207e-16)
(-1.2071e-15 8.57693e-30 5.36058e-31 11.6313 4.0525e-15 -3.99978e-16 0.258636 -1.01452e-16 -9.81784e-18)
(0 -4.28847e-30 -1.34015e-31 11.6313 -2.93534e-15 -4.7854e-17 0.258636 -6.59448e-16 4.1508e-16)
(-4.91724e-16 -2.18865e-30 -2.88477e-31 11.2018 3.99105e-15 -4.631e-16 0.253778 -8.03488e-17 -1.13825e-17)
(9.07675e-15 4.20988e-30 5.26235e-31 11.2018 -3.31636e-15 -8.77268e-20 0.253778 -6.67032e-16 4.11547e-16)
(-1.4491e-15 1.55083e-29 5.06108e-31 10.7918 4.65205e-15 -5.20801e-16 0.249095 -1.02438e-16 -1.29019e-17)
(5.79639e-15 -1.23982e-29 -3.87444e-31 10.7918 -5.16233e-15 5.81288e-17 0.249095 -6.75772e-16 4.08496e-16)
(0 -1.2171e-29 -2.53563e-31 10.4003 4.50372e-15 -5.84586e-16 0.244582 -1.14468e-16 -1.48676e-17)
(0 1.2171e-29 3.80344e-31 10.4003 -5.38318e-15 3.21199e-17 0.244582 -6.89732e-16 4.06325e-16)
(-3.72662e-15 3.10641e-30 1.18616e-31 10.0264 4.49058e-15 -6.38928e-16 0.240235 -9.91906e-17 -1.60404e-17)
(5.93833e-15 3.98266e-30 3.73375e-31 10.0264 -3.78143e-15 7.05635e-18 0.240235 -7.11354e-16 4.03668e-16)
(0 1.1729e-29 4.8871e-31 9.66941 5.71118e-15 -6.78844e-16 0.236047 -1.1814e-16 -1.74125e-17)
(-2.20095e-15 -7.81936e-30 -2.44355e-31 9.66941 -3.01741e-15 -1.02893e-17 0.236047 -7.30364e-16 4.01526e-16)
(-1.51877e-15 1.0766e-29 5.98622e-31 9.32834 6.73824e-15 -7.25845e-16 0.232013 -1.63617e-16 -1.90254e-17)
(0 -3.83804e-30 -2.39877e-31 9.32834 -3.89613e-15 -5.22886e-17 0.232013 -7.41419e-16 3.98584e-16)
(-2.12103e-15 7.53541e-30 5.88704e-31 9.00246 5.76584e-15 -7.77789e-16 0.228128 -1.7461e-16 -2.07487e-17)
(0 -3.76771e-30 -3.53222e-31 9.00246 -4.35516e-15 -1.63106e-17 0.228128 -7.67512e-16 3.95769e-16)
(0 -1.1096e-29 -5.77916e-31 8.69099 4.31961e-15 -8.35961e-16 0.224386 -1.19612e-16 -2.27996e-17)
(6.20704e-15 1.1096e-29 5.77916e-31 8.69099 -3.63522e-15 -1.48206e-17 0.224386 -7.99311e-16 3.94216e-16)
(0 1.45235e-29 9.07722e-31 8.3932 4.61254e-15 -8.92869e-16 0.220781 -1.05181e-16 -2.45772e-17)
(0 -1.45235e-29 -9.07722e-31 8.3932 -4.3435e-15 -5.93594e-17 0.220781 -8.18944e-16 3.91567e-16)
(-1.58363e-15 1.02092e-29 1.20901e-31 8.1084 6.20504e-15 -9.39675e-16 0.217309 -1.39802e-16 -2.62114e-17)
(6.33453e-15 0 2.22772e-31 8.1084 -4.89424e-15 -1.51075e-17 0.217309 -8.57617e-16 3.87888e-16)
(0 -1.39961e-29 -8.74759e-31 7.83593 6.59377e-15 -9.72252e-16 0.213963 -1.95995e-16 -2.73132e-17)
(6.3967e-15 1.39961e-29 8.74759e-31 7.83593 -4.72011e-15 4.09189e-17 0.213963 -9.09683e-16 3.84625e-16)
(-1.61447e-15 1.68062e-29 8.73687e-31 7.57515 4.99827e-15 -1.00071e-15 0.21074 -1.66667e-16 -2.88095e-17)
(-6.45787e-15 -1.37397e-29 -7.51388e-31 7.57515 -5.89133e-15 1.12251e-17 0.21074 -9.48495e-16 3.81516e-16)
(1.89825e-15 -1.01159e-29 -4.21497e-31 7.32548 4.31735e-15 -1.05015e-15 0.207632 -1.13087e-16 -3.11927e-17)
(-6.51809e-15 1.01159e-29 4.21497e-31 7.32548 -5.7796e-15 -8.06206e-18 0.207632 -1.00616e-15 3.77655e-16)
(-3.28869e-15 2.82726e-30 4.0706e-32 7.08635 4.38466e-15 -1.09081e-15 0.204637 -1.33693e-16 -3.22827e-17)
(6.57738e-15 3.31018e-30 2.06886e-31 7.08635 -5.23305e-15 2.66971e-17 0.204637 -1.04754e-15 3.73801e-16)
(-3.31789e-15 6.13528e-30 2.49304e-31 6.85721 4.30631e-15 -1.11587e-15 0.201749 -1.21301e-16 -3.38672e-17)
(0 0 0 6.85721 -5.17345e-15 7.85339e-17 0.201749 -1.09899e-15 3.70567e-16)
(1.7958e-15 -6.37996e-30 -5.98121e-31 6.63757 5.56389e-15 -1.15175e-15 0.198964 -1.34043e-16 -3.56856e-17)
(4.89753e-15 6.37996e-30 5.98121e-31 6.63757 -4.92043e-15 3.90755e-17 0.198964 -1.1203e-15 3.67268e-16)
(-3.4504e-15 2.1837e-29 1.30047e-30 6.42696 7.05769e-15 -1.17201e-15 0.196277 -2.02506e-16 -3.64014e-17)
(-6.75004e-15 -1.56576e-29 -9.78601e-31 6.42696 -5.79588e-15 3.42925e-17 0.196277 -1.16307e-15 3.61977e-16)
(1.70149e-15 -1.53328e-29 -5.11138e-31 6.2249 6.94789e-15 -1.1963e-15 0.193685 -2.31823e-16 -3.8566e-17)
(0 1.22966e-29 3.84267e-31 6.2249 -5.88964e-15 4.04149e-17 0.193685 -1.23492e-15 3.59039e-16)
(1.71528e-15 -1.20881e-29 -8.82083e-31 6.03099 5.73418e-15 -1.24503e-15 0.191183 -2.03193e-16 -4.09123e-17)
(-6.86111e-15 9.05342e-30 7.54452e-31 6.03099 -5.58094e-15 4.68292e-17 0.191183 -1.26573e-15 3.54808e-16)
(-3.45776e-15 1.49608e-29 8.12493e-31 5.84482 5.0454e-15 -1.27965e-15 0.188767 -1.62378e-16 -4.22907e-17)
(0 -5.92501e-30 -1.85157e-31 5.84482 -4.42367e-15 8.33606e-17 0.188767 -1.31361e-15 3.51293e-16)
(0 1.16329e-29 3.63527e-31 5.666 6.72369e-15 -1.31503e-15 0.186435 -1.65655e-16 -4.48189e-17)
(0 -1.16329e-29 -7.27055e-31 5.666 -4.22376e-15 8.53817e-17 0.186435 -1.32283e-15 3.4709e-16)
(1.48368e-16 -1.5472e-31 4.80852e-32 5.49419 8.67865e-15 -1.33895e-15 0.184181 -2.80676e-16 -4.55132e-17)
(-1.40444e-14 -2.85493e-30 -1.78433e-31 5.49419 -5.77322e-15 2.50367e-17 0.184181 -1.34537e-15 3.4473e-16)
(1.76863e-15 -1.14037e-29 -8.32048e-31 5.32903 6.87921e-15 -1.35544e-15 0.182004 -3.05009e-16 -4.76515e-17)
(0 8.40784e-30 7.00653e-31 5.32903 -4.48485e-15 -3.61131e-18 0.182004 -1.40565e-15 3.40997e-16)
(0 -1.65075e-29 -8.59767e-31 5.17021 4.17194e-15 -1.40596e-15 0.1799 -1.66443e-16 -5.07973e-17)
(7.12621e-15 1.65075e-29 8.59767e-31 5.17021 -1.99081e-15 8.14961e-18 0.1799 -1.43618e-15 3.38341e-16)
(3.31476e-15 -1.11141e-29 -1.33409e-31 5.01743 2.83224e-15 -1.45336e-15 0.177866 -1.25219e-16 -5.28591e-17)
(7.17727e-15 8.10252e-30 3.37605e-31 5.01743 -1.22743e-15 -3.69205e-17 0.177866 -1.43443e-15 3.33251e-16)
(-6.28715e-16 -1.51843e-29 -1.05692e-30 4.8704 2.53102e-15 -1.48746e-15 0.1759 -7.62916e-17 -5.52113e-17)
(-1.49258e-15 1.59081e-29 9.94255e-31 4.8704 -2.45289e-15 -1.53585e-16 0.1759 -1.45838e-15 3.27154e-16)
(-3.63881e-15 -1.48144e-29 -8.67562e-31 4.72885 5.22758e-15 -1.4973e-15 0.173997 -1.07853e-16 -5.55857e-17)
(7.27761e-15 1.56166e-29 9.76036e-31 4.72885 -4.8346e-15 -1.14619e-16 0.173997 -1.48593e-15 3.16196e-16)
(1.83173e-15 -1.83029e-29 -1.09465e-30 4.59253 8.53367e-15 -1.50447e-15 0.172157 -2.80562e-16 -5.78372e-17)
(1.46539e-14 1.53304e-29 9.5815e-31 4.59253 -7.41575e-15 8.02906e-17 0.172157 -1.50814e-15 3.08642e-16)
(-4.66796e-15 -2.06255e-30 -1.89269e-32 4.4612 8.71217e-15 -1.51777e-15 0.170375 -3.63445e-16 -5.87109e-17)
(2.82403e-15 1.0033e-29 4.70296e-31 4.4612 -8.85802e-15 4.77657e-17 0.170375 -1.57593e-15 3.02907e-16)
(-3.71197e-15 5.90841e-30 2.78783e-31 4.33462 7.47194e-15 -1.51137e-15 0.168651 -3.04969e-16 -5.95118e-17)
(7.42394e-15 0 0 4.33462 -7.58158e-15 -5.58784e-17 0.168651 -1.66055e-15 2.96166e-16)
(-1.86792e-15 2.94844e-30 1.40639e-31 4.21258 7.32001e-15 -1.51777e-15 0.166981 -2.79228e-16 -6.14376e-17)
(7.47168e-15 4.83433e-30 3.02145e-31 4.21258 -6.39126e-15 -5.23793e-17 0.166981 -1.71585e-15 2.87866e-16)
(0 4.74574e-30 8.89826e-31 4.09489 7.72046e-15 -1.55475e-15 0.165364 -3.04242e-16 -6.47844e-17)
(-2.67161e-15 0 -4.44913e-31 4.09489 -6.78577e-15 -1.35895e-16 0.165364 -1.78726e-15 2.79281e-16)
(1.89142e-15 -1.22474e-29 -8.70734e-31 3.98134 8.87491e-15 -1.61176e-15 0.163797 -3.22555e-16 -6.85103e-17)
(7.56569e-15 9.31755e-30 7.27933e-31 3.98134 -7.29444e-15 -1.33807e-16 0.163797 -1.87874e-15 2.65542e-16)
(1.903e-15 -1.20545e-29 -7.16466e-31 3.87175 9.46426e-15 -1.64412e-15 0.162279 -4.12047e-16 -6.99765e-17)
(7.612e-15 9.14681e-30 5.71675e-31 3.87175 -7.03242e-15 -2.81492e-17 0.162279 -1.92551e-15 2.55399e-16)
(-1.91446e-15 7.38889e-30 1.47083e-31 3.76594 7.96858e-15 -1.638e-15 0.160807 -3.8481e-16 -7.05618e-17)
(7.65786e-15 0 2.806e-31 3.76594 -6.82465e-15 -4.0164e-17 0.160807 -1.96597e-15 2.44929e-16)
(4.40692e-15 -7.30973e-30 -7.00035e-31 3.66377 5.65494e-15 -1.6434e-15 0.159381 -2.98054e-16 -7.30889e-17)
(-2.4811e-15 4.40733e-30 5.50916e-31 3.66377 -6.17005e-15 -8.48814e-17 0.159381 -2.06948e-15 2.34283e-16)
(-1.93707e-15 1.58925e-29 4.21666e-31 3.56506 3.81964e-15 -1.66859e-15 0.157997 -1.95218e-16 -7.54847e-17)
(5.31265e-15 -8.65313e-30 -2.7041e-31 3.56506 -3.68134e-15 -1.52145e-16 0.157997 -2.14244e-15 2.21348e-16)
(1.94822e-15 -7.1646e-30 -9.49499e-31 3.46967 2.56075e-15 -1.70565e-15 0.156655 -1.44367e-16 -7.92357e-17)
(0 4.24728e-30 7.96365e-31 3.46967 -1.51255e-15 -2.42587e-16 0.156655 -2.18177e-15 2.05446e-16)
(3.8792e-16 1.96018e-29 9.36678e-31 3.37747 2.74443e-15 -1.76023e-15 0.155353 -8.73397e-17 -8.34179e-17)
(5.4899e-15 -8.3389e-30 -5.21181e-31 3.37747 -1.6657e-15 -2.96885e-16 0.155353 -2.23848e-15 1.83236e-16)
(1.97023e-15 1.18332e-30 6.10866e-31 3.28831 4.41267e-15 -1.80807e-15 0.154089 -1.66935e-16 -8.67656e-17)
(5.57673e-15 0 -5.11631e-31 3.28831 -1.97688e-15 -1.18336e-16 0.154089 -2.26042e-15 1.56847e-16)
(0 8.03609e-30 5.02255e-31 3.20207 4.47673e-15 -1.84912e-15 0.152863 -2.4909e-16 -9.05336e-17)
(5.6624e-15 -4.01804e-30 -2.51128e-31 3.20207 -1.79763e-15 -7.8537e-17 0.152863 -2.28408e-15 1.32061e-16)
(2.22051e-15 7.88883e-30 4.93052e-31 3.11864 3.96324e-15 -1.89284e-15 0.151672 -1.79424e-16 -9.43443e-17)
(-1.0188e-14 -3.94441e-30 -2.46526e-31 3.11864 -2.68622e-15 -1.90981e-16 0.151672 -2.37489e-15 9.91186e-17)
(0 1.54885e-29 1.45205e-30 3.03789 4.70067e-15 -1.90659e-15 0.150516 -2.07863e-16 -9.53255e-17)
(8.01019e-15 -1.54885e-29 -1.45205e-30 3.03789 -3.65062e-15 -1.04324e-16 0.150516 -2.43654e-15 6.37833e-17)
(-2.01315e-15 -1.61434e-29 -1.02724e-30 2.95972 5.48874e-15 -1.92274e-15 0.149392 -2.60227e-16 -9.95508e-17)
(0 1.90059e-29 1.42544e-30 2.95972 -4.53405e-15 -2.18878e-17 0.149392 -2.49102e-15 2.84001e-17)
(-2.02366e-15 2.85058e-30 3.94071e-31 2.88403 5.55844e-15 -1.97126e-15 0.148301 -2.96299e-16 -1.03974e-16)
(8.09466e-15 3.73152e-30 0 2.88403 -4.09998e-15 -1.99943e-17 0.148301 -2.58062e-15 -8.98105e-18)
(2.06217e-15 -7.32629e-30 -6.86839e-31 2.81071 5.09861e-15 -2.039e-15 0.147241 -2.77295e-16 -1.10491e-16)
(0 7.32629e-30 6.86839e-31 2.81071 -4.00081e-15 -3.7881e-17 0.147241 -2.60154e-15 -4.36485e-17)
(0 7.19204e-30 6.74253e-31 2.73968 5.51708e-15 -2.10181e-15 0.14621 -2.5866e-16 -1.14682e-16)
(0 -3.59602e-30 -4.49502e-31 2.73968 -5.09065e-15 -9.97373e-17 0.14621 -2.64161e-15 -8.01037e-17)
(4.04203e-15 -2.0477e-29 -1.48907e-30 2.67085 6.59787e-15 -2.13798e-15 0.145208 -3.32987e-16 -1.18637e-16)
(8.21898e-15 1.41205e-29 1.3238e-30 2.67085 -4.09417e-15 6.36286e-17 0.145208 -2.70877e-15 -1.14636e-16)
(1.14091e-16 7.58702e-30 6.98808e-31 2.60412 7.10284e-15 -2.16356e-15 0.144233 -3.87437e-16 -1.21874e-16)
(6.30896e-15 -6.93087e-30 3.99683e-32 2.60412 -2.04253e-15 0 0.144233 -2.7464e-15 -1.44001e-16)
(0 3.40193e-30 2.12621e-31 2.53942 6.66208e-15 -2.17301e-15 0.143286 -4.02186e-16 -1.24188e-16)
(8.30039e-15 0 0 2.53942 -1.87457e-15 -7.85302e-17 0.143286 -2.7691e-15 -1.75584e-16)
(-4.17033e-15 5.5895e-30 3.4723e-31 2.47668 6.41829e-15 -2.17983e-15 0.142364 -3.51666e-16 -1.2726e-16)
(8.34067e-15 0 0 2.47668 -2.51867e-15 -7.56166e-18 0.142364 -2.77544e-15 -2.09056e-16)
(2.49598e-16 -1.91652e-29 -1.40722e-30 2.41581 7.06973e-15 -2.14852e-15 0.141467 -3.88959e-16 -1.25155e-16)
(1.02263e-14 1.6392e-29 1.2294e-30 2.41581 -3.30279e-15 8.11023e-17 0.141467 -2.78488e-15 -2.37232e-16)
(0 9.65496e-30 1.40801e-30 2.35676 7.0756e-15 -2.11942e-15 0.140594 -4.42171e-16 -1.28539e-16)
(-8.42043e-15 -9.65496e-30 -8.12628e-32 2.35676 -4.27379e-15 -3.85186e-34 0.140594 -2.85654e-15 -2.65167e-16)
(0 3.15934e-30 5.92377e-31 2.29944 6.52012e-15 -2.15518e-15 0.139745 -4.04326e-16 -1.34273e-16)
(0 -3.15934e-30 -5.92377e-31 2.29944 -3.45291e-15 -6.13892e-17 0.139745 -2.93422e-15 -2.99292e-16)
(-7.74151e-15 1.47762e-29 1.53421e-30 2.2438 6.82158e-15 -2.19673e-15 0.138918 -3.90477e-16 -1.3859e-16)
(3.49192e-15 -9.30435e-30 -1.16304e-30 2.2438 -3.38377e-15 -1.2113e-18 0.138918 -2.98295e-15 -3.32252e-16)
(-5.56248e-15 5.75082e-30 1.33003e-30 2.18978 6.65889e-15 -2.22506e-15 0.138112 -4.57351e-16 -1.42951e-16)
(0 0 -7.61154e-31 2.18978 -4.88032e-15 1.08927e-16 0.138112 -3.0574e-15 -3.65894e-16)
(-3.36512e-15 2.09218e-29 1.86802e-30 2.13732 6.34625e-15 -2.29862e-15 0.137328 -3.84416e-16 -1.53381e-16)
(-8.57694e-15 -1.7933e-29 -8.04959e-33 2.13732 -5.2863e-15 0 0.137328 -3.17735e-15 -3.95596e-16)
(4.30774e-15 3.44915e-30 -3.86079e-31 2.08636 7.28513e-15 -2.38816e-15 0.136564 -4.33917e-16 -1.60202e-16)
(0 -8.80217e-30 0 2.08636 -5.03579e-15 2.08005e-17 0.136564 -3.3092e-15 -4.2528e-16)
(1.08398e-15 6.24311e-30 1.05041e-30 2.03685 6.52517e-15 -2.49685e-15 0.13582 -5.23309e-16 -1.73832e-16)
(8.6538e-15 -1.44015e-29 -1.44015e-30 2.03685 -4.33176e-15 1.51738e-16 0.13582 -3.41475e-15 -4.54308e-16)
(-2.17298e-15 2.652e-30 1.98347e-31 1.98873 5.35477e-15 -2.61967e-15 0.135094 -3.47689e-16 -1.83127e-16)
(8.6919e-15 0 3.53439e-31 1.98873 -4.67767e-15 9.24266e-17 0.135094 -3.4476e-15 -4.74264e-16)
(1.23974e-15 2.70838e-31 -5.81319e-32 1.94196 6.09849e-15 -2.71072e-15 0.134387 -3.82099e-16 -1.93135e-16)
(0 -5.55139e-30 -3.46962e-31 1.94196 -5.58579e-15 8.8966e-17 0.134387 -3.51686e-15 -4.94512e-16)
(2.19187e-15 -8.06467e-30 -2.09216e-31 1.8965 6.09284e-15 -2.75894e-15 0.133698 -4.6496e-16 -1.96908e-16)
(8.76747e-15 5.44967e-30 0 1.8965 -5.91695e-15 1.32561e-16 0.133698 -3.60497e-15 -5.0523e-16)
(8.10433e-16 1.064e-29 1.55412e-30 1.85229 5.71964e-15 -2.77495e-15 0.133026 -3.95691e-16 -2.02739e-16)
(-3.01167e-15 -5.3498e-30 -6.68725e-31 1.85229 -5.83522e-15 9.00134e-17 0.133026 -3.686e-15 -5.05184e-16)
(-2.95648e-15 -2.62588e-30 -3.28236e-31 1.8093 6.01315e-15 -2.78585e-15 0.13237 -4.28238e-16 -2.05941e-16)
(1.76845e-14 5.25177e-30 9.84707e-31 1.8093 -5.8596e-15 9.08145e-17 0.13237 -3.74298e-15 -5.00559e-16)
(-2.21983e-15 -1.03079e-29 -1.69972e-30 1.76747 6.0368e-15 -2.80533e-15 0.131731 -4.54059e-16 -2.13317e-16)
(0 1.28888e-29 -6.82669e-32 1.76747 -6.13643e-15 -1.82424e-30 0.131731 -3.88609e-15 -4.91915e-16)
(0 -1.26526e-29 -1.8979e-30 1.72678 6.13061e-15 -2.8526e-15 0.131107 -4.47941e-16 -2.20963e-16)
(1.78325e-14 1.26526e-29 1.8979e-30 1.72678 -5.62709e-15 3.83798e-18 0.131107 -4.05867e-15 -4.9386e-16)
(-2.23824e-15 1.4966e-29 2.11123e-30 1.68719 7.06894e-15 -2.89254e-15 0.130498 -4.85582e-16 -2.27607e-16)
(0 -1.24208e-29 -1.00862e-31 1.68719 -6.87093e-15 0 0.130498 -4.16013e-15 -4.97398e-16)
(0 -4.87727e-30 -9.14489e-31 1.64865 7.71193e-15 -2.87864e-15 0.129904 -6.11672e-16 -2.27073e-16)
(8.98952e-15 4.87727e-30 9.14489e-31 1.64865 -6.74691e-15 2.02744e-17 0.129904 -4.31715e-15 -5.05693e-16)
(4.95182e-15 -1.68523e-29 -2.65785e-30 1.61114 6.61037e-15 -2.86196e-15 0.129323 -6.06389e-16 -2.33475e-16)
(1.53565e-14 1.43637e-29 -7.0411e-32 1.61114 -5.41054e-15 -1.75043e-30 0.129323 -4.42771e-15 -5.07365e-16)
(-2.26553e-15 7.19301e-30 2.72758e-31 1.57462 7.77795e-15 -2.84237e-15 0.128757 -4.55825e-16 -2.32389e-16)
(9.06211e-15 0 2.9376e-31 1.57462 -3.63809e-15 1.27826e-16 0.128757 -4.57314e-15 -5.04986e-16)
(-3.22932e-16 6.81503e-30 8.71327e-31 1.53905 8.78723e-15 -2.70459e-15 0.128203 -8.22396e-16 -2.19055e-16)
(9.09815e-15 -4.61403e-30 -5.76754e-31 1.53905 -3.43711e-15 5.24567e-16 0.128203 -4.60813e-15 -4.87591e-16)
(-4.56702e-15 9.36182e-30 1.70906e-30 1.50441 5.83481e-15 -2.60166e-15 0.127662 -6.43087e-16 -2.23475e-16)
(9.13404e-15 0 -1.35912e-31 1.50441 -1.85808e-15 -3.03218e-30 0.127662 -4.7252e-15 -4.63784e-16)
(-2.50315e-15 -4.44648e-30 -2.98424e-30 1.47067 4.26624e-15 -9.53509e-16 0.127133 -3.46553e-16 -4.12999e-17)
(1.83395e-14 8.89296e-30 1.11162e-30 1.47067 1.53001e-15 -3.87154e-16 0.127133 -4.75057e-15 -4.5897e-16)
(-2.45728e-15 4.365e-30 0 1.4378 3.33343e-15 1.2326e-32 0.126617 -3.93021e-16 -1.19756e-46)
(9.20534e-15 0 -5.45625e-31 1.4378 7.38421e-16 -4.29336e-17 0.126617 -4.76473e-15 -4.54062e-16)
(-4.72244e-15 6.75273e-30 6.83207e-31 1.40577 2.49031e-15 6.48339e-16 0.126112 -1.93446e-16 -2.91401e-17)
(0 0 -5.35627e-31 1.40577 -7.05427e-16 3.94306e-16 0.126112 -4.78034e-15 -4.23519e-16)
(2.31901e-15 5.96206e-30 1.26693e-30 1.37455 3.37578e-15 1.24651e-15 0.125617 -2.54837e-16 -1.08896e-16)
(0 -1.26195e-29 -1.80213e-30 1.37455 -7.98824e-16 0 0.125617 -4.83852e-15 -3.94644e-16)
(0 4.12941e-30 5.16176e-31 1.34412 3.94939e-15 1.63665e-15 0.125134 -3.64412e-16 -1.19487e-16)
(0 0 0 1.34412 2.99127e-16 -3.98718e-17 0.125134 -4.86914e-15 -3.76091e-16)
(-2.33654e-15 1.45738e-29 2.31786e-30 1.31446 3.71347e-15 2.17981e-15 0.124661 -3.72451e-16 -1.86461e-16)
(0 -1.21612e-29 -2.02687e-30 1.31446 -7.39291e-16 -2.53314e-17 0.124661 -4.87718e-15 -3.5566e-16)
(-4.58549e-15 6.39369e-30 7.76542e-31 1.28553 3.78499e-15 2.67778e-15 0.124198 -3.32892e-16 -2.28176e-16)
(-9.38102e-15 -3.97946e-30 -1.34128e-30 1.28553 -1.58747e-15 -4.6573e-17 0.124198 -4.9909e-15 -3.30505e-16)
(-2.35394e-15 -5.41027e-30 -1.69063e-30 1.25733 4.50805e-15 2.95295e-15 0.123744 -4.00458e-16 -2.90787e-16)
(1.88315e-14 7.81307e-30 1.95327e-30 1.25733 -4.30862e-16 -3.18471e-17 0.123744 -5.01043e-15 -3.17257e-16)
(0 -1.15048e-29 -1.91747e-30 1.22982 4.81606e-15 2.9126e-15 0.1233 -4.89356e-16 -2.91545e-16)
(9.45034e-15 1.15048e-29 1.91747e-30 1.22982 -1.10187e-15 2.11282e-16 0.1233 -5.06695e-15 -2.87118e-16)
(-4.49052e-15 6.10339e-30 1.18632e-30 1.20299 5.54411e-15 3.02755e-15 0.122865 -4.77999e-16 -2.93562e-16)
(9.48481e-15 -3.76467e-30 2.49704e-32 1.20299 -2.09452e-15 0 0.122865 -5.26433e-15 -2.62149e-16)