/*--------------------------------*- C++ -*----------------------------------*\
| =========                 |                                                 |
| \\      /  F ield         | OpenFOAM: The Open Source CFD Toolbox           |
|  \\    /   O peration     | Version:  2106                                  |
|   \\  /    A nd           | Website:  www.openfoam.com                      |
|    \\/     M anipulation  |                                                 |
\*---------------------------------------------------------------------------*/
FoamFile
{
    version     2.0;
    format      ascii;
    arch        "LSB;label=32;scalar=64";
    class       volVectorField;
    location    "10060";
    object      grad(T);
}
// * * * * * * * * * * * * * * * * * * * * * * * * * * * * * * * * * * * * * //

dimensions      [0 -1 0 1 0 0 0];

internalField   nonuniform List<vector> 
2000
(
(0 455.644 0.843231)
(0 455.644 0.843231)
(0 455.643 2.54543)
(-4.49311e-16 455.643 2.54543)
(-9.85786e-16 455.642 3.53267)
(8.82156e-16 455.642 3.53267)
(-3.39609e-16 455.64 3.59859)
(1.35844e-15 455.64 3.59859)
(1.70024e-15 455.638 3.66574)
(-1.70024e-15 455.638 3.66574)
(0 455.634 3.73413)
(-3.29946e-15 455.634 3.73413)
(3.277e-15 455.628 3.80379)
(4.29722e-15 455.628 3.80379)
(0 455.62 3.87471)
(1.06272e-14 455.62 3.87471)
(-1.58725e-15 455.608 3.94691)
(0 455.608 3.94691)
(0 455.59 4.0204)
(0 455.59 4.0204)
(0 455.563 4.09515)
(3.04332e-15 455.563 4.09515)
(5.38068e-15 455.523 4.17115)
(6.58495e-15 455.523 4.17115)
(0 455.463 4.24835)
(0 455.463 4.24835)
(-2.95576e-15 455.377 4.32669)
(-5.75813e-15 455.377 4.32669)
(-3.24497e-15 455.254 4.40605)
(-5.65262e-15 455.254 4.40605)
(9.0886e-15 455.081 4.48631)
(-8.60923e-15 455.081 4.48631)
(0 454.842 4.56728)
(5.44735e-15 454.842 4.56728)
(8.29049e-15 454.517 4.64872)
(1.6581e-14 454.517 4.64872)
(-4.45649e-15 454.082 4.73032)
(-5.24954e-15 454.082 4.73032)
(4.77343e-15 453.508 4.81171)
(1.90937e-14 453.508 4.81171)
(-5.09611e-15 452.762 4.89242)
(4.07689e-14 452.762 4.89242)
(0 451.803 4.9719)
(2.16982e-14 451.803 4.9719)
(0 450.589 5.04953)
(2.30351e-14 450.589 5.04953)
(0 449.072 5.12456)
(1.48233e-14 449.072 5.12456)
(-6.4444e-15 447.199 5.19619)
(0 447.199 5.19619)
(0 444.919 5.26355)
(2.71824e-14 444.919 5.26355)
(-7.15221e-15 442.177 5.32572)
(9.05512e-15 442.177 5.32572)
(-7.51398e-15 438.923 5.38177)
(0 438.923 5.38177)
(0 435.111 5.43078)
(-8.72629e-15 435.111 5.43078)
(-1.68181e-14 430.701 5.4719)
(-4.15734e-14 430.701 5.4719)
(8.62692e-15 425.666 5.50438)
(3.45077e-14 425.666 5.50438)
(0 419.989 5.52759)
(-8.25531e-15 419.989 5.52759)
(-9.38733e-15 413.668 5.54109)
(0 413.668 5.54109)
(-9.77132e-15 406.717 5.54465)
(0 406.717 5.54465)
(0 399.163 5.5382)
(4.06278e-14 399.163 5.5382)
(0 391.048 5.52192)
(-3.06665e-14 391.048 5.52192)
(1.09302e-14 382.427 5.49618)
(4.37209e-14 382.427 5.49618)
(-1.13164e-14 373.363 5.46149)
(4.52657e-14 373.363 5.46149)
(-4.07127e-14 363.927 5.41853)
(2.90114e-14 363.927 5.41853)
(0 354.193 5.36809)
(4.83374e-14 354.193 5.36809)
(-1.09506e-14 344.239 5.31102)
(3.588e-14 344.239 5.31102)
(0 334.139 5.2482)
(0 334.139 5.2482)
(0 323.964 5.18053)
(0 323.964 5.18053)
(-3.60507e-16 313.78 5.10887)
(-6.75643e-14 313.78 5.10887)
(1.39498e-14 303.646 5.03405)
(4.28173e-14 303.646 5.03405)
(2.70541e-14 293.616 4.95685)
(-6.99837e-14 293.616 4.95685)
(1.03566e-14 283.733 4.87797)
(5.86591e-14 283.733 4.87797)
(-2.45629e-14 274.037 4.79804)
(1.20115e-13 274.037 4.79804)
(1.53584e-14 264.557 4.71762)
(6.14337e-14 264.557 4.71762)
(-1.56969e-14 255.319 4.63718)
(-6.27878e-14 255.319 4.63718)
(0 246.342 4.55715)
(2.32372e-14 246.342 4.55715)
(-3.91684e-14 237.637 4.47787)
(0 237.637 4.47787)
(2.23933e-14 229.216 4.39964)
(0 229.216 4.39964)
(0 221.082 4.32269)
(-6.79783e-14 221.082 4.32269)
(1.7305e-14 213.238 4.24721)
(0 213.238 4.24721)
(-1.761e-14 205.683 4.17335)
(0 205.683 4.17335)
(-3.58191e-14 198.414 4.10123)
(7.16382e-14 198.414 4.10123)
(-1.82039e-14 191.425 4.03093)
(0 191.425 4.03093)
(-3.69862e-14 184.711 3.9625)
(-7.39723e-14 184.711 3.9625)
(1.87773e-14 178.265 3.89598)
(-7.51091e-14 178.265 3.89598)
(0 172.079 3.83139)
(-1.93135e-14 172.079 3.83139)
(-5.76219e-14 166.143 3.76872)
(1.54649e-13 166.143 3.76872)
(-9.88872e-16 160.45 3.70797)
(5.9792e-14 160.45 3.70797)
(1.82711e-14 154.99 3.64911)
(0 154.99 3.64911)
(-3.80639e-14 149.753 3.59211)
(8.05105e-14 149.753 3.59211)
(1.76076e-14 144.732 3.53694)
(-1.76076e-14 144.732 3.53694)
(-3.3524e-15 139.916 3.48356)
(-1.7285e-14 139.916 3.48356)
(0 135.297 3.43192)
(-3.39365e-14 135.297 3.43192)
(0 130.867 3.38198)
(8.45253e-14 130.867 3.38198)
(3.27041e-14 126.616 3.33368)
(-3.27041e-14 126.616 3.33368)
(-2.16105e-14 122.538 3.28698)
(8.6442e-14 122.538 3.28698)
(0 118.623 3.24183)
(8.73794e-14 118.623 3.24183)
(8.86313e-15 114.865 3.19817)
(-1.19242e-13 114.865 3.19817)
(0 111.257 3.15595)
(-8.92146e-14 111.257 3.15595)
(-4.50566e-14 107.791 3.11513)
(9.01132e-14 107.791 3.11513)
(-4.54999e-14 104.46 3.07566)
(0 104.46 3.07566)
(-5.74656e-14 101.26 3.03748)
(1.4934e-13 101.26 3.03748)
(-2.31845e-14 98.1829 3.00056)
(-1.20944e-13 98.1829 3.00056)
(-4.29169e-15 95.224 2.96484)
(2.76894e-14 95.224 2.96484)
(2.36082e-14 92.3777 2.93028)
(-9.44329e-14 92.3777 2.93028)
(-4.76324e-14 89.6388 2.89684)
(-2.66839e-14 89.6388 2.89684)
(5.23898e-14 87.0025 2.86448)
(-5.23898e-14 87.0025 2.86448)
(2.42248e-14 84.464 2.83316)
(-1.93798e-13 84.464 2.83316)
(2.44256e-14 82.019 2.80284)
(0 82.019 2.80284)
(0 79.6633 2.77347)
(9.84966e-14 79.6633 2.77347)
(2.48206e-14 77.3928 2.74504)
(9.92822e-14 77.3928 2.74504)
(2.16139e-14 75.2039 2.71749)
(0 75.2039 2.71749)
(-2.69706e-14 73.0929 2.69081)
(1.00828e-13 73.0929 2.69081)
(2.53974e-14 71.0563 2.66496)
(2.03179e-13 71.0563 2.66496)
(-2.55858e-14 69.0911 2.6399)
(0 69.0911 2.6399)
(-5.15447e-14 67.194 2.61561)
(1.03089e-13 67.194 2.61561)
(-2.59571e-14 65.3622 2.59206)
(1.03829e-13 65.3622 2.59206)
(-2.13729e-14 63.5929 2.56922)
(-4.27458e-14 63.5929 2.56922)
(2.63215e-14 61.8834 2.54707)
(1.05286e-13 61.8834 2.54707)
(2.65012e-14 60.2313 2.52559)
(1.06005e-13 60.2313 2.52559)
(-2.66794e-14 58.6341 2.50474)
(1.06717e-13 58.6341 2.50474)
(2.6856e-14 57.0896 2.48452)
(0 57.0896 2.48452)
(-2.70311e-14 55.5957 2.46488)
(1.08124e-13 55.5957 2.46488)
(2.72048e-14 54.1502 2.44583)
(0 54.1502 2.44583)
(1.0178e-14 52.7513 2.42732)
(7.19532e-14 52.7513 2.42732)
(2.7548e-14 51.397 2.40935)
(7.3325e-14 51.397 2.40935)
(0 50.0857 2.3919)
(1.1087e-13 50.0857 2.3919)
(0 48.8156 2.37495)
(-1.47072e-13 48.8156 2.37495)
(3.48771e-14 47.585 2.35848)
(7.73349e-14 47.585 2.35848)
(-9.66948e-14 46.3926 2.34248)
(6.84759e-14 46.3926 2.34248)
(-2.83836e-14 45.2367 2.32693)
(1.13534e-13 45.2367 2.32693)
(0 44.1161 2.31181)
(0 44.1161 2.31181)
(0 43.0293 2.29712)
(-3.23901e-14 43.0293 2.29712)
(2.8871e-14 41.9752 2.28283)
(1.15484e-13 41.9752 2.28283)
(-3.33964e-14 40.9524 2.26894)
(8.49113e-14 40.9524 2.26894)
(0 39.9599 2.25543)
(1.16762e-13 39.9599 2.25543)
(-5.86979e-14 38.9966 2.24228)
(1.17396e-13 38.9966 2.24228)
(-2.28618e-17 38.0613 2.2295)
(1.47554e-13 38.0613 2.2295)
(0 37.153 2.21706)
(-1.18651e-13 37.153 2.21706)
(2.84568e-14 36.2709 2.20496)
(-2.84568e-14 36.2709 2.20496)
(-3.20104e-14 35.4139 2.19318)
(-2.79354e-14 35.4139 2.19318)
(-3.01266e-14 34.5811 2.18171)
(0 34.5811 2.18171)
(-2.69209e-14 33.7719 2.17055)
(-1.21118e-13 33.7719 2.17055)
(6.08634e-14 32.9852 2.15968)
(-5.28553e-14 32.9852 2.15968)
(3.52227e-14 32.2203 2.1491)
(1.22332e-13 32.2203 2.1491)
(-3.07336e-14 31.4766 2.13879)
(1.22934e-13 31.4766 2.13879)
(6.17668e-14 30.7532 2.12876)
(-2.50013e-14 30.7532 2.12876)
(3.10325e-14 30.0495 2.11898)
(1.2413e-13 30.0495 2.11898)
(-3.11808e-14 29.3648 2.10946)
(-4.81867e-14 29.3648 2.10946)
(0 28.6985 2.10018)
(2.50628e-13 28.6985 2.10018)
(-7.79124e-14 28.0499 2.09113)
(4.64369e-14 28.0499 2.09113)
(-4.5586e-14 27.4186 2.08232)
(2.52974e-13 27.4186 2.08232)
(1.29832e-14 26.8039 2.07373)
(-4.47506e-14 26.8039 2.07373)
(0 26.2053 2.06535)
(1.2765e-13 26.2053 2.06535)
(3.2057e-14 25.6223 2.05719)
(2.56456e-13 25.6223 2.05719)
(-3.22008e-14 25.0543 2.04922)
(1.28803e-13 25.0543 2.04922)
(3.23441e-14 24.501 2.04146)
(8.78168e-14 24.501 2.04146)
(-2.41756e-14 23.9618 2.03388)
(8.91492e-14 23.9618 2.03388)
(-8.01007e-14 23.4363 2.02649)
(3.01082e-13 23.4363 2.02649)
(0 22.924 2.01927)
(9.17658e-14 22.924 2.01927)
(-3.29117e-14 22.4246 2.01223)
(-3.8596e-14 22.4246 2.01223)
(3.30522e-14 21.9377 2.00536)
(0 21.9377 2.00536)
(0 21.4629 1.99864)
(-3.71944e-14 21.4629 1.99864)
(-3.33319e-14 20.9998 1.99209)
(-3.65128e-14 20.9998 1.99209)
(-3.3471e-14 20.548 1.98569)
(-1.69728e-13 20.548 1.98569)
(-6.87966e-14 20.1073 1.97943)
(2.68877e-13 20.1073 1.97943)
(-3.45421e-14 19.6772 1.97332)
(1.69534e-13 19.6772 1.97332)
(2.35315e-17 19.2576 1.96734)
(1.01633e-13 19.2576 1.96734)
(0 18.848 1.9615)
(1.36092e-13 18.848 1.9615)
(-9.95155e-14 18.4481 1.95578)
(1.36639e-13 18.4481 1.95578)
(0 18.0578 1.95018)
(1.37185e-13 18.0578 1.95018)
(-3.44324e-14 17.6766 1.94471)
(0 17.6766 1.94471)
(-3.45681e-14 17.3044 1.93935)
(0 17.3044 1.93935)
(-3.47034e-14 16.9409 1.93409)
(0 16.9409 1.93409)
(-2.47447e-14 16.5858 1.92895)
(-1.39353e-13 16.5858 1.92895)
(2.92456e-14 16.2389 1.9239)
(-2.92456e-14 16.2389 1.9239)
(2.87097e-14 15.9 1.91895)
(-2.87097e-14 15.9 1.91895)
(9.1608e-14 15.5688 1.91409)
(0 15.5688 1.91409)
(-3.53744e-14 15.2451 1.90933)
(1.41497e-13 15.2451 1.90933)
(-3.55075e-14 14.9287 1.90464)
(1.4203e-13 14.9287 1.90464)
(-3.56403e-14 14.6195 1.90003)
(0 14.6195 1.90003)
(0 14.3171 1.8955)
(1.43091e-13 14.3171 1.8955)
(-3.59049e-14 14.0215 1.89105)
(-1.95008e-13 14.0215 1.89105)
(3.60367e-14 13.7323 1.88665)
(1.44147e-13 13.7323 1.88665)
(3.61683e-14 13.4496 1.88232)
(1.44673e-13 13.4496 1.88232)
(3.62995e-14 13.173 1.87805)
(0 13.173 1.87805)
(0 12.9024 1.87383)
(1.45721e-13 12.9024 1.87383)
(-3.6561e-14 12.6377 1.86967)
(0 12.6377 1.86967)
(4.5991e-14 12.3786 1.86555)
(1.46765e-13 12.3786 1.86555)
(-3.68213e-14 12.1251 1.86146)
(0 12.1251 1.86146)
(4.43209e-14 11.877 1.85742)
(0 11.877 1.85742)
(0 11.6341 1.85341)
(1.48322e-13 11.6341 1.85341)
(0 11.3962 1.84942)
(1.48838e-13 11.3962 1.84942)
(-7.92672e-14 11.1634 1.84546)
(4.19287e-14 11.1634 1.84546)
(-3.74671e-14 10.9354 1.84152)
(0 10.9354 1.84152)
(-3.75954e-14 10.7121 1.83758)
(0 10.7121 1.83758)
(3.57812e-14 10.4933 1.83366)
(1.50894e-13 10.4933 1.83366)
(-7.46149e-14 10.279 1.82974)
(1.51405e-13 10.279 1.82974)
(0 10.0691 1.82582)
(1.51915e-13 10.0691 1.82582)
(-3.8106e-14 9.86332 1.82189)
(0 9.86332 1.82189)
(-7.50702e-14 9.66168 1.81795)
(0 9.66168 1.81795)
(3.61622e-14 9.46404 1.81398)
(-3.61622e-14 9.46404 1.81398)
(0 9.27028 1.81)
(1.53944e-13 9.27028 1.81)
(-3.86122e-14 9.08032 1.80598)
(-1.54449e-13 9.08032 1.80598)
(3.42104e-14 8.89403 1.80193)
(-3.42104e-14 8.89403 1.80193)
(-1.06031e-13 8.71133 1.79783)
(-3.1091e-13 8.71133 1.79783)
(-7.19572e-14 8.53212 1.79369)
(0 8.53212 1.79369)
(0 8.35631 1.78949)
(0 8.35631 1.78949)
(0 8.1838 1.78522)
(1.25184e-13 8.1838 1.78522)
(-7.87267e-14 8.01451 1.78089)
(3.14907e-13 8.01451 1.78089)
(0 7.84834 1.77647)
(1.5795e-13 7.84834 1.77647)
(-3.96114e-14 7.68522 1.77197)
(-6.01123e-14 7.68522 1.77197)
(5.90108e-14 7.52505 1.76738)
(-1.5894e-13 7.52505 1.76738)
(-3.98583e-14 7.36776 1.76268)
(0 7.36776 1.76268)
(0 7.21327 1.75787)
(1.59925e-13 7.21327 1.75787)
(0 7.06149 1.75293)
(1.60416e-13 7.06149 1.75293)
(4.02263e-14 6.91236 1.74787)
(3.2181e-13 6.91236 1.74787)
(4.03483e-14 6.76579 1.74266)
(1.61393e-13 6.76579 1.74266)
(0 6.62171 1.73731)
(1.6188e-13 6.62171 1.73731)
(4.05912e-14 6.48005 1.73178)
(2.1421e-13 6.48005 1.73178)
(-4.07122e-14 6.34073 1.72608)
(3.25698e-13 6.34073 1.72608)
(-4.08328e-14 6.20368 1.7202)
(-1.63331e-13 6.20368 1.7202)
(0 6.06885 1.71411)
(0 6.06885 1.71411)
(-4.10728e-14 5.93614 1.70781)
(0 5.93614 1.70781)
(-8.23845e-14 5.80551 1.70127)
(0 5.80551 1.70127)
(-8.77108e-14 5.67687 1.69449)
(2.11644e-13 5.67687 1.69449)
(0 5.55016 1.68745)
(0 5.55016 1.68745)
(-4.15479e-14 5.42533 1.68013)
(0 5.42533 1.68013)
(-4.38952e-14 5.30229 1.67251)
(-4.38952e-14 5.30229 1.67251)
(4.17827e-14 5.18098 1.66458)
(3.34261e-13 5.18098 1.66458)
(8.37987e-14 5.06135 1.65631)
(-1.67597e-13 5.06135 1.65631)
(8.40309e-14 4.94332 1.64767)
(0 4.94332 1.64767)
(8.42621e-14 4.82682 1.63866)
(3.37048e-13 4.82682 1.63866)
(8.22642e-14 4.7118 1.62924)
(1.28966e-13 4.7118 1.62924)
(4.23605e-14 4.59818 1.61938)
(1.69442e-13 4.59818 1.61938)
(-4.24743e-14 4.4859 1.60907)
(1.69897e-13 4.4859 1.60907)
(-4.25874e-14 4.37489 1.59826)
(0 4.37489 1.59826)
(0 4.26508 1.58693)
(2.07964e-13 4.26508 1.58693)
(-8.56233e-14 4.1564 1.57503)
(1.71247e-13 4.1564 1.57503)
(-7.87376e-14 4.04878 1.56254)
(3.58149e-14 4.04878 1.56254)
(0 3.94215 1.54942)
(3.44263e-13 3.94215 1.54942)
(0 3.83643 1.53561)
(0 3.83643 1.53561)
(4.32509e-14 3.73155 1.52108)
(-2.40767e-13 3.73155 1.52108)
(-2.31634e-14 3.62742 1.50578)
(6.6522e-14 3.62742 1.50578)
(-2.16276e-14 3.52397 1.48964)
(0 3.52397 1.48964)
(2.30357e-14 3.4211 1.47261)
(-6.41064e-14 3.4211 1.47261)
(-6.29316e-14 3.31873 1.45463)
(2.37635e-13 3.31873 1.45463)
(0 3.21676 1.43563)
(1.75117e-13 3.21676 1.43563)
(4.38817e-14 3.1151 1.41552)
(1.75527e-13 3.1151 1.41552)
(0 3.01364 1.39424)
(-1.75932e-13 3.01364 1.39424)
(1.43613e-14 2.91227 1.37168)
(-5.84441e-14 2.91227 1.37168)
(-4.41813e-14 2.81088 1.34775)
(1.76725e-13 2.81088 1.34775)
(0 2.70933 1.32234)
(1.77113e-13 2.70933 1.32234)
(1.09159e-14 2.60749 1.29534)
(-1.77495e-13 2.60749 1.29534)
(4.44677e-14 2.50523 1.26661)
(3.01465e-13 2.50523 1.26661)
(0 2.40238 1.23601)
(1.24957e-13 2.40238 1.23601)
(-4.46501e-14 2.2988 1.20338)
(0 2.2988 1.20338)
(4.47384e-14 2.1943 1.16855)
(1.78954e-13 2.1943 1.16855)
(5.58145e-15 2.08869 1.13134)
(1.79299e-13 2.08869 1.13134)
(-4.49087e-14 1.98179 1.09153)
(1.79635e-13 1.98179 1.09153)
(0 1.87337 1.04891)
(0 1.87337 1.04891)
(4.50695e-14 1.76322 1.00324)
(0 1.76322 1.00324)
(-9.02918e-14 1.6511 0.954242)
(1.80584e-13 1.6511 0.954242)
(4.59539e-14 1.53677 0.901647)
(0 1.53677 0.901647)
(0 1.41999 0.845158)
(0 1.41999 0.845158)
(4.53569e-14 1.30051 0.784462)
(1.81428e-13 1.30051 0.784462)
(-4.54204e-14 1.1781 0.719243)
(1.81681e-13 1.1781 0.719243)
(-8.8157e-14 1.05254 0.649176)
(0 1.05254 0.649176)
(0 0.923633 0.573948)
(-4.1895e-14 0.923633 0.573948)
(8.22546e-14 0.791228 0.493258)
(-2.64601e-13 0.791228 0.493258)
(-4.56327e-14 0.655226 0.406836)
(0 0.655226 0.406836)
(-6.03998e-15 0.515594 0.314451)
(1.82695e-13 0.515594 0.314451)
(0 0.372375 0.215922)
(1.82837e-13 0.372375 0.215922)
(-4.57388e-14 0.225693 0.111126)
(0 0.225693 0.111126)
(-4.57619e-14 7.65592e-07 2.83366e-07)
(3.66209e-13 4.96195e-07 1.83655e-07)
(1.14425e-16 455.644 -0.843231)
(-1.14425e-16 455.644 -0.843231)
(-4.49311e-16 455.643 -2.54543)
(0 455.643 -2.54543)
(-2.07261e-16 455.642 -3.53267)
(0 455.642 -3.53267)
(3.39609e-16 455.64 -3.59859)
(-8.6599e-16 455.64 -3.59859)
(-1.15999e-15 455.638 -3.66574)
(0 455.638 -3.66574)
(8.24864e-16 455.634 -3.73413)
(0 455.634 -3.73413)
(-1.6385e-15 455.628 -3.80379)
(0 455.628 -3.80379)
(2.65681e-15 455.62 -3.87471)
(0 455.62 -3.87471)
(-1.58725e-15 455.608 -3.94691)
(6.34898e-15 455.608 -3.94691)
(1.85092e-15 455.59 -4.0204)
(-1.05038e-14 455.59 -4.0204)
(4.23903e-15 455.563 -4.09515)
(-1.15214e-14 455.563 -4.09515)
(2.39313e-15 455.523 -4.17115)
(0 455.523 -4.17115)
(-2.67185e-15 455.463 -4.24835)
(-1.06874e-14 455.463 -4.24835)
(2.87907e-15 455.377 -4.32669)
(-1.18231e-14 455.377 -4.32669)
(3.24497e-15 455.254 -4.40605)
(-1.29799e-14 455.254 -4.40605)
(-5.54904e-15 455.081 -4.48631)
(0 455.081 -4.48631)
(3.83963e-15 454.842 -4.56728)
(-2.08059e-14 454.842 -4.56728)
(4.14525e-15 454.517 -4.64872)
(1.6581e-14 454.517 -4.64872)
(4.45649e-15 454.082 -4.73032)
(0 454.082 -4.73032)
(9.54686e-15 453.508 -4.81171)
(0 453.508 -4.81171)
(5.09611e-15 452.762 -4.89242)
(1.02666e-14 452.762 -4.89242)
(1.03908e-14 451.803 -4.9719)
(1.6732e-14 451.803 -4.9719)
(-5.75878e-15 450.589 -5.04953)
(0 450.589 -5.04953)
(1.21975e-14 449.072 -5.12456)
(0 449.072 -5.12456)
(-2.95193e-15 447.199 -5.19619)
(9.39633e-15 447.199 -5.19619)
(9.22415e-15 444.919 -5.26355)
(0 444.919 -5.26355)
(-9.05512e-15 442.177 -5.32572)
(0 442.177 -5.32572)
(1.5028e-14 438.923 -5.38177)
(0 438.923 -5.38177)
(-8.45681e-16 435.111 -5.43078)
(4.02487e-14 435.111 -5.43078)
(1.65035e-14 430.701 -5.4719)
(0 430.701 -5.4719)
(1.70363e-14 425.666 -5.50438)
(-8.40941e-15 425.666 -5.50438)
(9.00565e-15 419.989 -5.52759)
(0 419.989 -5.52759)
(9.38733e-15 413.668 -5.54109)
(-3.75493e-14 413.668 -5.54109)
(0 406.717 -5.54465)
(-3.90853e-14 406.717 -5.54465)
(0 399.163 -5.5382)
(0 399.163 -5.5382)
(1.05435e-14 391.048 -5.52192)
(-4.2174e-14 391.048 -5.52192)
(2.18605e-14 382.427 -5.49618)
(-1.50523e-14 382.427 -5.49618)
(-1.13164e-14 373.363 -5.46149)
(-4.52657e-14 373.363 -5.46149)
(-1.17014e-14 363.927 -5.41853)
(-1.08117e-13 363.927 -5.41853)
(-1.20843e-14 354.193 -5.36809)
(-2.84798e-14 354.193 -5.36809)
(-1.24647e-14 344.239 -5.31102)
(0 344.239 -5.31102)
(1.46036e-14 334.139 -5.2482)
(-1.30181e-13 334.139 -5.2482)
(2.64311e-14 323.964 -5.18053)
(0 323.964 -5.18053)
(2.68094e-14 313.78 -5.10887)
(-6.75643e-14 313.78 -5.10887)
(2.78997e-14 303.646 -5.03405)
(4.28173e-14 303.646 -5.03405)
(3.97983e-14 293.616 -4.95685)
(-6.99837e-14 293.616 -4.95685)
(-2.93295e-14 283.733 -4.87797)
(-5.86591e-14 283.733 -4.87797)
(5.46579e-15 274.037 -4.79804)
(8.46202e-14 274.037 -4.79804)
(0 264.557 -4.71762)
(2.41128e-14 264.557 -4.71762)
(-1.56969e-14 255.319 -4.63718)
(-1.49246e-13 255.319 -4.63718)
(1.60298e-14 246.342 -4.55715)
(-6.41193e-14 246.342 -4.55715)
(1.6357e-14 237.637 -4.47787)
(0 237.637 -4.47787)
(0 229.216 -4.39964)
(-1.33429e-13 229.216 -4.39964)
(1.69946e-14 221.082 -4.32269)
(0 221.082 -4.32269)
(3.461e-14 213.238 -4.24721)
(0 213.238 -4.24721)
(0 205.683 -4.17335)
(-9.16245e-14 205.683 -4.17335)
(-2.88695e-15 198.414 -4.10123)
(0 198.414 -4.10123)
(3.86193e-14 191.425 -4.03093)
(-9.32309e-14 191.425 -4.03093)
(0 184.711 -3.9625)
(-7.39723e-14 184.711 -3.9625)
(0 178.265 -3.89598)
(-7.51091e-14 178.265 -3.89598)
(1.90566e-14 172.079 -3.83139)
(0 172.079 -3.83139)
(0 166.143 -3.76872)
(-1.89596e-14 166.143 -3.76872)
(5.68254e-14 160.45 -3.70797)
(-1.86122e-14 160.45 -3.70797)
(3.81376e-14 154.99 -3.64911)
(-1.82711e-14 154.99 -3.64911)
(0 149.753 -3.59211)
(-8.05105e-14 149.753 -3.59211)
(0 144.732 -3.53694)
(0 144.732 -3.53694)
(2.06374e-14 139.916 -3.48356)
(-8.25495e-14 139.916 -3.48356)
(0 135.297 -3.43192)
(-8.35451e-14 135.297 -3.43192)
(0 130.867 -3.38198)
(3.33146e-14 130.867 -3.38198)
(-2.13727e-14 126.616 -3.33368)
(1.70982e-13 126.616 -3.33368)
(0 122.538 -3.28698)
(0 122.538 -3.28698)
(2.18449e-14 118.623 -3.24183)
(-8.73794e-14 118.623 -3.24183)
(2.20759e-14 114.865 -3.19817)
(-8.83035e-14 114.865 -3.19817)
(6.07441e-14 111.257 -3.15595)
(-1.78429e-13 111.257 -3.15595)
(-2.25283e-14 107.791 -3.11513)
(0 107.791 -3.11513)
(2.92691e-14 104.46 -3.07566)
(0 104.46 -3.07566)
(0 101.26 -3.03748)
(9.18746e-14 101.26 -3.03748)
(3.3228e-14 98.1829 -3.00056)
(-3.99159e-13 98.1829 -3.00056)
(4.67954e-14 95.224 -2.96484)
(-9.35908e-14 95.224 -2.96484)
(-2.36082e-14 92.3777 -2.93028)
(0 92.3777 -2.93028)
(-2.38162e-14 89.6388 -2.89684)
(-9.52648e-14 89.6388 -2.89684)
(-4.80434e-14 87.0025 -2.86448)
(-1.22282e-13 87.0025 -2.86448)
(-2.42248e-14 84.464 -2.83316)
(-2.19513e-13 84.464 -2.83316)
(4.88512e-14 82.019 -2.80284)
(-9.77024e-14 82.019 -2.80284)
(2.46242e-14 79.6633 -2.77347)
(9.84966e-14 79.6633 -2.77347)
(0 77.3928 -2.74504)
(9.92822e-14 77.3928 -2.74504)
(1.13364e-15 75.2039 -2.71749)
(-1.47822e-13 75.2039 -2.71749)
(-7.38578e-14 73.0929 -2.69081)
(1.00828e-13 73.0929 -2.69081)
(2.53974e-14 71.0563 -2.66496)
(-2.3014e-14 71.0563 -2.66496)
(1.95987e-14 69.0911 -2.6399)
(0 69.0911 -2.6399)
(0 67.194 -2.61561)
(-4.43566e-14 67.194 -2.61561)
(2.59571e-14 65.3622 -2.59206)
(1.03829e-13 65.3622 -2.59206)
(4.27458e-14 63.5929 -2.56922)
(-8.31877e-14 63.5929 -2.56922)
(0 61.8834 -2.54707)
(-4.19625e-14 61.8834 -2.54707)
(6.76948e-14 60.2313 -2.52559)
(6.48113e-14 60.2313 -2.52559)
(0 58.6341 -2.50474)
(-4.04387e-14 58.6341 -2.50474)
(0 57.0896 -2.48452)
(-2.14848e-13 57.0896 -2.48452)
(0 55.5957 -2.46488)
(0 55.5957 -2.46488)
(2.72048e-14 54.1502 -2.44583)
(-1.47075e-13 54.1502 -2.44583)
(2.73771e-14 52.7513 -2.42732)
(0 52.7513 -2.42732)
(2.7548e-14 51.397 -2.40935)
(2.20384e-13 51.397 -2.40935)
(2.77176e-14 50.0857 -2.3919)
(0 50.0857 -2.3919)
(2.78859e-14 48.8156 -2.37495)
(-1.47072e-13 48.8156 -2.37495)
(-6.82409e-15 47.585 -2.35848)
(1.12212e-13 47.585 -2.35848)
(0 46.3926 -2.34248)
(3.4238e-14 46.3926 -2.34248)
(-2.83836e-14 45.2367 -2.32693)
(-1.13534e-13 45.2367 -2.32693)
(0 44.1161 -2.31181)
(-3.29947e-14 44.1161 -2.31181)
(0 43.0293 -2.29712)
(-3.23901e-14 43.0293 -2.29712)
(0 41.9752 -2.28283)
(3.17965e-14 41.9752 -2.28283)
(3.12139e-14 40.9524 -2.26894)
(-1.47339e-13 40.9524 -2.26894)
(-3.06419e-14 39.9599 -2.25543)
(0 39.9599 -2.25543)
(0 38.9966 -2.24228)
(-6.01607e-14 38.9966 -2.24228)
(-2.9552e-14 38.0613 -2.2295)
(0 38.0613 -2.2295)
(-2.96627e-14 37.153 -2.21706)
(0 37.153 -2.21706)
(-1.3614e-15 36.2709 -2.20496)
(-2.84568e-14 36.2709 -2.20496)
(-2.58979e-14 35.4139 -2.19318)
(0 35.4139 -2.19318)
(0 34.5811 -2.18171)
(0 34.5811 -2.18171)
(-6.05592e-14 33.7719 -2.17055)
(-2.42237e-13 33.7719 -2.17055)
(0 32.9852 -2.15968)
(0 32.9852 -2.15968)
(3.0583e-14 32.2203 -2.1491)
(0 32.2203 -2.1491)
(-2.54679e-14 31.4766 -2.13879)
(1.22934e-13 31.4766 -2.13879)
(2.50013e-14 30.7532 -2.12876)
(-1.48535e-13 30.7532 -2.12876)
(0 30.0495 -2.11898)
(-1.73216e-13 30.0495 -2.11898)
(-3.11808e-14 29.3648 -2.10946)
(-1.24723e-13 29.3648 -2.10946)
(0 28.6985 -2.10018)
(1.25314e-13 28.6985 -2.10018)
(3.14755e-14 28.0499 -2.09113)
(0 28.0499 -2.09113)
(6.32436e-14 27.4186 -2.08232)
(1.26487e-13 27.4186 -2.08232)
(-3.17675e-14 26.8039 -2.07373)
(1.2707e-13 26.8039 -2.07373)
(-4.39306e-14 26.2053 -2.06535)
(-4.39306e-14 26.2053 -2.06535)
(3.2057e-14 25.6223 -2.05719)
(0 25.6223 -2.05719)
(-1.01345e-14 25.0543 -2.04922)
(1.71139e-13 25.0543 -2.04922)
(3.23441e-14 24.501 -2.04146)
(8.78168e-14 24.501 -2.04146)
(3.24868e-14 23.9618 -2.03388)
(0 23.9618 -2.03388)
(4.00503e-14 23.4363 -2.02649)
(-1.30516e-13 23.4363 -2.02649)
(1.11403e-13 22.924 -2.01927)
(-3.93164e-14 22.924 -2.01927)
(5.68432e-15 22.4246 -2.01223)
(-3.8596e-14 22.4246 -2.01223)
(3.78887e-14 21.9377 -2.00536)
(-3.78887e-14 21.9377 -2.00536)
(-4.0021e-15 21.4629 -1.99864)
(0 21.4629 -1.99864)
(6.66638e-14 20.9998 -1.99209)
(0 20.9998 -1.99209)
(0 20.548 -1.98569)
(3.58438e-14 20.548 -1.98569)
(3.36097e-14 20.1073 -1.97943)
(2.68877e-13 20.1073 -1.97943)
(0 19.6772 -1.97332)
(0 19.6772 -1.97332)
(-3.38856e-14 19.2576 -1.96734)
(-3.39092e-14 19.2576 -1.96734)
(-3.4023e-14 18.848 -1.9615)
(0 18.848 -1.9615)
(3.26778e-14 18.4481 -1.95578)
(0 18.4481 -1.95578)
(3.42963e-14 18.0578 -1.95018)
(0 18.0578 -1.95018)
(0 17.6766 -1.94471)
(3.14912e-14 17.6766 -1.94471)
(6.91362e-14 17.3044 -1.93935)
(-1.38272e-13 17.3044 -1.93935)
(6.94068e-14 16.9409 -1.93409)
(-1.38814e-13 16.9409 -1.93409)
(2.47447e-14 16.5858 -1.92895)
(-4.1806e-13 16.5858 -1.92895)
(-3.49729e-14 16.2389 -1.9239)
(0 16.2389 -1.9239)
(0 15.9 -1.91895)
(1.11719e-13 15.9 -1.91895)
(0 15.5688 -1.91409)
(-5.63671e-14 15.5688 -1.91409)
(3.53744e-14 15.2451 -1.90933)
(0 15.2451 -1.90933)
(-3.55075e-14 14.9287 -1.90464)
(-1.9635e-13 14.9287 -1.90464)
(0 14.6195 -1.90003)
(0 14.6195 -1.90003)
(8.81204e-14 14.3171 -1.8955)
(1.43091e-13 14.3171 -1.8955)
(7.18098e-14 14.0215 -1.89105)
(-1.4362e-13 14.0215 -1.89105)
(0 13.7323 -1.88665)
(-1.94594e-13 13.7323 -1.88665)
(3.61683e-14 13.4496 -1.88232)
(-4.95223e-14 13.4496 -1.88232)
(-4.86148e-14 13.173 -1.87805)
(-1.45198e-13 13.173 -1.87805)
(0 12.9024 -1.87383)
(-3.39167e-13 12.9024 -1.87383)
(-4.68495e-14 12.6377 -1.86967)
(0 12.6377 -1.86967)
(7.33825e-14 12.3786 -1.86555)
(1.46765e-13 12.3786 -1.86555)
(8.19695e-14 12.1251 -1.86146)
(-4.51482e-14 12.1251 -1.86146)
(0 11.877 -1.85742)
(1.47804e-13 11.877 -1.85742)
(3.70805e-14 11.6341 -1.85341)
(-1.48322e-13 11.6341 -1.85341)
(4.27114e-14 11.3962 -1.84942)
(-1.9155e-13 11.3962 -1.84942)
(0 11.1634 -1.84546)
(0 11.1634 -1.84546)
(3.74671e-14 10.9354 -1.84152)
(-1.91029e-13 10.9354 -1.84152)
(7.51908e-14 10.7121 -1.83758)
(-1.50382e-13 10.7121 -1.83758)
(7.73892e-14 10.4933 -1.83366)
(1.11228e-13 10.4933 -1.83366)
(3.67636e-14 10.279 -1.82974)
(1.12466e-13 10.279 -1.82974)
(3.79788e-14 10.0691 -1.82582)
(0 10.0691 -1.82582)
(-5.81147e-16 9.86332 -1.82189)
(0 9.86332 -1.82189)
(3.8233e-14 9.66168 -1.81795)
(-1.52932e-13 9.66168 -1.81795)
(3.83597e-14 9.46404 -1.81398)
(1.53439e-13 9.46404 -1.81398)
(7.69722e-14 9.27028 -1.81)
(0 9.27028 -1.81)
(0 9.08032 -1.80598)
(1.54449e-13 9.08032 -1.80598)
(-3.87381e-14 8.89403 -1.80193)
(-1.54952e-13 8.89403 -1.80193)
(7.77274e-14 8.71133 -1.79783)
(-1.89038e-13 8.71133 -1.79783)
(-6.02093e-15 8.53212 -1.79369)
(-3.4488e-13 8.53212 -1.79369)
(3.91141e-14 8.35631 -1.78949)
(-1.8882e-13 8.35631 -1.78949)
(-3.17709e-14 8.1838 -1.78522)
(1.56955e-13 8.1838 -1.78522)
(1.63492e-14 8.01451 -1.78089)
(1.57453e-13 8.01451 -1.78089)
(1.00722e-13 7.84834 -1.77647)
(-1.5795e-13 7.84834 -1.77647)
(-2.05009e-14 7.68522 -1.77197)
(0 7.68522 -1.77197)
(0 7.52505 -1.76738)
(-2.17951e-13 7.52505 -1.76738)
(0 7.36776 -1.76268)
(-1.59433e-13 7.36776 -1.76268)
(0 7.21327 -1.75787)
(-1.59925e-13 7.21327 -1.75787)
(0 7.06149 -1.75293)
(5.58258e-14 7.06149 -1.75293)
(4.02263e-14 6.91236 -1.74787)
(-5.48028e-14 6.91236 -1.74787)
(4.03483e-14 6.76579 -1.74266)
(1.61393e-13 6.76579 -1.74266)
(4.04699e-14 6.62171 -1.73731)
(-5.28127e-14 6.62171 -1.73731)
(0 6.48005 -1.73178)
(1.62365e-13 6.48005 -1.73178)
(0 6.34073 -1.72608)
(0 6.34073 -1.72608)
(0 6.20368 -1.7202)
(-1.63331e-13 6.20368 -1.7202)
(0 6.06885 -1.71411)
(-4.90467e-14 6.06885 -1.71411)
(-4.10728e-14 5.93614 -1.70781)
(0 5.93614 -1.70781)
(-4.11922e-14 5.80551 -1.70127)
(-1.64769e-13 5.80551 -1.70127)
(-4.13112e-14 5.67687 -1.69449)
(-1.65245e-13 5.67687 -1.69449)
(0 5.55016 -1.68745)
(0 5.55016 -1.68745)
(4.47146e-14 5.42533 -1.68013)
(-3.32383e-13 5.42533 -1.68013)
(0 5.30229 -1.67251)
(-2.10557e-13 5.30229 -1.67251)
(0 5.18098 -1.66458)
(0 5.18098 -1.66458)
(4.23012e-14 5.06135 -1.65631)
(-2.09899e-13 5.06135 -1.65631)
(-4.89377e-16 4.94332 -1.64767)
(-4.15261e-14 4.94332 -1.64767)
(4.34969e-14 4.82682 -1.63866)
(1.27759e-13 4.82682 -1.63866)
(8.44921e-14 4.7118 -1.62924)
(0 4.7118 -1.62924)
(8.47209e-14 4.59818 -1.61938)
(-1.69442e-13 4.59818 -1.61938)
(8.10392e-14 4.4859 -1.60907)
(-3.85649e-14 4.4859 -1.60907)
(-4.25874e-14 4.37489 -1.59826)
(0 4.37489 -1.59826)
(3.71645e-14 4.26508 -1.58693)
(1.708e-13 4.26508 -1.58693)
(-6.3282e-15 4.1564 -1.57503)
(1.34763e-13 4.1564 -1.57503)
(0 4.04878 -1.56254)
(-2.07506e-13 4.04878 -1.56254)
(3.51586e-14 3.94215 -1.54942)
(-2.0729e-13 3.94215 -1.54942)
(-1.12171e-13 3.83643 -1.53561)
(-1.72569e-13 3.83643 -1.53561)
(8.65018e-14 3.73155 -1.52108)
(-1.73004e-13 3.73155 -1.52108)
(4.33586e-14 3.62742 -1.50578)
(0 3.62742 -1.50578)
(-6.5303e-14 3.52397 -1.48964)
(1.73861e-13 3.52397 -1.48964)
(0 3.4211 -1.47261)
(0 3.4211 -1.47261)
(0 3.31873 -1.45463)
(-2.37635e-13 3.31873 -1.45463)
(0 3.21676 -1.43563)
(-6.17784e-14 3.21676 -1.43563)
(-1.67647e-14 3.1151 -1.41552)
(1.75527e-13 3.1151 -1.41552)
(4.39829e-14 3.01364 -1.39424)
(-3.51863e-13 3.01364 -1.39424)
(0 2.91227 -1.37168)
(0 2.91227 -1.37168)
(-1.31918e-14 2.81088 -1.34775)
(0 2.81088 -1.34775)
(4.42783e-14 2.70933 -1.32234)
(-2.33435e-13 2.70933 -1.32234)
(-4.43738e-14 2.60749 -1.29534)
(1.22206e-13 2.60749 -1.29534)
(3.46588e-14 2.50523 -1.26661)
(1.77871e-13 2.50523 -1.26661)
(3.58377e-14 2.40238 -1.23601)
(0 2.40238 -1.23601)
(-7.65544e-15 2.2988 -1.20338)
(0 2.2988 -1.20338)
(4.47384e-14 2.1943 -1.16855)
(-5.13471e-14 2.1943 -1.16855)
(-5.58145e-15 2.08869 -1.13134)
(-1.79299e-13 2.08869 -1.13134)
(4.49087e-14 1.98179 -1.09153)
(1.79635e-13 1.98179 -1.09153)
(0 1.87337 -1.04891)
(-2.77113e-13 1.87337 -1.04891)
(4.50695e-14 1.76322 -1.00324)
(-1.80278e-13 1.76322 -1.00324)
(9.19577e-14 1.6511 -0.954242)
(0 1.6511 -0.954242)
(-4.59539e-14 1.53677 -0.901647)
(2.72786e-13 1.53677 -0.901647)
(0 1.41999 -0.845158)
(-3.62319e-13 1.41999 -0.845158)
(0 1.30051 -0.784462)
(-1.81428e-13 1.30051 -0.784462)
(4.54204e-14 1.1781 -0.719243)
(-1.81681e-13 1.1781 -0.719243)
(4.548e-14 1.05254 -0.649176)
(1.39243e-13 1.05254 -0.649176)
(4.55355e-14 0.923633 -0.573948)
(-3.64284e-13 0.923633 -0.573948)
(9.1173e-14 0.791228 -0.493258)
(-1.82346e-13 0.791228 -0.493258)
(0 0.655226 -0.406836)
(0 0.655226 -0.406837)
(-8.53076e-14 0.515594 -0.314451)
(1.82695e-13 0.515594 -0.314451)
(0 0.372375 -0.215922)
(-2.60652e-13 0.372375 -0.215922)
(-4.57388e-14 0.225693 -0.111126)
(1.06566e-13 0.225693 -0.111126)
(1.20751e-13 7.88867e-07 -2.91981e-07)
(1.83275e-13 4.6544e-07 -1.72272e-07)
(1.20808e-13 -7.664e-07 2.83668e-07)
(1.83048e-13 -4.95458e-07 1.83382e-07)
(-3.81946e-14 -0.225693 0.111126)
(2.89521e-13 -0.225693 0.111126)
(-4.57093e-14 -0.372375 0.215922)
(-3.89075e-14 -0.372375 0.215922)
(0 -0.515594 0.314451)
(1.82695e-13 -0.515594 0.314451)
(-8.07473e-14 -0.655226 0.406836)
(4.45809e-13 -0.655226 0.406836)
(-4.55865e-14 -0.791228 0.493258)
(-1.82346e-13 -0.791228 0.493258)
(8.379e-14 -0.923632 0.573948)
(0 -0.923632 0.573948)
(-4.548e-14 -1.05254 0.649176)
(-1.8192e-13 -1.05254 0.649176)
(0 -1.1781 0.719242)
(0 -1.1781 0.719242)
(1.33927e-13 -1.30051 0.784462)
(0 -1.30051 0.784462)
(0 -1.41999 0.845157)
(1.81159e-13 -1.41999 0.845157)
(0 -1.53677 0.901647)
(1.80878e-13 -1.53677 0.901647)
(0 -1.6511 0.954242)
(0 -1.6511 0.954242)
(-4.50695e-14 -1.76322 1.00324)
(-1.80278e-13 -1.76322 1.00324)
(8.99807e-14 -1.87337 1.04891)
(-4.85757e-14 -1.87337 1.04891)
(-4.94825e-14 -1.98179 1.09153)
(4.94825e-14 -1.98179 1.09153)