/*--------------------------------*- C++ -*----------------------------------*\
| =========                 |                                                 |
| \\      /  F ield         | OpenFOAM: The Open Source CFD Toolbox           |
|  \\    /   O peration     | Version:  2106                                  |
|   \\  /    A nd           | Website:  www.openfoam.com                      |
|    \\/     M anipulation  |                                                 |
\*---------------------------------------------------------------------------*/
FoamFile
{
    version     2.0;
    format      ascii;
    arch        "LSB;label=32;scalar=64";
    class       surfaceScalarField;
    location    "10060";
    object      phi;
}
// * * * * * * * * * * * * * * * * * * * * * * * * * * * * * * * * * * * * * //

dimensions      [0 3 -1 0 0 0 0];

oriented        oriented;

internalField   nonuniform List<scalar> 
3996
(
2.99969e-08
-5.82426e-18
-1.74929e-22
-5.09259e-22
4.70273e-23
9.22292e-08
-5.82326e-18
-2.82794e-22
-1.28924e-21
6.35528e-23
1.57935e-07
-5.82228e-18
-2.89335e-22
-2.03142e-21
6.71955e-23
2.27266e-07
-5.82124e-18
-3.07087e-22
-2.81347e-21
7.10596e-23
3.00378e-07
-5.82013e-18
-3.23414e-22
-3.63132e-21
7.51589e-23
3.77436e-07
-5.81893e-18
-3.38831e-22
-4.6217e-21
7.95075e-23
4.5861e-07
-5.81776e-18
-3.54656e-22
-5.53584e-21
8.41232e-23
5.44076e-07
-5.81639e-18
-3.71164e-22
-6.63714e-21
8.9023e-23
6.34018e-07
-5.81507e-18
-3.88383e-22
-7.67536e-21
9.42279e-23
7.28625e-07
-5.81376e-18
-4.06375e-22
-8.77477e-21
9.97512e-23
8.28096e-07
-5.8126e-18
-4.25228e-22
-1.00403e-20
1.05615e-22
9.32633e-07
-5.81107e-18
-4.45011e-22
-1.11784e-20
1.1184e-22
1.04245e-06
-5.80942e-18
-4.65789e-22
-1.24763e-20
1.18445e-22
1.15776e-06
-5.80749e-18
-4.87619e-22
-1.37405e-20
1.25449e-22
1.27879e-06
-5.80561e-18
-5.10557e-22
-1.49361e-20
1.32875e-22
1.40576e-06
-5.80382e-18
-5.34643e-22
-1.67264e-20
1.40731e-22
1.53891e-06
-5.80198e-18
-5.5992e-22
-1.80603e-20
1.49058e-22
1.67846e-06
-5.80047e-18
-5.86419e-22
-1.99216e-20
1.57859e-22
1.82467e-06
-5.79837e-18
-6.14151e-22
-2.11777e-20
1.67151e-22
1.97775e-06
-5.79629e-18
-6.43131e-22
-2.25643e-20
1.76918e-22
2.13793e-06
-5.79418e-18
-6.73327e-22
-2.4484e-20
1.87153e-22
2.30544e-06
-5.79118e-18
-7.047e-22
-2.68437e-20
1.97857e-22
2.48048e-06
-5.78864e-18
-7.3724e-22
-2.94755e-20
2.09039e-22
2.66324e-06
-5.78636e-18
-7.70829e-22
-3.15938e-20
2.20686e-22
2.85389e-06
-5.78336e-18
-8.05347e-22
-3.39148e-20
2.32754e-22
3.05258e-06
-5.77993e-18
-8.40686e-22
-3.61345e-20
2.4519e-22
3.25942e-06
-5.77791e-18
-8.76688e-22
-3.81416e-20
2.57917e-22
3.47449e-06
-5.7747e-18
-9.13096e-22
-4.06119e-20
2.7089e-22
3.69783e-06
-5.77098e-18
-9.49749e-22
-4.38037e-20
2.84048e-22
3.92945e-06
-5.76695e-18
-9.86489e-22
-4.65885e-20
2.97352e-22
4.1693e-06
-5.76339e-18
-1.02305e-21
-4.94279e-20
3.10668e-22
4.41733e-06
-5.75913e-18
-1.05914e-21
-5.27526e-20
3.2393e-22
4.6734e-06
-5.75471e-18
-1.09458e-21
-5.67296e-20
3.37089e-22
4.93739e-06
-5.75019e-18
-1.12925e-21
-5.94759e-20
3.5014e-22
5.20913e-06
-5.74698e-18
-1.16294e-21
-6.21956e-20
3.62939e-22
5.48844e-06
-5.74249e-18
-1.19544e-21
-6.56256e-20
3.7538e-22
5.77512e-06
-5.73836e-18
-1.22673e-21
-6.91877e-20
3.87433e-22
6.06898e-06
-5.73383e-18
-1.25664e-21
-7.29429e-20
3.99016e-22
6.36983e-06
-5.72867e-18
-1.28521e-21
-7.74965e-20
4.10103e-22
6.6775e-06
-5.72428e-18
-1.31243e-21
-8.17502e-20
4.20694e-22
6.99182e-06
-5.71927e-18
-1.33837e-21
-8.70429e-20
4.30769e-22
7.31267e-06
-5.71463e-18
-1.3632e-21
-9.0477e-20
4.40363e-22
7.63992e-06
-5.71125e-18
-1.38703e-21
-9.24149e-20
4.49528e-22
7.97349e-06
-5.70583e-18
-1.40981e-21
-9.41816e-20
4.57991e-22
8.31333e-06
-5.70153e-18
-1.43204e-21
-9.5197e-20
4.65953e-22
8.65939e-06
-5.69693e-18
-1.45385e-21
-9.99688e-20
4.73299e-22
9.01168e-06
-5.69247e-18
-1.47538e-21
-1.03585e-19
4.80486e-22
9.37022e-06
-5.6886e-18
-1.49683e-21
-1.06111e-19
4.87571e-22
9.73506e-06
-5.68523e-18
-1.5183e-21
-1.10373e-19
4.94254e-22
1.01062e-05
-5.67867e-18
-1.53992e-21
-1.14567e-19
5.00753e-22
1.04839e-05
-5.67283e-18
-1.56205e-21
-1.17753e-19
5.07028e-22
1.08681e-05
-5.66514e-18
-1.58487e-21
-1.22771e-19
5.13333e-22
1.12589e-05
-5.65784e-18
-1.60861e-21
-1.26824e-19
5.19802e-22
1.16566e-05
-5.64983e-18
-1.6332e-21
-1.32375e-19
5.26321e-22
1.20612e-05
-5.63981e-18
-1.65873e-21
-1.3794e-19
5.32873e-22
1.24729e-05
-5.63069e-18
-1.68541e-21
-1.44841e-19
5.39394e-22
1.28919e-05
-5.62459e-18
-1.71354e-21
-1.50629e-19
5.46285e-22
1.33183e-05
-5.61641e-18
-1.74259e-21
-1.57745e-19
5.53216e-22
1.37524e-05
-5.60711e-18
-1.77362e-21
-1.63145e-19
5.60656e-22
1.41944e-05
-5.60091e-18
-1.80654e-21
-1.6678e-19
5.68008e-22
1.46443e-05
-5.59569e-18
-1.84081e-21
-1.70278e-19
5.74702e-22
1.51026e-05
-5.59082e-18
-1.87642e-21
-1.75374e-19
5.80658e-22
1.55693e-05
-5.5813e-18
-1.91359e-21
-1.85212e-19
5.86767e-22
1.60447e-05
-5.5775e-18
-1.95358e-21
-1.90817e-19
5.93783e-22
1.6529e-05
-5.56927e-18
-1.99539e-21
-1.98643e-19
6.01013e-22
1.70224e-05
-5.5614e-18
-2.03939e-21
-2.01918e-19
6.08634e-22
1.75253e-05
-5.54897e-18
-2.08584e-21
-2.06937e-19
6.15894e-22
1.80377e-05
-5.53954e-18
-2.1363e-21
-2.16094e-19
6.23421e-22
1.856e-05
-5.53463e-18
-2.18975e-21
-2.21232e-19
6.32327e-22
1.90925e-05
-5.5268e-18
-2.24508e-21
-2.26412e-19
6.40273e-22
1.96353e-05
-5.51631e-18
-2.30297e-21
-2.36388e-19
6.46801e-22
2.01887e-05
-5.5032e-18
-2.36425e-21
-2.45511e-19
6.52799e-22
2.0753e-05
-5.49522e-18
-2.42915e-21
-2.5447e-19
6.59021e-22
2.13284e-05
-5.48895e-18
-2.49677e-21
-2.64458e-19
6.64684e-22
2.19153e-05
-5.47911e-18
-2.56821e-21
-2.7382e-19
6.70034e-22
2.25139e-05
-5.47124e-18
-2.64307e-21
-2.86434e-19
6.75876e-22
2.31245e-05
-5.46411e-18
-2.72106e-21
-2.91565e-19
6.80753e-22
2.37474e-05
-5.44505e-18
-2.80142e-21
-3.06513e-19
6.83721e-22
2.43828e-05
-5.43461e-18
-2.88724e-21
-3.14234e-19
6.89245e-22
2.50311e-05
-5.42392e-18
-2.97614e-21
-3.28255e-19
6.93941e-22
2.56925e-05
-5.41131e-18
-3.06919e-21
-3.35462e-19
6.97944e-22
2.63674e-05
-5.40069e-18
-3.16689e-21
-3.47902e-19
7.01322e-22
2.70561e-05
-5.37825e-18
-3.26899e-21
-3.55316e-19
7.07418e-22
2.7759e-05
-5.36454e-18
-3.37642e-21
-3.68422e-19
7.13789e-22
2.84762e-05
-5.3572e-18
-3.48754e-21
-3.71065e-19
7.20213e-22
2.92082e-05
-5.34895e-18
-3.60183e-21
-3.77647e-19
7.23124e-22
2.99553e-05
-5.34875e-18
-3.71849e-21
-3.74427e-19
7.2345e-22
3.07178e-05
-5.3312e-18
-3.83464e-21
-3.89664e-19
7.17431e-22
3.14962e-05
-5.31398e-18
-3.95737e-21
-4.10333e-19
7.12037e-22
3.22906e-05
-5.28802e-18
-4.0885e-21
-4.30521e-19
7.08935e-22
3.31016e-05
-5.27319e-18
-4.23058e-21
-4.46683e-19
7.0616e-22
3.39295e-05
-5.25479e-18
-4.37391e-21
-4.67641e-19
7.00933e-22
3.47746e-05
-5.23505e-18
-4.52156e-21
-4.77064e-19
6.92571e-22
3.56374e-05
-5.21413e-18
-4.677e-21
-5.00529e-19
6.76852e-22
3.65182e-05
-5.18801e-18
-4.84064e-21
-5.18184e-19
6.63027e-22
3.74174e-05
-5.16279e-18
-5.0132e-21
-5.38321e-19
6.4869e-22
3.83354e-05
-5.15095e-18
-5.19519e-21
-5.53958e-19
6.3269e-22
3.92727e-05
-5.13831e-18
-5.3798e-21
-5.66026e-19
6.1272e-22
4.02297e-05
-5.13126e-18
-5.56752e-21
-5.6725e-19
5.84412e-22
4.12068e-05
-5.12788e-18
-5.7546e-21
-5.67918e-19
5.41704e-22
4.22044e-05
-5.11031e-18
-5.93449e-21
-5.82392e-19
4.83666e-22
4.32231e-05
-5.09861e-18
-6.11676e-21
-5.83839e-19
4.17049e-22
4.42631e-05
-5.08701e-18
-6.29472e-21
-5.89715e-19
3.31546e-22
4.53251e-05
-5.07254e-18
-6.46776e-21
-6.03649e-19
2.35005e-22
4.64095e-05
-5.05547e-18
-6.62876e-21
-6.18012e-19
1.28255e-22
4.75168e-05
-5.03317e-18
-6.79067e-21
-6.33406e-19
1.09263e-23
4.86474e-05
-5.02268e-18
-6.95958e-21
-6.42492e-19
-1.01969e-22
4.9802e-05
-5.00045e-18
-7.12358e-21
-6.58259e-19
-2.18836e-22
5.09809e-05
-4.98214e-18
-7.29061e-21
-6.79323e-19
-3.38809e-22
5.21847e-05
-4.9522e-18
-7.4547e-21
-6.8246e-19
-4.55147e-22
5.3414e-05
-4.93101e-18
-7.63445e-21
-6.8693e-19
-5.71491e-22
5.46693e-05
-4.90786e-18
-7.81584e-21
-6.97741e-19
-6.98768e-22
5.59511e-05
-4.87989e-18
-8.00547e-21
-7.13383e-19
-8.18644e-22
5.72601e-05
-4.8548e-18
-8.18854e-21
-7.25277e-19
-9.43892e-22
5.85968e-05
-4.82796e-18
-8.37504e-21
-7.38635e-19
-1.08612e-21
5.99618e-05
-4.80355e-18
-8.57321e-21
-7.50135e-19
-1.23259e-21
6.13557e-05
-4.77406e-18
-8.76073e-21
-7.75346e-19
-1.39025e-21
6.27791e-05
-4.75225e-18
-8.93505e-21
-7.91871e-19
-1.54812e-21
6.42327e-05
-4.72033e-18
-9.09038e-21
-8.11255e-19
-1.69729e-21
6.57171e-05
-4.69843e-18
-9.21107e-21
-8.35116e-19
-1.85473e-21
6.72329e-05
-4.67317e-18
-9.30582e-21
-8.50604e-19
-1.99149e-21
6.87808e-05
-4.64667e-18
-9.38646e-21
-8.762e-19
-2.11989e-21
7.03616e-05
-4.61904e-18
-9.46671e-21
-9.0366e-19
-2.21703e-21
7.19758e-05
-4.59161e-18
-9.53093e-21
-9.27203e-19
-2.26888e-21
7.36243e-05
-4.56374e-18
-9.594e-21
-9.58105e-19
-2.29395e-21
7.53077e-05
-4.53824e-18
-9.63163e-21
-9.82692e-19
-2.30803e-21
7.70267e-05
-4.50869e-18
-9.64523e-21
-1.01185e-18
-2.35692e-21
7.87822e-05
-4.47706e-18
-9.64858e-21
-1.04278e-18
-2.42235e-21
8.05749e-05
-4.43055e-18
-9.647e-21
-1.07245e-18
-2.50645e-21
8.24055e-05
-4.40681e-18
-9.65098e-21
-1.10447e-18
-2.56785e-21
8.4275e-05
-4.37083e-18
-9.63406e-21
-1.13661e-18
-2.58605e-21
8.6184e-05
-4.3031e-18
-9.62003e-21
-1.15113e-18
-2.58935e-21
8.81335e-05
-4.29084e-18
-9.67317e-21
-1.14789e-18
-2.5811e-21
9.01242e-05
-4.25693e-18
-9.70527e-21
-1.14135e-18
-2.57255e-21
9.21572e-05
-4.24407e-18
-9.79616e-21
-1.14719e-18
-2.53198e-21
9.42331e-05
-4.22773e-18
-9.91249e-21
-1.14645e-18
-2.46075e-21
9.6353e-05
-4.21213e-18
-1.00016e-20
-1.14562e-18
-2.3887e-21
9.85178e-05
-4.1897e-18
-1.00616e-20
-1.14421e-18
-2.31804e-21
0.000100728
-4.16325e-18
-1.00839e-20
-1.15408e-18
-2.23618e-21
0.000102986
-4.1454e-18
-1.01191e-20
-1.15092e-18
-2.12234e-21
0.000105291
-4.11256e-18
-1.01402e-20
-1.16317e-18
-2.03463e-21
0.000107645
-4.08572e-18
-1.02047e-20
-1.17304e-18
-1.92086e-21
0.000110048
-4.0512e-18
-1.01914e-20
-1.17898e-18
-1.82667e-21
0.000112503
-4.00521e-18
-1.00994e-20
-1.19668e-18
-1.72439e-21
0.000115009
-3.97577e-18
-1.00995e-20
-1.20547e-18
-1.5633e-21
0.000117568
-3.92596e-18
-1.0077e-20
-1.23015e-18
-1.37902e-21
0.000120181
-3.88192e-18
-1.00839e-20
-1.24861e-18
-1.1922e-21
0.00012285
-3.85558e-18
-1.01894e-20
-1.2647e-18
-1.03937e-21
0.000125575
-3.80086e-18
-1.01683e-20
-1.30787e-18
-9.26876e-22
0.000128357
-3.7849e-18
-1.02182e-20
-1.30663e-18
-7.11543e-22
0.000131198
-3.76055e-18
-1.03021e-20
-1.33423e-18
-5.02863e-22
0.000134099
-3.71859e-18
-1.03181e-20
-1.35663e-18
-2.59254e-22
0.000137061
-3.72877e-18
-1.03838e-20
-1.41176e-18
-1.07313e-22
0.000140086
-3.69517e-18
-1.01772e-20
-1.42447e-18
1.14999e-22
0.000143174
-3.6416e-18
-9.97592e-21
-1.50339e-18
2.28978e-22
0.000146327
-3.61295e-18
-9.84813e-21
-1.52574e-18
6.23287e-22
0.000149547
-3.56743e-18
-9.6618e-21
-1.54615e-18
9.30137e-22
0.000152835
-3.53057e-18
-9.62071e-21
-1.58356e-18
1.17901e-21
0.000156191
-3.5022e-18
-9.64152e-21
-1.61974e-18
1.27668e-21
0.000159619
-3.47166e-18
-9.74654e-21
-1.6372e-18
1.36683e-21
0.000163118
-3.42508e-18
-9.81064e-21
-1.67699e-18
1.23026e-21
0.000166691
-3.40381e-18
-9.92942e-21
-1.70877e-18
1.12528e-21
0.000170339
-3.34568e-18
-9.99177e-21
-1.72999e-18
1.23353e-21
0.000174063
-3.33148e-18
-1.01173e-20
-1.75748e-18
1.44406e-21
0.000177866
-3.29475e-18
-9.98273e-21
-1.7535e-18
1.47032e-21
0.000181749
-3.26335e-18
-9.88762e-21
-1.79125e-18
1.12335e-21
0.000185712
-3.22375e-18
-9.77896e-21
-1.79397e-18
7.64383e-22
0.000189759
-3.19785e-18
-9.59481e-21
-1.80947e-18
4.72118e-22
0.000193891
-3.13302e-18
-9.05843e-21
-1.84305e-18
6.53692e-22
0.00019811
-3.091e-18
-8.63845e-21
-1.84367e-18
7.64664e-22
0.000202416
-3.03803e-18
-8.20013e-21
-1.89684e-18
4.33363e-22
0.000206813
-2.99433e-18
-7.95332e-21
-1.89347e-18
2.14434e-22
0.000211301
-2.9921e-18
-7.73862e-21
-1.91639e-18
-3.83995e-22
0.000215884
-2.92353e-18
-7.16429e-21
-1.92437e-18
-9.1378e-22
0.000220562
-2.93278e-18
-7.01968e-21
-1.91958e-18
-1.55481e-21
0.000225337
-2.89394e-18
-6.88314e-21
-1.92951e-18
-2.00609e-21
0.000230212
-2.85851e-18
-6.89305e-21
-1.9312e-18
-2.53699e-21
0.000235189
-2.84745e-18
-7.00558e-21
-1.92879e-18
-3.17497e-21
0.00024027
-2.87752e-18
-7.38596e-21
-1.9093e-18
-3.5768e-21
0.000245456
-2.80799e-18
-7.26302e-21
-1.92976e-18
-4.69815e-21
0.00025075
-2.72131e-18
-7.21435e-21
-1.97195e-18
-6.17863e-21
0.000256154
-2.60789e-18
-7.93564e-21
-2.01857e-18
-7.88141e-21
0.00026167
-2.57402e-18
-9.57272e-21
-2.06622e-18
-9.32649e-21
0.000267301
-2.53818e-18
-1.1172e-20
-2.09105e-18
-9.85987e-21
0.000273049
-2.55124e-18
-1.21841e-20
-2.0967e-18
-1.01632e-20
0.000278916
-2.50797e-18
-1.1882e-20
-2.1005e-18
-1.07552e-20
0.000284904
-2.47809e-18
-1.30433e-20
-2.1266e-18
-1.12742e-20
0.000291016
-2.4488e-18
-1.33375e-20
-2.1514e-18
-1.20816e-20
0.000297254
-2.41298e-18
-1.33544e-20
-2.20811e-18
-1.35587e-20
0.000303621
-2.38533e-18
-1.4069e-20
-2.21783e-18
-1.40088e-20
0.00031012
-2.36503e-18
-1.47543e-20
-2.17496e-18
-1.44869e-20
0.000316752
-2.32008e-18
-1.57815e-20
-2.20014e-18
-1.57872e-20
0.000323521
-2.30118e-18
-1.64906e-20
-2.21547e-18
-1.60692e-20
0.000330429
-2.27867e-18
-1.69738e-20
-2.17832e-18
-1.66104e-20
0.000337479
-2.23762e-18
-1.72179e-20
-2.15344e-18
-1.81432e-20
0.000344674
-2.22173e-18
-1.85681e-20
-2.15561e-18
-1.98771e-20
0.000352016
-2.19787e-18
-2.00383e-20
-2.17996e-18
-2.03406e-20
0.000359508
-2.14146e-18
-2.2824e-20
-2.13528e-18
-2.19657e-20
0.000367153
-2.12907e-18
-2.4756e-20
-2.10285e-18
-2.25377e-20
0.000374955
-2.05252e-18
-2.6802e-20
-2.04987e-18
-2.44686e-20
0.000382915
-2.10191e-18
-2.91866e-20
-1.94864e-18
-2.66613e-20
0.000391037
-1.94066e-18
-2.87839e-20
-1.93673e-18
-2.94844e-20
0.000399325
-1.88605e-18
-2.92691e-20
-1.9045e-18
-3.18566e-20
0.00040778
-1.79525e-18
-3.06794e-20
-1.88214e-18
-3.39273e-20
0.000416407
-1.84602e-18
-3.31621e-20
-1.74393e-18
-3.50898e-20
0.000425208
-1.81226e-18
-3.41197e-20
-1.77643e-18
-3.66833e-20
0.000434187
-1.75625e-18
-3.35333e-20
-1.72912e-18
-3.49355e-20
0.000443346
-1.67704e-18
-3.26687e-20
-1.69395e-18
-3.46315e-20
0.00045269
-1.61398e-18
-3.28822e-20
-1.59308e-18
-3.56397e-20
0.000462221
-1.54441e-18
-3.34224e-20
-1.54184e-18
-3.85703e-20
0.000471942
-1.48156e-18
-3.49124e-20
-1.49026e-18
-4.06502e-20
0.000481858
-1.44922e-18
-3.84373e-20
-1.45779e-18
-4.03047e-20
0.000491971
-1.59475e-18
-4.49397e-20
-1.55704e-18
-4.30074e-20
0.000502285
-1.59048e-18
-4.66583e-20
-1.57291e-18
-4.37353e-20
0.000512803
-1.55293e-18
-4.68754e-20
-1.56252e-18
-4.46728e-20
0.000523529
-1.54502e-18
-4.66387e-20
-1.41874e-18
-4.51266e-20
0.000534466
-1.55743e-18
-4.66996e-20
-1.44016e-18
-4.38119e-20
0.000545617
-1.52324e-18
-4.08335e-20
-1.51031e-18
-4.30284e-20
0.000556987
-1.50711e-18
-3.77925e-20
-1.48785e-18
-4.27498e-20
0.000568578
-1.55506e-18
-4.23272e-20
-1.52304e-18
-4.03205e-20
0.000580393
-1.35783e-18
-3.9111e-20
-1.52398e-18
-3.81719e-20
0.000592437
-1.44746e-18
-4.79365e-20
-1.39478e-18
-3.7832e-20
0.000604713
-1.48547e-18
-5.4519e-20
-1.38493e-18
-3.91154e-20
0.000617223
-1.41064e-18
-4.89793e-20
-1.41369e-18
-3.95197e-20
0.000629972
-1.37052e-18
-4.21798e-20
-1.35682e-18
-3.60818e-20
0.000642961
-1.32529e-18
-4.26615e-20
-1.46331e-18
-3.38526e-20
0.000656196
-1.29712e-18
-4.91607e-20
-1.359e-18
-2.79592e-20
0.000669677
-1.33056e-18
-5.0171e-20
-1.22966e-18
-2.76349e-20
0.000683409
-1.3493e-18
-4.73573e-20
-1.31738e-18
-3.26829e-20
0.000697394
-1.28187e-18
-3.95676e-20
-1.28884e-18
-3.12205e-20
0.000711634
-1.2623e-18
-3.61063e-20
-1.28124e-18
-3.26997e-20
0.000726132
-1.19358e-18
-4.40066e-20
-1.34275e-18
-3.07305e-20
0.00074089
-1.17106e-18
-4.02357e-20
-1.23982e-18
-2.63352e-20
0.00075591
-1.24658e-18
-4.1843e-20
-1.34616e-18
-3.49658e-20
0.000771194
-1.10155e-18
-4.00828e-20
-1.42818e-18
-2.98731e-20
0.000786742
-1.24269e-18
-5.70065e-20
-1.40331e-18
-2.48557e-20
0.000802555
-1.31969e-18
-5.90883e-20
-1.46592e-18
-1.99736e-20
0.000818634
-1.47898e-18
-5.27462e-20
-1.22476e-18
-1.70087e-21
0.000834978
-1.40384e-18
-4.09559e-20
-1.21614e-18
-1.25426e-20
0.000851588
-1.28405e-18
-4.12715e-20
-1.28252e-18
-2.02343e-20
0.00086846
-1.30463e-18
-4.31338e-20
-1.29553e-18
-1.34199e-20
0.000885595
-1.44732e-18
-3.22519e-20
-1.07134e-18
8.41428e-21
0.000902987
-1.128e-18
-1.35535e-21
-1.03123e-18
1.71744e-20
0.000920635
-1.07936e-18
-1.40193e-20
-9.08258e-19
1.77845e-20
0.000938533
-1.07868e-18
-1.02925e-21
-8.41331e-19
4.97067e-21
0.000956677
-8.3248e-19
1.52263e-20
-1.01793e-18
-1.14533e-20
0.000975059
-9.69179e-19
-8.88397e-21
-9.97685e-19
-2.39169e-20
0.000993673
-1.01761e-18
-1.9549e-20
-1.08017e-18
-3.89802e-20
0.00101251
-9.5552e-19
-2.24581e-20
-1.07715e-18
-2.18682e-20
0.00103156
-2.09207e-21
-9.52796e-19
-9.13422e-21
-1.08722e-18
2.99969e-08
-1.62883e-22
4.44015e-23
9.22292e-08
-4.29657e-22
1.2068e-22
1.57935e-07
-7.0211e-22
2.00669e-22
2.27266e-07
-9.99478e-22
2.76794e-22
3.00378e-07
-1.30008e-21
3.27515e-22
3.77436e-07
-1.64031e-21
3.92161e-22
4.5861e-07
-1.96071e-21
5.16511e-22
5.44076e-07
-2.44145e-21
6.40441e-22
6.34018e-07
-2.87811e-21
6.96794e-22
7.28625e-07
-3.35789e-21
8.88227e-22
8.28096e-07
-3.72361e-21
1.0235e-21
9.32633e-07
-4.12738e-21
1.2118e-21
1.04245e-06
-4.60895e-21
1.27123e-21
1.15776e-06
-5.23742e-21
1.42886e-21
1.27879e-06
-5.57756e-21
1.46871e-21
1.40576e-06
-6.33352e-21
2.083e-21
1.53891e-06
-7.02245e-21
2.48795e-21
1.67846e-06
-7.83324e-21
2.70924e-21
1.82467e-06
-8.66046e-21
3.00351e-21
1.97775e-06
-8.97286e-21
2.67275e-21
2.13793e-06
-9.25874e-21
2.20824e-21
2.30544e-06
-1.03884e-20
2.24289e-21
2.48048e-06
-1.10237e-20
2.23153e-21
2.66324e-06
-1.13964e-20
2.3318e-21
2.85389e-06
-1.20166e-20
2.13114e-21
3.05258e-06
-1.26826e-20
1.45957e-21
3.25942e-06
-1.29154e-20
1.56959e-21
3.47449e-06
-1.34611e-20
1.73514e-21
3.69783e-06
-1.51998e-20
2.4465e-21
3.92945e-06
-1.5762e-20
1.9618e-21
4.1693e-06
-1.5811e-20
1.60219e-21
4.41733e-06
-1.6032e-20
1.56053e-21
4.6734e-06
-1.76609e-20
1.92536e-21
4.93739e-06
-1.83347e-20
1.51977e-21
5.20913e-06
-1.91255e-20
8.30585e-22
5.48844e-06
-2.03592e-20
8.25062e-22
5.77512e-06
-1.9924e-20
7.87869e-22
6.06898e-06
-2.04079e-20
1.00646e-21
6.36983e-06
-2.0453e-20
1.0343e-21
6.6775e-06
-2.14391e-20
1.95208e-21
6.99182e-06
-2.27406e-20
1.77847e-21
7.31267e-06
-2.43225e-20
2.96643e-21
7.63992e-06
-2.33688e-20
1.3038e-21
7.97349e-06
-2.46064e-20
2.23104e-21
8.31333e-06
-2.57868e-20
1.69197e-21
8.65939e-06
-2.66354e-20
2.7664e-21
9.01168e-06
-2.77312e-20
4.22555e-21
9.37022e-06
-2.85209e-20
3.48628e-21
9.73506e-06
-2.92567e-20
3.85475e-21
1.01062e-05
-2.96185e-20
2.24903e-21
1.04839e-05
-3.13275e-20
4.42399e-21
1.08681e-05
-3.24956e-20
5.17445e-21
1.12589e-05
-3.33165e-20
4.01491e-21
1.16566e-05
-3.38335e-20
3.46319e-21
1.20612e-05
-3.33661e-20
2.89025e-21
1.24729e-05
-3.48763e-20
3.22984e-21
1.28919e-05
-3.29013e-20
2.08887e-21
1.33183e-05
-3.68453e-20
4.84251e-21
1.37524e-05
-3.82924e-20
5.42445e-21
1.41944e-05
-3.86825e-20
5.1882e-21
1.46443e-05
-3.94039e-20
4.82273e-21
1.51026e-05
-3.98253e-20
7.66389e-21
1.55693e-05
-4.41402e-20
1.26966e-20
1.60447e-05
-4.74686e-20
1.70036e-20
1.6529e-05
-4.77803e-20
1.70391e-20
1.70224e-05
-4.87612e-20
1.69967e-20
1.75253e-05
-5.4588e-20
1.90036e-20
1.80377e-05
-5.71999e-20
2.16747e-20
1.856e-05
-5.84376e-20
1.88331e-20
1.90925e-05
-6.08073e-20
1.89309e-20
1.96353e-05
-6.40732e-20
1.45203e-20
2.01887e-05
-6.58586e-20
1.22915e-20
2.0753e-05
-6.79084e-20
1.05769e-20
2.13284e-05
-7.67313e-20
8.24124e-21
2.19153e-05
-7.88566e-20
8.93298e-21
2.25139e-05
-8.17838e-20
5.56062e-21
2.31245e-05
-8.39276e-20
5.38365e-21
2.37474e-05
-8.64169e-20
6.81371e-21
2.43828e-05
-8.77711e-20
5.42101e-21
2.50311e-05
-9.23166e-20
3.93015e-21
2.56925e-05
-9.43705e-20
4.67479e-21
2.63674e-05
-1.01069e-19
1.11026e-20
2.70561e-05
-1.01668e-19
1.557e-20
2.7759e-05
-1.02066e-19
1.29251e-20
2.84762e-05
-1.04779e-19
1.15235e-20
2.92082e-05
-1.02513e-19
1.1203e-20
2.99553e-05
-9.73472e-20
1.12085e-20
3.07178e-05
-9.7253e-20
1.65048e-20
3.14962e-05
-1.06933e-19
2.21064e-20
3.22906e-05
-1.17221e-19
2.56841e-20
3.31016e-05
-1.1474e-19
2.7511e-20
3.39295e-05
-1.18267e-19
2.4557e-20
3.47746e-05
-1.28401e-19
2.13071e-20
3.56374e-05
-1.39291e-19
2.53709e-20
3.65182e-05
-1.43429e-19
3.29445e-20
3.74174e-05
-1.45532e-19
3.19585e-20
3.83354e-05
-1.48863e-19
2.87351e-20
3.92727e-05
-1.53704e-19
2.35253e-20
4.02297e-05
-1.58723e-19
1.61625e-20
4.12068e-05
-1.59775e-19
1.19265e-20
4.22044e-05
-1.67687e-19
1.10061e-20
4.32231e-05
-1.69692e-19
-1.84631e-21
4.42631e-05
-1.69577e-19
-7.11802e-21
4.53251e-05
-1.55775e-19
-1.23424e-20
4.64095e-05
-1.60019e-19
-2.14492e-20
4.75168e-05
-1.68714e-19
-1.5278e-20
4.86474e-05
-1.74045e-19
-9.26771e-21
4.9802e-05
-1.81653e-19
-6.1508e-21
5.09809e-05
-1.85047e-19
-8.85846e-21
5.21847e-05
-1.97682e-19
-3.41482e-21
5.3414e-05
-1.99437e-19
-7.20204e-21
5.46693e-05
-2.0543e-19
7.67436e-21
5.59511e-05
-1.91986e-19
5.27065e-21
5.72601e-05
-1.97315e-19
-6.60313e-23
5.85968e-05
-2.10052e-19
2.50429e-21
5.99618e-05
-2.04541e-19
-2.63868e-21
6.13557e-05
-1.96417e-19
-1.25758e-20
6.27791e-05
-1.98072e-19
-1.19184e-20
6.42327e-05
-1.81477e-19
-3.01296e-20
6.57171e-05
-1.80923e-19
-2.56384e-20
6.72329e-05
-1.84798e-19
-2.1457e-20
6.87808e-05
-1.9867e-19
-1.58118e-20
7.03616e-05
-1.97925e-19
-5.78492e-21
7.19758e-05
-2.12633e-19
4.73727e-21
7.36243e-05
-2.11175e-19
7.19669e-21
7.53077e-05
-2.09995e-19
-1.1396e-20
7.70267e-05
-2.1227e-19
-1.75435e-20
7.87822e-05
-2.18269e-19
-2.07831e-20
8.05749e-05
-2.1778e-19
-1.31494e-20
8.24055e-05
-2.18674e-19
-1.53322e-20
8.4275e-05
-2.1651e-19
-2.88597e-20
8.6184e-05
-2.16298e-19
-2.63537e-20
8.81335e-05
-2.17979e-19
-3.53515e-20
9.01242e-05
-2.38791e-19
-4.45576e-20
9.21572e-05
-2.59337e-19
-5.44454e-20
9.42331e-05
-2.53988e-19
-5.8652e-20
9.6353e-05
-2.61775e-19
-6.72441e-20
9.85178e-05
-2.59279e-19
-7.48069e-20
0.000100728
-2.70919e-19
-8.14766e-20
0.000102986
-2.84796e-19
-8.77147e-20
0.000105291
-3.03354e-19
-9.3983e-20
0.000107645
-2.76043e-19
-1.29028e-19
0.000110048
-2.49962e-19
-1.43322e-19
0.000112503
-2.76336e-19
-1.45366e-19
0.000115009
-2.77043e-19
-1.53637e-19
0.000117568
-2.83382e-19
-1.73727e-19
0.000120181
-3.21062e-19
-1.82057e-19
0.00012285
-3.01079e-19
-1.89687e-19
0.000125575
-3.147e-19
-1.97662e-19
0.000128357
-3.63277e-19
-2.03911e-19
0.000131198
-3.69572e-19
-2.01242e-19
0.000134099
-3.78958e-19
-2.02241e-19
0.000137061
-3.52179e-19
-1.94395e-19
0.000140086
-3.46174e-19
-2.12494e-19
0.000143174
-3.39127e-19
-2.15028e-19
0.000146327
-3.3455e-19
-2.28864e-19
0.000149547
-3.50543e-19
-2.13426e-19
0.000152835
-3.4872e-19
-2.41913e-19
0.000156191
-3.66996e-19
-2.47015e-19
0.000159619
-3.63942e-19
-2.54688e-19
0.000163118
-3.62966e-19
-2.3766e-19
0.000166691
-3.62798e-19
-2.08659e-19
0.000170339
-3.52793e-19
-1.6908e-19
0.000174063
-3.3232e-19
-1.82172e-19
0.000177866
-3.44735e-19
-2.01765e-19
0.000181749
-3.64615e-19
-2.12168e-19
0.000185712
-3.75841e-19
-2.28196e-19
0.000189759
-3.61339e-19
-1.86865e-19
0.000193891
-3.6874e-19
-1.91353e-19
0.00019811
-3.59687e-19
-2.21083e-19
0.000202416
-3.56165e-19
-2.31977e-19
0.000206813
-3.35859e-19
-2.26432e-19
0.000211301
-2.99549e-19
-2.00113e-19
0.000215884
-3.07727e-19
-2.08411e-19
0.000220562
-3.56621e-19
-1.79287e-19
0.000225337
-3.61835e-19
-1.92187e-19
0.000230212
-3.55566e-19
-2.03223e-19
0.000235189
-3.7975e-19
-1.77627e-19
0.00024027
-3.92155e-19
-2.09904e-19
0.000245456
-3.87963e-19
-2.41012e-19
0.00025075
-4.10624e-19
-2.83902e-19
0.000256154
-4.18896e-19
-3.1492e-19
0.00026167
-4.23413e-19
-2.83079e-19
0.000267301
-3.6672e-19
-2.39631e-19
0.000273049
-2.82101e-19
-2.61639e-19
0.000278916
-3.53339e-19
-2.81317e-19
0.000284904
-2.8308e-19
-2.87381e-19
0.000291016
-2.71584e-19
-2.97703e-19
0.000297254
-3.19177e-19
-2.81597e-19
0.000303621
-3.31995e-19
-3.21591e-19
0.00031012
-3.92753e-19
-3.4664e-19
0.000316752
-3.91744e-19
-3.25787e-19
0.000323521
-4.02422e-19
-3.64383e-19
0.000330429
-3.88927e-19
-3.79618e-19
0.000337479
-4.24315e-19
-3.90968e-19
0.000344674
-4.11894e-19
-3.63322e-19
0.000352016
-4.54011e-19
-4.47563e-19
0.000359508
-3.79457e-19
-3.51158e-19
0.000367153
-4.14e-19
-4.06064e-19
0.000374955
-4.14697e-19
-4.41821e-19
0.000382915
-4.32337e-19
-4.68367e-19
0.000391037
-4.05084e-19
-4.8968e-19
0.000399325
-4.66288e-19
-5.02176e-19
0.00040778
-4.91501e-19
-5.24507e-19
0.000416407
-5.71206e-19
-4.89511e-19
0.000425208
-5.77469e-19
-4.43566e-19
0.000434187
-5.91475e-19
-4.80937e-19
0.000443346
-6.02933e-19
-5.46529e-19
0.00045269
-5.97599e-19
-5.8126e-19
0.000462221
-6.08227e-19
-6.01448e-19
0.000471942
-6.43594e-19
-5.46777e-19
0.000481858
-7.08107e-19
-6.19745e-19
0.000491971
-7.49897e-19
-6.47785e-19
0.000502285
-7.51285e-19
-6.44675e-19
0.000512803
-7.04333e-19
-6.66283e-19
0.000523529
-7.37024e-19
-6.10704e-19
0.000534466
-6.36782e-19
-7.01396e-19
0.000545617
-6.55616e-19
-7.68945e-19
0.000556987
-8.3784e-19
-6.88769e-19
0.000568578
-7.44497e-19
-6.70042e-19
0.000580393
-7.80073e-19
-7.03765e-19
0.000592437
-7.94042e-19
-6.9609e-19
0.000604713
-6.09815e-19
-6.65953e-19
0.000617223
-5.45636e-19
-5.59687e-19
0.000629972
-6.59326e-19
-5.26009e-19
0.000642961
-7.52625e-19
-5.78191e-19
0.000656196
-6.40679e-19
-6.60136e-19
0.000669677
-5.90002e-19
-6.81656e-19
0.000683409
-5.2878e-19
-5.41417e-19
0.000697394
-5.12248e-19
-5.09977e-19
0.000711634
-5.97157e-19
-4.79436e-19
0.000726132
-3.01692e-19
-4.44974e-19
0.00074089
-3.47628e-19
-4.74405e-19
0.00075591
-3.51392e-19
-3.62361e-19
0.000771194
-3.56224e-19
-4.07427e-19
0.000786742
-3.51531e-19
-4.70722e-19
0.000802555
-4.25047e-19
-5.09858e-19
0.000818634
-5.39136e-19
-6.18581e-19
0.000834978
-6.72579e-19
-5.37292e-19
0.000851588
-7.02702e-19
-5.4424e-19
0.00086846
-6.98422e-19
-6.03265e-19
0.000885595
-6.83412e-19
-5.87276e-19
0.000902987
-7.93354e-19
-6.38918e-19
0.000920635
-6.03882e-19
-7.48759e-19
0.000938533
-6.3029e-19
-7.5244e-19
0.000956677
-6.94288e-19
-7.86135e-19
0.000975059
-7.16213e-19
-7.78286e-19
0.000993673
-7.53294e-19
-6.88573e-19
0.00101251
-5.72381e-19
-7.3019e-19
0.00103156
-7.35317e-19
-6.61916e-19
0.00103156
-1.06592e-18
2.6515e-21
-8.43509e-19
2.07849e-20
0.00101251
-7.3012e-19
2.8805e-20
-8.47763e-19
1.90602e-20
0.000993673
-7.37482e-19
1.86445e-20
-6.63404e-19
1.97406e-20
0.000975059
-7.17157e-19
-5.07597e-21
-6.87725e-19
1.74671e-20
0.000956677
-7.23221e-19
3.55536e-21
-6.28672e-19
3.03357e-21
0.000938533
-6.587e-19
-7.25131e-21
-6.91128e-19
1.11932e-20
0.000920635
-6.83728e-19
-7.41845e-21
-6.96908e-19
-2.0928e-21
0.000902987
-6.34796e-19
-1.10168e-21
-6.60906e-19
4.61614e-21
0.000885595
-5.83047e-19
-2.08845e-20
-7.34142e-19
-2.52062e-21
0.00086846
-7.13532e-19
-3.51057e-20
-7.84519e-19
-1.34264e-20
0.000851588
-7.49969e-19
-3.53524e-20
-5.40127e-19
-2.47617e-21
0.000834978
-7.02413e-19
-3.41257e-20
-5.80723e-19
-1.64087e-20
0.000818634
-6.1515e-19
-1.35339e-20
-6.52587e-19
-1.57047e-20
0.000802555
-6.11568e-19
-1.10859e-20
-4.7288e-19
-3.40762e-21
0.000786742
-5.89983e-19
-1.80356e-20
-5.63345e-19
-8.12436e-21
0.000771194
-5.97075e-19
-1.17999e-20
-5.22327e-19
-8.78066e-21
0.00075591
-4.23621e-19
-3.35869e-21
-4.87763e-19
-7.7858e-21
0.00074089
-3.75278e-19
-5.67511e-21
-4.10659e-19
-1.53232e-21
0.000726132
-4.30396e-19
-6.1374e-21
-3.46086e-19
-3.00366e-21
0.000711634
-4.91701e-19
6.11784e-21
-3.92575e-19
-6.53702e-21
0.000697394
-3.23976e-19
1.56175e-20
-4.68079e-19
-4.51615e-21
0.000683409
-3.8437e-19
1.31875e-20
-4.75923e-19
-5.74131e-21
0.000669677
-3.38278e-19
1.48139e-20
-4.10758e-19
-9.84853e-21
0.000656196
-4.0184e-19
1.6471e-20
-2.98326e-19
-7.53161e-21
0.000642961
-4.20212e-19
1.88694e-20
-2.85234e-19
-5.27196e-21
0.000629972
-2.4352e-19
2.16036e-20
-3.0641e-19
-2.25512e-21
0.000617223
-2.51001e-19
1.52588e-20
-3.10372e-19
-6.15631e-21
0.000604713
-2.29305e-19
1.14357e-20
-3.80262e-19
-7.06739e-21
0.000592437
-3.00865e-19
6.58849e-21
-3.62196e-19
-7.74932e-21
0.000580393
-3.73579e-19
4.06059e-21
-4.092e-19
-5.36579e-21
0.000568578
-3.73631e-19
4.88891e-21
-3.01375e-19
-3.02537e-21
0.000556987
-3.01323e-19
7.69909e-21
-3.10666e-19
-3.69203e-21
0.000545617
-2.34093e-19
7.34528e-21
-3.91604e-19
-5.56416e-21
0.000534466
-3.02927e-19
1.64856e-21
-3.44486e-19
-7.02638e-21
0.000523529
-4.21887e-19
-7.07259e-22
-3.92752e-19
-1.21141e-20
0.000512803
-3.89214e-19
3.19578e-21
-4.06497e-19
-1.2875e-20
0.000502285
-3.18688e-19
7.54527e-22
-3.73811e-19
-1.05631e-20
0.000491971
-4.1628e-19
-6.62423e-22
-3.81824e-19
-9.93425e-21
0.000481858
-4.44383e-19
7.86313e-22
-4.33371e-19
-8.08319e-21
0.000471942
-3.94401e-19
6.46738e-22
-4.25645e-19
-4.6551e-21
0.000462221
-4.30125e-19
2.12201e-22
-4.50396e-19
-3.11263e-21
0.00045269
-4.406e-19
-3.02735e-22
-3.99374e-19
-6.05301e-22
0.000443346
-3.41485e-19
-7.78332e-22
-3.74082e-19
-3.7654e-22
0.000434187
-3.36533e-19
-2.03785e-21
-4.27525e-19
-1.63126e-22
0.000425208
-3.56302e-19
-1.66301e-21
-3.26982e-19
3.32861e-21
0.000416407
-3.46653e-19
1.65122e-22
-3.21128e-19
3.05556e-21
0.00040778
-2.7632e-19
3.47706e-21
-3.27531e-19
9.3236e-22
0.000399325
-2.84091e-19
4.87052e-21
-3.27699e-19
3.05917e-21
0.000391037
-2.80074e-19
7.59234e-21
-3.37076e-19
4.20103e-21
0.000382915
-2.72937e-19
7.44387e-21
-3.54761e-19
4.56165e-21
0.000374955
-2.30269e-19
8.44038e-21
-2.63446e-19
6.36076e-21
0.000367153
-2.48424e-19
9.00036e-21
-1.70378e-19
6.39593e-21
0.000359508
-2.51411e-19
1.07283e-20
-1.87993e-19
3.9717e-21
0.000352016
-1.95909e-19
1.24641e-20
-1.92163e-19
1.72014e-21
0.000344674
-2.22524e-19
1.03881e-20
-1.72368e-19
1.03967e-22
0.000337479
-2.32763e-19
9.77374e-21
-1.64993e-19
-3.01903e-22
0.000330429
-1.54499e-19
9.5024e-21
-1.57363e-19
-4.74312e-22
0.000323521
-1.78606e-19
7.36429e-21
-1.98058e-19
-1.34068e-21
0.000316752
-1.44232e-19
5.80261e-21
-2.01053e-19
-1.33444e-21
0.00031012
-1.76201e-19
3.66094e-21
-1.60671e-19
-6.68288e-22
0.000303621
-1.83205e-19
2.47472e-21
-2.09753e-19
-7.63372e-22
0.000297254
-1.62253e-19
2.77945e-21
-1.70841e-19
-4.99026e-22
0.000291016
-1.52818e-19
2.25212e-21
-2.18034e-19
-3.57871e-22
0.000284904
-1.24591e-19
1.45727e-21
-1.72777e-19
1.99364e-22
0.000278916
-1.98344e-19