/*--------------------------------*- C++ -*----------------------------------*\
| =========                 |                                                 |
| \\      /  F ield         | OpenFOAM: The Open Source CFD Toolbox           |
|  \\    /   O peration     | Version:  2106                                  |
|   \\  /    A nd           | Website:  www.openfoam.com                      |
|    \\/     M anipulation  |                                                 |
\*---------------------------------------------------------------------------*/
FoamFile
{
    version     2.0;
    format      ascii;
    arch        "LSB;label=32;scalar=64";
    class       volSymmTensorField;
    location    "10060";
    object      turbulenceProperties:R;
}
// * * * * * * * * * * * * * * * * * * * * * * * * * * * * * * * * * * * * * //

dimensions      [0 2 -2 0 0 0 0];

internalField   nonuniform List<symmTensor> 
2000
(
(2.28036e-07 -1.50876e-11 -2.79243e-14 2.28036e-07 4.55818e-26 2.28036e-07)
(2.28036e-07 -1.50876e-11 -2.79243e-14 2.28036e-07 -4.42365e-30 2.28036e-07)
(3.94832e-08 -1.50486e-11 -8.40816e-14 3.94832e-08 6.46282e-27 3.94832e-08)
(3.94832e-08 -1.50486e-11 -8.40816e-14 3.94832e-08 -3.76117e-30 3.94832e-08)
(5.41169e-08 -6.10703e-11 -4.73443e-13 5.41169e-08 1.48426e-26 5.41169e-08)
(5.41169e-08 -6.10703e-11 -4.73443e-13 5.41169e-08 -1.19219e-29 5.41169e-08)
(1.68299e-07 -4.0439e-10 -3.19352e-12 1.68299e-07 1.37218e-25 1.68299e-07)
(1.68299e-07 -4.0439e-10 -3.19352e-12 1.68299e-07 -1.24254e-28 1.68299e-07)
(4.35042e-07 -1.85193e-09 -1.48979e-11 4.35042e-07 3.00724e-25 4.35042e-07)
(4.35042e-07 -1.85193e-09 -1.48979e-11 4.35042e-07 -5.01731e-28 4.35042e-07)
(9.34466e-07 -6.28951e-09 -5.15405e-11 9.34466e-07 1.28346e-24 9.34466e-07)
(9.34466e-07 -6.28951e-09 -5.15405e-11 9.34466e-07 -1.54933e-27 9.34466e-07)
(1.7641e-06 -1.73945e-08 -1.45202e-10 1.7641e-06 3.10877e-24 1.7641e-06)
(1.7641e-06 -1.73945e-08 -1.45202e-10 1.7641e-06 -3.6199e-27 1.7641e-06)
(3.03809e-06 -4.15656e-08 -3.53448e-10 3.03809e-06 7.65162e-24 3.03809e-06)
(3.03809e-06 -4.15656e-08 -3.53448e-10 3.03809e-06 -7.47405e-27 3.03809e-06)
(4.88787e-06 -8.91046e-08 -7.7183e-10 4.88787e-06 1.68171e-23 4.88787e-06)
(4.88787e-06 -8.91046e-08 -7.7183e-10 4.88787e-06 -8.98773e-27 4.88787e-06)
(7.46314e-06 -1.75687e-07 -1.5502e-09 7.46314e-06 3.38388e-23 7.46314e-06)
(7.46314e-06 -1.75687e-07 -1.5502e-09 7.46314e-06 9.49554e-27 7.46314e-06)
(1.09331e-05 -3.24157e-07 -2.9136e-09 1.09331e-05 6.3765e-23 1.09331e-05)
(1.09331e-05 -3.24157e-07 -2.9136e-09 1.09331e-05 4.92936e-26 1.09331e-05)
(1.54875e-05 -5.66683e-07 -5.18845e-09 1.54875e-05 1.13781e-22 1.54875e-05)
(1.54875e-05 -5.66683e-07 -5.18845e-09 1.54875e-05 1.3508e-25 1.54875e-05)
(2.13384e-05 -9.47299e-07 -8.83494e-09 2.13384e-05 1.93996e-22 2.13384e-05)
(2.13384e-05 -9.47299e-07 -8.83494e-09 2.13384e-05 3.31036e-25 2.13384e-05)
(2.87207e-05 -1.52483e-06 -1.44861e-08 2.87207e-05 3.18177e-22 2.87207e-05)
(2.87207e-05 -1.52483e-06 -1.44861e-08 2.87207e-05 7.27545e-25 2.87207e-05)
(3.78933e-05 -2.37621e-06 -2.29944e-08 3.78933e-05 5.04411e-22 3.78933e-05)
(3.78933e-05 -2.37621e-06 -2.29944e-08 3.78933e-05 1.55889e-24 3.78933e-05)
(4.91401e-05 -3.60007e-06 -3.54853e-08 4.91401e-05 7.76617e-22 4.91401e-05)
(4.91401e-05 -3.60007e-06 -3.54853e-08 4.91401e-05 2.56329e-24 4.91401e-05)
(6.27699e-05 -5.3206e-06 -5.3418e-08 6.27699e-05 1.1648e-21 6.27699e-05)
(6.27699e-05 -5.3206e-06 -5.3418e-08 6.27699e-05 4.33948e-24 6.27699e-05)
(7.91162e-05 -7.69138e-06 -7.86515e-08 7.91162e-05 1.70605e-21 7.91162e-05)
(7.91162e-05 -7.69138e-06 -7.86515e-08 7.91162e-05 6.89732e-24 7.91162e-05)
(9.85361e-05 -1.08989e-05 -1.13514e-07 9.85361e-05 2.44583e-21 9.85361e-05)
(9.85361e-05 -1.08989e-05 -1.13514e-07 9.85361e-05 1.22017e-23 9.85361e-05)
(0.000121408 -1.51657e-05 -1.60868e-07 0.000121408 3.4357e-21 0.000121408)
(0.000121408 -1.51657e-05 -1.60868e-07 0.000121408 2.20781e-23 0.000121408)
(0.000148128 -2.07521e-05 -2.24177e-07 0.000148128 4.72999e-21 0.000148128)
(0.000148128 -2.07521e-05 -2.24177e-07 0.000148128 2.92805e-23 0.000148128)
(0.000179105 -2.79564e-05 -3.07544e-07 0.000179105 6.39114e-21 0.000179105)
(0.000179105 -2.79564e-05 -3.07544e-07 0.000179105 3.9195e-23 0.000179105)
(0.000214754 -3.71129e-05 -4.15739e-07 0.000214754 8.48016e-21 0.000214754)
(0.000214754 -3.71129e-05 -4.15739e-07 0.000214754 5.90634e-23 0.000214754)
(0.000255488 -4.85868e-05 -5.54184e-07 0.000255488 1.10356e-20 0.000255488)
(0.000255488 -4.85868e-05 -5.54184e-07 0.000255488 9.53867e-23 0.000255488)
(0.000301705 -6.27658e-05 -7.28897e-07 0.000301705 1.41098e-20 0.000301705)
(0.000301705 -6.27658e-05 -7.28897e-07 0.000301705 1.49078e-22 0.000301705)
(0.000353777 -8.00479e-05 -9.46382e-07 0.000353777 1.77334e-20 0.000353777)
(0.000353777 -8.00479e-05 -9.46382e-07 0.000353777 2.18146e-22 0.000353777)
(0.000412036 -0.000100826 -1.21346e-06 0.000412036 2.18296e-20 0.000412036)
(0.000412036 -0.000100826 -1.21346e-06 0.000412036 3.19028e-22 0.000412036)
(0.000476757 -0.000125466 -1.53704e-06 0.000476757 2.63772e-20 0.000476757)
(0.000476757 -0.000125466 -1.53704e-06 0.000476757 4.39071e-22 0.000476757)
(0.000548144 -0.000154292 -1.92386e-06 0.000548144 3.13788e-20 0.000548144)
(0.000548144 -0.000154292 -1.92386e-06 0.000548144 5.5594e-22 0.000548144)
(0.000626314 -0.000187556 -2.38015e-06 0.000626314 3.65279e-20 0.000626314)
(0.000626314 -0.000187556 -2.38015e-06 0.000626314 7.57961e-22 0.000626314)
(0.000711284 -0.000225424 -2.91133e-06 0.000711284 4.16731e-20 0.000711284)
(0.000711284 -0.000225424 -2.91133e-06 0.000711284 1.04392e-21 0.000711284)
(0.000802962 -0.000267957 -3.52172e-06 0.000802962 4.66627e-20 0.000802962)
(0.000802962 -0.000267957 -3.52172e-06 0.000802962 1.33262e-21 0.000802962)
(0.000901139 -0.000315099 -4.21429e-06 0.000901139 5.11352e-20 0.000901139)
(0.000901139 -0.000315099 -4.21429e-06 0.000901139 1.64429e-21 0.000901139)
(0.00100549 -0.000366676 -4.99046e-06 0.00100549 5.48582e-20 0.00100549)
(0.00100549 -0.000366676 -4.99046e-06 0.00100549 2.12041e-21 0.00100549)
(0.00111559 -0.000422397 -5.8501e-06 0.00111559 5.75271e-20 0.00111559)
(0.00111559 -0.000422397 -5.8501e-06 0.00111559 2.74845e-21 0.00111559)
(0.00123091 -0.000481868 -6.79146e-06 0.00123091 5.9201e-20 0.00123091)
(0.00123091 -0.000481868 -6.79146e-06 0.00123091 3.44796e-21 0.00123091)
(0.00135081 -0.000544606 -7.81138e-06 0.00135081 5.96083e-20 0.00135081)
(0.00135081 -0.000544606 -7.81138e-06 0.00135081 4.27201e-21 0.00135081)
(0.00147463 -0.000610068 -8.90546e-06 0.00147463 5.86018e-20 0.00147463)
(0.00147463 -0.000610068 -8.90546e-06 0.00147463 5.19435e-21 0.00147463)
(0.00160164 -0.000677671 -1.00683e-05 0.00160164 5.64806e-20 0.00160164)
(0.00160164 -0.000677671 -1.00683e-05 0.00160164 6.53065e-21 0.00160164)
(0.00173108 -0.000746818 -1.12939e-05 0.00173108 5.3168e-20 0.00173108)
(0.00173108 -0.000746818 -1.12939e-05 0.00173108 7.96205e-21 0.00173108)
(0.0018622 -0.000816922 -1.25757e-05 0.0018622 4.86622e-20 0.0018622)
(0.0018622 -0.000816922 -1.25757e-05 0.0018622 9.13111e-21 0.0018622)
(0.00199428 -0.000887422 -1.39072e-05 0.00199428 4.37455e-20 0.00199428)
(0.00199428 -0.000887422 -1.39072e-05 0.00199428 1.13727e-20 0.00199428)
(0.0021266 -0.000957802 -1.5282e-05 0.0021266 3.85599e-20 0.0021266)
(0.0021266 -0.000957802 -1.5282e-05 0.0021266 1.4536e-20 0.0021266)
(0.00225852 -0.0010276 -1.66939e-05 0.00225852 3.2084e-20 0.00225852)
(0.00225852 -0.0010276 -1.66939e-05 0.00225852 1.73438e-20 0.00225852)
(0.00238944 -0.00109642 -1.81371e-05 0.00238944 2.76766e-20 0.00238944)
(0.00238944 -0.00109642 -1.81371e-05 0.00238944 1.95278e-20 0.00238944)
(0.00251882 -0.0011639 -1.96066e-05 0.00251882 2.28328e-20 0.00251882)
(0.00251882 -0.0011639 -1.96066e-05 0.00251882 2.08696e-20 0.00251882)
(0.0026462 -0.00122979 -2.10977e-05 0.0026462 1.79974e-20 0.0026462)
(0.0026462 -0.00122979 -2.10977e-05 0.0026462 2.315e-20 0.0026462)
(0.00277118 -0.00129384 -2.26066e-05 0.00277118 1.39048e-20 0.00277118)
(0.00277118 -0.00129384 -2.26066e-05 0.00277118 2.57884e-20 0.00277118)
(0.00289342 -0.0013559 -2.41297e-05 0.00289342 1.16028e-20 0.00289342)
(0.00289342 -0.0013559 -2.41297e-05 0.00289342 2.8084e-20 0.00289342)
(0.00301264 -0.00141585 -2.56645e-05 0.00301264 1.10127e-20 0.00301264)
(0.00301264 -0.00141585 -2.56645e-05 0.00301264 3.33258e-20 0.00301264)
(0.00312863 -0.00147359 -2.72085e-05 0.00312863 1.29692e-20 0.00312863)
(0.00312863 -0.00147359 -2.72085e-05 0.00312863 3.87194e-20 0.00312863)
(0.00324123 -0.0015291 -2.87601e-05 0.00324123 1.47457e-20 0.00324123)
(0.00324123 -0.0015291 -2.87601e-05 0.00324123 3.99687e-20 0.00324123)
(0.00335031 -0.00158235 -3.03179e-05 0.00335031 1.80963e-20 0.00335031)
(0.00335031 -0.00158235 -3.03179e-05 0.00335031 4.44835e-20 0.00335031)
(0.0034558 -0.00163334 -3.1881e-05 0.0034558 2.34604e-20 0.0034558)
(0.0034558 -0.00163334 -3.1881e-05 0.0034558 5.20863e-20 0.0034558)
(0.00355766 -0.00168212 -3.34486e-05 0.00355766 2.95426e-20 0.00355766)
(0.00355766 -0.00168212 -3.34486e-05 0.00355766 5.71372e-20 0.00355766)
(0.00365588 -0.00172873 -3.50205e-05 0.00365588 3.656e-20 0.00365588)
(0.00365588 -0.00172873 -3.50205e-05 0.00365588 6.234e-20 0.00365588)
(0.00375048 -0.00177321 -3.65964e-05 0.00375048 3.80443e-20 0.00375048)
(0.00375048 -0.00177321 -3.65964e-05 0.00375048 6.82349e-20 0.00375048)
(0.00384148 -0.00181564 -3.81766e-05 0.00384148 4.68285e-20 0.00384148)
(0.00384148 -0.00181564 -3.81766e-05 0.00384148 7.57041e-20 0.00384148)
(0.00392896 -0.00185609 -3.97612e-05 0.00392896 6.10332e-20 0.00392896)
(0.00392896 -0.00185609 -3.97612e-05 0.00392896 8.88865e-20 0.00392896)
(0.00401297 -0.00189462 -4.13505e-05 0.00401297 7.23669e-20 0.00401297)
(0.00401297 -0.00189462 -4.13505e-05 0.00401297 1.06572e-19 0.00401297)
(0.0040936 -0.00193132 -4.29452e-05 0.0040936 8.326e-20 0.0040936)
(0.0040936 -0.00193132 -4.29452e-05 0.0040936 1.17444e-19 0.0040936)
(0.00417095 -0.00196626 -4.45457e-05 0.00417095 9.53917e-20 0.00417095)
(0.00417095 -0.00196626 -4.45457e-05 0.00417095 1.171e-19 0.00417095)
(0.00424509 -0.00199952 -4.61527e-05 0.00424509 1.15474e-19 0.00424509)
(0.00424509 -0.00199952 -4.61527e-05 0.00424509 1.14438e-19 0.00424509)
(0.00431614 -0.00203117 -4.77668e-05 0.00431614 1.36525e-19 0.00431614)
(0.00431614 -0.00203117 -4.77668e-05 0.00431614 1.28431e-19 0.00431614)
(0.00438419 -0.0020613 -4.93889e-05 0.00438419 1.51747e-19 0.00438419)
(0.00438419 -0.0020613 -4.93889e-05 0.00438419 1.44794e-19 0.00438419)
(0.00444936 -0.00208997 -5.10196e-05 0.00444936 1.72262e-19 0.00444936)
(0.00444936 -0.00208997 -5.10196e-05 0.00444936 1.60086e-19 0.00444936)
(0.00451174 -0.00211725 -5.26598e-05 0.00451174 2.0188e-19 0.00451174)
(0.00451174 -0.00211725 -5.26598e-05 0.00451174 1.80147e-19 0.00451174)
(0.00457144 -0.00214321 -5.43102e-05 0.00457144 2.26737e-19 0.00457144)
(0.00457144 -0.00214321 -5.43102e-05 0.00457144 1.86604e-19 0.00457144)
(0.00462856 -0.00216791 -5.59717e-05 0.00462856 2.38362e-19 0.00462856)
(0.00462856 -0.00216791 -5.59717e-05 0.00462856 2.0308e-19 0.00462856)
(0.0046832 -0.00219143 -5.7645e-05 0.0046832 2.60586e-19 0.0046832)
(0.0046832 -0.00219143 -5.7645e-05 0.0046832 2.29321e-19 0.0046832)
(0.00473546 -0.0022138 -5.9331e-05 0.00473546 2.94725e-19 0.00473546)
(0.00473546 -0.0022138 -5.9331e-05 0.00473546 2.38276e-19 0.00473546)
(0.00478544 -0.0022351 -6.10304e-05 0.00478544 3.33228e-19 0.00478544)
(0.00478544 -0.0022351 -6.10304e-05 0.00478544 2.47804e-19 0.00478544)
(0.00483323 -0.00225537 -6.27441e-05 0.00483323 3.47566e-19 0.00483323)
(0.00483323 -0.00225537 -6.27441e-05 0.00483323 2.79056e-19 0.00483323)
(0.00487891 -0.00227467 -6.44729e-05 0.00487891 3.61202e-19 0.00487891)
(0.00487891 -0.00227467 -6.44729e-05 0.00487891 3.14931e-19 0.00487891)
(0.00492258 -0.00229304 -6.62176e-05 0.00492258 3.9623e-19 0.00492258)
(0.00492258 -0.00229304 -6.62176e-05 0.00492258 3.30331e-19 0.00492258)
(0.00496431 -0.00231052 -6.79789e-05 0.00496431 4.1686e-19 0.00496431)
(0.00496431 -0.00231052 -6.79789e-05 0.00496431 3.43838e-19 0.00496431)
(0.00500418 -0.00232716 -6.97576e-05 0.00500418 4.50803e-19 0.00500418)
(0.00500418 -0.00232716 -6.97576e-05 0.00500418 3.7908e-19 0.00500418)
(0.00504228 -0.00234299 -7.15544e-05 0.00504228 5.01091e-19 0.00504228)
(0.00504228 -0.00234299 -7.15544e-05 0.00504228 4.11503e-19 0.00504228)
(0.00507867 -0.00235807 -7.33702e-05 0.00507867 5.40989e-19 0.00507867)
(0.00507867 -0.00235807 -7.33702e-05 0.00507867 4.52492e-19 0.00507867)
(0.00511343 -0.00237241 -7.52056e-05 0.00511343 5.69689e-19 0.00511343)
(0.00511343 -0.00237241 -7.52056e-05 0.00511343 4.79481e-19 0.00511343)
(0.00514661 -0.00238606 -7.70615e-05 0.00514661 5.88687e-19 0.00514661)
(0.00514661 -0.00238606 -7.70615e-05 0.00514661 5.02232e-19 0.00514661)
(0.00517829 -0.00239905 -7.89384e-05 0.00517829 6.26938e-19 0.00517829)
(0.00517829 -0.00239905 -7.89384e-05 0.00517829 5.23948e-19 0.00517829)
(0.00520852 -0.0024114 -8.08372e-05 0.00520852 7.10855e-19 0.00520852)
(0.00520852 -0.0024114 -8.08372e-05 0.00520852 5.79494e-19 0.00520852)
(0.00523736 -0.00242314 -8.27585e-05 0.00523736 7.55018e-19 0.00523736)
(0.00523736 -0.00242314 -8.27585e-05 0.00523736 6.40798e-19 0.00523736)
(0.00526486 -0.00243431 -8.47031e-05 0.00526486 7.40339e-19 0.00526486)
(0.00526486 -0.00243431 -8.47031e-05 0.00526486 6.72364e-19 0.00526486)
(0.00529108 -0.00244491 -8.66715e-05 0.00529108 7.69219e-19 0.00529108)
(0.00529108 -0.00244491 -8.66715e-05 0.00529108 7.16967e-19 0.00529108)
(0.00531606 -0.00245499 -8.86646e-05 0.00531606 7.88231e-19 0.00531606)
(0.00531606 -0.00245499 -8.86646e-05 0.00531606 8.12533e-19 0.00531606)
(0.00533986 -0.00246456 -9.06829e-05 0.00533986 8.36564e-19 0.00533986)
(0.00533986 -0.00246456 -9.06829e-05 0.00533986 8.34165e-19 0.00533986)
(0.00536251 -0.00247364 -9.27272e-05 0.00536251 9.61455e-19 0.00536251)
(0.00536251 -0.00247364 -9.27272e-05 0.00536251 7.69073e-19 0.00536251)
(0.00538406 -0.00248224 -9.47981e-05 0.00538406 1.04672e-18 0.00538406)
(0.00538406 -0.00248224 -9.47981e-05 0.00538406 8.5028e-19 0.00538406)
(0.00540454 -0.0024904 -9.68962e-05 0.00540454 1.04356e-18 0.00540454)
(0.00540454 -0.0024904 -9.68962e-05 0.00540454 9.86151e-19 0.00540454)
(0.00542401 -0.00249812 -9.90222e-05 0.00542401 1.06564e-18 0.00542401)
(0.00542401 -0.00249812 -9.90222e-05 0.00542401 1.04858e-18 0.00542401)
(0.00544248 -0.00250543 -0.000101177 0.00544248 1.13741e-18 0.00544248)
(0.00544248 -0.00250543 -0.000101177 0.00544248 1.17667e-18 0.00544248)
(0.00546001 -0.00251233 -0.00010336 0.00546001 1.22061e-18 0.00546001)
(0.00546001 -0.00251233 -0.00010336 0.00546001 1.26997e-18 0.00546001)
(0.00547661 -0.00251884 -0.000105574 0.00547661 1.33768e-18 0.00547661)
(0.00547661 -0.00251884 -0.000105574 0.00547661 1.27099e-18 0.00547661)
(0.00549232 -0.00252498 -0.000107818 0.00549232 1.35625e-18 0.00549232)
(0.00549232 -0.00252498 -0.000107818 0.00549232 1.34507e-18 0.00549232)
(0.00550716 -0.00253076 -0.000110093 0.00550716 1.34106e-18 0.00550716)
(0.00550716 -0.00253076 -0.000110093 0.00550716 1.48813e-18 0.00550716)
(0.00552117 -0.00253619 -0.000112399 0.00552117 1.32591e-18 0.00552117)
(0.00552117 -0.00253619 -0.000112399 0.00552117 1.63237e-18 0.00552117)
(0.00553438 -0.00254128 -0.000114738 0.00553438 1.355e-18 0.00553438)
(0.00553438 -0.00254128 -0.000114738 0.00553438 1.77566e-18 0.00553438)
(0.0055468 -0.00254604 -0.00011711 0.0055468 1.39275e-18 0.0055468)
(0.0055468 -0.00254604 -0.00011711 0.0055468 1.91123e-18 0.0055468)
(0.00555846 -0.00255048 -0.000119515 0.00555846 1.53185e-18 0.00555846)
(0.00555846 -0.00255048 -0.000119515 0.00555846 1.84501e-18 0.00555846)
(0.00556938 -0.00255461 -0.000121954 0.00556938 1.67395e-18 0.00556938)
(0.00556938 -0.00255461 -0.000121954 0.00556938 1.88489e-18 0.00556938)
(0.00557958 -0.00255845 -0.000124428 0.00557958 1.70003e-18 0.00557958)
(0.00557958 -0.00255845 -0.000124428 0.00557958 2.10497e-18 0.00557958)
(0.00558909 -0.00256199 -0.000126937 0.00558909 1.78322e-18 0.00558909)
(0.00558909 -0.00256199 -0.000126937 0.00558909 2.14283e-18 0.00558909)
(0.00559792 -0.00256525 -0.000129481 0.00559792 1.89202e-18 0.00559792)
(0.00559792 -0.00256525 -0.000129481 0.00559792 2.17799e-18 0.00559792)
(0.00560608 -0.00256824 -0.000132062 0.00560608 2.01927e-18 0.00560608)
(0.00560608 -0.00256824 -0.000132062 0.00560608 2.31585e-18 0.00560608)
(0.00561361 -0.00257095 -0.00013468 0.00561361 2.11871e-18 0.00561361)
(0.00561361 -0.00257095 -0.00013468 0.00561361 2.41427e-18 0.00561361)
(0.0056205 -0.0025734 -0.000137336 0.0056205 2.21721e-18 0.0056205)
(0.0056205 -0.0025734 -0.000137336 0.0056205 2.57496e-18 0.0056205)
(0.00562678 -0.0025756 -0.000140029 0.00562678 2.38284e-18 0.00562678)
(0.00562678 -0.0025756 -0.000140029 0.00562678 2.55081e-18 0.00562678)
(0.00563246 -0.00257754 -0.000142761 0.00563246 2.52496e-18 0.00563246)
(0.00563246 -0.00257754 -0.000142761 0.00563246 2.71837e-18 0.00563246)
(0.00563755 -0.00257924 -0.000145532 0.00563755 2.61558e-18 0.00563755)
(0.00563755 -0.00257924 -0.000145532 0.00563755 2.89228e-18 0.00563755)
(0.00564207 -0.0025807 -0.000148343 0.00564207 2.63781e-18 0.00564207)
(0.00564207 -0.0025807 -0.000148343 0.00564207 2.89988e-18 0.00564207)
(0.00564603 -0.00258192 -0.000151194 0.00564603 2.71195e-18 0.00564603)
(0.00564603 -0.00258192 -0.000151194 0.00564603 2.88968e-18 0.00564603)
(0.00564944 -0.00258291 -0.000154085 0.00564944 2.80739e-18 0.00564944)
(0.00564944 -0.00258291 -0.000154085 0.00564944 3.13065e-18 0.00564944)
(0.0056523 -0.00258367 -0.000157018 0.0056523 2.87588e-18 0.0056523)
(0.0056523 -0.00258367 -0.000157018 0.0056523 3.36588e-18 0.0056523)
(0.00565464 -0.0025842 -0.000159992 0.00565464 2.9797e-18 0.00565464)
(0.00565464 -0.0025842 -0.000159992 0.00565464 3.43687e-18 0.00565464)
(0.00565645 -0.00258452 -0.000163009 0.00565645 3.16595e-18 0.00565645)
(0.00565645 -0.00258452 -0.000163009 0.00565645 3.47997e-18 0.00565645)
(0.00565775 -0.00258462 -0.000166068 0.00565775 3.24454e-18 0.00565775)
(0.00565775 -0.00258462 -0.000166068 0.00565775 3.8423e-18 0.00565775)
(0.00565855 -0.0025845 -0.00016917 0.00565855 3.49588e-18 0.00565855)
(0.00565855 -0.0025845 -0.00016917 0.00565855 4.07354e-18 0.00565855)
(0.00565885 -0.00258417 -0.000172316 0.00565885 3.83171e-18 0.00565885)
(0.00565885 -0.00258417 -0.000172316 0.00565885 4.13982e-18 0.00565885)
(0.00565866 -0.00258363 -0.000175506 0.00565866 3.85501e-18 0.00565866)
(0.00565866 -0.00258363 -0.000175506 0.00565866 4.35883e-18 0.00565866)
(0.00565798 -0.00258289 -0.00017874 0.00565798 4.11357e-18 0.00565798)
(0.00565798 -0.00258289 -0.00017874 0.00565798 4.55923e-18 0.00565798)
(0.00565683 -0.00258193 -0.000182019 0.00565683 4.38909e-18 0.00565683)
(0.00565683 -0.00258193 -0.000182019 0.00565683 4.72742e-18 0.00565683)
(0.00565521 -0.00258078 -0.000185344 0.00565521 4.41763e-18 0.00565521)
(0.00565521 -0.00258078 -0.000185344 0.00565521 5.01025e-18 0.00565521)
(0.00565312 -0.00257942 -0.000188714 0.00565312 4.58216e-18 0.00565312)
(0.00565312 -0.00257942 -0.000188714 0.00565312 5.20671e-18 0.00565312)
(0.00565056 -0.00257786 -0.00019213 0.00565056 4.75383e-18 0.00565056)
(0.00565056 -0.00257786 -0.00019213 0.00565056 5.66787e-18 0.00565056)
(0.00564755 -0.00257611 -0.000195592 0.00564755 4.92391e-18 0.00564755)
(0.00564755 -0.00257611 -0.000195592 0.00564755 6.04922e-18 0.00564755)
(0.00564409 -0.00257415 -0.000199101 0.00564409 5.15401e-18 0.00564409)
(0.00564409 -0.00257415 -0.000199101 0.00564409 6.34712e-18 0.00564409)
(0.00564018 -0.002572 -0.000202657 0.00564018 5.44509e-18 0.00564018)
(0.00564018 -0.002572 -0.000202657 0.00564018 6.70338e-18 0.00564018)
(0.00563582 -0.00256965 -0.000206261 0.00563582 5.53176e-18 0.00563582)
(0.00563582 -0.00256965 -0.000206261 0.00563582 7.06187e-18 0.00563582)
(0.00563102 -0.0025671 -0.000209912 0.00563102 5.37706e-18 0.00563102)
(0.00563102 -0.0025671 -0.000209912 0.00563102 7.24721e-18 0.00563102)
(0.00562577 -0.00256436 -0.000213611 0.00562577 5.87665e-18 0.00562577)
(0.00562577 -0.00256436 -0.000213611 0.00562577 6.80401e-18 0.00562577)
(0.00562009 -0.00256142 -0.000217358 0.00562009 5.52452e-18 0.00562009)
(0.00562009 -0.00256142 -0.000217358 0.00562009 8.04515e-18 0.00562009)
(0.00561397 -0.00255829 -0.000221154 0.00561397 2.26151e-18 0.00561397)
(0.00561397 -0.00255829 -0.000221154 0.00561397 8.93727e-18 0.00561397)
(0.00560742 -0.00255496 -0.000224997 0.00560742 6.98396e-19 0.00560742)
(0.00560742 -0.00255496 -0.000224997 0.00560742 8.5432e-18 0.00560742)
(0.00560043 -0.00255144 -0.00022889 0.00560043 -8.25623e-19 0.00560043)
(0.00560043 -0.00255144 -0.00022889 0.00560043 7.96056e-18 0.00560043)
(0.00559301 -0.00254772 -0.000232831 0.00559301 -1.83807e-18 0.00559301)
(0.00559301 -0.00254772 -0.000232831 0.00559301 8.96818e-18 0.00559301)
(0.00558516 -0.00254381 -0.000236821 0.00558516 -2.40777e-18 0.00558516)
(0.00558516 -0.00254381 -0.000236821 0.00558516 9.29052e-18 0.00558516)
(0.00557688 -0.0025397 -0.000240861 0.00557688 -3.49205e-18 0.00557688)
(0.00557688 -0.0025397 -0.000240861 0.00557688 9.47226e-18 0.00557688)
(0.00556817 -0.00253539 -0.000244949 0.00556817 -4.62469e-18 0.00556817)
(0.00556817 -0.00253539 -0.000244949 0.00556817 9.93512e-18 0.00556817)
(0.00555903 -0.00253088 -0.000249085 0.00555903 -5.13793e-18 0.00555903)
(0.00555903 -0.00253088 -0.000249085 0.00555903 1.01496e-17 0.00555903)
(0.00554946 -0.00252618 -0.000253271 0.00554946 -4.97759e-18 0.00554946)
(0.00554946 -0.00252618 -0.000253271 0.00554946 9.97404e-18 0.00554946)
(0.00553946 -0.00252127 -0.000257506 0.00553946 -5.34347e-18 0.00553946)
(0.00553946 -0.00252127 -0.000257506 0.00553946 1.10332e-17 0.00553946)
(0.00552903 -0.00251616 -0.000261789 0.00552903 -5.09195e-18 0.00552903)
(0.00552903 -0.00251616 -0.000261789 0.00552903 1.13243e-17 0.00552903)
(0.00551817 -0.00251086 -0.000266121 0.00551817 -5.1028e-18 0.00551817)
(0.00551817 -0.00251086 -0.000266121 0.00551817 1.15769e-17 0.00551817)
(0.00550687 -0.00250534 -0.0002705 0.00550687 -4.95407e-18 0.00550687)
(0.00550687 -0.00250534 -0.0002705 0.00550687 1.19854e-17 0.00550687)
(0.00549514 -0.00249963 -0.000274928 0.00549514 -5.03714e-18 0.00549514)
(0.00549514 -0.00249963 -0.000274928 0.00549514 1.28342e-17 0.00549514)
(0.00548297 -0.0024937 -0.000279404 0.00548297 -6.2472e-18 0.00548297)
(0.00548297 -0.0024937 -0.000279404 0.00548297 1.34944e-17 0.00548297)
(0.00547037 -0.00248757 -0.000283926 0.00547037 -5.33391e-18 0.00547037)
(0.00547037 -0.00248757 -0.000283926 0.00547037 1.34544e-17 0.00547037)
(0.00545733 -0.00248123 -0.000288495 0.00545733 -6.28802e-18 0.00545733)
(0.00545733 -0.00248123 -0.000288495 0.00545733 1.45185e-17 0.00545733)
(0.00544384 -0.00247468 -0.000293111 0.00544384 -7.79067e-18 0.00544384)
(0.00544384 -0.00247468 -0.000293111 0.00544384 1.54384e-17 0.00544384)
(0.00542992 -0.00246791 -0.000297772 0.00542992 -2.90786e-18 0.00542992)
(0.00542992 -0.00246791 -0.000297772 0.00542992 1.53369e-17 0.00542992)
(0.00541555 -0.00246093 -0.000302478 0.00541555 7.96374e-19 0.00541555)
(0.00541555 -0.00246093 -0.000302478 0.00541555 1.57022e-17 0.00541555)
(0.00540073 -0.00245372 -0.000307229 0.00540073 -1.20454e-18 0.00540073)
(0.00540073 -0.00245372 -0.000307229 0.00540073 1.67761e-17 0.00540073)
(0.00538546 -0.0024463 -0.000312023 0.00538546 6.62453e-19 0.00538546)
(0.00538546 -0.0024463 -0.000312023 0.00538546 1.71096e-17 0.00538546)
(0.00536973 -0.00243866 -0.00031686 0.00536973 1.78064e-18 0.00536973)
(0.00536973 -0.00243866 -0.00031686 0.00536973 1.82288e-17 0.00536973)
(0.00535355 -0.00243079 -0.000321738 0.00535355 1.06381e-18 0.00535355)
(0.00535355 -0.00243079 -0.000321738 0.00535355 1.9849e-17 0.00535355)
(0.00533691 -0.00242269 -0.000326657 0.00533691 6.07394e-19 0.00533691)
(0.00533691 -0.00242269 -0.000326657 0.00533691 2.05717e-17 0.00533691)
(0.00531981 -0.00241437 -0.000331616 0.00531981 -1.42597e-19 0.00531981)
(0.00531981 -0.00241437 -0.000331616 0.00531981 2.14871e-17 0.00531981)
(0.00530223 -0.00240581 -0.000336613 0.00530223 -7.16912e-19 0.00530223)
(0.00530223 -0.00240581 -0.000336613 0.00530223 2.18079e-17 0.00530223)
(0.00528419 -0.00239702 -0.000341647 0.00528419 -9.25275e-19 0.00528419)
(0.00528419 -0.00239702 -0.000341647 0.00528419 1.91936e-17 0.00528419)
(0.00526567 -0.00238798 -0.000346716 0.00526567 -1.64365e-18 0.00526567)
(0.00526567 -0.00238798 -0.000346716 0.00526567 1.80067e-17 0.00526567)
(0.00524667 -0.00237871 -0.00035182 0.00524667 -1.62146e-18 0.00524667)
(0.00524667 -0.00237871 -0.00035182 0.00524667 2.1562e-17 0.00524667)
(0.00522719 -0.00236919 -0.000356956 0.00522719 -1.321e-18 0.00522719)
(0.00522719 -0.00236919 -0.000356956 0.00522719 2.37009e-17 0.00522719)
(0.00520722 -0.00235942 -0.000362123 0.00520722 -2.90298e-18 0.00520722)
(0.00520722 -0.00235942 -0.000362123 0.00520722 2.44414e-17 0.00520722)
(0.00518676 -0.0023494 -0.000367319 0.00518676 -5.01673e-18 0.00518676)
(0.00518676 -0.0023494 -0.000367319 0.00518676 2.85422e-17 0.00518676)
(0.0051658 -0.00233913 -0.000372541 0.0051658 -5.99184e-18 0.0051658)
(0.0051658 -0.00233913 -0.000372541 0.0051658 2.89484e-17 0.0051658)
(0.00514434 -0.0023286 -0.000377788 0.00514434 -4.79339e-18 0.00514434)
(0.00514434 -0.0023286 -0.000377788 0.00514434 2.64103e-17 0.00514434)
(0.00512237 -0.00231781 -0.000383057 0.00512237 -2.74606e-18 0.00512237)
(0.00512237 -0.00231781 -0.000383057 0.00512237 2.60165e-17 0.00512237)
(0.00509989 -0.00230675 -0.000388347 0.00509989 -1.60649e-18 0.00509989)
(0.00509989 -0.00230675 -0.000388347 0.00509989 2.77362e-17 0.00509989)
(0.00507689 -0.00229543 -0.000393653 0.00507689 -1.2427e-18 0.00507689)
(0.00507689 -0.00229543 -0.000393653 0.00507689 3.1546e-17 0.00507689)
(0.00505336 -0.00228383 -0.000398975 0.00505336 2.7783e-19 0.00505336)
(0.00505336 -0.00228383 -0.000398975 0.00505336 3.3289e-17 0.00505336)
(0.00502931 -0.00227195 -0.000404308 0.00502931 -2.84774e-18 0.00502931)
(0.00502931 -0.00227195 -0.000404308 0.00502931 3.44068e-17 0.00502931)
(0.00500472 -0.0022598 -0.000409649 0.00500472 -1.72089e-18 0.00500472)
(0.00500472 -0.0022598 -0.000409649 0.00500472 3.49071e-17 0.00500472)
(0.00497959 -0.00224736 -0.000414996 0.00497959 3.5342e-19 0.00497959)
(0.00497959 -0.00224736 -0.000414996 0.00497959 3.49092e-17 0.00497959)
(0.00495391 -0.00223463 -0.000420345 0.00495391 -5.56812e-19 0.00495391)
(0.00495391 -0.00223463 -0.000420345 0.00495391 3.47515e-17 0.00495391)
(0.00492767 -0.0022216 -0.000425692 0.00492767 1.10132e-18 0.00492767)
(0.00492767 -0.0022216 -0.000425692 0.00492767 3.63098e-17 0.00492767)
(0.00490088 -0.00220828 -0.000431033 0.00490088 3.17786e-18 0.00490088)
(0.00490088 -0.00220828 -0.000431033 0.00490088 3.59492e-17 0.00490088)
(0.00487352 -0.00219466 -0.000436365 0.00487352 -1.30252e-32 0.00487352)
(0.00487352 -0.00219466 -0.000436365 0.00487352 3.76393e-17 0.00487352)
(0.00484559 -0.00218073 -0.000441682 0.00484559 1.44639e-19 0.00484559)
(0.00484559 -0.00218073 -0.000441682 0.00484559 4.17218e-17 0.00484559)
(0.00481707 -0.00216649 -0.000446981 0.00481707 6.73202e-18 0.00481707)
(0.00481707 -0.00216649 -0.000446981 0.00481707 4.45038e-17 0.00481707)
(0.00478797 -0.00215193 -0.000452257 0.00478797 1.22663e-17 0.00478797)
(0.00478797 -0.00215193 -0.000452257 0.00478797 4.63559e-17 0.00478797)
(0.00475827 -0.00213704 -0.000457504 0.00475827 1.35521e-17 0.00475827)
(0.00475827 -0.00213704 -0.000457504 0.00475827 4.13816e-17 0.00475827)
(0.00472798 -0.00212184 -0.000462717 0.00472798 9.18638e-18 0.00472798)
(0.00472798 -0.00212184 -0.000462717 0.00472798 3.2589e-17 0.00472798)
(0.00469707 -0.0021063 -0.00046789 0.00469707 3.59403e-19 0.00469707)
(0.00469707 -0.0021063 -0.00046789 0.00469707 3.21667e-17 0.00469707)
(0.00466555 -0.00209042 -0.000473019 0.00466555 1.97743e-18 0.00466555)
(0.00466555 -0.00209042 -0.000473019 0.00466555 3.2962e-17 0.00466555)
(0.0046334 -0.0020742 -0.000478096 0.0046334 3.62397e-18 0.0046334)
(0.0046334 -0.0020742 -0.000478096 0.0046334 2.91794e-17 0.0046334)
(0.00460062 -0.00205763 -0.000483114 0.00460062 1.29478e-18 0.00460062)
(0.00460062 -0.00205763 -0.000483114 0.00460062 2.80579e-17 0.00460062)
(0.0045672 -0.00204071 -0.000488068 0.0045672 3.65721e-18 0.0045672)
(0.0045672 -0.00204071 -0.000488068 0.0045672 1.89894e-17 0.0045672)
(0.00453314 -0.00202343 -0.00049295 0.00453314 4.17556e-18 0.00453314)
(0.00453314 -0.00202343 -0.00049295 0.00453314 1.48397e-17 0.00453314)
(0.00449842 -0.00200578 -0.000497752 0.00449842 4.34022e-18 0.00449842)
(0.00449842 -0.00200578 -0.000497752 0.00449842 1.65733e-17 0.00449842)
(0.00446304 -0.00198776 -0.000502466 0.00446304 5.46103e-18 0.00446304)
(0.00446304 -0.00198776 -0.000502466 0.00446304 1.17704e-17 0.00446304)
(0.00442699 -0.00196936 -0.000507085 0.00442699 4.28954e-18 0.00442699)
(0.00442699 -0.00196936 -0.000507085 0.00442699 8.81469e-18 0.00442699)
(0.00439027 -0.00195058 -0.000511599 0.00439027 1.19559e-18 0.00439027)
(0.00439027 -0.00195058 -0.000511599 0.00439027 1.01608e-17 0.00439027)
(0.00435286 -0.00193141 -0.000515999 0.00435286 5.41545e-18 0.00435286)
(0.00435286 -0.00193141 -0.000515999 0.00435286 1.02462e-17 0.00435286)
(0.00431475 -0.00191185 -0.000520276 0.00431475 6.01845e-18 0.00431475)
(0.00431475 -0.00191185 -0.000520276 0.00431475 8.13711e-18 0.00431475)
(0.00427595 -0.00189188 -0.000524419 0.00427595 8.30675e-18 0.00427595)
(0.00427595 -0.00189188 -0.000524419 0.00427595 6.99382e-18 0.00427595)
(0.00423644 -0.0018715 -0.000528418 0.00423644 1.2827e-17 0.00423644)
(0.00423644 -0.0018715 -0.000528418 0.00423644 2.87931e-18 0.00423644)
(0.00419622 -0.0018507 -0.000532262 0.00419622 7.94523e-18 0.00419622)
(0.00419622 -0.0018507 -0.000532262 0.00419622 9.57587e-18 0.00419622)
(0.00415528 -0.00182948 -0.00053594 0.00415528 9.53495e-18 0.00415528)
(0.00415528 -0.00182948 -0.00053594 0.00415528 7.70802e-18 0.00415528)
(0.00411361 -0.00180783 -0.000539439 0.00411361 1.02324e-18 0.00411361)
(0.00411361 -0.00180783 -0.000539439 0.00411361 1.53774e-17 0.00411361)