/*--------------------------------*- C++ -*----------------------------------*\
| =========                 |                                                 |
| \\      /  F ield         | OpenFOAM: The Open Source CFD Toolbox           |
|  \\    /   O peration     | Version:  2106                                  |
|   \\  /    A nd           | Website:  www.openfoam.com                      |
|    \\/     M anipulation  |                                                 |
\*---------------------------------------------------------------------------*/
FoamFile
{
    version     2.0;
    format      ascii;
    arch        "LSB;label=32;scalar=64";
    class       volVectorField;
    location    "10060";
    object      U;
}
// * * * * * * * * * * * * * * * * * * * * * * * * * * * * * * * * * * * * * //

dimensions      [0 1 -1 0 0 0 0];

internalField   nonuniform List<vector> 
2000
(
(0.00324179 -7.455e-16 -1.21655e-17)
(0.00324179 5.18872e-20 -5.70821e-34)
(0.00978466 -2.5641e-15 -2.436e-17)
(0.00978466 -5.03615e-19 3.83706e-21)
(0.0164484 -2.5031e-15 -2.57778e-17)
(0.0164484 -6.62871e-19 5.17045e-21)
(0.0232352 -2.33232e-15 -2.66868e-17)
(0.0232352 -9.69922e-19 8.79188e-21)
(0.0301473 -2.35126e-15 -2.77546e-17)
(0.0301473 -1.28435e-18 1.28248e-20)
(0.0371871 -2.32442e-15 -2.89534e-17)
(0.0371871 -1.64901e-18 1.72306e-20)
(0.0443568 -2.32745e-15 -3.02187e-17)
(0.0443568 -2.03929e-18 2.24539e-20)
(0.0516587 -2.32675e-15 -3.15401e-17)
(0.0516587 -2.42284e-18 2.79128e-20)
(0.0590954 -2.32595e-15 -3.29203e-17)
(0.0590954 -2.83751e-18 3.43728e-20)
(0.066669 -2.32555e-15 -3.43596e-17)
(0.066669 -3.27684e-18 4.04184e-20)
(0.0743821 -2.32517e-15 -3.5858e-17)
(0.0743821 -3.76456e-18 4.64067e-20)
(0.0822369 -2.3247e-15 -3.74155e-17)
(0.0822369 -4.23446e-18 5.31942e-20)
(0.0902356 -2.3241e-15 -3.90328e-17)
(0.0902356 -4.71659e-18 5.97997e-20)
(0.0983806 -2.32338e-15 -4.07107e-17)
(0.0983806 -5.23783e-18 6.69859e-20)
(0.106674 -2.32264e-15 -4.24496e-17)
(0.106674 -5.70905e-18 7.40899e-20)
(0.115116 -2.3219e-15 -4.42495e-17)
(0.115116 -6.32212e-18 8.06997e-20)
(0.123711 -2.32119e-15 -4.61106e-17)
(0.123711 -6.98174e-18 8.93413e-20)
(0.132457 -2.32052e-15 -4.80318e-17)
(0.132457 -7.55818e-18 9.68485e-20)
(0.141356 -2.31981e-15 -5.00113e-17)
(0.141356 -8.19148e-18 1.06688e-19)
(0.150408 -2.31898e-15 -5.20455e-17)
(0.150408 -8.80474e-18 1.12983e-19)
(0.15961 -2.3181e-15 -5.41293e-17)
(0.15961 -9.40272e-18 1.20661e-19)
(0.168962 -2.31713e-15 -5.62559e-17)
(0.168962 -1.02285e-17 1.32144e-19)
(0.178459 -2.31602e-15 -5.84172e-17)
(0.178459 -1.12676e-17 1.45176e-19)
(0.188097 -2.31502e-15 -6.06033e-17)
(0.188097 -1.21851e-17 1.59272e-19)
(0.197868 -2.31401e-15 -6.28028e-17)
(0.197868 -1.30953e-17 1.7094e-19)
(0.207766 -2.31272e-15 -6.50013e-17)
(0.207766 -1.40026e-17 1.83062e-19)
(0.217778 -2.3116e-15 -6.71829e-17)
(0.217778 -1.48254e-17 1.94634e-19)
(0.227894 -2.31062e-15 -6.9332e-17)
(0.227894 -1.57561e-17 2.04388e-19)
(0.238098 -2.30918e-15 -7.14302e-17)
(0.238098 -1.68363e-17 2.15806e-19)
(0.248376 -2.30769e-15 -7.3461e-17)
(0.248376 -1.8102e-17 2.29846e-19)
(0.258707 -2.30619e-15 -7.54053e-17)
(0.258707 -1.92112e-17 2.41155e-19)
(0.269074 -2.30448e-15 -7.72477e-17)
(0.269074 -2.04246e-17 2.53376e-19)
(0.279456 -2.30277e-15 -7.89728e-17)
(0.279456 -2.19562e-17 2.67894e-19)
(0.289832 -2.30104e-15 -8.05691e-17)
(0.289832 -2.33001e-17 2.87132e-19)
(0.30018 -2.2995e-15 -8.20251e-17)
(0.30018 -2.42727e-17 3.02858e-19)
(0.31048 -2.29791e-15 -8.3337e-17)
(0.31048 -2.55291e-17 3.18217e-19)
(0.320711 -2.29622e-15 -8.45013e-17)
(0.320711 -2.70013e-17 3.3461e-19)
(0.330854 -2.2945e-15 -8.55168e-17)
(0.330854 -2.82921e-17 3.51583e-19)
(0.340891 -2.29259e-15 -8.63883e-17)
(0.340891 -3.00782e-17 3.66606e-19)
(0.350808 -2.29059e-15 -8.71215e-17)
(0.350808 -3.19336e-17 3.81608e-19)
(0.360591 -2.28875e-15 -8.77286e-17)
(0.360591 -3.36799e-17 3.96546e-19)
(0.370227 -2.28688e-15 -8.82203e-17)
(0.370227 -3.55082e-17 4.17775e-19)
(0.379707 -2.2849e-15 -8.8611e-17)
(0.379707 -3.65279e-17 4.245e-19)
(0.389024 -2.28344e-15 -8.89126e-17)
(0.389024 -3.7447e-17 4.19215e-19)
(0.398172 -2.28152e-15 -8.91389e-17)
(0.398172 -3.78325e-17 4.1412e-19)
(0.407146 -2.27962e-15 -8.93055e-17)
(0.407146 -3.89021e-17 4.05803e-19)
(0.415946 -2.27788e-15 -8.94225e-17)
(0.415946 -4.10101e-17 4.16155e-19)
(0.42457 -2.27632e-15 -8.94998e-17)
(0.42457 -4.19515e-17 4.23722e-19)
(0.433017 -2.27474e-15 -8.95505e-17)
(0.433017 -4.29963e-17 4.34351e-19)
(0.441291 -2.27288e-15 -8.95862e-17)
(0.441291 -4.50316e-17 4.4699e-19)
(0.449391 -2.27033e-15 -8.96092e-17)
(0.449391 -4.66546e-17 4.4921e-19)
(0.457323 -2.26766e-15 -8.96325e-17)
(0.457323 -4.80815e-17 4.51913e-19)
(0.465088 -2.26476e-15 -8.96589e-17)
(0.465088 -4.97549e-17 4.74597e-19)
(0.472691 -2.26151e-15 -8.96959e-17)
(0.472691 -5.18373e-17 4.82692e-19)
(0.480135 -2.2579e-15 -8.97471e-17)
(0.480135 -5.41292e-17 4.95574e-19)
(0.487426 -2.25397e-15 -8.98099e-17)
(0.487426 -5.66599e-17 5.10794e-19)
(0.494568 -2.25109e-15 -8.98915e-17)
(0.494568 -5.91056e-17 5.43868e-19)
(0.501565 -2.24824e-15 -8.99933e-17)
(0.501565 -6.13571e-17 5.73038e-19)
(0.508423 -2.24485e-15 -9.01281e-17)
(0.508423 -6.39977e-17 6.00965e-19)
(0.515145 -2.24167e-15 -9.02933e-17)
(0.515145 -6.59886e-17 5.92107e-19)
(0.521737 -2.23914e-15 -9.04973e-17)
(0.521737 -6.7822e-17 5.57932e-19)
(0.528203 -2.23713e-15 -9.07427e-17)
(0.528203 -6.92807e-17 5.38516e-19)
(0.534547 -2.23457e-15 -9.10273e-17)
(0.534547 -7.16231e-17 5.58193e-19)
(0.540775 -2.23171e-15 -9.13498e-17)
(0.540775 -7.53075e-17 6.06503e-19)
(0.546889 -2.22923e-15 -9.17215e-17)
(0.546889 -7.80027e-17 5.95767e-19)
(0.552895 -2.22627e-15 -9.21225e-17)
(0.552895 -7.98714e-17 6.15314e-19)
(0.558796 -2.22218e-15 -9.25578e-17)
(0.558796 -8.17185e-17 5.82612e-19)
(0.564596 -2.21782e-15 -9.30335e-17)
(0.564596 -8.47702e-17 5.49716e-19)
(0.5703 -2.21483e-15 -9.35522e-17)
(0.5703 -8.7279e-17 5.62188e-19)
(0.575909 -2.2122e-15 -9.41222e-17)
(0.575909 -8.94998e-17 5.3001e-19)
(0.581429 -2.2087e-15 -9.47366e-17)
(0.581429 -9.30511e-17 4.83339e-19)
(0.586862 -2.2038e-15 -9.53919e-17)
(0.586862 -9.61065e-17 5.10283e-19)
(0.592211 -2.19964e-15 -9.60747e-17)
(0.592211 -9.95497e-17 5.39668e-19)
(0.597479 -2.19681e-15 -9.6795e-17)
(0.597479 -1.04377e-16 5.25616e-19)
(0.60267 -2.19347e-15 -9.75748e-17)
(0.60267 -1.07789e-16 5.28311e-19)
(0.607786 -2.19043e-15 -9.83819e-17)
(0.607786 -1.11996e-16 5.64761e-19)
(0.61283 -2.18708e-15 -9.92285e-17)
(0.61283 -1.15448e-16 6.4508e-19)
(0.617804 -2.18202e-15 -1.00121e-16)
(0.617804 -1.19428e-16 6.22791e-19)
(0.622711 -2.17622e-15 -1.01031e-16)
(0.622711 -1.24368e-16 6.98714e-19)
(0.627553 -2.17114e-15 -1.01995e-16)
(0.627553 -1.28646e-16 6.85264e-19)
(0.632332 -2.16709e-15 -1.03018e-16)
(0.632332 -1.33276e-16 7.74377e-19)
(0.637052 -2.16294e-15 -1.04075e-16)
(0.637052 -1.35817e-16 8.20347e-19)
(0.641712 -2.15593e-15 -1.05195e-16)
(0.641712 -1.40286e-16 9.16196e-19)
(0.646317 -2.1483e-15 -1.06333e-16)
(0.646317 -1.45561e-16 8.61176e-19)
(0.650867 -2.14414e-15 -1.07525e-16)
(0.650867 -1.47965e-16 9.10961e-19)
(0.655365 -2.14101e-15 -1.08794e-16)
(0.655365 -1.49032e-16 8.74642e-19)
(0.659811 -2.1391e-15 -1.10116e-16)
(0.659811 -1.50153e-16 8.45206e-19)
(0.664209 -2.13641e-15 -1.11496e-16)
(0.664209 -1.53507e-16 5.93679e-19)
(0.668559 -2.12939e-15 -1.12886e-16)
(0.668559 -1.59118e-16 6.3589e-19)
(0.672863 -2.12031e-15 -1.14332e-16)
(0.672863 -1.67508e-16 7.45604e-19)
(0.677122 -2.11268e-15 -1.158e-16)
(0.677122 -1.76123e-16 7.26388e-19)
(0.681338 -2.1057e-15 -1.17287e-16)
(0.681338 -1.8231e-16 6.35677e-19)
(0.685513 -2.0981e-15 -1.18823e-16)
(0.685513 -1.88858e-16 6.22772e-19)
(0.689647 -2.09003e-15 -1.20443e-16)
(0.689647 -1.96086e-16 3.57598e-19)
(0.693742 -2.07973e-15 -1.22156e-16)
(0.693742 -2.03941e-16 3.48562e-19)
(0.697799 -2.07011e-15 -1.23905e-16)
(0.697799 -2.10885e-16 2.97943e-19)
(0.701819 -2.06266e-15 -1.25669e-16)
(0.701819 -2.18586e-16 2.62556e-19)
(0.705803 -2.05778e-15 -1.27496e-16)
(0.705803 -2.24348e-16 1.11414e-19)
(0.709753 -2.05417e-15 -1.29383e-16)
(0.709753 -2.26749e-16 -7.64125e-20)
(0.71367 -2.05199e-15 -1.31364e-16)
(0.71367 -2.27764e-16 -4.40219e-19)
(0.717554 -2.04781e-15 -1.3345e-16)
(0.717554 -2.30613e-16 -7.61699e-19)
(0.721406 -2.04159e-15 -1.35619e-16)
(0.721406 -2.32405e-16 -7.15225e-19)
(0.725227 -2.0371e-15 -1.37882e-16)
(0.725227 -2.34928e-16 -9.52545e-19)
(0.729019 -2.0319e-15 -1.40241e-16)
(0.729019 -2.38978e-16 -1.18139e-18)
(0.732782 -2.0254e-15 -1.42624e-16)
(0.732782 -2.44015e-16 -1.21014e-18)
(0.736517 -2.01799e-15 -1.45113e-16)
(0.736517 -2.50477e-16 -1.23683e-18)
(0.740224 -2.01106e-15 -1.47712e-16)
(0.740224 -2.54574e-16 -1.26172e-18)
(0.743905 -2.00459e-15 -1.50474e-16)
(0.743905 -2.61016e-16 -1.47276e-18)
(0.747561 -1.99627e-15 -1.53341e-16)
(0.747561 -2.68213e-16 -1.52736e-18)
(0.751191 -1.98658e-15 -1.56307e-16)
(0.751191 -2.72154e-16 -1.29655e-18)
(0.754797 -1.97653e-15 -1.59354e-16)
(0.754797 -2.73868e-16 -1.4068e-18)
(0.758379 -1.96773e-15 -1.62459e-16)
(0.758379 -2.77478e-16 -1.51886e-18)
(0.761938 -1.95801e-15 -1.6564e-16)
(0.761938 -2.81131e-16 -1.42672e-18)
(0.765475 -1.94696e-15 -1.68769e-16)
(0.765475 -2.87202e-16 -1.28013e-18)
(0.768989 -1.93685e-15 -1.71983e-16)
(0.768989 -2.93925e-16 -1.42199e-18)
(0.772483 -1.92709e-15 -1.7534e-16)
(0.772483 -2.97699e-16 -1.46634e-18)
(0.775956 -1.91565e-15 -1.78804e-16)
(0.775956 -3.04459e-16 -1.42496e-18)
(0.779409 -1.90604e-15 -1.82378e-16)
(0.779409 -3.13152e-16 -1.11938e-18)
(0.782842 -1.89519e-15 -1.86213e-16)
(0.782842 -3.21487e-16 -1.15621e-18)
(0.786256 -1.88211e-15 -1.90218e-16)
(0.786256 -3.29679e-16 -1.04979e-18)
(0.789652 -1.87342e-15 -1.94564e-16)
(0.789652 -3.35952e-16 -6.46154e-19)
(0.793029 -1.86387e-15 -1.99142e-16)
(0.793029 -3.45641e-16 -5.6746e-19)
(0.796389 -1.85224e-15 -2.0397e-16)
(0.796389 -3.55331e-16 -3.36095e-19)
(0.799731 -1.84235e-15 -2.08893e-16)
(0.799731 -3.66566e-16 -9.89317e-20)
(0.803057 -1.83164e-15 -2.13961e-16)
(0.803057 -3.76324e-16 -1.34492e-20)
(0.806366 -1.82029e-15 -2.1911e-16)
(0.806366 -3.88073e-16 2.35616e-19)
(0.809659 -1.80909e-15 -2.24443e-16)
(0.809659 -3.99242e-16 1.63148e-19)
(0.812937 -1.79695e-15 -2.29967e-16)
(0.812937 -4.09477e-16 2.5171e-19)
(0.816199 -1.78166e-15 -2.35657e-16)
(0.816199 -4.25934e-16 2.09785e-19)
(0.819447 -1.7665e-15 -2.41334e-16)
(0.819447 -4.36061e-16 3.33299e-19)
(0.82268 -1.75511e-15 -2.47171e-16)
(0.82268 -4.47712e-16 -9.2664e-21)
(0.825899 -1.73455e-15 -2.5298e-16)
(0.825899 -4.5089e-16 8.6836e-19)
(0.829104 -1.71847e-15 -2.58457e-16)
(0.829104 -4.62134e-16 2.18437e-18)
(0.832296 -1.70981e-15 -2.64044e-16)
(0.832296 -4.58654e-16 1.61798e-18)
(0.835474 -1.69998e-15 -2.65076e-16)
(0.835474 -4.5551e-16 5.02387e-19)
(0.838639 -1.69514e-15 -2.64348e-16)
(0.838639 -4.55424e-16 1.4476e-18)
(0.841792 -1.68877e-15 -2.61625e-16)
(0.841792 -4.58711e-16 2.27352e-18)
(0.844933 -1.67966e-15 -2.58638e-16)
(0.844933 -4.59055e-16 2.15202e-18)
(0.848061 -1.67035e-15 -2.53977e-16)
(0.848061 -4.57297e-16 2.08809e-18)
(0.851177 -1.66203e-15 -2.48272e-16)
(0.851177 -4.62633e-16 2.03174e-18)
(0.854282 -1.65202e-15 -2.41002e-16)
(0.854282 -4.64952e-16 1.29042e-18)
(0.857376 -1.63978e-15 -2.33714e-16)
(0.857376 -4.64733e-16 1.88711e-18)
(0.860459 -1.62783e-15 -2.26375e-16)
(0.860459 -4.70541e-16 2.35025e-18)
(0.86353 -1.61138e-15 -2.18218e-16)
(0.86353 -4.7544e-16 2.1638e-18)
(0.866591 -1.59587e-15 -2.10539e-16)
(0.866591 -4.80643e-16 2.55514e-18)
(0.869642 -1.58027e-15 -2.025e-16)
(0.869642 -4.85975e-16 2.68414e-18)
(0.872682 -1.56116e-15 -1.95128e-16)
(0.872682 -4.94783e-16 3.31115e-18)
(0.875712 -1.5469e-15 -1.8604e-16)
(0.875712 -5.04067e-16 3.19421e-18)
(0.878732 -1.53204e-15 -1.76766e-16)
(0.878732 -5.13233e-16 3.03491e-18)
(0.881743 -1.51762e-15 -1.69731e-16)
(0.881743 -5.2306e-16 4.15271e-18)
(0.884744 -1.50786e-15 -1.5813e-16)
(0.884744 -5.29545e-16 2.91099e-18)
(0.887736 -1.49716e-15 -1.48568e-16)
(0.887736 -5.35835e-16 3.35263e-18)
(0.890718 -1.48933e-15 -1.48594e-16)
(0.890718 -5.53491e-16 3.30652e-18)
(0.893691 -1.48317e-15 -1.46907e-16)
(0.893691 -5.68556e-16 4.23794e-18)
(0.896656 -1.46809e-15 -1.44123e-16)
(0.896656 -5.83572e-16 3.2839e-18)
(0.899611 -1.45153e-15 -1.44691e-16)
(0.899611 -6.07531e-16 5.54263e-18)
(0.902558 -1.43488e-15 -1.43982e-16)
(0.902558 -6.12828e-16 4.77155e-18)
(0.905497 -1.41951e-15 -1.42847e-16)
(0.905497 -6.2498e-16 3.85719e-18)
(0.908427 -1.40807e-15 -1.41301e-16)
(0.908427 -6.45424e-16 3.08377e-18)
(0.911348 -1.39508e-15 -1.39349e-16)
(0.911348 -6.48299e-16 3.20747e-18)
(0.914262 -1.37882e-15 -1.3591e-16)
(0.914262 -6.63745e-16 2.72709e-18)
(0.917167 -1.36487e-15 -1.32458e-16)
(0.917167 -6.77921e-16 1.07184e-17)
(0.920064 -1.35054e-15 -1.27851e-16)
(0.920064 -6.89134e-16 1.33255e-17)
(0.922953 -1.33509e-15 -1.24279e-16)
(0.922953 -6.9813e-16 1.53139e-17)
(0.925834 -1.3246e-15 -1.19963e-16)
(0.925834 -6.99694e-16 1.53067e-17)
(0.928708 -1.31286e-15 -1.1396e-16)
(0.928708 -7.117e-16 1.14803e-17)
(0.931573 -1.29779e-15 -1.03996e-16)
(0.931573 -7.18892e-16 7.66862e-18)
(0.934431 -1.28334e-15 -9.44952e-17)
(0.934431 -7.17604e-16 4.64969e-18)
(0.937281 -1.26589e-15 -8.75779e-17)
(0.937281 -7.28212e-16 6.31996e-18)
(0.940123 -1.24447e-15 -8.1987e-17)
(0.940123 -7.37652e-16 7.25739e-18)
(0.942958 -1.22643e-15 -7.64008e-17)
(0.942958 -7.49593e-16 4.03765e-18)
(0.945785 -1.20468e-15 -7.27434e-17)
(0.945785 -7.60132e-16 1.96127e-18)
(0.948604 -1.19764e-15 -6.94827e-17)
(0.948604 -7.6295e-16 -3.44777e-18)
(0.951416 -1.18523e-15 -6.31472e-17)
(0.951416 -7.66481e-16 -8.05421e-18)
(0.95422 -1.17019e-15 -6.07388e-17)
(0.95422 -7.67997e-16 -1.34533e-17)
(0.957016 -1.1652e-15 -5.8466e-17)
(0.957016 -7.70691e-16 -1.70399e-17)
(0.959805 -1.15506e-15 -5.74773e-17)
(0.959805 -7.75898e-16 -2.11545e-17)
(0.962586 -1.13936e-15 -5.73451e-17)
(0.962586 -7.70314e-16 -2.59892e-17)
(0.96536 -1.14879e-15 -5.93509e-17)
(0.96536 -7.66071e-16 -2.87418e-17)
(0.968125 -1.13928e-15 -5.72935e-17)
(0.968125 -7.6577e-16 -3.70608e-17)
(0.970883 -1.10507e-15 -5.58667e-17)
(0.970883 -7.78683e-16 -4.78463e-17)
(0.973633 -1.06755e-15 -6.03262e-17)
(0.973633 -8.0075e-16 -5.99139e-17)
(0.976374 -1.03677e-15 -7.14377e-17)
(0.976374 -8.1406e-16 -6.96001e-17)
(0.979108 -1.01982e-15 -8.18447e-17)
(0.979108 -8.35886e-16 -7.22322e-17)
(0.981834 -1.01773e-15 -8.76235e-17)
(0.981834 -8.39193e-16 -7.30898e-17)
(0.984551 -1.01231e-15 -8.38848e-17)
(0.984551 -8.34696e-16 -7.59299e-17)
(0.98726 -9.94836e-16 -9.03962e-17)
(0.98726 -8.43566e-16 -7.81355e-17)
(0.98996 -9.87623e-16 -9.07414e-17)
(0.98996 -8.57624e-16 -8.21969e-17)
(0.992652 -9.70563e-16 -8.91916e-17)
(0.992652 -8.76967e-16 -9.05558e-17)
(0.995334 -9.59746e-16 -9.22421e-17)
(0.995334 -8.84757e-16 -9.18474e-17)
(0.998008 -9.515e-16 -9.49629e-17)
(0.998008 -8.78578e-16 -9.32417e-17)
(1.00067 -9.37137e-16 -9.97128e-17)
(1.00067 -8.74939e-16 -9.97488e-17)
(1.00333 -9.21838e-16 -1.02284e-16)
(1.00333 -8.78517e-16 -9.967e-17)
(1.00597 -9.15678e-16 -1.03352e-16)
(1.00597 -8.79929e-16 -1.01139e-16)
(1.00861 -8.98474e-16 -1.02917e-16)
(1.00861 -8.75265e-16 -1.08447e-16)
(1.01123 -8.9115e-16 -1.08953e-16)
(1.01123 -8.54152e-16 -1.16635e-16)
(1.01385 -8.85971e-16 -1.15426e-16)
(1.01385 -8.6476e-16 -1.17167e-16)
(1.01645 -8.61965e-16 -1.29063e-16)
(1.01645 -8.73682e-16 -1.2421e-16)
(1.01905 -8.52885e-16 -1.37422e-16)
(1.01905 -8.42937e-16 -1.25108e-16)
(1.02163 -8.38985e-16 -1.46054e-16)
(1.02163 -8.35773e-16 -1.33338e-16)
(1.0242 -8.34131e-16 -1.56134e-16)
(1.0242 -7.98719e-16 -1.42625e-16)
(1.02676 -8.08599e-16 -1.51158e-16)
(1.02676 -7.69759e-16 -1.54837e-16)
(1.02931 -7.57259e-16 -1.50889e-16)
(1.02931 -7.66771e-16 -1.64229e-16)
(1.03184 -7.38033e-16 -1.55262e-16)
(1.03184 -7.69801e-16 -1.71699e-16)
(1.03436 -7.38404e-16 -1.6475e-16)
(1.03436 -7.21277e-16 -1.74327e-16)
(1.03687 -7.28226e-16 -1.66402e-16)
(1.03687 -6.90183e-16 -1.78904e-16)
(1.03936 -7.14335e-16 -1.60545e-16)
(1.03936 -7.15998e-16 -1.67258e-16)
(1.04184 -6.77071e-16 -1.5354e-16)
(1.04184 -6.85765e-16 -1.62764e-16)
(1.0443 -6.58486e-16 -1.51711e-16)
(1.0443 -6.51584e-16 -1.64434e-16)
(1.04675 -6.32605e-16 -1.51377e-16)
(1.04675 -6.30709e-16 -1.74694e-16)
(1.04918 -5.99242e-16 -1.55228e-16)
(1.04918 -6.00937e-16 -1.8074e-16)
(1.0516 -5.86217e-16 -1.67769e-16)
(1.0516 -5.88307e-16 -1.7592e-16)
(1.05399 -5.68521e-16 -1.92556e-16)
(1.05399 -6.08876e-16 -1.84277e-16)
(1.05637 -6.28008e-16 -1.96257e-16)
(1.05637 -6.16152e-16 -1.83962e-16)
(1.05873 -6.29324e-16 -1.93557e-16)
(1.05873 -6.33327e-16 -1.84462e-16)
(1.06107 -5.53995e-16 -1.8905e-16)
(1.06107 -6.02256e-16 -1.82921e-16)
(1.06338 -6.17244e-16 -1.85829e-16)
(1.06338 -5.54087e-16 -1.74338e-16)
(1.06568 -6.21438e-16 -1.59509e-16)
(1.06568 -5.93874e-16 -1.68082e-16)
(1.06795 -6.0388e-16 -1.44924e-16)
(1.06795 -6.06215e-16 -1.63934e-16)
(1.07019 -6.17332e-16 -1.59339e-16)
(1.07019 -5.96829e-16 -1.51785e-16)
(1.07242 -5.84192e-16 -1.44534e-16)
(1.07242 -6.1454e-16 -1.41064e-16)
(1.07461 -5.60619e-16 -1.73902e-16)
(1.07461 -5.86167e-16 -1.37246e-16)
(1.07678 -5.40595e-16 -1.94158e-16)
(1.07678 -5.5724e-16 -1.39301e-16)
(1.07891 -5.7655e-16 -1.71233e-16)
(1.07891 -5.49423e-16 -1.38162e-16)
(1.08102 -5.5284e-16 -1.44759e-16)
(1.08102 -5.48419e-16 -1.23831e-16)
(1.08309 -5.39099e-16 -1.4373e-16)
(1.08309 -5.79435e-16 -1.14052e-16)
(1.08513 -5.25734e-16 -1.62591e-16)
(1.08513 -5.7546e-16 -9.24704e-17)
(1.08713 -5.33813e-16 -1.62892e-16)
(1.08713 -4.9551e-16 -8.97229e-17)
(1.08909 -5.3017e-16 -1.50939e-16)
(1.08909 -5.14446e-16 -1.04168e-16)
(1.09101 -5.25954e-16 -1.238e-16)
(1.09101 -5.36284e-16 -9.76835e-17)
(1.09289 -5.00045e-16 -1.109e-16)
(1.09289 -4.68855e-16 -1.00437e-16)
(1.09472 -4.94367e-16 -1.32689e-16)
(1.09472 -5.26363e-16 -9.26589e-17)
(1.0965 -4.76912e-16 -1.19096e-16)
(1.0965 -5.18615e-16 -7.79511e-17)
(1.09823 -4.54282e-16 -1.21584e-16)
(1.09823 -5.19786e-16 -1.01601e-16)
(1.0999 -4.66938e-16 -1.14335e-16)
(1.0999 -5.58133e-16 -8.5212e-17)
(1.10152 -5.30099e-16 -1.5963e-16)
(1.10152 -5.64071e-16 -6.9601e-17)
(1.10307 -4.42047e-16 -1.62427e-16)
(1.10307 -5.85382e-16 -5.49052e-17)
(1.10455 -5.56078e-16 -1.70267e-16)
(1.10455 -5.34497e-16 -4.58983e-18)
(1.10596 -5.83153e-16 -1.27e-16)
(1.10596 -4.73884e-16 -3.32261e-17)
(1.10729 -5.35655e-16 -1.07327e-16)
(1.10729 -5.08233e-16 -5.26196e-17)
(1.10853 -5.21253e-16 -1.10115e-16)
(1.10853 -5.2522e-16 -3.3958e-17)
(1.10969 -5.64648e-16 -8.0826e-17)
(1.10969 -4.65997e-16 4.68482e-17)
(1.11075 -5.23406e-16 -3.33438e-18)
(1.11075 -4.19854e-16 4.029e-17)
(1.1117 -4.45519e-16 -3.38579e-17)
(1.1117 -3.78119e-16 4.29511e-17)
(1.11255 -4.17022e-16 -2.44017e-18)
(1.11255 -3.45504e-16 1.40296e-17)
(1.11328 -3.78568e-16 3.54373e-17)
(1.11328 -3.98947e-16 -1.30911e-17)
(1.11387 -3.56497e-16 -2.02975e-17)
(1.11387 -4.06885e-16 -4.24318e-17)
(1.11434 -3.8621e-16 -4.38457e-17)
(1.11434 -4.02184e-16 -8.74274e-17)
(1.11466 -3.8976e-16 -4.94476e-17)
(1.11466 -4.38481e-16 -2.02832e-17)
(1.11482 -3.8646e-16 2.40273e-17)
(1.11482 -4.32527e-16 1.09214e-17)
(0.00324179 3.51491e-20 1.69011e-18)
(0.00324179 2.74548e-20 1.01646e-17)
(0.00978466 -1.92201e-19 -2.9067e-19)
(0.00978466 1.515e-21 1.34847e-17)
(0.0164484 -2.26804e-19 -3.03663e-19)
(0.0164484 6.19095e-20 1.39964e-17)
(0.0232352 -3.41876e-19 -3.18486e-19)
(0.0232352 9.02353e-20 1.453e-17)
(0.0301473 -4.62342e-19 -3.35286e-19)
(0.0301473 1.16187e-19 1.50866e-17)
(0.0371871 -5.84678e-19 -3.54065e-19)
(0.0371871 1.412e-19 1.5667e-17)
(0.0443568 -7.24898e-19 -3.75032e-19)
(0.0443568 1.85004e-19 1.62728e-17)
(0.0516587 -8.78068e-19 -3.98536e-19)
(0.0516587 2.2488e-19 1.69051e-17)
(0.0590954 -1.05832e-18 -4.25341e-19)
(0.0590954 2.75346e-19 1.75655e-17)
(0.066669 -1.25076e-18 -4.55216e-19)
(0.066669 3.34986e-19 1.82544e-17)
(0.0743821 -1.41054e-18 -4.89495e-19)
(0.0743821 3.65749e-19 1.89733e-17)
(0.0822369 -1.55664e-18 -5.2793e-19)
(0.0822369 4.48704e-19 1.97235e-17)
(0.0902356 -1.74079e-18 -5.70551e-19)
(0.0902356 5.12462e-19 2.05054e-17)
(0.0983806 -1.96705e-18 -6.17421e-19)
(0.0983806 5.35888e-19 2.13201e-17)
(0.106674 -2.15159e-18 -6.69869e-19)
(0.106674 5.58632e-19 2.21682e-17)
(0.115116 -2.38348e-18 -7.25908e-19)
(0.115116 7.20441e-19 2.30487e-17)
(0.123711 -2.65839e-18 -7.89299e-19)
(0.123711 8.92083e-19 2.39652e-17)
(0.132457 -2.9485e-18 -8.58938e-19)
(0.132457 1.01841e-18 2.49151e-17)
(0.141356 -3.28806e-18 -9.3323e-19)
(0.141356 1.16847e-18 2.58981e-17)
(0.150408 -3.49967e-18 -1.01202e-18)
(0.150408 1.09864e-18 2.69092e-17)
(0.15961 -3.62807e-18 -1.08923e-18)
(0.15961 9.47271e-19 2.79443e-17)
(0.168962 -3.90628e-18 -1.16092e-18)
(0.168962 8.98095e-19 2.90012e-17)
(0.178459 -4.30471e-18 -1.23056e-18)
(0.178459 9.13415e-19 3.00787e-17)
(0.188097 -4.51785e-18 -1.29535e-18)
(0.188097 9.04357e-19 3.11727e-17)
(0.197868 -4.67801e-18 -1.35501e-18)
(0.197868 8.75305e-19 3.22749e-17)
(0.207766 -4.9459e-18 -1.40825e-18)
(0.207766 7.38119e-19 3.33763e-17)
(0.217778 -5.16171e-18 -1.45184e-18)
(0.217778 6.22347e-19 3.44654e-17)
(0.227894 -5.31648e-18 -1.48816e-18)
(0.227894 6.26772e-19 3.55357e-17)
(0.238098 -5.77037e-18 -1.51964e-18)
(0.238098 8.63118e-19 3.65789e-17)
(0.248376 -6.23107e-18 -1.55629e-18)
(0.248376 9.31657e-19 3.75905e-17)
(0.258707 -6.3337e-18 -1.58991e-18)
(0.258707 6.92914e-19 3.85542e-17)
(0.269074 -6.3725e-18 -1.62039e-18)
(0.269074 6.41909e-19 3.94634e-17)
(0.279456 -6.67934e-18 -1.6504e-18)
(0.279456 7.23385e-19 4.0314e-17)
(0.289832 -7.13788e-18 -1.68934e-18)
(0.289832 5.76912e-19 4.11075e-17)
(0.30018 -7.47957e-18 -1.7224e-18)
(0.30018 4.38426e-19 4.18293e-17)
(0.31048 -7.87299e-18 -1.74194e-18)
(0.31048 2.63571e-19 4.24703e-17)
(0.320711 -7.96176e-18 -1.74963e-18)
(0.320711 1.81056e-19 4.30308e-17)
(0.330854 -8.03729e-18 -1.72512e-18)
(0.330854 5.09597e-19 4.35051e-17)
(0.340891 -8.14563e-18 -1.67008e-18)
(0.340891 3.31186e-19 4.38946e-17)
(0.350808 -8.36016e-18 -1.57983e-18)
(0.350808 4.15617e-19 4.42031e-17)
(0.360591 -8.86546e-18 -1.45477e-18)
(0.360591 1.03774e-18 4.44323e-17)
(0.370227 -9.46561e-18 -1.29223e-18)
(0.370227 9.43255e-19 4.45895e-17)
(0.379707 -9.61989e-18 -1.11329e-18)
(0.379707 8.86973e-19 4.46834e-17)
(0.389024 -9.66318e-18 -8.87865e-19)
(0.389024 6.97421e-19 4.46904e-17)
(0.398172 -1.01321e-17 -6.52027e-19)
(0.398172 7.8256e-19 4.46342e-17)
(0.407146 -1.0367e-17 -3.99254e-19)
(0.407146 1.21689e-18 4.4507e-17)
(0.415946 -1.08826e-17 -1.46982e-19)
(0.415946 1.08958e-18 4.43549e-17)
(0.42457 -1.14116e-17 1.0309e-19)
(0.42457 1.34669e-18 4.41841e-17)
(0.433017 -1.15081e-17 3.80651e-19)
(0.433017 1.89518e-18 4.3969e-17)
(0.441291 -1.17974e-17 6.6671e-19)
(0.441291 1.32304e-18 4.37309e-17)
(0.449391 -1.22372e-17 9.60083e-19)
(0.449391 9.81082e-19 4.34675e-17)
(0.457323 -1.27218e-17 1.22899e-18)
(0.457323 2.2649e-18 4.32016e-17)
(0.465088 -1.3139e-17 1.48803e-18)
(0.465088 1.94197e-18 4.29444e-17)
(0.472691 -1.34121e-17 1.73942e-18)
(0.472691 1.06345e-18 4.26862e-17)
(0.480135 -1.34172e-17 1.99494e-18)
(0.480135 1.51672e-18 4.24256e-17)
(0.487426 -1.36142e-17 2.27254e-18)
(0.487426 1.10535e-18 4.21578e-17)
(0.494568 -1.36441e-17 2.54638e-18)
(0.494568 9.46192e-19 4.1914e-17)
(0.501565 -1.39956e-17 2.86617e-18)
(0.501565 1.587e-18 4.1668e-17)
(0.508423 -1.50366e-17 3.14062e-18)
(0.508423 2.09249e-18 4.14545e-17)
(0.515145 -1.53553e-17 3.3961e-18)
(0.515145 1.91604e-18 4.12286e-17)
(0.521737 -1.55531e-17 3.65744e-18)
(0.521737 1.87722e-18 4.095e-17)
(0.528203 -1.59004e-17 3.94316e-18)
(0.528203 2.57755e-18 4.06162e-17)
(0.534547 -1.67012e-17 4.23061e-18)
(0.534547 4.0459e-18 4.02914e-17)
(0.540775 -1.82037e-17 4.46232e-18)
(0.540775 6.33431e-18 4.0026e-17)
(0.546889 -1.9098e-17 4.64568e-18)
(0.546889 6.86728e-18 3.9771e-17)
(0.552895 -1.94001e-17 4.83148e-18)
(0.552895 6.83505e-18 3.95373e-17)
(0.558796 -2.06918e-17 5.00261e-18)
(0.558796 7.57657e-18 3.92758e-17)
(0.564596 -2.22994e-17 5.06192e-18)
(0.564596 8.01901e-18 3.90272e-17)
(0.5703 -2.29887e-17 5.01842e-18)
(0.5703 7.34789e-18 3.88594e-17)
(0.575909 -2.38372e-17 4.99566e-18)
(0.575909 7.60539e-18 3.86267e-17)
(0.581429 -2.50203e-17 4.99741e-18)
(0.581429 7.28944e-18 3.83055e-17)
(0.586862 -2.57715e-17 5.02764e-18)
(0.586862 5.13819e-18 3.79523e-17)
(0.592211 -2.67296e-17 5.06794e-18)
(0.592211 4.70023e-18 3.76119e-17)
(0.597479 -2.88337e-17 5.12949e-18)
(0.597479 3.76143e-18 3.72399e-17)
(0.60267 -3.11503e-17 5.14191e-18)
(0.60267 3.03482e-18 3.68518e-17)
(0.607786 -3.21625e-17 5.17403e-18)
(0.607786 2.09784e-18 3.64919e-17)
(0.61283 -3.30843e-17 5.33548e-18)
(0.61283 3.41817e-18 3.60817e-17)
(0.617804 -3.44217e-17 5.58129e-18)
(0.617804 3.12143e-18 3.55749e-17)
(0.622711 -3.47922e-17 5.75401e-18)
(0.622711 8.76255e-19 3.52052e-17)
(0.627553 -3.59123e-17 5.93548e-18)
(0.627553 2.07308e-18 3.47956e-17)
(0.632332 -3.72811e-17 6.18637e-18)
(0.632332 1.91428e-18 3.43549e-17)
(0.637052 -3.89133e-17 6.49985e-18)
(0.637052 3.53407e-18 3.38886e-17)
(0.641712 -4.08203e-17 6.71865e-18)
(0.641712 5.7491e-18 3.35568e-17)
(0.646317 -4.09449e-17 6.88829e-18)
(0.646317 4.99601e-18 3.32386e-17)
(0.650867 -4.11962e-17 7.09483e-18)
(0.650867 4.34642e-18 3.29232e-17)
(0.655365 -4.15657e-17 7.37705e-18)
(0.655365 5.58914e-18 3.24505e-17)
(0.659811 -3.97923e-17 7.76649e-18)
(0.659811 4.31516e-18 3.18702e-17)
(0.664209 -3.88623e-17 8.24696e-18)
(0.664209 4.9145e-18 3.10259e-17)
(0.668559 -4.05911e-17 8.74548e-18)
(0.668559 8.30311e-18 3.02284e-17)
(0.672863 -4.45797e-17 9.13758e-18)
(0.672863 9.91489e-18 2.95451e-17)
(0.677122 -4.65445e-17 9.40639e-18)
(0.677122 1.00687e-17 2.88902e-17)
(0.681338 -4.67957e-17 9.8024e-18)
(0.681338 1.07255e-17 2.81509e-17)
(0.685513 -4.94798e-17 1.03082e-17)
(0.685513 1.01317e-17 2.73053e-17)
(0.689647 -5.34008e-17 1.06934e-17)
(0.689647 8.21185e-18 2.61966e-17)
(0.693742 -5.67158e-17 1.08256e-17)
(0.693742 1.13904e-17 2.51913e-17)
(0.697799 -5.75307e-17 1.08643e-17)
(0.697799 1.42876e-17 2.41949e-17)
(0.701819 -5.85501e-17 1.09087e-17)
(0.701819 1.16381e-17 2.31657e-17)
(0.705803 -6.06173e-17 1.09564e-17)
(0.705803 1.01034e-17 2.20234e-17)
(0.709753 -6.24186e-17 1.11154e-17)
(0.709753 8.57165e-18 2.0621e-17)
(0.71367 -6.36908e-17 1.14011e-17)
(0.71367 3.91676e-18 1.87638e-17)
(0.717554 -6.55581e-17 1.19451e-17)
(0.717554 4.57103e-18 1.64464e-17)
(0.721406 -6.77106e-17 1.27331e-17)
(0.721406 3.99789e-18 1.39213e-17)
(0.725227 -6.8102e-17 1.38958e-17)
(0.725227 -2.56158e-18 1.08644e-17)
(0.729019 -6.51829e-17 1.51571e-17)
(0.729019 -4.67645e-18 7.55973e-18)
(0.732782 -6.32737e-17 1.69206e-17)
(0.732782 -5.08605e-18 4.05015e-18)
(0.736517 -6.56976e-17 1.88103e-17)
(0.736517 -7.58471e-18 3.3872e-19)
(0.740224 -6.8475e-17 2.02541e-17)
(0.740224 -5.5795e-18 -3.10313e-18)
(0.743905 -7.0786e-17 2.14063e-17)
(0.743905 -3.14481e-18 -6.53761e-18)
(0.747561 -7.36336e-17 2.23876e-17)
(0.747561 -2.66356e-18 -9.93628e-18)
(0.751191 -7.64644e-17 2.33871e-17)
(0.751191 -2.48604e-18 -1.31036e-17)
(0.754797 -7.94178e-17 2.39493e-17)
(0.754797 -3.04137e-18 -1.61516e-17)
(0.758379 -8.12636e-17 2.46302e-17)
(0.758379 -6.55849e-20 -1.93868e-17)
(0.761938 -7.92117e-17 2.49931e-17)
(0.761938 2.64289e-18 -2.22964e-17)
(0.765475 -7.79663e-17 2.59125e-17)
(0.765475 1.54724e-18 -2.52366e-17)
(0.768989 -8.16712e-17 2.69916e-17)
(0.768989 5.03162e-19 -2.85072e-17)
(0.772483 -8.34196e-17 2.77557e-17)
(0.772483 -5.95964e-19 -3.17588e-17)
(0.775956 -8.01042e-17 2.88245e-17)
(0.775956 -1.28076e-18 -3.51644e-17)
(0.779409 -7.89364e-17 3.02015e-17)
(0.779409 -4.58278e-18 -3.84402e-17)
(0.782842 -7.6827e-17 3.10927e-17)
(0.782842 -9.43222e-18 -4.13718e-17)
(0.786256 -7.18406e-17 3.24188e-17)
(0.786256 -1.17961e-17 -4.4381e-17)
(0.789652 -7.23204e-17 3.3327e-17)
(0.789652 -8.80804e-18 -4.67803e-17)
(0.793029 -7.68647e-17 3.38777e-17)
(0.793029 -6.04529e-18 -4.88837e-17)
(0.796389 -7.85642e-17 3.35235e-17)
(0.796389 -5.16668e-18 -5.01869e-17)
(0.799731 -8.17394e-17 3.24909e-17)
(0.799731 -2.03367e-18 -5.04195e-17)
(0.803057 -8.57541e-17 3.08215e-17)
(0.803057 2.02582e-18 -5.00424e-17)
(0.806366 -8.48731e-17 2.94456e-17)
(0.806366 -5.36272e-19 -4.94271e-17)
(0.809659 -8.4206e-17 2.87867e-17)
(0.809659 -6.62533e-18 -4.95492e-17)
(0.812937 -8.56022e-17 2.8422e-17)
(0.812937 -6.53574e-18 -4.99915e-17)
(0.816199 -8.74058e-17 2.82425e-17)
(0.816199 -5.78077e-18 -5.07791e-17)
(0.819447 -8.73869e-17 2.78276e-17)
(0.819447 -6.71051e-18 -5.10698e-17)
(0.82268 -8.67612e-17 2.73891e-17)
(0.82268 -9.60211e-18 -5.04894e-17)
(0.825899 -8.64704e-17 2.77415e-17)
(0.825899 -9.923e-18 -4.96274e-17)
(0.829104 -8.68726e-17 2.83353e-17)
(0.829104 -1.03863e-17 -4.85628e-17)
(0.832296 -9.15693e-17 2.90015e-17)
(0.832296 -1.64029e-17 -4.75149e-17)
(0.835474 -9.97155e-17 2.87478e-17)
(0.835474 -2.09639e-17 -4.59086e-17)
(0.838639 -1.02374e-16 2.77651e-17)
(0.838639 -2.26095e-17 -4.37995e-17)
(0.841792 -1.02785e-16 2.69954e-17)
(0.841792 -2.51411e-17 -4.1738e-17)
(0.844933 -1.05085e-16 2.62406e-17)
(0.844933 -2.78596e-17 -3.97611e-17)
(0.848061 -1.05342e-16 2.56493e-17)
(0.848061 -3.04211e-17 -3.7654e-17)
(0.851177 -1.109e-16 2.43346e-17)
(0.851177 -3.6457e-17 -3.50822e-17)
(0.854282 -1.19425e-16 2.26711e-17)
(0.854282 -3.6091e-17 -3.30161e-17)
(0.857376 -1.15444e-16 2.06242e-17)
(0.857376 -4.19617e-17 -3.05989e-17)
(0.860459 -1.05191e-16 2.03676e-17)
(0.860459 -5.58917e-17 -2.85652e-17)
(0.86353 -1.05835e-16 2.09257e-17)
(0.86353 -5.80266e-17 -2.64715e-17)
(0.866591 -1.09747e-16 1.98223e-17)
(0.866591 -5.98946e-17 -2.3559e-17)
(0.869642 -1.111e-16 1.84741e-17)
(0.869642 -6.6751e-17 -2.04009e-17)
(0.872682 -1.20498e-16 1.78647e-17)
(0.872682 -7.10357e-17 -1.7314e-17)
(0.875712 -1.24551e-16 1.66857e-17)
(0.875712 -7.45044e-17 -1.48178e-17)
(0.878732 -1.23441e-16 1.76096e-17)
(0.878732 -7.39763e-17 -1.2972e-17)
(0.881743 -1.34795e-16 1.83674e-17)
(0.881743 -8.10483e-17 -9.77582e-18)
(0.884744 -1.47789e-16 1.66371e-17)
(0.884744 -8.69968e-17 -6.78219e-18)
(0.887736 -1.51187e-16 1.53895e-17)
(0.887736 -7.86121e-17 -3.43252e-18)
(0.890718 -1.4711e-16 1.50267e-17)
(0.890718 -7.8158e-17 -1.39479e-18)
(0.893691 -1.39406e-16 1.55866e-17)