/*--------------------------------*- C++ -*----------------------------------*\
| =========                 |                                                 |
| \\      /  F ield         | OpenFOAM: The Open Source CFD Toolbox           |
|  \\    /   O peration     | Version:  2106                                  |
|   \\  /    A nd           | Website:  www.openfoam.com                      |
|    \\/     M anipulation  |                                                 |
\*---------------------------------------------------------------------------*/
FoamFile
{
    version     2.0;
    format      ascii;
    arch        "LSB;label=32;scalar=64";
    class       volVectorField;
    location    "10040";
    object      grad(T);
}
// * * * * * * * * * * * * * * * * * * * * * * * * * * * * * * * * * * * * * //

dimensions      [0 -1 0 1 0 0 0];

internalField   nonuniform List<vector> 
2000
(
(2.86062e-17 127.82 0.236548)
(-2.86062e-17 127.82 0.236548)
(0 127.82 0.71406)
(0 127.82 0.71406)
(-2.90706e-17 127.82 0.991009)
(0 127.82 0.991009)
(-9.52687e-17 127.82 1.00951)
(3.81075e-16 127.82 1.00951)
(0 127.819 1.02835)
(0 127.819 1.02835)
(0 127.819 1.04754)
(-9.25579e-16 127.819 1.04754)
(0 127.819 1.06709)
(1.20548e-15 127.819 1.06709)
(0 127.818 1.08701)
(2.9812e-15 127.818 1.08701)
(-4.45261e-16 127.818 1.10729)
(0 127.818 1.10729)
(0 127.817 1.12796)
(0 127.817 1.12796)
(7.60831e-16 127.816 1.149)
(1.52166e-15 127.816 1.149)
(6.71326e-16 127.815 1.17044)
(2.68531e-15 127.815 1.17044)
(0 127.814 1.19228)
(0 127.814 1.19228)
(-2.26869e-15 127.813 1.21453)
(0 127.813 1.21453)
(-9.10286e-16 127.812 1.23719)
(-1.41315e-15 127.812 1.23719)
(2.38019e-15 127.811 1.26027)
(-3.97172e-15 127.811 1.26027)
(1.36184e-15 127.809 1.28378)
(0 127.809 1.28378)
(2.32574e-15 127.808 1.30772)
(5.98837e-15 127.808 1.30772)
(-1.25023e-15 127.806 1.33211)
(-2.62477e-15 127.806 1.33211)
(-1.23746e-15 127.804 1.35696)
(7.93353e-15 127.804 1.35696)
(-1.42986e-15 127.801 1.38226)
(1.14389e-14 127.801 1.38226)
(2.4831e-15 127.799 1.40803)
(3.60569e-15 127.799 1.40803)
(0 127.796 1.43428)
(6.46503e-15 127.796 1.43428)
(2.39293e-15 127.793 1.46102)
(4.45535e-15 127.793 1.46102)
(-1.80967e-15 127.789 1.48824)
(0 127.789 1.48824)
(-2.30604e-15 127.785 1.51597)
(9.94239e-15 127.785 1.51597)
(2.53417e-16 127.78 1.54421)
(0 127.78 1.54421)
(-2.11352e-15 127.775 1.57297)
(0 127.775 1.57297)
(0 127.769 1.60225)
(-2.18157e-15 127.769 1.60225)
(-2.32565e-15 127.763 1.63207)
(-1.14442e-14 127.763 1.63207)
(2.43468e-15 127.755 1.66243)
(9.73872e-15 127.755 1.66243)
(0 127.746 1.69334)
(-4.12766e-15 127.746 1.69334)
(-2.65888e-15 127.736 1.7248)
(0 127.736 1.7248)
(-2.77411e-15 127.725 1.75683)
(0 127.725 1.75683)
(-3.90487e-15 127.712 1.78943)
(1.54709e-14 127.712 1.78943)
(0 127.696 1.8226)
(0 127.696 1.8226)
(3.13284e-15 127.679 1.85635)
(1.25314e-14 127.679 1.85635)
(-6.95101e-15 127.659 1.89068)
(1.30276e-14 127.659 1.89068)
(-3.38324e-15 127.635 1.9256)
(0 127.635 1.9256)
(0 127.609 1.9611)
(1.40477e-14 127.609 1.9611)
(-7.28599e-15 127.578 1.99719)
(1.4572e-14 127.578 1.99719)
(0 127.542 2.03386)
(0 127.542 2.03386)
(6.73566e-15 127.501 2.07111)
(0 127.501 2.07111)
(-4.05091e-15 127.454 2.10894)
(-1.62036e-14 127.454 2.10894)
(4.19192e-15 127.399 2.14732)
(1.02766e-14 127.399 2.14732)
(4.33551e-15 127.337 2.18626)
(-1.73421e-14 127.337 2.18626)
(-4.48174e-15 127.265 2.22573)
(1.7927e-14 127.265 2.22573)
(-6.14072e-15 127.183 2.26571)
(4.31858e-14 127.183 2.26571)
(4.78223e-15 127.088 2.30617)
(2.51571e-14 127.088 2.30617)
(-4.93657e-15 126.981 2.3471)
(-2.5664e-14 126.981 2.3471)
(0 126.858 2.38844)
(0 126.858 2.38844)
(4.49195e-16 126.718 2.43017)
(-1.14057e-14 126.718 2.43017)
(5.59833e-15 126.559 2.47222)
(0 126.559 2.47222)
(0 126.378 2.51455)
(-2.23284e-14 126.378 2.51455)
(3.55643e-16 126.174 2.55709)
(-1.07901e-14 126.174 2.55709)
(-1.65145e-14 125.943 2.59977)
(1.05923e-14 125.943 2.59977)
(-6.99419e-15 125.683 2.6425)
(2.43866e-14 125.683 2.6425)
(-6.27409e-15 125.391 2.6852)
(0 125.391 2.6852)
(-1.2909e-14 125.063 2.72777)
(-2.5818e-14 125.063 2.72777)
(6.63791e-15 124.698 2.77011)
(-2.65516e-14 124.698 2.77011)
(0 124.29 2.81208)
(-9.65677e-15 124.29 2.81208)
(-2.35071e-14 123.837 2.85358)
(6.55891e-14 123.837 2.85358)
(-7.206e-15 123.336 2.89446)
(2.8824e-14 123.336 2.89446)
(0 122.782 2.9346)
(0 122.782 2.9346)
(-1.65676e-14 122.174 2.97383)
(3.03978e-14 122.174 2.97383)
(0 121.507 3.01201)
(-8.80382e-15 121.507 3.01201)
(-8.00438e-15 120.778 3.04899)
(-8.64249e-15 120.778 3.04899)
(8.48412e-15 119.985 3.08461)
(-8.48412e-15 119.985 3.08461)
(0 119.126 3.11872)
(3.36812e-14 119.126 3.11872)
(0 118.199 3.15118)
(0 118.199 3.15118)
(-8.84661e-15 117.201 3.18183)
(3.53864e-14 117.201 3.18183)
(0 116.132 3.21055)
(3.62536e-14 116.132 3.21055)
(-9.28248e-15 114.992 3.2372)
(-3.71299e-14 114.992 3.2372)
(1.5186e-14 113.78 3.26169)
(-3.80148e-14 113.78 3.26169)
(-1.94539e-14 112.498 3.2839)
(3.89078e-14 112.498 3.2839)
(-1.99041e-14 111.147 3.30376)
(0 111.147 3.30376)
(0 109.729 3.32121)
(4.07155e-14 109.729 3.32121)
(-2.45104e-14 108.246 3.3362)
(-4.1629e-14 108.246 3.3362)
(1.0637e-14 106.702 3.34872)
(0 106.702 3.34872)
(1.0868e-14 105.1 3.35875)
(-4.3472e-14 105.1 3.35875)
(-2.22e-14 103.445 3.36631)
(-1.33419e-14 103.445 3.36631)
(0 101.742 3.37144)
(0 101.742 3.37144)
(1.15664e-14 99.994 3.37417)
(-9.25315e-14 99.994 3.37417)
(1.18005e-14 98.2079 3.37459)
(0 98.2079 3.37459)
(0 96.3885 3.37277)
(4.81397e-14 96.3885 3.37277)
(1.22695e-14 94.5412 3.36879)
(4.9078e-14 94.5412 3.36879)
(-1.30676e-14 92.6715 3.36278)
(0 92.6715 3.36278)
(-2.54771e-14 90.7847 3.35482)
(7.43978e-14 90.7847 3.35482)
(-1.00413e-14 88.8863 3.34506)
(1.26795e-13 88.8863 3.34506)
(-1.32064e-14 86.9812 3.33359)
(0 86.9812 3.33359)
(-2.6879e-14 85.0743 3.32056)
(5.3758e-14 85.0743 3.32056)
(-1.36719e-14 83.1702 3.30608)
(5.46877e-14 83.1702 3.30608)
(0 81.2733 3.29029)
(-2.13729e-14 81.2733 3.29029)
(1.41342e-14 79.3875 3.27329)
(5.65368e-14 79.3875 3.27329)
(1.43638e-14 77.5167 3.25523)
(5.74553e-14 77.5167 3.25523)
(-1.45923e-14 75.664 3.2362)
(5.83694e-14 75.664 3.2362)
(-5.02917e-15 73.8326 3.21634)
(1.98488e-14 73.8326 3.21634)
(4.43941e-15 72.025 3.19573)
(4.06977e-14 72.025 3.19573)
(1.52704e-14 70.2438 3.17449)
(0 70.2438 3.17449)
(-1.54937e-14 68.4909 3.1527)
(4.31972e-14 68.4909 3.1527)
(3.4149e-14 66.7681 3.13047)
(4.44287e-14 66.7681 3.13047)
(0 65.0769 3.10786)
(6.37436e-14 65.0769 3.10786)
(0 63.4186 3.08497)
(-8.2383e-14 63.4186 3.08497)
(1.74385e-14 61.794 3.06186)
(4.80494e-14 61.794 3.06186)
(-1.65877e-14 60.2041 3.0386)
(0 60.2041 3.0386)
(-1.68018e-14 58.6493 3.01525)
(6.72071e-14 58.6493 3.01525)
(0 57.13 2.99186)
(1.64973e-14 57.13 2.99186)
(0 55.6465 2.96848)
(0 55.6465 2.96848)
(3.33326e-14 54.1988 2.94516)
(6.97372e-14 54.1988 2.94516)
(-1.3572e-14 52.7869 2.92194)
(7.05675e-14 52.7869 2.92194)
(0 51.4106 2.89885)
(7.13914e-14 51.4106 2.89885)
(-3.61043e-14 50.0696 2.87593)
(7.22087e-14 50.0696 2.87593)
(1.82549e-14 48.7635 2.8532)
(7.30195e-14 48.7635 2.8532)
(0 47.492 2.83069)
(-7.38239e-14 47.492 2.83069)
(0 46.2545 2.80843)
(-2.84568e-14 46.2545 2.80843)
(-3.77068e-14 45.0504 2.78642)
(0 45.0504 2.78642)
(8.37369e-15 43.8792 2.7647)
(-2.74235e-14 43.8792 2.7647)
(-2.69209e-14 42.7402 2.74326)
(-7.69784e-14 42.7402 2.74326)
(3.88758e-14 41.6328 2.72213)
(0 41.6328 2.72213)
(1.3316e-14 40.5562 2.70132)
(7.85186e-14 40.5562 2.70132)
(-1.98199e-14 39.5097 2.68082)
(7.92798e-14 39.5097 2.68082)
(4.00175e-14 38.4927 2.66065)
(-2.50013e-14 38.4927 2.66065)
(4.47392e-14 37.5043 2.64082)
(8.07845e-14 37.5043 2.64082)
(-2.03821e-14 36.5439 2.62132)
(-2.40934e-14 36.5439 2.62132)
(-2.36519e-14 35.6106 2.60216)
(1.64533e-13 35.6106 2.60216)
(-4.39683e-14 34.7039 2.58334)
(0 34.7039 2.58334)
(-2.2793e-14 33.8229 2.56486)
(1.67453e-13 33.8229 2.56486)
(-2.11121e-14 32.967 2.54673)
(0 32.967 2.54673)
(0 32.1353 2.52893)
(8.51652e-14 32.1353 2.52893)
(2.14692e-14 31.3273 2.51147)
(1.71754e-13 31.3273 2.51147)
(-2.16458e-14 30.5422 2.49434)
(8.65834e-14 30.5422 2.49434)
(1.0415e-15 29.7793 2.47754)
(6.65053e-14 29.7793 2.47754)
(-3.19296e-15 29.038 2.46108)
(4.71839e-14 29.038 2.46108)
(-6.00755e-14 28.3177 2.44493)
(2.17398e-13 28.3177 2.44493)
(0 27.6176 2.42911)
(5.00448e-14 27.6176 2.42911)
(-2.2511e-14 26.9373 2.4136)
(0 26.9373 2.4136)
(2.26806e-14 26.276 2.39841)
(0 26.276 2.39841)
(1.85972e-14 25.6332 2.38351)
(-1.85972e-14 25.6332 2.38351)
(-2.30165e-14 25.0083 2.36892)
(-3.65128e-14 25.0083 2.36892)
(-2.31829e-14 24.4008 2.35463)
(-1.28575e-13 24.4008 2.35463)
(-2.33482e-14 23.8101 2.34062)
(1.86786e-13 23.8101 2.34062)
(0 23.2357 2.32689)
(9.40501e-14 23.2357 2.32689)
(1.02333e-14 22.6772 2.31345)
(6.07942e-14 22.6772 2.31345)
(0 22.1339 2.30027)
(9.53528e-14 22.1339 2.30027)
(-2.39996e-14 21.6054 2.28736)
(9.59984e-14 21.6054 2.28736)
(0 21.0913 2.27471)
(9.66403e-14 21.0913 2.27471)
(-2.43196e-14 20.5912 2.26231)
(0 20.5912 2.26231)
(-2.44783e-14 20.1045 2.25016)
(0 20.1045 2.25016)
(-2.46361e-14 19.6308 2.23826)
(0 19.6308 2.23826)
(-4.99846e-15 19.1698 2.22658)
(-9.91721e-14 19.1698 2.22658)
(0 18.7211 2.21514)
(0 18.7211 2.21514)
(0 18.2842 2.20391)
(0 18.2842 2.20391)
(5.34424e-14 17.8589 2.19291)
(0 17.8589 2.19291)
(-2.54125e-14 17.4447 2.18211)
(1.0165e-13 17.4447 2.18211)
(-2.55654e-14 17.0413 2.17151)
(1.02262e-13 17.0413 2.17151)
(-2.57175e-14 16.6483 2.16112)
(0 16.6483 2.16112)
(0 16.2655 2.15091)
(1.03476e-13 16.2655 2.15091)
(-2.60195e-14 15.8926 2.14089)
(-1.29772e-13 15.8926 2.14089)
(2.61694e-14 15.5291 2.13105)
(1.04678e-13 15.5291 2.13105)
(2.63186e-14 15.175 2.12138)
(1.54797e-13 15.175 2.12138)
(2.64672e-14 14.8297 2.11188)
(0 14.8297 2.11188)
(0 14.4932 2.10254)
(1.0646e-13 14.4932 2.10254)
(-2.67622e-14 14.165 2.09335)
(0 14.165 2.09335)
(0 13.845 2.08431)
(1.07635e-13 13.845 2.08431)
(-2.70545e-14 13.5329 2.07541)
(-4.51482e-14 13.5329 2.07541)
(0 13.2285 2.06664)
(2.21604e-14 13.2285 2.06664)
(4.35087e-14 12.9315 2.058)
(1.09377e-13 12.9315 2.058)
(-4.27114e-14 12.6418 2.04949)
(1.52665e-13 12.6418 2.04949)
(-2.76317e-14 12.359 2.04108)
(0 12.359 2.04108)
(-2.77745e-14 12.083 2.03279)
(0 12.083 2.03279)
(-2.79167e-14 11.8136 2.0246)
(0 11.8136 2.0246)
(5.61166e-14 11.5506 2.01651)
(7.25675e-14 11.5506 2.01651)
(-4.56592e-14 11.2937 2.0085)
(1.12797e-13 11.2937 2.0085)
(0 11.0429 2.00058)
(1.13359e-13 11.0429 2.00058)
(9.04513e-15 10.7979 1.99273)
(-3.75249e-14 10.7979 1.99273)
(-2.86191e-14 10.5585 1.98494)
(0 10.5585 1.98494)
(0 10.3246 1.97722)
(0 10.3246 1.97722)
(0 10.0961 1.96955)
(1.15585e-13 10.0961 1.96955)
(-2.90339e-14 9.87265 1.96193)
(-1.16135e-13 9.87265 1.96193)
(0 9.65424 1.95434)
(0 9.65424 1.95434)
(-6.28912e-14 9.44068 1.94678)
(-2.34462e-13 9.44068 1.94678)
(-6.2412e-14 9.23183 1.93925)
(0 9.23183 1.93925)
(0 9.02755 1.93173)
(0 9.02755 1.93173)
(0 8.82769 1.92421)
(1.18858e-13 8.82769 1.92421)
(-5.96982e-14 8.63213 1.91669)
(2.38793e-13 8.63213 1.91669)
(0 8.44074 1.90916)
(1.19933e-13 8.44074 1.90916)
(-3.01167e-14 8.25339 1.9016)
(0 8.25339 1.9016)
(2.95054e-14 8.06995 1.89401)
(-1.20999e-13 8.06995 1.89401)
(-3.03821e-14 7.89031 1.88638)
(0 7.89031 1.88638)
(-2.84339e-14 7.71435 1.8787)
(1.5049e-13 7.71435 1.8787)
(-2.79129e-14 7.54196 1.87096)
(1.50495e-13 7.54196 1.87096)
(-2.40264e-14 7.37303 1.86314)
(3.01014e-13 7.37303 1.86314)
(3.09068e-14 7.20745 1.85523)
(1.23627e-13 7.20745 1.85523)
(0 7.04511 1.84723)
(1.24147e-13 7.04511 1.84723)
(5.70884e-14 6.88591 1.83912)
(1.24664e-13 6.88591 1.83912)
(-3.12947e-14 6.72975 1.83088)
(2.50358e-13 6.72975 1.83088)
(-3.14229e-14 6.57654 1.82251)
(-1.25692e-13 6.57654 1.82251)
(0 6.42617 1.81398)
(0 6.42617 1.81398)
(-3.16777e-14 6.27855 1.80529)
(0 6.27855 1.80529)
(-6.36083e-14 6.13358 1.79642)
(-4.72657e-14 6.13358 1.79642)
(-7.83296e-14 5.99119 1.78735)
(1.2772e-13 5.99119 1.78735)
(0 5.85127 1.77806)
(0 5.85127 1.77806)
(-3.21801e-14 5.71374 1.76853)
(0 5.71374 1.76853)
(-4.38952e-14 5.57851 1.75875)
(0 5.57851 1.75875)
(3.24276e-14 5.44549 1.74869)
(2.59421e-13 5.44549 1.74869)
(1.07402e-13 5.31461 1.73834)
(-1.72503e-13 5.31461 1.73834)
(6.53449e-14 5.18577 1.72767)
(0 5.18577 1.72767)
(2.48226e-14 5.05888 1.71665)
(3.03116e-13 5.05888 1.71665)
(3.29146e-14 4.93388 1.70526)
(9.16402e-14 4.93388 1.70526)
(3.30345e-14 4.81067 1.69347)
(1.32138e-13 4.81067 1.69347)
(-3.31537e-14 4.68917 1.68126)
(1.32615e-13 4.68917 1.68126)
(4.58607e-15 4.5693 1.66858)
(-3.78582e-14 4.5693 1.66858)
(0 4.45097 1.65541)
(1.33559e-13 4.45097 1.65541)
(-6.70131e-14 4.3341 1.64172)
(1.34026e-13 4.3341 1.64172)
(-3.36224e-14 4.2186 1.62745)
(0 4.2186 1.62745)
(0 4.10439 1.61257)
(2.69899e-13 4.10439 1.61257)
(0 3.99137 1.59704)
(-3.45143e-14 3.99137 1.59704)
(3.39645e-14 3.87947 1.58081)
(-1.6974e-13 3.87947 1.58081)
(3.40766e-14 3.76858 1.56383)
(0 3.76858 1.56383)
(-3.57236e-14 3.65861 1.54603)
(0 3.65861 1.54603)
(3.65417e-14 3.54947 1.52736)
(-3.20532e-14 3.54947 1.52736)
(0 3.44105 1.50776)
(1.37625e-13 3.44105 1.50776)
(0 3.33324 1.48715)
(1.99833e-13 3.33324 1.48715)
(3.46198e-14 3.22595 1.46545)
(1.38479e-13 3.22595 1.46545)
(0 3.11905 1.44258)
(-1.38899e-13 3.11905 1.44258)
(-5.6061e-15 3.01242 1.41845)
(-2.9222e-14 3.01242 1.41845)
(-3.49301e-14 2.90594 1.39295)
(1.11034e-13 2.90594 1.39295)
(0 2.79948 1.36598)
(1.40122e-13 2.79948 1.36598)
(-3.51292e-14 2.69288 1.33742)
(-1.40517e-13 2.69288 1.33742)
(8.95028e-14 2.58599 1.30712)
(2.27534e-13 2.58599 1.30712)
(0 2.47866 1.27495)
(8.80038e-14 2.47866 1.27495)
(-3.54146e-14 2.37072 1.24075)
(0 2.37072 1.24075)
(3.55058e-14 2.26197 1.20433)
(1.42023e-13 2.26197 1.20433)
(1.48114e-14 2.15223 1.16551)
(1.42379e-13 2.15223 1.16551)
(-3.56814e-14 2.04128 1.12408)
(1.42725e-13 2.04128 1.12408)
(0 1.9289 1.07981)
(0 1.9289 1.07981)
(8.35326e-14 1.81486 1.03245)
(0 1.81486 1.03245)
(-7.18514e-14 1.69891 0.981723)
(1.43703e-13 1.69891 0.981723)
(0 1.58081 0.927353)
(4.59539e-14 1.58081 0.927353)
(0 1.46029 0.869032)
(0 1.46029 0.869032)
(3.61428e-14 1.3371 0.806438)
(1.44571e-13 1.3371 0.806438)
(-3.62081e-14 1.21099 0.739242)
(1.44832e-13 1.21099 0.739242)
(-3.62694e-14 1.08172 0.667111)
(-4.2677e-14 1.08172 0.667111)
(4.1895e-14 0.949084 0.589717)
(-4.1895e-14 0.949084 0.589717)
(0 0.812921 0.506749)
(-1.45515e-13 0.812921 0.506749)
(-3.64263e-14 0.673117 0.417923)
(0 0.673117 0.417923)
(-3.64685e-14 0.529628 0.322996)
(1.45874e-13 0.529628 0.322996)
(0 0.382486 0.221778)
(1.4602e-13 0.382486 0.221778)
(-3.65353e-14 0.231812 0.114136)
(0 0.231812 0.114136)
(-7.40537e-14 2.30518e-06 8.5321e-07)
(2.92589e-13 1.47812e-06 5.47091e-07)
(0 127.82 -0.236548)
(-5.72123e-17 127.82 -0.236548)
(-2.24656e-16 127.82 -0.71406)
(0 127.82 -0.71406)
(-5.81413e-17 127.82 -0.991009)
(0 127.82 -0.991009)
(9.52687e-17 127.82 -1.00951)
(0 127.82 -1.00951)
(-3.25405e-16 127.819 -1.02835)
(0 127.819 -1.02835)
(2.31395e-16 127.819 -1.04754)
(-8.34543e-16 127.819 -1.04754)
(0 127.819 -1.06709)
(-4.09625e-16 127.819 -1.06709)
(1.54954e-15 127.818 -1.08701)
(-8.04238e-16 127.818 -1.08701)
(-1.23476e-15 127.818 -1.10729)
(2.57054e-15 127.818 -1.10729)
(5.19227e-16 127.817 -1.12796)
(-2.07691e-15 127.817 -1.12796)
(4.28317e-16 127.816 -1.149)
(-2.3783e-15 127.816 -1.149)
(6.71326e-16 127.815 -1.17044)
(0 127.815 -1.17044)
(7.16893e-16 127.814 -1.19228)
(-4.46445e-15 127.814 -1.19228)
(1.43953e-15 127.813 -1.21453)
(-3.31662e-15 127.813 -1.21453)
(9.10286e-16 127.812 -1.23719)
(-3.64114e-15 127.812 -1.23719)
(-1.38726e-15 127.811 -1.26027)
(0 127.811 -1.26027)
(1.07712e-15 127.809 -1.28378)
(-5.6703e-15 127.809 -1.28378)
(1.16287e-15 127.808 -1.30772)
(4.65149e-15 127.808 -1.30772)
(1.25023e-15 127.806 -1.33211)
(0 127.806 -1.33211)
(2.67843e-15 127.804 -1.35696)
(-2.57667e-15 127.804 -1.35696)
(3.95932e-15 127.801 -1.38226)
(3.18999e-15 127.801 -1.38226)
(1.5222e-15 127.799 -1.40803)
(3.60569e-15 127.799 -1.40803)
(-1.61626e-15 127.796 -1.43428)
(0 127.796 -1.43428)
(5.81707e-15 127.793 -1.46102)
(-2.39293e-15 127.793 -1.46102)
(1.80967e-15 127.789 -1.48824)
(0 127.789 -1.48824)
(0 127.785 -1.51597)
(2.30604e-15 127.785 -1.51597)
(0 127.78 -1.54421)
(-2.26378e-15 127.78 -1.54421)
(4.22704e-15 127.775 -1.57297)
(0 127.775 -1.57297)
(2.2186e-15 127.769 -1.60225)
(8.87442e-15 127.769 -1.60225)
(4.65129e-15 127.763 -1.63207)
(0 127.763 -1.63207)
(2.43468e-15 127.755 -1.66243)
(0 127.755 -1.66243)
(2.54574e-15 127.746 -1.69334)
(0 127.746 -1.69334)
(2.65888e-15 127.736 -1.7248)
(-6.58349e-15 127.736 -1.7248)
(0 127.725 -1.75683)
(-1.10965e-14 127.725 -1.75683)
(0 127.712 -1.78943)
(3.90487e-15 127.712 -1.78943)
(3.01106e-15 127.696 -1.8226)
(-1.20442e-14 127.696 -1.8226)
(6.26569e-15 127.679 -1.85635)
(-3.76307e-15 127.679 -1.85635)
(-3.25689e-15 127.659 -1.89068)
(-1.30276e-14 127.659 -1.89068)
(-3.38324e-15 127.635 -1.9256)
(-2.70659e-14 127.635 -1.9256)
(-3.51192e-15 127.609 -1.9611)
(-3.55997e-15 127.609 -1.9611)
(-3.64299e-15 127.578 -1.99719)
(0 127.578 -1.99719)
(-3.77649e-15 127.542 -2.03386)
(-3.02119e-14 127.542 -2.03386)
(7.82489e-15 127.501 -2.07111)
(0 127.501 -2.07111)
(4.05091e-15 127.454 -2.10894)
(-2.28159e-14 127.454 -2.10894)
(8.38384e-15 127.399 -2.14732)
(1.02766e-14 127.399 -2.14732)
(1.07076e-14 127.337 -2.18626)
(-2.37142e-14 127.337 -2.18626)
(-8.96348e-15 127.265 -2.22573)
(-1.7927e-14 127.265 -2.22573)
(9.26126e-15 127.183 -2.26571)
(1.85225e-14 127.183 -2.26571)
(0 127.088 -2.30617)
(0 127.088 -2.30617)
(-4.93657e-15 126.981 -2.3471)
(-3.94926e-14 126.981 -2.3471)
(5.0937e-15 126.858 -2.38844)
(-2.03748e-14 126.858 -2.38844)
(-6.15203e-15 126.718 -2.43017)
(1.14057e-14 126.718 -2.43017)
(5.59833e-15 126.559 -2.47222)
(-4.89298e-14 126.559 -2.47222)
(5.5821e-15 126.378 -2.51455)
(0 126.378 -2.51455)
(7.11285e-16 126.174 -2.55709)
(1.07901e-14 126.174 -2.55709)
(0 125.943 -2.59977)
(-3.42811e-14 125.943 -2.59977)
(1.12958e-14 125.683 -2.6425)
(-1.03982e-14 125.683 -2.6425)
(6.27409e-15 125.391 -2.6852)
(-2.50964e-14 125.391 -2.6852)
(0 125.063 -2.72777)
(-2.5818e-14 125.063 -2.72777)
(0 124.698 -2.77011)
(-2.65516e-14 124.698 -2.77011)
(6.8243e-15 124.29 -2.81208)
(0 124.29 -2.81208)
(0 123.837 -2.85358)
(-9.47981e-15 123.837 -2.85358)
(1.65121e-14 123.336 -2.89446)
(-9.30609e-15 123.336 -2.89446)
(7.40127e-15 122.782 -2.9346)
(-9.13556e-15 122.782 -2.9346)
(0 122.174 -2.97383)
(-3.03978e-14 122.174 -2.97383)
(-8.80382e-15 121.507 -3.01201)
(8.80382e-15 121.507 -3.01201)
(8.00438e-15 120.778 -3.04899)
(-3.20175e-14 120.778 -3.04899)
(0 119.985 -3.08461)
(-3.2844e-14 119.985 -3.08461)
(0 119.126 -3.11872)
(0 119.126 -3.11872)
(-8.6322e-15 118.199 -3.15118)
(6.90576e-14 118.199 -3.15118)
(8.02621e-15 117.201 -3.18183)
(0 117.201 -3.18183)
(9.06341e-15 116.132 -3.21055)
(-3.62536e-14 116.132 -3.21055)
(9.28248e-15 114.992 -3.2372)
(-3.71299e-14 114.992 -3.2372)
(1.5186e-14 113.78 -3.26169)
(-7.60297e-14 113.78 -3.26169)
(-9.72695e-15 112.498 -3.2839)
(-1.49077e-14 112.498 -3.2839)
(0 111.147 -3.30376)
(0 111.147 -3.30376)
(0 109.729 -3.32121)
(4.07155e-14 109.729 -3.32121)
(3.69587e-15 108.246 -3.3362)
(-1.80619e-13 108.246 -3.3362)
(2.1274e-14 106.702 -3.34872)
(-4.25481e-14 106.702 -3.34872)
(-1.0868e-14 105.1 -3.35875)
(0 105.1 -3.35875)
(-1.11e-14 103.445 -3.36631)
(-4.44e-14 103.445 -3.36631)
(3.52916e-15 101.742 -3.37144)
(-7.15264e-14 101.742 -3.37144)
(1.29101e-15 99.994 -3.37417)
(-1.05389e-13 99.994 -3.37417)
(2.3601e-14 98.2079 -3.37459)
(-4.7202e-14 98.2079 -3.37459)
(1.20349e-14 96.3885 -3.37277)
(4.81397e-14 96.3885 -3.37277)
(0 94.5412 -3.36879)
(4.9078e-14 94.5412 -3.36879)
(1.25041e-14 92.6715 -3.36278)
(-6.1957e-14 92.6715 -3.36278)
(-3.71989e-14 90.7847 -3.35482)
(2.75106e-14 90.7847 -3.35482)
(1.29727e-14 88.8863 -3.34506)
(-2.3014e-14 88.8863 -3.34506)
(-1.91025e-15 86.9812 -3.33359)
(0 86.9812 -3.33359)
(0 85.0743 -3.32056)
(-2.21783e-14 85.0743 -3.32056)
(1.36719e-14 83.1702 -3.30608)
(5.46877e-14 83.1702 -3.30608)
(2.13729e-14 81.2733 -3.29029)
(-5.56141e-14 81.2733 -3.29029)
(0 79.3875 -3.27329)
(-2.09813e-14 79.3875 -3.27329)
(1.43638e-14 77.5167 -3.25523)
(3.68585e-14 77.5167 -3.25523)
(0 75.664 -3.2362)
(0 75.664 -3.2362)
(0 73.8326 -3.21634)
(-1.18557e-13 73.8326 -3.21634)
(0 72.025 -3.19573)
(0 72.025 -3.19573)
(1.52704e-14 70.2438 -3.17449)
(-8.02096e-14 70.2438 -3.17449)
(1.54937e-14 68.4909 -3.1527)
(0 68.4909 -3.1527)
(1.57155e-14 66.7681 -3.13047)
(1.25724e-13 66.7681 -3.13047)
(1.59359e-14 65.0769 -3.10786)
(0 65.0769 -3.10786)
(1.61547e-14 63.4186 -3.08497)
(-6.46189e-14 63.4186 -3.08497)
(-1.06655e-15 61.794 -3.06186)
(6.5488e-14 61.794 -3.06186)
(0 60.2041 -3.0386)
(0 60.2041 -3.0386)
(-1.68018e-14 58.6493 -3.01525)
(-6.72071e-14 58.6493 -3.01525)
(0 57.13 -2.99186)
(0 57.13 -2.99186)
(1.6195e-14 55.6465 -2.96848)
(-1.6195e-14 55.6465 -2.96848)
(1.58983e-14 54.1988 -2.94516)
(0 54.1988 -2.94516)
(4.68208e-14 52.7869 -2.92194)
(-8.61745e-14 52.7869 -2.92194)
(-3.06419e-14 51.4106 -2.89885)
(-1.53209e-14 51.4106 -2.89885)
(0 50.0696 -2.87593)
(-1.50402e-14 50.0696 -2.87593)
(-1.12743e-14 48.7635 -2.8532)
(0 48.7635 -2.8532)
(-1.8456e-14 47.492 -2.83069)
(0 47.492 -2.83069)
(-1.86555e-14 46.2545 -2.80843)
(0 46.2545 -2.80843)
(1.88534e-14 45.0504 -2.78642)
(0 45.0504 -2.78642)
(0 43.8792 -2.7647)
(0 43.8792 -2.7647)
(-3.84892e-14 42.7402 -2.74326)
(-1.53957e-13 42.7402 -2.74326)
(0 41.6328 -2.72213)
(0 41.6328 -2.72213)
(1.96297e-14 40.5562 -2.70132)
(0 40.5562 -2.70132)
(0 39.5097 -2.68082)
(5.38118e-14 39.5097 -2.68082)
(0 38.4927 -2.66065)
(-8.0035e-14 38.4927 -2.66065)
(0 37.5043 -2.64082)
(-1.05328e-13 37.5043 -2.64082)
(-2.03821e-14 36.5439 -2.62132)
(-8.15283e-14 36.5439 -2.62132)
(2.36519e-14 35.6106 -2.60216)
(5.86147e-14 35.6106 -2.60216)
(2.07498e-14 34.7039 -2.58334)
(2.32185e-14 34.7039 -2.58334)
(4.18632e-14 33.8229 -2.56486)
(8.37265e-14 33.8229 -2.56486)
(-2.11121e-14 32.967 -2.54673)
(6.20732e-14 32.967 -2.54673)
(0 32.1353 -2.52893)
(-2.19653e-14 32.1353 -2.52893)
(4.3032e-14 31.3273 -2.51147)
(-2.15628e-14 31.3273 -2.51147)
(2.16458e-14 30.5422 -2.49434)
(8.65834e-14 30.5422 -2.49434)
(2.18213e-14 29.7793 -2.47754)
(6.65053e-14 29.7793 -2.47754)
(6.27934e-14 29.038 -2.46108)
(-4.0798e-14 29.038 -2.46108)
(2.00252e-14 28.3177 -2.44493)
(-8.86739e-14 28.3177 -2.44493)
(4.19985e-14 27.6176 -2.42911)
(0 27.6176 -2.42911)
(-3.21303e-15 26.9373 -2.4136)
(-3.8596e-14 26.9373 -2.4136)
(0 26.276 -2.39841)
(0 26.276 -2.39841)
(4.25189e-15 25.6332 -2.38351)
(0 25.6332 -2.38351)
(4.6033e-14 25.0083 -2.36892)
(0 25.0083 -2.36892)
(0 24.4008 -2.35463)
(0 24.4008 -2.35463)
(2.33482e-14 23.8101 -2.34062)
(1.86786e-13 23.8101 -2.34062)
(3.45421e-14 23.2357 -2.32689)
(-3.45421e-14 23.2357 -2.32689)
(-5.7585e-14 22.6772 -2.31345)
(0 22.6772 -2.31345)
(9.44959e-15 22.1339 -2.30027)
(-3.32878e-14 22.1339 -2.30027)
(0 21.6054 -2.28736)
(6.53556e-14 21.6054 -2.28736)
(2.41601e-14 21.0913 -2.27471)
(0 21.0913 -2.27471)
(3.14912e-14 20.5912 -2.26231)
(0 20.5912 -2.26231)
(4.89566e-14 20.1045 -2.25016)
(-9.79132e-14 20.1045 -2.25016)
(4.92722e-14 19.6308 -2.23826)
(-9.85444e-14 19.6308 -2.23826)
(-2.4793e-14 19.1698 -2.22658)
(-2.67725e-13 19.1698 -2.22658)
(-2.49491e-14 18.7211 -2.21514)
(-5.84911e-14 18.7211 -2.21514)
(0 18.2842 -2.20391)
(7.17079e-14 18.2842 -2.20391)
(-5.63671e-14 17.8589 -2.19291)
(-2.81836e-14 17.8589 -2.19291)
(2.54125e-14 17.4447 -2.18211)
(0 17.4447 -2.18211)
(-2.55654e-14 17.0413 -2.17151)
(-1.02262e-13 17.0413 -2.17151)
(2.66624e-14 16.6483 -2.16112)
(-2.66624e-14 16.6483 -2.16112)
(2.58689e-14 16.2655 -2.15091)
(1.03476e-13 16.2655 -2.15091)
(5.2039e-14 15.8926 -2.14089)
(-1.04078e-13 15.8926 -2.14089)
(0 15.5291 -2.13105)
(-1.04678e-13 15.5291 -2.13105)
(2.63186e-14 15.175 -2.12138)
(-2.47612e-14 15.175 -2.12138)
(-4.86148e-14 14.8297 -2.11188)
(-1.05869e-13 14.8297 -2.11188)
(0 14.4932 -2.10254)
(-2.60644e-13 14.4932 -2.10254)
(-2.34247e-14 14.165 -2.09335)
(-4.68495e-14 14.165 -2.09335)
(5.38174e-14 13.845 -2.08431)
(1.07635e-13 13.845 -2.08431)
(7.22027e-14 13.5329 -2.07541)
(-4.51482e-14 13.5329 -2.07541)
(0 13.2285 -2.06664)
(1.08799e-13 13.2285 -2.06664)
(2.73444e-14 12.9315 -2.058)
(-1.09377e-13 12.9315 -2.058)
(4.27114e-14 12.6418 -2.04949)
(-1.52665e-13 12.6418 -2.04949)
(0 12.359 -2.04108)
(0 12.359 -2.04108)
(2.77745e-14 12.083 -2.03279)
(-1.52258e-13 12.083 -2.03279)
(5.58334e-14 11.8136 -2.0246)
(-1.11667e-13 11.8136 -2.0246)
(2.80583e-14 11.5506 -2.01651)
(7.25675e-14 11.5506 -2.01651)
(5.63987e-14 11.2937 -2.0085)
(7.38585e-14 11.2937 -2.0085)
(2.83398e-14 11.0429 -2.00058)
(0 11.0429 -2.00058)
(9.04513e-15 10.7979 -1.99273)
(-3.75249e-14 10.7979 -1.99273)
(2.86191e-14 10.5585 -1.98494)
(-1.14476e-13 10.5585 -1.98494)
(2.87579e-14 10.3246 -1.97722)
(7.88693e-14 10.3246 -1.97722)
(5.77923e-14 10.0961 -1.96955)
(0 10.0961 -1.96955)
(0 9.87265 -1.96193)
(1.16135e-13 9.87265 -1.96193)
(-2.91711e-14 9.65424 -1.95434)
(-1.16684e-13 9.65424 -1.95434)
(5.86154e-14 9.44068 -1.94678)
(-1.50814e-13 9.44068 -1.94678)
(-2.94438e-14 9.23183 -1.93925)
(-2.68519e-13 9.23183 -1.93925)
(6.19434e-14 9.02755 -1.93173)
(-1.50682e-13 9.02755 -1.93173)
(-3.17709e-14 8.82769 -1.92421)
(8.70872e-14 8.82769 -1.92421)
(2.85095e-14 8.63213 -1.91669)
(1.19396e-13 8.63214 -1.91669)
(9.12176e-14 8.44074 -1.90916)
(-1.5055e-13 8.44074 -1.90916)
(3.01167e-14 8.25339 -1.9016)
(-3.00562e-14 8.25339 -1.9016)
(2.95054e-14 8.06995 -1.89401)
(-1.50504e-13 8.06995 -1.89401)
(0 7.89031 -1.88638)
(-1.21529e-13 7.89031 -1.88638)
(0 7.71435 -1.8787)
(-1.5049e-13 7.71435 -1.8787)
(5.58258e-14 7.54196 -1.87096)
(0 7.54196 -1.87096)
(3.07765e-14 7.37303 -1.86314)
(-2.74014e-14 7.37303 -1.86314)
(3.09068e-14 7.20745 -1.85523)
(1.23627e-13 7.20745 -1.85523)
(5.7443e-14 7.04511 -1.84723)
(-2.64064e-14 7.04511 -1.84723)
(0 6.88591 -1.83912)
(1.24664e-13 6.88591 -1.83912)
(0 6.72975 -1.83088)
(0 6.72975 -1.83088)
(0 6.57654 -1.82251)
(-1.25692e-13 6.57654 -1.82251)
(-4.90467e-14 6.42617 -1.81398)
(0 6.42617 -1.81398)
(1.64703e-14 6.27855 -1.80529)
(-4.8148e-14 6.27855 -1.80529)
(-3.18042e-14 6.13358 -1.79642)
(-1.27217e-13 6.13358 -1.79642)
(-3.19301e-14 5.99119 -1.78735)
(-1.2772e-13 5.99119 -1.78735)
(0 5.85127 -1.77806)
(0 5.85127 -1.77806)
(4.47146e-14 5.71374 -1.76853)
(-2.57441e-13 5.71374 -1.76853)
(4.38952e-14 5.57851 -1.75875)
(-1.73112e-13 5.57851 -1.75875)
(0 5.44549 -1.74869)
(0 5.44549 -1.74869)
(0 5.31461 -1.73834)
(-1.72503e-13 5.31461 -1.73834)
(8.85361e-15 5.18577 -1.72767)
(0 5.18577 -1.72767)
(6.55878e-14 5.05888 -1.71665)
(1.31176e-13 5.05888 -1.71665)
(1.05847e-13 4.93388 -1.70526)
(-4.00181e-14 4.93388 -1.70526)
(6.60691e-14 4.81067 -1.69347)
(-1.32138e-13 4.81067 -1.69347)
(7.17187e-14 4.68917 -1.68126)
(-3.85649e-14 4.68917 -1.68126)
(4.58607e-15 4.5693 -1.66858)
(-3.78582e-14 4.5693 -1.66858)
(0 4.45097 -1.65541)
(1.33559e-13 4.45097 -1.65541)
(-3.35065e-14 4.3341 -1.64172)
(1.34026e-13 4.3341 -1.64172)
(0 4.2186 -1.62745)
(-1.70305e-13 4.2186 -1.62745)
(0 4.10439 -1.61257)
(-1.70108e-13 4.10439 -1.61257)
(-6.83658e-14 3.99137 -1.59704)
(-1.35406e-13 3.99137 -1.59704)
(6.79291e-14 3.87947 -1.58081)
(-1.35858e-13 3.87947 -1.58081)
(3.40766e-14 3.76858 -1.56383)
(0 3.76858 -1.56383)
(-6.5303e-14 3.65861 -1.54603)
(1.04099e-13 3.65861 -1.54603)
(0 3.54947 -1.52736)
(0 3.54947 -1.52736)
(0 3.44105 -1.50776)
(-1.6909e-13 3.44105 -1.50776)
(0 3.33324 -1.48715)
(-6.17784e-14 3.33324 -1.48715)
(-2.60265e-14 3.22595 -1.46545)
(1.08156e-13 3.22595 -1.46545)
(3.47247e-14 3.11905 -1.44258)
(-2.77798e-13 3.11905 -1.44258)
(0 3.01242 -1.41845)
(0 3.01242 -1.41845)
(-2.2443e-14 2.90594 -1.39295)
(0 2.90594 -1.39295)
(9.13523e-14 2.79948 -1.36598)
(-1.96444e-13 2.79948 -1.36598)
(-3.51292e-14 2.69288 -1.33742)
(8.52273e-14 2.69288 -1.33742)
(1.6176e-14 2.58599 -1.30712)
(1.40905e-13 2.58599 -1.30712)
(1.73609e-14 2.47866 -1.27495)
(0 2.47866 -1.27495)
(-1.68909e-14 2.37072 -1.24075)
(0 2.37072 -1.24075)
(3.55058e-14 2.26197 -1.20433)
(-5.13471e-14 2.26197 -1.20433)
(3.55947e-14 2.15223 -1.16551)
(-1.92785e-13 2.15223 -1.16551)
(-1.38011e-14 2.04128 -1.12408)
(1.92208e-13 2.04128 -1.12408)
(0 1.9289 -1.07981)
(-1.43062e-13 1.9289 -1.07981)
(3.5847e-14 1.81486 -1.03245)
(-1.43388e-13 1.81486 -1.03245)
(3.59257e-14 1.69891 -0.981723)
(0 1.69891 -0.981723)
(4.59539e-14 1.58081 -0.927353)
(1.44005e-13 1.58081 -0.927353)
(0 1.46029 -0.869032)
(-2.8859e-13 1.46029 -0.869032)
(-4.42852e-14 1.3371 -0.806438)
(-1.00286e-13 1.3371 -0.806438)
(3.62081e-14 1.21099 -0.739242)
(-1.44832e-13 1.21099 -0.739242)
(3.62694e-14 1.08172 -0.667111)
(1.45077e-13 1.08172 -0.667111)
(3.63264e-14 0.949084 -0.589717)
(-2.90611e-13 0.949084 -0.589717)
(7.27577e-14 0.812921 -0.506749)
(-1.45515e-13 0.812921 -0.506749)
(0 0.673117 -0.417923)
(0 0.673117 -0.417923)
(-7.61023e-14 0.529628 -0.322996)
(1.45874e-13 0.529628 -0.322996)
(0 0.382486 -0.221778)
(-1.84927e-13 0.382486 -0.221778)
(-3.65353e-14 0.231812 -0.114136)
(1.46141e-13 0.231812 -0.114136)
(7.40537e-14 2.38163e-06 -8.81506e-07)
(1.4647e-13 8.40116e-07 -3.1095e-07)
(7.4112e-14 -2.30749e-06 8.54066e-07)
(1.46236e-13 -1.47614e-06 5.4636e-07)
(-3.81946e-14 -0.231811 0.114136)
(2.54088e-13 -0.231811 0.114136)
(2.40258e-15 -0.382485 0.221778)
(-3.89075e-14 -0.382485 0.221778)
(0 -0.529627 0.322996)
(1.45874e-13 -0.529627 0.322996)
(0 -0.673117 0.417922)
(2.91411e-13 -0.673117 0.417922)
(-3.63788e-14 -0.81292 0.506748)
(-1.45515e-13 -0.81292 0.506748)
(0 -0.949083 0.589716)
(0 -0.949083 0.589716)
(-3.62694e-14 -1.08172 0.66711)
(-1.45077e-13 -1.08172 0.66711)
(0 -1.21099 0.739241)
(0 -1.21099 0.739241)
(3.61428e-14 -1.3371 0.806438)
(0 -1.3371 0.806438)
(0 -1.46029 0.869032)
(1.44295e-13 -1.46029 0.869032)
(0 -1.58081 0.927353)
(1.89959e-13 -1.58081 0.927353)
(0 -1.69891 0.981723)
(0 -1.69891 0.981723)
(1.18386e-14 -1.81486 1.03244)
(-1.91074e-13 -1.81486 1.03244)
(7.1531e-14 -1.9289 1.07981)
(0 -1.9289 1.07981)
(-4.94825e-14 -2.04128 1.12408)
(0 -2.04128 1.12408)
(7.11895e-14 -2.15223 1.16551)
(1.42379e-13 -2.15223 1.16551)
(-3.55058e-14 -2.26197 1.20433)