/*--------------------------------*- C++ -*----------------------------------*\
| =========                 |                                                 |
| \\      /  F ield         | OpenFOAM: The Open Source CFD Toolbox           |
|  \\    /   O peration     | Version:  2106                                  |
|   \\  /    A nd           | Website:  www.openfoam.com                      |
|    \\/     M anipulation  |                                                 |
\*---------------------------------------------------------------------------*/
FoamFile
{
    version     2.0;
    format      ascii;
    arch        "LSB;label=32;scalar=64";
    class       surfaceScalarField;
    location    "10040";
    object      phi;
}
// * * * * * * * * * * * * * * * * * * * * * * * * * * * * * * * * * * * * * //

dimensions      [0 3 -1 0 0 0 0];

oriented        oriented;

internalField   nonuniform List<scalar> 
3996
(
1.11364e-08
-6.34135e-18
-3.52021e-22
-6.48541e-22
-2.98328e-23
3.42405e-08
-6.33576e-18
-1.95299e-21
-4.04192e-21
-2.35845e-22
5.86341e-08
-6.33007e-18
-1.99669e-21
-7.48659e-21
-2.49034e-22
8.43734e-08
-6.32423e-18
-2.04553e-21
-1.10025e-20
-2.62793e-22
1.11517e-07
-6.31826e-18
-2.09222e-21
-1.46013e-20
-2.77129e-22
1.40125e-07
-6.31221e-18
-2.13715e-21
-1.82261e-20
-2.92049e-22
1.70261e-07
-6.30603e-18
-2.18184e-21
-2.1922e-20
-3.07565e-22
2.01991e-07
-6.29973e-18
-2.22674e-21
-2.56546e-20
-3.23686e-22
2.35382e-07
-6.29334e-18
-2.2719e-21
-2.94684e-20
-3.40422e-22
2.70506e-07
-6.28681e-18
-2.31725e-21
-3.33169e-20
-3.57785e-22
3.07436e-07
-6.28026e-18
-2.36278e-21
-3.72216e-20
-3.75783e-22
3.46249e-07
-6.27355e-18
-2.40842e-21
-4.11351e-20
-3.94426e-22
3.87026e-07
-6.26671e-18
-2.45414e-21
-4.50919e-20
-4.13725e-22
4.29847e-07
-6.25958e-18
-2.49989e-21
-4.92228e-20
-4.33688e-22
4.748e-07
-6.25235e-18
-2.54561e-21
-5.33112e-20
-4.54313e-22
5.21974e-07
-6.24521e-18
-2.59127e-21
-5.7468e-20
-4.7561e-22
5.71462e-07
-6.23795e-18
-2.6368e-21
-6.15393e-20
-4.97577e-22
6.23361e-07
-6.23044e-18
-2.68215e-21
-6.58022e-20
-5.20214e-22
6.7777e-07
-6.22286e-18
-2.72728e-21
-6.99818e-20
-5.43517e-22
7.34794e-07
-6.21511e-18
-2.77212e-21
-7.43843e-20
-5.67493e-22
7.94542e-07
-6.20731e-18
-2.81663e-21
-7.8737e-20
-5.92125e-22
8.57125e-07
-6.19939e-18
-2.86075e-21
-8.3027e-20
-6.17404e-22
9.22662e-07
-6.19164e-18
-2.90443e-21
-8.72899e-20
-6.43326e-22
9.91272e-07
-6.18352e-18
-2.94758e-21
-9.18633e-20
-6.69879e-22
1.06308e-06
-6.17525e-18
-2.99017e-21
-9.64334e-20
-6.97052e-22
1.13822e-06
-6.16674e-18
-3.03212e-21
-1.00995e-19
-7.24829e-22
1.21683e-06
-6.15827e-18
-3.07339e-21
-1.05649e-19
-7.53184e-22
1.29905e-06
-6.14988e-18
-3.11392e-21
-1.0992e-19
-7.8208e-22
1.38502e-06
-6.14146e-18
-3.15363e-21
-1.14379e-19
-8.11512e-22
1.4749e-06
-6.13272e-18
-3.19246e-21
-1.18937e-19
-8.41454e-22
1.56885e-06
-6.12408e-18
-3.23036e-21
-1.23439e-19
-8.71853e-22
1.66702e-06
-6.11495e-18
-3.26725e-21
-1.27844e-19
-9.02668e-22
1.76959e-06
-6.10593e-18
-3.3031e-21
-1.32587e-19
-9.33854e-22
1.87674e-06
-6.09728e-18
-3.33784e-21
-1.36886e-19
-9.65358e-22
1.98864e-06
-6.08812e-18
-3.37136e-21
-1.41887e-19
-9.97127e-22
2.1055e-06
-6.07901e-18
-3.40365e-21
-1.46953e-19
-1.02906e-21
2.22749e-06
-6.07019e-18
-3.43463e-21
-1.51333e-19
-1.06111e-21
2.35484e-06
-6.06142e-18
-3.46422e-21
-1.55479e-19
-1.09322e-21
2.48774e-06
-6.0528e-18
-3.49233e-21
-1.59706e-19
-1.12534e-21
2.62642e-06
-6.04361e-18
-3.51889e-21
-1.64096e-19
-1.15733e-21
2.77111e-06
-6.03419e-18
-3.54385e-21
-1.687e-19
-1.18906e-21
2.92203e-06
-6.02472e-18
-3.56722e-21
-1.73067e-19
-1.22046e-21
3.07943e-06
-6.01616e-18
-3.58891e-21
-1.77095e-19
-1.2514e-21
3.24355e-06
-6.00601e-18
-3.60887e-21
-1.81249e-19
-1.28181e-21
3.41467e-06
-5.99627e-18
-3.62716e-21
-1.85684e-19
-1.31152e-21
3.59303e-06
-5.98688e-18
-3.6437e-21
-1.90478e-19
-1.34037e-21
3.77892e-06
-5.9779e-18
-3.65847e-21
-1.94392e-19
-1.36814e-21
3.97262e-06
-5.96777e-18
-3.67132e-21
-1.99065e-19
-1.39481e-21
4.17441e-06
-5.95999e-18
-3.68231e-21
-2.02635e-19
-1.42018e-21
4.3846e-06
-5.95058e-18
-3.69122e-21
-2.06224e-19
-1.44416e-21
4.60349e-06
-5.94187e-18
-3.69804e-21
-2.10234e-19
-1.46659e-21
4.83138e-06
-5.93068e-18
-3.70272e-21
-2.13621e-19
-1.48731e-21
5.06862e-06
-5.92174e-18
-3.70549e-21
-2.18278e-19
-1.50619e-21
5.3155e-06
-5.91272e-18
-3.70609e-21
-2.21718e-19
-1.52276e-21
5.57238e-06
-5.90357e-18
-3.70454e-21
-2.25892e-19
-1.537e-21
5.83958e-06
-5.89442e-18
-3.70086e-21
-2.30338e-19
-1.54867e-21
6.11744e-06
-5.88494e-18
-3.69502e-21
-2.34303e-19
-1.55727e-21
6.40631e-06
-5.87592e-18
-3.68696e-21
-2.3772e-19
-1.56278e-21
6.70654e-06
-5.86774e-18
-3.6768e-21
-2.40951e-19
-1.56495e-21
7.01847e-06
-5.85883e-18
-3.66429e-21
-2.44419e-19
-1.56365e-21
7.34245e-06
-5.84647e-18
-3.64943e-21
-2.48757e-19
-1.55869e-21
7.67883e-06
-5.83879e-18
-3.63271e-21
-2.52389e-19
-1.54972e-21
8.02794e-06
-5.82762e-18
-3.61366e-21
-2.59363e-19
-1.53611e-21
8.39014e-06
-5.81851e-18
-3.59315e-21
-2.64561e-19
-1.51719e-21
8.76576e-06
-5.80927e-18
-3.57077e-21
-2.70937e-19
-1.49296e-21
9.15511e-06
-5.80087e-18
-3.54622e-21
-2.72585e-19
-1.46319e-21
9.55853e-06
-5.7911e-18
-3.51896e-21
-2.74261e-19
-1.42879e-21
9.97632e-06
-5.78056e-18
-3.48908e-21
-2.77211e-19
-1.3897e-21
1.04088e-05
-5.77244e-18
-3.45694e-21
-2.81681e-19
-1.3456e-21
1.08562e-05
-5.76311e-18
-3.42224e-21
-2.85951e-19
-1.29639e-21
1.13189e-05
-5.75531e-18
-3.38519e-21
-2.89133e-19
-1.24263e-21
1.1797e-05
-5.7488e-18
-3.34586e-21
-2.90788e-19
-1.18426e-21
1.22909e-05
-5.73869e-18
-3.30402e-21
-2.96534e-19
-1.12122e-21
1.28008e-05
-5.7296e-18
-3.26069e-21
-3.0136e-19
-1.05315e-21
1.33269e-05
-5.71972e-18
-3.21644e-21
-3.06779e-19
-9.80291e-22
1.38694e-05
-5.71307e-18
-3.17089e-21
-3.10276e-19
-9.02529e-22
1.44285e-05
-5.70375e-18
-3.12454e-21
-3.15478e-19
-8.20262e-22
1.50044e-05
-5.69278e-18
-3.0778e-21
-3.2033e-19
-7.33118e-22
1.55973e-05
-5.6897e-18
-3.03168e-21
-3.21896e-19
-6.40778e-22
1.62074e-05
-5.68028e-18
-2.98504e-21
-3.26599e-19
-5.43988e-22
1.68348e-05
-5.67422e-18
-2.94067e-21
-3.31971e-19
-4.43277e-22
1.74797e-05
-5.66197e-18
-2.89758e-21
-3.38953e-19
-3.38953e-22
1.81422e-05
-5.65186e-18
-2.85784e-21
-3.45963e-19
-2.29641e-22
1.88226e-05
-5.64088e-18
-2.82059e-21
-3.54296e-19
-1.16226e-22
1.95209e-05
-5.62825e-18
-2.78708e-21
-3.61672e-19
1.20162e-24
2.02374e-05
-5.62182e-18
-2.75821e-21
-3.63911e-19
1.21177e-22
2.09721e-05
-5.62238e-18
-2.733e-21
-3.67135e-19
2.40908e-22
2.17254e-05
-5.61263e-18
-2.70753e-21
-3.73512e-19
3.60953e-22
2.24974e-05
-5.60532e-18
-2.68462e-21
-3.80752e-19
4.82586e-22
2.32883e-05
-5.5932e-18
-2.66467e-21
-3.88898e-19
6.06717e-22
2.40983e-05
-5.58236e-18
-2.65048e-21
-4.00529e-19
7.3182e-22
2.49276e-05
-5.5686e-18
-2.64339e-21
-4.11467e-19
8.59691e-22
2.57765e-05
-5.55242e-18
-2.6434e-21
-4.23065e-19
9.8865e-22
2.66452e-05
-5.543e-18
-2.657e-21
-4.29446e-19
1.11799e-21
2.7534e-05
-5.5355e-18
-2.67215e-21
-4.36263e-19
1.24511e-21
2.84431e-05
-5.52634e-18
-2.69215e-21
-4.44613e-19
1.37054e-21
2.9373e-05
-5.51487e-18
-2.71851e-21
-4.56992e-19
1.49602e-21
3.03238e-05
-5.5017e-18
-2.75191e-21
-4.6701e-19
1.62062e-21
3.1296e-05
-5.48958e-18
-2.79254e-21
-4.75475e-19
1.74102e-21
3.22898e-05
-5.4858e-18
-2.84345e-21
-4.8969e-19
1.86144e-21
3.33056e-05
-5.4707e-18
-2.89856e-21
-4.90364e-19
1.97997e-21
3.43439e-05
-5.46135e-18
-2.96864e-21
-4.95086e-19
2.08988e-21
3.5405e-05
-5.44845e-18
-3.04672e-21
-5.10582e-19
2.19149e-21
3.64893e-05
-5.43653e-18
-3.13762e-21
-5.29113e-19
2.28948e-21
3.75973e-05
-5.42446e-18
-3.23343e-21
-5.36042e-19
2.38229e-21
3.87294e-05
-5.40914e-18
-3.34029e-21
-5.55952e-19
2.46371e-21
3.9886e-05
-5.39661e-18
-3.4582e-21
-5.65085e-19
2.54347e-21
4.10677e-05
-5.37486e-18
-3.58274e-21
-5.86642e-19
2.61149e-21
4.22749e-05
-5.3565e-18
-3.71235e-21
-6.09847e-19
2.67281e-21
4.35081e-05
-5.31796e-18
-3.8483e-21
-6.2781e-19
2.72861e-21
4.4768e-05
-5.3005e-18
-4.00773e-21
-6.50675e-19
2.77427e-21
4.60549e-05
-5.27457e-18
-4.15468e-21
-6.76835e-19
2.81473e-21
4.73695e-05
-5.25055e-18
-4.3102e-21
-7.05305e-19
2.8463e-21
4.87123e-05
-5.22899e-18
-4.46094e-21
-7.28624e-19
2.87086e-21
5.00839e-05
-5.19178e-18
-4.61547e-21
-7.57677e-19
2.88368e-21
5.1485e-05
-5.16898e-18
-4.79006e-21
-7.76775e-19
2.88847e-21
5.29161e-05
-5.15406e-18
-4.96827e-21
-7.98058e-19
2.88077e-21
5.43779e-05
-5.11359e-18
-5.14518e-21
-8.27423e-19
2.87094e-21
5.5871e-05
-5.09886e-18
-5.33916e-21
-8.46944e-19
2.86866e-21
5.73961e-05
-5.05425e-18
-5.52377e-21
-8.73725e-19
2.87076e-21
5.89538e-05
-5.03241e-18
-5.72661e-21
-8.91157e-19
2.87825e-21
6.0545e-05
-5.00727e-18
-5.91602e-21
-9.1064e-19
2.87364e-21
6.21702e-05
-5.00212e-18
-6.11549e-21
-9.34457e-19
2.86458e-21
6.38302e-05
-4.97639e-18
-6.32313e-21
-9.66215e-19
2.84947e-21
6.55257e-05
-4.93848e-18
-6.53317e-21
-9.83737e-19
2.81737e-21
6.72576e-05
-4.90643e-18
-6.75206e-21
-1.01608e-18
2.76704e-21
6.90266e-05
-4.87931e-18
-7.02635e-21
-1.01763e-18
2.71665e-21
7.08335e-05
-4.85116e-18
-7.33038e-21
-1.05359e-18
2.61423e-21
7.26791e-05
-4.83379e-18
-7.65975e-21
-1.06916e-18
2.50326e-21
7.45643e-05
-4.80747e-18
-7.95035e-21
-1.08924e-18
2.34649e-21
7.64898e-05
-4.76903e-18
-8.24622e-21
-1.12991e-18
2.18932e-21
7.84566e-05
-4.73173e-18
-8.55103e-21
-1.13874e-18
2.02287e-21
8.04656e-05
-4.69583e-18
-8.88856e-21
-1.1643e-18
1.82222e-21
8.25176e-05
-4.66474e-18
-9.23288e-21
-1.19517e-18
1.63232e-21
8.46136e-05
-4.61467e-18
-9.56207e-21
-1.21546e-18
1.47594e-21
8.67545e-05
-4.57509e-18
-9.91659e-21
-1.25431e-18
1.32747e-21
8.89413e-05
-4.55439e-18
-1.02525e-20
-1.26727e-18
1.18858e-21
9.1175e-05
-4.52105e-18
-1.05397e-20
-1.2915e-18
1.01995e-21
9.34566e-05
-4.48186e-18
-1.07772e-20
-1.31032e-18
8.37011e-22
9.57871e-05
-4.44022e-18
-1.10076e-20
-1.31595e-18
6.22429e-22
9.81676e-05
-4.38832e-18
-1.12145e-20
-1.35346e-18
3.29789e-22
0.000100599
-4.33829e-18
-1.14331e-20
-1.38448e-18
3.481e-23
0.000103083
-4.28871e-18
-1.16826e-20
-1.40735e-18
-2.07039e-22
0.000105619
-4.23784e-18
-1.18279e-20
-1.43255e-18
-4.96684e-22
0.000108211
-4.18796e-18
-1.1964e-20
-1.46895e-18
-8.14213e-22
0.000110857
-4.12366e-18
-1.20853e-20
-1.51622e-18
-1.11706e-21
0.000113561
-4.07533e-18
-1.21981e-20
-1.5313e-18
-1.40135e-21
0.000116322
-4.02588e-18
-1.23054e-20
-1.56283e-18
-1.73497e-21
0.000119143
-3.96849e-18
-1.23969e-20
-1.59253e-18
-2.05527e-21
0.000122024
-3.89206e-18
-1.24884e-20
-1.61681e-18
-2.32204e-21
0.000124966
-3.88332e-18
-1.27127e-20
-1.61696e-18
-2.56477e-21
0.000127972
-3.81317e-18
-1.27993e-20
-1.62702e-18
-2.95467e-21
0.000131042
-3.80627e-18
-1.30696e-20
-1.65949e-18
-3.44055e-21
0.000134178
-3.75399e-18
-1.31719e-20
-1.66378e-18
-4.00517e-21
0.000137381
-3.67373e-18
-1.3283e-20
-1.70974e-18
-4.63073e-21
0.000140652
-3.62925e-18
-1.35151e-20
-1.72158e-18
-5.11391e-21
0.000143993
-3.58623e-18
-1.38102e-20
-1.7433e-18
-5.46706e-21
0.000147406
-3.537e-18
-1.41275e-20
-1.73359e-18
-5.83834e-21
0.000150891
-3.46126e-18
-1.44715e-20
-1.76213e-18
-6.45032e-21
0.000154452
-3.4039e-18
-1.48982e-20
-1.80295e-18
-6.95169e-21
0.000158088
-3.36876e-18
-1.53233e-20
-1.80952e-18
-7.23745e-21
0.000161802
-3.2944e-18
-1.55223e-20
-1.81599e-18
-7.46964e-21
0.000165595
-3.25162e-18
-1.57978e-20
-1.83181e-18
-7.6147e-21
0.000169469
-3.20791e-18
-1.6024e-20
-1.8713e-18
-7.8012e-21
0.000173425
-3.15779e-18
-1.63579e-20
-1.86755e-18
-7.92329e-21
0.000177466
-3.11158e-18
-1.69177e-20
-1.86278e-18
-8.12162e-21
0.000181593
-3.07831e-18
-1.75673e-20
-1.85609e-18
-8.52302e-21
0.000185808
-3.04018e-18
-1.82198e-20
-1.85757e-18
-8.83005e-21
0.000190112
-2.98991e-18
-1.88318e-20
-1.85754e-18
-8.91911e-21
0.000194509
-2.97031e-18
-1.94515e-20
-1.85077e-18
-9.41321e-21
0.000198998
-2.92338e-18
-1.96897e-20
-1.8476e-18
-9.78392e-21
0.000203583
-2.85398e-18
-1.97936e-20
-1.87541e-18
-1.02308e-20
0.000208266
-2.84372e-18
-2.03681e-20
-1.89459e-18
-1.04082e-20
0.000213048
-2.79741e-18
-2.05004e-20
-1.88075e-18
-1.05265e-20
0.000217931
-2.7861e-18
-2.07671e-20
-1.84518e-18
-1.06499e-20
0.000222918
-2.71028e-18
-2.06623e-20
-1.87965e-18
-1.09229e-20
0.00022801
-2.70226e-18
-2.08333e-20
-1.86478e-18
-1.09253e-20
0.00023321
-2.66795e-18
-2.08531e-20
-1.87327e-18
-1.13735e-20
0.000238521
-2.62299e-18
-2.1046e-20
-1.87843e-18
-1.16103e-20
0.000243943
-2.598e-18
-2.14635e-20
-1.88057e-18
-1.17556e-20
0.00024948
-2.59513e-18
-2.13645e-20
-1.84989e-18
-1.17381e-20
0.000255134
-2.49685e-18
-2.10761e-20
-1.8672e-18
-1.23512e-20
0.000260907
-2.46414e-18
-2.16724e-20
-1.86672e-18
-1.27051e-20
0.000266802
-2.42627e-18
-2.26294e-20
-1.88839e-18
-1.32237e-20
0.000272821
-2.38625e-18
-2.34174e-20
-1.86091e-18
-1.42621e-20
0.000278966
-2.35268e-18
-2.35405e-20
-1.9469e-18
-1.57024e-20
0.000285241
-2.33227e-18
-2.46231e-20
-1.91664e-18
-1.56369e-20
0.000291647
-2.2543e-18
-2.48124e-20
-1.97003e-18
-1.62545e-20
0.000298187
-2.26488e-18
-2.54746e-20
-1.93846e-18
-1.71195e-20
0.000304865
-2.27986e-18
-2.53048e-20
-1.99181e-18
-1.85328e-20
0.000311682
-2.22854e-18
-2.39005e-20
-1.9861e-18
-1.91381e-20
0.000318642
-2.18105e-18
-2.38825e-20
-2.01252e-18
-2.02265e-20
0.000325747
-2.20407e-18
-2.35746e-20
-2.03322e-18
-1.96683e-20
0.000333
-2.15238e-18
-2.23804e-20
-2.04902e-18
-1.95842e-20
0.000340405
-2.14405e-18
-2.26451e-20
-2.048e-18
-1.97773e-20
0.000347963
-2.12984e-18
-2.23362e-20
-2.04911e-18
-2.16976e-20
0.000355678
-2.07446e-18
-2.21267e-20
-2.07444e-18
-2.2041e-20
0.000363553
-2.02898e-18
-2.46074e-20
-2.05968e-18
-2.15232e-20
0.000371591
-2.08646e-18
-2.65989e-20
-2.01764e-18
-2.14761e-20
0.000379795
-2.02052e-18
-2.66884e-20
-1.96345e-18
-2.12824e-20
0.000388168
-1.97567e-18
-2.66071e-20
-1.96824e-18
-2.22406e-20
0.000396714
-1.97502e-18
-2.57802e-20
-1.86037e-18
-2.11775e-20
0.000405436
-1.92804e-18
-2.43557e-20
-1.87715e-18
-2.32836e-20
0.000414336
-1.80644e-18
-2.31062e-20
-1.81309e-18
-2.28384e-20
0.000423419
-1.72688e-18
-2.33606e-20
-1.78212e-18
-2.36388e-20
0.000432688
-1.68344e-18
-2.41164e-20
-1.69252e-18
-2.45907e-20
0.000442145
-1.644e-18
-2.39471e-20
-1.66977e-18
-2.69867e-20
0.000451795
-1.61919e-18
-2.49441e-20
-1.63814e-18
-3.09662e-20
0.000461641
-1.54118e-18
-2.35335e-20
-1.51367e-18
-3.46756e-20
0.000471686
-1.48628e-18
-2.69868e-20
-1.48998e-18
-3.91277e-20
0.000481933
-1.42771e-18
-2.93585e-20
-1.50844e-18
-4.10559e-20
0.000492388
-1.453e-18
-3.30698e-20
-1.51658e-18
-4.07937e-20
0.000503052
-1.58346e-18
-3.65339e-20
-1.48979e-18
-3.77812e-20
0.000513929
-1.67263e-18
-3.2566e-20
-1.42877e-18
-3.72987e-20
0.000525024
-1.55095e-18
-3.03215e-20
-1.56314e-18
-3.82538e-20
0.000536338
-1.5746e-18
-3.38313e-20
-1.54748e-18
-3.35253e-20
0.000547877
-1.66539e-18
-3.63924e-20
-1.56259e-18
-2.92957e-20
0.000559644
-1.64472e-18
-3.13708e-20
-1.461e-18
-2.6543e-20
0.000571642
-1.53513e-18
-2.763e-20
-1.55402e-18
-3.15708e-20
0.000583874
-1.64984e-18
-3.05958e-20
-1.58265e-18
-3.52734e-20
0.000596344
-1.4561e-18
-2.75364e-20
-1.54749e-18
-3.48327e-20
0.000609056
-1.43199e-18
-3.30313e-20
-1.51139e-18
-3.84135e-20
0.000622013
-1.54009e-18
-3.84399e-20
-1.49655e-18
-4.33756e-20
0.000635218
-1.50459e-18
-4.43439e-20
-1.55065e-18
-4.69275e-20
0.000648674
-1.46472e-18
-4.28164e-20
-1.47838e-18
-4.25105e-20
0.000662384
-1.4357e-18
-4.59758e-20
-1.54928e-18
-4.24358e-20
0.000676352
-1.38385e-18
-4.87792e-20
-1.50348e-18
-4.30391e-20
0.00069058
-1.45108e-18
-4.78189e-20
-1.41148e-18
-4.42096e-20
0.000705071
-1.4192e-18
-4.29268e-20
-1.42747e-18
-3.6836e-20
0.000719826
-1.43523e-18
-4.11447e-20
-1.4475e-18
-3.28195e-20
0.000734849
-1.31006e-18
-3.11218e-20
-1.41355e-18
-2.43674e-20
0.000750141
-1.32804e-18
-3.16847e-20
-1.50887e-18
-1.53542e-20
0.000765704
-1.30954e-18
-3.21323e-20
-1.4535e-18
-8.59111e-21
0.000781539
-1.43755e-18
-3.85644e-20
-1.41202e-18
-1.05157e-20
0.000797647
-1.2671e-18
-3.03187e-20
-1.56311e-18
-1.06744e-20
0.000814027
-1.47434e-18
-4.63895e-20
-1.60892e-18
-4.75368e-22
0.000830681
-1.54248e-18
-4.81039e-20
-1.45976e-18
7.25709e-21
0.000847607
-1.44114e-18
-3.56164e-20
-1.47225e-18
6.59549e-21
0.000864803
-1.57666e-18
-4.61829e-20
-1.51519e-18
5.86996e-21
0.000882268
-1.70281e-18
-5.56307e-20
-1.50623e-18
-4.02273e-22
0.000899998
-1.83044e-18
-4.80922e-20
-1.36002e-18
-1.02915e-20
0.00091799
-1.682e-18
-3.41073e-20
-1.35164e-18
-9.55803e-22
0.000936239
-1.49621e-18
-1.58901e-20
-1.34609e-18
-2.40463e-21
0.000954737
-1.4452e-18
-1.68993e-20
-1.2717e-18
-2.72489e-21
0.000973479
-1.23209e-18
-5.24075e-21
-1.37847e-18
-1.28361e-20
0.000992456
-1.22611e-18
-8.74376e-21
-1.25549e-18
-8.04784e-21
0.00101166
-1.43908e-18
-2.28364e-20
-1.28973e-18
-2.33147e-20
0.00103108
-1.36522e-18
-2.25814e-21
-1.2577e-18
-1.81977e-20
0.00105069
-1.13974e-18
2.36233e-20
-1.29491e-18
-1.3048e-20
0.0010705
-3.359e-21
-1.13443e-18
-2.10522e-20
-1.26475e-18
1.11364e-08
-3.19032e-22
-6.36131e-23
3.42405e-08
-2.07721e-21
-4.89914e-22
5.86341e-08
-3.86116e-21
-9.46837e-22
8.43734e-08
-5.68187e-21
-1.429e-21
1.11517e-07
-7.54005e-21
-1.94515e-21
1.40125e-07
-9.43117e-21
-2.49347e-21
1.70261e-07
-1.13859e-20
-2.99087e-21
2.01991e-07
-1.33721e-20
-3.57983e-21
2.35382e-07
-1.53377e-20
-4.16978e-21
2.70506e-07
-1.74653e-20
-4.74743e-21
3.07436e-07
-1.94851e-20
-5.41195e-21
3.46249e-07
-2.16146e-20
-6.06262e-21
3.87026e-07
-2.38001e-20
-6.81963e-21
4.29847e-07
-2.60406e-20
-7.46828e-21
4.748e-07
-2.81775e-20
-8.33138e-21
5.21974e-07
-3.04191e-20
-9.06821e-21
5.71462e-07
-3.26621e-20
-9.83775e-21
6.23361e-07
-3.48186e-20
-1.07382e-20
6.7777e-07
-3.69893e-20
-1.18289e-20
7.34794e-07
-3.93406e-20
-1.28167e-20
7.94542e-07
-4.17245e-20
-1.37179e-20
8.57125e-07
-4.41479e-20
-1.4759e-20
9.22662e-07
-4.65614e-20
-1.5913e-20
9.91272e-07
-4.88621e-20
-1.74279e-20
1.06308e-06
-5.10991e-20
-1.8992e-20
1.13822e-06
-5.34734e-20
-2.04375e-20
1.21683e-06
-5.60512e-20
-2.17998e-20
1.29905e-06
-5.84384e-20
-2.33868e-20
1.38502e-06
-6.05452e-20
-2.5097e-20
1.4749e-06
-6.30627e-20
-2.66507e-20
1.56885e-06
-6.54904e-20
-2.83426e-20
1.66702e-06
-6.81019e-20
-2.99323e-20
1.76959e-06
-7.06244e-20
-3.18612e-20
1.87674e-06
-7.29584e-20
-3.33755e-20
1.98864e-06
-7.61412e-20
-3.47686e-20
2.1055e-06
-7.90493e-20
-3.6361e-20
2.22749e-06
-8.18425e-20
-3.79391e-20
2.35484e-06
-8.45324e-20
-3.96944e-20
2.48774e-06
-8.75873e-20
-4.05382e-20
2.62642e-06
-9.04596e-20
-4.12861e-20
2.77111e-06
-9.38473e-20
-4.29209e-20
2.92203e-06
-9.65483e-20
-4.48053e-20
3.07943e-06
-9.96805e-20
-4.67988e-20
3.24355e-06
-1.02691e-19
-4.8463e-20
3.41467e-06
-1.05565e-19
-5.01042e-20
3.59303e-06
-1.08795e-19
-5.15117e-20
3.77892e-06
-1.10891e-19
-5.40901e-20
3.97262e-06
-1.13439e-19
-5.64626e-20
4.17441e-06
-1.16352e-19
-5.82276e-20
4.3846e-06
-1.18681e-19
-6.03592e-20
4.60349e-06
-1.21588e-19
-6.27296e-20
4.83138e-06
-1.24607e-19
-6.52677e-20
5.06862e-06
-1.27831e-19
-6.73753e-20
5.3155e-06
-1.31385e-19
-6.9294e-20
5.57238e-06
-1.3471e-19
-7.1844e-20
5.83958e-06
-1.37276e-19
-7.30749e-20
6.11744e-06
-1.39098e-19
-7.60993e-20
6.40631e-06
-1.42613e-19
-7.77367e-20
6.70654e-06
-1.45776e-19
-7.95517e-20
7.01847e-06
-1.4872e-19
-8.17685e-20
7.34245e-06
-1.51404e-19
-8.43712e-20
7.67883e-06
-1.53747e-19
-8.49885e-20
8.02794e-06
-1.58e-19
-8.58029e-20
8.39014e-06
-1.61751e-19
-8.62542e-20
8.76576e-06
-1.64717e-19
-8.76039e-20
9.15511e-06
-1.66358e-19
-8.92178e-20
9.55853e-06
-1.67595e-19
-9.05887e-20
9.97632e-06
-1.70377e-19
-9.28012e-20
1.04088e-05
-1.73435e-19
-9.49682e-20
1.08562e-05
-1.74839e-19
-9.82827e-20
1.13189e-05
-1.76586e-19
-1.02025e-19
1.1797e-05
-1.78301e-19
-1.04299e-19
1.22909e-05
-1.81009e-19
-1.05945e-19
1.28008e-05
-1.86694e-19
-1.08182e-19
1.33269e-05
-1.8831e-19
-1.10986e-19
1.38694e-05
-1.94067e-19
-1.10442e-19
1.44285e-05
-1.97732e-19
-1.10198e-19
1.50044e-05
-2.00113e-19
-1.12951e-19
1.55973e-05
-2.01748e-19
-1.13425e-19
1.62074e-05
-2.05025e-19
-1.14807e-19
1.68348e-05
-2.04708e-19
-1.19415e-19
1.74797e-05
-2.05801e-19
-1.19637e-19
1.81422e-05
-2.0647e-19
-1.19461e-19
1.88226e-05
-2.08635e-19
-1.19492e-19
1.95209e-05
-2.1054e-19
-1.20478e-19
2.02374e-05
-2.14278e-19
-1.22267e-19
2.09721e-05
-2.11778e-19
-1.2121e-19
2.17254e-05
-2.08508e-19
-1.19335e-19
2.24974e-05
-2.10191e-19
-1.16869e-19
2.32883e-05
-2.13631e-19
-1.17326e-19
2.40983e-05
-2.19596e-19
-1.15184e-19
2.49276e-05
-2.19853e-19
-1.15064e-19
2.57765e-05
-2.32696e-19
-1.16456e-19
2.66452e-05
-2.25777e-19
-1.17162e-19
2.7534e-05
-2.27066e-19
-1.12707e-19
2.84431e-05
-2.27692e-19
-1.0706e-19
2.9373e-05
-2.28126e-19
-1.08331e-19
3.03238e-05
-2.26027e-19
-1.12775e-19
3.1296e-05
-2.3011e-19
-1.1031e-19
3.22898e-05
-2.31089e-19
-1.14647e-19
3.33056e-05
-2.39374e-19
-1.12652e-19
3.43439e-05
-2.38274e-19
-1.15462e-19
3.5405e-05
-2.41132e-19
-1.17592e-19
3.64893e-05
-2.33971e-19
-1.17143e-19
3.75973e-05
-2.36396e-19
-1.15277e-19
3.87294e-05
-2.38055e-19
-1.15012e-19
3.9886e-05
-2.42543e-19
-1.10603e-19
4.10677e-05
-2.44133e-19
-1.04595e-19
4.22749e-05
-2.55818e-19
-1.04318e-19
4.35081e-05
-2.69028e-19
-1.06517e-19
4.4768e-05
-2.55856e-19
-1.02221e-19
4.60549e-05
-2.5555e-19
-1.0615e-19
4.73695e-05
-2.4143e-19
-1.08001e-19
4.87123e-05
-2.4227e-19
-1.04209e-19
5.00839e-05
-2.42133e-19
-1.07181e-19
5.1485e-05
-2.3638e-19
-1.1002e-19
5.29161e-05
-2.38937e-19
-1.0687e-19
5.43779e-05
-2.42769e-19
-1.06077e-19
5.5871e-05
-2.49366e-19
-9.87792e-20
5.73961e-05
-2.44275e-19
-9.69701e-20
5.89538e-05
-2.27647e-19
-9.71695e-20
6.0545e-05
-2.25068e-19
-9.64697e-20
6.21702e-05
-2.37635e-19
-1.0393e-19
6.38302e-05
-2.27206e-19
-1.18826e-19
6.55257e-05
-2.13354e-19
-1.15128e-19
6.72576e-05
-2.34507e-19
-1.15069e-19
6.90266e-05
-2.39074e-19
-1.16129e-19
7.08335e-05
-2.45875e-19
-1.117e-19
7.26791e-05
-2.28394e-19
-1.21951e-19
7.45643e-05
-2.29926e-19
-1.19894e-19
7.64898e-05
-2.26661e-19
-1.30675e-19
7.84566e-05
-2.49775e-19
-1.15738e-19
8.04656e-05
-2.65694e-19
-1.11901e-19
8.25176e-05
-2.80662e-19
-1.17607e-19
8.46136e-05
-3.04603e-19
-1.08446e-19
8.67545e-05
-3.19772e-19
-1.03384e-19
8.89413e-05
-3.42724e-19
-9.87039e-20
9.1175e-05
-3.50988e-19
-1.05963e-19
9.34566e-05
-3.66588e-19
-1.14588e-19
9.57871e-05
-3.72094e-19
-1.19066e-19
9.81676e-05
-3.77947e-19
-1.27709e-19
0.000100599
-3.90462e-19
-1.20281e-19
0.000103083
-3.56895e-19
-1.41826e-19
0.000105619
-3.59741e-19
-1.53108e-19
0.000108211
-3.66119e-19
-1.62625e-19
0.000110857
-3.69244e-19
-1.79155e-19
0.000113561
-3.88879e-19
-1.8075e-19
0.000116322
-3.99806e-19
-1.84231e-19
0.000119143
-4.04482e-19
-1.89647e-19
0.000122024
-4.25515e-19
-2.08045e-19
0.000124966
-4.27497e-19
-2.28407e-19
0.000127972
-4.46851e-19
-2.2501e-19
0.000131042
-4.32954e-19
-2.52563e-19
0.000134178
-4.2104e-19
-2.7129e-19
0.000137381
-4.16598e-19
-2.93472e-19
0.000140652
-4.41243e-19
-2.66774e-19
0.000143993
-4.51645e-19
-2.64214e-19
0.000147406
-4.5489e-19
-2.87415e-19
0.000150891
-4.482e-19
-2.94992e-19
0.000154452
-4.45978e-19
-2.82328e-19
0.000158088
-4.24287e-19
-2.70339e-19
0.000161802
-4.13885e-19
-2.78225e-19
0.000165595
-4.06569e-19
-2.98294e-19
0.000169469
-4.2305e-19
-3.18105e-19
0.000173425
-4.49623e-19
-3.22484e-19
0.000177466
-4.6551e-19
-3.38745e-19
0.000181593
-4.84719e-19
-3.42642e-19
0.000185808
-4.93974e-19
-3.40655e-19
0.000190112
-5.00098e-19
-4.02499e-19
0.000194509
-4.8319e-19
-4.02782e-19
0.000198998
-4.77726e-19
-4.42363e-19
0.000203583
-5.247e-19
-4.39553e-19
0.000208266
-5.0522e-19
-4.56069e-19
0.000213048
-5.37842e-19
-4.54482e-19
0.000217931
-5.60214e-19
-4.48259e-19
0.000222918
-5.79311e-19
-4.59205e-19
0.00022801
-6.08668e-19
-5.00801e-19
0.00023321
-6.35052e-19
-5.0439e-19
0.000238521
-6.68442e-19
-5.10637e-19
0.000243943
-6.69631e-19
-5.17408e-19
0.00024948
-7.14555e-19
-5.7253e-19
0.000255134
-7.52391e-19
-6.14811e-19
0.000260907
-7.9719e-19
-6.57059e-19
0.000266802
-7.78867e-19
-6.93366e-19
0.000272821
-6.99772e-19
-7.02692e-19
0.000278966
-7.50097e-19
-6.9579e-19
0.000285241
-6.98638e-19
-6.87209e-19
0.000291647
-6.98918e-19
-7.14461e-19
0.000298187
-6.90335e-19
-7.19683e-19
0.000304865
-6.67162e-19
-7.4365e-19
0.000311682
-7.3981e-19
-8.02459e-19
0.000318642
-7.01507e-19
-7.5252e-19
0.000325747
-6.93363e-19
-7.87619e-19
0.000333
-7.38515e-19
-7.80303e-19
0.000340405
-7.1664e-19
-8.53924e-19
0.000347963
-7.20496e-19
-7.62467e-19
0.000355678
-8.15227e-19
-7.16543e-19
0.000363553
-7.64718e-19
-7.12176e-19
0.000371591
-7.53094e-19
-6.63469e-19
0.000379795
-7.12606e-19
-7.06303e-19
0.000388168
-6.91595e-19
-6.91503e-19
0.000396714
-7.39666e-19
-7.33956e-19
0.000405436
-7.59254e-19
-6.86212e-19
0.000414336
-7.39399e-19
-7.60418e-19
0.000423419
-7.23191e-19
-7.96826e-19
0.000432688
-6.93354e-19
-7.38795e-19
0.000442145
-7.35159e-19
-7.31548e-19
0.000451795
-6.51688e-19
-7.1461e-19
0.000461641
-7.61651e-19
-6.88006e-19
0.000471686
-7.10319e-19
-6.96362e-19
0.000481933
-7.39669e-19
-7.36258e-19
0.000492388
-8.32311e-19
-7.07417e-19
0.000503052
-8.40759e-19
-7.6707e-19
0.000513929
-1.02051e-18
-7.12519e-19
0.000525024
-1.03299e-18
-7.26139e-19
0.000536338
-1.01759e-18
-8.27026e-19
0.000547877
-9.22045e-19
-8.84722e-19
0.000559644
-8.94424e-19
-9.16283e-19
0.000571642
-8.91112e-19
-9.31239e-19
0.000583874
-8.44736e-19
-7.8419e-19
0.000596344
-8.19715e-19
-8.14061e-19
0.000609056
-8.07317e-19
-8.86275e-19
0.000622013
-9.32322e-19
-8.66123e-19
0.000635218
-7.56591e-19
-7.27188e-19
0.000648674
-8.15587e-19
-7.2727e-19
0.000662384
-8.01116e-19
-8.12725e-19
0.000676352
-7.06509e-19
-8.62652e-19
0.00069058
-7.20199e-19
-6.91037e-19
0.000705071
-7.5141e-19
-6.77151e-19
0.000719826
-6.41159e-19
-6.3032e-19
0.000734849
-6.4387e-19
-6.03966e-19
0.000750141
-6.10088e-19
-6.46414e-19
0.000765704
-6.45642e-19
-6.97279e-19
0.000781539
-5.60164e-19
-6.61943e-19
0.000797647
-6.37102e-19
-6.47098e-19
0.000814027
-6.77251e-19
-7.17019e-19
0.000830681
-6.49371e-19
-7.43618e-19
0.000847607
-8.09405e-19
-7.8537e-19
0.000864803
-9.36321e-19
-8.53468e-19
0.000882268
-9.57087e-19
-9.52979e-19
0.000899998
-1.10657e-18
-7.87628e-19
0.00091799
-9.83216e-19
-9.66114e-19
0.000936239
-1.04795e-18
-9.60931e-19
0.000954737
-1.00764e-18
-1.08185e-18
0.000973479
-9.9157e-19
-1.09742e-18
0.000992456
-1.03371e-18
-1.04983e-18
0.00101166
-9.66996e-19
-9.16154e-19
0.00103108
-8.77926e-19
-9.25167e-19
0.00105069
-1.01938e-18
-9.98552e-19
0.0010705
-1.03296e-18
-8.79017e-19
0.0010705
-1.11768e-18
-3.62198e-20
-1.10574e-18
-1.83741e-20
0.00105069
-9.17855e-19
-2.64366e-20
-9.59867e-19
-1.52546e-20
0.00103108
-8.88401e-19
-2.68024e-20
-9.30394e-19
-2.15872e-20
0.00101166
-8.76685e-19
-1.63482e-20
-9.1849e-19
-2.34442e-20
0.000992456
-9.73563e-19
-1.9057e-20
-8.31572e-19
-6.75527e-21
0.000973479
-8.47045e-19
-4.02119e-21
-7.72364e-19
-4.84114e-21
0.000954737
-7.7529e-19
-2.6955e-21
-8.24243e-19
-4.30331e-21
0.000936239
-8.52129e-19
-7.41075e-21
-8.56144e-19
5.23863e-21
0.00091799
-7.99834e-19
3.99889e-21
-7.70759e-19
5.55044e-21
0.000899999
-7.67005e-19
5.44277e-21
-8.40639e-19
8.52792e-22
0.000882268
-8.34152e-19
4.56679e-21
-7.77843e-19
9.26819e-22
0.000864803
-7.92552e-19
-6.67283e-22
-7.57417e-19
-1.23058e-20
0.000847607
-7.9124e-19
2.27299e-22
-6.93365e-19
-9.68773e-21
0.000830681
-7.91672e-19
-2.72573e-21
-7.92191e-19
-5.07893e-21
0.000814027
-7.33497e-19
-1.97677e-21
-7.16075e-19
-1.15026e-21
0.000797647
-8.47978e-19
-4.27156e-21
-6.84849e-19
-3.52602e-21
0.000781539
-6.45504e-19
5.96262e-21
-6.48711e-19
-6.13036e-21
0.000765704
-5.48027e-19
2.23331e-21
-6.30833e-19
-4.07293e-21
0.000750141
-5.9532e-19
-5.33351e-21
-6.16193e-19
4.73951e-21
0.000734849
-5.93033e-19
6.86944e-21
-5.81371e-19
3.13352e-21
0.000719826
-6.39517e-19
1.10179e-20
-5.7763e-19
-5.49334e-22
0.000705071
-6.38952e-19
1.08566e-20
-6.15226e-19
-7.01103e-22
0.00069058
-4.814e-19
1.34052e-20
-5.59395e-19
3.00836e-22
0.000676352
-5.20055e-19
9.97706e-21
-4.921e-19
9.9549e-22
0.000662384
-4.87205e-19
5.27516e-21
-4.8909e-19
7.37269e-22
0.000648674
-4.83413e-19
5.51582e-21
-5.05667e-19
1.84806e-21
0.000635218
-4.97995e-19
4.42488e-21
-4.52518e-19
-7.15347e-22
0.000622013
-5.19944e-19
4.37431e-21
-6.37827e-19
-5.30636e-21
0.000609056
-5.61645e-19
7.78796e-21
-5.34152e-19
-2.57923e-21
0.000596344
-5.82088e-19
9.07935e-21
-5.25049e-19
-6.33469e-21
0.000583874
-4.06653e-19
1.24661e-20
-5.66662e-19
-8.33505e-21
0.000571642
-5.09843e-19
8.58174e-21
-5.41688e-19
-3.75891e-21
0.000559644
-4.16514e-19
7.18617e-21
-4.93533e-19
1.84798e-21
0.000547877
-5.50854e-19
1.21408e-21
-5.86793e-19
1.499e-21
0.000536338
-5.36931e-19
3.34902e-21
-5.69394e-19
4.92765e-23
0.000525024
-5.14416e-19
4.59765e-21
-6.00779e-19
-2.75218e-21
0.000513929
-5.20147e-19
4.26032e-21
-5.17712e-19
-3.32796e-21
0.000503052
-5.05507e-19
4.38973e-21
-4.8184e-19
-8.43854e-22
0.000492388
-5.12771e-19
5.14876e-21
-5.94592e-19
-1.49769e-21
0.000481933
-4.8252e-19
4.15389e-21
-5.38303e-19
-1.22529e-21
0.000471686
-5.01395e-19
1.965e-21
-4.78072e-19
3.04989e-22
0.000461641
-5.11589e-19
1.61925e-21
-4.95461e-19
1.74751e-22
0.000451795
-4.59167e-19
6.34678e-23
-3.79999e-19
6.07781e-22
0.000442145
-4.25198e-19
-1.85624e-21
-4.10617e-19
-1.95017e-21
0.000432687
-3.99734e-19
-1.83189e-21
-3.55186e-19
-1.36663e-21
0.000423419
-3.68569e-19
-1.5049e-21
-3.39584e-19
-4.37996e-21
0.000414336
-3.51585e-19
-7.26117e-22
-3.76033e-19
-8.33711e-21
0.000405436
-3.21154e-19
1.36986e-21
-3.34946e-19
-8.58539e-21
0.000396714
-3.18165e-19
3.70797e-21
-3.78655e-19
-7.90462e-21
0.000388168
-2.66574e-19
3.40472e-21
-3.311e-19
-6.92503e-21
0.000379795
-2.49073e-19
3.594e-21
-2.50433e-19
-5.70156e-21
0.000371591
-3.07194e-19
2.38769e-21
-2.12132e-19
-4.73333e-21
0.000363553
-2.9565e-19
2.73114e-21
-2.11673e-19
-5.3881e-21
0.000355678
-2.23533e-19
3.04614e-21
-1.90441e-19
-6.09054e-21
0.000347963
-2.22493e-19
1.57204e-21
-1.6531e-19
-7.60117e-21
0.000340404
-2.58049e-19
8.79575e-22
-2.0164e-19
-7.16657e-21
0.000333
-1.6847e-19
1.66645e-21
-1.36199e-19
-5.12899e-21
0.000325747
-1.72785e-19
1.0532e-21
-1.54499e-19
-3.63017e-21
0.000318642
-1.69529e-19
1.18816e-21
-1.24989e-19
-2.50242e-21
0.000311682
-1.52282e-19
1.46245e-21
-1.52017e-19
-2.48178e-21
0.000304865
-1.47509e-19
1.5532e-21
-1.86803e-19
-2.40882e-21
0.000298187
-1.49634e-19
1.24944e-21
-1.67668e-19