/*--------------------------------*- C++ -*----------------------------------*\
| =========                 |                                                 |
| \\      /  F ield         | OpenFOAM: The Open Source CFD Toolbox           |
|  \\    /   O peration     | Version:  2106                                  |
|   \\  /    A nd           | Website:  www.openfoam.com                      |
|    \\/     M anipulation  |                                                 |
\*---------------------------------------------------------------------------*/
FoamFile
{
    version     2.0;
    format      ascii;
    arch        "LSB;label=32;scalar=64";
    class       volSymmTensorField;
    location    "10040";
    object      turbulenceProperties:R;
}
// * * * * * * * * * * * * * * * * * * * * * * * * * * * * * * * * * * * * * //

dimensions      [0 2 -2 0 0 0 0];

internalField   nonuniform List<symmTensor> 
2000
(
(3.1385e-08 -1.87224e-13 -3.46515e-16 3.1385e-08 4.07388e-27 3.1385e-08)
(3.1385e-08 -1.87224e-13 -3.46515e-16 3.1385e-08 1.00332e-27 3.1385e-08)
(4.75665e-09 -1.63459e-13 -9.13299e-16 4.75665e-09 1.09111e-27 4.75665e-09)
(4.75665e-09 -1.63459e-13 -9.13299e-16 4.75665e-09 1.52766e-27 4.75665e-09)
(2.53377e-09 -2.57804e-13 -1.99861e-15 2.53377e-09 1.37205e-27 2.53377e-09)
(2.53377e-09 -2.57804e-13 -1.99861e-15 2.53377e-09 1.91181e-28 2.53377e-09)
(4.91744e-09 -1.06534e-12 -8.41309e-15 4.91744e-09 3.87979e-27 4.91744e-09)
(4.91744e-09 -1.06534e-12 -8.41309e-15 4.91744e-09 7.90166e-28 4.91744e-09)
(1.17408e-08 -4.50639e-12 -3.62517e-14 1.17408e-08 1.60973e-26 1.17408e-08)
(1.17408e-08 -4.50639e-12 -3.62517e-14 1.17408e-08 3.33802e-27 1.17408e-08)
(2.48366e-08 -1.50731e-11 -1.23519e-13 2.48366e-08 5.45568e-26 2.48366e-08)
(2.48366e-08 -1.50731e-11 -1.23519e-13 2.48366e-08 1.11373e-26 2.48366e-08)
(4.67056e-08 -4.15296e-11 -3.46673e-13 4.67056e-08 1.53901e-25 4.67056e-08)
(4.67056e-08 -4.15296e-11 -3.46673e-13 4.67056e-08 3.05752e-26 4.67056e-08)
(8.03396e-08 -9.91366e-11 -8.43e-13 8.03396e-08 3.76871e-25 8.03396e-08)
(8.03396e-08 -9.91366e-11 -8.43e-13 8.03396e-08 7.26537e-26 8.03396e-08)
(1.29204e-07 -2.12495e-10 -1.84065e-12 1.29204e-07 8.27805e-25 1.29204e-07)
(1.29204e-07 -2.12495e-10 -1.84065e-12 1.29204e-07 1.54886e-25 1.29204e-07)
(1.97261e-07 -4.19113e-10 -3.69816e-12 1.97261e-07 1.6717e-24 1.97261e-07)
(1.97261e-07 -4.19113e-10 -3.69816e-12 1.97261e-07 3.0355e-25 1.97261e-07)
(2.88998e-07 -7.73834e-10 -6.95559e-12 2.88998e-07 3.15984e-24 2.88998e-07)
(2.88998e-07 -7.73834e-10 -6.95559e-12 2.88998e-07 5.56434e-25 2.88998e-07)
(4.09473e-07 -1.35426e-09 -1.23999e-11 4.09473e-07 5.66051e-24 4.09473e-07)
(4.09473e-07 -1.35426e-09 -1.23999e-11 4.09473e-07 9.65965e-25 4.09473e-07)
(5.64356e-07 -2.26736e-09 -2.1148e-11 5.64356e-07 9.69966e-24 5.64356e-07)
(5.64356e-07 -2.26736e-09 -2.1148e-11 5.64356e-07 1.60288e-24 5.64356e-07)
(7.59979e-07 -3.65742e-09 -3.47499e-11 7.59979e-07 1.60116e-23 7.59979e-07)
(7.59979e-07 -3.65742e-09 -3.47499e-11 7.59979e-07 2.55956e-24 7.59979e-07)
(1.00339e-06 -5.71561e-09 -5.53188e-11 1.00339e-06 2.56022e-23 1.00339e-06)
(1.00339e-06 -5.71561e-09 -5.53188e-11 1.00339e-06 3.95546e-24 1.00339e-06)
(1.30242e-06 -8.69141e-09 -8.56902e-11 1.30242e-06 3.98277e-23 1.30242e-06)
(1.30242e-06 -8.69141e-09 -8.56902e-11 1.30242e-06 5.94156e-24 1.30242e-06)
(1.66572e-06 -1.29061e-08 -1.29618e-10 1.66572e-06 6.04934e-23 1.66572e-06)
(1.66572e-06 -1.29061e-08 -1.29618e-10 1.66572e-06 8.70305e-24 1.66572e-06)
(2.10286e-06 -1.87687e-08 -1.92016e-10 2.10286e-06 8.99761e-23 2.10286e-06)
(2.10286e-06 -1.87687e-08 -1.92016e-10 2.10286e-06 1.24685e-23 2.10286e-06)
(2.62438e-06 -2.6795e-08 -2.79246e-10 2.62438e-06 1.31359e-22 2.62438e-06)
(2.62438e-06 -2.6795e-08 -2.79246e-10 2.62438e-06 1.75199e-23 2.62438e-06)
(3.24189e-06 -3.76292e-08 -3.99475e-10 3.24189e-06 1.70714e-22 3.24189e-06)
(3.24189e-06 -3.76292e-08 -3.99475e-10 3.24189e-06 2.41859e-23 3.24189e-06)
(3.96813e-06 -5.20703e-08 -5.63099e-10 3.96813e-06 1.75567e-22 3.96813e-06)
(3.96813e-06 -5.20703e-08 -5.63099e-10 3.96813e-06 3.28361e-23 3.96813e-06)
(4.81707e-06 -7.11014e-08 -7.83255e-10 4.81707e-06 1.88992e-22 4.81707e-06)
(4.81707e-06 -7.11014e-08 -7.83255e-10 4.81707e-06 4.39323e-23 4.81707e-06)
(5.804e-06 -9.5925e-08 -1.07643e-09 5.804e-06 2.6101e-22 5.804e-06)
(5.804e-06 -9.5925e-08 -1.07643e-09 5.804e-06 5.80067e-23 5.804e-06)
(6.94566e-06 -1.28003e-07 -1.46321e-09 6.94566e-06 3.56689e-22 6.94566e-06)
(6.94566e-06 -1.28003e-07 -1.46321e-09 6.94566e-06 7.56507e-23 6.94566e-06)
(8.26029e-06 -1.69104e-07 -1.9691e-09 8.26029e-06 4.82858e-22 8.26029e-06)
(8.26029e-06 -1.69104e-07 -1.9691e-09 8.26029e-06 9.75559e-23 8.26029e-06)
(9.76783e-06 -2.21354e-07 -2.62563e-09 9.76783e-06 6.32911e-22 9.76783e-06)
(9.76783e-06 -2.21354e-07 -2.62563e-09 9.76783e-06 1.24416e-22 9.76783e-06)
(1.149e-05 -2.87303e-07 -3.47149e-09 1.149e-05 3.01212e-24 1.149e-05)
(1.149e-05 -2.87303e-07 -3.47149e-09 1.149e-05 1.56935e-22 1.149e-05)
(1.34503e-05 -3.69989e-07 -4.55402e-09 1.34503e-05 -1.4351e-22 1.34503e-05)
(1.34503e-05 -3.69989e-07 -4.55402e-09 1.34503e-05 1.96101e-22 1.34503e-05)
(1.56745e-05 -4.73024e-07 -5.93087e-09 1.56745e-05 -1.92062e-22 1.56745e-05)
(1.56745e-05 -4.73024e-07 -5.93087e-09 1.56745e-05 2.42925e-22 1.56745e-05)
(1.81904e-05 -6.0068e-07 -7.67198e-09 1.81904e-05 -2.53404e-22 1.81904e-05)
(1.81904e-05 -6.0068e-07 -7.67198e-09 1.81904e-05 2.98176e-22 1.81904e-05)
(2.10282e-05 -7.57996e-07 -9.86188e-09 2.10282e-05 -3.30367e-22 2.10282e-05)
(2.10282e-05 -7.57996e-07 -9.86188e-09 2.10282e-05 3.62614e-22 2.10282e-05)
(2.42206e-05 -9.50892e-07 -1.26024e-08 2.42206e-05 -4.2599e-22 2.42206e-05)
(2.42206e-05 -9.50892e-07 -1.26024e-08 2.42206e-05 4.37078e-22 2.42206e-05)
(2.78031e-05 -1.1863e-06 -1.60157e-08 2.78031e-05 -5.43417e-22 2.78031e-05)
(2.78031e-05 -1.1863e-06 -1.60157e-08 2.78031e-05 5.22495e-22 2.78031e-05)
(3.18138e-05 -1.47233e-06 -2.0248e-08 3.18138e-05 -6.87543e-22 3.18138e-05)
(3.18138e-05 -1.47233e-06 -2.0248e-08 3.18138e-05 6.19393e-22 3.18138e-05)
(3.62942e-05 -1.81839e-06 -2.54737e-08 3.62942e-05 -8.61927e-22 3.62942e-05)
(3.62942e-05 -1.81839e-06 -2.54737e-08 3.62942e-05 7.26924e-22 3.62942e-05)
(4.12889e-05 -2.23543e-06 -3.19e-08 4.12889e-05 -1.07108e-21 4.12889e-05)
(4.12889e-05 -2.23543e-06 -3.19e-08 4.12889e-05 8.45334e-22 4.12889e-05)
(4.68458e-05 -2.73609e-06 -3.97729e-08 4.68458e-05 -1.32103e-21 4.68458e-05)
(4.68458e-05 -2.73609e-06 -3.97729e-08 4.68458e-05 9.75775e-22 4.68458e-05)
(5.30167e-05 -3.33499e-06 -4.93828e-08 5.30167e-05 -1.61894e-21 5.30167e-05)
(5.30167e-05 -3.33499e-06 -4.93828e-08 5.30167e-05 1.11691e-21 5.30167e-05)
(5.98571e-05 -4.0489e-06 -6.10721e-08 5.98571e-05 -1.974e-21 5.98571e-05)
(5.98571e-05 -4.0489e-06 -6.10721e-08 5.98571e-05 1.26416e-21 5.98571e-05)
(6.74267e-05 -4.89709e-06 -7.52432e-08 6.74267e-05 -2.38538e-21 6.74267e-05)
(6.74267e-05 -4.89709e-06 -7.52432e-08 6.74267e-05 1.41096e-21 6.74267e-05)
(7.57895e-05 -5.90158e-06 -9.23675e-08 7.57895e-05 -2.85242e-21 7.57895e-05)
(7.57895e-05 -5.90158e-06 -9.23675e-08 7.57895e-05 1.55533e-21 7.57895e-05)
(8.50137e-05 -7.08747e-06 -1.12996e-07 8.50137e-05 -3.38674e-21 8.50137e-05)
(8.50137e-05 -7.08747e-06 -1.12996e-07 8.50137e-05 1.69427e-21 8.50137e-05)
(9.51727e-05 -8.48328e-06 -1.3777e-07 9.51727e-05 -4.01189e-21 9.51727e-05)
(9.51727e-05 -8.48328e-06 -1.3777e-07 9.51727e-05 1.81811e-21 9.51727e-05)
(0.000106344 -1.01213e-05 -1.67434e-07 0.000106344 -4.71548e-21 0.000106344)
(0.000106344 -1.01213e-05 -1.67434e-07 0.000106344 3.35067e-21 0.000106344)
(0.000118612 -1.20381e-05 -2.02852e-07 0.000118612 -5.47739e-21 0.000118612)
(0.000118612 -1.20381e-05 -2.02852e-07 0.000118612 6.15047e-21 0.000118612)
(0.000132064 -1.42745e-05 -2.45018e-07 0.000132064 -6.34698e-21 0.000132064)
(0.000132064 -1.42745e-05 -2.45018e-07 0.000132064 7.975e-21 0.000132064)
(0.000146793 -1.68768e-05 -2.95077e-07 0.000146793 -7.31533e-21 0.000146793)
(0.000146793 -1.68768e-05 -2.95077e-07 0.000146793 9.34493e-21 0.000146793)
(0.0001629 -1.98961e-05 -3.54341e-07 0.0001629 -8.31163e-21 0.0001629)
(0.0001629 -1.98961e-05 -3.54341e-07 0.0001629 1.08679e-20 0.0001629)
(0.000180488 -2.33896e-05 -4.24308e-07 0.000180488 -9.41802e-21 0.000180488)
(0.000180488 -2.33896e-05 -4.24308e-07 0.000180488 1.25057e-20 0.000180488)
(0.000199667 -2.74205e-05 -5.06682e-07 0.000199667 -1.07191e-20 0.000199667)
(0.000199667 -2.74205e-05 -5.06682e-07 0.000199667 1.44156e-20 0.000199667)
(0.000220553 -3.20586e-05 -6.03396e-07 0.000220553 -1.21181e-20 0.000220553)
(0.000220553 -3.20586e-05 -6.03396e-07 0.000220553 1.66717e-20 0.000220553)
(0.000243267 -3.73802e-05 -7.16626e-07 0.000243267 -1.34894e-20 0.000243267)
(0.000243267 -3.73802e-05 -7.16626e-07 0.000243267 1.91056e-20 0.000243267)
(0.000267933 -4.34686e-05 -8.48822e-07 0.000267933 -1.49076e-20 0.000267933)
(0.000267933 -4.34686e-05 -8.48822e-07 0.000267933 2.17645e-20 0.000267933)
(0.000294683 -5.04144e-05 -1.00272e-06 0.000294683 -1.60803e-21 0.000294683)
(0.000294683 -5.04144e-05 -1.00272e-06 0.000294683 2.47003e-20 0.000294683)
(0.00032365 -5.83148e-05 -1.18136e-06 0.00032365 4.74821e-20 0.00032365)
(0.00032365 -5.83148e-05 -1.18136e-06 0.00032365 2.78299e-20 0.00032365)
(0.000354972 -6.72741e-05 -1.38811e-06 0.000354972 9.25228e-20 0.000354972)
(0.000354972 -6.72741e-05 -1.38811e-06 0.000354972 3.13475e-20 0.000354972)
(0.000388789 -7.74031e-05 -1.62668e-06 0.000388789 1.09357e-19 0.000388789)
(0.000388789 -7.74031e-05 -1.62668e-06 0.000388789 7.88227e-20 0.000388789)
(0.000425243 -8.88183e-05 -1.9011e-06 0.000425243 1.28769e-19 0.000425243)
(0.000425243 -8.88183e-05 -1.9011e-06 0.000425243 1.69027e-19 0.000425243)
(0.000464478 -0.000101642 -2.21579e-06 0.000464478 1.50398e-19 0.000464478)
(0.000464478 -0.000101642 -2.21579e-06 0.000464478 2.26986e-19 0.000464478)
(0.000506634 -0.000115999 -2.57547e-06 0.000506634 1.7476e-19 0.000506634)
(0.000506634 -0.000115999 -2.57547e-06 0.000506634 2.59527e-19 0.000506634)
(0.000551853 -0.000132019 -2.98522e-06 0.000551853 2.02867e-19 0.000551853)
(0.000551853 -0.000132019 -2.98522e-06 0.000551853 2.95939e-19 0.000551853)
(0.000600269 -0.000149832 -3.45043e-06 0.000600269 2.3431e-19 0.000600269)
(0.000600269 -0.000149832 -3.45043e-06 0.000600269 3.36621e-19 0.000600269)
(0.000652014 -0.000169566 -3.97676e-06 0.000652014 2.69751e-19 0.000652014)
(0.000652014 -0.000169566 -3.97676e-06 0.000652014 3.80196e-19 0.000652014)
(0.00070721 -0.000191347 -4.57012e-06 0.00070721 3.09296e-19 0.00070721)
(0.00070721 -0.000191347 -4.57012e-06 0.00070721 4.27025e-19 0.00070721)
(0.00076597 -0.000215298 -5.23661e-06 0.00076597 3.52107e-19 0.00076597)
(0.00076597 -0.000215298 -5.23661e-06 0.00076597 4.77412e-19 0.00076597)
(0.000828394 -0.00024153 -5.98244e-06 0.000828394 3.98692e-19 0.000828394)
(0.000828394 -0.00024153 -5.98244e-06 0.000828394 5.30912e-19 0.000828394)
(0.000894569 -0.000270145 -6.81389e-06 0.000894569 4.48501e-19 0.000894569)
(0.000894569 -0.000270145 -6.81389e-06 0.000894569 5.89337e-19 0.000894569)
(0.000964565 -0.000301234 -7.73718e-06 0.000964565 5.016e-19 0.000964565)
(0.000964565 -0.000301234 -7.73718e-06 0.000964565 6.52354e-19 0.000964565)
(0.00103843 -0.000334868 -8.75844e-06 0.00103843 5.57492e-19 0.00103843)
(0.00103843 -0.000334868 -8.75844e-06 0.00103843 7.17245e-19 0.00103843)
(0.0011162 -0.000371102 -9.88356e-06 0.0011162 6.17201e-19 0.0011162)
(0.0011162 -0.000371102 -9.88356e-06 0.0011162 7.84621e-19 0.0011162)
(0.00119788 -0.000409968 -1.11181e-05 0.00119788 6.80109e-19 0.00119788)
(0.00119788 -0.000409968 -1.11181e-05 0.00119788 8.54743e-19 0.00119788)
(0.00128345 -0.000451476 -1.24673e-05 0.00128345 7.44429e-19 0.00128345)
(0.00128345 -0.000451476 -1.24673e-05 0.00128345 9.25095e-19 0.00128345)
(0.00137287 -0.000495611 -1.39357e-05 0.00137287 8.10198e-19 0.00137287)
(0.00137287 -0.000495611 -1.39357e-05 0.00137287 9.95193e-19 0.00137287)
(0.00146607 -0.000542333 -1.55275e-05 0.00146607 8.76114e-19 0.00146607)
(0.00146607 -0.000542333 -1.55275e-05 0.00146607 1.06687e-18 0.00146607)
(0.00156294 -0.000591574 -1.72461e-05 0.00156294 9.4498e-19 0.00156294)
(0.00156294 -0.000591574 -1.72461e-05 0.00156294 1.13978e-18 0.00156294)
(0.00166337 -0.000643241 -1.90941e-05 0.00166337 1.01362e-18 0.00166337)
(0.00166337 -0.000643241 -1.90941e-05 0.00166337 1.21205e-18 0.00166337)
(0.00176721 -0.000697217 -2.10735e-05 0.00176721 1.08755e-18 0.00176721)
(0.00176721 -0.000697217 -2.10735e-05 0.00176721 1.27873e-18 0.00176721)
(0.00187428 -0.000753361 -2.31855e-05 0.00187428 1.16272e-18 0.00187428)
(0.00187428 -0.000753361 -2.31855e-05 0.00187428 1.34315e-18 0.00187428)
(0.00198437 -0.000811509 -2.54304e-05 0.00198437 1.21379e-18 0.00198437)
(0.00198437 -0.000811509 -2.54304e-05 0.00198437 1.40222e-18 0.00198437)
(0.00209726 -0.000871481 -2.78078e-05 0.00209726 1.26448e-18 0.00209726)
(0.00209726 -0.000871481 -2.78078e-05 0.00209726 1.45299e-18 0.00209726)
(0.00221271 -0.00093308 -3.03166e-05 0.00221271 1.32956e-18 0.00221271)
(0.00221271 -0.00093308 -3.03166e-05 0.00221271 1.50894e-18 0.00221271)
(0.00233047 -0.000996096 -3.29549e-05 0.00233047 1.40135e-18 0.00233047)
(0.00233047 -0.000996096 -3.29549e-05 0.00233047 1.55067e-18 0.00233047)
(0.00245024 -0.00106031 -3.57204e-05 0.00245024 1.45446e-18 0.00245024)
(0.00245024 -0.00106031 -3.57204e-05 0.00245024 1.58078e-18 0.00245024)
(0.00257176 -0.0011255 -3.86099e-05 0.00257176 1.49109e-18 0.00257176)
(0.00257176 -0.0011255 -3.86099e-05 0.00257176 1.61932e-18 0.00257176)
(0.00269473 -0.00119144 -4.16201e-05 0.00269473 1.54967e-18 0.00269473)
(0.00269473 -0.00119144 -4.16201e-05 0.00269473 1.6512e-18 0.00269473)
(0.00281885 -0.00125791 -4.4747e-05 0.00281885 1.58647e-18 0.00281885)
(0.00281885 -0.00125791 -4.4747e-05 0.00281885 1.66285e-18 0.00281885)
(0.00294382 -0.00132469 -4.79866e-05 0.00294382 1.56877e-18 0.00294382)
(0.00294382 -0.00132469 -4.79866e-05 0.00294382 1.67762e-18 0.00294382)
(0.00306935 -0.00139155 -5.13344e-05 0.00306935 1.56316e-18 0.00306935)
(0.00306935 -0.00139155 -5.13344e-05 0.00306935 1.71199e-18 0.00306935)
(0.00319515 -0.00145831 -5.47859e-05 0.00319515 1.5983e-18 0.00319515)
(0.00319515 -0.00145831 -5.47859e-05 0.00319515 1.71905e-18 0.00319515)
(0.00332093 -0.00152477 -5.83366e-05 0.00332093 1.61279e-18 0.00332093)
(0.00332093 -0.00152477 -5.83366e-05 0.00332093 1.72254e-18 0.00332093)
(0.00344643 -0.00159075 -6.19819e-05 0.00344643 1.61938e-18 0.00344643)
(0.00344643 -0.00159075 -6.19819e-05 0.00344643 1.74328e-18 0.00344643)
(0.00357137 -0.00165609 -6.57174e-05 0.00357137 1.66225e-18 0.00357137)
(0.00357137 -0.00165609 -6.57174e-05 0.00357137 1.7314e-18 0.00357137)
(0.00369551 -0.00172063 -6.95388e-05 0.00369551 1.69026e-18 0.00369551)
(0.00369551 -0.00172063 -6.95388e-05 0.00369551 1.70976e-18 0.00369551)
(0.00381862 -0.00178423 -7.34419e-05 0.00381862 1.65469e-18 0.00381862)
(0.00381862 -0.00178423 -7.34419e-05 0.00381862 1.68882e-18 0.00381862)
(0.00394048 -0.00184679 -7.74227e-05 0.00394048 1.62554e-18 0.00394048)
(0.00394048 -0.00184679 -7.74227e-05 0.00394048 1.66545e-18 0.00394048)
(0.00406089 -0.00190818 -8.14776e-05 0.00406089 1.60076e-18 0.00406089)
(0.00406089 -0.00190818 -8.14776e-05 0.00406089 1.63223e-18 0.00406089)
(0.00417966 -0.00196832 -8.56031e-05 0.00417966 1.58598e-18 0.00417966)
(0.00417966 -0.00196832 -8.56031e-05 0.00417966 1.60338e-18 0.00417966)
(0.00429663 -0.00202713 -8.97961e-05 0.00429663 1.57605e-18 0.00429663)
(0.00429663 -0.00202713 -8.97961e-05 0.00429663 1.58712e-18 0.00429663)
(0.00441164 -0.00208454 -9.40535e-05 0.00441164 1.55702e-18 0.00441164)
(0.00441164 -0.00208454 -9.40535e-05 0.00441164 1.56072e-18 0.00441164)
(0.00452456 -0.00214051 -9.83728e-05 0.00452456 1.48679e-18 0.00452456)
(0.00452456 -0.00214051 -9.83728e-05 0.00452456 1.52915e-18 0.00452456)
(0.00463527 -0.00219498 -0.000102752 0.00463527 1.43038e-18 0.00463527)
(0.00463527 -0.00219498 -0.000102752 0.00463527 1.48045e-18 0.00463527)
(0.00474367 -0.00224792 -0.000107188 0.00474367 1.40555e-18 0.00474367)
(0.00474367 -0.00224792 -0.000107188 0.00474367 1.38676e-18 0.00474367)
(0.00484967 -0.00229932 -0.00011168 0.00484967 1.32315e-18 0.00484967)
(0.00484967 -0.00229932 -0.00011168 0.00484967 1.3767e-18 0.00484967)
(0.00495319 -0.00234915 -0.000116226 0.00495319 1.27694e-18 0.00495319)
(0.00495319 -0.00234915 -0.000116226 0.00495319 1.37545e-18 0.00495319)
(0.00505418 -0.00239742 -0.000120825 0.00505418 1.21383e-18 0.00505418)
(0.00505418 -0.00239742 -0.000120825 0.00505418 1.32257e-18 0.00505418)
(0.00515258 -0.00244411 -0.000125475 0.00515258 1.12888e-18 0.00515258)
(0.00515258 -0.00244411 -0.000125475 0.00515258 1.30633e-18 0.00515258)
(0.00524835 -0.00248924 -0.000130176 0.00524835 1.0493e-18 0.00524835)
(0.00524835 -0.00248924 -0.000130176 0.00524835 1.22953e-18 0.00524835)
(0.00534148 -0.00253281 -0.000134927 0.00534148 8.64313e-19 0.00534148)
(0.00534148 -0.00253281 -0.000134927 0.00534148 1.24357e-18 0.00534148)
(0.00543193 -0.00257484 -0.000139727 0.00543193 8.14842e-19 0.00543193)
(0.00543193 -0.00257484 -0.000139727 0.00543193 1.23442e-18 0.00543193)
(0.00551971 -0.00261536 -0.000144576 0.00551971 9.23156e-19 0.00551971)
(0.00551971 -0.00261536 -0.000144576 0.00551971 1.352e-18 0.00551971)
(0.0056048 -0.00265436 -0.000149474 0.0056048 8.32505e-19 0.0056048)
(0.0056048 -0.00265436 -0.000149474 0.0056048 1.59643e-18 0.0056048)
(0.00568722 -0.0026919 -0.000154421 0.00568722 6.64081e-19 0.00568722)
(0.00568722 -0.0026919 -0.000154421 0.00568722 1.71368e-18 0.00568722)
(0.00576698 -0.00272798 -0.000159417 0.00576698 5.94569e-19 0.00576698)
(0.00576698 -0.00272798 -0.000159417 0.00576698 1.71205e-18 0.00576698)
(0.00584409 -0.00276264 -0.000164461 0.00584409 4.21291e-19 0.00584409)
(0.00584409 -0.00276264 -0.000164461 0.00584409 1.68113e-18 0.00584409)
(0.00591858 -0.00279591 -0.000169555 0.00591858 3.39036e-19 0.00591858)
(0.00591858 -0.00279591 -0.000169555 0.00591858 1.87256e-18 0.00591858)
(0.00599046 -0.00282781 -0.000174698 0.00599046 3.08144e-19 0.00599046)
(0.00599046 -0.00282781 -0.000174698 0.00599046 1.99208e-18 0.00599046)
(0.00605978 -0.00285838 -0.00017989 0.00605978 2.6583e-20 0.00605978)
(0.00605978 -0.00285838 -0.00017989 0.00605978 1.85947e-18 0.00605978)
(0.00612657 -0.00288765 -0.000185133 0.00612657 -3.82235e-20 0.00612657)
(0.00612657 -0.00288765 -0.000185133 0.00612657 1.76279e-18 0.00612657)
(0.00619085 -0.00291565 -0.000190427 0.00619085 -3.64548e-19 0.00619085)
(0.00619085 -0.00291565 -0.000190427 0.00619085 1.94463e-18 0.00619085)
(0.00625268 -0.00294241 -0.000195772 0.00625268 -3.09924e-19 0.00625268)
(0.00625268 -0.00294241 -0.000195772 0.00625268 2.14866e-18 0.00625268)
(0.00631208 -0.00296796 -0.000201168 0.00631208 -8.14935e-20 0.00631208)
(0.00631208 -0.00296796 -0.000201168 0.00631208 2.01925e-18 0.00631208)
(0.0063691 -0.00299233 -0.000206618 0.0063691 -5.69788e-19 0.0063691)
(0.0063691 -0.00299233 -0.000206618 0.0063691 1.90117e-18 0.0063691)
(0.00642377 -0.00301556 -0.00021212 0.00642377 -1.32522e-18 0.00642377)
(0.00642377 -0.00301556 -0.00021212 0.00642377 1.87447e-18 0.00642377)
(0.00647616 -0.00303767 -0.000217676 0.00647616 -1.52487e-18 0.00647616)
(0.00647616 -0.00303767 -0.000217676 0.00647616 1.84221e-18 0.00647616)
(0.00652628 -0.0030587 -0.000223287 0.00652628 -1.09807e-18 0.00652628)
(0.00652628 -0.0030587 -0.000223287 0.00652628 2.13637e-18 0.00652628)
(0.0065742 -0.00307866 -0.000228953 0.0065742 -1.04613e-18 0.0065742)
(0.0065742 -0.00307866 -0.000228953 0.0065742 2.22443e-18 0.0065742)
(0.00661995 -0.00309759 -0.000234675 0.00661995 -1.33396e-18 0.00661995)
(0.00661995 -0.00309759 -0.000234675 0.00661995 2.1237e-18 0.00661995)
(0.00666357 -0.00311552 -0.000240454 0.00666357 -1.79639e-18 0.00666357)
(0.00666357 -0.00311552 -0.000240454 0.00666357 2.17774e-18 0.00666357)
(0.00670511 -0.00313247 -0.000246289 0.00670511 -2.57461e-18 0.00670511)
(0.00670511 -0.00313247 -0.000246289 0.00670511 2.47289e-18 0.00670511)
(0.00674461 -0.00314847 -0.000252183 0.00674461 -3.01637e-18 0.00674461)
(0.00674461 -0.00314847 -0.000252183 0.00674461 2.95349e-18 0.00674461)
(0.00678212 -0.00316354 -0.000258135 0.00678212 -2.76832e-18 0.00678212)
(0.00678212 -0.00316354 -0.000258135 0.00678212 2.49487e-18 0.00678212)
(0.00681767 -0.0031777 -0.000264147 0.00681767 -3.22649e-18 0.00681767)
(0.00681767 -0.0031777 -0.000264147 0.00681767 2.07986e-18 0.00681767)
(0.00685129 -0.00319098 -0.000270218 0.00685129 -3.72953e-18 0.00685129)
(0.00685129 -0.00319098 -0.000270218 0.00685129 2.89603e-18 0.00685129)
(0.00688305 -0.00320339 -0.00027635 0.00688305 -3.45235e-18 0.00688305)
(0.00688305 -0.00320339 -0.00027635 0.00688305 3.69324e-18 0.00688305)
(0.00691296 -0.00321497 -0.000282542 0.00691296 -3.26178e-18 0.00691296)
(0.00691296 -0.00321497 -0.000282542 0.00691296 3.66585e-18 0.00691296)
(0.00694107 -0.00322573 -0.000288796 0.00694107 -3.70758e-18 0.00694107)
(0.00694107 -0.00322573 -0.000288796 0.00694107 3.25476e-18 0.00694107)
(0.00696742 -0.00323568 -0.000295112 0.00696742 -5.00352e-18 0.00696742)
(0.00696742 -0.00323568 -0.000295112 0.00696742 3.47828e-18 0.00696742)
(0.00699203 -0.00324485 -0.00030149 0.00699203 -5.57893e-18 0.00699203)
(0.00699203 -0.00324485 -0.00030149 0.00699203 3.35394e-18 0.00699203)
(0.00701495 -0.00325326 -0.000307931 0.00701495 -6.32232e-18 0.00701495)
(0.00701495 -0.00325326 -0.000307931 0.00701495 3.75539e-18 0.00701495)
(0.0070362 -0.00326092 -0.000314435 0.0070362 -7.86143e-18 0.0070362)
(0.0070362 -0.00326092 -0.000314435 0.0070362 7.03151e-18 0.0070362)
(0.00705582 -0.00326784 -0.000321003 0.00705582 -7.67705e-18 0.00705582)
(0.00705582 -0.00326784 -0.000321003 0.00705582 1.02549e-17 0.00705582)
(0.00707385 -0.00327404 -0.000327634 0.00707385 -6.50096e-18 0.00707385)
(0.00707385 -0.00327404 -0.000327634 0.00707385 1.0948e-17 0.00707385)
(0.0070903 -0.00327954 -0.000334328 0.0070903 -6.87409e-18 0.0070903)
(0.0070903 -0.00327954 -0.000334328 0.0070903 1.08304e-17 0.0070903)
(0.0071052 -0.00328435 -0.000341086 0.0071052 -7.52765e-18 0.0071052)
(0.0071052 -0.00328435 -0.000341086 0.0071052 1.10995e-17 0.0071052)
(0.00711859 -0.00328848 -0.000347908 0.00711859 -6.85848e-18 0.00711859)
(0.00711859 -0.00328848 -0.000347908 0.00711859 1.17497e-17 0.00711859)
(0.0071305 -0.00329194 -0.000354794 0.0071305 -4.54233e-18 0.0071305)
(0.0071305 -0.00329194 -0.000354794 0.0071305 1.25639e-17 0.0071305)
(0.00714093 -0.00329475 -0.000361744 0.00714093 -2.31553e-18 0.00714093)
(0.00714093 -0.00329475 -0.000361744 0.00714093 1.33988e-17 0.00714093)
(0.00714993 -0.00329691 -0.000368757 0.00714993 -2.11186e-18 0.00714993)
(0.00714993 -0.00329691 -0.000368757 0.00714993 1.42679e-17 0.00714993)
(0.00715751 -0.00329844 -0.000375832 0.00715751 -2.08767e-18 0.00715751)
(0.00715751 -0.00329844 -0.000375832 0.00715751 1.40793e-17 0.00715751)
(0.00716369 -0.00329934 -0.000382971 0.00716369 -5.86537e-19 0.00716369)
(0.00716369 -0.00329934 -0.000382971 0.00716369 1.31376e-17 0.00716369)
(0.00716849 -0.00329963 -0.000390172 0.00716849 -9.26843e-19 0.00716849)
(0.00716849 -0.00329963 -0.000390172 0.00716849 1.36362e-17 0.00716849)
(0.00717194 -0.00329931 -0.000397435 0.00717194 -2.61932e-18 0.00717194)
(0.00717194 -0.00329931 -0.000397435 0.00717194 1.6017e-17 0.00717194)
(0.00717405 -0.00329838 -0.000404758 0.00717405 -3.64018e-18 0.00717405)
(0.00717405 -0.00329838 -0.000404758 0.00717405 1.72176e-17 0.00717405)
(0.00717484 -0.00329687 -0.000412142 0.00717484 -3.97044e-18 0.00717484)
(0.00717484 -0.00329687 -0.000412142 0.00717484 1.82511e-17 0.00717484)
(0.00717433 -0.00329476 -0.000419585 0.00717433 -2.13153e-18 0.00717433)
(0.00717433 -0.00329476 -0.000419585 0.00717433 1.92448e-17 0.00717433)
(0.00717253 -0.00329207 -0.000427086 0.00717253 -1.84192e-18 0.00717253)
(0.00717253 -0.00329207 -0.000427086 0.00717253 1.84534e-17 0.00717253)
(0.00716946 -0.00328881 -0.000434645 0.00716946 -1.73032e-18 0.00716946)
(0.00716946 -0.00328881 -0.000434645 0.00716946 1.89146e-17 0.00716946)
(0.00716512 -0.00328498 -0.000442259 0.00716512 -8.41106e-19 0.00716512)
(0.00716512 -0.00328498 -0.000442259 0.00716512 2.15079e-17 0.00716512)
(0.00715954 -0.00328057 -0.000449928 0.00715954 -2.45593e-20 0.00715954)
(0.00715954 -0.00328057 -0.000449928 0.00715954 2.20543e-17 0.00715954)
(0.00715272 -0.00327561 -0.000457649 0.00715272 2.75072e-19 0.00715272)
(0.00715272 -0.00327561 -0.000457649 0.00715272 2.04121e-17 0.00715272)
(0.00714469 -0.00327008 -0.000465422 0.00714469 -1.6889e-18 0.00714469)
(0.00714469 -0.00327008 -0.000465422 0.00714469 1.9833e-17 0.00714469)
(0.00713543 -0.003264 -0.000473244 0.00713543 -9.98373e-19 0.00713543)
(0.00713543 -0.003264 -0.000473244 0.00713543 1.83754e-17 0.00713543)
(0.00712497 -0.00325736 -0.000481113 0.00712497 -1.92257e-18 0.00712497)
(0.00712497 -0.00325736 -0.000481113 0.00712497 1.88107e-17 0.00712497)
(0.00711332 -0.00325018 -0.000489028 0.00711332 -3.51149e-18 0.00711332)
(0.00711332 -0.00325018 -0.000489028 0.00711332 2.10348e-17 0.00711332)
(0.00710048 -0.00324244 -0.000496985 0.00710048 -1.22329e-18 0.00710048)
(0.00710048 -0.00324244 -0.000496985 0.00710048 2.26036e-17 0.00710048)
(0.00708646 -0.00323415 -0.000504982 0.00708646 -4.1676e-19 0.00708646)
(0.00708646 -0.00323415 -0.000504982 0.00708646 2.56517e-17 0.00708646)
(0.00707126 -0.00322531 -0.000513016 0.00707126 -9.95402e-19 0.00707126)
(0.00707126 -0.00322531 -0.000513016 0.00707126 2.58833e-17 0.00707126)
(0.00705489 -0.00321592 -0.000521085 0.00705489 -1.7916e-18 0.00705489)
(0.00705489 -0.00321592 -0.000521085 0.00705489 2.17221e-17 0.00705489)
(0.00703736 -0.00320599 -0.000529185 0.00703736 -1.74236e-18 0.00703736)
(0.00703736 -0.00320599 -0.000529185 0.00703736 2.33419e-17 0.00703736)
(0.00701867 -0.00319551 -0.000537313 0.00701867 -3.28671e-18 0.00701867)
(0.00701867 -0.00319551 -0.000537313 0.00701867 2.64526e-17 0.00701867)
(0.00699882 -0.00318448 -0.000545465 0.00699882 -3.77619e-18 0.00699882)
(0.00699882 -0.00318448 -0.000545465 0.00699882 2.54491e-17 0.00699882)
(0.00697782 -0.0031729 -0.000553637 0.00697782 -1.6489e-18 0.00697782)
(0.00697782 -0.0031729 -0.000553637 0.00697782 2.67962e-17 0.00697782)
(0.00695567 -0.00316077 -0.000561825 0.00695567 -4.13825e-18 0.00695567)
(0.00695567 -0.00316077 -0.000561825 0.00695567 2.74658e-17 0.00695567)
(0.00693236 -0.00314808 -0.000570025 0.00693236 -6.91592e-18 0.00693236)
(0.00693236 -0.00314808 -0.000570025 0.00693236 2.91251e-17 0.00693236)
(0.00690791 -0.00313484 -0.000578232 0.00690791 -4.99655e-18 0.00690791)
(0.00690791 -0.00313484 -0.000578232 0.00690791 2.98993e-17 0.00690791)
(0.00688231 -0.00312105 -0.000586441 0.00688231 -2.42459e-18 0.00688231)
(0.00688231 -0.00312105 -0.000586441 0.00688231 2.88087e-17 0.00688231)
(0.00685556 -0.0031067 -0.000594647 0.00685556 -2.22608e-18 0.00685556)
(0.00685556 -0.0031067 -0.000594647 0.00685556 3.04903e-17 0.00685556)
(0.00682766 -0.00309178 -0.000602843 0.00682766 -4.0733e-18 0.00682766)
(0.00682766 -0.00309178 -0.000602843 0.00682766 3.24267e-17 0.00682766)
(0.0067986 -0.0030763 -0.000611026 0.0067986 -6.64594e-18 0.0067986)
(0.0067986 -0.0030763 -0.000611026 0.0067986 3.51661e-17 0.0067986)
(0.0067684 -0.00306025 -0.000619187 0.0067684 -4.22231e-18 0.0067684)
(0.0067684 -0.00306025 -0.000619187 0.0067684 3.4374e-17 0.0067684)
(0.00673704 -0.00304362 -0.00062732 0.00673704 -2.28627e-18 0.00673704)
(0.00673704 -0.00304362 -0.00062732 0.00673704 3.87695e-17 0.00673704)
(0.00670452 -0.00302643 -0.000635419 0.00670452 8.34951e-19 0.00670452)
(0.00670452 -0.00302643 -0.000635419 0.00670452 4.41556e-17 0.00670452)
(0.00667084 -0.00300864 -0.000643477 0.00667084 6.77609e-18 0.00667084)
(0.00667084 -0.00300864 -0.000643477 0.00667084 3.82575e-17 0.00667084)
(0.00663599 -0.00299028 -0.000651484 0.00663599 2.76617e-18 0.00663599)
(0.00663599 -0.00299028 -0.000651484 0.00663599 3.33985e-17 0.00663599)
(0.00659998 -0.00297132 -0.000659433 0.00659998 -3.01498e-19 0.00659998)
(0.00659998 -0.00297132 -0.000659433 0.00659998 4.11372e-17 0.00659998)
(0.00656279 -0.00295177 -0.000667316 0.00656279 1.16208e-18 0.00656279)
(0.00656279 -0.00295177 -0.000667316 0.00656279 3.88862e-17 0.00656279)
(0.00652442 -0.00293162 -0.000675124 0.00652442 1.86212e-18 0.00652442)
(0.00652442 -0.00293162 -0.000675124 0.00652442 2.98758e-17 0.00652442)
(0.00648487 -0.00291086 -0.000682846 0.00648487 8.21022e-19 0.00648487)
(0.00648487 -0.00291086 -0.000682846 0.00648487 2.95066e-17 0.00648487)
(0.00644413 -0.00288948 -0.000690473 0.00644413 1.91467e-18 0.00644413)
(0.00644413 -0.00288948 -0.000690473 0.00644413 3.40081e-17 0.00644413)
(0.00640219 -0.00286749 -0.000697994 0.00640219 -4.61211e-18 0.00640219)
(0.00640219 -0.00286749 -0.000697994 0.00640219 3.08375e-17 0.00640219)
(0.00635905 -0.00284488 -0.000705398 0.00635905 -2.19003e-18 0.00635905)
(0.00635905 -0.00284488 -0.000705398 0.00635905 2.55515e-17 0.00635905)
(0.00631471 -0.00282163 -0.000712674 0.00631471 3.40514e-18 0.00631471)
(0.00631471 -0.00282163 -0.000712674 0.00631471 2.24195e-17 0.00631471)
(0.00626915 -0.00279774 -0.000719809 0.00626915 -8.44426e-19 0.00626915)
(0.00626915 -0.00279774 -0.000719809 0.00626915 2.02715e-17 0.00626915)
(0.00622237 -0.00277321 -0.00072679 0.00622237 -3.08459e-18 0.00622237)
(0.00622237 -0.00277321 -0.00072679 0.00622237 1.79593e-17 0.00622237)
(0.00617436 -0.00274802 -0.000733604 0.00617436 -1.45209e-18 0.00617436)
(0.00617436 -0.00274802 -0.000733604 0.00617436 1.40155e-17 0.00617436)
(0.00612512 -0.00272217 -0.000740237 0.00612512 -1.21861e-19 0.00612512)
(0.00612512 -0.00272217 -0.000740237 0.00612512 1.5382e-17 0.00612512)
(0.00607463 -0.00269565 -0.000746674 0.00607463 7.16301e-18 0.00607463)
(0.00607463 -0.00269565 -0.000746674 0.00607463 4.3222e-18 0.00607463)
(0.0060229 -0.00266845 -0.000752899 0.0060229 1.14841e-17 0.0060229)
(0.0060229 -0.00266845 -0.000752899 0.0060229 -1.39309e-18 0.0060229)
(0.00596991 -0.00264057 -0.000758897 0.00596991 2.31411e-18 0.00596991)