/*--------------------------------*- C++ -*----------------------------------*\
| =========                 |                                                 |
| \\      /  F ield         | OpenFOAM: The Open Source CFD Toolbox           |
|  \\    /   O peration     | Version:  2106                                  |
|   \\  /    A nd           | Website:  www.openfoam.com                      |
|    \\/     M anipulation  |                                                 |
\*---------------------------------------------------------------------------*/
FoamFile
{
    version     2.0;
    format      ascii;
    arch        "LSB;label=32;scalar=64";
    class       volTensorField;
    location    "10010";
    object      grad(U);
}
// * * * * * * * * * * * * * * * * * * * * * * * * * * * * * * * * * * * * * //

dimensions      [0 0 -1 0 0 0 0];

internalField   nonuniform List<tensor> 
2000
(
(0 4.87821e-30 0 35.0129 -8.48401e-12 3.15544e-30 0.0648022 -1.00958e-14 -6.94676e-28)
(0 -4.87821e-30 -9.52776e-33 35.0129 -5.91316e-16 -1.71836e-18 0.0648022 -3.71395e-18 5.08067e-17)
(-5.61639e-17 2.18532e-29 -8.72962e-32 35.0062 -4.96415e-14 2.44646e-14 0.195592 -1.87166e-16 2.21052e-16)
(5.61639e-17 -5.51776e-29 8.72962e-32 35.0062 3.25495e-16 -1.84952e-18 0.195592 1.22723e-18 -1.23055e-16)
(-7.97496e-18 0 1.22424e-32 34.9995 7.75288e-28 2.51295e-15 0.271331 8.26472e-46 2.35416e-16)
(0 3.13405e-30 -2.44847e-32 34.9995 -5.14167e-16 3.1315e-18 0.271331 5.03013e-19 -1.27719e-16)
(-2.6107e-17 -1.24545e-30 1.2018e-32 34.9927 5.59321e-13 3.80117e-15 0.276342 -6.60831e-15 2.38027e-16)
(1.04428e-16 6.15323e-30 -2.40361e-32 34.9927 -2.61202e-17 1.79842e-18 0.276342 1.4206e-18 -1.3258e-16)
(0 1.2081e-29 -3.53934e-32 34.9858 -2.32753e-15 3.67099e-15 0.281444 -2.17997e-15 2.07915e-16)
(0 -6.04048e-30 2.35956e-32 34.9858 -1.29519e-16 -9.44074e-19 0.281444 2.15425e-18 -1.37654e-16)
(0 -3.61484e-27 -9.26529e-32 34.9787 -3.88272e-14 3.75565e-15 0.286639 -1.57633e-16 1.85308e-16)
(-2.53528e-16 -1.77894e-29 9.26529e-32 34.9787 -1.81293e-16 -2.58472e-18 0.286639 2.55449e-18 -1.42951e-16)
(2.04813e-16 -5.19336e-28 4.54775e-32 34.9715 -1.3316e-27 3.92405e-15 0.291929 0 1.61274e-16)
(3.30151e-16 1.16422e-29 -6.82163e-32 34.9715 -8.346e-17 -2.04737e-18 0.291929 3.05356e-18 -1.48477e-16)
(0 0 0 34.964 2.1937e-15 4.06279e-15 0.297313 -3.27415e-17 1.34774e-16)
(8.16377e-16 2.85723e-30 -2.23221e-32 34.964 -3.34202e-17 -2.5078e-18 0.297313 3.89435e-18 -1.5424e-16)
(-1.21917e-16 -2.85641e-30 -2.4635e-32 34.9561 -8.74142e-17 4.1777e-15 0.302792 -5.54762e-18 1.06525e-16)
(0 8.41461e-30 -2.1913e-32 34.9561 -1.91963e-16 -4.07905e-18 0.302792 4.71e-18 -1.60255e-16)
(1.93758e-16 -1.10139e-29 4.3023e-32 34.9476 -8.82373e-16 4.28483e-15 0.308366 -9.92235e-18 7.66075e-17)
(0 1.10139e-29 -4.3023e-32 34.9476 -3.24762e-16 -7.42048e-18 0.308366 5.06283e-18 -1.6653e-16)
(3.80415e-16 -2.97332e-29 2.53408e-31 34.9382 -1.17562e-15 4.38767e-15 0.314034 -1.10289e-17 4.51643e-17)
(-1.90208e-16 2.70301e-29 -2.3229e-31 34.9382 -2.88105e-16 -1.08304e-17 0.314034 5.07167e-18 -1.73086e-16)
(-2.9664e-18 5.20735e-30 -4.45786e-32 34.9276 -1.04715e-15 4.48808e-15 0.319792 -7.94352e-18 4.15553e-17)
(7.35023e-16 -2.65348e-30 6.2191e-32 34.9276 -2.59556e-16 -7.34075e-18 0.319792 5.69891e-18 -1.79923e-16)
(0 -5.20972e-30 0 34.9153 -7.58147e-16 4.58647e-15 0.325636 -6.05261e-18 4.32366e-17)
(0 5.20972e-30 0 34.9153 -4.17319e-16 -2.47278e-18 0.325636 6.27227e-18 -1.87027e-16)
(-5.86792e-16 2.57682e-29 -2.61042e-31 34.9004 -4.61233e-16 4.68263e-15 0.33156 -2.60005e-18 4.49487e-17)
(0 -2.0457e-29 1.79798e-31 34.9004 -4.07438e-16 -3.41489e-18 0.33156 6.60489e-18 -1.94423e-16)
(-6.02372e-16 1.78155e-29 -8.20628e-32 34.8821 -2.98739e-16 4.77853e-15 0.337553 -3.13488e-18 4.67224e-17)
(0 -1.00411e-29 0 34.8821 -4.08206e-16 -1.4038e-17 0.337553 7.86336e-18 -2.02132e-16)
(6.18481e-16 -1.26098e-29 1.21459e-31 34.8592 -6.45331e-16 4.87245e-15 0.343603 -9.53312e-18 4.84946e-17)
(-1.08666e-15 7.3928e-30 -7.70083e-32 34.8592 -6.54137e-16 -1.97322e-17 0.343603 8.61004e-18 -2.10195e-16)
(0 -7.25733e-30 3.77986e-32 34.8303 -1.11582e-15 4.96061e-15 0.349692 -1.27047e-17 5.0254e-17)
(0 7.25733e-30 -7.55972e-32 34.8303 -4.11917e-16 -1.18754e-17 0.349692 7.58556e-18 -2.18553e-16)
(9.70382e-16 -2.45042e-29 3.18344e-31 34.7935 -1.10449e-15 5.04151e-15 0.355797 -9.6606e-18 5.19775e-17)
(1.27232e-15 1.66235e-29 -1.8553e-31 34.7935 -2.1082e-16 -1.19918e-17 0.355797 9.01149e-18 -2.27196e-16)
(-3.41923e-16 9.74715e-30 -1.22268e-31 34.7467 -8.56625e-16 5.11613e-15 0.361892 -8.01632e-18 5.37034e-17)
(0 -2.33126e-30 3.6426e-32 34.7467 -5.6892e-16 -2.51828e-17 0.361892 1.04926e-17 -2.36171e-16)
(3.66195e-16 -2.75312e-30 1.20889e-31 34.6871 -8.44899e-16 5.18093e-15 0.367939 -9.77563e-18 5.53122e-17)
(1.46478e-15 4.57709e-30 -1.07275e-31 34.6871 -4.42272e-16 -2.63247e-17 0.367939 8.85273e-18 -2.45481e-16)
(-3.90899e-16 2.75264e-30 -4.93093e-32 34.6117 -1.06411e-15 5.23212e-15 0.373898 -1.30602e-17 5.68344e-17)
(3.12719e-15 0 0 34.6117 -2.11703e-16 -1.39144e-17 0.373898 1.02638e-17 -2.55027e-16)
(0 1.32326e-29 -1.0338e-31 34.5171 -9.17846e-16 5.26828e-15 0.379718 -6.92106e-18 5.81931e-17)
(1.66414e-15 -8.82175e-30 6.89199e-32 34.5171 -6.83053e-16 -1.58611e-17 0.379718 1.23635e-17 -2.64798e-16)
(0 -1.53216e-29 1.01486e-31 34.3992 0 5.28563e-15 0.385341 -3.15544e-30 5.93656e-17)
(1.76642e-15 0 -1.01486e-31 34.3992 -9.88982e-16 -2.42021e-17 0.385341 1.10785e-17 -2.74826e-16)
(0 8.5014e-30 -1.32834e-31 34.2538 -3.02403e-16 5.28147e-15 0.390703 -7.0788e-18 6.02908e-17)
(1.27216e-15 -4.2507e-30 6.64172e-32 34.2538 -9.54327e-16 -2.5516e-17 0.390703 9.96183e-18 -2.85041e-16)
(-4.94011e-16 2.75204e-30 8.15448e-32 34.0764 -7.99583e-16 5.2508e-15 0.395729 -1.14134e-17 6.08882e-17)
(0 4.17281e-30 -1.956e-31 34.0764 -9.59885e-16 -3.23897e-17 0.395729 9.43515e-18 -2.95386e-16)
(0 -1.63854e-29 1.92016e-31 33.8623 -8.96349e-16 5.1914e-15 0.400344 -9.64153e-18 6.11533e-17)
(2.08332e-15 1.63854e-29 -1.92016e-31 33.8623 -9.23216e-16 -3.20016e-17 0.400344 9.24497e-18 -3.05848e-16)
(1.79077e-17 -5.29042e-30 1.43838e-32 33.6069 -7.84707e-16 5.10337e-15 0.404468 -9.14504e-18 6.10548e-17)
(0 8.04256e-30 -1.25665e-31 33.6069 -9.94172e-16 -2.44896e-17 0.404468 8.68119e-18 -3.1627e-16)
(-5.7561e-16 -4.81757e-30 -4.81961e-32 33.3059 0 4.98383e-15 0.40802 0 6.05145e-17)
(0 3.94759e-30 -6.16811e-32 33.3059 -1.05344e-15 -3.20235e-17 0.40802 6.51913e-18 -3.26622e-16)
(0 -2.09254e-29 -1.81652e-31 32.9556 1.81013e-16 4.83335e-15 0.410924 -1.1245e-18 5.95813e-17)
(0 0 1.21102e-31 32.9556 -1.68014e-15 -3.92663e-17 0.410924 5.70678e-18 -3.36872e-16)
(-1.70253e-15 2.17703e-29 -6.45702e-31 32.5532 1.27597e-15 4.65922e-15 0.413112 -1.73167e-17 5.83458e-17)
(-2.52692e-15 -1.5217e-29 5.34971e-31 32.5532 -2.19348e-15 -3.18195e-17 0.413112 2.03969e-18 -3.46878e-16)
(6.60198e-16 -2.74776e-30 5.38066e-32 32.0965 9.29772e-16 4.46056e-15 0.414524 -1.49601e-17 5.6656e-17)
(2.64079e-15 0 0 32.0965 -1.6471e-15 -3.20721e-17 0.414524 -4.72064e-18 -3.56516e-16)
(0 3.66609e-30 -2.29131e-31 31.5851 2.59013e-16 4.23571e-15 0.415119 -8.95902e-18 5.45833e-17)
(0 0 1.14565e-31 31.5851 -1.10267e-15 -2.35112e-17 0.415119 -8.07566e-18 -3.65781e-16)
(-7.17718e-16 1.35409e-29 -3.40073e-31 31.0194 -1.11272e-15 3.98235e-15 0.414869 -2.77494e-17 5.19484e-17)
(0 -1.07967e-29 2.81165e-31 31.0194 -6.275e-16 -2.70983e-17 0.414869 -8.01393e-18 -3.74484e-16)
(-7.46659e-16 2.74635e-30 4.90043e-32 30.4017 -1.64613e-15 3.70661e-15 0.413767 -1.70192e-17 4.90544e-17)
(0 3.53297e-30 -2.2081e-31 30.4017 -4.15584e-16 -4.93246e-17 0.413767 -7.74698e-18 -3.82837e-16)
(0 -2.92975e-29 3.25146e-31 29.7353 -5.40143e-16 3.42258e-15 0.411826 -3.74931e-18 4.59462e-17)
(3.10256e-15 2.08093e-29 -3.25146e-31 29.7353 -7.35528e-16 -4.68246e-17 0.411826 -5.02497e-18 -3.90688e-16)
(-9.5833e-16 1.75162e-46 -1.06396e-31 29.0248 -3.88761e-28 3.14001e-15 0.409076 -1.17769e-46 4.28359e-17)
(0 0 0 29.0248 -1.19115e-15 -4.44646e-17 0.409076 -6.29032e-18 -3.97949e-16)
(8.33469e-16 5.95296e-31 6.82918e-32 28.2759 2.04154e-16 2.86923e-15 0.405566 -1.96036e-18 3.98033e-17)
(3.33388e-15 -3.34228e-30 0 28.2759 -1.18713e-15 -3.74926e-17 0.405566 -1.42683e-17 -4.04659e-16)
(-8.62195e-16 -1.36601e-29 3.39733e-31 27.4949 1.61402e-16 2.60828e-15 0.401355 -3.93994e-18 3.67198e-17)
(3.44878e-15 1.64052e-29 -5.12662e-31 27.4949 -1.48949e-15 -3.82603e-17 0.401355 -1.68629e-17 -4.10692e-16)
(-1.79732e-15 -1.83064e-29 4.309e-31 26.6886 1.02722e-16 2.35764e-15 0.396517 -7.67775e-19 3.37397e-17)
(0 1.28836e-29 -5.03267e-31 26.6886 -2.71042e-15 -3.55972e-17 0.396517 -2.46619e-17 -4.16261e-16)
(-8.89993e-16 1.58094e-29 -4.94045e-31 25.864 6.69778e-16 2.12849e-15 0.391131 -1.55924e-17 3.10595e-17)
(4.5659e-15 -1.58094e-29 4.94045e-31 25.864 -2.8755e-15 1.24824e-17 0.391131 -3.41403e-17 -4.21224e-16)
(-1.89386e-15 8.58892e-30 -4.42688e-31 25.028 -4.17647e-17 1.92283e-15 0.38528 -6.10089e-18 2.85712e-17)
(3.78772e-15 0 1.93997e-31 25.028 -2.39509e-15 2.07039e-17 0.38528 -3.43094e-17 -4.25427e-16)
(8.57674e-16 -9.14121e-30 9.52209e-32 24.1871 -7.18242e-16 1.73754e-15 0.379046 -1.66957e-17 2.63194e-17)
(0 9.14121e-30 -1.90442e-31 24.1871 -1.55435e-15 -1.86995e-17 0.379046 -4.25957e-17 -4.294e-16)
(1.68391e-15 -1.19649e-29 1.86952e-31 23.3473 -1.96052e-15 1.56397e-15 0.37251 -4.66965e-17 2.4008e-17)
(0 1.19649e-29 -2.80428e-31 23.3473 -3.44455e-16 -6.96345e-17 0.37251 -3.65302e-17 -4.33125e-16)
(-1.02852e-15 1.65524e-30 -4.47189e-31 22.514 -1.36364e-15 1.40695e-15 0.365748 -1.11798e-17 2.21139e-17)
(-4.1141e-15 -2.93642e-30 1.83526e-31 22.514 2.47259e-16 -9.54889e-17 0.365748 -2.7336e-17 -4.36973e-16)
(1.05486e-15 -9.84774e-31 -9.89005e-32 21.692 0 1.28373e-15 0.358831 -3.15544e-30 2.07578e-17)
(4.21945e-15 -5.76522e-30 0 21.692 -1.3911e-16 -6.76472e-17 0.358831 -2.21544e-17 -4.40548e-16)
(1.08073e-15 1.1407e-29 -2.71363e-31 20.8852 -2.05906e-16 1.17975e-15 0.351821 -1.15546e-17 1.93758e-17)
(-4.32294e-15 -1.41489e-29 3.53723e-31 20.8852 -1.77315e-15 -4.90183e-17 0.351821 -1.79703e-17 -4.43838e-16)
(4.57712e-16 2.74182e-30 -8.32705e-32 20.097 -5.64885e-16 1.10013e-15 0.344774 -7.99411e-18 1.87544e-17)
(4.4245e-15 0 0 20.097 -2.17912e-15 -1.06361e-18 0.344774 -3.20137e-17 -4.47066e-16)
(0 -1.36351e-29 3.40878e-31 19.33 -7.3782e-16 1.04506e-15 0.337738 -1.81536e-17 1.81431e-17)
(9.0482e-15 1.36351e-29 -3.40878e-31 19.33 -1.41711e-15 5.35772e-17 0.337738 -3.88681e-17 -4.49849e-16)
(2.66248e-15 -2.76527e-29 7.54346e-31 18.586 -4.99851e-16 9.94368e-16 0.330755 -4.49504e-18 1.76205e-17)
(4.62172e-15 1.60623e-29 -5.01948e-31 18.586 -2.14063e-15 -6.81912e-18 0.330755 -3.51828e-17 -4.52451e-16)
(-1.17934e-15 0 -4.14325e-31 17.8666 -1.37185e-30 9.65838e-16 0.323858 0 1.77716e-17)
(-4.71735e-15 -5.256e-30 2.46375e-31 17.8666 -2.99758e-15 -7.79362e-17 0.323858 -4.3243e-17 -4.55695e-16)
(0 -7.73953e-30 3.2248e-31 17.1727 1.02523e-15 9.58354e-16 0.317075 -2.18145e-17 1.80025e-17)
(0 7.73953e-30 -3.2248e-31 17.1727 -2.38441e-15 -5.73996e-17 0.317075 -5.68361e-17 -4.59041e-16)
(-4.07709e-15 1.79349e-29 -4.03757e-31 16.5048 1.21062e-16 9.59075e-16 0.310429 -1.64039e-17 1.8469e-17)
(0 -7.5977e-30 7.91427e-32 16.5048 -2.0585e-15 -1.52875e-18 0.310429 -5.26678e-17 -4.6228e-16)
(0 -1.18561e-29 2.33077e-31 15.8631 -2.13904e-16 9.61091e-16 0.303937 -2.07128e-18 1.87597e-17)
(0 7.45848e-30 -2.33077e-31 15.8631 -2.60296e-15 3.32645e-18 0.303937 -5.47522e-17 -4.65316e-16)
(0 -3.81826e-44 -5.33881e-31 15.2475 2.75134e-28 9.70525e-16 0.297612 0 1.95406e-17)
(-5.08034e-15 -1.70842e-29 6.86419e-31 15.2475 -2.89707e-15 -3.98785e-17 0.297612 -6.80482e-17 -4.68804e-16)
(-5.71712e-17 4.45153e-30 -1.36277e-31 14.6577 1.60317e-15 9.89914e-16 0.291463 -3.32799e-17 2.02532e-17)
(0 0 0 14.6577 -3.17338e-15 -3.7259e-17 0.291463 -7.20943e-17 -4.72575e-16)
(1.14033e-17 2.73549e-30 5.90729e-32 14.0932 6.31757e-16 1.0101e-15 0.285496 -3.11358e-17 2.11111e-17)
(-1.32404e-15 4.70395e-30 -2.93997e-31 14.0932 -3.23794e-15 2.56202e-17 0.285496 -8.60481e-17 -4.76378e-16)
(-2.66651e-15 3.71344e-44 1.85726e-31 13.5532 2.65416e-28 1.03393e-15 0.279716 0 2.20195e-17)
(5.33301e-15 6.92663e-30 -1.44305e-31 13.5532 -3.11216e-15 7.44757e-17 0.279716 -1.0156e-16 -4.79866e-16)
(-1.35344e-15 -1.79721e-30 5.46008e-32 13.0371 6.19781e-16 1.05963e-15 0.274123 -7.8039e-18 2.30087e-17)
(0 4.53313e-30 -1.4166e-31 13.0371 -3.57602e-15 4.52049e-17 0.274123 -1.16342e-16 -4.83464e-16)
(-2.74642e-15 1.43658e-29 -7.29436e-31 12.5441 1.09687e-15 1.08623e-15 0.268718 -1.8628e-17 2.40111e-17)
(-5.49284e-15 -8.90013e-30 5.56258e-31 12.5441 -3.61284e-15 -3.26883e-17 0.268718 -1.36167e-16 -4.87601e-16)
(1.39258e-15 1.0376e-29 -3.23414e-31 12.0732 1.63261e-15 1.11352e-15 0.263498 -2.89387e-17 2.50904e-17)
(-5.57032e-15 -1.74741e-29 5.46065e-31 12.0732 -3.23544e-15 -8.85046e-17 0.263498 -1.51292e-16 -4.9256e-16)
(-1.2071e-15 8.57693e-30 -2.68029e-31 11.6235 1.00672e-15 1.13869e-15 0.258462 -4.31692e-17 2.60567e-17)
(0 0 0 11.6235 -2.12782e-15 -3.67398e-17 0.258462 -1.65323e-16 -4.97976e-16)
(-2.86034e-15 -2.95923e-30 2.24103e-31 11.1942 1.44994e-16 1.16068e-15 0.253605 -1.65829e-18 2.70511e-17)
(1.14414e-14 4.20988e-30 -2.63118e-31 11.1942 -1.73667e-15 6.28963e-17 0.253605 -1.57358e-16 -5.03005e-16)
(-1.44842e-15 1.09909e-29 -4.72122e-31 10.7844 1.38638e-15 1.19543e-15 0.248923 -2.68987e-17 2.86733e-17)
(5.79367e-15 -8.26547e-30 3.87444e-31 10.7844 -3.99027e-15 6.81836e-17 0.248923 -1.4955e-16 -5.07914e-16)
(2.28389e-15 -8.11401e-30 2.53563e-31 10.393 1.68395e-15 1.23628e-15 0.244411 -3.781e-17 3.00276e-17)
(-2.28389e-15 8.11401e-30 -2.53563e-31 10.393 -4.252e-15 -1.69475e-18 0.244411 -1.64044e-16 -5.13372e-16)
(-3.72592e-15 2.71851e-30 -8.37233e-32 10.0194 1.81584e-15 1.28271e-15 0.240064 -4.21705e-17 3.20197e-17)
(5.93552e-15 3.98266e-30 -1.24458e-31 10.0194 -2.24691e-15 -1.82417e-17 0.240064 -1.78276e-16 -5.195e-16)
(0 1.1729e-29 -1.22178e-31 9.6625 1.62725e-15 1.32712e-15 0.235877 -4.5672e-17 3.33673e-17)
(0 -3.90968e-30 0 9.6625 -1.78979e-15 -6.55054e-17 0.235877 -1.8417e-16 -5.25539e-16)
(-1.51805e-15 6.55246e-30 -4.42574e-31 9.32161 1.06003e-15 1.37214e-15 0.231845 -3.43828e-17 3.55064e-17)
(-2.16062e-15 0 1.19939e-31 9.32161 -1.79027e-15 -1.17294e-16 0.231845 -1.98233e-16 -5.32622e-16)
(0 7.53541e-30 -2.35482e-31 8.99589 3.3946e-18 1.41567e-15 0.227961 -1.88374e-17 3.68704e-17)
(0 -3.76771e-30 1.17741e-31 8.99589 -4.48321e-16 -6.89137e-17 0.227961 -2.18603e-16 -5.39669e-16)
(0 -1.47947e-29 8.09083e-31 8.68459 -1.19045e-15 1.43322e-15 0.22422 -4.33774e-17 3.77671e-17)
(6.20403e-15 1.47947e-29 -8.09083e-31 8.68459 2.81574e-16 -7.70808e-17 0.22422 -2.20481e-16 -5.46636e-16)
(0 1.45235e-29 -5.67326e-31 8.38698 -1.99844e-15 1.43962e-15 0.220617 -6.28057e-17 3.86021e-17)
(0 -1.45235e-29 5.67326e-31 8.38698 -3.45918e-16 -9.27797e-17 0.220617 -2.08188e-16 -5.54533e-16)
(-1.58286e-15 1.54522e-30 -8.13644e-32 8.10235 -1.40728e-15 1.44698e-15 0.217146 -1.90099e-17 3.9592e-17)
(6.33143e-15 3.56435e-30 -1.11386e-31 8.10235 -1.47496e-16 -4.25956e-17 0.217146 -2.00138e-16 -5.6234e-16)
(0 -1.74952e-29 7.65414e-31 7.83005 -7.48912e-16 1.46818e-15 0.213802 -2.22414e-17 4.12342e-17)
(6.39355e-15 1.74952e-29 -7.65414e-31 7.83005 -3.10874e-16 -1.38424e-17 0.213802 -2.00526e-16 -5.70094e-16)
(-1.61367e-15 1.64576e-29 -8.31999e-31 7.56945 -1.13507e-15 1.49509e-15 0.21058 -4.15798e-17 4.26069e-17)
(-6.45469e-15 -1.37397e-29 7.51388e-31 7.56945 -1.8272e-15 -1.58347e-16 0.21058 -1.99587e-16 -5.78053e-16)
(1.89825e-15 -1.47087e-29 2.10748e-31 7.31995 -8.93138e-16 1.05185e-15 0.207475 -1.27531e-17 1.72357e-17)
(-6.51486e-15 1.34879e-29 -2.10748e-31 7.31995 -1.93498e-15 -2.62884e-16 0.207475 -2.21435e-16 -5.88604e-16)
(-3.28705e-15 2.13819e-30 -1.70229e-31 7.08098 -7.39088e-16 3.26465e-16 0.204482 -3.04118e-17 4.74859e-18)
(6.5741e-15 3.31018e-30 0 7.08098 -8.96329e-16 -9.37615e-17 0.204482 -2.27413e-16 -5.99141e-16)
(-3.31623e-15 -7.00649e-46 -1.67635e-31 6.85201 2.7291e-30 1.74927e-16 0.201596 0 5.62713e-18)
(0 6.49905e-30 0 6.85201 -1.24027e-15 -1.52353e-18 0.201596 -2.27397e-16 -6.08253e-16)
(0 -6.37996e-30 2.99061e-31 6.63254 9.61205e-16 2.82614e-16 0.198813 -2.28484e-17 1.14897e-17)
(6.68996e-15 6.37996e-30 -2.99061e-31 6.63254 -2.21922e-15 -8.14024e-17 0.198813 -2.24039e-16 -6.17998e-16)
(-3.44955e-15 2.15084e-29 -9.6108e-31 6.42208 1.01187e-15 2.98349e-16 0.196129 -3.52989e-17 6.8159e-18)
(-6.74663e-15 -1.56576e-29 6.85021e-31 6.42208 -2.60555e-15 -1.09518e-16 0.196129 -2.44926e-16 -6.2848e-16)
(1.70063e-15 -1.21529e-29 2.70772e-31 6.22019 1.71458e-15 2.47802e-16 0.193539 -2.68544e-17 8.72642e-18)
(0 9.22242e-30 -1.92134e-31 6.22019 -2.83729e-15 -5.30004e-17 0.193539 -2.77775e-16 -6.39126e-16)
(3.41328e-15 -1.4781e-29 2.64555e-31 6.02644 1.71458e-15 4.18086e-16 0.191039 -8.15631e-17 1.80415e-17)
(-8.55649e-15 1.20712e-29 -1.88613e-31 6.02644 -3.27792e-15 3.4218e-17 0.191039 -2.824e-16 -6.49387e-16)
(-5.12373e-15 1.43207e-29 -3.35563e-31 5.84043 9.38555e-16 4.82085e-16 0.188626 -2.73579e-17 1.32546e-17)
(0 -2.96251e-30 9.25783e-32 5.84043 -2.30534e-15 1.09871e-16 0.188626 -2.91006e-16 -6.58839e-16)
(-3.27436e-15 -9.62912e-31 -2.72646e-31 5.66177 2.03652e-15 4.84748e-16 0.186296 -3.37164e-17 1.88994e-17)
(3.27436e-15 -1.74493e-29 4.54409e-31 5.66177 -2.49013e-15 1.04261e-16 0.186296 -2.75562e-16 -6.68022e-16)
(1.75465e-15 1.5862e-31 -1.06687e-31 5.4901 3.8831e-15 4.8107e-16 0.184045 -1.35259e-16 1.35036e-17)
(-1.40372e-14 -2.85493e-30 1.78433e-31 5.4901 -4.51179e-15 5.25695e-17 0.184045 -2.94543e-16 -6.77995e-16)
(1.76772e-15 -8.29654e-30 3.31609e-31 5.3251 3.09475e-15 5.20931e-16 0.181871 -1.26615e-16 2.23764e-17)
(0 5.60522e-30 -2.62745e-31 5.3251 -4.019e-15 5.18685e-17 0.181871 -3.33579e-16 -6.88748e-16)
(0 -1.1005e-29 6.87814e-31 5.16643 2.07393e-15 5.53905e-16 0.17977 -8.5675e-17 1.63422e-17)
(7.12252e-15 1.1005e-29 -6.87814e-31 5.16643 -2.51213e-15 7.59265e-17 0.17977 -3.41857e-16 -6.99429e-16)
(4.83426e-15 -5.39342e-30 2.35133e-31 5.0138 3.93077e-16 5.10638e-16 0.177739 -5.926e-17 2.01055e-17)
(7.17354e-15 2.70084e-30 -1.68802e-31 5.0138 -2.40793e-15 3.2674e-17 0.177739 -3.41766e-16 -7.0999e-16)
(-6.2683e-16 -1.1954e-29 8.65349e-31 4.86692 -3.81438e-16 5.64281e-16 0.175775 -6.92689e-18 2.0891e-17)
(0 1.32567e-29 -6.62837e-31 4.86692 -3.51673e-15 -6.56258e-17 0.175775 -3.71483e-16 -7.21567e-16)
(-3.6369e-15 4.97841e-60 5.27121e-31 4.72551 1.45545e-28 6.4851e-16 0.173875 0 2.71539e-17)
(7.2738e-15 1.56166e-29 -6.5069e-31 4.72551 -3.19591e-15 -4.31665e-17 0.173875 -3.94511e-16 -7.3491e-16)
(1.83077e-15 -1.79958e-29 6.9839e-31 4.58934 3.76995e-15 7.60384e-16 0.172038 -1.49812e-16 3.01896e-17)
(1.46462e-14 1.53304e-29 -6.38767e-31 4.58934 -2.57388e-15 3.16787e-17 0.172038 -3.75117e-16 -7.27363e-16)
(-1.84296e-15 1.54875e-31 9.84388e-32 4.45814 3.20093e-15 7.52238e-16 0.170259 -1.3421e-16 2.75458e-17)
(0 7.52474e-30 -3.13531e-31 4.45814 -4.38332e-15 -5.6972e-19 0.170259 -3.8374e-16 -7.17894e-16)
(-3.71002e-15 5.33407e-30 -2.69852e-31 4.3317 2.17489e-15 5.76544e-16 0.168538 -1.11359e-16 1.74566e-17)
(7.42003e-15 0 1.53893e-31 4.3317 -3.77259e-15 2.68119e-17 0.168538 -4.21368e-16 -7.09265e-16)
(-1.86693e-15 2.67323e-30 -5.34512e-32 4.2098 5.94578e-16 6.69632e-16 0.166872 -5.8264e-17 3.60699e-17)
(7.46774e-15 4.83433e-30 -1.51073e-31 4.2098 -1.01554e-15 6.19952e-19 0.166872 -4.23925e-16 -6.99706e-16)
(0 9.49148e-30 3.21079e-31 4.09224 -7.37127e-16 5.21745e-16 0.165258 -4.86367e-17 1.05868e-17)
(-2.67161e-15 -4.74574e-30 1.48304e-31 4.09224 7.4862e-16 -1.56522e-16 0.165258 -4.27842e-16 -6.88903e-16)
(1.89042e-15 -9.66397e-30 1.96652e-31 3.97881 -1.20852e-15 3.90455e-16 0.163695 -5.13082e-17 2.17995e-17)
(7.56169e-15 6.98816e-30 -1.45587e-31 3.97881 1.32474e-15 -2.62125e-16 0.163695 -4.14132e-16 -6.78613e-16)
(1.90199e-15 -9.54212e-30 6.19618e-31 3.86935 -8.66515e-16 6.09914e-16 0.16218 -2.13957e-17 2.96418e-17)
(7.60796e-15 6.86011e-30 -5.71675e-31 3.86935 1.96159e-16 -1.73663e-16 0.16218 -3.72651e-16 -6.71224e-16)
(-1.91345e-15 2.68453e-30 -4.65525e-32 3.76368 -4.55403e-16 6.46405e-16 0.160712 -1.76409e-17 2.5781e-17)
(7.65379e-15 4.4896e-30 -1.403e-31 3.76368 -8.46786e-16 -1.32618e-16 0.160712 -3.4017e-16 -6.59032e-16)
(1.9248e-15 -5.37415e-30 7.32086e-31 3.66162 1.22865e-28 6.6136e-16 0.159289 -3.15544e-30 3.20779e-17)
(0 8.81465e-30 -6.88645e-31 3.66162 -1.17927e-15 -1.99715e-16 0.159289 -3.41446e-16 -6.47942e-16)
(-1.93604e-15 1.99859e-29 -3.12722e-31 3.56304 6.53166e-16 6.3776e-16 0.157909 -6.00767e-17 2.46318e-17)
(5.30852e-15 -1.29797e-29 0 3.56304 -9.41082e-16 -1.75425e-16 0.157909 -3.31214e-16 -6.37809e-16)
(4.33819e-15 -5.37942e-30 4.36411e-31 3.46777 1.13246e-28 6.74985e-16 0.156571 0 3.66941e-17)
(-2.39101e-15 8.49456e-30 -3.98183e-31 3.46777 -1.64772e-15 -2.10512e-16 0.156571 -3.10889e-16 -6.26746e-16)
(-1.95823e-15 1.50931e-29 -4.27396e-31 3.37568 1.01709e-15 7.83711e-16 0.155272 -2.34905e-17 3.56982e-17)
(7.83291e-15 -1.25084e-29 1.30295e-31 3.37568 -2.14573e-15 -1.53589e-16 0.155272 -3.6485e-16 -6.19974e-16)
(1.96918e-15 5.52359e-30 -3.49305e-31 3.28663 2.91692e-15 7.81358e-16 0.154012 -1.37157e-16 3.78533e-17)
(7.87671e-15 -4.09305e-30 1.27908e-31 3.28663 -7.14873e-16 -1.5004e-16 0.154012 -3.77882e-16 -6.09746e-16)
(0 8.03609e-30 -5.02255e-31 3.20051 3.14384e-15 8.85413e-16 0.15279 -1.37348e-16 4.71116e-17)
(5.65818e-15 -4.01804e-30 2.51128e-31 3.20051 -2.00871e-15 -2.22647e-16 0.15279 -3.68948e-16 -5.94419e-16)
(-2.22051e-15 7.88883e-30 -3.69789e-31 3.11718 3.53683e-15 9.61633e-16 0.151603 -1.64283e-16 4.67923e-17)
(-7.9632e-15 -3.94441e-30 1.23263e-31 3.11718 -4.55124e-15 -2.31272e-16 0.151603 -4.3364e-16 -5.7913e-16)
(0 1.54885e-29 -6.05021e-31 3.03654 3.38745e-15 9.06684e-16 0.15045 -1.81259e-16 4.33698e-17)
(8.00592e-15 -1.54885e-29 6.05021e-31 3.03654 -4.54759e-15 -1.90887e-16 0.15045 -4.71672e-16 -5.6955e-16)
(1.27798e-16 -1.6375e-29 9.28343e-31 2.95847 2.8269e-15 1.00242e-15 0.149331 -1.55474e-16 5.83468e-17)
(-2.13987e-15 1.90059e-29 -1.06908e-30 2.95847 -4.03246e-15 -1.38712e-16 0.149331 -5.06479e-16 -5.55607e-16)
(-2.02259e-15 6.36368e-30 -2.09263e-32 2.88288 3.5856e-15 1.0419e-15 0.148244 -1.30757e-16 4.91178e-17)
(8.09035e-15 0 -2.3322e-31 2.88288 -3.85173e-15 -1.56433e-16 0.148244 -5.64325e-16 -5.39824e-16)
(2.06217e-15 -1.46526e-29 2.28946e-31 2.80967 4.52186e-15 1.09782e-15 0.147188 -2.4038e-16 6.64807e-17)
(0 1.46526e-29 -3.4342e-31 2.80967 -4.37938e-15 -1.08968e-16 0.147188 -5.96935e-16 -5.26058e-16)
(0 7.19204e-30 -4.49502e-31 2.73873 2.03016e-15 8.86237e-16 0.146161 -2.35053e-16 2.80933e-17)
(0 -3.59602e-30 1.12376e-31 2.73873 -4.27391e-15 -1.31217e-16 0.146161 -6.42031e-16 -5.12423e-16)
(4.04094e-15 -5.27262e-30 1.00242e-30 2.66999 9.68327e-29 9.14862e-16 0.145163 -3.15544e-30 7.21383e-17)
(8.21463e-15 1.05904e-29 -9.92847e-31 2.66999 -3.4721e-15 -7.71998e-17 0.145163 -6.82008e-16 -4.97632e-16)
(-1.83787e-15 7.79384e-30 -5.3376e-31 2.60336 2.90303e-15 1.26229e-15 0.144193 -2.15153e-16 6.81292e-17)
(8.25546e-15 -3.46543e-30 1.08295e-31 2.60336 -2.71013e-15 -5.47245e-17 0.144193 -7.2862e-16 -4.75963e-16)
(0 -3.40193e-30 0 2.53875 1.27591e-15 1.13246e-15 0.14325 -1.06517e-16 6.00194e-17)
(8.296e-15 6.80386e-30 -4.25241e-31 2.53875 -2.12298e-15 -1.89817e-16 0.14325 -7.51506e-16 -4.57934e-16)
(-4.16814e-15 5.24585e-30 -2.16517e-31 2.47609 8.13823e-16 1.06097e-15 0.142332 -3.73087e-17 6.23737e-17)
(8.33627e-15 0 2.08724e-31 2.47609 -1.91758e-15 -1.74635e-16 0.142332 -7.53289e-16 -4.39729e-16)
(5.78521e-15 -1.5729e-29 1.02502e-30 2.41531 1.87556e-15 1.14175e-15 0.14144 -5.67366e-17 7.1861e-17)
(4.68513e-15 1.31136e-29 -1.0245e-30 2.41531 -3.03591e-15 -1.70204e-16 0.14144 -7.58825e-16 -4.24067e-16)
(-1.81175e-15 1.28733e-29 -1.00572e-30 2.35634 2.86219e-15 1.18128e-15 0.140572 -1.64624e-16 5.94548e-17)
(-6.60426e-15 -1.28733e-29 1.00572e-30 2.35634 -4.96071e-15 -1.76847e-16 0.140572 -8.10532e-16 -4.0885e-16)
(0 3.15934e-30 -1.97459e-31 2.2991 2.7956e-15 1.20041e-15 0.139726 -1.78062e-16 3.80844e-17)
(-1.77855e-15 -3.15934e-30 1.97459e-31 2.2991 -4.3089e-15 -1.67475e-16 0.139726 -8.87169e-16 -3.87723e-16)
(-4.24737e-15 1.75582e-29 -7.75363e-31 2.24354 3.29721e-15 1.33441e-15 0.138904 -1.62633e-16 2.15352e-17)
(0 -1.24058e-29 7.75363e-31 2.24354 -4.66639e-15 -1.47137e-16 0.138904 -9.25551e-16 -3.67109e-16)
(-2.13343e-15 8.63936e-30 -5.70866e-31 2.1896 5.49061e-15 1.68627e-15 0.138103 -2.47651e-16 1.39016e-18)
(0 -6.08923e-30 3.80577e-31 2.1896 -6.84196e-15 1.08187e-16 0.138103 -9.80273e-16 -3.3919e-16)
(0 1.7933e-29 -1.12081e-30 2.13721 6.419e-15 1.41917e-15 0.137323 -4.48848e-16 -7.83857e-18)
(-8.5725e-15 -1.49441e-29 9.34008e-31 2.13721 -6.3441e-15 6.88656e-17 0.137323 -1.10566e-15 -3.06182e-16)
(4.30552e-15 8.52324e-31 -3.66757e-31 2.08632 3.86378e-15 1.05168e-15 0.136564 -3.77746e-16 -3.27818e-17)
(0 -5.86811e-30 3.66757e-31 2.08632 -4.13347e-15 -1.28297e-16 0.136564 -1.23298e-15 -2.82756e-16)
(1.08175e-15 9.32684e-30 -1.08011e-30 2.03688 1.66144e-15 1.49721e-15 0.135824 -1.27178e-16 -5.57159e-17)
(8.64935e-15 -1.44015e-29 1.08011e-30 2.03688 -2.66649e-15 -2.32406e-17 0.135824 -1.28538e-15 -2.47819e-16)
(-2.17186e-15 2.53582e-30 1.76719e-31 1.98883 1.6445e-15 1.45117e-15 0.135103 -9.47092e-17 -6.59897e-17)
(8.68745e-15 5.65502e-30 -5.30158e-31 1.98883 -3.64286e-15 5.08664e-17 0.135103 -1.26769e-15 -2.10555e-16)
(4.36267e-15 -5.0513e-30 -5.20443e-31 1.94213 2.10536e-15 1.28971e-15 0.134401 -1.29641e-16 -9.21769e-17)
(0 0 5.20443e-31 1.94213 -3.50254e-15 -3.71304e-17 0.134401 -1.2903e-15 -1.6899e-16)
(5.25864e-15 -5.24448e-30 3.40604e-31 1.89672 2.1939e-15 1.48692e-15 0.133716 -1.62828e-16 -1.06955e-16)
(8.76302e-15 2.72483e-30 -3.81909e-31 1.89672 -2.92515e-15 -2.14112e-16 0.133716 -1.26776e-15 -5.82356e-17)
(8.11546e-16 1.32157e-29 -5.01544e-31 1.85258 2.78428e-15 1.66309e-15 0.133049 -1.4716e-16 -1.13752e-16)
(-3.01167e-15 -8.0247e-30 1.67181e-31 1.85258 -4.62727e-15 -8.80653e-17 0.133049 -1.29063e-15 -3.17035e-18)
(-2.95648e-15 -2.62588e-30 3.28236e-31 1.80964 5.04381e-15 1.94847e-15 0.132398 -2.54772e-16 -1.12144e-16)
(1.76756e-14 7.87765e-30 -1.75162e-46 1.80964 -5.77848e-15 3.08149e-31 0.132398 -1.32974e-15 0)
(-5.12103e-15 -1.30122e-29 1.44999e-30 1.76787 6.83065e-15 2.10899e-15 0.131763 -4.87244e-16 -9.7963e-17)
(0 1.54666e-29 -1.44999e-30 1.76787 -5.6357e-15 1.29273e-17 0.131763 -1.39893e-15 -5.41879e-18)
(-2.84912e-15 -1.26526e-29 1.26526e-30 1.72724 5.66846e-15 1.7943e-15 0.131144 -5.33865e-16 -8.12312e-17)
(1.78236e-14 1.26526e-29 -1.60982e-30 1.72724 -3.75074e-15 -1.19507e-16 0.131144 -1.52215e-15 -1.47237e-17)
(5.59778e-16 1.23776e-29 -1.24208e-30 1.6877 3.1096e-15 1.48826e-15 0.13054 -3.2705e-16 -8.72342e-17)
(-2.79691e-15 -9.93663e-30 1.24208e-30 1.6877 -4.1504e-15 -3.20003e-16 0.13054 -1.53933e-15 -1.77243e-17)
(0 -7.31591e-30 6.09659e-31 1.64921 3.1438e-15 1.64666e-15 0.12995 -1.53509e-16 -9.39435e-17)
(1.17308e-14 7.31591e-30 -6.09659e-31 1.64921 -5.03163e-15 -6.95276e-17 0.12995 -1.58894e-15 3.9499e-18)
(2.25537e-15 -1.43811e-29 1.49622e-30 1.61175 4.66355e-15 1.88066e-15 0.129375 -3.44827e-16 -9.33631e-17)
(1.8043e-14 1.19697e-29 2.92611e-33 1.61175 -3.86705e-15 7.27436e-32 0.129375 -1.63347e-15 2.10848e-17)
(-2.26443e-15 4.73725e-30 2.9376e-31 1.57527 5.23124e-15 2.0256e-15 0.128813 -4.06105e-16 -7.08469e-17)
(9.05771e-15 0 -5.8752e-31 1.57527 -4.04635e-15 -9.91472e-17 0.128813 -1.67543e-15 2.43771e-17)
(-3.24028e-16 2.24672e-30 -2.88377e-31 1.53975 4.85508e-15 2.02113e-15 0.128264 -4.51734e-16 -5.83843e-17)
(6.4963e-15 0 0 1.53975 -4.0531e-15 -2.22986e-16 0.128264 -1.71216e-15 3.13296e-17)
(-2.01496e-15 9.27894e-30 -5.66185e-31 1.50516 4.66626e-15 2.41109e-15 0.127728 -3.58017e-16 -5.29316e-17)
(6.57979e-15 0 2.83093e-31 1.50516 -3.28213e-15 -2.83322e-16 0.127728 -1.74575e-15 5.15569e-17)
(-2.50315e-15 -4.44648e-30 8.33715e-31 1.47146 5.35222e-15 2.11181e-15 0.127204 -4.36342e-16 -3.41273e-17)
(1.83308e-14 8.89296e-30 -9.70671e-33 1.47146 -2.99539e-15 -2.21867e-31 0.127204 -1.84249e-15 6.99442e-17)
(0 4.365e-30 -5.45625e-31 1.43863 3.52993e-15 1.72029e-15 0.126692 -4.91464e-16 -4.00438e-17)
(6.74372e-15 0 0 1.43863 -3.67917e-15 -4.19924e-17 0.126692 -1.94575e-15 8.55597e-17)
(-2.30911e-15 6.67741e-30 -5.35627e-31 1.40663 2.42864e-15 2.19141e-15 0.126192 -1.28168e-16 -5.59115e-18)
(-2.41225e-15 0 0 1.40663 -4.8417e-15 -2.29301e-16 0.126192 -2.00942e-15 7.84242e-17)
(2.31793e-15 6.04946e-30 -1.31453e-30 1.37545 4.61334e-15 2.29477e-15 0.125702 -3.10143e-16 3.19653e-17)
(0 -1.26195e-29 1.8081e-30 1.37545 -5.56381e-15 -9.67219e-17 0.125702 -2.1144e-15 7.8655e-17)
(0 0 -1.03235e-30 1.34506 5.64034e-15 2.23524e-15 0.125224 -5.36834e-16 5.85949e-17)
(0 0 2.30718e-32 1.34506 -5.25982e-15 4.9612e-31 0.125224 -2.26228e-15 8.31249e-17)
(-2.33548e-15 1.85018e-29 -2.02687e-30 1.31543 4.8028e-15 2.35634e-15 0.124755 -5.15212e-16 7.52008e-17)
(-2.28205e-15 -1.6215e-29 2.02687e-30 1.31543 -5.18623e-15 -6.9168e-17 0.124755 -2.4156e-15 8.34082e-17)
(-2.3442e-15 6.27235e-30 -4.97432e-31 1.28653 4.51938e-15 2.32478e-15 0.124297 -3.96412e-16 1.1177e-16)
(-1.1617e-14 0 0 1.28653 -4.86254e-15 -4.11903e-16 0.124297 -2.62935e-15 8.02112e-17)
(-2.35288e-15 -9.44705e-30 1.22079e-30 1.25836 5.92797e-15 2.26831e-15 0.123848 -4.79249e-16 1.29459e-16)
(1.88231e-14 1.17196e-29 3.10213e-32 1.25836 -3.75445e-15 6.40949e-31 0.123848 -2.72308e-15 7.45106e-17)
(0 -1.15048e-29 2.39684e-30 1.23088 5.46879e-15 2.62371e-15 0.123409 -6.91717e-16 1.461e-16)
(9.44616e-15 1.15048e-29 -2.39684e-30 1.23088 -5.15205e-15 -2.19001e-17 0.123409 -2.77925e-15 9.16383e-17)
(-2.37016e-15 6.00957e-30 -7.05876e-31 1.20407 4.53217e-15 2.49637e-15 0.122978 -4.04207e-16 1.87856e-16)
(9.48065e-15 0 1.32897e-32 1.20407 -6.47147e-15 3.85186e-34 0.122978 -2.96603e-15 9.57626e-17)
(-2.08049e-15 3.69569e-30 -9.23922e-31 1.17792 4.58654e-15 2.25412e-15 0.122557 -5.2433e-16 1.99221e-16)
(9.51502e-15 0 4.61961e-31 1.17792 -4.82573e-15 1.72111e-17 0.122557 -3.08467e-15 9.02747e-17)