/*--------------------------------*- C++ -*----------------------------------*\
| =========                 |                                                 |
| \\      /  F ield         | OpenFOAM: The Open Source CFD Toolbox           |
|  \\    /   O peration     | Version:  2106                                  |
|   \\  /    A nd           | Website:  www.openfoam.com                      |
|    \\/     M anipulation  |                                                 |
\*---------------------------------------------------------------------------*/
FoamFile
{
    version     2.0;
    format      ascii;
    arch        "LSB;label=32;scalar=64";
    class       volVectorField;
    location    "10010";
    object      grad(T);
}
// * * * * * * * * * * * * * * * * * * * * * * * * * * * * * * * * * * * * * //

dimensions      [0 -1 0 1 0 0 0];

internalField   nonuniform List<vector> 
2000
(
(0 455.643 0.84323)
(0 455.643 0.84323)
(4.49311e-16 455.643 2.54543)
(-4.49311e-16 455.643 2.54543)
(-1.0363e-16 455.642 3.53267)
(0 455.642 3.53267)
(-3.39609e-16 455.64 3.59859)
(1.35844e-15 455.64 3.59859)
(0 455.637 3.66574)
(-1.70024e-15 455.637 3.66574)
(0 455.633 3.73413)
(-3.29945e-15 455.633 3.73413)
(0 455.628 3.80378)
(5.93572e-15 455.628 3.80378)
(0 455.62 3.87471)
(1.06272e-14 455.62 3.87471)
(-1.58724e-15 455.608 3.94691)
(0 455.608 3.94691)
(0 455.59 4.02039)
(0 455.59 4.02039)
(3.04332e-15 455.563 4.09515)
(0 455.563 4.09515)
(2.39313e-15 455.523 4.17115)
(6.58495e-15 455.523 4.17115)
(0 455.463 4.24835)
(0 455.463 4.24835)
(-5.83483e-15 455.377 4.32668)
(0 455.377 4.32668)
(-3.24497e-15 455.253 4.40605)
(-5.65262e-15 455.253 4.40605)
(3.53956e-15 455.08 4.48631)
(-8.60922e-15 455.08 4.48631)
(0 454.841 4.56728)
(0 454.841 4.56728)
(8.29049e-15 454.516 4.64872)
(1.6581e-14 454.516 4.64872)
(-4.45649e-15 454.082 4.73032)
(0 454.082 4.73032)
(4.77343e-15 453.508 4.8117)
(1.90937e-14 453.508 4.8117)
(-5.0961e-15 452.761 4.89241)
(4.07688e-14 452.761 4.89241)
(0 451.802 4.97189)
(2.16982e-14 451.802 4.97189)
(0 450.588 5.0495)
(2.30351e-14 450.588 5.0495)
(0 449.07 5.12453)
(2.4395e-14 449.07 5.12453)
(-6.44439e-15 447.197 5.19615)
(0 447.197 5.19615)
(0 444.915 5.2635)
(2.71824e-14 444.915 5.2635)
(-7.1522e-15 442.173 5.32566)
(0 442.173 5.32566)
(-7.51397e-15 438.917 5.38169)
(0 438.917 5.38169)
(0 435.103 5.43068)
(-8.72629e-15 435.103 5.43068)
(-1.68181e-14 430.691 5.47177)
(-3.30069e-14 430.691 5.47177)
(8.6269e-15 425.654 5.5042)
(2.60982e-14 425.654 5.5042)
(0 419.974 5.52737)
(-8.25531e-15 419.974 5.52737)
(-9.38729e-15 413.65 5.54083)
(0 413.65 5.54083)
(-9.77128e-15 406.695 5.54432)
(0 406.695 5.54432)
(0 399.137 5.53781)
(4.06276e-14 399.137 5.53781)
(3.06665e-14 391.018 5.52146)
(-3.06665e-14 391.018 5.52146)
(2.59824e-14 382.392 5.49563)
(2.86683e-14 382.392 5.49563)
(-1.13163e-14 373.322 5.46085)
(4.52652e-14 373.322 5.46085)
(-1.17012e-14 363.88 5.41779)
(0 363.88 5.41779)
(1.42399e-14 354.142 5.36725)
(3.40967e-14 354.142 5.36725)
(-2.4929e-14 344.182 5.31007)
(4.98581e-14 344.182 5.31007)
(1.37228e-14 334.075 5.24713)
(0 334.075 5.24713)
(0 323.894 5.17934)
(0 323.894 5.17934)
(-1.35846e-14 313.704 5.10756)
(-6.75627e-14 313.704 5.10756)
(1.39494e-14 303.565 5.03262)
(4.28153e-14 303.565 5.03262)
(3.97978e-14 293.528 4.9553)
(-8.27257e-14 293.528 4.9553)
(-1.46641e-14 283.64 4.8763)
(5.86565e-14 283.64 4.8763)
(0 273.938 4.79624)
(1.20109e-13 273.938 4.79624)
(1.53576e-14 264.454 4.71569)
(6.14303e-14 264.454 4.71569)
(-1.5696e-14 255.211 4.63513)
(-6.27839e-14 255.211 4.63513)
(0 246.228 4.55498)
(0 246.228 4.55498)
(-1.63558e-14 237.52 4.47558)
(-2.28113e-14 237.52 4.47558)
(0 229.095 4.39723)
(0 229.095 4.39723)
(0 220.957 4.32016)
(-6.79722e-14 220.957 4.32016)
(1.73033e-14 213.11 4.24457)
(0 213.11 4.24457)
(-1.76081e-14 205.551 4.1706)
(0 205.551 4.1706)
(-1.50185e-14 198.279 4.09837)
(7.16301e-14 198.279 4.09837)
(-1.82017e-14 191.288 4.02796)
(0 191.288 4.02796)
(-3.69813e-14 184.571 3.95942)
(-7.39627e-14 184.571 3.95942)
(1.87747e-14 178.123 3.8928)
(-7.50986e-14 178.123 3.8928)
(0 171.934 3.8281)
(-1.93135e-14 171.934 3.8281)
(-5.76158e-14 165.997 3.76533)
(1.54625e-13 165.997 3.76533)
(-1.95978e-14 160.302 3.70448)
(7.83912e-14 160.302 3.70448)
(0 154.84 3.64552)
(0 154.84 3.64552)
(-3.80602e-14 149.603 3.58843)
(8.04957e-14 149.603 3.58843)
(0 144.58 3.53317)
(-1.76076e-14 144.58 3.53317)
(-3.34819e-15 139.764 3.47969)
(-1.7285e-14 139.764 3.47969)
(0 135.144 3.42796)
(-3.39365e-14 135.144 3.42796)
(0 130.713 3.37793)
(8.45064e-14 130.713 3.37793)
(0 126.462 3.32955)
(0 126.462 3.32955)
(-2.16052e-14 122.383 3.28276)
(8.6421e-14 122.383 3.28276)
(-3.15165e-14 118.468 3.23752)
(1.18874e-13 118.468 3.23752)
(8.86896e-15 114.71 3.19378)
(-1.19219e-13 114.71 3.19378)
(0 111.101 3.15148)
(-5.8818e-14 111.101 3.15148)
(-4.50437e-14 107.635 3.11058)
(9.00875e-14 107.635 3.11058)
(-4.54864e-14 104.305 3.07103)
(0 104.305 3.07103)
(-5.74656e-14 101.105 3.03277)
(1.49312e-13 101.105 3.03277)
(-5.13834e-14 98.0285 2.99577)
(-9.27087e-14 98.0285 2.99577)
(2.339e-14 95.07 2.95998)
(0 95.07 2.95998)
(-3.58178e-15 92.2241 2.92534)
(-6.72189e-14 92.2241 2.92534)
(-4.76157e-14 89.4858 2.89183)
(-5.33678e-14 89.4858 2.89183)
(2.61949e-14 86.8501 2.8594)
(-2.61949e-14 86.8501 2.8594)
(4.99307e-14 84.3123 2.828)
(-2.19441e-13 84.3123 2.828)
(2.44162e-14 81.868 2.79761)
(0 81.868 2.79761)
(0 79.513 2.76818)
(9.84577e-14 79.513 2.76818)
(2.48105e-14 77.2434 2.73968)
(9.92419e-14 77.2434 2.73968)
(-2.61276e-14 75.0553 2.71207)
(0 75.0553 2.71207)
(-7.38362e-14 72.9452 2.68532)
(1.47672e-13 72.9452 2.68532)
(2.53862e-14 70.9097 2.6594)
(2.0309e-13 70.9097 2.6594)
(-7.07588e-14 68.9454 2.63427)
(4.51845e-14 68.9454 2.63427)
(-5.15208e-14 67.0494 2.60992)
(1.03042e-13 67.0494 2.60992)
(-2.59448e-14 65.2187 2.58631)
(1.03779e-13 65.2187 2.58631)
(-2.13729e-14 63.4505 2.56341)
(0 63.4505 2.56341)
(2.63084e-14 61.7421 2.5412)
(1.05234e-13 61.7421 2.5412)
(-1.47058e-14 60.0912 2.51966)
(1.47144e-13 60.0912 2.51966)
(-2.66655e-14 58.4952 2.49876)
(1.06662e-13 58.4952 2.49876)
(2.68417e-14 56.952 2.47847)
(0 56.952 2.47847)
(-2.70164e-14 55.4593 2.45879)
(1.08065e-13 55.4593 2.45879)
(2.71896e-14 54.0152 2.43967)
(0 54.0152 2.43967)
(-2.73615e-14 52.6175 2.42112)
(7.18909e-14 52.6175 2.42112)
(6.43989e-14 51.2646 2.4031)
(7.32611e-14 51.2646 2.4031)
(0 49.9546 2.38559)
(7.46133e-14 49.9546 2.38559)
(3.55281e-14 48.6858 2.36859)
(-1.47004e-13 48.6858 2.36859)
(3.48771e-14 47.4567 2.35207)
(7.72657e-14 47.4567 2.35207)
(-2.82011e-14 46.2656 2.33602)
(0 46.2656 2.33602)
(-2.83654e-14 45.1111 2.32042)
(1.13462e-13 45.1111 2.32042)
(0 43.9919 2.30526)
(3.29947e-14 43.9919 2.30526)
(0 42.9066 2.29052)
(-3.23901e-14 42.9066 2.29052)
(2.88514e-14 41.8538 2.27619)
(1.15406e-13 41.8538 2.27619)
(2.90113e-14 40.8325 2.26225)
(8.48314e-14 40.8325 2.26225)
(0 39.8414 2.2487)
(1.16681e-13 39.8414 2.2487)
(-5.86561e-14 38.8795 2.23551)
(1.17312e-13 38.8795 2.23551)
(2.94849e-14 37.9457 2.22269)
(1.1794e-13 37.9457 2.22269)
(0 37.0389 2.21021)
(-1.18564e-13 37.0389 2.21021)
(2.84568e-14 36.1581 2.19807)
(-2.84568e-14 36.1581 2.19807)
(-4.02947e-15 35.3026 2.18625)
(-5.58708e-14 35.3026 2.18625)
(-2.67994e-15 34.4713 2.17474)
(-2.74235e-14 34.4713 2.17474)
(-5.38419e-14 33.6635 2.16355)
(-1.21023e-13 33.6635 2.16355)
(8.72427e-14 32.8783 2.15265)
(-2.64276e-14 32.8783 2.15265)
(9.23e-15 32.1149 2.14203)
(1.22233e-13 32.1149 2.14203)
(-3.07084e-14 31.3725 2.13169)
(1.22834e-13 31.3725 2.13169)
(6.17155e-14 30.6506 2.12162)
(-5.00025e-14 30.6506 2.12162)
(8.00925e-14 29.9483 2.11182)
(1.24025e-13 29.9483 2.11182)
(1.70326e-14 29.265 2.10226)
(-4.81867e-14 29.265 2.10226)
(-4.73037e-14 28.6002 2.09295)
(2.50411e-13 28.6002 2.09295)
(-7.78847e-14 27.953 2.08388)
(4.64369e-14 27.953 2.08388)
(0 27.3231 2.07504)
(2.52749e-13 27.3231 2.07504)
(-3.17388e-14 26.7098 2.06642)
(0 26.7098 2.06642)
(4.39306e-14 26.1126 2.05802)
(1.27534e-13 26.1126 2.05802)
(3.20273e-14 25.531 2.04983)
(2.56219e-13 25.531 2.04983)
(-3.21707e-14 24.9644 2.04184)
(1.28683e-13 24.9644 2.04184)
(3.23134e-14 24.4124 2.03405)
(8.76942e-14 24.4124 2.03405)
(-6.49113e-14 23.8746 2.02645)
(8.90246e-14 23.8746 2.02645)
(-8.01007e-14 23.3504 2.01904)
(2.60778e-13 23.3504 2.01904)
(3.93164e-14 22.8395 2.01181)
(9.16371e-14 22.8395 2.01181)
(-3.2879e-14 22.3415 2.00475)
(0 22.3415 2.00475)
(3.3019e-14 21.8559 1.99786)
(0 21.8559 1.99786)
(0 21.3824 1.99113)
(-3.71944e-14 21.3824 1.99113)
(3.21519e-15 20.9206 1.98456)
(-3.65128e-14 20.9206 1.98456)
(-3.34362e-14 20.4701 1.97814)
(-1.33745e-13 20.4701 1.97814)
(-6.87613e-14 20.0307 1.97187)
(3.03782e-13 20.0307 1.97187)
(0 19.6019 1.96574)
(1.34848e-13 19.6019 1.96574)
(-3.38493e-14 19.1835 1.95975)
(1.35397e-13 19.1835 1.95975)
(0 18.7751 1.95389)
(1.35944e-13 18.7751 1.95389)
(-6.68003e-14 18.3765 1.94817)
(1.3649e-13 18.3765 1.94817)
(0 17.9873 1.94256)
(1.37034e-13 17.9873 1.94256)
(-3.4394e-14 17.6074 1.93708)
(0 17.6074 1.93708)
(-6.54432e-14 17.2364 1.93171)
(3.09141e-14 17.2364 1.93171)
(-6.50115e-14 16.874 1.92645)
(0 16.874 1.92645)
(-2.47847e-14 16.5201 1.92129)
(-1.39193e-13 16.5201 1.92129)
(0 16.1744 1.91624)
(-5.84911e-14 16.1744 1.91624)
(2.87097e-14 15.8366 1.91129)
(-2.87097e-14 15.8366 1.91129)
(9.15664e-14 15.5065 1.90643)
(0 15.5065 1.90643)
(-9.06664e-14 15.1839 1.90165)
(1.41329e-13 15.1839 1.90165)
(-3.54648e-14 14.8687 1.89697)
(1.41859e-13 14.8687 1.89697)
(-3.55971e-14 14.5605 1.89236)
(0 14.5605 1.89236)
(0 14.2592 1.88783)
(1.42916e-13 14.2592 1.88783)
(1.55278e-14 13.9646 1.88337)
(-1.94831e-13 13.9646 1.88337)
(3.59919e-14 13.6765 1.87898)
(1.43968e-13 13.6765 1.87898)
(8.56452e-14 13.3948 1.87465)
(1.44492e-13 13.3948 1.87465)
(3.62536e-14 13.1192 1.87038)
(0 13.1192 1.87038)
(0 12.8496 1.86617)
(1.45536e-13 12.8496 1.86617)
(-3.6514e-14 12.5859 1.862)
(0 12.5859 1.862)
(0 12.3278 1.85788)
(1.46575e-13 12.3278 1.85788)
(-3.67733e-14 12.0753 1.85381)
(0 12.0753 1.85381)
(4.43209e-14 11.8281 1.84977)
(0 11.8281 1.84977)
(0 11.5861 1.84577)
(1.48125e-13 11.5861 1.84577)
(0 11.3492 1.84179)
(1.4864e-13 11.3492 1.84179)
(-7.92171e-14 11.1173 1.83784)
(4.19287e-14 11.1173 1.83784)
(-3.74164e-14 10.8902 1.8339)
(0 10.8902 1.8339)
(-7.79504e-14 10.6677 1.82998)
(4.04062e-14 10.6677 1.82998)
(3.56777e-14 10.4499 1.82607)
(1.11021e-13 10.4499 1.82607)
(-1.13397e-13 10.2364 1.82216)
(1.51196e-13 10.2364 1.82216)
(0 10.0273 1.81825)
(1.51704e-13 10.0273 1.81825)
(-3.80527e-14 9.82242 1.81433)
(-3.75249e-14 9.82242 1.81433)
(-3.81791e-14 9.6216 1.8104)
(0 9.6216 1.8104)
(0 9.42477 1.80646)
(0 9.42477 1.80646)
(0 9.23182 1.80249)
(1.53725e-13 9.23182 1.80249)
(3.11412e-14 9.04263 1.79849)
(-2.23925e-13 9.04263 1.79849)
(0 8.85712 1.79445)
(0 8.85712 1.79445)
(-1.05974e-13 8.67519 1.79038)
(-3.10458e-13 8.67519 1.79038)
(-3.89321e-14 8.49673 1.78625)
(0 8.49673 1.78625)
(0 8.32166 1.78207)
(0 8.32166 1.78207)
(0 8.14988 1.77782)
(1.24952e-13 8.14988 1.77782)
(-7.86096e-14 7.9813 1.77351)
(3.14438e-13 7.9813 1.77351)
(-6.12344e-14 7.81584 1.76912)
(2.18948e-13 7.81584 1.76912)
(-3.95518e-14 7.65341 1.76464)
(0 7.65341 1.76464)
(5.90108e-14 7.49393 1.76007)
(-1.587e-13 7.49393 1.76007)
(-3.97977e-14 7.33731 1.75539)
(0 7.33731 1.75539)
(0 7.18348 1.75061)
(1.59681e-13 7.18348 1.75061)
(0 7.03235 1.7457)
(1.60169e-13 7.03235 1.7457)
(4.01641e-14 6.88386 1.74067)
(3.21313e-13 6.88386 1.74067)
(4.02857e-14 6.73792 1.73549)
(1.61143e-13 6.73792 1.73549)
(0 6.59446 1.73016)
(1.61627e-13 6.59446 1.73016)
(9.23726e-14 6.45341 1.72467)
(1.62111e-13 6.45341 1.72467)
(-4.06481e-14 6.3147 1.719)
(3.25185e-13 6.3147 1.719)
(-4.07682e-14 6.17824 1.71315)
(-1.63073e-13 6.17824 1.71315)
(0 6.04399 1.70709)
(0 6.04399 1.70709)
(-4.10072e-14 5.91186 1.70082)
(-4.8148e-14 5.91186 1.70082)
(-8.22523e-14 5.78179 1.69433)
(-4.72657e-14 5.78179 1.69433)
(-4.12446e-14 5.65371 1.68758)
(1.64979e-13 5.65371 1.68758)
(0 5.52756 1.68058)
(0 5.52756 1.68058)
(-4.14803e-14 5.40326 1.6733)
(0 5.40326 1.6733)
(-4.38952e-14 5.28075 1.66573)
(0 5.28075 1.66573)
(4.17142e-14 5.15998 1.65783)
(3.33713e-13 5.15998 1.65783)
(8.36607e-14 5.04086 1.64961)
(-1.67321e-13 5.04086 1.64961)
(8.3892e-14 4.92334 1.64102)
(0 4.92334 1.64102)
(8.41222e-14 4.80735 1.63205)
(3.36489e-13 4.80735 1.63205)
(4.21757e-14 4.69282 1.62268)
(1.28685e-13 4.69282 1.62268)
(4.22896e-14 4.57969 1.61288)
(1.69159e-13 4.57969 1.61288)
(-4.2403e-14 4.46789 1.60262)
(1.69612e-13 4.46789 1.60262)
(-4.25157e-14 4.35736 1.59186)
(0 4.35736 1.59186)
(3.71645e-14 4.24802 1.58059)
(1.70511e-13 4.24802 1.58059)
(-8.5478e-14 4.13981 1.56875)
(1.70956e-13 4.13981 1.56875)
(-4.28496e-14 4.03265 1.55633)
(0 4.03265 1.55633)
(0 3.92647 1.54326)
(3.78834e-13 3.92647 1.54326)
(0 3.82121 1.52953)
(0 3.82121 1.52953)
(4.31765e-14 3.71677 1.51507)
(-1.72706e-13 3.71677 1.51507)
(4.32838e-14 3.61308 1.49983)
(0 3.61308 1.49983)
(-2.14771e-14 3.51006 1.48377)
(0 3.51006 1.48377)
(2.28844e-14 3.40763 1.46682)
(0 3.40763 1.46682)
(0 3.30569 1.44892)
(1.74399e-13 3.30569 1.44892)
(0 3.20415 1.43)
(1.74811e-13 3.20415 1.43)
(4.38048e-14 3.10292 1.40999)
(1.75219e-13 3.10292 1.40999)
(0 3.00188 1.3888)
(-1.75622e-13 3.00188 1.3888)
(-4.40051e-14 2.90093 1.36634)
(0 2.90093 1.36634)
(-4.41032e-14 2.79995 1.34252)
(1.76413e-13 2.79995 1.34252)
(0 2.69881 1.31722)
(1.76799e-13 2.69881 1.31722)
(1.09947e-14 2.59739 1.29033)
(-1.7718e-13 2.59739 1.29033)
(4.43885e-14 2.49554 1.26172)
(3.55108e-13 2.49554 1.26172)
(0 2.39312 1.23124)
(1.77921e-13 2.39312 1.23124)
(-4.45702e-14 2.28995 1.19875)
(0 2.28995 1.19875)
(4.46582e-14 2.18587 1.16407)
(1.78633e-13 2.18587 1.16407)
(5.60682e-14 2.08069 1.127)
(1.78976e-13 2.08069 1.127)
(-4.48278e-14 1.9742 1.08736)
(1.79311e-13 1.9742 1.08736)
(0 1.86621 1.04491)
(9.71514e-14 1.86621 1.04491)
(4.4988e-14 1.75649 0.999416)
(0 1.75649 0.999416)
(-9.01282e-14 1.64481 0.950614)
(1.80256e-13 1.64481 0.950614)
(4.59539e-14 1.53093 0.898225)
(0 1.53093 0.898225)
(0 1.4146 0.841955)
(4.51119e-14 1.4146 0.841955)
(4.52743e-14 1.29559 0.781495)
(1.81097e-13 1.29559 0.781495)
(-4.53375e-14 1.17365 0.716526)
(1.8135e-13 1.17365 0.716526)
(-8.8074e-14 1.04857 0.646727)
(0 1.04857 0.646727)
(0 0.92015 0.571785)
(-8.379e-14 0.92015 0.571785)
(0 0.788248 0.491402)
(-1.82012e-13 0.788248 0.491402)
(-4.55491e-14 0.652761 0.405307)
(0 0.652761 0.405307)
(-5.95618e-15 0.513656 0.31327)
(1.8236e-13 0.513656 0.31327)
(0 0.370976 0.215111)
(1.82501e-13 0.370976 0.215111)
(-4.56548e-14 0.224846 0.110709)
(0 0.224846 0.110709)
(-1.20667e-13 8.1496e-07 3.01639e-07)
(4.40525e-13 5.62079e-07 2.08041e-07)
(0 455.643 -0.84323)
(-1.14425e-16 455.643 -0.84323)
(-4.49311e-16 455.643 -2.54543)
(0 455.643 -2.54543)
(-2.07261e-16 455.642 -3.53267)
(0 455.642 -3.53267)
(3.39609e-16 455.64 -3.59859)
(0 455.64 -3.59859)
(-1.15999e-15 455.637 -3.66574)
(0 455.637 -3.66574)
(8.24863e-16 455.633 -3.73413)
(-1.66909e-15 455.633 -3.73413)
(-1.6385e-15 455.628 -3.80378)
(-3.277e-15 455.628 -3.80378)
(2.65681e-15 455.62 -3.87471)
(0 455.62 -3.87471)
(-4.74525e-15 455.608 -3.94691)
(6.34898e-15 455.608 -3.94691)
(4.95105e-15 455.59 -4.02039)
(-1.05038e-14 455.59 -4.02039)
(4.23903e-15 455.563 -4.09515)
(-1.15214e-14 455.563 -4.09515)
(2.39313e-15 455.523 -4.17115)
(0 455.523 -4.17115)
(2.60966e-16 455.463 -4.24835)
(-1.36202e-14 455.463 -4.24835)
(2.87907e-15 455.377 -4.32668)
(-1.47021e-14 455.377 -4.32668)
(3.24497e-15 455.253 -4.40605)
(-1.86325e-14 455.253 -4.40605)
(-5.54904e-15 455.08 -4.48631)
(0 455.08 -4.48631)
(3.83963e-15 454.841 -4.56728)
(-2.08059e-14 454.841 -4.56728)
(-1.20229e-15 454.516 -4.64872)
(2.19285e-14 454.516 -4.64872)
(4.45649e-15 454.082 -4.73032)
(0 454.082 -4.73032)
(1.47002e-14 453.508 -4.8117)
(-5.15334e-15 453.508 -4.8117)
(5.0961e-15 452.761 -4.89241)
(2.03844e-14 452.761 -4.89241)
(1.5357e-14 451.802 -4.97189)
(1.17658e-14 451.802 -4.97189)
(-5.75878e-15 450.588 -5.0495)
(0 450.588 -5.0495)
(2.17692e-14 449.07 -5.12453)
(-9.57173e-15 449.07 -5.12453)
(6.44439e-15 447.197 -5.19615)
(0 447.197 -5.19615)
(0 444.915 -5.2635)
(0 444.915 -5.2635)
(0 442.173 -5.32566)
(-9.05512e-15 442.173 -5.32566)
(1.50279e-14 438.917 -5.38169)
(0 438.917 -5.38169)
(7.8806e-15 435.103 -5.43068)
(3.15224e-14 435.103 -5.43068)
(1.65035e-14 430.691 -5.47177)
(0 430.691 -5.47177)
(1.70363e-14 425.654 -5.5042)
(-8.40941e-15 425.654 -5.5042)
(9.00562e-15 419.974 -5.52737)
(-8.25531e-15 419.974 -5.52737)
(9.38729e-15 413.65 -5.54083)
(-2.13411e-14 413.65 -5.54083)
(0 406.695 -5.54432)
(-5.49962e-14 406.695 -5.54432)
(0 399.137 -5.53781)
(0 399.137 -5.53781)
(1.05434e-14 391.018 -5.52146)
(-4.21737e-14 391.018 -5.52146)
(6.80799e-15 382.392 -5.49563)
(0 382.392 -5.49563)
(-1.13163e-14 373.322 -5.46085)
(-4.52652e-14 373.322 -5.46085)
(-1.17012e-14 363.88 -5.41779)
(-9.36096e-14 363.88 -5.41779)
(2.15573e-15 354.142 -5.36725)
(-1.42399e-14 354.142 -5.36725)
(-1.24645e-14 344.182 -5.31007)
(0 344.182 -5.31007)
(-1.28417e-14 334.075 -5.24713)
(-1.02734e-13 334.075 -5.24713)
(2.64304e-14 323.894 -5.17934)
(0 323.894 -5.17934)
(1.35846e-14 313.704 -5.10756)
(-8.07872e-14 313.704 -5.10756)
(2.78987e-14 303.565 -5.03262)
(4.28153e-14 303.565 -5.03262)
(3.97978e-14 293.528 -4.9553)
(-8.27257e-14 293.528 -4.9553)
(-2.93282e-14 283.64 -4.8763)
(-5.86565e-14 283.64 -4.8763)
(3.00272e-14 273.938 -4.79624)
(6.00543e-14 273.938 -4.79624)
(0 264.454 -4.71569)
(0 264.454 -4.71569)
(-1.5696e-14 255.211 -4.63513)
(-1.49239e-13 255.211 -4.63513)
(1.60287e-14 246.228 -4.55498)
(-8.7352e-14 246.228 -4.55498)
(1.63558e-14 237.52 -4.47558)
(0 237.52 -4.47558)
(2.23933e-14 229.095 -4.39723)
(-1.55811e-13 229.095 -4.39723)
(1.6993e-14 220.957 -4.32016)
(0 220.957 -4.32016)
(1.30265e-14 213.11 -4.24457)
(2.15801e-14 213.11 -4.24457)
(0 205.551 -4.1706)
(-7.04324e-14 205.551 -4.1706)
(-2.88898e-15 198.279 -4.09837)
(0 198.279 -4.09837)
(1.82017e-14 191.288 -4.02796)
(-7.28067e-14 191.288 -4.02796)
(0 184.571 -3.95942)
(-7.39627e-14 184.571 -3.95942)
(0 178.123 -3.8928)
(-7.50986e-14 178.123 -3.8928)
(1.90538e-14 171.934 -3.8281)
(0 171.934 -3.8281)
(0 165.997 -3.76533)
(-1.89596e-14 165.997 -3.76533)
(3.821e-14 160.302 -3.70448)
(-1.86122e-14 160.302 -3.70448)
(1.9863e-14 154.84 -3.64552)
(-1.82711e-14 154.84 -3.64552)
(0 149.603 -3.58843)
(-8.04957e-14 149.603 -3.58843)
(0 144.58 -3.53317)
(0 144.58 -3.53317)
(3.79182e-14 139.764 -3.47969)
(-9.98177e-14 139.764 -3.47969)
(0 135.144 -3.42796)
(-8.35272e-14 135.144 -3.42796)
(0 130.713 -3.37793)
(0 130.713 -3.37793)
(-2.13677e-14 126.462 -3.32955)
(1.70942e-13 126.462 -3.32955)
(0 122.383 -3.28276)
(0 122.383 -3.28276)
(2.18393e-14 118.468 -3.23752)
(-8.73572e-14 118.468 -3.23752)
(2.207e-14 114.71 -3.19378)
(-8.82801e-14 114.71 -3.19378)
(3.0372e-14 111.101 -3.15148)
(-1.7838e-13 111.101 -3.15148)
(-2.25219e-14 107.635 -3.11058)
(0 107.635 -3.11058)
(0 104.305 -3.07103)
(0 104.305 -3.07103)
(0 101.105 -3.03277)
(9.18464e-14 101.105 -3.03277)
(3.32353e-14 98.0285 -2.99577)
(-3.99041e-13 98.0285 -2.99577)
(4.678e-14 95.07 -2.95998)
(-9.35601e-14 95.07 -2.95998)
(-2.36002e-14 92.2241 -2.92534)
(0 92.2241 -2.92534)
(-2.38078e-14 89.4858 -2.89183)
(-9.52314e-14 89.4858 -2.89183)
(-2.18311e-14 86.8501 -2.8594)
(-1.22247e-13 86.8501 -2.8594)
(1.49912e-15 84.3123 -2.828)
(-2.19441e-13 84.3123 -2.828)
(4.88325e-14 81.868 -2.79761)
(-9.76649e-14 81.868 -2.79761)
(2.46144e-14 79.513 -2.76818)
(9.84577e-14 79.513 -2.76818)
(0 77.2434 -2.73968)
(9.92419e-14 77.2434 -2.73968)
(1.1232e-15 75.0553 -2.71207)
(-1.4778e-13 75.0553 -2.71207)
(-7.38362e-14 72.9452 -2.68532)
(7.73416e-14 72.9452 -2.68532)
(4.84002e-14 70.9097 -2.6594)
(-2.3014e-14 70.9097 -2.6594)
(-2.98198e-15 68.9454 -2.63427)
(0 68.9454 -2.63427)
(2.21783e-14 67.0494 -2.60992)
(-2.21783e-14 67.0494 -2.60992)
(2.59448e-14 65.2187 -2.58631)
(1.03779e-13 65.2187 -2.58631)
(2.13729e-14 63.4505 -2.56341)
(-8.31368e-14 63.4505 -2.56341)
(0 61.7421 -2.5412)
(0 61.7421 -2.5412)
(2.64877e-14 60.0912 -2.51966)
(6.47573e-14 60.0912 -2.51966)
(0 58.4952 -2.49876)
(0 58.4952 -2.49876)
(3.96977e-14 56.952 -2.47847)
(-2.54431e-13 56.952 -2.47847)
(0 55.4593 -2.45879)
(0 55.4593 -2.45879)
(2.71896e-14 54.0152 -2.43967)
(-1.08759e-13 54.0152 -2.43967)
(6.49166e-14 52.6175 -2.42112)
(-3.75551e-14 52.6175 -2.42112)
(2.7532e-14 51.2646 -2.4031)
(2.20256e-13 51.2646 -2.4031)
(2.77012e-14 49.9546 -2.38559)
(0 49.9546 -2.38559)
(2.78691e-14 48.6858 -2.36859)
(-1.47004e-13 48.6858 -2.36859)
(-6.84138e-15 47.4567 -2.35207)
(1.12143e-13 47.4567 -2.35207)
(0 46.2656 -2.33602)
(3.4238e-14 46.2656 -2.33602)
(5.24517e-15 45.1111 -2.32042)
(-1.47072e-13 45.1111 -2.32042)
(3.29947e-14 43.9919 -2.30526)
(-3.29947e-14 43.9919 -2.30526)
(0 42.9066 -2.29052)
(-3.23901e-14 42.9066 -2.29052)
(0 41.8538 -2.27619)
(0 41.8538 -2.27619)
(9.36416e-14 40.8325 -2.26225)
(-1.47259e-13 40.8325 -2.26225)
(-6.12837e-14 39.8414 -2.2487)
(-3.06419e-14 39.8414 -2.2487)
(0 38.8795 -2.23551)
(0 38.8795 -2.23551)
(2.94849e-14 37.9457 -2.22269)
(-2.95292e-14 37.9457 -2.22269)
(-2.96409e-14 37.0389 -2.21021)
(0 37.0389 -2.21021)
(-2.9796e-14 36.1581 -2.19807)
(-2.84568e-14 36.1581 -2.19807)
(-2.59206e-14 35.3026 -2.18625)
(0 35.3026 -2.18625)
(0 34.4713 -2.17474)
(-2.74235e-14 34.4713 -2.17474)
(-3.35908e-14 33.6635 -2.16355)
(-2.42047e-13 33.6635 -2.16355)
(0 32.8783 -2.15265)
(0 32.8783 -2.15265)
(3.05584e-14 32.1149 -2.14203)
(0 32.1149 -2.14203)
(-2.54679e-14 31.3725 -2.13169)
(1.22834e-13 31.3725 -2.13169)
(0 30.6506 -2.12162)
(-1.48432e-13 30.6506 -2.12162)
(0 29.9483 -2.11182)
(-1.73111e-13 29.9483 -2.11182)
(-3.11542e-14 29.265 -2.10226)
(-1.24617e-13 29.265 -2.10226)
(0 28.6002 -2.09295)
(1.25205e-13 28.6002 -2.09295)
(7.78847e-14 27.953 -2.08388)
(0 27.953 -2.08388)
(6.31873e-14 27.3231 -2.07504)
(1.26375e-13 27.3231 -2.07504)
(-3.17388e-14 26.7098 -2.06642)
(1.26955e-13 26.7098 -2.06642)
(0 26.1126 -2.05802)
(0 26.1126 -2.05802)
(3.20273e-14 25.531 -2.04983)
(-4.31256e-14 25.531 -2.04983)
(3.21707e-14 24.9644 -2.04184)
(1.28683e-13 24.9644 -2.04184)
(3.23134e-14 24.4124 -2.03405)
(1.29254e-13 24.4124 -2.03405)
(3.24556e-14 23.8746 -2.02645)
(0 23.8746 -2.02645)
(4.00503e-14 23.3504 -2.01904)
(-1.30389e-13 23.3504 -2.01904)
(3.27384e-14 22.8395 -2.01181)
(-3.93164e-14 22.8395 -2.01181)
(5.71702e-15 22.3415 -2.00475)
(0 22.3415 -2.00475)
(0 21.8559 -1.99786)
(0 21.8559 -1.99786)
(7.0353e-14 21.3824 -1.99113)
(-3.71944e-14 21.3824 -1.99113)
(1.03108e-13 20.9206 -1.98456)
(0 20.9206 -1.98456)
(0 20.4701 -1.97814)
(0 20.4701 -1.97814)
(3.35744e-14 20.0307 -1.97187)
(3.03782e-13 20.0307 -1.97187)
(0 19.6019 -1.96574)
(0 19.6019 -1.96574)
(-3.38493e-14 19.1835 -1.95975)
(-3.39092e-14 19.1835 -1.95975)
(-3.39861e-14 18.7751 -1.95389)
(0 18.7751 -1.95389)
(0 18.3765 -1.94817)
(0 18.3765 -1.94817)
(-2.98996e-14 17.9873 -1.94256)
(6.4158e-14 17.9873 -1.94256)
(6.29823e-14 17.6074 -1.93708)
(0 17.6074 -1.93708)
(6.90583e-14 17.2364 -1.93171)
(-1.38117e-13 17.2364 -1.93171)
(6.93278e-14 16.874 -1.92645)
(-1.38656e-13 16.874 -1.92645)
(-5.0068e-15 16.5201 -1.92129)
(-4.17579e-13 16.5201 -1.92129)
(-3.49323e-14 16.1744 -1.91624)
(-2.92456e-14 16.1744 -1.91624)
(0 15.8366 -1.91129)
(1.11554e-13 15.8366 -1.91129)
(-5.63671e-14 15.5065 -1.90643)
(0 15.5065 -1.90643)
(3.53322e-14 15.1839 -1.90165)
(0 15.1839 -1.90165)
(-3.54648e-14 14.8687 -1.89697)
(-1.96179e-13 14.8687 -1.89697)
(5.33248e-14 14.5605 -1.89236)
(-5.33248e-14 14.5605 -1.89236)
(3.5729e-14 14.2592 -1.88783)
(1.42916e-13 14.2592 -1.88783)
(7.17212e-14 13.9646 -1.88337)
(-1.43442e-13 13.9646 -1.88337)
(0 13.6765 -1.87898)
(-1.94414e-13 13.6765 -1.87898)
(3.61229e-14 13.3948 -1.87465)
(0 13.3948 -1.87465)
(0 13.1192 -1.87038)
(-1.45014e-13 13.1192 -1.87038)
(0 12.8496 -1.86617)
(-2.91072e-13 12.8496 -1.86617)
(-4.68495e-14 12.5859 -1.862)
(-4.68495e-14 12.5859 -1.862)
(7.32876e-14 12.3278 -1.85788)
(1.46575e-13 12.3278 -1.85788)
(3.67733e-14 12.0753 -1.85381)
(-4.51482e-14 12.0753 -1.85381)
(4.43209e-14 11.8281 -1.84977)
(1.4761e-13 11.8281 -1.84977)
(3.70314e-14 11.5861 -1.84577)
(-1.48125e-13 11.5861 -1.84577)
(0 11.3492 -1.84179)
(-1.4864e-13 11.3492 -1.84179)
(0 11.1173 -1.83784)
(4.19287e-14 11.1173 -1.83784)
(7.85768e-14 10.8902 -1.8339)
(-1.90826e-13 10.8902 -1.8339)
(7.50884e-14 10.6677 -1.82998)
(-1.50177e-13 10.6677 -1.82998)
(3.76717e-14 10.4499 -1.82607)
(1.11021e-13 10.4499 -1.82607)
(3.66591e-14 10.2364 -1.82216)
(1.12257e-13 10.2364 -1.82216)
(3.7926e-14 10.0273 -1.81825)
(0 10.0273 -1.81825)
(-5.27824e-16 9.82242 -1.81433)
(-3.75249e-14 9.82242 -1.81433)
(3.81791e-14 9.6216 -1.8104)
(-1.52716e-13 9.6216 -1.8104)
(3.83053e-14 9.42477 -1.80646)
(1.53221e-13 9.42477 -1.80646)
(7.68624e-14 9.23182 -1.80249)
(-3.54995e-14 9.23182 -1.80249)
(0 9.04263 -1.79849)
(1.54227e-13 9.04263 -1.79849)
(-4.47175e-15 8.85712 -1.79445)
(-1.88939e-13 8.85712 -1.79445)
(1.11198e-13 8.67519 -1.79038)
(-1.88813e-13 8.67519 -1.79038)
(-3.89321e-14 8.49673 -1.78625)
(-3.11456e-13 8.49673 -1.78625)
(7.14206e-14 8.32166 -1.78207)
(-1.8859e-13 8.32166 -1.78207)
(-6.35418e-14 8.14988 -1.77782)
(1.24952e-13 8.14988 -1.77782)
(1.62321e-14 7.9813 -1.77351)
(1.57219e-13 7.9813 -1.77351)
(1.00663e-13 7.81584 -1.76912)
(-1.57714e-13 7.81584 -1.76912)
(-2.05605e-14 7.65341 -1.76464)
(0 7.65341 -1.76464)
(5.90108e-14 7.49393 -1.76007)
(-2.1771e-13 7.49393 -1.76007)
(0 7.33731 -1.75539)
(-1.59191e-13 7.33731 -1.75539)
(0 7.18348 -1.75061)
(-2.16549e-13 7.18348 -1.75061)
(0 7.03235 -1.7457)
(5.58258e-14 7.03235 -1.7457)
(4.01641e-14 6.88386 -1.74067)
(0 6.88386 -1.74067)
(4.02857e-14 6.73792 -1.73549)
(1.61143e-13 6.73792 -1.73549)
(4.04068e-14 6.59446 -1.73016)
(0 6.59446 -1.73016)
(0 6.45341 -1.72467)
(1.62111e-13 6.45341 -1.72467)
(0 6.3147 -1.719)
(0 6.3147 -1.719)
(0 6.17824 -1.71315)
(-1.63073e-13 6.17824 -1.71315)
(0 6.04399 -1.70709)
(-4.90467e-14 6.04399 -1.70709)
(-4.10072e-14 5.91186 -1.70082)
(0 5.91186 -1.70082)
(-4.11261e-14 5.78179 -1.69433)
(-1.64505e-13 5.78179 -1.69433)
(-4.12446e-14 5.65371 -1.68758)
(-2.11378e-13 5.65371 -1.68758)
(0 5.52756 -1.68058)
(0 5.52756 -1.68058)
(4.47146e-14 5.40326 -1.6733)
(-3.31843e-13 5.40326 -1.6733)
(0 5.28075 -1.66573)
(-2.10285e-13 5.28075 -1.66573)
(0 5.15998 -1.65783)
(0 5.15998 -1.65783)
(0 5.04086 -1.64961)
(-1.67321e-13 5.04086 -1.64961)
(-4.19934e-16 4.92334 -1.64102)
(-4.15261e-14 4.92334 -1.64102)
(8.41222e-14 4.80735 -1.63205)
(1.27479e-13 4.80735 -1.63205)
(8.43513e-14 4.69282 -1.62268)
(0 4.69282 -1.62268)
(1.23864e-13 4.57969 -1.61288)
(-2.08443e-13 4.57969 -1.61288)
(8.09679e-14 4.46789 -1.60262)
(-3.85649e-14 4.46789 -1.60262)
(-4.65744e-15 4.35736 -1.59186)
(-3.78582e-14 4.35736 -1.59186)
(3.71645e-14 4.24802 -1.58059)
(1.70511e-13 4.24802 -1.58059)
(-6.25554e-15 4.13981 -1.56875)
(1.34473e-13 4.13981 -1.56875)
(0 4.03265 -1.55633)
(-2.07213e-13 4.03265 -1.55633)
(0 3.92647 -1.54326)
(-1.71838e-13 3.92647 -1.54326)
(-4.30684e-14 3.82121 -1.52953)
(-2.41302e-13 3.82121 -1.52953)
(8.6353e-14 3.71677 -1.51507)
(-1.72706e-13 3.71677 -1.51507)
(4.32838e-14 3.61308 -1.49983)
(0 3.61308 -1.49983)
(-6.5303e-14 3.51006 -1.48377)
(1.7356e-13 3.51006 -1.48377)
(0 3.40763 -1.46682)
(0 3.40763 -1.46682)
(0 3.30569 -1.44892)
(-2.3733e-13 3.30569 -1.44892)
(0 3.20415 -1.43)
(-6.17784e-14 3.20415 -1.43)
(-1.68416e-14 3.10292 -1.40999)
(1.75219e-13 3.10292 -1.40999)
(4.39056e-14 3.00188 -1.3888)
(-3.51245e-13 3.00188 -1.3888)
(0 2.90093 -1.36634)
(0 2.90093 -1.36634)
(-1.32699e-14 2.79995 -1.34252)
(0 2.79995 -1.34252)
(4.41998e-14 2.69881 -1.31722)
(-1.76799e-13 2.69881 -1.31722)
(-9.95847e-14 2.59739 -1.29033)
(1.2189e-13 2.59739 -1.29033)
(8.8777e-14 2.49554 -1.26172)
(1.23277e-13 2.49554 -1.26172)
(3.56786e-14 2.39312 -1.23124)
(0 2.39312 -1.23124)
(-7.73533e-15 2.28995 -1.19875)
(-5.23055e-14 2.28995 -1.19875)
(4.46582e-14 2.18587 -1.16407)
(-1.02694e-13 2.18587 -1.16407)
(4.47441e-14 2.08069 -1.127)
(-2.29383e-13 2.08069 -1.127)
(-4.65464e-15 1.9742 -1.08736)
(2.28794e-13 1.9742 -1.08736)
(0 1.86621 -1.04491)
(-2.28212e-13 1.86621 -1.04491)
(4.4988e-14 1.75649 -0.999416)
(-2.27637e-13 1.75649 -0.999416)
(-1.74765e-15 1.64481 -0.950614)
(9.36235e-14 1.64481 -0.950614)
(4.59539e-14 1.53093 -0.898225)
(1.80549e-13 1.53093 -0.898225)
(0 1.4146 -0.841955)
(-3.6166e-13 1.4146 -0.841955)
(0 1.29559 -0.781495)
(-1.81097e-13 1.29559 -0.781495)
(4.53375e-14 1.17365 -0.716526)
(-1.8135e-13 1.17365 -0.716526)
(4.53969e-14 1.04857 -0.646727)
(9.62337e-14 1.04857 -0.646727)
(8.73472e-14 0.92015 -0.571785)
(-4.05513e-13 0.92015 -0.571785)
(9.10061e-14 0.788248 -0.491402)
(-1.82012e-13 0.788248 -0.491402)
(8.07473e-14 0.652761 -0.405307)
(-8.07473e-14 0.652761 -0.405307)
(-4.559e-14 0.513656 -0.31327)
(1.42726e-13 0.513656 -0.31327)
(0 0.370976 -0.215111)
(-1.82501e-13 0.370976 -0.215111)
(3.07344e-14 0.224846 -0.110709)
(1.0623e-13 0.224846 -0.110709)
(1.20667e-13 8.398e-07 -3.10833e-07)
(1.82938e-13 5.61293e-07 -2.0775e-07)
(4.57344e-14 -8.15821e-07 3.0196e-07)
(1.82711e-13 -5.27122e-07 1.95102e-07)
(3.81946e-14 -0.224845 0.110709)
(2.88849e-13 -0.224845 0.110709)
(-4.56253e-14 -0.370975 0.215111)
(-7.78151e-14 -0.370975 0.215111)
(0 -0.513655 0.313269)
(1.8236e-13 -0.513655 0.313269)
(-8.07473e-14 -0.652761 0.405306)
(4.4514e-13 -0.652761 0.405306)
(3.67515e-14 -0.788248 0.491401)
(-2.64267e-13 -0.788248 0.491401)
(0 -0.92015 0.571785)
(0 -0.92015 0.571785)
(-4.53969e-14 -1.04857 0.646727)
(-1.81588e-13 -1.04857 0.646727)
(0 -1.17365 0.716525)
(0 -1.17365 0.716525)
(4.52743e-14 -1.29559 0.781495)
(0 -1.29559 0.781495)
(-9.02237e-14 -1.4146 0.841955)
(2.71054e-13 -1.4146 0.841955)
(0 -1.53093 0.898225)
(2.26503e-13 -1.53093 0.898225)
(0 -1.64481 0.950614)
(0 -1.64481 0.950614)
(-4.4988e-14 -1.75649 0.999416)
(-1.79952e-13 -1.75649 0.999416)
(8.98183e-14 -1.86621 1.04491)
(-4.85757e-14 -1.86621 1.04491)
(0 -1.9742 1.08736)
(0 -1.9742 1.08736)
(8.94882e-14 -2.08069 1.127)
(7.81642e-14 -2.08069 1.127)
(-4.46582e-14 -2.18587 1.16407)
(-2.2998e-13 -2.18587 1.16407)
(-8.91404e-14 -2.28995 1.19875)
(0 -2.28995 1.19875)