/*--------------------------------*- C++ -*----------------------------------*\
| =========                 |                                                 |
| \\      /  F ield         | OpenFOAM: The Open Source CFD Toolbox           |
|  \\    /   O peration     | Version:  2106                                  |
|   \\  /    A nd           | Website:  www.openfoam.com                      |
|    \\/     M anipulation  |                                                 |
\*---------------------------------------------------------------------------*/
FoamFile
{
    version     2.0;
    format      ascii;
    arch        "LSB;label=32;scalar=64";
    class       volScalarField;
    location    "10010";
    object      p;
}
// * * * * * * * * * * * * * * * * * * * * * * * * * * * * * * * * * * * * * //

dimensions      [0 2 -2 0 0 0 0];

internalField   nonuniform List<scalar> 
2000
(
1.2207e-15
6.26541e-15
2.63204e-15
6.26515e-15
2.76895e-15
6.26477e-15
2.56315e-15
6.26424e-15
2.44811e-15
6.26355e-15
2.37934e-15
6.26269e-15
2.31437e-15
6.26163e-15
2.24822e-15
6.2604e-15
2.18294e-15
6.259e-15
2.119e-15
6.25741e-15
2.0564e-15
6.25565e-15
1.99526e-15
6.25368e-15
1.93551e-15
6.25153e-15
1.8772e-15
6.24924e-15
1.82019e-15
6.24679e-15
1.7644e-15
6.24415e-15
1.71008e-15
6.24126e-15
1.65706e-15
6.23819e-15
1.60534e-15
6.23497e-15
1.55479e-15
6.23153e-15
1.5055e-15
6.22784e-15
1.45734e-15
6.22402e-15
1.41025e-15
6.22006e-15
1.36428e-15
6.2159e-15
1.31918e-15
6.2116e-15
1.27505e-15
6.20706e-15
1.23182e-15
6.20235e-15
1.18947e-15
6.19746e-15
1.14784e-15
6.19241e-15
1.1068e-15
6.1871e-15
1.06592e-15
6.18176e-15
1.02575e-15
6.17616e-15
9.85873e-16
6.17039e-15
9.46343e-16
6.16432e-15
9.07228e-16
6.15786e-15
8.68429e-16
6.15113e-15
8.29599e-16
6.14403e-15
7.90901e-16
6.13668e-15
7.52076e-16
6.12906e-15
7.13126e-16
6.12103e-15
6.73798e-16
6.11311e-15
6.34011e-16
6.10504e-15
5.94144e-16
6.09676e-15
5.54326e-16
6.08772e-15
5.14324e-16
6.07791e-15
4.73709e-16
6.06752e-15
4.32815e-16
6.05654e-15
3.91404e-16
6.04517e-15
3.49232e-16
6.03423e-15
3.06869e-16
6.02295e-15
2.63449e-16
6.01112e-15
2.19346e-16
5.99876e-15
1.73421e-16
5.98653e-15
1.27618e-16
5.97426e-15
8.10173e-17
5.96151e-15
3.26417e-17
5.94856e-15
-1.66273e-17
5.93566e-15
-6.60973e-17
5.92337e-15
-1.16529e-16
5.91125e-15
-1.68222e-16
5.89859e-15
-2.20454e-16
5.88518e-15
-2.7405e-16
5.87103e-15
-3.28264e-16
5.8578e-15
-3.84231e-16
5.84557e-15
-4.39799e-16
5.83279e-15
-4.97815e-16
5.82063e-15
-5.56656e-16
5.80804e-15
-6.16967e-16
5.79448e-15
-6.78232e-16
5.7806e-15
-7.387e-16
5.76588e-15
-7.99001e-16
5.75037e-15
-8.59806e-16
5.73414e-15
-9.19909e-16
5.71854e-15
-9.80637e-16
5.70046e-15
-1.03946e-15
5.67994e-15
-1.0997e-15
5.659e-15
-1.16013e-15
5.6391e-15
-1.22083e-15
5.61903e-15
-1.28399e-15
5.59891e-15
-1.34694e-15
5.57746e-15
-1.40981e-15
5.55552e-15
-1.47555e-15
5.53535e-15
-1.5422e-15
5.51571e-15
-1.61136e-15
5.49311e-15
-1.68026e-15
5.46913e-15
-1.7513e-15
5.44767e-15
-1.82166e-15
5.42594e-15
-1.89225e-15
5.40108e-15
-1.96326e-15
5.37631e-15
-2.03645e-15
5.35186e-15
-2.11207e-15
5.32796e-15
-2.18879e-15
5.30326e-15
-2.26204e-15
5.27639e-15
-2.3385e-15
5.24433e-15
-2.40864e-15
5.20724e-15
-2.47592e-15
5.17027e-15
-2.54223e-15
5.12869e-15
-2.60616e-15
5.0844e-15
-2.66965e-15
5.03425e-15
-2.72957e-15
4.98185e-15
-2.78963e-15
4.92577e-15
-2.84841e-15
4.86799e-15
-2.90622e-15
4.80704e-15
-2.96516e-15
4.7397e-15
-3.02382e-15
4.66973e-15
-3.08079e-15
4.59922e-15
-3.14e-15
4.52848e-15
-3.19828e-15
4.45428e-15
-3.25967e-15
4.37329e-15
-3.31185e-15
4.29493e-15
-3.36615e-15
4.21224e-15
-3.41937e-15
4.12555e-15
-3.4701e-15
4.04074e-15
-3.51691e-15
3.95264e-15
-3.56213e-15
3.86158e-15
-3.60434e-15
3.76414e-15
-3.644e-15
3.66631e-15
-3.68348e-15
3.57414e-15
-3.73094e-15
3.47662e-15
-3.76782e-15
3.37028e-15
-3.79842e-15
3.2708e-15
-3.83096e-15
3.17087e-15
-3.85437e-15
3.067e-15
-3.873e-15
2.95951e-15
-3.88735e-15
2.8448e-15
-3.90182e-15
2.73884e-15
-3.92088e-15
2.63417e-15
-3.94516e-15
2.53117e-15
-3.96343e-15
2.41439e-15
-3.97624e-15
2.29994e-15
-3.98808e-15
2.19215e-15
-3.99955e-15
2.08342e-15
-4.01123e-15
1.96609e-15
-4.01967e-15
1.84039e-15
-4.04152e-15
1.7307e-15
-4.04925e-15
1.61728e-15
-4.05149e-15
1.49639e-15
-4.05285e-15
1.37634e-15
-4.05388e-15
1.26142e-15
-4.05105e-15
1.1397e-15
-4.05302e-15
9.99101e-16
-4.05211e-15
8.72292e-16
-4.04472e-15
7.55307e-16
-4.03955e-15
6.35985e-16
-4.03299e-15
5.18537e-16
-4.0173e-15
3.9896e-16
-4.00106e-15
2.85491e-16
-3.98466e-15
1.6992e-16
-3.96434e-15
5.63084e-17
-3.94044e-15
-6.3701e-17
-3.94618e-15
-1.82055e-16
-3.94077e-15
-2.98718e-16
-3.94109e-15
-4.13728e-16
-3.90626e-15
-5.35442e-16
-3.88581e-15
-6.47846e-16
-3.88807e-15
-7.59625e-16
-3.88025e-15
-8.62662e-16
-3.87088e-15
-9.65424e-16
-3.86015e-15
-1.09313e-15
-3.85628e-15
-1.21343e-15
-3.84279e-15
-1.31866e-15
-3.82802e-15
-1.42602e-15
-3.81185e-15
-1.54457e-15
-3.81049e-15
-1.6503e-15
-3.80733e-15
-1.75196e-15
-3.80231e-15
-1.87492e-15
-3.80331e-15
-2.0038e-15
-3.79339e-15
-2.11525e-15
-3.78845e-15
-2.2188e-15
-3.79619e-15
-2.31554e-15
-3.80805e-15
-2.42293e-15
-3.81539e-15
-2.51745e-15
-3.84237e-15
-2.61643e-15
-3.84795e-15
-2.68801e-15
-3.85655e-15
-2.75759e-15
-3.85987e-15
-2.84227e-15
-3.89005e-15
-2.93502e-15
-3.90635e-15
-3.02044e-15
-3.93285e-15
-3.08341e-15
-3.92932e-15
-3.17311e-15
-3.89469e-15
-3.25933e-15
-3.90757e-15
-3.37738e-15
-3.93387e-15
-3.4817e-15
-3.9564e-15
-3.57437e-15
-3.95841e-15
-3.67297e-15
-3.9699e-15
-3.73244e-15
-3.98947e-15
-3.75507e-15
-4.01791e-15
-3.8049e-15
-4.03932e-15
-3.86733e-15
-4.05279e-15
-3.95976e-15
-4.07183e-15
-4.03792e-15
-4.12596e-15
-4.07273e-15
-4.15316e-15
-4.09555e-15
-4.18563e-15
-4.13687e-15
-4.22372e-15
-4.19708e-15
-4.25161e-15
-4.2462e-15
-4.29962e-15
-4.23933e-15
-4.355e-15
-4.29754e-15
-4.38784e-15
-4.35955e-15
-4.42743e-15
-4.44213e-15
-4.50321e-15
-4.51705e-15
-4.57029e-15
-4.555e-15
-4.63037e-15
-4.63045e-15
-4.68271e-15
-4.71558e-15
-4.78636e-15
-4.78305e-15
-4.88362e-15
-4.80167e-15
-4.97993e-15
-4.85653e-15
-5.04898e-15
-4.95936e-15
-5.0757e-15
-5.05301e-15
-5.12893e-15
-5.0986e-15
-5.17984e-15
-5.155e-15
-5.24242e-15
-5.20783e-15
-5.33286e-15
-5.26995e-15
-5.36745e-15
-5.32358e-15
-5.43247e-15
-5.39901e-15
-5.52906e-15
-5.49873e-15
-5.54685e-15
-5.54053e-15
-5.59749e-15
-5.55364e-15
-5.68065e-15
-5.61743e-15
-5.74259e-15
-5.70155e-15
-5.72865e-15
-5.75277e-15
-5.82217e-15
-5.83398e-15
-5.88759e-15
-5.8933e-15
-5.89999e-15
-5.90321e-15
-5.94147e-15
-5.91604e-15
-5.98662e-15
-5.98039e-15
-6.03371e-15
-6.04352e-15
-6.08313e-15
-6.08128e-15
-6.13624e-15
-6.1192e-15
-6.14511e-15
-6.17969e-15
-6.17927e-15
-6.24338e-15
-6.2105e-15
-6.26763e-15
-6.29034e-15
-6.28156e-15
-6.37484e-15
-6.30102e-15
-6.4022e-15
-6.2879e-15
-6.52474e-15
-6.20561e-15
-6.58342e-15
-6.21144e-15
-6.617e-15
-6.26675e-15
-6.66876e-15
-6.31759e-15
-6.69456e-15
-6.38614e-15
-6.69734e-15
-6.4582e-15
-6.66393e-15
-6.54767e-15
-6.63508e-15
-6.58209e-15
-6.66132e-15
-6.59932e-15
-6.67522e-15
-6.64101e-15
-6.69426e-15
-6.68767e-15
-6.78017e-15
-6.69564e-15
-6.75068e-15
-6.71504e-15
-6.74369e-15
-6.73437e-15
-6.78913e-15
-6.75552e-15
9.79105e-16
1.17191e-15
9.79027e-16
1.17186e-15
9.78882e-16
1.1718e-15
9.78677e-16
1.17171e-15
9.7841e-16
1.1716e-15
9.7808e-16
1.17145e-15
9.77682e-16
1.17128e-15
9.77195e-16
1.17105e-15
9.76644e-16
1.17083e-15
9.75989e-16
1.17062e-15
9.75288e-16
1.17034e-15
9.74448e-16
1.17004e-15
9.73567e-16
1.16973e-15
9.7262e-16
1.16941e-15
9.71662e-16
1.16901e-15
9.70616e-16
1.16857e-15
9.69384e-16
1.16813e-15
9.68122e-16
1.16765e-15
9.66853e-16
1.16718e-15
9.65507e-16
1.16672e-15
9.64109e-16
1.16623e-15
9.62614e-16
1.1657e-15
9.61025e-16
1.16519e-15
9.59343e-16
1.16462e-15
9.5757e-16
1.16405e-15
9.55794e-16
1.16338e-15
9.54013e-16
1.16264e-15
9.5197e-16
1.16183e-15
9.49921e-16
1.16102e-15
9.47862e-16
1.16022e-15
9.45707e-16
1.15931e-15
9.43288e-16
1.15855e-15
9.40602e-16
1.15776e-15
9.38141e-16
1.15676e-15
9.35487e-16
1.15563e-15
9.32969e-16
1.15436e-15
9.30414e-16
1.15318e-15
9.27395e-16
1.15227e-15
9.245e-16
1.1512e-15
9.21554e-16
1.14976e-15
9.18466e-16
1.14831e-15
9.15229e-16
1.14701e-15
9.11928e-16
1.14531e-15
9.08745e-16
1.14311e-15
9.05496e-16
1.14093e-15
9.01987e-16
1.13898e-15
8.98602e-16
1.13647e-15
8.9455e-16
1.13376e-15
8.90417e-16
1.13167e-15
8.86824e-16
1.12959e-15
8.82952e-16
1.12667e-15
8.7901e-16
1.12351e-15
8.75221e-16
1.12011e-15
8.70921e-16
1.11622e-15
8.66556e-16
1.11251e-15
8.63069e-16
1.10852e-15
8.59307e-16
1.10422e-15
8.54776e-16
1.10033e-15
8.50203e-16
1.09637e-15
8.45596e-16
1.09183e-15
8.40704e-16
1.08692e-15
8.36054e-16
1.08216e-15
8.30321e-16
1.07702e-15
8.2567e-16
1.07119e-15
8.20478e-16
1.06521e-15
8.14172e-16
1.05962e-15
8.09037e-16
1.05329e-15
8.02778e-16
1.04793e-15
7.95374e-16
1.04178e-15
7.8923e-16
1.03542e-15
7.82555e-16
1.03128e-15
7.76601e-16
1.02818e-15
7.69501e-16
1.02423e-15
7.6124e-16
1.02003e-15
7.5638e-16
1.01427e-15
7.49734e-16
1.00754e-15
7.42616e-16
1.00586e-15
7.32311e-16
1.00661e-15
7.24965e-16
1.00089e-15
7.17884e-16
9.94791e-16
7.09683e-16
9.92541e-16
7.01795e-16
9.90634e-16
6.92802e-16
9.86883e-16
6.83442e-16
9.79026e-16
6.74479e-16
9.69914e-16
6.65961e-16
9.6475e-16
6.56413e-16
9.62838e-16
6.44317e-16
9.58096e-16
6.29656e-16
9.51991e-16
6.15542e-16
9.4604e-16
6.03606e-16
9.40223e-16
5.93936e-16
9.31328e-16
5.80187e-16
9.27312e-16
5.70449e-16
9.23372e-16
5.58294e-16
9.16207e-16
5.48688e-16
9.12344e-16
5.38396e-16
9.08482e-16
5.27463e-16
9.01241e-16
5.19321e-16
8.92232e-16
5.1067e-16
8.79696e-16
5.03293e-16
8.66981e-16
4.93825e-16
8.66173e-16
4.85785e-16
8.65225e-16
4.79264e-16
8.55343e-16
4.67297e-16
8.48752e-16
4.57009e-16
8.47267e-16
4.46705e-16
8.43785e-16
4.3647e-16
8.36477e-16
4.24586e-16
8.30722e-16
4.11129e-16
8.3019e-16
4.07163e-16
8.25786e-16
3.92626e-16
8.22998e-16
3.84178e-16
8.18159e-16
3.70814e-16
8.14985e-16
3.56327e-16
8.15395e-16
3.4268e-16
8.13826e-16
3.24304e-16
8.17874e-16
3.05033e-16
8.16274e-16
2.8876e-16
8.09043e-16
2.67963e-16
8.07693e-16
2.54241e-16
8.08526e-16
2.32287e-16
8.11656e-16
2.13748e-16
8.09468e-16
1.94843e-16
7.9425e-16
1.71772e-16
7.7772e-16
1.52456e-16
7.56056e-16
1.40992e-16
7.37171e-16
1.25751e-16
7.29054e-16
1.06847e-16
7.20015e-16
7.64266e-17
6.98292e-16
5.04691e-17
6.63965e-16
2.11711e-17
6.37032e-16
-7.34818e-18
6.13661e-16
-3.89778e-17
5.86011e-16
-6.95841e-17
5.54257e-16
-9.09135e-17
5.14492e-16
-1.10781e-16
4.74857e-16
-1.37044e-16
4.35453e-16
-1.73581e-16
3.92351e-16
-2.03976e-16
3.4569e-16
-2.32063e-16
2.99662e-16
-2.57573e-16
2.66699e-16
-2.76192e-16
2.3071e-16
-3.12209e-16
1.79559e-16
-3.44921e-16
1.25668e-16
-3.78145e-16
6.91478e-17
-4.19829e-16
1.83277e-17
-4.49226e-16
-2.65789e-17
-4.78419e-16
-6.94843e-17
-5.15415e-16
-1.26664e-16
-5.5997e-16
-1.97974e-16
-6.03446e-16
-2.75101e-16
-6.2889e-16
-3.33255e-16
-6.77114e-16
-3.8062e-16
-7.39809e-16
-4.16788e-16
-7.9232e-16
-4.82489e-16
-8.50912e-16
-5.44405e-16
-8.98893e-16
-5.77403e-16
-9.44535e-16
-6.22255e-16
-9.87707e-16
-6.7838e-16
-1.01983e-15
-7.20557e-16
-1.0737e-15
-7.56628e-16
-1.12462e-15
-8.43684e-16
-1.18866e-15
-9.40306e-16
-1.24057e-15
-1.01349e-15
-1.28823e-15
-1.07958e-15
-1.33952e-15
-1.12994e-15
-1.40249e-15
-1.18853e-15
-1.46892e-15
-1.26284e-15
-1.54692e-15
-1.31126e-15
-1.62042e-15
-1.38201e-15
-1.69765e-15
-1.46613e-15
-1.76213e-15
-1.53855e-15
-1.82993e-15
-1.5906e-15
-1.89314e-15
-1.64594e-15
-1.94371e-15
-1.72013e-15
-1.99747e-15
-1.80473e-15
-2.05354e-15
-1.88339e-15
-2.11132e-15
-1.9478e-15
-2.17041e-15
-1.9814e-15
-2.23137e-15
-2.01498e-15
-2.29522e-15
-2.07904e-15
-2.362e-15
-2.17216e-15
-2.39886e-15
-2.29389e-15
-2.46771e-15
-2.36552e-15
-2.56848e-15
-2.38629e-15
-2.59186e-15
-2.43294e-15
-2.64857e-15
-2.45765e-15
-2.72324e-15
-2.52192e-15
-2.80044e-15
-2.59263e-15
-2.88077e-15
-2.68399e-15
-2.9643e-15
-2.74811e-15
-3.00452e-15
-2.86238e-15
-3.0459e-15
-2.93545e-15
-3.1025e-15
-3.01495e-15
-3.17307e-15
-3.06992e-15
-3.22722e-15
-3.1455e-15
-3.27911e-15
-3.21206e-15
-3.37351e-15
-3.30014e-15
-3.41894e-15
-3.39354e-15
-3.48939e-15
-3.46294e-15
-3.58374e-15
-3.55299e-15
-3.68659e-15
-3.58775e-15
-3.756e-15
-3.66798e-15
-3.86649e-15
-3.76244e-15
-3.9581e-15
-3.83967e-15
-4.06061e-15
-3.94394e-15
-4.12873e-15
-4.06032e-15
-4.23293e-15
-4.14621e-15
-4.31657e-15
-4.214e-15
-4.41016e-15
-4.30604e-15
-4.47062e-15
-4.4217e-15
-4.5661e-15
-4.5506e-15
-4.60671e-15
-4.62394e-15
-4.64708e-15
-4.6729e-15
-4.68441e-15
-4.72486e-15
-4.7423e-15
-4.8347e-15
-4.90102e-15
-4.92294e-15
-4.99983e-15
-5.01417e-15
-5.03939e-15
-5.10784e-15
-5.15178e-15
-5.15266e-15
-5.23646e-15
-5.16925e-15
-5.29875e-15
-5.25655e-15
-5.33527e-15
-5.33424e-15
-5.42332e-15
-5.40868e-15
-5.48433e-15
-5.50731e-15
-5.51412e-15
-5.58129e-15
-5.58513e-15
-5.63565e-15
-5.61941e-15
-5.72146e-15
-5.68665e-15
-5.79451e-15
-5.70949e-15
-5.80408e-15
-5.76499e-15
-5.79667e-15
-5.88678e-15
-5.83752e-15
-5.93466e-15
-5.91481e-15
-6.05285e-15
-5.9846e-15
-6.1034e-15
-6.01941e-15
-6.15783e-15
-6.05001e-15
-6.26815e-15
-6.17193e-15
-6.31499e-15
-6.21881e-15
-6.27387e-15
-6.23889e-15
-6.32067e-15
-6.28662e-15
-6.38488e-15
-6.38246e-15
-6.44462e-15
-6.41277e-15
-6.46695e-15
-6.46564e-15
-6.49169e-15
-6.52678e-15
-6.53423e-15
-6.60597e-15
-6.56405e-15
-6.62225e-15
-6.6457e-15
-6.64372e-15
-6.71422e-15
-6.7017e-15
-6.78204e-15
-6.75197e-15
-6.84476e-15
-6.76794e-15
-6.74806e-15
-6.76213e-15
-6.74062e-15
-6.76357e-15
-6.73e-15
-6.77671e-15
-6.73546e-15
-6.75931e-15
-6.68712e-15
-6.72835e-15
-6.70193e-15
-6.66326e-15
-6.63667e-15
-6.64077e-15
-6.6137e-15
-6.59791e-15
-6.61432e-15
-6.57632e-15
-6.55037e-15
-6.54949e-15
-6.50712e-15
-6.50044e-15
-6.42295e-15
-6.4026e-15
-6.36831e-15
-6.3256e-15
-6.32225e-15
-6.31236e-15
-6.30308e-15
-6.29809e-15
-6.23762e-15
-6.23674e-15
-6.14924e-15
-6.15388e-15
-6.06195e-15
-6.12419e-15
-5.99161e-15
-6.07695e-15
-5.93071e-15
-6.01417e-15
-5.90573e-15
-5.93646e-15
-5.87636e-15
-5.8898e-15
-5.84577e-15
-5.79535e-15
-5.79382e-15
-5.77539e-15
-5.772e-15
-5.75466e-15
-5.75392e-15
-5.70546e-15
-5.76939e-15
-5.6778e-15
-5.74191e-15
-5.66678e-15
-5.6968e-15
-5.67452e-15
-5.65589e-15
-5.62534e-15
-5.59705e-15
-5.57289e-15
-5.54249e-15
-5.54567e-15
-5.54327e-15
-5.51769e-15
-5.5191e-15
-5.48607e-15
-5.46883e-15
-5.45059e-15
-5.44715e-15
-5.4136e-15
-5.45623e-15
-5.37523e-15
-5.41233e-15
-5.33256e-15
-5.37225e-15
-5.27184e-15
-5.35238e-15
-5.2936e-15
-5.33523e-15
-5.28412e-15
-5.27608e-15
-5.25757e-15
-5.29158e-15
-5.2308e-15
-5.26715e-15
-5.23112e-15
-5.24576e-15
-5.22938e-15
-5.22601e-15
-5.21188e-15
-5.23737e-15
-5.19579e-15
-5.23639e-15
-5.19489e-15
-5.20739e-15
-5.17941e-15
-5.19593e-15
-5.15087e-15
-5.21807e-15
-5.12298e-15
-5.18397e-15
-5.12422e-15
-5.13724e-15
-5.15625e-15
-5.10489e-15
-5.19148e-15
-5.10044e-15
-5.14027e-15
-5.06404e-15
-5.03097e-15
-5.07533e-15
-4.98423e-15
-5.07464e-15
-4.9823e-15
-5.07787e-15
-5.00957e-15
-5.05297e-15
-4.98842e-15
-5.04698e-15
-4.93462e-15
-5.0295e-15
-4.90983e-15
-5.00031e-15
-4.89805e-15
-4.97498e-15
-4.90002e-15
-4.9526e-15
-4.8849e-15
-4.93284e-15
-4.85294e-15
-4.91589e-15
-4.83586e-15
-4.88554e-15
-4.83372e-15
-4.85682e-15
-4.84739e-15
-4.87719e-15
-4.84583e-15
-4.88279e-15
-4.84437e-15
-4.85743e-15
-4.81028e-15
-4.85783e-15
-4.80816e-15
-4.86774e-15
-4.81383e-15
-4.86283e-15
-4.81108e-15
-4.85929e-15
-4.79985e-15
-4.85722e-15
-4.81263e-15
-4.85628e-15
-4.84154e-15
-4.85595e-15
-4.82974e-15
-4.86469e-15
-4.80167e-15
-4.8584e-15
-4.78139e-15
-4.87012e-15
-4.77679e-15
-4.87547e-15
-4.77929e-15
-4.87453e-15
-4.79699e-15
-4.87525e-15
-4.79713e-15
-4.87758e-15
-4.78811e-15
-4.88992e-15
-4.78644e-15
-4.90407e-15
-4.78392e-15
-4.90364e-15
-4.78876e-15
-4.905e-15
-4.77632e-15
-4.9165e-15
-4.74647e-15
-4.92197e-15
-4.74837e-15
-4.92139e-15
-4.76548e-15
-4.92286e-15
-4.77318e-15
-4.92623e-15
-4.77155e-15
-4.93974e-15
-4.77712e-15
-4.93856e-15
-4.78153e-15
-4.94745e-15
-4.78485e-15
-4.94981e-15
-4.80358e-15
-4.96197e-15
-4.82139e-15
-4.96735e-15
-4.83839e-15
-4.97401e-15
-4.8465e-15
-4.97366e-15
-4.85401e-15
-4.97032e-15
-4.85687e-15
-4.97208e-15
-4.8552e-15
-4.97068e-15
-4.86956e-15
-4.98238e-15
-4.87136e-15
-4.99085e-15
-4.87286e-15
-4.99607e-15
-4.87405e-15
-4.99395e-15
-4.87897e-15
-4.99257e-15
-4.87952e-15
-4.99594e-15
-4.87979e-15
-4.99997e-15
-4.87574e-15
-5.0006e-15
-4.87544e-15
-5.0059e-15
-4.88696e-15
-4.99566e-15
-4.89416e-15
-4.98996e-15
-4.89716e-15
-4.99273e-15
-4.89602e-15
-4.99993e-15
-4.88674e-15
-4.99962e-15
-4.88926e-15
-5.00376e-15
-4.89555e-15
-5.01231e-15
-4.90166e-15
-5.00548e-15
-4.89971e-15
-5.00303e-15
-4.88978e-15
-5.001e-15
-4.89937e-15
-5.00324e-15
-4.91275e-15
-4.99801e-15
-4.91823e-15
-4.98918e-15
-4.90816e-15
-4.99224e-15
-4.90972e-15
-4.99168e-15
-4.9151e-15
-4.99135e-15
-4.91662e-15
-4.9874e-15
-4.91431e-15
-4.98746e-15
-4.91961e-15
-4.98769e-15
-4.9249e-15
-4.98243e-15
-4.9283e-15
-4.97918e-15
-4.92423e-15
-4.97979e-15
-4.91834e-15
-4.9731e-15
-4.92176e-15
-4.97207e-15
-4.92887e-15
-4.97112e-15
-4.93231e-15
-4.97023e-15
-4.93032e-15
-4.96761e-15
-4.92837e-15
-4.96686e-15
-4.92647e-15
-4.96617e-15
-4.92282e-15
-4.962e-15
-4.92277e-15
-4.95968e-15
-4.92098e-15
-4.96094e-15
-4.91746e-15
-4.96225e-15
-4.91572e-15
-4.96016e-15
-4.91054e-15
-4.95643e-15
-4.90711e-15
-4.9545e-15
-4.91054e-15
-4.95265e-15
-4.91732e-15
-4.94918e-15
-4.92071e-15
-4.94744e-15
-4.92076e-15
-4.94245e-15
-4.91918e-15
-4.94082e-15
-4.91764e-15
-4.93922e-15
-4.91938e-15
-4.93283e-15
-4.92274e-15
-4.92811e-15
-4.92291e-15
-4.9266e-15
-4.92153e-15
-4.92511e-15
-4.92021e-15
-4.92519e-15
-4.91893e-15
-4.92374e-15
-4.9177e-15
-4.92154e-15
-4.91575e-15
-4.92012e-15
-4.9146e-15
-4.91872e-15
-4.91423e-15
-4.92026e-15
-4.91169e-15
-4.92107e-15
-4.90774e-15
-4.91828e-15
-4.90458e-15
-4.91553e-15
-4.90288e-15
-4.917e-15
-4.90262e-15
-4.91709e-15
-4.90168e-15
-4.91785e-15
-4.90076e-15
-4.91793e-15
-4.89785e-15
-4.91802e-15
-4.89431e-15
-4.91877e-15
-4.8928e-15
-4.91886e-15
-4.89324e-15
-4.91959e-15
-4.89303e-15
-4.91907e-15
-4.89221e-15
-4.91794e-15
-4.89139e-15
-4.91805e-15
-4.89181e-15
-4.91875e-15
-4.89281e-15
-4.91887e-15
-4.89144e-15
-4.91898e-15
-4.88894e-15
-4.91909e-15
-4.88874e-15
-4.91921e-15
-4.88855e-15
-4.91878e-15
-4.88726e-15
-4.91836e-15
-4.88598e-15
-4.91849e-15
-4.88579e-15
-4.91887e-15
-4.88688e-15
-4.92001e-15
-4.88643e-15
-4.92014e-15
-4.88597e-15
-4.92002e-15
-4.88553e-15
-4.91967e-15
-4.88556e-15
-4.92027e-15
-4.88535e-15
-4.92087e-15
-4.88492e-15
-4.92077e-15
-4.88449e-15
-4.92069e-15
-4.8845e-15
-4.92017e-15
-4.88451e-15
-4.91967e-15
-4.88472e-15
-4.9196e-15
-4.88534e-15
-4.91953e-15
-4.88595e-15
-4.91906e-15
-4.88554e-15
-4.91861e-15
-4.88495e-15
-4.91913e-15
-4.88455e-15
-4.91944e-15
-4.88435e-15
-4.91976e-15
-4.88396e-15
-4.92007e-15
-4.88321e-15
-4.92038e-15
-4.88274e-15
-4.92078e-15
-4.88253e-15
-4.92091e-15
-4.88216e-15
-4.92113e-15
-4.88135e-15
-4.92118e-15
-4.88089e-15
-4.92148e-15
-4.88043e-15
-4.92179e-15
-4.87989e-15
-4.92217e-15
-4.87959e-15
-4.92231e-15
-4.87938e-15
-4.92254e-15
-4.87916e-15
-4.92302e-15
-4.87886e-15
-4.92333e-15
-4.87855e-15
-4.92356e-15
-4.8784e-15
-4.92376e-15
-4.8783e-15
-4.92396e-15
-4.87802e-15
-4.92416e-15
-4.87769e-15
-4.92428e-15
-4.87749e-15
-4.92441e-15
-4.87741e-15
-4.92454e-15
-4.87733e-15
-4.92472e-15
-4.87724e-15
-4.9249e-15
-4.87711e-15
-4.92499e-15
-4.87702e-15
-4.92504e-15
-4.87697e-15
-4.92509e-15
-4.87684e-15
-4.92512e-15
-4.87672e-15
-4.92518e-15
-4.87668e-15
-4.92524e-15
-4.87665e-15
-4.92525e-15
-4.87659e-15
-4.92524e-15
-4.87655e-15
-4.92522e-15
-4.87653e-15
-4.92525e-15
-4.87652e-15
-4.92525e-15
-4.87647e-15
-4.92527e-15
-4.87645e-15
-4.92526e-15
-4.87643e-15
-4.92526e-15
-4.8764e-15
-4.92529e-15
-4.87638e-15
-4.9253e-15
-4.87637e-15
-4.92531e-15
-4.87635e-15
-4.92531e-15
-4.87634e-15
-4.92532e-15
-4.87633e-15
-4.92533e-15
-4.87633e-15
-6.76497e-15
-6.74744e-15
-6.74178e-15
-6.73529e-15
-6.71943e-15
-6.71785e-15
-6.6947e-15
-6.74044e-15
-6.74734e-15
-6.72339e-15
-6.66702e-15
-6.69632e-15
-6.64782e-15
-6.6251e-15
-6.67485e-15
-6.61523e-15
-6.64733e-15
-6.58992e-15
-6.61084e-15
-6.55189e-15
-6.58537e-15
-6.5237e-15
-6.42889e-15
-6.48114e-15
-6.40148e-15
-6.39709e-15
-6.34808e-15
-6.36049e-15
-6.31529e-15
-6.30385e-15
-6.25854e-15
-6.2442e-15
-6.2001e-15
-6.1776e-15
-6.11639e-15
-6.128e-15
-6.05355e-15
-6.12904e-15
-6.05635e-15
-6.08952e-15
-6.00712e-15
-6.00315e-15
-5.91078e-15
-5.91493e-15
-5.86622e-15
-5.82526e-15
-5.85225e-15
-5.77908e-15
-5.76708e-15
-5.74974e-15
-5.73553e-15
-5.74366e-15
-5.72795e-15
-5.71078e-15
-5.72077e-15
-5.70339e-15
-5.68545e-15
-5.69548e-15
-5.64617e-15
-5.66236e-15
-5.49188e-15
-5.62998e-15
-5.53981e-15
-5.58225e-15
-5.55377e-15
-5.5664e-15
-5.51082e-15
-5.5524e-15
-5.51966e-15
-5.51473e-15
-5.50044e-15
-5.44909e-15
-5.45751e-15
-5.37917e-15
-5.47804e-15
-5.33077e-15
-5.45181e-15
-5.27028e-15
-5.39535e-15
-5.22427e-15
-5.37972e-15
-5.2385e-15
-5.359e-15
-5.25693e-15
-5.28602e-15
-5.22419e-15
-5.24624e-15
-5.20158e-15
-5.22241e-15
-5.23512e-15
-5.21154e-15
-5.22472e-15
-5.21407e-15
-5.1247e-15
-5.20571e-15
-5.10813e-15
-5.2164e-15
-5.08466e-15
-5.15677e-15
-5.02199e-15
-5.14761e-15
-5.02584e-15
-5.15795e-15
-5.00642e-15
-5.158e-15
-5.00897e-15
-5.14808e-15
-5.0341e-15
-5.09627e-15
-5.00608e-15
-5.06302e-15
-4.97116e-15
-5.07907e-15
-4.94539e-15
-5.03748e-15
-4.92908e-15
-5.01443e-15
-4.93956e-15
-4.99275e-15
-4.94699e-15
-4.97111e-15
-4.92049e-15
-4.96552e-15
-4.89138e-15
-4.96088e-15
-4.87532e-15
-4.90989e-15
-4.85637e-15
-4.89091e-15
-4.83538e-15
-4.87224e-15
-4.81208e-15
-4.85401e-15
-4.78633e-15
-4.83641e-15
-4.77419e-15
-4.8354e-15
-4.75987e-15
-4.81936e-15
-4.74304e-15
-4.80453e-15
-4.77196e-15
-4.80579e-15
-4.78329e-15
-4.80674e-15
-4.76923e-15
-4.80793e-15
-4.7459e-15
-4.8098e-15
-4.73711e-15
-4.80428e-15
-4.74266e-15
-4.79932e-15
-4.74657e-15
-4.8029e-15
-4.75738e-15
-4.80679e-15
-4.77523e-15
-4.79437e-15
-4.75107e-15
-4.79034e-15
-4.73388e-15
-4.78657e-15
-4.74006e-15
-4.77472e-15
-4.76181e-15
-4.76239e-15
-4.79154e-15
-4.75721e-15
-4.8135e-15
-4.75888e-15
-4.79499e-15
-4.75117e-15
-4.76862e-15
-4.76734e-15
-4.73405e-15
-4.77494e-15
-4.71536e-15
-4.78249e-15
-4.70393e-15
-4.78195e-15
-4.69127e-15
-4.7817e-15
-4.69386e-15
-4.78164e-15
-4.69536e-15
-4.76518e-15
-4.71239e-15
-4.77332e-15
-4.72044e-15
-4.78128e-15
-4.72782e-15
-4.78908e-15
-4.74285e-15
-4.78012e-15
-4.75738e-15
-4.79552e-15
-4.76337e-15
-4.80234e-15
-4.76905e-15
-4.80887e-15
-4.77436e-15
-4.83162e-15
-4.77103e-15
-4.83781e-15
-4.78357e-15
-4.8439e-15
-4.78732e-15
-4.85817e-15
-4.77406e-15
-4.87259e-15
-4.75599e-15
-4.87505e-15
-4.75751e-15
-4.8697e-15
-4.76218e-15
-4.88918e-15
-4.76191e-15
-4.90083e-15
-4.76888e-15
-4.90881e-15
-4.77495e-15
-4.91719e-15
-4.77607e-15
-4.92603e-15
-4.77224e-15
-4.93131e-15
-4.76753e-15
-4.93712e-15
-4.77405e-15
-4.93941e-15
-4.77969e-15
-4.93817e-15
-4.78046e-15
-4.93339e-15
-4.78444e-15
-4.93707e-15
-4.77965e-15
-4.9332e-15
-4.77812e-15
-4.92976e-15
-4.78387e-15
-4.92668e-15
-4.78498e-15
-4.92789e-15
-4.77359e-15
-4.93339e-15
-4.76157e-15
-4.93533e-15
-4.76071e-15
-4.93765e-15
-4.76704e-15
-4.93643e-15
-4.76879e-15
-4.93946e-15
-4.76213e-15
-4.94284e-15
-4.75485e-15
-4.94661e-15
-4.75857e-15
-4.9469e-15
-4.76935e-15
-4.95136e-15
-4.77187e-15
-4.94852e-15
-4.77002e-15
-4.95362e-15
-4.77145e-15
-4.95524e-15
-4.77615e-15
-4.9647e-15
-4.78034e-15
-4.96507e-15
-4.78028e-15
-4.96017e-15
-4.78722e-15
-4.9667e-15
-4.79557e-15
-4.97162e-15
-4.79241e-15
-4.96764e-15
-4.79071e-15
-4.96395e-15
-4.79594e-15
-4.96053e-15
-4.80078e-15
-4.96095e-15
-4.80167e-15
-4.95622e-15
-4.80584e-15
-4.95171e-15
-4.80969e-15
-4.9474e-15
-4.80973e-15
-4.94505e-15
-4.80954e-15
-4.94111e-15
-4.8126e-15
-4.93561e-15
-4.81025e-15
-4.93199e-15
-4.80943e-15
-4.92681e-15
-4.81356e-15
-4.92685e-15
-4.8158e-15
-4.92195e-15
-4.81785e-15
-4.92051e-15
-4.82141e-15
-4.92081e-15
-4.81985e-15
-4.92119e-15
-4.81817e-15
-4.92002e-15
-4.818e-15
-4.91894e-15
-4.8177e-15
-4.92272e-15
-4.81409e-15
-4.92497e-15
-4.81355e-15
-4.92728e-15
-4.81446e-15
-4.92501e-15
-4.81525e-15
-4.92742e-15
-4.81591e-15
-4.93141e-15
-4.81722e-15
-4.93468e-15
-4.81766e-15
-4.93427e-15
-4.82097e-15
-4.93615e-15
-4.82194e-15
-4.9388e-15
-4.81991e-15
-4.9379e-15
-4.82283e-15
-4.93779e-15
-4.82564e-15
-4.93774e-15
-4.82903e-15
-4.93706e-15
-4.83024e-15
-4.93985e-15
-4.82932e-15
-4.94198e-15
-4.83036e-15
-4.94348e-15
-4.83199e-15
-4.94501e-15
-4.83354e-15
-4.94593e-15
-4.83694e-15
-4.94751e-15
-4.84087e-15
-4.94849e-15
-4.84344e-15
-4.9495e-15
-4.8447e-15
-4.94993e-15
-4.84771e-15
-4.94979e-15
-4.85182e-15
-4.94911e-15
-4.85407e-15
-4.9502e-15
-4.85567e-15
-4.95188e-15
-4.8572e-15
-4.95244e-15
-4.85868e-15
-4.95357e-15
-4.8601e-15
-4.95364e-15
-4.86146e-15
-4.95426e-15
-4.86278e-15
-4.95386e-15
-4.86326e-15
-4.9535e-15
-4.86397e-15
-4.95391e-15
-4.86464e-15
-4.95459e-15
-4.86478e-15
-4.95479e-15
-4.86466e-15
-4.95525e-15
-4.86405e-15
-4.95572e-15
-4.86344e-15
-4.95643e-15
-4.86304e-15
-4.9567e-15
-4.86285e-15
-4.95677e-15
-4.86264e-15
-4.95792e-15
-4.86179e-15
-4.95844e-15
-4.86135e-15
-4.95876e-15
-4.86172e-15
-4.9589e-15
-4.86206e-15
-4.95886e-15
-4.86179e-15
-4.95941e-15
-4.86171e-15
-4.95921e-15
-4.86142e-15
-4.95922e-15
-4.86131e-15
-4.95924e-15
-4.86136e-15
-4.95892e-15
-4.86114e-15
-4.95862e-15
-4.86073e-15
-4.95869e-15
-4.86031e-15
-4.95893e-15
-4.86031e-15
-4.95911e-15
-4.86022e-15
-4.95904e-15
-4.86003e-15
-4.95898e-15
-4.85975e-15
-4.95902e-15
-4.85946e-15
-4.95874e-15
-4.8594e-15
-4.95855e-15
-4.85951e-15
-4.9587e-15
-4.85961e-15
-4.95853e-15
-4.85969e-15
-4.95837e-15
-4.85969e-15
-4.95821e-15
-4.85967e-15
-4.95811e-15
-4.85965e-15
-4.95814e-15
-4.85962e-15
-4.95814e-15
-4.85967e-15
-4.95801e-15
-4.85985e-15
-4.95793e-15
-4.85993e-15
-4.95786e-15
-4.85996e-15
-4.95784e-15
-4.85998e-15
-4.95778e-15
-4.86014e-15
-4.95763e-15
-4.8602e-15
-4.95763e-15
-4.86016e-15
-4.95756e-15
-4.86029e-15
-4.95747e-15
-4.86043e-15
-4.95736e-15
-4.86048e-15
-4.95731e-15
-4.86052e-15
-4.95725e-15
-4.86058e-15
-4.95718e-15
-4.86063e-15
-4.95718e-15
-4.86068e-15
-4.95711e-15
-4.8607e-15
-4.95707e-15
-4.86069e-15
-4.95704e-15
-4.86073e-15
-4.95701e-15
-4.86076e-15
-4.95702e-15
-4.86077e-15
-4.95703e-15
-4.86079e-15
-4.95701e-15
-4.8608e-15
-4.957e-15
-4.86081e-15
-4.957e-15
-4.86082e-15
-4.957e-15
-4.86083e-15
)
;

boundaryField
{
    walls
    {
        type            zeroGradient;
    }
    inlet
    {
        type            cyclic;
    }
    outlet
    {
        type            cyclic;
    }
    sides
    {
        type            empty;
    }
}


// ************************************************************************* //
