/*--------------------------------*- C++ -*----------------------------------*\
| =========                 |                                                 |
| \\      /  F ield         | OpenFOAM: The Open Source CFD Toolbox           |
|  \\    /   O peration     | Version:  2106                                  |
|   \\  /    A nd           | Website:  www.openfoam.com                      |
|    \\/     M anipulation  |                                                 |
\*---------------------------------------------------------------------------*/
FoamFile
{
    version     2.0;
    format      ascii;
    arch        "LSB;label=32;scalar=64";
    class       surfaceScalarField;
    location    "10010";
    object      phi;
}
// * * * * * * * * * * * * * * * * * * * * * * * * * * * * * * * * * * * * * //

dimensions      [0 3 -1 0 0 0 0];

oriented        oriented;

internalField   nonuniform List<scalar> 
3996
(
2.99813e-08
-4.95976e-18
2.28709e-23
-2.41219e-22
9.23361e-23
9.21814e-08
-4.96018e-18
2.6786e-22
-2.6082e-22
1.82537e-22
1.57853e-07
-4.96066e-18
2.84913e-22
-2.67389e-22
1.92902e-22
2.27148e-07
-4.96116e-18
2.92363e-22
-2.55994e-22
2.03831e-22
3.00222e-07
-4.96163e-18
3.01384e-22
-3.37562e-22
2.15353e-22
3.7724e-07
-4.9621e-18
3.11139e-22
-3.76531e-22
2.27496e-22
4.58372e-07
-4.96269e-18
3.20888e-22
-4.42709e-22
2.40291e-22
5.43794e-07
-4.96333e-18
3.30718e-22
-4.38615e-22
2.53774e-22
6.3369e-07
-4.96382e-18
3.40795e-22
-5.49169e-22
2.67974e-22
7.28249e-07
-4.96437e-18
3.51182e-22
-7.23827e-22
2.82929e-22
8.27669e-07
-4.96532e-18
3.61917e-22
-8.81273e-22
2.98677e-22
9.32154e-07
-4.96585e-18
3.73044e-22
-1.05442e-21
3.15253e-22
1.04191e-06
-4.96644e-18
3.84575e-22
-1.27337e-21
3.32693e-22
1.15717e-06
-4.96674e-18
3.96532e-22
-1.58025e-21
3.51036e-22
1.27813e-06
-4.96668e-18
4.08915e-22
-1.71296e-21
3.70321e-22
1.40504e-06
-4.96724e-18
4.2174e-22
-2.21832e-21
3.9057e-22
1.53813e-06
-4.96793e-18
4.35034e-22
-2.40968e-21
4.11807e-22
1.67762e-06
-4.96884e-18
4.48794e-22
-2.50331e-21
4.34043e-22
1.82376e-06
-4.9691e-18
4.6301e-22
-2.87381e-21
4.57293e-22
1.97676e-06
-4.96976e-18
4.77661e-22
-3.27707e-21
4.81556e-22
2.13688e-06
-4.97045e-18
4.92715e-22
-3.29335e-21
5.06819e-22
2.30431e-06
-4.97121e-18
5.08157e-22
-3.79629e-21
5.33052e-22
2.47927e-06
-4.97143e-18
5.2394e-22
-4.46705e-21
5.60207e-22
2.66195e-06
-4.97148e-18
5.39989e-22
-5.27279e-21
5.88228e-22
2.85252e-06
-4.97216e-18
5.562e-22
-5.76843e-21
6.17032e-22
3.05112e-06
-4.97283e-18
5.72474e-22
-6.66392e-21
6.46496e-22
3.25787e-06
-4.97349e-18
5.88708e-22
-7.30447e-21
6.76489e-22
3.47285e-06
-4.97382e-18
6.04793e-22
-8.06165e-21
7.0683e-22
3.6961e-06
-4.97368e-18
6.20556e-22
-9.12463e-21
7.37323e-22
3.92762e-06
-4.97146e-18
6.35847e-22
-1.13647e-20
7.67763e-22
4.16737e-06
-4.97163e-18
6.50441e-22
-1.25838e-20
7.98026e-22
4.41529e-06
-4.97059e-18
6.6438e-22
-1.39683e-20
8.27798e-22
4.67127e-06
-4.97182e-18
6.77457e-22
-1.38317e-20
8.56938e-22
4.93515e-06
-4.97379e-18
6.89579e-22
-1.40683e-20
8.85186e-22
5.20678e-06
-4.97431e-18
7.0079e-22
-1.49865e-20
9.12387e-22
5.48597e-06
-4.97412e-18
7.10919e-22
-1.57679e-20
9.38488e-22
5.77254e-06
-4.97408e-18
7.19968e-22
-1.70512e-20
9.63323e-22
6.06628e-06
-4.97387e-18
7.28063e-22
-1.83957e-20
9.86793e-22
6.36701e-06
-4.97353e-18
7.351e-22
-2.04237e-20
1.00901e-21
6.67455e-06
-4.97231e-18
7.41083e-22
-2.40281e-20
1.03004e-21
6.98874e-06
-4.97261e-18
7.46078e-22
-2.59193e-20
1.05004e-21
7.30944e-06
-4.97246e-18
7.50287e-22
-2.85013e-20
1.06899e-21
7.63655e-06
-4.97542e-18
7.53814e-22
-2.78609e-20
1.0871e-21
7.96998e-06
-4.97794e-18
7.56898e-22
-2.74799e-20
1.10442e-21
8.30966e-06
-4.97674e-18
7.59756e-22
-2.77501e-20
1.12081e-21
8.65557e-06
-4.97822e-18
7.62325e-22
-2.92135e-20
1.13627e-21
9.0077e-06
-4.97822e-18
7.64731e-22
-3.11994e-20
1.15116e-21
9.36607e-06
-4.97911e-18
7.6721e-22
-3.37816e-20
1.16553e-21
9.73073e-06
-4.98069e-18
7.69541e-22
-3.58024e-20
1.1796e-21
1.01017e-05
-4.9785e-18
7.71521e-22
-3.96971e-20
1.19362e-21
1.04792e-05
-4.97819e-18
7.73005e-22
-4.15042e-20
1.20794e-21
1.08632e-05
-4.97628e-18
7.74286e-22
-4.47573e-20
1.22234e-21
1.12538e-05
-4.97926e-18
7.75242e-22
-4.80294e-20
1.23739e-21
1.16513e-05
-4.97739e-18
7.76603e-22
-5.12183e-20
1.25321e-21
1.20557e-05
-4.97466e-18
7.7803e-22
-5.49102e-20
1.26943e-21
1.24672e-05
-4.97369e-18
7.79149e-22
-5.95215e-20
1.28643e-21
1.2886e-05
-4.97527e-18
7.80452e-22
-6.34918e-20
1.30435e-21
1.33122e-05
-4.97301e-18
7.82531e-22
-6.92477e-20
1.32311e-21
1.3746e-05
-4.97191e-18
7.84571e-22
-7.32761e-20
1.34308e-21
1.41877e-05
-4.96954e-18
7.86948e-22
-7.76055e-20
1.36402e-21
1.46375e-05
-4.96825e-18
7.89806e-22
-7.98355e-20
1.3859e-21
1.50955e-05
-4.96943e-18
7.9317e-22
-8.16197e-20
1.40849e-21
1.55619e-05
-4.9638e-18
7.97156e-22
-9.02679e-20
1.43271e-21
1.6037e-05
-4.96478e-18
8.00468e-22
-9.47053e-20
1.45943e-21
1.65211e-05
-4.95881e-18
8.04407e-22
-9.91159e-20
1.48757e-21
1.70142e-05
-4.95851e-18
8.07698e-22
-1.0161e-19
1.5174e-21
1.75168e-05
-4.95457e-18
8.10846e-22
-1.04495e-19
1.54865e-21
1.80289e-05
-4.95585e-18
8.13933e-22
-1.05708e-19
1.58077e-21
1.8551e-05
-4.95704e-18
8.17508e-22
-1.03807e-19
1.61446e-21
1.90831e-05
-4.96155e-18
8.21009e-22
-1.05567e-19
1.64907e-21
1.96256e-05
-4.96394e-18
8.25639e-22
-1.04127e-19
1.68431e-21
2.01787e-05
-4.96507e-18
8.31362e-22
-1.08205e-19
1.7197e-21
2.07426e-05
-4.96613e-18
8.39257e-22
-1.08337e-19
1.75662e-21
2.13178e-05
-4.9713e-18
8.49102e-22
-1.11052e-19
1.79299e-21
2.19043e-05
-4.96965e-18
8.59928e-22
-1.13549e-19
1.83011e-21
2.25025e-05
-4.97218e-18
8.71947e-22
-1.15106e-19
1.86895e-21
2.31128e-05
-4.96932e-18
8.84711e-22
-1.20577e-19
1.90854e-21
2.37353e-05
-4.9656e-18
8.98097e-22
-1.26361e-19
1.9505e-21
2.43703e-05
-4.96385e-18
9.08003e-22
-1.31153e-19
1.99821e-21
2.50182e-05
-4.95966e-18
9.1609e-22
-1.36914e-19
2.04936e-21
2.56793e-05
-4.95835e-18
9.2329e-22
-1.43453e-19
2.10291e-21
2.63538e-05
-4.95376e-18
9.27815e-22
-1.48159e-19
2.16252e-21
2.70421e-05
-4.94229e-18
9.3079e-22
-1.56478e-19
2.22702e-21
2.77445e-05
-4.93804e-18
9.30425e-22
-1.65538e-19
2.29693e-21
2.84613e-05
-4.93175e-18
9.29434e-22
-1.72705e-19
2.3721e-21
2.91929e-05
-4.93217e-18
9.2675e-22
-1.78029e-19
2.45084e-21
2.99396e-05
-4.93666e-18
9.24937e-22
-1.82208e-19
2.53088e-21
3.07017e-05
-4.92974e-18
9.26006e-22
-1.91826e-19
2.61445e-21
3.14796e-05
-4.91801e-18
9.25185e-22
-1.99054e-19
2.70338e-21
3.22736e-05
-4.91458e-18
9.19985e-22
-2.06531e-19
2.7974e-21
3.30841e-05
-4.90237e-18
9.10923e-22
-2.20475e-19
2.89514e-21
3.39115e-05
-4.90804e-18
8.92718e-22
-2.22259e-19
3.00145e-21
3.47562e-05
-4.90367e-18
8.79901e-22
-2.19297e-19
3.10633e-21
3.56185e-05
-4.91443e-18
8.63192e-22
-2.10838e-19
3.21039e-21
3.64988e-05
-4.9126e-18
8.55283e-22
-2.16945e-19
3.3132e-21
3.73975e-05
-4.91518e-18
8.43704e-22
-2.1597e-19
3.41794e-21
3.8315e-05
-4.91485e-18
8.33468e-22
-2.1954e-19
3.52154e-21
3.92518e-05
-4.90798e-18
8.20971e-22
-2.23667e-19
3.6292e-21
4.02083e-05
-4.91527e-18
7.97908e-22
-2.23962e-19
3.73816e-21
4.11849e-05
-4.90398e-18
7.77463e-22
-2.36254e-19
3.84677e-21
4.2182e-05
-4.89712e-18
7.48632e-22
-2.34599e-19
3.95684e-21
4.32001e-05
-4.88937e-18
7.16626e-22
-2.4231e-19
4.05611e-21
4.42396e-05
-4.87519e-18
6.78614e-22
-2.52998e-19
4.1507e-21
4.5301e-05
-4.86588e-18
6.32619e-22
-2.7004e-19
4.24683e-21
4.63849e-05
-4.85844e-18
5.9027e-22
-2.82126e-19
4.33826e-21
4.74916e-05
-4.84775e-18
5.38398e-22
-2.93217e-19
4.42142e-21
4.86217e-05
-4.83137e-18
4.77759e-22
-3.11148e-19
4.5044e-21
4.97756e-05
-4.81594e-18
4.0344e-22
-3.19551e-19
4.58926e-21
5.09539e-05
-4.81527e-18
3.19385e-22
-3.38342e-19
4.66536e-21
5.21572e-05
-4.80711e-18
2.3175e-22
-3.45655e-19
4.7403e-21
5.33859e-05
-4.80196e-18
1.24352e-22
-3.50468e-19
4.81582e-21
5.46406e-05
-4.80024e-18
1.68143e-23
-3.60434e-19
4.87936e-21
5.59219e-05
-4.79553e-18
-9.68022e-23
-3.68875e-19
4.93867e-21
5.72303e-05
-4.7826e-18
-2.04575e-22
-3.89639e-19
4.98455e-21
5.85663e-05
-4.77246e-18
-3.20394e-22
-4.03529e-19
5.02277e-21
5.99307e-05
-4.7625e-18
-4.40708e-22
-4.17027e-19
5.05024e-21
6.1324e-05
-4.73988e-18
-5.55307e-22
-4.58088e-19
5.06889e-21
6.27468e-05
-4.70465e-18
-6.84718e-22
-4.74379e-19
5.11675e-21
6.41998e-05
-4.69503e-18
-8.54116e-22
-4.91058e-19
5.16405e-21
6.56836e-05
-4.6938e-18
-1.01535e-21
-5.03593e-19
5.1932e-21
6.71988e-05
-4.67699e-18
-1.18658e-21
-5.22772e-19
5.22624e-21
6.87461e-05
-4.67669e-18
-1.34806e-21
-5.36863e-19
5.25448e-21
7.03262e-05
-4.66121e-18
-1.51084e-21
-5.43719e-19
5.28307e-21
7.19398e-05
-4.65441e-18
-1.6877e-21
-5.66675e-19
5.31093e-21
7.35877e-05
-4.62886e-18
-1.83697e-21
-5.96876e-19
5.32961e-21
7.52704e-05
-4.59595e-18
-2.01257e-21
-6.23456e-19
5.3538e-21
7.69889e-05
-4.56366e-18
-2.24344e-21
-6.42894e-19
5.36137e-21
7.87437e-05
-4.5564e-18
-2.4897e-21
-6.5258e-19
5.3249e-21
8.05358e-05
-4.54179e-18
-2.71991e-21
-6.8296e-19
5.24871e-21
8.23658e-05
-4.51491e-18
-2.91955e-21
-7.07746e-19
5.19031e-21
8.42347e-05
-4.48812e-18
-3.13563e-21
-7.23662e-19
5.15927e-21
8.61431e-05
-4.45714e-18
-3.37304e-21
-7.47484e-19
5.11003e-21
8.8092e-05
-4.44683e-18
-3.64233e-21
-7.54219e-19
5.05121e-21
9.00821e-05
-4.39728e-18
-3.915e-21
-7.86334e-19
4.98014e-21
9.21145e-05
-4.39098e-18
-4.23191e-21
-7.9775e-19
4.92541e-21
9.41898e-05
-4.37623e-18
-4.53923e-21
-8.24357e-19
4.83817e-21
9.63092e-05
-4.352e-18
-4.87676e-21
-8.57275e-19
4.72998e-21
9.84733e-05
-4.31484e-18
-5.21986e-21
-8.91955e-19
4.61723e-21
0.000100683
-4.29177e-18
-5.56143e-21
-9.27327e-19
4.51892e-21
0.00010294
-4.25795e-18
-5.90926e-21
-9.38557e-19
4.40941e-21
0.000105245
-4.22624e-18
-6.32171e-21
-9.73392e-19
4.22612e-21
0.000107598
-4.19358e-18
-6.73979e-21
-1.00305e-18
4.01291e-21
0.000110001
-4.16008e-18
-7.16601e-21
-1.04748e-18
3.79919e-21
0.000112455
-4.12922e-18
-7.55922e-21
-1.08088e-18
3.63741e-21
0.000114961
-4.10691e-18
-7.93696e-21
-1.09449e-18
3.48517e-21
0.00011752
-4.0677e-18
-8.23637e-21
-1.12685e-18
3.30516e-21
0.000120132
-4.02968e-18
-8.50761e-21
-1.15987e-18
3.09464e-21
0.0001228
-3.99354e-18
-8.81274e-21
-1.19661e-18
2.8544e-21
0.000125525
-3.93223e-18
-9.10414e-21
-1.22734e-18
2.60749e-21
0.000128307
-3.8531e-18
-9.41845e-21
-1.25271e-18
2.38045e-21
0.000131147
-3.82061e-18
-9.80796e-21
-1.30521e-18
2.1375e-21
0.000134048
-3.77652e-18
-1.01655e-20
-1.33013e-18
1.91675e-21
0.00013701
-3.75232e-18
-1.06131e-20
-1.34198e-18
1.55688e-21
0.000140034
-3.70684e-18
-1.09193e-20
-1.37747e-18
1.04104e-21
0.000143122
-3.61637e-18
-1.11449e-20
-1.39057e-18
4.91007e-22
0.000146275
-3.58431e-18
-1.16577e-20
-1.41573e-18
3.53429e-23
0.000149494
-3.53693e-18
-1.20306e-20
-1.43997e-18
-4.23665e-22
0.000152782
-3.50787e-18
-1.25328e-20
-1.45732e-18
-1.03776e-21
0.000156138
-3.44964e-18
-1.29638e-20
-1.47143e-18
-1.66281e-21
0.000159565
-3.40301e-18
-1.34493e-20
-1.49231e-18
-2.33222e-21
0.000163065
-3.35103e-18
-1.39561e-20
-1.52666e-18
-3.14007e-21
0.000166637
-3.30983e-18
-1.43583e-20
-1.53645e-18
-3.95349e-21
0.000170285
-3.25678e-18
-1.47764e-20
-1.55668e-18
-4.41163e-21
0.00017401
-3.21475e-18
-1.51075e-20
-1.56274e-18
-4.67717e-21
0.000177812
-3.15284e-18
-1.56174e-20
-1.55863e-18
-4.96903e-21
0.000181695
-3.12161e-18
-1.6285e-20
-1.56884e-18
-5.4564e-21
0.000185659
-3.0681e-18
-1.67755e-20
-1.59268e-18
-6.11275e-21
0.000189706
-3.01923e-18
-1.71604e-20
-1.58566e-18
-6.64433e-21
0.000193838
-2.96577e-18
-1.73369e-20
-1.63568e-18
-7.30371e-21
0.000198056
-2.90215e-18
-1.74108e-20
-1.64286e-18
-8.00416e-21
0.000202363
-2.85754e-18
-1.75624e-20
-1.70368e-18
-8.80755e-21
0.00020676
-2.78417e-18
-1.75236e-20
-1.69274e-18
-9.18508e-21
0.000211249
-2.76342e-18
-1.78902e-20
-1.72435e-18
-9.7221e-21
0.000215832
-2.73855e-18
-1.82434e-20
-1.70087e-18
-1.00899e-20
0.00022051
-2.69957e-18
-1.87028e-20
-1.69358e-18
-1.05984e-20
0.000225286
-2.63287e-18
-1.92874e-20
-1.69656e-18
-1.11041e-20
0.000230162
-2.60508e-18
-2.01725e-20
-1.68808e-18
-1.14382e-20
0.000235139
-2.55523e-18
-2.08484e-20
-1.68539e-18
-1.17566e-20
0.00024022
-2.53825e-18
-2.15508e-20
-1.67629e-18
-1.17869e-20
0.000245407
-2.58034e-18
-2.20859e-20
-1.66937e-18
-1.21516e-20
0.000250702
-2.46736e-18
-2.12314e-20
-1.70125e-18
-1.32126e-20
0.000256107
-2.42816e-18
-2.09281e-20
-1.73929e-18
-1.42736e-20
0.000261625
-2.37014e-18
-2.0395e-20
-1.79754e-18
-1.56984e-20
0.000267256
-2.34738e-18
-2.06489e-20
-1.81425e-18
-1.62468e-20
0.000273005
-2.31355e-18
-2.03055e-20
-1.83255e-18
-1.79823e-20
0.000278873
-2.28158e-18
-1.96514e-20
-1.8935e-18
-2.00236e-20
0.000284862
-2.24108e-18
-2.00827e-20
-1.88854e-18
-2.09345e-20
0.000290976
-2.21614e-18
-2.01514e-20
-1.94089e-18
-2.27165e-20
0.000297215
-2.20157e-18
-1.97675e-20
-1.9416e-18
-2.33093e-20
0.000303584
-2.17283e-18
-1.9081e-20
-1.93803e-18
-2.39083e-20
0.000310084
-2.06572e-18
-1.825e-20
-2.00753e-18
-2.41518e-20
0.000316718
-2.09499e-18
-1.89415e-20
-2.00362e-18
-2.36912e-20
0.000323489
-2.06314e-18
-1.98628e-20
-1.95343e-18
-2.15782e-20
0.000330398
-2.03752e-18
-2.08945e-20
-1.96248e-18
-2.16636e-20
0.00033745
-1.9982e-18
-2.11445e-20
-1.91844e-18
-2.19459e-20
0.000344647
-2.02419e-18
-2.16367e-20
-1.93226e-18
-2.3167e-20
0.000351991
-1.9513e-18
-2.14475e-20
-1.89785e-18
-2.36264e-20
0.000359485
-1.96316e-18
-2.20932e-20
-1.87347e-18
-2.57753e-20
0.000367133
-1.90456e-18
-2.03664e-20
-1.84697e-18
-2.71425e-20
0.000374937
-1.81407e-18
-2.10472e-20
-1.80467e-18
-2.7704e-20
0.0003829
-1.78263e-18
-2.3369e-20
-1.76637e-18
-2.82309e-20
0.000391025
-1.732e-18
-2.39317e-20
-1.71284e-18
-2.85331e-20
0.000399315
-1.70532e-18
-2.38678e-20
-1.67712e-18
-3.251e-20
0.000407773
-1.59125e-18
-2.41188e-20
-1.66188e-18
-3.44787e-20
0.000416403
-1.51994e-18
-2.32382e-20
-1.62094e-18
-3.53647e-20
0.000425207
-1.51293e-18
-2.40203e-20
-1.58312e-18
-3.41538e-20
0.000434189
-1.44394e-18
-2.48492e-20
-1.55858e-18
-3.49688e-20
0.000443352
-1.48927e-18
-2.73515e-20
-1.4303e-18
-3.46387e-20
0.000452699
-1.4293e-18
-2.5672e-20
-1.40223e-18
-3.46331e-20
0.000462234
-1.36526e-18
-2.36753e-20
-1.36647e-18
-3.30636e-20
0.000471959
-1.32584e-18
-2.15273e-20
-1.32619e-18
-3.02009e-20
0.000481878
-1.30321e-18
-2.13146e-20
-1.28399e-18
-2.89464e-20
0.000491995
-1.30544e-18
-2.23879e-20
-1.36132e-18
-2.78287e-20
0.000502313
-1.30237e-18
-2.78909e-20
-1.20639e-18
-2.62378e-20
0.000512836
-1.21879e-18
-3.19485e-20
-1.20981e-18
-2.91834e-20
0.000523566
-1.33603e-18
-3.77338e-20
-1.22661e-18
-3.31212e-20
0.000534507
-1.34777e-18
-3.94628e-20
-1.25355e-18
-3.17351e-20
0.000545664
-1.25801e-18
-3.20197e-20
-1.31189e-18
-3.2662e-20
0.000557038
-1.27785e-18
-3.13829e-20
-1.33934e-18
-3.32107e-20
0.000568634
-1.37943e-18
-3.18496e-20
-1.2887e-18
-3.20175e-20
0.000580454
-1.261e-18
-2.66212e-20
-1.2569e-18
-3.57407e-20
0.000592503
-1.2598e-18
-2.73841e-20
-1.30291e-18
-4.40959e-20
0.000604784
-1.3035e-18
-2.97981e-20
-1.29391e-18
-4.16734e-20
0.0006173
-1.20338e-18
-3.31119e-20
-1.21883e-18
-3.77761e-20
0.000630054
-1.1968e-18
-3.44339e-20
-1.23896e-18
-3.45754e-20
0.000643049
-1.24018e-18
-3.78534e-20
-1.26647e-18
-3.31411e-20
0.000656289
-1.25766e-18
-4.01337e-20
-1.14147e-18
-3.29635e-20
0.000669777
-1.21828e-18
-3.57566e-20
-1.1873e-18
-3.65229e-20
0.000683515
-1.21162e-18
-3.33231e-20
-1.19535e-18
-3.40722e-20
0.000697506
-1.12005e-18
-3.20612e-20
-1.10882e-18
-3.59304e-20
0.000711752
-1.12517e-18
-3.96481e-20
-1.1337e-18
-4.55224e-20
0.000726257
-1.00613e-18
-3.26682e-20
-1.19878e-18
-5.62206e-20
0.000741022
-9.6916e-19
-3.03566e-20
-1.2273e-18
-5.08133e-20
0.000756048
-9.63564e-19
-3.17809e-20
-1.23515e-18
-4.00369e-20
0.000771338
-9.10505e-19
-2.2436e-20
-1.35276e-18
-2.82028e-20
0.000786893
-1.01868e-18
-3.18701e-20
-1.18591e-18
-4.53552e-22
0.000802713
-1.10505e-18
-3.99067e-20
-1.02882e-18
4.4964e-21
0.000818798
-1.09937e-18
-3.37802e-20
-1.06595e-18
1.26916e-21
0.000835149
-1.15264e-18
-4.36464e-20
-1.05267e-18
-5.46824e-22
0.000851765
-1.24906e-18
-5.73602e-20
-1.09586e-18
-1.81183e-20
0.000868645
-1.27452e-18
-5.16314e-20
-1.03133e-18
-2.54975e-20
0.000885786
-1.17097e-18
-3.79425e-20
-1.02365e-18
-2.99937e-20
0.000903185
-1.12537e-18
-3.04655e-20
-9.82485e-19
-3.94869e-20
0.000920839
-1.07234e-18
-2.58281e-20
-9.62652e-19
-4.12783e-20
0.000938744
-1.02086e-18
-2.06442e-20
-1.02197e-18
-3.87545e-20
0.000956893
-8.38116e-19
-2.20097e-20
-1.1321e-18
-1.85834e-20
0.000975281
-1.03175e-18
-2.43607e-20
-9.54361e-19
-4.43591e-21
0.000993901
-9.83287e-19
-2.20088e-21
-1.00851e-18
-8.6745e-21
0.00101274
-9.30155e-19
2.28846e-20
-9.08338e-19
1.14354e-20
0.0010318
2.95283e-20
-7.53456e-19
1.22697e-20
-1.00831e-18
2.99813e-08
2.65317e-23
8.76678e-23
9.21814e-08
3.29419e-22
2.6303e-22
1.57853e-07
5.92044e-22
4.76719e-22
2.27148e-07
8.69703e-22
7.00359e-22
3.00222e-07
1.1984e-21
9.03381e-22
3.7724e-07
1.53321e-21
1.0823e-21
4.58372e-07
1.96609e-21
1.37038e-21
5.43794e-07
2.35867e-21
1.54878e-21
6.3369e-07
2.80418e-21
1.77271e-21
7.28249e-07
3.18398e-21
2.03837e-21
8.27669e-07
3.8399e-21
2.28962e-21
9.32154e-07
4.22887e-21
2.4874e-21
1.04191e-06
4.50052e-21
2.88714e-21
1.15717e-06
4.52931e-21
3.37239e-21
1.27813e-06
5.17581e-21
3.91873e-21
1.40504e-06
5.94222e-21
4.2349e-21
1.53813e-06
6.36523e-21
4.47526e-21
1.67762e-06
6.49532e-21
5.05116e-21
1.82376e-06
7.155e-21
5.3843e-21
1.97676e-06
7.42268e-21
5.54831e-21
2.13688e-06
8.38818e-21
6.23458e-21
2.30431e-06
9.23634e-21
6.66952e-21
2.47927e-06
1.00802e-20
7.12278e-21
2.66195e-06
1.08001e-20
7.57209e-21
2.85252e-06
1.13966e-20
8.26879e-21
3.05112e-06
1.22123e-20
8.81846e-21
3.25787e-06
1.34788e-20
9.28373e-21
3.47285e-06
1.4114e-20
9.71872e-21
3.6961e-06
1.50436e-20
1.0182e-20
3.92762e-06
1.62327e-20
1.13086e-20
4.16737e-06
1.90474e-20
1.04541e-20
4.41529e-06
2.07487e-20
1.12491e-20
4.67127e-06
2.05234e-20
1.20047e-20
4.93515e-06
2.15473e-20
1.2517e-20
5.20678e-06
2.14129e-20
1.3825e-20
5.48597e-06
2.30083e-20
1.38032e-20
5.77254e-06
2.67255e-20
1.25102e-20
6.06628e-06
2.80142e-20
1.30806e-20
6.36701e-06
2.83873e-20
1.36888e-20
6.67455e-06
2.94934e-20
1.52277e-20
6.98874e-06
3.08495e-20
1.59979e-20
7.30944e-06
3.1744e-20
1.69747e-20
7.63655e-06
3.12282e-20
2.08534e-20
7.96998e-06
3.24318e-20
2.18391e-20
8.30966e-06
3.45094e-20
2.19337e-20
8.65557e-06
3.45366e-20
2.39673e-20
9.0077e-06
3.85462e-20
2.36582e-20
9.36607e-06
3.92287e-20
2.36312e-20
9.73073e-06
3.73109e-20
2.5685e-20
1.01017e-05
3.69529e-20
2.7603e-20
1.04792e-05
3.7758e-20
2.79159e-20
1.08632e-05
3.80358e-20
3.11025e-20
1.12538e-05
3.88564e-20
3.34389e-20
1.16513e-05
3.97935e-20
3.33057e-20
1.20557e-05
3.81065e-20
3.59028e-20
1.24672e-05
3.90505e-20
3.6444e-20
1.2886e-05
4.30318e-20
3.57832e-20
1.33122e-05
4.40385e-20
3.65147e-20
1.3746e-05
4.57957e-20
3.74095e-20
1.41877e-05
4.7942e-20
3.86392e-20
1.46375e-05
4.90381e-20
3.94473e-20
1.50955e-05
5.02136e-20
4.49248e-20
1.55619e-05
5.03858e-20
5.05934e-20
1.6037e-05
5.33356e-20
5.27068e-20
1.65211e-05
5.48945e-20
5.34037e-20
1.70142e-05
5.56126e-20
5.43425e-20
1.75168e-05
6.03806e-20
5.07414e-20
1.80289e-05
6.27743e-20
5.02754e-20
1.8551e-05
6.02338e-20
5.18508e-20
1.90831e-05
5.87809e-20
5.40285e-20
1.96256e-05
5.69338e-20
5.44049e-20
2.01787e-05
5.9645e-20
5.60291e-20
2.07426e-05
6.03271e-20
5.52979e-20
2.13178e-05
5.27507e-20
5.66191e-20
2.19043e-05
5.55855e-20
5.89136e-20
2.25025e-05
5.53171e-20
5.94966e-20
2.31128e-05
6.29911e-20
5.86848e-20
2.37353e-05
5.77621e-20
6.25891e-20
2.43703e-05
5.64955e-20
6.26171e-20
2.50182e-05
6.029e-20
6.35364e-20
2.56793e-05
5.59074e-20
7.19492e-20
2.63538e-05
5.73567e-20
7.55185e-20
2.70421e-05
5.8669e-20
7.95746e-20
2.77445e-05
6.27379e-20
8.29816e-20
2.84613e-05
6.43825e-20
8.59761e-20
2.91929e-05
6.9153e-20
8.41552e-20
2.99396e-05
7.86446e-20
8.98845e-20
3.07017e-05
8.45999e-20
9.61572e-20
3.14796e-05
8.69837e-20
1.03083e-19
3.22736e-05
8.21589e-20
1.06849e-19
3.30841e-05
7.16731e-20
1.15708e-19
3.39115e-05
7.94118e-20
1.10982e-19
3.47562e-05
7.28932e-20
1.12032e-19
3.56185e-05
7.98062e-20
1.18513e-19
3.64988e-05
7.23131e-20
1.24186e-19
3.73975e-05
7.50321e-20
1.29258e-19
3.8315e-05
7.38136e-20
1.37484e-19
3.92518e-05
6.40652e-20
1.41687e-19
4.02083e-05
6.76927e-20
1.44922e-19
4.11849e-05
6.85201e-20
1.42797e-19
4.2182e-05
7.20351e-20
1.39625e-19
4.32001e-05
7.02152e-20
1.37495e-19
4.42396e-05
7.19963e-20
1.46964e-19
4.5301e-05
8.66802e-20
1.47686e-19
4.63849e-05
7.93607e-20
1.45217e-19
4.74916e-05
7.73153e-20
1.5024e-19
4.86217e-05
7.44714e-20
1.55743e-19
4.97756e-05
7.73204e-20
1.58868e-19
5.09539e-05
7.55405e-20
1.55193e-19
5.21572e-05
6.22884e-20
1.62339e-19
5.33859e-05
7.05743e-20
1.62998e-19
5.46406e-05
6.74989e-20
1.71032e-19
5.59219e-05
7.73123e-20
1.73386e-19
5.72303e-05
7.6614e-20
1.76284e-19
5.85663e-05
7.89135e-20
1.79461e-19
5.99307e-05
9.30401e-20
1.82102e-19
6.1324e-05
9.73271e-20
1.89809e-19
6.27468e-05
8.5518e-20
1.89097e-19
6.41998e-05
9.40721e-20
1.74677e-19
6.56836e-05
8.31875e-20
1.8717e-19
6.71988e-05
1.0298e-19
1.95386e-19
6.87461e-05
9.10199e-20
2.12982e-19
7.03262e-05
8.30733e-20
2.333e-19
7.19398e-05
9.46667e-20
2.399e-19
7.35877e-05
8.10487e-20
2.55911e-19
7.52704e-05
6.08161e-20
2.58166e-19
7.69889e-05
7.3919e-20
2.50967e-19
7.87437e-05
7.93493e-20
2.65294e-19
8.05358e-05
9.67188e-20
2.81458e-19
8.23658e-05
9.91572e-20
2.9274e-19
8.42347e-05
9.9301e-20
2.99874e-19
8.61431e-05
9.15554e-20
3.11262e-19
8.8092e-05
7.35266e-20
3.19203e-19
9.00821e-05
7.03618e-20
3.04613e-19
9.21145e-05
5.52577e-20
3.04694e-19
9.41898e-05
3.28139e-20
3.11191e-19
9.63092e-05
3.08584e-20
3.10474e-19
9.84733e-05
4.88014e-20
3.04532e-19
0.000100683
5.25903e-20
2.88178e-19
0.00010294
3.42367e-20
2.85708e-19
0.000105245
3.36013e-20
2.8057e-19
0.000107598
2.89761e-20
2.83821e-19
0.000110001
3.24805e-20
2.93019e-19
0.000112455
2.37646e-20
2.96821e-19
0.000114961
2.80638e-20
2.99243e-19
0.00011752
2.81072e-20
2.84125e-19
0.000120132
8.83104e-21
2.77803e-19
0.0001228
8.3516e-21
2.7177e-19
0.000125525
1.82666e-20
2.69168e-19
0.000128307
1.95364e-20
2.58955e-19
0.000131147
1.04703e-20
2.54391e-19
0.000134048
-1.03042e-20
2.49099e-19
0.00013701
9.51446e-21
2.3708e-19
0.000140034
3.86096e-20
2.01882e-19
0.000143122
2.08583e-20
2.08219e-19
0.000146275
3.51997e-20
1.99611e-19
0.000149494
-2.78168e-21
1.77922e-19
0.000152782
-1.43632e-20
1.81078e-19
0.000156138
-2.28799e-20
1.57698e-19
0.000159565
-3.09812e-20
1.35802e-19
0.000163065
-6.88733e-21
1.24995e-19
0.000166637
-9.89979e-21
1.62986e-19
0.000170285
2.25715e-20
1.70265e-19
0.00017401
-5.46401e-21
1.6452e-19
0.000177812
-1.55719e-20
1.52336e-19
0.000181695
-1.14973e-20
1.44489e-19
0.000185659
-1.01463e-21
1.28943e-19
0.000189706
1.45326e-20
1.0621e-19
0.000193838
1.52998e-20
8.27461e-20
0.000198056
9.70068e-21
7.65837e-20
0.000202363
2.17435e-20
7.14781e-20
0.00020676
-1.45413e-20
7.92898e-20
0.000211249
-3.01638e-20
8.08078e-20
0.000215832
-5.96811e-20
7.95735e-20
0.00022051
-8.99978e-20
6.59856e-20
0.000225286
-1.08015e-19
5.946e-20
0.000230162
-1.02109e-19
3.53946e-20
0.000235139
-9.32404e-20
3.24756e-20
0.00024022
-1.15733e-19
1.0989e-20
0.000245407
-9.57253e-20
-1.34686e-20
0.000250702
-9.16848e-20
1.54221e-20
0.000256107
-7.85476e-20
-1.35731e-20
0.000261625
-1.28791e-19
4.67687e-20
0.000267256
-8.65116e-20
2.61475e-21
0.000273005
-4.23656e-20
-2.84919e-20
0.000278873
-1.06852e-19
-3.95532e-20
0.000284862
-7.29743e-20
-8.73617e-20
0.000290976
-5.08577e-20
-2.86804e-20
0.000297215
-4.02145e-20
-5.60704e-20
0.000303584
-4.36247e-20
-5.56905e-20
0.000310084
-8.98011e-20
-9.88256e-20
0.000316718
-1.77421e-19
-1.62408e-20
0.000323489
-1.88659e-19
-8.69893e-20
0.000330398
-1.5801e-19
-6.80796e-20
0.00033745
-1.77478e-19
-7.31994e-20
0.000344647
-1.99342e-19
-9.05608e-20
0.000351991
-1.99119e-19
-1.57549e-19
0.000359485
-1.38012e-19
-1.01781e-19
0.000367133
-2.33385e-19
-8.7666e-20
0.000374937
-2.46456e-19
-1.35282e-19
0.0003829
-1.90299e-19
-1.60907e-19
0.000391025
-1.88994e-19
-2.80817e-19
0.000399315
-2.38166e-19
-2.2418e-19
0.000407773
-1.36026e-19
-2.74749e-19
0.000416403
-1.95309e-19
-2.46331e-19
0.000425207
-2.45799e-19
-3.14878e-19
0.000434189
-3.08174e-19
-2.54358e-19
0.000443352
-2.86247e-19
-1.9317e-19
0.000452699
-2.74799e-19
-2.11563e-19
0.000462234
-2.71993e-19
-2.56943e-19
0.000471959
-3.33538e-19
-3.38018e-19
0.000481878
-3.68286e-19
-2.97129e-19
0.000491995
-5.22854e-19
-3.48184e-19
0.000502313
-5.08637e-19
-3.0972e-19
0.000512836
-4.95474e-19
-3.80397e-19
0.000523566
-5.2076e-19
-3.55748e-19
0.000534507
-3.0486e-19
-4.52337e-19
0.000545664
-3.51003e-19
-4.72821e-19
0.000557038
-3.79484e-19
-4.55691e-19
0.000568634
-3.63343e-19
-4.51301e-19
0.000580454
-3.82803e-19
-4.93412e-19
0.000592503
-4.55909e-19
-4.08769e-19
0.000604784
-5.43493e-19
-4.05516e-19
0.0006173
-4.05906e-19
-3.20353e-19
0.000630054
-4.557e-19
-3.94125e-19
0.000643049
-5.10721e-19
-4.59359e-19
0.000656289
-4.55688e-19
-4.78131e-19
0.000669777
-4.87867e-19
-5.01711e-19
0.000683515
-5.26524e-19
-5.09437e-19
0.000697506
-5.6147e-19
-5.13543e-19
0.000711752
-3.20252e-19
-5.64523e-19
0.000726257
-2.30263e-19
-3.20202e-19
0.000741022
-2.61518e-19
-2.75503e-19
0.000756048
-1.45036e-19
-3.2491e-19
0.000771338
-2.80501e-19
-2.05708e-19
0.000786893
-3.45215e-19
-3.10465e-19
0.000802713
-2.95356e-19
-3.20893e-19
0.000818798
-4.6793e-19
-3.66402e-19
0.000835149
-5.59445e-19
-4.92635e-19
0.000851765
-5.30045e-19
-4.967e-19
0.000868645
-5.70848e-19
-5.70404e-19
0.000885786
-5.77299e-19
-6.59346e-19
0.000903185
-6.01541e-19
-5.40491e-19
0.000920839
-6.17821e-19
-6.0171e-19
0.000938744
-6.66834e-19
-5.76714e-19
0.000956893
-4.79505e-19
-6.88898e-19
0.000975281
-5.09881e-19
-6.57571e-19
0.000993901
-5.18837e-19
-5.71694e-19
0.00101274
-6.24472e-19
-6.21186e-19
0.0010318
-8.1638e-19
-6.67989e-19
0.0010318
-9.61721e-19
-1.12844e-20
-8.44859e-19
2.31883e-20
0.00101274
-8.86562e-19
-7.89509e-21
-7.98649e-19
8.01325e-21
0.000993901
-8.57417e-19
-8.00916e-21
-8.30329e-19
-1.53484e-23
0.000975281
-8.05269e-19
-1.20139e-20
-7.03271e-19
2.46889e-21
0.000956893
-8.33906e-19
7.45754e-21
-6.78279e-19
-1.80828e-20
0.000938744
-6.91641e-19
9.53459e-21
-8.501e-19
-1.73927e-20
0.000920839
-8.58315e-19
2.80452e-21
-8.63417e-19
-1.50688e-21
0.000903185
-8.10351e-19
1.86603e-20
-8.83411e-19
7.36146e-21
0.000885786
-8.22331e-19
1.51142e-20
-8.61146e-19
1.80347e-20
0.000868645
-8.71697e-19
1.52638e-20
-8.61332e-19
2.13379e-20
0.000851765
-8.42367e-19
1.91529e-20
-8.4494e-19
1.82693e-20
0.000835149
-8.29853e-19
5.65686e-21
-8.48242e-19
1.46272e-20
0.000818798
-7.46181e-19
8.76512e-21
-8.45308e-19
8.73157e-21
0.000802713
-7.96198e-19
1.20679e-21
-6.91527e-19
1.39e-20
0.000786893
-7.14226e-19
1.18638e-21
-6.92284e-19
4.28415e-23
0.000771338
-7.26196e-19
-3.56727e-21
-6.60208e-19
-1.29035e-20
0.000756048
-7.22882e-19
-2.15928e-21
-7.2619e-19
-2.32643e-20
0.000741022
-7.2913e-19
1.89998e-21
-7.16095e-19
-1.7932e-20
0.000726257
-7.7036e-19
5.64613e-21
-6.20766e-19
-7.63958e-21
0.000711752
-6.58563e-19
1.60489e-20
-6.33796e-19
-8.29707e-21
0.000697506
-4.92175e-19
1.95792e-20
-8.06122e-19
-1.0319e-20
0.000683515
-5.40045e-19
6.55486e-21
-6.63079e-19
-5.64603e-21
0.000669777
-5.52846e-19
7.39398e-22
-5.88739e-19
-5.45607e-21
0.000656289
-5.26386e-19
-1.92013e-21
-3.82739e-19
5.38107e-21
0.000643049
-4.93389e-19
-9.06324e-21
-3.72153e-19
4.60911e-21
0.000630054
-4.4952e-19
-8.12006e-21
-4.91319e-19
-5.89131e-22
0.0006173
-3.8545e-19
-7.17432e-21
-5.10701e-19
-6.98256e-22
0.000604784
-4.82823e-19
-9.30109e-21
-6.21623e-19
-2.16626e-22
0.000592503
-5.48856e-19
-1.14566e-20
-5.01592e-19
3.19079e-21
0.000580454
-4.46467e-19
-1.08033e-20
-5.2569e-19
1.4126e-21
0.000568633
-5.83639e-19
-2.15347e-20
-4.45902e-19
5.08218e-22
0.000557038
-5.57315e-19
-9.31527e-21
-4.13385e-19
-3.07544e-21
0.000545664
-4.58232e-19
-3.85512e-21
-4.80531e-19
-6.11542e-21
0.000534507
-4.45618e-19
-4.18031e-21
-4.76726e-19
-3.47089e-21
0.000523566
-4.61991e-19
-1.06406e-21
-4.67129e-19
-2.5017e-21
0.000512836
-4.60785e-19
1.84383e-21
-4.4984e-19
-3.11567e-21
0.000502313
-3.92509e-19
5.40973e-21
-5.10155e-19
-4.26122e-21
0.000491995
-4.70542e-19
5.5983e-21
-4.85182e-19
-5.15157e-21
0.000481878
-4.47469e-19
6.86048e-21
-5.03699e-19
-7.03286e-21
0.000471959
-4.33694e-19
4.10539e-21
-3.83903e-19
-6.08639e-21
0.000462234
-4.15754e-19
2.94971e-21
-4.02209e-19
-6.72276e-21
0.000452699
-4.19917e-19
3.28518e-21
-4.14793e-19
-4.54513e-21
0.000443352
-2.82815e-19
3.76328e-21
-4.11614e-19
-4.18171e-21
0.000434189
-3.41816e-19
1.37869e-21
-3.0782e-19
-3.00535e-21
0.000425207
-3.5509e-19
2.09295e-22
-3.39154e-19
-2.45598e-21
0.000416403
-3.48645e-19
-1.28465e-21
-3.37883e-19
-1.50823e-21
0.000407773
-2.91698e-19
-4.19081e-22
-3.44699e-19
-4.63665e-21
0.000399315
-2.72334e-19
-6.0798e-22
-3.37716e-19
-5.60405e-21
0.000391025
-2.80934e-19
1.05373e-21
-3.3344e-19
-6.47995e-21
0.0003829
-2.75286e-19
1.8958e-22
-3.18758e-19
-8.27e-21
0.000374937
-2.20961e-19
1.27809e-21
-3.20833e-19
-7.71903e-21
0.000367133
-3.27435e-19
7.98839e-22
-2.2618e-19
-5.86885e-21
0.000359485
-3.09288e-19
2.38572e-21
-2.32188e-19
-6.16633e-21
0.000351991
-2.97592e-19
2.81075e-21
-2.02899e-19
-5.53867e-21
0.000344647
-2.00599e-19
2.40732e-21
-2.93898e-19
-6.37116e-21
0.00033745
-2.07453e-19
1.46127e-21
-3.42787e-19
-4.57251e-21
0.000330398
-1.53683e-19
2.24348e-21
-2.47038e-19
-1.21153e-21
0.000323489
-1.43668e-19
1.26294e-21
-1.54574e-19
3.0564e-22
0.000316718
-1.27088e-19
9.45221e-22
-1.55888e-19
2.13676e-22
0.000310084
-1.57272e-19
7.01523e-22
-1.66432e-19
1.9591e-22
0.000303584
-1.10993e-19
9.94418e-22
-2.06324e-19
-1.52419e-22
0.000297215
-1.65371e-19
7.8195e-22
-1.37962e-19
-4.59683e-23
0.000290976
-1.79568e-19
1.37719e-21
-1.65046e-19
-7.20046e-22
0.000284862
-1.97388e-19
1.08129e-21
-9.81657e-20
-6.24819e-22
0.000278873
-1.87984e-19
1.29442e-21
-8.38333e-20
-1.29085e-21
0.000273005
-2.00108e-19
1.11702e-21
-1.1735e-19
-1.3319e-21
0.000267256
-1.62565e-19
1.03615e-21
-9.65139e-20
-8.12499e-22
0.000261625
-1.36941e-19
5.90459e-22
-9.72707e-20
-3.91288e-22
0.000256107
-1.59788e-19
1.51501e-22
-9.04088e-20
-6.30609e-22
0.000250702
-9.3587e-20
4.00239e-22
-1.35483e-19
-1.05508e-21
0.000245407
-9.08221e-20
5.56981e-22