/*--------------------------------*- C++ -*----------------------------------*\
| =========                 |                                                 |
| \\      /  F ield         | OpenFOAM: The Open Source CFD Toolbox           |
|  \\    /   O peration     | Version:  2106                                  |
|   \\  /    A nd           | Website:  www.openfoam.com                      |
|    \\/     M anipulation  |                                                 |
\*---------------------------------------------------------------------------*/
FoamFile
{
    version     2.0;
    format      ascii;
    arch        "LSB;label=32;scalar=64";
    class       volSymmTensorField;
    location    "10010";
    object      turbulenceProperties:R;
}
// * * * * * * * * * * * * * * * * * * * * * * * * * * * * * * * * * * * * * //

dimensions      [0 2 -2 0 0 0 0];

internalField   nonuniform List<symmTensor> 
2000
(
(2.278e-07 -1.50642e-11 -2.78809e-14 2.278e-07 4.3437e-27 2.278e-07)
(2.278e-07 -1.50642e-11 -2.78809e-14 2.278e-07 2.33723e-30 2.278e-07)
(3.94496e-08 -1.5028e-11 -8.39665e-14 3.94496e-08 -1.04222e-26 3.94496e-08)
(3.94496e-08 -1.5028e-11 -8.39665e-14 3.94496e-08 2.67146e-31 3.94496e-08)
(5.41147e-08 -6.10362e-11 -4.73178e-13 5.41147e-08 -4.38237e-27 5.41147e-08)
(5.41147e-08 -6.10362e-11 -4.73178e-13 5.41147e-08 -6.33827e-30 5.41147e-08)
(1.68325e-07 -4.04243e-10 -3.19236e-12 1.68325e-07 3.24288e-26 1.68325e-07)
(1.68325e-07 -4.04243e-10 -3.19236e-12 1.68325e-07 -3.71868e-29 1.68325e-07)
(4.35121e-07 -1.8513e-09 -1.48929e-11 4.35121e-07 -7.88987e-26 4.35121e-07)
(4.35121e-07 -1.8513e-09 -1.48929e-11 4.35121e-07 -6.40376e-29 4.35121e-07)
(9.34639e-07 -6.28742e-09 -5.15234e-11 9.34639e-07 -6.46744e-25 9.34639e-07)
(9.34639e-07 -6.28742e-09 -5.15234e-11 9.34639e-07 5.43313e-30 9.34639e-07)
(1.76443e-06 -1.73887e-08 -1.45155e-10 1.76443e-06 -1.95114e-24 1.76443e-06)
(1.76443e-06 -1.73887e-08 -1.45155e-10 1.76443e-06 -5.00303e-28 1.76443e-06)
(3.03867e-06 -4.15521e-08 -3.53334e-10 3.03867e-06 -4.78941e-24 3.03867e-06)
(3.03867e-06 -4.15521e-08 -3.53334e-10 3.03867e-06 -1.6478e-27 3.03867e-06)
(4.8888e-06 -8.90761e-08 -7.71584e-10 4.8888e-06 -1.06316e-23 4.8888e-06)
(4.8888e-06 -8.90761e-08 -7.71584e-10 4.8888e-06 -1.60781e-27 4.8888e-06)
(7.46456e-06 -1.75631e-07 -1.54971e-09 7.46456e-06 -2.14838e-23 7.46456e-06)
(7.46456e-06 -1.75631e-07 -1.54971e-09 7.46456e-06 1.18485e-26 7.46456e-06)
(1.09352e-05 -3.24056e-07 -2.9127e-09 1.09352e-05 -4.05938e-23 1.09352e-05)
(1.09352e-05 -3.24056e-07 -2.9127e-09 1.09352e-05 5.34129e-26 1.09352e-05)
(1.54905e-05 -5.6651e-07 -5.18688e-09 1.54905e-05 -7.26657e-23 1.54905e-05)
(1.54905e-05 -5.6651e-07 -5.18688e-09 1.54905e-05 2.663e-26 1.54905e-05)
(2.13426e-05 -9.47017e-07 -8.83233e-09 2.13426e-05 -1.24236e-22 2.13426e-05)
(2.13426e-05 -9.47017e-07 -8.83233e-09 2.13426e-05 -1.03055e-25 2.13426e-05)
(2.87263e-05 -1.52439e-06 -1.4482e-08 2.87263e-05 -2.04416e-22 2.87263e-05)
(2.87263e-05 -1.52439e-06 -1.4482e-08 2.87263e-05 -1.39334e-25 2.87263e-05)
(3.79008e-05 -2.37554e-06 -2.2988e-08 3.79008e-05 -3.25214e-22 3.79008e-05)
(3.79008e-05 -2.37554e-06 -2.2988e-08 3.79008e-05 4.20508e-25 3.79008e-05)
(4.91499e-05 -3.5991e-06 -3.54758e-08 4.91499e-05 -5.02079e-22 4.91499e-05)
(4.91499e-05 -3.5991e-06 -3.54758e-08 4.91499e-05 1.14832e-24 4.91499e-05)
(6.27826e-05 -5.31923e-06 -5.34043e-08 6.27826e-05 -7.55635e-22 6.27826e-05)
(6.27826e-05 -5.31923e-06 -5.34043e-08 6.27826e-05 6.55143e-25 6.27826e-05)
(7.91325e-05 -7.68948e-06 -7.86324e-08 7.91325e-05 -1.11205e-21 7.91325e-05)
(7.91325e-05 -7.68948e-06 -7.86324e-08 7.91325e-05 6.58655e-25 7.91325e-05)
(9.85567e-05 -1.08964e-05 -1.13488e-07 9.85567e-05 -1.60188e-21 9.85567e-05)
(9.85567e-05 -1.08964e-05 -1.13488e-07 9.85567e-05 4.60676e-24 9.85567e-05)
(0.000121434 -1.51624e-05 -1.60834e-07 0.000121434 -2.26042e-21 0.000121434)
(0.000121434 -1.51624e-05 -1.60834e-07 0.000121434 7.63735e-24 0.000121434)
(0.00014816 -2.0748e-05 -2.24133e-07 0.00014816 -3.12856e-21 0.00014816)
(0.00014816 -2.0748e-05 -2.24133e-07 0.00014816 2.18834e-24 0.00014816)
(0.000179145 -2.79513e-05 -3.07489e-07 0.000179145 -4.26055e-21 0.000179145)
(0.000179145 -2.79513e-05 -3.07489e-07 0.000179145 2.83228e-24 0.000179145)
(0.000214803 -3.71068e-05 -4.15673e-07 0.000214803 -5.70168e-21 0.000214803)
(0.000214803 -3.71068e-05 -4.15673e-07 0.000214803 1.41565e-23 0.000214803)
(0.000255548 -4.85798e-05 -5.54107e-07 0.000255548 -7.48031e-21 0.000255548)
(0.000255548 -4.85798e-05 -5.54107e-07 0.000255548 2.20595e-23 0.000255548)
(0.000301777 -6.27582e-05 -7.28811e-07 0.000301777 -9.64934e-21 0.000301777)
(0.000301777 -6.27582e-05 -7.28811e-07 0.000301777 4.22752e-23 0.000301777)
(0.000353864 -8.00401e-05 -9.46293e-07 0.000353864 -1.22481e-20 0.000353864)
(0.000353864 -8.00401e-05 -9.46293e-07 0.000353864 5.37898e-23 0.000353864)
(0.000412141 -0.000100818 -1.21338e-06 0.000412141 -1.52823e-20 0.000412141)
(0.000412141 -0.000100818 -1.21338e-06 0.000412141 4.7424e-23 0.000412141)
(0.000476883 -0.00012546 -1.53698e-06 0.000476883 -1.87737e-20 0.000476883)
(0.000476883 -0.00012546 -1.53698e-06 0.000476883 9.60728e-23 0.000476883)
(0.000548294 -0.000154288 -1.92383e-06 0.000548294 -2.26231e-20 0.000548294)
(0.000548294 -0.000154288 -1.92383e-06 0.000548294 1.57116e-22 0.000548294)
(0.000626492 -0.000187557 -2.38017e-06 0.000626492 -2.67446e-20 0.000626492)
(0.000626492 -0.000187557 -2.38017e-06 0.000626492 1.71578e-22 0.000626492)
(0.000711494 -0.000225431 -2.91143e-06 0.000711494 -3.12238e-20 0.000711494)
(0.000711494 -0.000225431 -2.91143e-06 0.000711494 2.58415e-22 0.000711494)
(0.000803207 -0.000267972 -3.52193e-06 0.000803207 -3.58604e-20 0.000803207)
(0.000803207 -0.000267972 -3.52193e-06 0.000803207 2.67988e-22 0.000803207)
(0.000901426 -0.000315126 -4.21465e-06 0.000901426 -4.01747e-20 0.000901426)
(0.000901426 -0.000315126 -4.21465e-06 0.000901426 3.56705e-22 0.000901426)
(0.00100583 -0.000366717 -4.99102e-06 0.00100583 -4.45053e-20 0.00100583)
(0.00100583 -0.000366717 -4.99102e-06 0.00100583 6.88419e-22 0.00100583)
(0.00111598 -0.000422455 -5.8509e-06 0.00111598 -4.85721e-20 0.00111598)
(0.00111598 -0.000422455 -5.8509e-06 0.00111598 7.36638e-22 0.00111598)
(0.00123135 -0.000481946 -6.79255e-06 0.00123135 -5.21386e-20 0.00123135)
(0.00123135 -0.000481946 -6.79255e-06 0.00123135 8.42765e-22 0.00123135)
(0.00135131 -0.000544708 -7.81282e-06 0.00135131 -5.52352e-20 0.00135131)
(0.00135131 -0.000544708 -7.81282e-06 0.00135131 9.97121e-22 0.00135131)
(0.0014752 -0.000610196 -8.9073e-06 0.0014752 -5.77984e-20 0.0014752)
(0.0014752 -0.000610196 -8.9073e-06 0.0014752 1.22335e-21 0.0014752)
(0.00160228 -0.000677829 -1.00706e-05 0.00160228 -5.98591e-20 0.00160228)
(0.00160228 -0.000677829 -1.00706e-05 0.00160228 1.53044e-21 0.00160228)
(0.00173179 -0.000747008 -1.12967e-05 0.00173179 -6.10249e-20 0.00173179)
(0.00173179 -0.000747008 -1.12967e-05 0.00173179 6.25526e-22 0.00173179)
(0.001863 -0.000817146 -1.25791e-05 0.001863 -6.25798e-20 0.001863)
(0.001863 -0.000817146 -1.25791e-05 0.001863 4.44209e-22 0.001863)
(0.00199516 -0.000887683 -1.39113e-05 0.00199516 -6.31562e-20 0.00199516)
(0.00199516 -0.000887683 -1.39113e-05 0.00199516 2.24958e-21 0.00199516)
(0.00212758 -0.000958103 -1.52867e-05 0.00212758 -6.22645e-20 0.00212758)
(0.00212758 -0.000958103 -1.52867e-05 0.00212758 4.35669e-21 0.00212758)
(0.00225959 -0.00102794 -1.66993e-05 0.00225959 -6.37282e-20 0.00225959)
(0.00225959 -0.00102794 -1.66993e-05 0.00225959 5.60793e-21 0.00225959)
(0.00239061 -0.0010968 -1.81434e-05 0.00239061 -6.49084e-20 0.00239061)
(0.00239061 -0.0010968 -1.81434e-05 0.00239061 4.54059e-21 0.00239061)
(0.0025201 -0.00116433 -1.96137e-05 0.0025201 -6.51258e-20 0.0025201)
(0.0025201 -0.00116433 -1.96137e-05 0.0025201 3.73456e-21 0.0025201)
(0.00264759 -0.00123026 -2.11058e-05 0.00264759 -6.68566e-20 0.00264759)
(0.00264759 -0.00123026 -2.11058e-05 0.00264759 2.02487e-21 0.00264759)
(0.00277269 -0.00129437 -2.26156e-05 0.00277269 -6.87637e-20 0.00277269)
(0.00277269 -0.00129437 -2.26156e-05 0.00277269 -9.84952e-22 0.00277269)
(0.00289505 -0.00135648 -2.41398e-05 0.00289505 -7.22449e-20 0.00289505)
(0.00289505 -0.00135648 -2.41398e-05 0.00289505 3.06547e-21 0.00289505)
(0.00301439 -0.00141647 -2.56757e-05 0.00301439 -7.65723e-20 0.00301439)
(0.00301439 -0.00141647 -2.56757e-05 0.00301439 9.60717e-21 0.00301439)
(0.00313051 -0.00147427 -2.72209e-05 0.00313051 -8.04019e-20 0.00313051)
(0.00313051 -0.00147427 -2.72209e-05 0.00313051 9.80713e-21 0.00313051)
(0.00324324 -0.00152983 -2.87738e-05 0.00324324 -8.73765e-20 0.00324324)
(0.00324324 -0.00152983 -2.87738e-05 0.00324324 5.02349e-21 0.00324324)
(0.00335247 -0.00158314 -3.03329e-05 0.00335247 -9.57102e-20 0.00335247)
(0.00335247 -0.00158314 -3.03329e-05 0.00335247 5.13229e-21 0.00335247)
(0.0034581 -0.0016342 -3.18974e-05 0.0034581 -1.04019e-19 0.0034581)
(0.0034581 -0.0016342 -3.18974e-05 0.0034581 1.15673e-20 0.0034581)
(0.00356011 -0.00168304 -3.34665e-05 0.00356011 -1.09843e-19 0.00356011)
(0.00356011 -0.00168304 -3.34665e-05 0.00356011 1.25562e-20 0.00356011)
(0.00365848 -0.0017297 -3.50399e-05 0.00365848 -1.20152e-19 0.00365848)
(0.00365848 -0.0017297 -3.50399e-05 0.00365848 7.41653e-21 0.00365848)
(0.00375324 -0.00177425 -3.66176e-05 0.00375324 -1.35352e-19 0.00375324)
(0.00375324 -0.00177425 -3.66176e-05 0.00375324 3.54564e-21 0.00375324)
(0.00384441 -0.00181675 -3.81996e-05 0.00384441 -1.46574e-19 0.00384441)
(0.00384441 -0.00181675 -3.81996e-05 0.00384441 9.91313e-21 0.00384441)
(0.00393206 -0.00185726 -3.97861e-05 0.00393206 -1.58068e-19 0.00393206)
(0.00393206 -0.00185726 -3.97861e-05 0.00393206 2.50006e-20 0.00393206)
(0.00401624 -0.00189586 -4.13775e-05 0.00401624 -1.70314e-19 0.00401624)
(0.00401624 -0.00189586 -4.13775e-05 0.00401624 3.76556e-20 0.00401624)
(0.00409706 -0.00193263 -4.29743e-05 0.00409706 -1.82152e-19 0.00409706)
(0.00409706 -0.00193263 -4.29743e-05 0.00409706 3.35969e-20 0.00409706)
(0.00417458 -0.00196765 -4.4577e-05 0.00417458 -2.03726e-19 0.00417458)
(0.00417458 -0.00196765 -4.4577e-05 0.00417458 1.66039e-20 0.00417458)
(0.00424892 -0.00200099 -4.61864e-05 0.00424892 -2.16816e-19 0.00424892)
(0.00424892 -0.00200099 -4.61864e-05 0.00424892 1.50972e-20 0.00424892)
(0.00432017 -0.00203272 -4.78031e-05 0.00432017 -2.34403e-19 0.00432017)
(0.00432017 -0.00203272 -4.78031e-05 0.00432017 3.24161e-20 0.00432017)
(0.00438842 -0.00206293 -4.94279e-05 0.00438842 -2.5542e-19 0.00438842)
(0.00438842 -0.00206293 -4.94279e-05 0.00438842 4.0462e-20 0.00438842)
(0.0044538 -0.00209169 -5.10614e-05 0.0044538 -2.77401e-19 0.0044538)
(0.0044538 -0.00209169 -5.10614e-05 0.0044538 5.40483e-20 0.0044538)
(0.00451639 -0.00211905 -5.27046e-05 0.00451639 -3.04108e-19 0.00451639)
(0.00451639 -0.00211905 -5.27046e-05 0.00451639 7.17278e-20 0.00451639)
(0.00457631 -0.00214511 -5.43581e-05 0.00457631 -3.33079e-19 0.00457631)
(0.00457631 -0.00214511 -5.43581e-05 0.00457631 6.85594e-20 0.00457631)
(0.00463366 -0.00216991 -5.60229e-05 0.00463366 -3.47262e-19 0.00463366)
(0.00463366 -0.00216991 -5.60229e-05 0.00463366 7.43478e-20 0.00463366)
(0.00468853 -0.00219351 -5.76997e-05 0.00468853 -3.60088e-19 0.00468853)
(0.00468853 -0.00219351 -5.76997e-05 0.00468853 7.87145e-20 0.00468853)
(0.00474103 -0.00221599 -5.93894e-05 0.00474103 -3.9055e-19 0.00474103)
(0.00474103 -0.00221599 -5.93894e-05 0.00474103 6.63874e-20 0.00474103)
(0.00479125 -0.00223739 -6.10927e-05 0.00479125 -4.13167e-19 0.00479125)
(0.00479125 -0.00223739 -6.10927e-05 0.00479125 6.12544e-20 0.00479125)
(0.00483928 -0.00225776 -6.28105e-05 0.00483928 -4.33543e-19 0.00483928)
(0.00483928 -0.00225776 -6.28105e-05 0.00483928 1.06762e-19 0.00483928)
(0.00488521 -0.00227716 -6.45435e-05 0.00488521 -3.23252e-19 0.00488521)
(0.00488521 -0.00227716 -6.45435e-05 0.00488521 1.50667e-19 0.00488521)
(0.00492913 -0.00229564 -6.62926e-05 0.00492913 -9.59796e-20 0.00492913)
(0.00492913 -0.00229564 -6.62926e-05 0.00492913 1.04124e-19 0.00492913)
(0.00497112 -0.00231323 -6.80586e-05 0.00497112 -5.90551e-20 0.00497112)
(0.00497112 -0.00231323 -6.80586e-05 0.00497112 7.7283e-20 0.00497112)
(0.00501127 -0.00232998 -6.98422e-05 0.00501127 -9.12545e-20 0.00501127)
(0.00501127 -0.00232998 -6.98422e-05 0.00501127 1.073e-19 0.00501127)
(0.00504964 -0.00234593 -7.16442e-05 0.00504964 -9.60899e-20 0.00504964)
(0.00504964 -0.00234593 -7.16442e-05 0.00504964 1.29476e-19 0.00504964)
(0.0050863 -0.00236112 -7.34654e-05 0.0050863 -8.38696e-20 0.0050863)
(0.0050863 -0.00236112 -7.34654e-05 0.0050863 1.25559e-19 0.0050863)
(0.00512134 -0.00237559 -7.53064e-05 0.00512134 -1.32655e-19 0.00512134)
(0.00512134 -0.00237559 -7.53064e-05 0.00512134 9.78319e-20 0.00512134)
(0.0051548 -0.00238936 -7.71681e-05 0.0051548 -1.86032e-19 0.0051548)
(0.0051548 -0.00238936 -7.71681e-05 0.0051548 7.41036e-20 0.0051548)
(0.00518677 -0.00240247 -7.90512e-05 0.00518677 -1.91387e-19 0.00518677)
(0.00518677 -0.00240247 -7.90512e-05 0.00518677 7.26884e-20 0.00518677)
(0.00521729 -0.00241495 -8.09564e-05 0.00521729 -1.52113e-19 0.00521729)
(0.00521729 -0.00241495 -8.09564e-05 0.00521729 1.06437e-19 0.00521729)
(0.00524642 -0.00242682 -8.28844e-05 0.00524642 -1.79703e-19 0.00524642)
(0.00524642 -0.00242682 -8.28844e-05 0.00524642 1.28385e-19 0.00524642)
(0.00527423 -0.00243811 -8.48359e-05 0.00527423 -2.20964e-19 0.00527423)
(0.00527423 -0.00243811 -8.48359e-05 0.00527423 1.25496e-19 0.00527423)
(0.00530075 -0.00244886 -8.68116e-05 0.00530075 -2.20464e-19 0.00530075)
(0.00530075 -0.00244886 -8.68116e-05 0.00530075 1.50968e-19 0.00530075)
(0.00532604 -0.00245907 -8.88123e-05 0.00532604 -2.8161e-19 0.00532604)
(0.00532604 -0.00245907 -8.88123e-05 0.00532604 2.20855e-19 0.00532604)
(0.00535015 -0.00246877 -9.08384e-05 0.00535015 -3.38804e-19 0.00535015)
(0.00535015 -0.00246877 -9.08384e-05 0.00535015 2.28658e-19 0.00535015)
(0.00537311 -0.00247799 -9.28909e-05 0.00537311 -3.29675e-19 0.00537311)
(0.00537311 -0.00247799 -9.28909e-05 0.00537311 1.85438e-19 0.00537311)
(0.00539498 -0.00248674 -9.49703e-05 0.00539498 -3.44734e-19 0.00539498)
(0.00539498 -0.00248674 -9.49703e-05 0.00539498 2.14367e-19 0.00539498)
(0.00541579 -0.00249504 -9.70772e-05 0.00541579 -2.67945e-19 0.00541579)
(0.00541579 -0.00249504 -9.70772e-05 0.00541579 2.27262e-19 0.00541579)
(0.00543558 -0.0025029 -9.92124e-05 0.00543558 -3.63484e-19 0.00543558)
(0.00543558 -0.0025029 -9.92124e-05 0.00543558 2.51673e-19 0.00543558)
(0.00545438 -0.00251035 -0.000101376 0.00545438 -2.90225e-19 0.00545438)
(0.00545438 -0.00251035 -0.000101376 0.00545438 3.58474e-19 0.00545438)
(0.00547223 -0.0025174 -0.00010357 0.00547223 -2.14579e-19 0.00547223)
(0.00547223 -0.0025174 -0.00010357 0.00547223 4.27869e-19 0.00547223)
(0.00548916 -0.00252407 -0.000105794 0.00548916 -3.83904e-19 0.00548916)
(0.00548916 -0.00252407 -0.000105794 0.00548916 3.56373e-19 0.00548916)
(0.0055052 -0.00253036 -0.000108048 0.0055052 -4.22724e-19 0.0055052)
(0.0055052 -0.00253036 -0.000108048 0.0055052 3.1786e-19 0.0055052)
(0.00552039 -0.00253629 -0.000110334 0.00552039 -4.58102e-19 0.00552039)
(0.00552039 -0.00253629 -0.000110334 0.00552039 3.74844e-19 0.00552039)
(0.00553474 -0.00254187 -0.000112652 0.00553474 -4.12119e-19 0.00553474)
(0.00553474 -0.00254187 -0.000112652 0.00553474 3.61436e-19 0.00553474)
(0.00554828 -0.00254711 -0.000115003 0.00554828 -4.95783e-19 0.00554828)
(0.00554828 -0.00254711 -0.000115003 0.00554828 3.82974e-19 0.00554828)
(0.00556104 -0.00255203 -0.000117386 0.00556104 -5.7473e-19 0.00556104)
(0.00556104 -0.00255203 -0.000117386 0.00556104 3.91942e-19 0.00556104)
(0.00557304 -0.00255662 -0.000119804 0.00557304 -5.01114e-19 0.00557304)
(0.00557304 -0.00255662 -0.000119804 0.00557304 4.10663e-19 0.00557304)
(0.00558431 -0.00256092 -0.000122256 0.00558431 -5.98572e-19 0.00558431)
(0.00558431 -0.00256092 -0.000122256 0.00558431 4.7337e-19 0.00558431)
(0.00559486 -0.00256491 -0.000124743 0.00559486 -6.56084e-19 0.00559486)
(0.00559486 -0.00256491 -0.000124743 0.00559486 5.4711e-19 0.00559486)
(0.00560471 -0.00256861 -0.000127266 0.00560471 -6.13638e-19 0.00560471)
(0.00560471 -0.00256861 -0.000127266 0.00560471 5.6046e-19 0.00560471)
(0.00561388 -0.00257203 -0.000129825 0.00561388 -7.36313e-19 0.00561388)
(0.00561388 -0.00257203 -0.000129825 0.00561388 5.60915e-19 0.00561388)
(0.0056224 -0.00257518 -0.000132421 0.0056224 -8.13891e-19 0.0056224)
(0.0056224 -0.00257518 -0.000132421 0.0056224 6.43827e-19 0.0056224)
(0.00563026 -0.00257805 -0.000135054 0.00563026 -7.86759e-19 0.00563026)
(0.00563026 -0.00257805 -0.000135054 0.00563026 6.47713e-19 0.00563026)
(0.0056375 -0.00258066 -0.000137725 0.0056375 -6.13601e-19 0.0056375)
(0.0056375 -0.00258066 -0.000137725 0.0056375 7.28619e-19 0.0056375)
(0.00564413 -0.00258302 -0.000140435 0.00564413 -8.85062e-19 0.00564413)
(0.00564413 -0.00258302 -0.000140435 0.00564413 7.34478e-19 0.00564413)
(0.00565016 -0.00258513 -0.000143183 0.00565016 -1.0398e-18 0.00565016)
(0.00565016 -0.00258513 -0.000143183 0.00565016 7.77859e-19 0.00565016)
(0.0056556 -0.00258699 -0.000145972 0.0056556 -1.04544e-18 0.0056556)
(0.0056556 -0.00258699 -0.000145972 0.0056556 9.59209e-19 0.0056556)
(0.00566046 -0.00258861 -0.0001488 0.00566046 -1.07018e-18 0.00566046)
(0.00566046 -0.00258861 -0.0001488 0.00566046 9.7009e-19 0.00566046)
(0.00566477 -0.00258999 -0.000151669 0.00566477 -1.16348e-18 0.00566477)
(0.00566477 -0.00258999 -0.000151669 0.00566477 9.96217e-19 0.00566477)
(0.00566852 -0.00259114 -0.000154579 0.00566852 -1.11797e-18 0.00566852)
(0.00566852 -0.00259114 -0.000154579 0.00566852 1.08577e-18 0.00566852)
(0.00567173 -0.00259206 -0.000157531 0.00567173 -1.15262e-18 0.00567173)
(0.00567173 -0.00259206 -0.000157531 0.00567173 1.18903e-18 0.00567173)
(0.00567441 -0.00259276 -0.000160525 0.00567441 -1.35417e-18 0.00567441)
(0.00567441 -0.00259276 -0.000160525 0.00567441 1.23966e-18 0.00567441)
(0.00567656 -0.00259324 -0.000163562 0.00567656 -1.70382e-18 0.00567656)
(0.00567656 -0.00259324 -0.000163562 0.00567656 1.03285e-18 0.00567656)
(0.0056782 -0.0025935 -0.000166641 0.0056782 -1.17748e-18 0.0056782)
(0.0056782 -0.0025935 -0.000166641 0.0056782 1.25815e-18 0.0056782)
(0.00567933 -0.00259354 -0.000169765 0.00567933 -8.37778e-19 0.00567933)
(0.00567933 -0.00259354 -0.000169765 0.00567933 1.69223e-18 0.00567933)
(0.00567997 -0.00259337 -0.000172933 0.00567997 -1.74434e-18 0.00567997)
(0.00567997 -0.00259337 -0.000172933 0.00567997 1.66615e-18 0.00567997)
(0.00568011 -0.00259299 -0.000176145 0.00568011 -1.76853e-18 0.00568011)
(0.00568011 -0.00259299 -0.000176145 0.00568011 1.58647e-18 0.00568011)
(0.00567977 -0.0025924 -0.000179402 0.00567977 -1.54849e-18 0.00567977)
(0.00567977 -0.0025924 -0.000179402 0.00567977 1.77189e-18 0.00567977)
(0.00567895 -0.00259161 -0.000182705 0.00567895 -1.80919e-18 0.00567895)
(0.00567895 -0.00259161 -0.000182705 0.00567895 2.02477e-18 0.00567895)
(0.00567765 -0.00259061 -0.000186053 0.00567765 -2.11986e-18 0.00567765)
(0.00567765 -0.00259061 -0.000186053 0.00567765 1.92795e-18 0.00567765)
(0.00567588 -0.00258941 -0.000189448 0.00567588 -2.42351e-18 0.00567588)
(0.00567588 -0.00258941 -0.000189448 0.00567588 1.90272e-18 0.00567588)
(0.00567365 -0.00258801 -0.000192889 0.00567365 -2.37408e-18 0.00567365)
(0.00567365 -0.00258801 -0.000192889 0.00567365 2.02898e-18 0.00567365)
(0.00567096 -0.0025864 -0.000196377 0.00567096 -1.8874e-18 0.00567096)
(0.00567096 -0.0025864 -0.000196377 0.00567096 2.45824e-18 0.00567096)
(0.00566781 -0.0025846 -0.000199913 0.00566781 -1.77832e-18 0.00566781)
(0.00566781 -0.0025846 -0.000199913 0.00566781 2.84744e-18 0.00566781)
(0.00566421 -0.00258259 -0.000203496 0.00566421 -2.33821e-18 0.00566421)
(0.00566421 -0.00258259 -0.000203496 0.00566421 2.59709e-18 0.00566421)
(0.00566016 -0.00258039 -0.000207127 0.00566016 -2.45885e-18 0.00566016)
(0.00566016 -0.00258039 -0.000207127 0.00566016 2.61518e-18 0.00566016)
(0.00565566 -0.00257799 -0.000210807 0.00565566 -2.65037e-18 0.00565566)
(0.00565566 -0.00257799 -0.000210807 0.00565566 2.90417e-18 0.00565566)
(0.00565072 -0.0025754 -0.000214535 0.00565072 -2.62497e-18 0.00565072)
(0.00565072 -0.0025754 -0.000214535 0.00565072 3.23673e-18 0.00565072)
(0.00564533 -0.0025726 -0.000218311 0.00564533 -3.50909e-18 0.00564533)
(0.00564533 -0.0025726 -0.000218311 0.00564533 3.46807e-18 0.00564533)
(0.0056395 -0.00256961 -0.000222137 0.0056395 -2.92587e-18 0.0056395)
(0.0056395 -0.00256961 -0.000222137 0.0056395 3.21754e-18 0.0056395)
(0.00563324 -0.00256642 -0.000226011 0.00563324 -2.19216e-18 0.00563324)
(0.00563324 -0.00256642 -0.000226011 0.00563324 3.54601e-18 0.00563324)
(0.00562654 -0.00256304 -0.000229935 0.00562654 -3.75946e-18 0.00562654)
(0.00562654 -0.00256304 -0.000229935 0.00562654 4.0792e-18 0.00562654)
(0.0056194 -0.00255946 -0.000233908 0.0056194 -3.69301e-18 0.0056194)
(0.0056194 -0.00255946 -0.000233908 0.0056194 4.11449e-18 0.0056194)
(0.00561182 -0.00255568 -0.000237931 0.00561182 -3.22706e-18 0.00561182)
(0.00561182 -0.00255568 -0.000237931 0.00561182 4.29845e-18 0.00561182)
(0.00560381 -0.00255169 -0.000242003 0.00560381 -3.57147e-18 0.00560381)
(0.00560381 -0.00255169 -0.000242003 0.00560381 4.82001e-18 0.00560381)
(0.00559536 -0.00254751 -0.000246125 0.00559536 -3.81842e-18 0.00559536)
(0.00559536 -0.00254751 -0.000246125 0.00559536 6.0221e-18 0.00559536)
(0.00558648 -0.00254313 -0.000250297 0.00558648 -3.61567e-18 0.00558648)
(0.00558648 -0.00254313 -0.000250297 0.00558648 5.50332e-18 0.00558648)
(0.00557717 -0.00253855 -0.000254517 0.00557717 -3.98452e-18 0.00557717)
(0.00557717 -0.00253855 -0.000254517 0.00557717 5.77706e-18 0.00557717)
(0.00556742 -0.00253377 -0.000258788 0.00556742 -4.40261e-18 0.00556742)
(0.00556742 -0.00253377 -0.000258788 0.00556742 6.24151e-18 0.00556742)
(0.00555723 -0.00252878 -0.000263107 0.00555723 -3.71356e-18 0.00555723)
(0.00555723 -0.00252878 -0.000263107 0.00555723 6.58529e-18 0.00555723)
(0.0055466 -0.00252359 -0.000267476 0.0055466 -4.7837e-18 0.0055466)
(0.0055466 -0.00252359 -0.000267476 0.0055466 7.06536e-18 0.0055466)
(0.00553554 -0.00251819 -0.000271893 0.00553554 -4.75958e-18 0.00553554)
(0.00553554 -0.00251819 -0.000271893 0.00553554 7.30546e-18 0.00553554)
(0.00552403 -0.00251258 -0.000276359 0.00552403 -4.08261e-18 0.00552403)
(0.00552403 -0.00251258 -0.000276359 0.00552403 9.33681e-20 0.00552403)
(0.00551208 -0.00250676 -0.000280873 0.00551208 -4.74321e-18 0.00551208)
(0.00551208 -0.00250676 -0.000280873 0.00551208 -1.07962e-18 0.00551208)
(0.0054997 -0.00250073 -0.000285435 0.0054997 -4.64307e-18 0.0054997)
(0.0054997 -0.00250073 -0.000285435 0.0054997 -1.01405e-18 0.0054997)
(0.00548686 -0.00249449 -0.000290044 0.00548686 -1.7749e-18 0.00548686)
(0.00548686 -0.00249449 -0.000290044 0.00548686 -1.92966e-19 0.00548686)
(0.00547358 -0.00248804 -0.0002947 0.00547358 -2.08133e-18 0.00547358)
(0.00547358 -0.00248804 -0.0002947 0.00547358 1.32067e-18 0.00547358)
(0.00545985 -0.00248136 -0.000299402 0.00545985 -4.67086e-18 0.00545985)
(0.00545985 -0.00248136 -0.000299402 0.00545985 1.43616e-18 0.00545985)
(0.00544566 -0.00247447 -0.00030415 0.00544566 -4.7533e-18 0.00544566)
(0.00544566 -0.00247447 -0.00030415 0.00544566 9.79973e-19 0.00544566)
(0.00543103 -0.00246736 -0.000308942 0.00543103 -8.12949e-18 0.00543103)
(0.00543103 -0.00246736 -0.000308942 0.00543103 1.03197e-18 0.00543103)
(0.00541593 -0.00246002 -0.000313779 0.00541593 -1.65838e-18 0.00541593)
(0.00541593 -0.00246002 -0.000313779 0.00541593 2.03917e-18 0.00541593)
(0.00540037 -0.00245246 -0.000318659 0.00540037 -3.02867e-18 0.00540037)
(0.00540037 -0.00245246 -0.000318659 0.00540037 4.04043e-18 0.00540037)
(0.00538435 -0.00244466 -0.000323581 0.00538435 -6.60026e-18 0.00538435)
(0.00538435 -0.00244466 -0.000323581 0.00538435 3.57029e-18 0.00538435)
(0.00536786 -0.00243664 -0.000328544 0.00536786 -5.98027e-18 0.00536786)
(0.00536786 -0.00243664 -0.000328544 0.00536786 1.00684e-18 0.00536786)
(0.0053509 -0.00242838 -0.000333548 0.0053509 -5.33224e-18 0.0053509)
(0.0053509 -0.00242838 -0.000333548 0.0053509 8.72582e-19 0.0053509)
(0.00533347 -0.00241989 -0.00033859 0.00533347 -5.61394e-18 0.00533347)
(0.00533347 -0.00241989 -0.00033859 0.00533347 3.31351e-18 0.00533347)
(0.00531556 -0.00241116 -0.000343669 0.00531556 -6.78956e-18 0.00531556)
(0.00531556 -0.00241116 -0.000343669 0.00531556 3.92228e-18 0.00531556)
(0.00529716 -0.00240218 -0.000348785 0.00529716 2.43113e-19 0.00529716)
(0.00529716 -0.00240218 -0.000348785 0.00529716 3.42727e-18 0.00529716)
(0.00527828 -0.00239296 -0.000353935 0.00527828 2.06918e-18 0.00527828)
(0.00527828 -0.00239296 -0.000353935 0.00527828 4.25263e-18 0.00527828)
(0.00525891 -0.00238349 -0.000359118 0.00525891 6.29932e-18 0.00525891)
(0.00525891 -0.00238349 -0.000359118 0.00525891 3.93112e-18 0.00525891)
(0.00523904 -0.00237377 -0.000364332 0.00523904 5.767e-18 0.00523904)
(0.00523904 -0.00237377 -0.000364332 0.00523904 1.00196e-18 0.00523904)
(0.00521867 -0.00236379 -0.000369575 0.00521867 5.47481e-18 0.00521867)
(0.00521867 -0.00236379 -0.000369575 0.00521867 -1.94833e-18 0.00521867)
(0.00519779 -0.00235356 -0.000374846 0.00519779 6.04891e-18 0.00519779)
(0.00519779 -0.00235356 -0.000374846 0.00519779 -1.47804e-18 0.00519779)
(0.00517641 -0.00234306 -0.000380141 0.00517641 5.54175e-18 0.00517641)
(0.00517641 -0.00234306 -0.000380141 0.00517641 3.08487e-18 0.00517641)
(0.00515451 -0.0023323 -0.000385459 0.00515451 5.57141e-18 0.00515451)
(0.00515451 -0.0023323 -0.000385459 0.00515451 4.26378e-18 0.00515451)
(0.00513208 -0.00232126 -0.000390797 0.00513208 5.50927e-18 0.00513208)
(0.00513208 -0.00232126 -0.000390797 0.00513208 4.15235e-18 0.00513208)
(0.00510913 -0.00230996 -0.000396153 0.00510913 3.58166e-18 0.00510913)
(0.00510913 -0.00230996 -0.000396153 0.00510913 6.07979e-18 0.00510913)
(0.00508565 -0.00229837 -0.000401523 0.00508565 4.73293e-18 0.00508565)
(0.00508565 -0.00229837 -0.000401523 0.00508565 6.05744e-18 0.00508565)
(0.00506163 -0.00228651 -0.000406906 0.00506163 5.47709e-18 0.00506163)
(0.00506163 -0.00228651 -0.000406906 0.00506163 5.94357e-18 0.00506163)
(0.00503707 -0.00227436 -0.000412297 0.00503707 6.08009e-18 0.00503707)
(0.00503707 -0.00227436 -0.000412297 0.00503707 8.05869e-18 0.00503707)
(0.00501196 -0.00226192 -0.000417693 0.00501196 3.5588e-18 0.00501196)
(0.00501196 -0.00226192 -0.000417693 0.00501196 2.3904e-17 0.00501196)
(0.00498629 -0.00224919 -0.000423092 0.00498629 3.59376e-18 0.00498629)
(0.00498629 -0.00224919 -0.000423092 0.00498629 3.02521e-17 0.00498629)
(0.00496005 -0.00223616 -0.000428488 0.00496005 4.54642e-18 0.00496005)
(0.00496005 -0.00223616 -0.000428488 0.00496005 2.96049e-17 0.00496005)
(0.00493325 -0.00222283 -0.000433879 0.00493325 5.77988e-18 0.00493325)
(0.00493325 -0.00222283 -0.000433879 0.00493325 2.73425e-17 0.00493325)
(0.00490588 -0.00220918 -0.000439261 0.00490588 5.93972e-18 0.00490588)
(0.00490588 -0.00220918 -0.000439261 0.00490588 2.63013e-17 0.00490588)
(0.00487792 -0.00219523 -0.000444628 0.00487792 6.58856e-18 0.00487792)
(0.00487792 -0.00219523 -0.000444628 0.00487792 2.72391e-17 0.00487792)
(0.00484937 -0.00218096 -0.000449976 0.00484937 -8.57271e-20 0.00484937)
(0.00484937 -0.00218096 -0.000449976 0.00484937 3.74211e-17 0.00484937)
(0.00482022 -0.00216637 -0.000455301 0.00482022 4.02449e-18 0.00482022)
(0.00482022 -0.00216637 -0.000455301 0.00482022 3.83318e-17 0.00482022)
(0.00479047 -0.00215146 -0.000460596 0.00479047 1.80633e-18 0.00479047)
(0.00479047 -0.00215146 -0.000460596 0.00479047 4.43346e-17 0.00479047)
(0.00476011 -0.00213621 -0.000465858 0.00476011 2.02285e-18 0.00476011)
(0.00476011 -0.00213621 -0.000465858 0.00476011 4.69658e-17 0.00476011)
(0.00472913 -0.00212062 -0.00047108 0.00472913 7.53586e-18 0.00472913)
(0.00472913 -0.00212062 -0.00047108 0.00472913 4.14716e-17 0.00472913)
(0.00469753 -0.0021047 -0.000476257 0.00469753 1.20358e-18 0.00469753)
(0.00469753 -0.0021047 -0.000476257 0.00469753 3.39992e-17 0.00469753)
(0.0046653 -0.00208842 -0.000481381 0.0046653 -1.5837e-18 0.0046653)
(0.0046653 -0.00208842 -0.000481381 0.0046653 2.69625e-17 0.0046653)
(0.00463242 -0.00207179 -0.000486447 0.00463242 4.52479e-18 0.00463242)
(0.00463242 -0.00207179 -0.000486447 0.00463242 2.21463e-17 0.00463242)
(0.00459889 -0.00205481 -0.000491448 0.00459889 4.88059e-18 0.00459889)
(0.00459889 -0.00205481 -0.000491448 0.00459889 2.379e-17 0.00459889)
(0.00456471 -0.00203746 -0.000496375 0.00456471 -6.56362e-19 0.00456471)
(0.00456471 -0.00203746 -0.000496375 0.00456471 2.73359e-17 0.00456471)
(0.00452987 -0.00201974 -0.000501223 0.00452987 6.94252e-18 0.00452987)
(0.00452987 -0.00201974 -0.000501223 0.00452987 1.11461e-17 0.00452987)
(0.00449436 -0.00200164 -0.000505982 0.00449436 6.1753e-18 0.00449436)
(0.00449436 -0.00200164 -0.000505982 0.00449436 6.37649e-18 0.00449436)
(0.00445816 -0.00198316 -0.000510644 0.00445816 -1.37325e-18 0.00445816)
(0.00445816 -0.00198316 -0.000510644 0.00445816 9.46615e-18 0.00445816)
(0.00442129 -0.00196429 -0.000515201 0.00442129 4.25307e-19 0.00442129)
(0.00442129 -0.00196429 -0.000515201 0.00442129 7.31625e-18 0.00442129)
(0.00438371 -0.00194503 -0.000519643 0.00438371 1.39269e-18 0.00438371)
(0.00438371 -0.00194503 -0.000519643 0.00438371 6.29849e-18 0.00438371)
(0.00434544 -0.00192536 -0.000523961 0.00434544 -2.66599e-18 0.00434544)
(0.00434544 -0.00192536 -0.000523961 0.00434544 9.71475e-18 0.00434544)
(0.00430646 -0.00190529 -0.000528143 0.00430646 1.20264e-18 0.00430646)
(0.00430646 -0.00190529 -0.000528143 0.00430646 7.05906e-18 0.00430646)
(0.00426676 -0.0018848 -0.000532181 0.00426676 -0 0.00426676)
(0.00426676 -0.0018848 -0.000532181 0.00426676 5.72437e-18 0.00426676)
(0.00422634 -0.00186389 -0.000536063 0.00422634 -3.22227e-18 0.00422634)
(0.00422634 -0.00186389 -0.000536063 0.00422634 4.72164e-18 0.00422634)
(0.00418519 -0.00184255 -0.000539776 0.00418519 5.77269e-18 0.00418519)
(0.00418519 -0.00184255 -0.000539776 0.00418519 1.99701e-18 0.00418519)