/*--------------------------------*- C++ -*----------------------------------*\
| =========                 |                                                 |
| \\      /  F ield         | OpenFOAM: The Open Source CFD Toolbox           |
|  \\    /   O peration     | Version:  2106                                  |
|   \\  /    A nd           | Website:  www.openfoam.com                      |
|    \\/     M anipulation  |                                                 |
\*---------------------------------------------------------------------------*/
FoamFile
{
    version     2.0;
    format      ascii;
    arch        "LSB;label=32;scalar=64";
    class       volVectorField;
    location    "10010";
    object      U;
}
// * * * * * * * * * * * * * * * * * * * * * * * * * * * * * * * * * * * * * //

dimensions      [0 1 -1 0 0 0 0];

internalField   nonuniform List<vector> 
2000
(
(0.00324011 -1.00948e-15 -9.97027e-19)
(0.00324011 -3.16383e-19 3.19338e-22)
(0.00977958 -2.14115e-15 7.93711e-18)
(0.00977958 1.01384e-19 -9.67245e-22)
(0.0164398 -2.14583e-15 8.14634e-18)
(0.0164398 -9.89521e-20 -3.60491e-22)
(0.0232231 -1.98062e-15 8.90737e-18)
(0.0232231 -9.41976e-20 2.35381e-22)
(0.0301317 -1.92804e-15 9.6332e-18)
(0.0301317 -1.09356e-19 3.38575e-22)
(0.0371678 -1.98254e-15 1.03705e-17)
(0.0371678 -1.46016e-19 -1.46314e-22)
(0.0443338 -1.98648e-15 1.11584e-17)
(0.0443338 -1.82961e-19 -7.11527e-22)
(0.051632 -1.98566e-15 1.19938e-17)
(0.051632 -1.80165e-19 -9.90386e-22)
(0.0590648 -1.98556e-15 1.28704e-17)
(0.0590648 -1.97224e-19 -1.77268e-21)
(0.0666346 -1.9857e-15 1.37871e-17)
(0.0666346 -2.62996e-19 -2.74264e-21)
(0.0743438 -1.98595e-15 1.47439e-17)
(0.0743438 -3.39294e-19 -5.02879e-21)
(0.0821946 -1.98622e-15 1.57413e-17)
(0.0821946 -3.91068e-19 -7.56798e-21)
(0.0901894 -1.98642e-15 1.67802e-17)
(0.0901894 -4.5717e-19 -8.34247e-21)
(0.0983303 -1.98657e-15 1.78611e-17)
(0.0983303 -5.84477e-19 -8.70686e-21)
(0.106619 -1.98664e-15 1.89849e-17)
(0.106619 -6.48375e-19 -9.95815e-21)
(0.115058 -1.98672e-15 2.01529e-17)
(0.115058 -7.80851e-19 -1.54778e-20)
(0.123648 -1.98696e-15 2.13653e-17)
(0.123648 -9.68407e-19 -1.95835e-20)
(0.132391 -1.98727e-15 2.26216e-17)
(0.132391 -9.84226e-19 -2.13653e-20)
(0.141285 -1.98752e-15 2.39211e-17)
(0.141285 -1.07597e-18 -2.56853e-20)
(0.150333 -1.98772e-15 2.52637e-17)
(0.150333 -1.27901e-18 -3.44087e-20)
(0.159531 -1.98796e-15 2.66465e-17)
(0.159531 -1.30697e-18 -3.94977e-20)
(0.168879 -1.98829e-15 2.80673e-17)
(0.168879 -1.39297e-18 -4.18384e-20)
(0.178372 -1.98846e-15 2.95222e-17)
(0.178372 -1.68165e-18 -4.81916e-20)
(0.188005 -1.98846e-15 3.10063e-17)
(0.188005 -1.94257e-18 -5.53012e-20)
(0.197773 -1.98863e-15 3.25136e-17)
(0.197773 -2.22231e-18 -6.26449e-20)
(0.207666 -1.98892e-15 3.40358e-17)
(0.207666 -2.4963e-18 -7.40251e-20)
(0.217675 -1.98916e-15 3.55646e-17)
(0.217675 -2.76483e-18 -8.14153e-20)
(0.227786 -1.98939e-15 3.7091e-17)
(0.227786 -3.09202e-18 -8.86851e-20)
(0.237987 -1.98936e-15 3.86038e-17)
(0.237987 -3.40716e-18 -1.00991e-19)
(0.24826 -1.98893e-15 4.00934e-17)
(0.24826 -4.13963e-18 -1.13076e-19)
(0.258588 -1.98855e-15 4.1552e-17)
(0.258588 -4.79452e-18 -1.2109e-19)
(0.268951 -1.98833e-15 4.29684e-17)
(0.268951 -5.1991e-18 -1.33795e-19)
(0.279329 -1.98839e-15 4.4333e-17)
(0.279329 -5.51782e-18 -1.36436e-19)
(0.2897 -1.98908e-15 4.56317e-17)
(0.2897 -5.61682e-18 -1.52041e-19)
(0.300045 -1.9895e-15 4.68581e-17)
(0.300045 -5.8018e-18 -1.70069e-19)
(0.31034 -1.9896e-15 4.80067e-17)
(0.31034 -6.12868e-18 -1.84511e-19)
(0.320567 -1.98955e-15 4.90776e-17)
(0.320567 -6.64581e-18 -2.01533e-19)
(0.330706 -1.98945e-15 5.00727e-17)
(0.330706 -6.98209e-18 -2.1145e-19)
(0.34074 -1.98943e-15 5.09907e-17)
(0.34074 -7.74263e-18 -2.29683e-19)
(0.350653 -1.98904e-15 5.18342e-17)
(0.350653 -9.01266e-18 -2.37965e-19)
(0.360431 -1.98892e-15 5.26107e-17)
(0.360431 -9.92871e-18 -2.19936e-19)
(0.370063 -1.98908e-15 5.3325e-17)
(0.370063 -1.08705e-17 -2.22094e-19)
(0.37954 -1.98949e-15 5.39829e-17)
(0.37954 -1.11506e-17 -2.34807e-19)
(0.388852 -1.99066e-15 5.45831e-17)
(0.388852 -1.11451e-17 -2.78423e-19)
(0.397996 -1.99094e-15 5.5136e-17)
(0.397996 -1.09461e-17 -3.1301e-19)
(0.406967 -1.99083e-15 5.56549e-17)
(0.406967 -1.12661e-17 -3.348e-19)
(0.415762 -1.99112e-15 5.61393e-17)
(0.415762 -1.24627e-17 -3.54694e-19)
(0.424382 -1.99132e-15 5.66082e-17)
(0.424382 -1.31498e-17 -3.35359e-19)
(0.432825 -1.99177e-15 5.70618e-17)
(0.432825 -1.37126e-17 -3.07316e-19)
(0.441094 -1.99189e-15 5.75023e-17)
(0.441094 -1.50823e-17 -3.42072e-19)
(0.44919 -1.99134e-15 5.79466e-17)
(0.44919 -1.64586e-17 -3.78728e-19)
(0.457117 -1.99093e-15 5.83966e-17)
(0.457117 -1.73024e-17 -3.95451e-19)
(0.464878 -1.99123e-15 5.88583e-17)
(0.464878 -1.84179e-17 -3.79883e-19)
(0.472477 -1.99128e-15 5.93273e-17)
(0.472477 -1.98257e-17 -3.9249e-19)
(0.479917 -1.99045e-15 5.98159e-17)
(0.479917 -2.1276e-17 -4.19351e-19)
(0.487203 -1.98967e-15 6.03222e-17)
(0.487203 -2.3017e-17 -4.29777e-19)
(0.494341 -1.98981e-15 6.085e-17)
(0.494341 -2.45887e-17 -3.92687e-19)
(0.501334 -1.98962e-15 6.14005e-17)
(0.501334 -2.62629e-17 -3.5209e-19)
(0.508187 -1.98915e-15 6.19757e-17)
(0.508187 -2.83911e-17 -3.44983e-19)
(0.514905 -1.98843e-15 6.25759e-17)
(0.514905 -3.01687e-17 -3.87921e-19)
(0.521492 -1.98735e-15 6.32032e-17)
(0.521492 -3.19572e-17 -4.42638e-19)
(0.527954 -1.98731e-15 6.38546e-17)
(0.527954 -3.25466e-17 -4.28534e-19)
(0.534294 -1.98664e-15 6.45309e-17)
(0.534294 -3.3951e-17 -3.70296e-19)
(0.540517 -1.98569e-15 6.52477e-17)
(0.540517 -3.72126e-17 -3.49442e-19)
(0.546627 -1.98464e-15 6.59984e-17)
(0.546627 -3.89834e-17 -3.72715e-19)
(0.552629 -1.9835e-15 6.67989e-17)
(0.552629 -3.99213e-17 -3.71267e-19)
(0.558526 -1.98264e-15 6.76331e-17)
(0.558526 -4.11907e-17 -4.54166e-19)
(0.564322 -1.98217e-15 6.85208e-17)
(0.564322 -4.21644e-17 -5.18238e-19)
(0.570021 -1.98264e-15 6.94425e-17)
(0.570021 -4.17507e-17 -5.41858e-19)
(0.575626 -1.98372e-15 7.03867e-17)
(0.575626 -4.18022e-17 -6.19075e-19)
(0.581142 -1.98529e-15 7.13518e-17)
(0.581142 -4.22128e-17 -6.64598e-19)
(0.58657 -1.98577e-15 7.23416e-17)
(0.58657 -4.19956e-17 -6.76302e-19)
(0.591915 -1.98633e-15 7.33724e-17)
(0.591915 -4.26486e-17 -6.83605e-19)
(0.59718 -1.98737e-15 7.44376e-17)
(0.59718 -4.45686e-17 -9.00196e-19)
(0.602367 -1.98768e-15 7.48685e-17)
(0.602367 -4.54015e-17 -1.05844e-18)
(0.607479 -1.98844e-15 7.49872e-17)
(0.607479 -4.5869e-17 -1.0349e-18)
(0.612519 -1.98787e-15 7.51279e-17)
(0.612519 -4.72476e-17 -1.06115e-18)
(0.617489 -1.98699e-15 7.54151e-17)
(0.617489 -4.92241e-17 -1.15842e-18)
(0.622392 -1.98632e-15 7.55855e-17)
(0.622392 -5.12542e-17 -1.2293e-18)
(0.627231 -1.98428e-15 7.58037e-17)
(0.627231 -5.36715e-17 -1.24088e-18)
(0.632007 -1.9836e-15 7.62547e-17)
(0.632007 -5.64878e-17 -1.17398e-18)
(0.636722 -1.98275e-15 7.65861e-17)
(0.636722 -5.74007e-17 -1.06189e-18)
(0.64138 -1.97937e-15 7.70586e-17)
(0.64138 -6.06318e-17 -1.00184e-18)
(0.645981 -1.97621e-15 7.73961e-17)
(0.645981 -6.50205e-17 -9.7353e-19)
(0.650528 -1.97406e-15 7.79556e-17)
(0.650528 -6.75189e-17 -9.12433e-19)
(0.655022 -1.97258e-15 7.83641e-17)
(0.655022 -6.94113e-17 -8.40555e-19)
(0.659465 -1.97338e-15 7.88668e-17)
(0.659465 -7.18163e-17 -8.54983e-19)
(0.66386 -1.97356e-15 7.9389e-17)
(0.66386 -7.58123e-17 -9.60574e-19)
(0.668207 -1.96981e-15 8.00679e-17)
(0.668207 -7.7709e-17 -9.3361e-19)
(0.672508 -1.96646e-15 8.08226e-17)
(0.672508 -8.06725e-17 -9.00824e-19)
(0.676764 -1.96367e-15 8.15113e-17)
(0.676764 -8.61464e-17 -9.35326e-19)
(0.680978 -1.96222e-15 8.19477e-17)
(0.680978 -8.80162e-17 -8.47262e-19)
(0.685149 -1.96251e-15 8.28494e-17)
(0.685149 -8.81533e-17 -9.35723e-19)
(0.689281 -1.96372e-15 8.31141e-17)
(0.689281 -8.64804e-17 -1.16618e-18)
(0.693373 -1.965e-15 8.36591e-17)
(0.693373 -8.54207e-17 -1.47829e-18)
(0.697428 -1.96554e-15 8.44001e-17)
(0.697428 -8.60833e-17 -1.52942e-18)
(0.701445 -1.96598e-15 8.50446e-17)
(0.701445 -8.72416e-17 -1.76444e-18)
(0.705428 -1.96448e-15 8.58466e-17)
(0.705428 -8.86623e-17 -1.96547e-18)
(0.709375 -1.96454e-15 8.64624e-17)
(0.709375 -8.93292e-17 -2.15477e-18)
(0.71329 -1.96395e-15 8.73797e-17)
(0.71329 -9.24206e-17 -2.44367e-18)
(0.717171 -1.96052e-15 8.82722e-17)
(0.717171 -9.42734e-17 -2.50742e-18)
(0.721022 -1.95709e-15 8.92185e-17)
(0.721022 -9.40835e-17 -2.79878e-18)
(0.724842 -1.95298e-15 9.03963e-17)
(0.724842 -9.9136e-17 -3.04055e-18)
(0.728632 -1.94845e-15 9.15661e-17)
(0.728632 -1.05204e-16 -3.36414e-18)
(0.732393 -1.94457e-15 9.26504e-17)
(0.732393 -1.10438e-16 -3.51366e-18)
(0.736126 -1.9413e-15 9.4109e-17)
(0.736126 -1.15417e-16 -3.71604e-18)
(0.739832 -1.93529e-15 9.5337e-17)
(0.739832 -1.20377e-16 -3.91735e-18)
(0.743512 -1.92941e-15 9.6999e-17)
(0.743512 -1.26945e-16 -4.00141e-18)
(0.747166 -1.92991e-15 9.77013e-17)
(0.747166 -1.31807e-16 -4.27044e-18)
(0.750795 -1.92453e-15 9.95048e-17)
(0.750795 -1.36414e-16 -4.20894e-18)
(0.7544 -1.92187e-15 1.01208e-16)
(0.7544 -1.39322e-16 -4.42507e-18)
(0.757981 -1.92093e-15 1.02709e-16)
(0.757981 -1.42425e-16 -4.74722e-18)
(0.761539 -1.91952e-15 1.04268e-16)
(0.761539 -1.44845e-16 -4.92731e-18)
(0.765075 -1.9154e-15 1.06064e-16)
(0.765075 -1.5138e-16 -5.24847e-18)
(0.76859 -1.91095e-15 1.07802e-16)
(0.76859 -1.59704e-16 -5.45541e-18)
(0.772083 -1.90688e-15 1.09725e-16)
(0.772083 -1.64481e-16 -5.75983e-18)
(0.775555 -1.90069e-15 1.11948e-16)
(0.775555 -1.74239e-16 -5.91083e-18)
(0.779008 -1.88947e-15 1.15067e-16)
(0.779008 -1.86141e-16 -5.41164e-18)
(0.782441 -1.88003e-15 1.16505e-16)
(0.782441 -1.94648e-16 -5.6962e-18)
(0.785855 -1.87685e-15 1.18524e-16)
(0.785855 -1.99675e-16 -5.83133e-18)
(0.789251 -1.87448e-15 1.21519e-16)
(0.789251 -2.03552e-16 -5.77211e-18)
(0.792628 -1.87124e-15 1.23456e-16)
(0.792628 -2.12125e-16 -5.65759e-18)
(0.795988 -1.86717e-15 1.25999e-16)
(0.795988 -2.15656e-16 -5.90426e-18)
(0.799331 -1.86349e-15 1.28713e-16)
(0.799331 -2.22493e-16 -6.41672e-18)
(0.802658 -1.85712e-15 1.31992e-16)
(0.802658 -2.32343e-16 -6.49598e-18)
(0.805967 -1.84494e-15 1.35863e-16)
(0.805967 -2.43698e-16 -6.36051e-18)
(0.809262 -1.83159e-15 1.39871e-16)
(0.809262 -2.5338e-16 -6.44977e-18)
(0.81254 -1.82342e-15 1.4268e-16)
(0.81254 -2.57923e-16 -6.81786e-18)
(0.815804 -1.81958e-15 1.45642e-16)
(0.815804 -2.69534e-16 -7.69494e-18)
(0.819052 -1.81096e-15 1.49188e-16)
(0.819052 -2.77761e-16 -7.76358e-18)
(0.822287 -1.80081e-15 1.53211e-16)
(0.822287 -2.85081e-16 -7.68641e-18)
(0.825507 -1.78951e-15 1.57491e-16)
(0.825507 -2.94359e-16 -8.17508e-18)
(0.828714 -1.78056e-15 1.61646e-16)
(0.828714 -3.01984e-16 -8.61673e-18)
(0.831907 -1.76965e-15 1.67761e-16)
(0.831907 -3.08302e-16 -9.38276e-18)
(0.835087 -1.75737e-15 1.70765e-16)
(0.835087 -3.14961e-16 -8.96517e-18)
(0.838254 -1.75416e-15 1.75366e-16)
(0.838254 -3.24563e-16 -9.57756e-18)
(0.841409 -1.74641e-15 1.8062e-16)
(0.841409 -3.36746e-16 -9.99397e-18)
(0.844552 -1.73299e-15 1.85872e-16)
(0.844552 -3.50047e-16 -1.01047e-17)
(0.847682 -1.72011e-15 1.91044e-16)
(0.847682 -3.61258e-16 -1.00469e-17)
(0.850801 -1.7102e-15 1.97075e-16)
(0.850801 -3.74708e-16 -1.04374e-17)
(0.853909 -1.69822e-15 2.02288e-16)
(0.853909 -3.8476e-16 -1.20517e-17)
(0.857005 -1.68092e-15 2.08265e-16)
(0.857005 -3.93202e-16 -1.20294e-17)
(0.86009 -1.67082e-15 2.15476e-16)
(0.86009 -4.10718e-16 -1.21631e-17)
(0.863164 -1.65771e-15 2.2102e-16)
(0.863164 -4.26291e-16 -1.20117e-17)
(0.866228 -1.64694e-15 2.27229e-16)
(0.866228 -4.3581e-16 -1.20754e-17)
(0.869282 -1.63479e-15 2.34918e-16)
(0.869282 -4.43338e-16 -1.23569e-17)
(0.872325 -1.61913e-15 2.41368e-16)
(0.872325 -4.56557e-16 -4.85593e-18)
(0.875359 -1.6052e-15 2.48246e-16)
(0.875359 -4.72215e-16 6.37901e-18)
(0.878383 -1.58563e-15 2.55965e-16)
(0.878383 -4.83479e-16 1.8079e-17)
(0.881397 -1.55727e-15 2.63935e-16)
(0.881397 -4.96348e-16 3.03529e-17)
(0.884401 -1.53338e-15 2.66806e-16)
(0.884401 -5.13476e-16 4.11465e-17)
(0.887397 -1.51991e-15 2.74668e-16)
(0.887397 -5.26864e-16 5.18683e-17)
(0.890383 -1.48295e-15 2.81311e-16)
(0.890383 -5.35612e-16 6.33739e-17)
(0.89336 -1.49035e-15 2.9529e-16)
(0.89336 -5.4485e-16 7.63782e-17)
(0.896329 -1.46589e-15 3.00824e-16)
(0.896329 -5.51528e-16 8.93815e-17)
(0.899289 -1.43746e-15 3.05527e-16)
(0.899289 -5.62606e-16 1.0062e-16)
(0.90224 -1.4244e-15 3.1557e-16)
(0.90224 -5.68341e-16 1.11229e-16)
(0.905183 -1.40852e-15 3.24897e-16)
(0.905183 -5.78871e-16 1.24556e-16)
(0.908117 -1.39207e-15 3.34286e-16)
(0.908117 -5.89765e-16 1.42775e-16)
(0.911044 -1.36943e-15 3.42277e-16)
(0.911044 -5.88865e-16 1.58414e-16)
(0.913962 -1.34991e-15 3.54226e-16)
(0.913962 -6.05446e-16 1.72033e-16)
(0.916872 -1.33074e-15 3.64244e-16)
(0.916872 -6.14102e-16 1.88087e-16)
(0.919774 -1.31382e-15 3.6549e-16)
(0.919774 -6.19726e-16 2.04459e-16)
(0.922668 -1.29477e-15 3.59102e-16)
(0.922668 -6.23794e-16 2.19173e-16)
(0.925554 -1.27312e-15 3.55992e-16)
(0.925554 -6.21364e-16 2.36792e-16)
(0.928433 -1.255e-15 3.5174e-16)
(0.928433 -6.28688e-16 2.59768e-16)
(0.931304 -1.23213e-15 3.48358e-16)
(0.931304 -6.34613e-16 2.86207e-16)
(0.934167 -1.21704e-15 3.44291e-16)
(0.934167 -6.33655e-16 3.09282e-16)
(0.937023 -1.19673e-15 3.3973e-16)
(0.937023 -6.42042e-16 3.27537e-16)
(0.939871 -1.17367e-15 3.37411e-16)
(0.939871 -6.55469e-16 3.4885e-16)
(0.942711 -1.15336e-15 3.33992e-16)
(0.942711 -6.71083e-16 3.69582e-16)
(0.945544 -1.12754e-15 3.35637e-16)
(0.945544 -6.80934e-16 3.8936e-16)
(0.948369 -1.11444e-15 3.31317e-16)
(0.948369 -6.83417e-16 4.11918e-16)
(0.951187 -1.10166e-15 3.26787e-16)
(0.951187 -6.8358e-16 4.32443e-16)
(0.953997 -1.08665e-15 3.209e-16)
(0.953997 -6.77674e-16 4.50886e-16)
(0.9568 -1.0663e-15 3.23584e-16)
(0.9568 -6.78794e-16 4.41524e-16)
(0.959595 -1.04779e-15 3.1956e-16)
(0.959595 -6.81711e-16 4.37474e-16)
(0.962382 -1.03107e-15 3.19375e-16)
(0.962382 -6.71762e-16 4.31255e-16)
(0.965162 -1.0363e-15 3.11549e-16)
(0.965162 -6.70683e-16 4.33522e-16)
(0.967934 -1.00847e-15 3.04454e-16)
(0.967934 -6.6556e-16 4.33196e-16)
(0.970698 -1.00877e-15 3.06305e-16)
(0.970698 -6.70604e-16 4.18791e-16)
(0.973455 -9.79525e-16 3.04639e-16)
(0.973455 -6.92346e-16 4.08959e-16)
(0.976203 -9.59097e-16 3.0844e-16)
(0.976203 -7.05937e-16 3.91829e-16)
(0.978944 -9.5179e-16 3.08758e-16)
(0.978944 -7.2833e-16 3.71377e-16)
(0.981676 -9.31545e-16 3.06425e-16)
(0.981676 -7.31646e-16 3.50448e-16)
(0.9844 -9.19917e-16 2.98322e-16)
(0.9844 -7.40686e-16 3.45711e-16)
(0.987116 -9.05328e-16 3.08756e-16)
(0.987116 -7.5313e-16 3.43836e-16)
(0.989824 -8.90933e-16 3.09077e-16)
(0.989824 -7.68069e-16 3.46006e-16)
(0.992522 -8.82175e-16 3.03666e-16)
(0.992522 -7.81013e-16 3.41566e-16)
(0.995212 -8.76269e-16 3.00495e-16)
(0.995212 -7.73805e-16 3.32039e-16)
(0.997893 -8.48467e-16 3.08381e-16)
(0.997893 -7.90087e-16 3.19488e-16)
(1.00056 -8.35771e-16 2.95728e-16)
(1.00056 -8.02218e-16 3.31753e-16)
(1.00323 -8.29788e-16 2.98496e-16)
(1.00323 -7.87213e-16 3.27014e-16)
(1.00588 -8.20689e-16 3.02507e-16)
(1.00588 -7.83154e-16 3.28403e-16)
(1.00852 -8.13878e-16 3.0209e-16)
(1.00852 -7.8552e-16 3.27927e-16)
(1.01116 -8.02305e-16 3.02382e-16)
(1.01116 -7.80328e-16 3.14419e-16)
(1.01378 -7.90527e-16 3.15801e-16)
(1.01378 -7.61334e-16 3.13508e-16)
(1.01639 -7.91379e-16 3.16611e-16)
(1.01639 -7.6211e-16 3.11227e-16)
(1.01899 -7.72475e-16 3.16045e-16)
(1.01899 -7.4009e-16 3.14286e-16)
(1.02158 -7.44898e-16 3.36679e-16)
(1.02158 -7.36015e-16 3.16739e-16)
(1.02416 -7.21829e-16 3.35109e-16)
(1.02416 -7.14072e-16 3.13851e-16)
(1.02673 -7.02708e-16 3.29951e-16)
(1.02673 -6.90351e-16 3.19212e-16)
(1.02928 -6.82887e-16 3.20467e-16)
(1.02928 -6.7814e-16 3.34553e-16)
(1.03182 -6.6113e-16 3.47178e-16)
(1.03182 -6.76808e-16 3.33322e-16)
(1.03435 -6.24194e-16 3.58395e-16)
(1.03435 -6.60511e-16 3.08443e-16)
(1.03687 -6.04782e-16 3.69858e-16)
(1.03687 -6.27191e-16 3.30986e-16)
(1.03937 -5.85088e-16 3.62997e-16)
(1.03937 -6.44764e-16 3.3777e-16)
(1.04185 -5.83748e-16 3.4397e-16)
(1.04185 -6.00515e-16 3.32538e-16)
(1.04433 -5.84613e-16 3.39087e-16)
(1.04433 -5.46249e-16 3.26537e-16)
(1.04678 -5.58325e-16 3.43933e-16)
(1.04678 -5.56241e-16 3.42035e-16)
(1.04922 -5.31064e-16 3.49492e-16)
(1.04922 -5.32555e-16 3.48128e-16)
(1.05164 -5.26582e-16 3.79144e-16)
(1.05164 -5.17738e-16 3.38172e-16)
(1.05404 -4.98857e-16 3.53341e-16)
(1.05404 -5.35259e-16 3.19332e-16)
(1.05643 -5.17724e-16 3.56707e-16)
(1.05643 -5.0284e-16 3.34566e-16)
(1.0588 -5.10089e-16 3.86534e-16)
(1.0588 -4.91373e-16 3.64946e-16)
(1.06114 -5.58471e-16 3.66252e-16)
(1.06114 -4.94684e-16 3.56791e-16)
(1.06346 -5.38162e-16 3.70291e-16)
(1.06346 -4.80868e-16 3.17026e-16)
(1.06577 -5.27108e-16 3.67367e-16)
(1.06577 -5.19483e-16 3.11081e-16)
(1.06805 -5.06395e-16 3.60302e-16)
(1.06805 -5.37678e-16 3.17448e-16)
(1.0703 -5.79678e-16 3.46341e-16)
(1.0703 -5.17784e-16 3.0708e-16)
(1.07253 -5.33359e-16 3.57093e-16)
(1.07253 -5.13615e-16 3.30827e-16)
(1.07473 -5.0123e-16 3.54033e-16)
(1.07473 -5.18292e-16 3.44187e-16)
(1.0769 -5.48427e-16 3.22981e-16)
(1.0769 -5.63664e-16 3.13102e-16)
(1.07905 -5.02331e-16 3.27731e-16)
(1.07905 -4.92151e-16 2.93579e-16)
(1.08116 -4.80637e-16 3.04322e-16)
(1.08116 -4.87727e-16 3.10151e-16)
(1.08324 -4.90644e-16 2.94972e-16)
(1.08324 -5.17719e-16 3.00716e-16)
(1.08528 -5.01171e-16 3.16002e-16)
(1.08528 -4.96902e-16 2.85293e-16)
(1.08729 -4.93208e-16 3.29645e-16)
(1.08729 -4.46844e-16 2.72522e-16)
(1.08926 -5.33954e-16 3.29902e-16)
(1.08926 -4.80463e-16 2.7155e-16)
(1.09119 -4.72107e-16 3.19263e-16)
(1.09119 -4.79298e-16 2.6957e-16)
(1.09307 -4.45965e-16 3.44337e-16)
(1.09307 -4.314e-16 2.64889e-16)
(1.09491 -4.27878e-16 3.72095e-16)
(1.09491 -4.66235e-16 2.64838e-16)
(1.0967 -4.01872e-16 3.58742e-16)
(1.0967 -4.91106e-16 2.75624e-16)
(1.09843 -4.07604e-16 3.4864e-16)
(1.09843 -4.88567e-16 3.1756e-16)
(1.10011 -3.71572e-16 3.92766e-16)
(1.10011 -5.13426e-16 3.23763e-16)
(1.10173 -3.94814e-16 3.87585e-16)
(1.10173 -5.05259e-16 5.00705e-16)
(1.10328 -4.22977e-16 3.58403e-16)
(1.10328 -4.56279e-16 5.56139e-16)
(1.10477 -4.38284e-16 3.27964e-16)
(1.10477 -4.20256e-16 4.69063e-16)
(1.10618 -4.52165e-16 2.91893e-16)
(1.10618 -4.10074e-16 4.81621e-16)
(1.10752 -4.9887e-16 3.17323e-16)
(1.10752 -4.34306e-16 4.54852e-16)
(1.10877 -4.7885e-16 2.93884e-16)
(1.10877 -4.36553e-16 3.99087e-16)
(1.10993 -4.8898e-16 2.67112e-16)
(1.10993 -4.05589e-16 2.51104e-16)
(1.11099 -4.62322e-16 1.8573e-16)
(1.11099 -4.02426e-16 1.671e-16)
(1.11195 -4.44398e-16 1.9138e-16)
(1.11195 -3.83587e-16 1.38739e-16)
(1.1128 -4.09662e-16 2.03963e-16)
(1.1128 -3.9117e-16 1.08977e-16)
(1.11353 -3.73349e-16 2.63211e-16)
(1.11353 -4.63658e-16 7.13951e-17)
(1.11413 -4.69744e-16 2.27149e-16)
(1.11413 -4.13505e-16 1.9651e-16)
(1.11459 -4.00212e-16 1.75038e-16)
(1.11459 -3.81656e-16 1.23701e-16)
(1.11491 -3.79912e-16 1.52869e-16)
(1.11491 -3.97831e-16 9.87984e-17)
(1.11508 -3.58073e-16 1.51229e-16)
(1.11508 -3.85423e-16 7.831e-17)
(0.00324011 -1.05797e-19 8.99043e-19)
(0.00324011 -5.50118e-20 5.08035e-18)
(0.00977958 1.77585e-19 1.41681e-17)
(0.00977958 1.32065e-19 -1.23045e-17)
(0.0164398 1.84505e-19 1.53952e-17)
(0.0164398 1.49253e-19 -1.27715e-17)
(0.0232231 2.96315e-19 1.48953e-17)
(0.0232231 2.36258e-19 -1.32583e-17)
(0.0301317 4.13398e-19 1.48311e-17)
(0.0301317 3.24781e-19 -1.37657e-17)
(0.0371678 5.45401e-19 1.50032e-17)
(0.0371678 4.01465e-19 -1.42949e-17)
(0.0443338 6.94337e-19 1.51903e-17)
(0.0443338 4.88316e-19 -1.4847e-17)
(0.051632 8.64875e-19 1.53632e-17)
(0.051632 5.69599e-19 -1.5423e-17)
(0.0590648 1.02928e-18 1.55335e-17)
(0.0590648 6.68224e-19 -1.60237e-17)
(0.0666346 1.19151e-18 1.57022e-17)
(0.0666346 7.69279e-19 -1.66502e-17)
(0.0743438 1.40241e-18 1.5873e-17)
(0.0743438 8.46461e-19 -1.73036e-17)
(0.0821946 1.61222e-18 1.6043e-17)
(0.0821946 9.60959e-19 -1.79847e-17)
(0.0901894 1.74245e-18 1.62145e-17)
(0.0901894 1.0844e-18 -1.86943e-17)
(0.0983303 1.79287e-18 1.63855e-17)
(0.0983303 1.24497e-18 -1.94335e-17)
(0.106619 1.94703e-18 1.65567e-17)
(0.106619 1.43471e-18 -2.02032e-17)
(0.115058 2.23047e-18 1.67263e-17)
(0.115058 1.64186e-18 -2.1004e-17)
(0.123648 2.46284e-18 1.68921e-17)
(0.123648 1.72696e-18 -2.18357e-17)
(0.132391 2.575e-18 1.70585e-17)
(0.132391 1.88538e-18 -2.26983e-17)
(0.141285 2.7063e-18 1.70569e-17)
(0.141285 2.12523e-18 -2.35914e-17)
(0.150333 2.90521e-18 1.5844e-17)
(0.150333 2.16428e-18 -2.45137e-17)
(0.159531 3.16688e-18 1.45681e-17)
(0.159531 2.33335e-18 -2.54632e-17)
(0.168879 3.532e-18 1.32263e-17)
(0.168879 2.62932e-18 -2.6438e-17)
(0.178372 3.84684e-18 1.18147e-17)
(0.178372 2.7895e-18 -2.74344e-17)
(0.188005 4.15098e-18 1.03368e-17)
(0.188005 2.93875e-18 -2.84488e-17)
(0.197773 4.43613e-18 8.77932e-18)
(0.197773 3.16583e-18 -2.9476e-17)
(0.207666 4.7404e-18 7.1503e-18)
(0.207666 3.4208e-18 -3.05107e-17)
(0.217675 5.12229e-18 5.45182e-18)
(0.217675 3.63295e-18 -3.15456e-17)
(0.227786 5.51186e-18 3.68945e-18)
(0.227786 3.74393e-18 -3.25735e-17)
(0.237987 5.8468e-18 2.51681e-18)
(0.237987 3.97783e-18 -3.35862e-17)
(0.24826 6.24776e-18 2.69906e-18)
(0.24826 4.3436e-18 -3.45747e-17)
(0.258588 7.0853e-18 2.8853e-18)
(0.258588 4.32246e-18 -3.55305e-17)
(0.268951 7.92456e-18 3.09389e-18)
(0.268951 4.39153e-18 -3.64443e-17)
(0.279329 8.27079e-18 3.30966e-18)
(0.279329 4.71643e-18 -3.73119e-17)
(0.2897 8.42472e-18 3.51771e-18)
(0.2897 4.84212e-18 -3.81317e-17)
(0.300045 8.51487e-18 3.7252e-18)
(0.300045 5.2993e-18 -3.88987e-17)
(0.31034 8.86334e-18 3.91901e-18)
(0.31034 5.49965e-18 -3.96104e-17)
(0.320567 9.94152e-18 4.11211e-18)
(0.320567 5.21899e-18 -4.02644e-17)
(0.330706 1.09907e-17 4.32498e-18)
(0.330706 5.2958e-18 -4.08578e-17)
(0.34074 1.13118e-17 4.52969e-18)
(0.34074 5.27644e-18 -4.13964e-17)
(0.350653 1.15912e-17 4.71873e-18)
(0.350653 5.59863e-18 -4.18844e-17)
(0.360431 1.21431e-17 4.89949e-18)
(0.360431 6.49777e-18 -4.23227e-17)
(0.370063 1.2502e-17 5.0789e-18)
(0.370063 6.61095e-18 -4.27179e-17)
(0.37954 1.25699e-17 5.24605e-18)
(0.37954 7.49763e-18 -4.30776e-17)
(0.388852 1.27656e-17 5.37292e-18)
(0.388852 8.41151e-18 -4.34189e-17)
(0.397996 1.32923e-17 5.49568e-18)
(0.397996 8.7307e-18 -4.37418e-17)
(0.406967 1.3887e-17 5.62969e-18)
(0.406967 9.46905e-18 -4.4049e-17)
(0.415762 1.46311e-17 5.73883e-18)
(0.415762 9.26137e-18 -4.43519e-17)
(0.424382 1.54321e-17 5.86904e-18)
(0.424382 9.26304e-18 -4.46495e-17)
(0.432825 1.54161e-17 6.00841e-18)
(0.432825 1.01943e-17 -4.49378e-17)
(0.441094 1.48403e-17 6.1185e-18)
(0.441094 1.0758e-17 -4.52275e-17)
(0.44919 1.48579e-17 6.19879e-18)
(0.44919 1.0775e-17 -4.55254e-17)
(0.457117 1.52489e-17 6.27418e-18)
(0.457117 1.20357e-17 -4.58325e-17)
(0.464878 1.54822e-17 6.3228e-18)
(0.464878 1.29427e-17 -4.61517e-17)
(0.472477 1.56296e-17 6.35196e-18)
(0.472477 1.30208e-17 -4.64879e-17)
(0.479917 1.55564e-17 5.86251e-18)
(0.479917 1.40666e-17 -4.68381e-17)
(0.487203 1.54316e-17 5.1459e-18)
(0.487203 1.44122e-17 -4.72081e-17)
(0.494341 1.62438e-17 4.41511e-18)
(0.494341 1.44327e-17 -4.75939e-17)
(0.501334 1.74027e-17 3.63346e-18)
(0.501334 1.46287e-17 -4.79943e-17)
(0.508187 1.8065e-17 2.81953e-18)
(0.508187 1.47744e-17 -4.84151e-17)
(0.514905 1.86691e-17 1.99953e-18)
(0.514905 1.50394e-17 -4.88681e-17)
(0.521492 1.94795e-17 1.15966e-18)
(0.521492 1.54249e-17 -4.9355e-17)
(0.527954 1.97798e-17 3.0606e-19)
(0.527954 1.68108e-17 -4.9872e-17)
(0.534294 2.00496e-17 -6.46284e-19)
(0.534294 1.8996e-17 -5.04211e-17)
(0.540517 2.08683e-17 -1.55136e-18)
(0.540517 2.08082e-17 -5.09878e-17)
(0.546627 2.15239e-17 -2.46746e-18)
(0.546627 2.11558e-17 -5.15773e-17)
(0.552629 2.20526e-17 -3.51415e-18)
(0.552629 2.15043e-17 -5.21826e-17)
(0.558526 2.32516e-17 -4.44874e-18)
(0.558526 2.13673e-17 -5.2808e-17)
(0.564322 2.45778e-17 -5.47799e-18)
(0.564322 2.03042e-17 -5.34486e-17)
(0.570021 2.48311e-17 -6.57234e-18)
(0.570021 1.97027e-17 -5.41217e-17)
(0.575626 2.39604e-17 -7.59701e-18)
(0.575626 2.09834e-17 -5.48342e-17)
(0.581142 2.31205e-17 -8.76333e-18)
(0.581142 2.2199e-17 -5.55694e-17)
(0.58657 2.34987e-17 -9.91223e-18)
(0.58657 2.1943e-17 -5.63331e-17)
(0.591915 2.37233e-17 -1.10258e-17)
(0.591915 2.26899e-17 -5.71217e-17)
(0.59718 2.26369e-17 -1.21752e-17)
(0.59718 2.24251e-17 -5.79602e-17)
(0.602367 2.16582e-17 -1.30621e-17)
(0.602367 2.26602e-17 -5.88556e-17)
(0.607479 2.19219e-17 -1.40275e-17)
(0.607479 2.31293e-17 -5.97904e-17)
(0.612519 2.36205e-17 -1.52894e-17)
(0.612519 2.48437e-17 -6.07386e-17)
(0.617489 2.40024e-17 -1.68433e-17)
(0.617489 2.47315e-17 -6.16896e-17)
(0.622392 2.30375e-17 -1.80477e-17)
(0.622392 2.34767e-17 -6.26833e-17)
(0.627231 2.35183e-17 -1.92778e-17)
(0.627231 2.54316e-17 -6.36979e-17)
(0.632007 2.33575e-17 -2.07396e-17)
(0.632007 2.73871e-17 -6.47099e-17)
(0.636722 2.27174e-17 -2.23714e-17)
(0.636722 2.98445e-17 -6.57403e-17)
(0.64138 2.29516e-17 -2.40098e-17)
(0.64138 3.11775e-17 -6.67976e-17)
(0.645981 2.42499e-17 -2.55365e-17)
(0.645981 3.16626e-17 -6.79012e-17)
(0.650528 2.54628e-17 -2.69527e-17)
(0.650528 3.33332e-17 -6.90305e-17)
(0.655022 2.64461e-17 -2.85576e-17)
(0.655022 3.52347e-17 -7.01584e-17)
(0.659465 2.97593e-17 -3.03344e-17)
(0.659465 3.4668e-17 -7.13017e-17)
(0.66386 3.26761e-17 -3.21531e-17)
(0.66386 3.63612e-17 -7.25304e-17)
(0.668207 3.41887e-17 -3.4086e-17)
(0.668207 4.01973e-17 -7.18027e-17)
(0.672508 3.40551e-17 -3.60393e-17)
(0.672508 4.22985e-17 -7.08886e-17)
(0.676764 3.07362e-17 -3.79868e-17)
(0.676764 4.40096e-17 -6.99911e-17)
(0.680978 3.01254e-17 -3.9825e-17)
(0.680978 4.56236e-17 -6.91234e-17)
(0.685149 3.04269e-17 -4.2035e-17)
(0.685149 4.5369e-17 -6.79546e-17)
(0.689281 3.04689e-17 -4.41374e-17)
(0.689281 4.50672e-17 -6.66952e-17)
(0.693373 3.02727e-17 -4.61486e-17)
(0.693373 4.81557e-17 -6.56441e-17)
(0.697428 2.9365e-17 -4.82774e-17)
(0.697428 5.20663e-17 -6.43738e-17)
(0.701445 2.97376e-17 -5.05343e-17)
(0.701445 5.3097e-17 -6.30298e-17)
(0.705428 2.75904e-17 -5.28948e-17)
(0.705428 5.5541e-17 -6.18154e-17)
(0.709375 2.64008e-17 -5.52468e-17)
(0.709375 5.82403e-17 -6.05198e-17)
(0.71329 2.73613e-17 -5.75019e-17)
(0.71329 5.59356e-17 -5.95538e-17)
(0.717171 2.8274e-17 -5.96861e-17)
(0.717171 5.64852e-17 -5.84672e-17)
(0.721022 2.85439e-17 -6.27333e-17)
(0.721022 5.71888e-17 -5.66431e-17)
(0.724842 2.85743e-17 -6.56979e-17)
(0.724842 5.5772e-17 -5.48725e-17)
(0.728632 3.15658e-17 -6.814e-17)
(0.728632 5.80368e-17 -5.35908e-17)
(0.732393 3.32967e-17 -7.09979e-17)
(0.732393 5.97898e-17 -5.2047e-17)
(0.736126 3.15522e-17 -7.41183e-17)
(0.736126 5.89848e-17 -5.02664e-17)
(0.739832 3.02856e-17 -7.73237e-17)
(0.739832 6.06839e-17 -4.86885e-17)
(0.743512 3.06234e-17 -8.03446e-17)
(0.743512 6.27415e-17 -4.72409e-17)
(0.747166 3.02488e-17 -8.35926e-17)
(0.747166 6.36058e-17 -4.54928e-17)
(0.750795 2.77447e-17 -8.7133e-17)
(0.750795 6.35517e-17 -4.33874e-17)
(0.7544 2.65297e-17 -8.99129e-17)
(0.7544 6.41711e-17 -4.13684e-17)
(0.757981 2.71857e-17 -9.36636e-17)
(0.757981 6.70959e-17 -3.92257e-17)
(0.761539 2.92346e-17 -9.67077e-17)
(0.761539 6.89622e-17 -3.74794e-17)
(0.765075 3.08268e-17 -1.00119e-16)
(0.765075 7.03271e-17 -3.56365e-17)
(0.76859 3.09856e-17 -1.03993e-16)
(0.76859 7.09874e-17 -3.33169e-17)
(0.772083 3.42794e-17 -1.07571e-16)
(0.772083 7.19259e-17 -3.09511e-17)
(0.775555 3.83657e-17 -1.11809e-16)
(0.775555 7.62118e-17 -2.80082e-17)
(0.779008 3.6777e-17 -1.15851e-16)
(0.779008 7.55745e-17 -2.52065e-17)
(0.782441 3.51244e-17 -1.19783e-16)
(0.782441 7.13493e-17 -2.25794e-17)
(0.785855 3.58069e-17 -1.24095e-16)
(0.785855 7.11366e-17 -1.89506e-17)
(0.789251 3.77614e-17 -1.28118e-16)
(0.789251 7.67826e-17 -1.52834e-17)
(0.792628 3.83508e-17 -1.32674e-16)
(0.792628 8.30945e-17 -1.12414e-17)
(0.795988 3.52893e-17 -1.36695e-16)
(0.795988 8.88804e-17 -7.36015e-18)
(0.799331 3.57183e-17 -1.40088e-16)
(0.799331 9.34298e-17 -4.66143e-18)
(0.802658 3.45518e-17 -1.43206e-16)
(0.802658 9.93685e-17 -1.62327e-18)
(0.805967 2.76088e-17 -1.4566e-16)
(0.805967 1.03805e-16 3.77464e-19)
(0.809262 2.7295e-17 -1.47994e-16)
(0.809262 1.01166e-16 2.4335e-18)
(0.81254 3.18097e-17 -1.51404e-16)
(0.81254 1.03991e-16 5.04543e-18)
(0.815804 3.50993e-17 -1.55036e-16)
(0.815804 1.1064e-16 8.08993e-18)
(0.819052 3.89434e-17 -1.58524e-16)
(0.819052 1.14413e-16 9.87206e-18)
(0.822287 4.00605e-17 -1.60296e-16)
(0.822287 1.17538e-16 1.01241e-17)
(0.825507 3.85099e-17 -1.63329e-16)
(0.825507 1.23143e-16 1.1308e-17)
(0.828714 3.35862e-17 -1.6694e-16)
(0.828714 1.27409e-16 1.37724e-17)
(0.831907 2.81028e-17 -1.71173e-16)
(0.831907 1.24054e-16 1.63772e-17)
(0.835087 2.45807e-17 -1.74769e-16)
(0.835087 1.20386e-16 1.75211e-17)
(0.838254 1.7439e-17 -1.75925e-16)
(0.838254 1.23621e-16 1.742e-17)
(0.841409 1.22934e-17 -1.77424e-16)
(0.841409 1.25306e-16 1.78595e-17)
(0.844552 1.50251e-17 -1.80013e-16)
(0.844552 1.23819e-16 1.84172e-17)
(0.847682 2.07305e-17 -1.83524e-16)
(0.847682 1.19698e-16 1.83877e-17)
(0.850801 1.83549e-17 -1.85898e-16)
(0.850801 1.11773e-16 1.84586e-17)
(0.853909 1.27411e-17 -1.89342e-16)
(0.853909 1.12452e-16 1.95028e-17)
(0.857005 1.32536e-17 -1.93655e-16)
(0.857005 1.15277e-16 2.11933e-17)
(0.86009 1.27782e-17 -1.9669e-16)
(0.86009 1.14115e-16 2.17394e-17)
(0.863164 1.08795e-17 -2.01098e-16)
(0.863164 1.17824e-16 2.10392e-17)
(0.866228 1.06872e-17 -2.04904e-16)
(0.866228 1.19634e-16 2.00235e-17)
(0.869282 1.13242e-17 -2.07937e-16)
(0.869282 1.16244e-16 1.62695e-17)
(0.872325 6.99031e-18 -2.12425e-16)
(0.872325 1.12963e-16 9.8405e-18)
(0.875359 2.41952e-18 -2.16006e-16)
(0.875359 1.10064e-16 3.7213e-18)
(0.878383 5.79615e-18 -2.19818e-16)
(0.878383 1.07001e-16 -7.62814e-19)
(0.881397 8.67497e-18 -2.23323e-16)
(0.881397 1.07956e-16 -7.2815e-18)
(0.884401 5.12737e-18 -2.278e-16)
(0.884401 9.70427e-17 -1.58749e-17)
(0.887397 -1.13281e-19 -2.30415e-16)
(0.887397 1.01822e-16 -2.52083e-17)
(0.890383 -1.42915e-19 -2.31963e-16)
(0.890383 9.92595e-17 -3.12394e-17)
(0.89336 9.78545e-18 -2.36141e-16)
(0.89336 9.03916e-17 -3.82631e-17)
(0.896329 1.24563e-17 -2.42916e-16)
(0.896329 9.47794e-17 -4.46449e-17)
(0.899289 1.11788e-17 -2.45866e-16)
(0.899289 7.70367e-17 -5.62672e-17)
(0.90224 6.15174e-18 -2.49045e-16)
(0.90224 7.7688e-17 -5.81679e-17)
(0.905183 -2.90405e-18 -2.55144e-16)