/*--------------------------------*- C++ -*----------------------------------*\
| =========                 |                                                 |
| \\      /  F ield         | OpenFOAM: The Open Source CFD Toolbox           |
|  \\    /   O peration     | Version:  2106                                  |
|   \\  /    A nd           | Website:  www.openfoam.com                      |
|    \\/     M anipulation  |                                                 |
\*---------------------------------------------------------------------------*/
FoamFile
{
    version     2.0;
    format      ascii;
    arch        "LSB;label=32;scalar=64";
    class       volTensorField;
    location    "10090";
    object      grad(U);
}
// * * * * * * * * * * * * * * * * * * * * * * * * * * * * * * * * * * * * * //

dimensions      [0 0 -1 0 0 0 0];

internalField   nonuniform List<tensor> 
800
(
(-1.15363e-17 -1.80884e-26 1.46396e-27 13.3705 -2.73533e-40 1.18805e-13 0.0613706 -6.10739e-42 2.01184e-16)
(0 7.86915e-30 -1.68178e-27 13.3705 3.65655e-15 7.53588e-14 0.0613706 -1.07681e-17 1.72848e-16)
(-4.40478e-17 1.25191e-30 1.12987e-27 13.3642 2.32465e-13 1.13328e-13 0.186976 -2.94057e-15 1.08964e-15)
(0 -6.25957e-31 0 13.3642 9.26435e-15 7.3001e-14 0.186976 5.05668e-17 7.8799e-16)
(-5.97673e-18 -3.05658e-27 5.25957e-31 13.3576 0 5.88484e-14 0.275433 0 1.28599e-15)
(4.78138e-17 4.78005e-30 -1.19501e-30 13.3576 8.31051e-15 1.51463e-14 0.275433 8.88618e-17 8.61654e-16)
(0 0 0 13.3507 9.73556e-14 6.46541e-14 0.288395 -2.92841e-15 1.44677e-15)
(-8.02694e-17 0 0 13.3507 9.89971e-15 1.53767e-14 0.288395 1.47534e-16 9.40075e-16)
(-4.14188e-17 -5.90523e-31 9.73865e-31 13.3435 1.22321e-14 6.9078e-14 0.30196 -1.13932e-15 1.61165e-15)
(0 1.63328e-30 -1.08885e-30 13.3435 9.9022e-15 1.55599e-14 0.30196 2.1001e-16 1.02328e-15)
(0 4.15744e-30 -2.07872e-30 13.3359 -2.28067e-14 7.34322e-14 0.316154 -4.11415e-16 1.79434e-15)
(-2.41607e-16 -4.18087e-30 2.07872e-30 13.3359 9.87018e-15 1.56966e-14 0.316154 2.3335e-16 1.11129e-15)
(-8.02781e-17 2.61804e-30 -1.16571e-30 13.328 -1.59404e-14 7.79505e-14 0.331006 -3.61008e-16 1.99328e-15)
(0 -9.9212e-31 9.9212e-31 13.328 9.76653e-15 1.57851e-14 0.331006 2.40799e-16 1.20408e-15)
(-1.0109e-16 6.347e-31 7.37795e-31 13.3196 -1.51325e-14 8.25775e-14 0.346544 -4.09479e-16 2.21013e-15)
(0 9.47027e-31 -2.84108e-30 13.3196 9.66411e-15 1.5825e-14 0.346544 2.50771e-16 1.30161e-15)
(-1.2288e-16 3.3468e-30 -2.05745e-30 13.3108 -1.65566e-14 8.73453e-14 0.362799 -4.73863e-16 2.44761e-15)
(7.28595e-16 -1.55028e-30 0 13.3108 9.60417e-15 1.58182e-14 0.362799 2.61008e-16 1.40376e-15)
(4.85767e-16 -1.72579e-30 3.45158e-30 13.3015 -1.75708e-14 9.22882e-14 0.3798 -5.0734e-16 2.70798e-15)
(-2.42884e-16 8.62896e-31 -1.72579e-30 13.3015 9.2638e-15 1.57535e-14 0.3798 2.55776e-16 1.51045e-15)
(0 -3.2947e-30 1.64735e-30 13.2916 -1.73558e-14 8.4692e-14 0.397579 -5.07194e-16 2.23164e-15)
(-6.78328e-16 3.07532e-30 -1.64735e-30 13.2916 8.80559e-15 1.56193e-14 0.397579 2.59033e-16 1.62137e-15)
(-1.9459e-16 1.45159e-30 6.46247e-28 13.281 -1.65286e-14 0 0.416164 -5.04942e-16 1.57772e-30)
(7.78361e-16 2.60944e-31 0 13.281 8.5614e-15 1.54171e-14 0.416164 2.65405e-16 1.73618e-15)
(0 3.00201e-30 -1.50101e-30 13.2694 -1.61043e-14 -3.9588e-15 0.435584 -5.28781e-16 9.46702e-17)
(8.8309e-16 -1.93545e-30 1.50101e-30 13.2694 8.14532e-15 1.51592e-14 0.435584 2.5696e-16 1.85418e-15)
(-2.48183e-16 4.98103e-30 -7.97531e-31 13.2567 -1.60989e-14 -5.77471e-15 0.455863 -5.53801e-16 1.60844e-16)
(0 -2.86556e-30 0 13.2567 7.66841e-15 1.48402e-14 0.455863 2.58465e-16 1.97524e-15)
(0 2.73532e-30 -1.36766e-30 13.2423 -1.56557e-14 -7.48826e-15 0.477018 -5.48385e-16 2.28853e-16)
(0 -2.05149e-30 0 13.2423 7.16251e-15 1.44326e-14 0.477018 2.45545e-16 2.09865e-15)
(0 3.91649e-30 -2.611e-30 13.2258 -1.47786e-14 -9.0998e-15 0.499058 -5.41562e-16 3.00049e-16)
(-7.3493e-16 -2.611e-30 1.3055e-30 13.2258 6.53169e-15 1.39318e-14 0.499058 2.36026e-16 2.22365e-15)
(0 3.73848e-30 0 13.2062 -1.41812e-14 -1.05896e-14 0.521976 -5.54585e-16 3.72866e-16)
(0 -3.1154e-30 0 13.2062 6.31939e-15 1.33251e-14 0.521976 2.5269e-16 2.34909e-15)
(-1.41222e-15 5.03577e-30 -3.7811e-30 13.1824 -1.37152e-14 -1.19679e-14 0.545744 -5.55746e-16 4.47171e-16)
(-1.48516e-15 -2.9725e-30 0 13.1824 6.0187e-15 1.26289e-14 0.545744 2.34117e-16 2.47259e-15)
(-2.33455e-16 3.79466e-30 -2.73567e-30 13.1528 -1.31026e-14 -1.32928e-14 0.570302 -5.55465e-16 5.2345e-16)
(-3.8852e-15 -3.58468e-30 0 13.1528 5.41684e-15 1.18127e-14 0.570302 2.25068e-16 2.59448e-15)
(-4.41819e-16 8.34869e-30 -4.9725e-30 13.1154 -1.24601e-14 -1.44996e-14 0.595547 -5.51488e-16 6.05813e-16)
(0 -7.58693e-30 4.33539e-30 13.1154 4.6582e-15 1.08543e-14 0.595547 1.87935e-16 2.71158e-15)
(4.79566e-16 -4.91459e-30 6.01896e-31 13.0673 -1.17097e-14 -1.55692e-14 0.621322 -5.38111e-16 6.84257e-16)
(-1.91827e-15 3.3165e-30 0 13.0673 3.41066e-15 9.73976e-15 0.621322 1.28129e-16 2.82261e-15)
(5.55947e-16 -2.96268e-30 1.97512e-30 13.005 -1.08875e-14 -1.03329e-14 0.647394 -5.23173e-16 7.668e-16)
(2.07624e-15 5.795e-30 -9.87561e-31 13.005 2.79605e-15 8.47974e-15 0.647394 1.44902e-16 2.923e-15)
(-5.60368e-16 8.0816e-31 -5.98846e-31 12.9242 -9.76799e-15 1.64254e-15 0.673446 -4.73495e-16 4.1088e-16)
(6.72441e-15 2.83485e-30 0 12.9242 2.25258e-15 9.94755e-15 0.673446 8.37831e-17 3.01128e-15)
(0 -3.59932e-30 1.79966e-30 12.8196 -8.53946e-15 7.48744e-15 0.699061 -4.39579e-16 3.89912e-16)
(0 4.49914e-30 -1.79966e-30 12.8196 1.23955e-16 2.28797e-14 0.699061 3.31629e-18 3.15839e-15)
(0 8.5893e-31 0 12.6856 -7.41746e-15 6.64267e-15 0.72372 -3.90876e-16 3.53976e-16)
(-9.6707e-16 -8.5893e-31 0 12.6856 3.31347e-16 3.30945e-14 0.72372 3.45583e-17 3.60596e-15)
(6.95641e-16 -8.50306e-31 5.48923e-31 12.5159 -6.54287e-15 5.53575e-15 0.746814 -3.7727e-16 2.94824e-16)
(-9.23115e-16 -1.47443e-30 -1.63978e-30 12.5159 -2.83507e-31 3.28646e-14 0.746814 3.9443e-31 4.03417e-15)
(8.81158e-16 -3.1305e-30 0 12.3046 -5.78903e-15 4.43727e-15 0.76767 -3.34023e-16 2.50111e-16)
(0 3.91313e-30 0 12.3046 -8.69824e-16 3.18621e-14 0.76767 2.67564e-17 4.3354e-15)
(-7.95346e-16 4.62367e-30 -4.76351e-31 12.0468 -4.36553e-15 3.34604e-15 0.785603 -2.26194e-16 1.79558e-16)
(2.34028e-15 -1.12458e-30 -2.69996e-31 12.0468 -2.50987e-15 2.91196e-14 0.785603 1.56859e-16 2.66507e-15)
(-8.47863e-16 -7.66419e-30 -4.41735e-31 11.7392 -3.31647e-15 2.06685e-15 0.79998 -2.21552e-16 9.76439e-17)
(5.17715e-15 1.08177e-29 3.89216e-30 11.7392 -3.06861e-15 2.61221e-14 0.79998 1.669e-16 1.69326e-15)
(9.01941e-16 4.5578e-31 3.28456e-31 11.3808 -2.68125e-15 7.92116e-16 0.810296 -1.56244e-16 5.82035e-16)
(0 -1.36138e-30 0 11.3808 -3.74955e-15 2.27193e-14 0.810296 2.49401e-16 1.51672e-15)
(0 -8.41502e-30 0 10.9739 -1.31812e-15 -3.53614e-16 0.816233 -4.88382e-17 2.08632e-15)
(7.65874e-15 9.65923e-30 4.87879e-30 10.9739 -3.78913e-15 1.91445e-14 0.816233 5.17608e-16 1.31593e-15)
(1.01378e-15 -1.85154e-30 0 10.5235 4.77014e-29 -1.29831e-15 0.817705 0 2.30471e-15)
(4.0551e-15 6.137e-31 2.66011e-30 10.5235 -5.16901e-15 1.5508e-14 0.817705 1.09355e-15 1.08655e-15)
(1.33313e-15 -3.68831e-30 2.36811e-30 10.0374 1.59961e-15 -2.05923e-15 0.814862 -6.50462e-17 2.00953e-15)
(0 3.55216e-30 2.36811e-30 10.0374 -7.0086e-15 1.20046e-14 0.814862 2.09587e-15 8.60811e-16)
(-1.1284e-15 -4.75795e-30 -2.26048e-30 9.52512 3.42006e-15 -2.66805e-15 0.808065 -2.30446e-16 1.73503e-15)
(4.51358e-15 5.65119e-30 5.24164e-30 9.52512 -6.2707e-15 9.0682e-15 0.808065 2.14965e-15 6.80215e-16)
(-2.37178e-15 1.7376e-30 0 8.99721 4.33477e-15 -3.0447e-15 0.797827 -3.55236e-16 1.47676e-15)
(4.74355e-15 0 3.1108e-30 8.99721 -5.28762e-15 6.51565e-15 0.797827 2.13024e-15 4.78224e-16)
(-1.15949e-15 3.08949e-30 0 8.46397 5.1991e-15 -2.92409e-15 0.784753 -4.2009e-16 1.24511e-15)
(0 0 -2.05966e-30 8.46397 -6.25033e-15 4.19595e-15 0.784753 2.07899e-15 3.0239e-16)
(-9.13935e-16 7.0587e-30 0 7.9348 5.90198e-15 -2.74913e-15 0.769472 -5.55361e-16 1.05672e-15)
(5.19854e-15 -5.89814e-30 1.25289e-30 7.9348 -7.50971e-15 2.81436e-15 0.769472 1.95126e-15 2.47727e-16)
(1.35537e-15 -4.5205e-30 -1.87669e-30 7.41763 4.02464e-15 -2.88646e-15 0.752589 -6.02035e-16 8.74029e-16)
(5.42149e-15 3.75337e-30 5.12988e-30 7.41763 -6.55628e-15 1.86981e-15 0.752589 1.79728e-15 1.33388e-16)
(3.42701e-15 -4.38935e-30 0 6.91865 2.06071e-15 -2.03307e-15 0.734649 -2.15014e-16 7.23205e-16)
(3.62341e-15 4.47847e-30 0 6.91865 -4.20407e-15 -2.46519e-32 0.734649 1.71495e-15 7.88861e-31)
(1.46363e-15 1.76857e-30 1.70997e-30 6.44233 3.31899e-15 -1.62252e-15 0.716116 -2.28393e-16 6.72216e-16)
(0 -8.54983e-31 -1.70997e-30 6.44233 -3.80631e-15 -9.41503e-16 0.716116 1.67607e-15 9.22532e-17)
(1.83775e-15 -3.26449e-30 1.63225e-30 5.99157 4.63241e-15 -1.45151e-15 0.697371 -5.26164e-16 6.01664e-16)
(0 4.08061e-30 1.63225e-30 5.99157 -4.06618e-15 -1.9782e-15 0.697371 1.65936e-15 1.20486e-16)
(-4.88802e-15 2.95896e-30 0 5.56794 4.89479e-15 -8.99888e-16 0.678711 -5.67988e-16 6.16155e-16)
(0 0 0 5.56794 -3.9848e-15 -2.75094e-15 0.678711 1.61861e-15 3.51716e-16)
(1.61654e-15 2.30479e-30 2.97448e-30 5.17194 4.46858e-15 -1.60023e-15 0.660362 -6.43875e-16 6.10199e-16)
(-8.14066e-15 0 -5.77681e-30 5.17194 -3.07223e-15 -2.33102e-15 0.660362 1.43971e-15 3.27819e-16)
(4.8616e-15 -3.51007e-30 0 4.80332 4.4567e-15 -1.40083e-15 0.642486 -5.10354e-16 5.69393e-16)
(3.46263e-15 2.83929e-30 5.60051e-30 4.80332 -2.46419e-15 -2.71063e-15 0.642486 1.371e-15 2.74664e-16)
(1.71183e-15 -6.17941e-31 0 4.46123 5.58399e-15 -4.87642e-16 0.625196 -7.03353e-16 5.85588e-16)
(-9.89877e-15 0 -5.25629e-30 4.46123 -2.63002e-15 -3.30607e-15 0.625196 1.19228e-15 4.6523e-16)
(0 1.29353e-30 2.58705e-30 4.14449 4.60398e-15 -8.54077e-16 0.608562 -8.88166e-16 5.80075e-16)
(0 0 -2.58705e-30 4.14449 -7.21472e-16 -3.62037e-15 0.608562 9.89739e-16 4.74723e-16)
(-1.80196e-15 5.99581e-31 2.46947e-30 3.85165 3.05497e-15 -1.9461e-15 0.592624 -4.73156e-16 5.24961e-16)
(-2.78037e-15 0 -2.46947e-30 3.85165 -8.61091e-16 -4.02136e-15 0.592624 9.34361e-16 6.06413e-16)
(2.654e-15 -2.35723e-30 0 3.58118 2.73828e-15 -1.99657e-15 0.577398 -4.80029e-16 4.55098e-16)
(0 2.35723e-30 0 3.58118 -1.72752e-15 -4.23863e-15 0.577398 7.72286e-16 6.49076e-16)
(-3.77454e-15 5.66229e-30 0 3.3315 2.61295e-15 -1.77199e-15 0.562884 -4.13325e-16 4.41982e-16)
(7.54908e-15 -4.50018e-30 2.05083e-30 3.3315 -7.61845e-16 -4.73896e-15 0.562884 7.2384e-16 7.38237e-16)
(2.41823e-15 1.07391e-30 0 3.10105 4.18563e-15 -2.99751e-15 0.549067 -4.82899e-16 4.03076e-16)
(-7.71299e-15 0 -1.89239e-30 3.10105 -1.16992e-15 -5.63532e-15 0.549067 6.4785e-16 8.87737e-16)
(3.93634e-15 1.17916e-30 0 2.88831 4.7902e-15 -3.43259e-15 0.535926 -1.03114e-15 3.00924e-16)
(7.87268e-15 -2.0502e-30 1.68244e-30 2.88831 -1.7573e-15 -5.82327e-15 0.535926 5.26306e-16 1.13937e-15)
(0 -9.78506e-31 -1.95701e-30 2.69187 3.52277e-15 -2.54112e-15 0.52343 -7.62562e-16 2.36651e-16)
(8.02836e-15 1.95701e-30 1.67248e-30 2.69187 -2.70739e-15 -5.02768e-15 0.52343 3.1123e-16 1.0466e-15)
(0 3.73612e-30 0 2.51038 3.99744e-15 -1.91671e-15 0.51155 -6.20869e-16 1.49377e-16)
(0 -3.73612e-30 0 2.51038 -4.08278e-15 -4.52137e-15 0.51155 1.67882e-16 9.29819e-16)
(0 2.67473e-30 0 2.34259 4.7399e-15 -1.85633e-15 0.50025 -1.03732e-15 7.21205e-17)
(0 -2.67473e-30 0 2.34259 -3.34208e-15 -4.40343e-15 0.50025 1.00691e-17 9.34871e-16)
(0 1.70211e-30 0 2.18736 4.25155e-15 -3.1555e-15 0.489495 -1.00981e-15 3.93522e-18)
(8.47331e-15 -8.51054e-31 1.5486e-30 2.18736 -2.24844e-15 -4.59765e-15 0.489495 -2.38696e-16 9.68308e-16)
(4.30743e-15 2.44128e-31 0 2.04363 3.33388e-15 -3.19384e-15 0.479251 -9.12167e-16 -2.23954e-16)
(0 -2.43712e-30 0 2.04363 -2.88341e-15 -4.64031e-15 0.479251 -3.63742e-16 1.11602e-15)
(-2.18833e-15 -1.24874e-30 -1.5509e-30 1.91043 1.98815e-15 -1.60342e-15 0.469482 -6.6279e-16 -2.79456e-16)
(1.75066e-14 1.5509e-30 3.77649e-30 1.91043 -1.60713e-15 -2.91961e-15 0.469482 -5.23901e-16 1.08342e-15)
(2.2222e-15 -1.0758e-30 0 1.78688 5.7998e-16 6.01477e-16 0.460156 -3.16728e-16 -4.68653e-16)
(8.88879e-15 7.40204e-31 2.93586e-30 1.78688 -7.01334e-16 -6.31996e-16 0.460156 -4.63702e-16 3.49763e-16)
(-2.25536e-15 -8.58295e-45 0 1.67218 2.65193e-30 3.14796e-15 0.451238 -3.9443e-31 -3.61601e-16)
(0 2.11968e-30 0 1.67218 -1.15437e-15 3.19219e-30 0.451238 -6.7042e-16 -3.9443e-31)
(0 -1.34889e-30 0 1.5656 1.63343e-15 2.68775e-15 0.4427 -3.25993e-16 7.89478e-17)
(1.83029e-14 1.34889e-30 2.63225e-30 1.5656 1.35356e-16 -5.47288e-16 0.4427 -6.33624e-16 3.46989e-16)
(5.21909e-15 -2.81002e-30 0 1.46647 1.43459e-15 5.64182e-16 0.434509 -6.13569e-16 2.2716e-16)
(9.27886e-15 2.57517e-30 1.33646e-30 1.46647 3.43482e-16 5.89537e-16 0.434509 -3.27543e-16 3.15545e-16)
(0 0 0 1.37418 8.14099e-16 3.53847e-16 0.426638 -2.35978e-16 1.41082e-16)
(9.40383e-15 0 0 1.37418 -1.13991e-15 -4.58525e-30 0.426638 -4.8936e-16 3.9443e-31)
(2.64181e-15 1.1732e-30 1.1732e-30 1.28818 8.19667e-16 9.5392e-16 0.41906 -2.75209e-16 1.23771e-16)
(-1.21683e-14 0 -2.11251e-30 1.28818 -7.66734e-16 -1.91115e-15 0.41906 -7.18511e-16 4.56689e-16)
(2.41171e-15 -1.44688e-30 1.11987e-30 1.20798 1.21825e-15 9.91062e-16 0.411749 -2.62729e-16 1.24771e-16)
(9.64682e-15 1.11987e-30 -8.23547e-31 1.20798 4.7706e-16 -2.42408e-15 0.411749 -7.25995e-16 9.25434e-16)
(2.44126e-15 8.02961e-31 0 1.13311 2.35207e-15 1.18342e-15 0.404679 -5.82761e-16 4.13642e-17)
(-2.40712e-15 0 0 1.13311 1.52124e-16 -5.06289e-16 0.404679 -5.60752e-16 5.3362e-16)
(-1.72581e-16 -8.79035e-31 1.02039e-30 1.06316 2.30066e-15 1.98913e-15 0.397828 -1.1249e-15 -1.44941e-16)
(1.74646e-14 1.02039e-30 -1.02039e-30 1.06316 -3.46854e-16 1.61639e-15 0.397828 -3.59197e-16 1.16101e-16)
(-2.49882e-15 -8.17858e-31 5.44518e-32 0.997757 6.95935e-16 2.0592e-32 0.391172 -5.99842e-16 0)
(-9.99527e-15 9.74009e-31 0 0.997757 -1.55421e-15 1.54794e-15 0.391172 -3.74662e-16 1.482e-16)
(0 -2.2375e-31 1.85948e-30 0.936547 -6.06709e-31 -1.65187e-15 0.38469 0 -3.11307e-16)
(0 9.29739e-31 -1.85948e-30 0.936547 -8.60575e-16 1.27183e-15 0.38469 -4.01288e-16 2.42409e-16)
(-9.10572e-15 -8.87481e-31 1.77496e-30 0.879215 2.79167e-15 9.0943e-16 0.37836 -1.26335e-15 -9.48701e-17)
(0 8.87481e-31 -1.77496e-30 0.879215 2.23615e-16 1.25667e-15 0.37836 -3.21775e-16 2.37909e-16)
(-6.39674e-15 1.69429e-30 0 0.825472 1.20723e-15 4.50968e-16 0.372161 -1.09747e-15 -4.02102e-16)
(-6.51099e-15 -1.63354e-30 -6.0942e-31 0.825472 -7.22643e-16 -2.95823e-31 0.372161 -5.29315e-16 0)
(0 0 -2.43087e-63 0.775054 -2.71858e-16 -1.67221e-62 0.366073 -1.91839e-16 -3.26683e-16)
(0 0 0 0.775054 -8.91465e-16 -1.11109e-15 0.366073 -3.66503e-16 2.78583e-16)
(-5.2689e-15 1.86466e-31 0 0.727715 2.22414e-16 -2.54069e-16 0.360075 -5.54944e-17 1.72948e-17)
(0 0 0 0.727715 -6.60735e-16 8.51934e-16 0.360075 -2.91185e-16 -1.12295e-16)
(5.97852e-15 -1.4736e-30 0 0.683232 4.68991e-16 -8.56408e-16 0.354148 -8.55755e-16 4.51325e-17)
(0 -7.36802e-31 0 0.683232 -5.48781e-16 4.20966e-31 0.354148 -2.82395e-16 0)
(-2.20385e-15 -6.83868e-31 1.40663e-30 0.641398 -1.32261e-15 4.5494e-16 0.348269 -1.21131e-15 -8.76274e-16)
(1.07426e-14 3.67841e-45 0 0.641398 8.13513e-31 -4.48306e-16 0.348269 -2.45599e-46 -2.18993e-16)
(2.71062e-15 -4.55865e-31 8.10747e-32 0.602022 -2.85228e-30 -1.47911e-31 0.342417 1.97215e-31 -2.92102e-16)
(2.1685e-14 -2.60989e-31 0 0.602022 1.07504e-15 -2.54007e-15 0.342417 -5.81097e-16 -8.13365e-16)
(0 -1.28167e-30 0 0.564928 5.0619e-16 -6.39977e-16 0.336571 -1.27054e-15 -5.15704e-16)
(1.09408e-14 1.27485e-30 0 0.564928 -2.44829e-16 -7.62864e-16 0.336571 -1.11271e-15 -6.57888e-16)
(-2.75936e-15 1.81456e-31 0 0.529952 -4.07274e-16 -9.86076e-32 0.330705 -3.19609e-16 -2.63396e-16)
(-5.50976e-15 1.22341e-30 0 0.529952 -1.53491e-16 -7.86022e-16 0.330705 -4.83258e-17 7.14988e-17)
(5.25933e-15 -1.16781e-30 2.02676e-30 0.49694 1.69828e-16 -1.44064e-15 0.324795 -5.84559e-16 -4.65912e-16)
(2.22651e-14 -4.2039e-45 0 0.49694 -2.26575e-30 -1.40911e-15 0.324795 -1.97215e-31 -5.34787e-16)
(-2.8065e-15 2.1539e-31 0 0.46575 7.11641e-18 -1.22934e-15 0.318812 -2.45902e-18 -3.37551e-16)
(1.1226e-14 -6.6182e-32 0 0.46575 5.08357e-16 1.03942e-15 0.318812 -1.32651e-15 -8.94908e-16)
(-2.82947e-15 8.80756e-31 0 0.436248 1.30073e-16 1.00434e-15 0.312726 -4.70858e-17 -1.45566e-16)
(-1.13179e-14 2.50647e-30 -2.28201e-30 0.436248 6.1043e-17 -1.97215e-31 0.312726 -2.20973e-17 -2.58576e-16)
(-9.1486e-15 5.07849e-31 -9.97211e-31 0.408307 2.21998e-15 -2.31247e-16 0.306503 -1.64819e-15 -4.58716e-16)
(1.59824e-14 0 0 0.408307 2.55177e-15 -5.52695e-16 0.306503 -1.95666e-15 1.93968e-16)
(0 4.84767e-31 0 0.381809 2.06068e-15 1.11884e-15 0.300104 -1.39849e-15 2.4039e-16)
(0 0 0 0.381809 1.23441e-15 -2.20182e-16 0.300104 -1.76398e-15 -4.02218e-16)
(1.272e-15 1.71171e-32 3.91694e-31 0.356639 2.14174e-15 0 0.293485 -1.88763e-15 0)
(-1.57516e-14 2.13048e-30 0 0.356639 3.38895e-16 2.25001e-15 0.293485 -1.4105e-16 -2.3985e-16)
(0 -3.86402e-31 0 0.332686 7.25921e-16 1.08907e-16 0.286594 -1.64765e-15 3.12264e-16)
(-1.1669e-14 6.65416e-31 1.75162e-46 0.332686 7.57608e-16 -5.7609e-45 0.286594 -1.66028e-15 0)
(2.93814e-15 -1.87386e-32 4.36289e-32 0.309845 -3.50024e-16 -1.59334e-30 0.279371 -1.3131e-15 4.93038e-32)
(-1.17525e-14 1.08885e-30 0 0.309845 4.35541e-30 1.10788e-15 0.279371 0 5.41218e-16)
(6.58363e-15 -2.56337e-31 0 0.28801 2.46519e-31 5.41422e-16 0.271746 0 -7.58017e-16)
(1.18343e-14 0 1.52692e-30 0.28801 2.56369e-15 1.6264e-16 0.271746 -4.3929e-16 -2.55931e-16)
(5.95713e-15 -8.64381e-31 0 0.267077 1.29398e-15 2.30438e-15 0.263633 -6.48998e-16 -2.92049e-16)
(3.46029e-15 7.68339e-31 0 0.267077 9.19809e-16 4.94754e-16 0.263633 5.4792e-16 -6.06298e-16)
(2.99806e-15 0 0 0.24694 7.98101e-16 -3.60143e-16 0.25493 -3.57004e-16 2.04378e-16)
(0 0 0 0.24694 -1.72225e-16 1.09917e-30 0.25493 1.21094e-16 4.93038e-32)
(3.15289e-15 -8.69824e-32 0 0.227488 -7.79901e-31 2.23404e-16 0.245508 -2.46519e-32 -6.90046e-16)
(-3.15289e-15 0 0 0.227488 1.62473e-16 -4.01183e-17 0.245508 4.56871e-17 -2.01197e-16)
(0 0 1.23052e-31 0.208605 3.09647e-16 0 0.235211 -3.54126e-17 -1.29544e-16)
(0 0 0 0.208605 -3.60662e-16 -7.53969e-16 0.235211 -3.06019e-16 -9.99685e-17)
(0 0 0 0.190163 -9.67747e-16 -1.50952e-15 0.22384 8.94238e-17 -7.26194e-16)
(0 0 0 0.190163 -1.10191e-15 -4.77573e-16 0.22384 -5.26567e-16 -6.48772e-16)
(-5.48444e-15 -2.91225e-31 0 0.172019 -5.07463e-16 -2.40241e-15 0.211141 -3.2102e-16 2.80413e-16)
(0 4.38748e-31 -8.75737e-31 0.172019 2.95823e-31 -5.87178e-16 0.211141 0 -1.26058e-17)
(6.17472e-15 -3.2405e-45 0 0.15401 -6.45434e-30 -2.67724e-16 0.196788 -1.97215e-31 -5.37233e-16)
(1.23494e-14 0 -1.16244e-30 0.15401 4.17265e-16 -2.22048e-15 0.196788 -7.87732e-16 -4.73973e-16)
(0 1.59522e-31 -2.45227e-44 0.135944 8.53493e-16 -5.37205e-30 0.180359 -9.01721e-16 -5.76078e-46)
(0 1.38701e-31 0 0.135944 3.00744e-16 -3.95954e-16 0.180359 -3.98153e-16 -1.64246e-16)
(-3.11845e-15 1.53768e-31 0 0.117592 -1.97215e-31 -1.05007e-15 0.161312 -1.10802e-15 6.02283e-16)
(1.24738e-14 -1.32396e-31 0 0.117592 -4.96925e-16 8.84927e-17 0.161312 -1.4443e-15 -1.65188e-16)
(1.42053e-15 -2.52758e-31 1.1121e-30 0.0986896 -3.01301e-15 -2.3712e-15 0.138961 -1.95456e-15 6.06809e-16)
(0 0 0 0.0986896 -2.062e-15 -1.17696e-15 0.138961 -2.30951e-15 8.96802e-16)
(0 -1.47715e-30 4.82539e-31 0.0789432 1.63513e-29 8.98096e-16 0.112488 0 9.69882e-17)
(2.51685e-14 -2.66601e-30 0 0.0789432 -1.49331e-15 -2.74477e-15 0.112488 -1.31783e-15 3.08886e-16)
(-3.15824e-15 4.12033e-31 -4.90454e-44 0.058062 5.54297e-16 -1.06196e-29 0.080999 -1.1967e-15 1.60912e-45)
(1.2633e-14 3.50325e-46 -9.21214e-31 0.058062 7.88861e-31 1.46504e-15 0.080999 -2.86918e-46 -1.27047e-15)
(-3.96021e-15 1.31901e-30 -1.16452e-30 0.0358267 4.05757e-16 -8.90697e-16 0.0436809 -1.60449e-15 7.80319e-16)
(0 -8.79343e-31 8.79343e-31 0.0358267 -5.91646e-31 3.56079e-15 0.0436809 -3.33189e-15 4.36002e-16)
(1.84097e-18 3.53625e-31 8.39376e-31 9.83315e-11 8.50365e-16 1.08265e-15 9.0246e-11 -7.80457e-16 -1.94415e-16)
(-3.78021e-15 0 -8.39376e-31 9.83218e-11 1.01283e-15 0 9.02389e-11 -1.38922e-15 4.73317e-30)
(0 -3.84236e-33 -3.5862e-32 13.3705 2.06255e-15 -2.8234e-14 -0.0613706 7.90628e-15 -2.01184e-16)
(0 3.84236e-33 3.5862e-32 13.3705 5.2439e-16 -3.27598e-17 -0.0613706 1.07681e-17 -1.72848e-16)
(0 -4.89029e-33 7.82446e-32 13.3642 5.04223e-15 -8.68559e-15 -0.186976 2.94057e-15 -1.55002e-15)
(0 0 0 13.3642 1.15338e-15 -5.21811e-17 -0.186976 -5.05668e-17 -7.8799e-16)
(1.19535e-17 -9.33603e-33 1.12032e-31 13.3576 4.67125e-15 -4.2374e-15 -0.275433 5.80475e-15 -1.80155e-15)
(0 9.33603e-33 -1.12032e-31 13.3576 1.26913e-15 -5.86201e-17 -0.275433 -8.88618e-17 -8.61654e-16)
(0 0 0 13.3507 5.46234e-15 -4.21779e-15 -0.288395 5.04449e-15 -2.10122e-15)
(-8.02694e-17 0 0 13.3507 1.57255e-15 -7.08243e-17 -0.288395 -1.47534e-16 -9.40075e-16)
(1.1804e-16 -1.70133e-32 6.80532e-32 13.3435 5.50915e-15 -4.17585e-15 -0.30196 4.73014e-15 -2.44021e-15)
(-2.42296e-16 1.70133e-32 -6.80532e-32 13.3435 1.67145e-15 -8.19793e-17 -0.30196 -2.1001e-16 -1.02328e-15)
(0 -1.2992e-31 2.5984e-31 13.3359 5.60153e-15 -4.10947e-15 -0.316154 4.85866e-15 -2.81964e-15)
(-2.41607e-16 1.2992e-31 -2.5984e-31 13.3359 1.77646e-15 -9.42099e-17 -0.316154 -2.7555e-16 -1.11129e-15)
(0 3.10038e-32 0 13.328 5.66656e-15 -4.01705e-15 -0.331006 4.92803e-15 -3.2441e-15)
(0 -3.10038e-32 0 13.328 1.89235e-15 -1.07461e-16 -0.331006 -3.44983e-16 -1.20408e-15)
(0 -5.91892e-32 1.18378e-31 13.3196 5.67502e-15 -3.90029e-15 -0.346544 4.98297e-15 -3.7178e-15)
(-5.37642e-16 2.95946e-32 -5.91892e-32 13.3196 1.98264e-15 -1.23446e-16 -0.346544 -4.17065e-16 -1.30161e-15)
(-8.68767e-18 -2.25996e-31 4.51991e-31 13.3108 5.71276e-15 -3.75857e-15 -0.362799 5.04848e-15 -4.24537e-15)
(0 1.69497e-31 -3.95493e-31 13.3108 2.16855e-15 -1.42444e-16 -0.362799 -4.93109e-16 -1.40376e-15)
(1.45695e-16 -1.07862e-31 2.15724e-31 13.3015 5.71408e-15 -3.58725e-15 -0.3798 5.12768e-15 -4.83218e-15)
(-5.82781e-16 2.15724e-31 -3.23586e-31 13.3015 2.2879e-15 -1.6108e-16 -0.3798 -5.73937e-16 -1.51045e-15)
(2.31844e-16 1.54439e-31 -1.54439e-31 13.2916 5.6081e-15 -3.38168e-15 -0.397579 5.21404e-15 -5.48423e-15)
(-6.78328e-16 -1.54439e-31 2.05919e-31 13.2916 2.24702e-15 -1.79637e-16 -0.397579 -6.54239e-16 -1.62137e-15)
(2.21306e-16 -9.82798e-32 2.94839e-31 13.281 5.4753e-15 -3.13924e-15 -0.416164 5.29934e-15 -6.01768e-15)
(-9.99668e-16 1.9656e-31 -3.93119e-31 13.281 2.66396e-15 -2.15425e-16 -0.416164 -7.3548e-16 -1.73618e-15)
(-2.20772e-16 -1.87626e-31 1.87626e-31 13.2694 5.28223e-15 -2.87841e-15 -0.435584 5.38323e-15 -5.97043e-15)
(8.8309e-16 0 0 13.2694 3.42469e-15 -2.58016e-16 -0.435584 -8.26319e-16 -1.85418e-15)
(-2.48183e-16 -8.95489e-32 5.37293e-31 13.2567 5.08707e-15 -2.60459e-15 -0.455863 5.47305e-15 -5.90766e-15)
(-9.92732e-16 8.95489e-32 -5.37293e-31 13.2567 3.44148e-15 -2.93487e-16 -0.455863 -9.2114e-16 -1.97524e-15)
(0 -2.56436e-31 4.27394e-31 13.2423 5.04266e-15 -2.31052e-15 -0.477018 5.56839e-15 -5.82928e-15)
(-1.10752e-15 2.56436e-31 -4.27394e-31 13.2423 3.17465e-15 -3.22773e-16 -0.477018 -1.01292e-15 -2.09865e-15)
(6.1384e-16 0 0 13.2258 4.97645e-15 -1.98463e-15 -0.499058 5.65977e-15 -5.7348e-15)
(0 0 0 13.2258 3.47467e-15 -3.51664e-16 -0.499058 -1.10306e-15 -2.22365e-15)
(-3.38369e-16 0 0 13.2062 4.75721e-15 -1.61702e-15 -0.521976 5.7491e-15 -5.62451e-15)
(1.35347e-15 0 7.7885e-32 13.2062 4.02717e-15 -4.3634e-16 -0.521976 -1.19754e-15 -2.34909e-15)
(-7.42579e-16 0 1.4869e-31 13.1824 4.32041e-15 -1.26423e-15 -0.545744 5.84191e-15 -5.49862e-15)
(-1.48516e-15 0 -7.43451e-32 13.1824 4.40079e-15 -5.02032e-16 -0.545744 -1.3032e-15 -2.47259e-15)
(1.04495e-15 1.41932e-31 -2.12898e-31 13.1528 3.73662e-15 -9.30567e-16 -0.570302 5.93934e-15 -5.35633e-15)
(0 0 2.12898e-31 13.1528 4.61977e-15 -5.35493e-16 -0.570302 -1.40841e-15 -2.59448e-15)
(1.05197e-15 0 2.70962e-31 13.1154 3.79405e-15 -5.63892e-16 -0.595547 6.04058e-15 -5.19665e-15)
(-6.10152e-16 1.35481e-31 -4.06443e-31 13.1154 4.37106e-15 -5.77123e-16 -0.595547 -1.51606e-15 -2.71158e-15)
(4.79566e-16 2.58646e-31 -3.87969e-31 13.0673 4.20932e-15 -5.23889e-16 -0.621322 6.13159e-15 -5.02138e-15)
(-1.91827e-15 0 2.58646e-31 13.0673 4.03753e-15 -6.43426e-16 -0.621322 -1.60861e-15 -2.82261e-15)
(5.19061e-16 0 0 13.005 4.1048e-15 -1.88268e-15 -0.647394 6.21493e-15 -4.82161e-15)
(-5.55947e-16 -2.4689e-31 0 13.005 4.46715e-15 -7.28536e-16 -0.647394 -1.68909e-15 -2.923e-15)
(5.90056e-16 2.35669e-31 -2.35669e-31 12.9242 3.72319e-15 -3.00928e-15 -0.673446 6.2969e-15 -4.72602e-15)
(5.30679e-16 -2.35669e-31 2.35669e-31 12.9242 4.70855e-15 -7.84145e-16 -0.673446 -1.78605e-15 -3.01128e-15)
(0 4.49914e-31 -2.24957e-31 12.8196 3.22574e-15 -1.39612e-14 -0.699061 6.36907e-15 -4.79042e-15)
(0 -4.49914e-31 2.24957e-31 12.8196 4.9728e-15 -9.13383e-16 -0.699061 -1.86648e-15 -3.15839e-15)
(0 0 0 12.6856 2.5864e-15 -2.58741e-14 -0.72372 6.43902e-15 -4.54563e-15)
(0 -2.14733e-31 0 12.6856 5.93999e-15 -1.83176e-15 -0.72372 -1.94121e-15 -3.60596e-15)
(0 -4.09945e-31 1.63978e-30 12.5159 2.05357e-15 -2.63202e-14 -0.746814 6.50437e-15 -4.25023e-15)
(-9.23115e-16 0 -1.22984e-30 12.5159 6.15221e-15 -3.29632e-15 -0.746814 -1.85417e-15 -4.03417e-15)
(1.62572e-15 0 -7.82625e-31 12.3046 1.77025e-15 -2.51788e-14 -0.76767 6.57086e-15 -3.93488e-15)
(-8.81158e-16 0 7.82625e-31 12.3046 5.57275e-15 -4.64895e-15 -0.76767 -1.47749e-15 -4.47444e-15)
(8.41108e-16 -3.73527e-31 1.12058e-30 12.0468 1.69414e-15 -2.36406e-14 -0.785603 6.62777e-15 -3.61203e-15)
(2.34028e-15 6.56756e-31 -3.73527e-31 12.0468 4.97831e-15 -6.58691e-15 -0.785603 -9.85208e-16 -4.87023e-15)
(-8.47863e-16 0 1.4262e-30 11.7392 1.71558e-15 -2.17118e-14 -0.79998 6.65629e-15 -3.28068e-15)
(0 -3.5655e-31 -7.13099e-31 11.7392 4.32502e-15 -7.93646e-15 -0.79998 -5.12708e-16 -5.19901e-15)
(1.80388e-15 0 -1.36138e-30 11.3808 2.04009e-15 -1.95114e-14 -0.810296 6.68174e-15 -2.94881e-15)
(3.60777e-15 1.10399e-30 1.36138e-30 11.3808 3.53737e-15 -8.22377e-15 -0.810296 -2.21314e-16 -5.48314e-15)
(1.91469e-15 0 0 10.9739 1.69098e-15 -1.70404e-14 -0.816233 6.67829e-15 -2.61866e-15)
(0 0 0 10.9739 3.48021e-15 -8.43465e-15 -0.816233 -2.96215e-16 -5.71035e-15)
(0 0 1.86065e-30 10.5235 -1.25469e-16 -1.44059e-14 -0.817705 6.67089e-15 -2.30471e-15)
(0 0 -2.48087e-30 10.5235 4.93223e-15 -8.32899e-15 -0.817705 -4.73702e-16 -5.87858e-15)
(1.33313e-15 0 -1.18405e-30 10.0374 -1.70717e-15 -1.19622e-14 -0.814862 6.68016e-15 -2.00953e-15)
(-1.33313e-15 0 1.18405e-30 10.0374 5.8054e-15 -7.74785e-15 -0.814862 -4.70503e-16 -5.98763e-15)
(1.1284e-15 0 -2.26048e-30 9.52512 -1.9256e-15 -9.84719e-15 -0.808065 6.66688e-15 -1.73503e-15)
(0 0 2.26048e-30 9.52512 4.96784e-15 -6.83259e-15 -0.808065 -3.73769e-16 -6.0506e-15)
(0 1.07887e-30 2.15773e-30 8.99721 -1.07328e-15 -7.94679e-15 -0.797827 6.61561e-15 -1.47676e-15)
(0 -1.07887e-30 -2.15773e-30 8.99721 3.72085e-15 -5.99729e-15 -0.797827 -2.88473e-16 -6.08214e-15)
(1.24306e-15 0 0 8.46397 2.46209e-16 -6.08153e-15 -0.784753 6.5203e-15 -1.24511e-15)
(0 -5.14915e-31 0 8.46397 2.46024e-15 -4.95093e-15 -0.784753 -1.68845e-16 -6.07278e-15)
(-9.13935e-16 0 3.93209e-30 7.9348 2.03832e-15 -4.82981e-15 -0.769472 6.3595e-15 -1.05672e-15)
(5.19854e-15 4.92694e-31 -2.94907e-30 7.9348 1.77062e-15 -4.41394e-15 -0.769472 -1.78273e-16 -6.04645e-15)
(-7.57589e-16 -9.38343e-31 0 7.41763 2.51368e-15 -3.62771e-15 -0.752589 6.12978e-15 -8.74029e-16)
(5.42149e-15 1.34674e-30 9.38343e-31 7.41763 1.91855e-15 -4.68719e-15 -0.752589 -2.16392e-16 -5.99383e-15)
(2.82017e-15 0 3.34933e-31 6.91865 9.87754e-16 -1.5472e-15 -0.734649 6.02696e-15 -7.23205e-16)
(-2.01692e-15 -4.47847e-31 0 6.91865 1.93046e-15 -4.25694e-15 -0.734649 -1.98275e-16 -5.90095e-15)
(2.92726e-15 0 0 6.44233 5.7526e-16 -5.27641e-16 -0.716116 5.9669e-15 -6.72216e-16)
(0 0 0 6.44233 2.80992e-15 -2.94929e-15 -0.716116 -4.40313e-16 -5.77584e-15)
(1.51592e-15 0 3.3399e-31 5.99157 1.3168e-15 5.86858e-46 -0.697371 5.80529e-15 -6.01664e-16)
(4.22595e-15 3.53152e-31 0 5.99157 3.1016e-15 -2.17704e-15 -0.697371 -2.88078e-16 -5.68258e-15)
(1.5669e-15 0 0 5.56794 5.54931e-16 1.04569e-15 -0.678711 5.61526e-15 -6.16155e-16)
(0 2.8026e-45 0 5.56794 -2.44508e-45 -2.20862e-15 -0.678711 4.53485e-30 -5.5293e-15)
(-3.23309e-15 0 0 5.17194 -2.69533e-16 8.90532e-16 -0.660362 5.4695e-15 -6.10199e-16)
(0 0 0 5.17194 -7.91437e-16 -2.00989e-15 -0.660362 -1.79557e-16 -5.37605e-15)
(1.66485e-15 0 0 4.80332 1.42484e-16 1.01845e-15 -0.642486 5.34385e-15 -5.69393e-16)
(8.25776e-15 1.42561e-29 0 4.80332 -3.20649e-16 -2.04583e-15 -0.642486 -2.17501e-17 -5.24884e-15)
(0 0 0 4.46123 1.87906e-18 6.45063e-16 -0.625196 5.15609e-15 -5.85588e-16)
(-8.37304e-15 -4.97796e-31 0 4.46123 -2.72746e-15 -1.73561e-15 -0.625196 -2.95527e-16 -5.05179e-15)
(1.75752e-15 -6.46763e-31 -1.29353e-30 4.14449 2.83121e-16 5.51787e-17 -0.608562 4.9464e-15 -5.80075e-16)
(7.03007e-15 9.27435e-31 1.29353e-30 4.14449 -2.78901e-15 -9.68743e-16 -0.608562 -4.84126e-16 -4.89142e-15)
(1.80196e-15 0 -1.75466e-46 3.85165 7.20572e-16 0 -0.592624 4.79359e-15 -5.24961e-16)
(-7.20783e-15 -3.28214e-31 -1.23473e-30 3.85165 -1.89532e-15 1.04319e-17 -0.592624 -3.43104e-16 -4.70965e-15)
(1.84519e-15 0 0 3.58118 -3.46707e-16 9.6481e-16 -0.577398 4.65221e-15 -4.55098e-16)
(0 0 0 3.58118 -8.81481e-16 8.5349e-16 -0.577398 -2.45898e-16 -4.57982e-15)
(-6.30792e-15 -5.62522e-31 2.25009e-30 3.3315 -6.95741e-16 1.17122e-15 -0.562884 4.60027e-15 -4.41982e-16)
(0 0 -1.12504e-30 3.3315 -4.36149e-16 1.42891e-15 -0.562884 -3.73316e-17 -4.43268e-15)
(0 -5.36954e-31 2.14782e-30 3.10105 5.66847e-16 1.44082e-15 -0.549067 4.48667e-15 -4.03076e-16)
(-2.41823e-15 0 -2.14782e-30 3.10105 -1.02118e-15 2.70551e-15 -0.549067 -2.00818e-16 -4.29676e-15)
(-1.96817e-15 0 -1.0251e-30 2.88831 6.85393e-16 1.65158e-15 -0.535926 4.16938e-15 -3.00924e-16)
(0 2.98994e-31 1.0251e-30 2.88831 -1.75234e-15 3.29329e-15 -0.535926 -1.64612e-16 -4.17018e-15)
(0 0 1.95701e-30 2.69187 2.35098e-16 1.00662e-15 -0.52343 3.97517e-15 -2.36651e-16)
(-8.02836e-15 0 -1.95701e-30 2.69187 -9.51638e-16 3.08339e-15 -0.52343 -3.1123e-16 -4.05947e-15)
(0 0 0 2.51038 -1.62986e-17 3.18584e-16 -0.51155 3.80001e-15 -1.49377e-16)