/*--------------------------------*- C++ -*----------------------------------*\
| =========                 |                                                 |
| \\      /  F ield         | OpenFOAM: The Open Source CFD Toolbox           |
|  \\    /   O peration     | Version:  2106                                  |
|   \\  /    A nd           | Website:  www.openfoam.com                      |
|    \\/     M anipulation  |                                                 |
\*---------------------------------------------------------------------------*/
FoamFile
{
    version     2.0;
    format      ascii;
    arch        "LSB;label=32;scalar=64";
    class       volScalarField;
    location    "10090";
    object      p;
}
// * * * * * * * * * * * * * * * * * * * * * * * * * * * * * * * * * * * * * //

dimensions      [0 2 -2 0 0 0 0];

internalField   nonuniform List<scalar> 
2000
(
4.10258e-15
-7.31839e-14
8.54217e-15
-7.31891e-14
7.23843e-15
-7.31975e-14
4.09485e-15
-7.32108e-14
1.13986e-15
-7.32293e-14
-1.48786e-15
-7.3253e-14
-4.01167e-15
-7.3282e-14
-6.4873e-15
-7.33161e-14
-8.91099e-15
-7.33552e-14
-1.12814e-14
-7.33994e-14
-1.36001e-14
-7.34486e-14
-1.58678e-14
-7.35028e-14
-1.8085e-14
-7.35616e-14
-2.02522e-14
-7.36251e-14
-2.23701e-14
-7.36932e-14
-2.44398e-14
-7.37658e-14
-2.64615e-14
-7.38428e-14
-2.84362e-14
-7.39242e-14
-3.03649e-14
-7.40096e-14
-3.22485e-14
-7.40995e-14
-3.40877e-14
-7.41932e-14
-3.58833e-14
-7.42908e-14
-3.76363e-14
-7.43923e-14
-3.9347e-14
-7.44976e-14
-4.10166e-14
-7.46066e-14
-4.26458e-14
-7.47193e-14
-4.42351e-14
-7.48353e-14
-4.57856e-14
-7.49547e-14
-4.72979e-14
-7.50771e-14
-4.87726e-14
-7.52029e-14
-5.02107e-14
-7.53318e-14
-5.16126e-14
-7.54636e-14
-5.2979e-14
-7.55983e-14
-5.43111e-14
-7.57356e-14
-5.56086e-14
-7.58759e-14
-5.68728e-14
-7.60186e-14
-5.81042e-14
-7.61638e-14
-5.93039e-14
-7.63111e-14
-6.04723e-14
-7.64603e-14
-6.161e-14
-7.66117e-14
-6.27179e-14
-7.67645e-14
-6.37962e-14
-7.69191e-14
-6.48454e-14
-7.70754e-14
-6.58661e-14
-7.72335e-14
-6.68592e-14
-7.73934e-14
-6.78257e-14
-7.75544e-14
-6.8766e-14
-7.77168e-14
-6.96801e-14
-7.78805e-14
-7.05689e-14
-7.80448e-14
-7.14323e-14
-7.82101e-14
-7.22719e-14
-7.8377e-14
-7.30877e-14
-7.8545e-14
-7.38817e-14
-7.87131e-14
-7.46527e-14
-7.88819e-14
-7.54021e-14
-7.90514e-14
-7.61301e-14
-7.92225e-14
-7.68369e-14
-7.93941e-14
-7.75229e-14
-7.95659e-14
-7.81893e-14
-7.97377e-14
-7.88365e-14
-7.991e-14
-7.94647e-14
-8.00833e-14
-8.00746e-14
-8.02574e-14
-8.06672e-14
-8.04307e-14
-8.12428e-14
-8.06035e-14
-8.18002e-14
-8.07773e-14
-8.23422e-14
-8.09508e-14
-8.28679e-14
-8.11243e-14
-8.33776e-14
-8.12984e-14
-8.38733e-14
-8.14722e-14
-8.43536e-14
-8.16463e-14
-8.48199e-14
-8.18201e-14
-8.52739e-14
-8.19927e-14
-8.57136e-14
-8.21659e-14
-8.61414e-14
-8.23396e-14
-8.65559e-14
-8.25145e-14
-8.69591e-14
-8.26891e-14
-8.73509e-14
-8.28625e-14
-8.77314e-14
-8.30358e-14
-8.81038e-14
-8.32091e-14
-8.84645e-14
-8.33838e-14
-8.88141e-14
-8.35595e-14
-8.91557e-14
-8.37343e-14
-8.94894e-14
-8.39083e-14
-8.98153e-14
-8.40852e-14
-9.01325e-14
-8.42627e-14
-9.04423e-14
-8.44393e-14
-9.07455e-14
-8.46161e-14
-9.10391e-14
-8.47939e-14
-9.13265e-14
-8.49716e-14
-9.16078e-14
-8.51484e-14
-9.18827e-14
-8.53278e-14
-9.21513e-14
-8.55081e-14
-9.2414e-14
-8.569e-14
-9.26737e-14
-8.58738e-14
-9.29258e-14
-8.60595e-14
-9.31724e-14
-8.62461e-14
-9.34163e-14
-8.64335e-14
-9.36542e-14
-8.6623e-14
-9.38883e-14
-8.68143e-14
-9.41169e-14
-8.70087e-14
-9.43405e-14
-8.72053e-14
-9.45596e-14
-8.74025e-14
-9.47746e-14
-8.76022e-14
-9.49875e-14
-8.78057e-14
-9.52002e-14
-8.80085e-14
-9.54074e-14
-8.82118e-14
-9.56124e-14
-8.84182e-14
-9.58113e-14
-8.86292e-14
-9.60075e-14
-8.88474e-14
-9.61923e-14
-8.90697e-14
-9.63796e-14
-8.92961e-14
-9.65639e-14
-8.95232e-14
-9.67455e-14
-8.97508e-14
-9.69217e-14
-8.99835e-14
-9.7096e-14
-9.02209e-14
-9.72687e-14
-9.04631e-14
-9.74449e-14
-9.06987e-14
-9.76187e-14
-9.09371e-14
-9.77954e-14
-9.11779e-14
-9.79672e-14
-9.1426e-14
-9.81426e-14
-9.1668e-14
-9.83172e-14
-9.19087e-14
-9.84898e-14
-9.21527e-14
-9.86557e-14
-9.23981e-14
-9.88253e-14
-9.26447e-14
-9.89923e-14
-9.28956e-14
-9.91571e-14
-9.31474e-14
-9.93165e-14
-9.34099e-14
-9.94778e-14
-9.3673e-14
-9.96309e-14
-9.39468e-14
-9.97794e-14
-9.42209e-14
-9.99199e-14
-9.44951e-14
-1.0007e-13
-9.47801e-14
-1.00221e-13
-9.50617e-14
-1.00374e-13
-9.53363e-14
-1.00524e-13
-9.56108e-14
-1.00681e-13
-9.58889e-14
-1.00835e-13
-9.61633e-14
-1.00989e-13
-9.64337e-14
-1.01144e-13
-9.67151e-14
-1.01304e-13
-9.7e-14
-1.01465e-13
-9.72771e-14
-1.01619e-13
-9.75463e-14
-1.01775e-13
-9.78191e-14
-1.01936e-13
-9.80876e-14
-1.02098e-13
-9.83518e-14
-1.02258e-13
-9.86116e-14
-1.0242e-13
-9.88708e-14
-1.02573e-13
-9.9137e-14
-1.02723e-13
-9.94025e-14
-1.02891e-13
-9.96714e-14
-1.03062e-13
-9.99515e-14
-1.03251e-13
-1.00219e-13
-1.03402e-13
-1.0049e-13
-1.03564e-13
-1.00756e-13
-1.03736e-13
-1.01017e-13
-1.03919e-13
-1.01274e-13
-1.04097e-13
-1.01535e-13
-1.04285e-13
-1.01815e-13
-1.04476e-13
-1.02083e-13
-1.04654e-13
-1.02347e-13
-1.04835e-13
-1.02614e-13
-1.05028e-13
-1.02894e-13
-1.05223e-13
-1.0317e-13
-1.05404e-13
-1.03434e-13
-1.05597e-13
-1.03719e-13
-1.058e-13
-1.0401e-13
-1.05989e-13
-1.04281e-13
-1.06171e-13
-1.04542e-13
-1.06363e-13
-1.0481e-13
-1.06565e-13
-1.05094e-13
-1.06759e-13
-1.05376e-13
-1.06971e-13
-1.05659e-13
-1.07157e-13
-1.05918e-13
-1.0736e-13
-1.06178e-13
-1.07553e-13
-1.06465e-13
-1.07779e-13
-1.06757e-13
-1.07986e-13
-1.07044e-13
-1.08206e-13
-1.07303e-13
-1.08408e-13
-1.07577e-13
-1.08588e-13
-1.07868e-13
-1.08832e-13
-1.08169e-13
-1.09104e-13
-1.08482e-13
-1.09354e-13
-1.08791e-13
-1.09598e-13
-1.09097e-13
-1.09852e-13
-1.09367e-13
-1.10117e-13
-1.09602e-13
-1.1036e-13
-1.09904e-13
-1.10598e-13
-1.10223e-13
-1.10844e-13
-1.10544e-13
-1.11099e-13
-1.10871e-13
-1.11359e-13
-1.1117e-13
-1.11625e-13
-1.11428e-13
-1.1188e-13
-1.11694e-13
-1.12125e-13
-1.11988e-13
-1.12357e-13
-1.12225e-13
-1.1263e-13
-1.12424e-13
-1.12861e-13
-1.12685e-13
-1.13102e-13
-1.12939e-13
-1.13319e-13
-1.13222e-13
-1.13526e-13
-1.13537e-13
-1.13801e-13
-1.13739e-13
-1.14032e-13
-1.1396e-13
-1.14237e-13
-1.142e-13
-1.14497e-13
-1.14477e-13
-1.14747e-13
-1.14659e-13
-1.14976e-13
-1.14924e-13
-1.15197e-13
-1.1521e-13
-1.15423e-13
-1.15423e-13
-1.15624e-13
-1.15629e-13
-1.15815e-13
-1.15845e-13
-1.16044e-13
-1.16075e-13
-1.16264e-13
-1.16301e-13
-1.16442e-13
-1.16491e-13
-1.16643e-13
-1.16743e-13
-1.16894e-13
-1.16972e-13
-1.17103e-13
-1.17115e-13
-1.17308e-13
-1.1729e-13
-1.17512e-13
-1.17557e-13
-1.17743e-13
-1.17763e-13
-1.1788e-13
-1.1794e-13
-1.18105e-13
-1.18216e-13
-1.1835e-13
-1.18417e-13
-1.1853e-13
-1.18538e-13
-1.18714e-13
-1.18634e-13
-1.1891e-13
-1.18813e-13
-1.1909e-13
-1.1901e-13
-1.19254e-13
-1.19199e-13
-1.19428e-13
-1.19353e-13
-1.19559e-13
-1.19527e-13
-1.197e-13
-1.19665e-13
-1.19822e-13
-1.19767e-13
-1.19956e-13
-1.19945e-13
-1.20094e-13
-1.20095e-13
-1.20154e-13
-1.20193e-13
-1.20239e-13
-1.2027e-13
-1.20322e-13
-1.20359e-13
-1.20399e-13
-1.20434e-13
-1.20494e-13
-1.20512e-13
-1.2058e-13
-1.20616e-13
-1.2066e-13
-1.20701e-13
-1.20732e-13
-1.20771e-13
-1.20739e-13
-1.20743e-13
-1.20869e-13
-1.2071e-13
-1.20898e-13
-1.20739e-13
-1.20931e-13
-1.20797e-13
-1.2096e-13
-1.20887e-13
-1.20924e-13
-1.20925e-13
-1.20951e-13
-1.20934e-13
-1.20938e-13
-1.21002e-13
-8.14569e-14
-8.51396e-14
-8.14596e-14
-8.51401e-14
-8.14639e-14
-8.51411e-14
-8.14708e-14
-8.51426e-14
-8.14804e-14
-8.51447e-14
-8.14927e-14
-8.51476e-14
-8.15078e-14
-8.51511e-14
-8.15255e-14
-8.51553e-14
-8.1546e-14
-8.51603e-14
-8.1569e-14
-8.51659e-14
-8.15947e-14
-8.51724e-14
-8.1623e-14
-8.51797e-14
-8.16537e-14
-8.51877e-14
-8.1687e-14
-8.51966e-14
-8.17226e-14
-8.52063e-14
-8.17606e-14
-8.5217e-14
-8.18011e-14
-8.52285e-14
-8.18439e-14
-8.52408e-14
-8.1889e-14
-8.52539e-14
-8.19362e-14
-8.5268e-14
-8.19856e-14
-8.5283e-14
-8.20369e-14
-8.5299e-14
-8.20902e-14
-8.53161e-14
-8.21457e-14
-8.5334e-14
-8.2203e-14
-8.53531e-14
-8.22623e-14
-8.5373e-14
-8.23235e-14
-8.53938e-14
-8.23862e-14
-8.5416e-14
-8.24506e-14
-8.54392e-14
-8.25169e-14
-8.54632e-14
-8.25849e-14
-8.54881e-14
-8.26545e-14
-8.55142e-14
-8.27258e-14
-8.55414e-14
-8.27986e-14
-8.55695e-14
-8.28731e-14
-8.55991e-14
-8.2949e-14
-8.56296e-14
-8.30262e-14
-8.56613e-14
-8.31055e-14
-8.56937e-14
-8.31863e-14
-8.57273e-14
-8.32683e-14
-8.57624e-14
-8.33517e-14
-8.57984e-14
-8.34369e-14
-8.58351e-14
-8.35234e-14
-8.5873e-14
-8.36113e-14
-8.59117e-14
-8.37004e-14
-8.59514e-14
-8.37905e-14
-8.5992e-14
-8.38809e-14
-8.60345e-14
-8.39725e-14
-8.60785e-14
-8.40651e-14
-8.61232e-14
-8.41585e-14
-8.61687e-14
-8.42528e-14
-8.62165e-14
-8.43478e-14
-8.62656e-14
-8.44439e-14
-8.63154e-14
-8.45406e-14
-8.63666e-14
-8.46386e-14
-8.64185e-14
-8.47375e-14
-8.64711e-14
-8.48373e-14
-8.6525e-14
-8.49382e-14
-8.65796e-14
-8.50397e-14
-8.66354e-14
-8.51416e-14
-8.66927e-14
-8.52445e-14
-8.6751e-14
-8.53481e-14
-8.68098e-14
-8.54525e-14
-8.687e-14
-8.55567e-14
-8.69312e-14
-8.56611e-14
-8.69938e-14
-8.57662e-14
-8.70573e-14
-8.58721e-14
-8.71211e-14
-8.59783e-14
-8.71862e-14
-8.60846e-14
-8.72533e-14
-8.6191e-14
-8.73217e-14
-8.62991e-14
-8.73886e-14
-8.64077e-14
-8.74565e-14
-8.6517e-14
-8.7526e-14
-8.6627e-14
-8.7598e-14
-8.67365e-14
-8.76714e-14
-8.68465e-14
-8.77473e-14
-8.69572e-14
-8.78217e-14
-8.70692e-14
-8.7896e-14
-8.71797e-14
-8.79752e-14
-8.72911e-14
-8.80563e-14
-8.74037e-14
-8.81362e-14
-8.75178e-14
-8.82166e-14
-8.76331e-14
-8.82993e-14
-8.77495e-14
-8.83852e-14
-8.78662e-14
-8.84736e-14
-8.79832e-14
-8.85615e-14
-8.81012e-14
-8.86492e-14
-8.82217e-14
-8.87395e-14
-8.83446e-14
-8.88325e-14
-8.84671e-14
-8.89276e-14
-8.85891e-14
-8.90249e-14
-8.87135e-14
-8.91236e-14
-8.88409e-14
-8.92226e-14
-8.89665e-14
-8.93254e-14
-8.90943e-14
-8.94299e-14
-8.92252e-14
-8.95327e-14
-8.93577e-14
-8.96374e-14
-8.94924e-14
-8.97456e-14
-8.96301e-14
-8.98544e-14
-8.977e-14
-8.99667e-14
-8.99129e-14
-9.0079e-14
-9.00536e-14
-9.01907e-14
-9.01981e-14
-9.03032e-14
-9.03432e-14
-9.04238e-14
-9.04949e-14
-9.05439e-14
-9.06428e-14
-9.06677e-14
-9.07944e-14
-9.0794e-14
-9.09538e-14
-9.09227e-14
-9.11184e-14
-9.10524e-14
-9.12804e-14
-9.1186e-14
-9.14385e-14
-9.1325e-14
-9.16076e-14
-9.14665e-14
-9.17756e-14
-9.1612e-14
-9.19516e-14
-9.17552e-14
-9.21264e-14
-9.19024e-14
-9.23014e-14
-9.20565e-14
-9.24846e-14
-9.2205e-14
-9.26696e-14
-9.23588e-14
-9.28499e-14
-9.2521e-14
-9.30334e-14
-9.26885e-14
-9.3217e-14
-9.28548e-14
-9.34102e-14
-9.30163e-14
-9.36016e-14
-9.31844e-14
-9.37945e-14
-9.33625e-14
-9.39921e-14
-9.35454e-14
-9.41926e-14
-9.37332e-14
-9.43893e-14
-9.39223e-14
-9.45854e-14
-9.41161e-14
-9.47807e-14
-9.43075e-14
-9.4989e-14
-9.45068e-14
-9.52e-14
-9.4714e-14
-9.54099e-14
-9.49183e-14
-9.56259e-14
-9.51231e-14
-9.58516e-14
-9.53318e-14
-9.60726e-14
-9.55513e-14
-9.6296e-14
-9.5778e-14
-9.65181e-14
-9.60081e-14
-9.67462e-14
-9.62379e-14
-9.69876e-14
-9.6467e-14
-9.72275e-14
-9.67066e-14
-9.7466e-14
-9.69527e-14
-9.76953e-14
-9.71901e-14
-9.79265e-14
-9.74261e-14
-9.81789e-14
-9.7672e-14
-9.84334e-14
-9.79162e-14
-9.86784e-14
-9.81661e-14
-9.89216e-14
-9.84215e-14
-9.91472e-14
-9.86746e-14
-9.93823e-14
-9.89176e-14
-9.9627e-14
-9.91698e-14
-9.98496e-14
-9.94512e-14
-1.00081e-13
-9.97302e-14
-1.00314e-13
-9.99831e-14
-1.00571e-13
-1.00226e-13
-1.00812e-13
-1.00473e-13
-1.01062e-13
-1.00743e-13
-1.01321e-13
-1.01001e-13
-1.01556e-13
-1.0124e-13
-1.01792e-13
-1.01484e-13
-1.02027e-13
-1.01749e-13
-1.02262e-13
-1.02002e-13
-1.02522e-13
-1.02251e-13
-1.02773e-13
-1.02522e-13
-1.0304e-13
-1.02805e-13
-1.03298e-13
-1.03067e-13
-1.03556e-13
-1.03325e-13
-1.03804e-13
-1.03571e-13
-1.04061e-13
-1.03819e-13
-1.04325e-13
-1.04087e-13
-1.04572e-13
-1.04341e-13
-1.04827e-13
-1.04606e-13
-1.05072e-13
-1.04881e-13
-1.05317e-13
-1.05124e-13
-1.05586e-13
-1.05361e-13
-1.05855e-13
-1.05589e-13
-1.06099e-13
-1.05834e-13
-1.06343e-13
-1.06103e-13
-1.06596e-13
-1.06371e-13
-1.06831e-13
-1.06619e-13
-1.07075e-13
-1.0684e-13
-1.07335e-13
-1.07057e-13
-1.07588e-13
-1.07311e-13
-1.07834e-13
-1.076e-13
-1.0807e-13
-1.07909e-13
-1.08346e-13
-1.08204e-13
-1.08662e-13
-1.08449e-13
-1.08917e-13
-1.08712e-13
-1.09213e-13
-1.08991e-13
-1.09481e-13
-1.09286e-13
-1.09756e-13
-1.09579e-13
-1.10037e-13
-1.09921e-13
-1.10322e-13
-1.10192e-13
-1.10595e-13
-1.10478e-13
-1.1087e-13
-1.10727e-13
-1.11116e-13
-1.11004e-13
-1.11382e-13
-1.11243e-13
-1.11635e-13
-1.11492e-13
-1.11856e-13
-1.11751e-13
-1.12128e-13
-1.12021e-13
-1.12385e-13
-1.12284e-13
-1.12659e-13
-1.12538e-13
-1.12918e-13
-1.12798e-13
-1.13179e-13
-1.13014e-13
-1.13392e-13
-1.13281e-13
-1.1359e-13
-1.13587e-13
-1.13847e-13
-1.13801e-13
-1.14132e-13
-1.14056e-13
-1.1438e-13
-1.14315e-13
-1.14623e-13
-1.14543e-13
-1.14847e-13
-1.1474e-13
-1.15069e-13
-1.14967e-13
-1.15256e-13
-1.1524e-13
-1.15482e-13
-1.15548e-13
-1.15707e-13
-1.15703e-13
-1.15938e-13
-1.15829e-13
-1.1615e-13
-1.1604e-13
-1.1634e-13
-1.16302e-13
-1.16598e-13
-1.16559e-13
-1.16796e-13
-1.16844e-13
-1.16958e-13
-1.17038e-13
-1.17201e-13
-1.17237e-13
-1.1744e-13
-1.17405e-13
-1.17649e-13
-1.17654e-13
-1.1782e-13
-1.17864e-13
-1.18072e-13
-1.18042e-13
-1.1829e-13
-1.18274e-13
-1.18475e-13
-1.18474e-13
-1.18682e-13
-1.18641e-13
-1.18829e-13
-1.18858e-13
-1.18993e-13
-1.19105e-13
-1.19163e-13
-1.19249e-13
-1.19343e-13
-1.19376e-13
-1.19513e-13
-1.19508e-13
-1.19592e-13
-1.19635e-13
-1.19741e-13
-1.19791e-13
-1.19848e-13
-1.19837e-13
-1.19981e-13
-1.1993e-13
-1.20122e-13
-1.20146e-13
-1.20232e-13
-1.20255e-13
-1.20286e-13
-1.2029e-13
-1.20366e-13
-1.20376e-13
-1.20497e-13
-1.20487e-13
-1.20577e-13
-1.20539e-13
-1.20648e-13
-1.20561e-13
-1.20713e-13
-1.20627e-13
-1.20776e-13
-1.20714e-13
-1.20782e-13
-1.20723e-13
-1.20834e-13
-1.2075e-13
-1.20895e-13
-1.20838e-13
-1.20912e-13
-1.20951e-13
-1.20964e-13
-1.20991e-13
-1.20937e-13
-1.20895e-13
-1.20976e-13
-1.20889e-13
-1.21041e-13
-1.20963e-13
-1.21023e-13
-1.21066e-13
-1.21043e-13
-1.21021e-13
-1.21065e-13
-1.21027e-13
-1.21093e-13
-1.21063e-13
-1.21149e-13
-1.21126e-13
-1.21213e-13
-1.21213e-13
-1.21228e-13
-1.21279e-13
-1.21264e-13
-1.21336e-13
-1.21267e-13
-1.2128e-13
-1.21299e-13
-1.21232e-13
-1.21343e-13
-1.21286e-13
-1.2137e-13
-1.2142e-13
-1.21447e-13
-1.21398e-13
-1.21449e-13
-1.21402e-13
-1.21489e-13
-1.21463e-13
-1.21538e-13
-1.21493e-13
-1.21565e-13
-1.21514e-13
-1.21598e-13
-1.21524e-13
-1.2167e-13
-1.21584e-13
-1.21694e-13
-1.21607e-13
-1.21729e-13
-1.2162e-13
-1.21751e-13
-1.21652e-13
-1.21785e-13
-1.21674e-13
-1.21866e-13
-1.21715e-13
-1.21907e-13
-1.21806e-13
-1.21872e-13
-1.21827e-13
-1.21848e-13
-1.21816e-13
-1.21833e-13
-1.21775e-13
-1.21858e-13
-1.21731e-13
-1.21896e-13
-1.21767e-13
-1.21854e-13
-1.21821e-13
-1.21879e-13
-1.21839e-13
-1.21937e-13
-1.2182e-13
-1.21941e-13
-1.21855e-13
-1.21952e-13
-1.21882e-13
-1.21968e-13
-1.21868e-13
-1.21991e-13
-1.21928e-13
-1.22001e-13
-1.21997e-13
-1.21995e-13
-1.21998e-13
-1.22021e-13
-1.22016e-13
-1.22032e-13
-1.22001e-13
-1.22045e-13
-1.22031e-13
-1.22061e-13
-1.22027e-13
-1.22111e-13
-1.22037e-13
-1.22151e-13
-1.22061e-13
-1.22162e-13
-1.22046e-13
-1.22197e-13
-1.22027e-13
-1.22242e-13
-1.22032e-13
-1.22264e-13
-1.22043e-13
-1.22263e-13
-1.22078e-13
-1.22286e-13
-1.22155e-13
-1.22315e-13
-1.22142e-13
-1.22302e-13
-1.22088e-13
-1.22313e-13
-1.22061e-13
-1.22335e-13
-1.2211e-13
-1.22348e-13
-1.22184e-13
-1.22333e-13
-1.22202e-13
-1.22322e-13
-1.22181e-13
-1.22317e-13
-1.22172e-13
-1.22297e-13
-1.22193e-13
-1.22281e-13
-1.22209e-13
-1.223e-13
-1.22206e-13
-1.22322e-13
-1.222e-13
-1.22328e-13
-1.22224e-13
-1.22319e-13
-1.22263e-13
-1.2231e-13
-1.22317e-13
-1.22352e-13
-1.22355e-13
-1.22392e-13
-1.22367e-13
-1.22381e-13
-1.22353e-13
-1.22396e-13
-1.22355e-13
-1.2242e-13
-1.22374e-13
-1.22427e-13
-1.22392e-13
-1.22425e-13
-1.224e-13
-1.22441e-13
-1.22426e-13
-1.22473e-13
-1.2246e-13
-1.22497e-13
-1.22459e-13
-1.2252e-13
-1.2245e-13
-1.22511e-13
-1.22457e-13
-1.22536e-13
-1.22472e-13
-1.22553e-13
-1.22494e-13
-1.22563e-13
-1.22507e-13
-1.22573e-13
-1.22518e-13
-1.22567e-13
-1.22521e-13
-1.22578e-13
-1.22539e-13
-1.22598e-13
-1.22548e-13
-1.22602e-13
-1.22556e-13
-1.22615e-13
-1.22556e-13
-1.2262e-13
-1.22538e-13
-1.22634e-13
-1.22535e-13
-1.22641e-13
-1.22555e-13
-1.2265e-13
-1.22558e-13
-1.22659e-13
-1.22552e-13
-1.22669e-13
-1.2256e-13
-1.22664e-13
-1.22567e-13
-1.22668e-13
-1.22564e-13
-1.22673e-13
-1.22569e-13
-1.22679e-13
-1.2258e-13
-1.22682e-13
-1.22582e-13
-1.22685e-13
-1.22588e-13
-1.22678e-13
-1.226e-13
-1.22679e-13
-1.226e-13
-1.22665e-13
-1.22607e-13
-1.2266e-13
-1.22622e-13
-1.22662e-13
-1.22636e-13
-1.22672e-13
-1.22642e-13
-1.22675e-13
-1.22648e-13
-1.22678e-13
-1.22654e-13
-1.22681e-13
-1.22656e-13
-1.22688e-13
-1.22658e-13
-1.22696e-13
-1.2266e-13
-1.22699e-13
-1.22669e-13
-1.22707e-13
-1.22685e-13
-1.22711e-13
-1.22698e-13
-1.22715e-13
-1.22707e-13
-1.22726e-13
-1.22712e-13
-1.22734e-13
-1.22714e-13
-1.22746e-13
-1.22719e-13
-1.2275e-13
-1.22728e-13
-1.22762e-13
-1.22736e-13
-1.2276e-13
-1.22735e-13
-1.22758e-13
-1.22733e-13
-1.22763e-13
-1.22742e-13
-1.22769e-13
-1.22754e-13
-1.22767e-13
-1.22759e-13
-1.22765e-13
-1.22757e-13
-1.22768e-13
-1.22757e-13
-1.22769e-13
-1.22763e-13
-1.2277e-13
-1.22764e-13
-1.22766e-13
-1.22765e-13
-1.22765e-13
-1.22767e-13
-1.22765e-13
-1.22769e-13
-1.22763e-13
-1.22771e-13
-1.22759e-13
-1.2277e-13
-1.22757e-13
-1.22764e-13
-1.22754e-13
-1.22765e-13
-1.22752e-13
-1.22768e-13
-1.22752e-13
-1.22769e-13
-1.22751e-13
-1.22767e-13
-1.22749e-13
-1.22766e-13
-1.22749e-13
-1.22765e-13
-1.22749e-13
-1.22763e-13
-1.22747e-13
-1.22762e-13
-1.22744e-13
-1.22762e-13
-1.22744e-13
-1.2276e-13
-1.22746e-13
-1.22755e-13
-1.22747e-13
-1.2275e-13
-1.22746e-13
-1.22747e-13
-1.22748e-13
-1.22745e-13
-1.22749e-13
-1.22744e-13
-1.22749e-13
-1.22743e-13
-1.2275e-13
-1.22742e-13
-1.22749e-13
-1.22739e-13
-1.22749e-13
-1.22735e-13
-1.22749e-13
-1.22735e-13
-1.22748e-13
-1.22734e-13
-1.22747e-13
-1.22733e-13
-1.22747e-13
-1.22732e-13
-1.22747e-13
-1.2273e-13
-1.22747e-13
-1.22728e-13
-1.22746e-13
-1.22727e-13
-1.22745e-13
-1.22725e-13
-1.22743e-13
-1.22724e-13
-1.22742e-13
-1.22724e-13
-1.22741e-13
-1.22722e-13
-1.22742e-13
-1.22718e-13
-1.2274e-13
-1.22715e-13
-1.22739e-13
-1.22712e-13
-1.2274e-13
-1.22709e-13
-1.22741e-13
-1.22707e-13
-1.22741e-13
-1.22704e-13
-1.22741e-13
-1.22701e-13
-1.22742e-13
-1.22697e-13
-1.22742e-13
-1.22695e-13
-1.22742e-13
-1.22693e-13
-1.22743e-13
-1.22691e-13
-1.22742e-13
-1.22689e-13
-1.22742e-13
-1.22687e-13
-1.22742e-13
-1.22686e-13
-1.22742e-13
-1.22685e-13
-1.22742e-13
-1.22684e-13
-1.22741e-13
-1.22683e-13
-1.22741e-13
-1.22681e-13
-1.22741e-13
-1.2268e-13
-1.22741e-13
-1.22678e-13
-1.22741e-13
-1.22676e-13
-1.22741e-13
-1.22675e-13
-1.22741e-13
-1.22674e-13
-1.22741e-13
-1.22673e-13
-1.22742e-13
-1.22672e-13
-1.22741e-13
-1.22671e-13
-1.22742e-13
-1.2267e-13
-1.22742e-13
-1.22668e-13
-1.22744e-13
-1.22667e-13
-1.22744e-13
-1.22667e-13
-1.22744e-13
-1.22666e-13
-1.22744e-13
-1.22666e-13
-1.22745e-13
-1.22666e-13
-1.22745e-13
-1.22667e-13
-1.22746e-13
-1.22667e-13
-1.22746e-13
-1.22666e-13
-1.22746e-13
-1.22665e-13
-1.22747e-13
-1.22665e-13
-1.22747e-13
-1.22665e-13
-1.22747e-13
-1.22665e-13
-1.22747e-13
-1.22665e-13
-1.22748e-13
-1.22665e-13
-1.22748e-13
-1.22665e-13
-1.22748e-13
-1.22666e-13
-1.22748e-13
-1.22665e-13
-1.22747e-13
-1.22665e-13
-1.22748e-13
-1.22666e-13
-1.22748e-13
-1.22666e-13
-1.22748e-13
-1.22666e-13
-1.22748e-13
-1.22666e-13
-1.22747e-13
-1.22667e-13
-1.22748e-13
-1.22667e-13
-1.22748e-13
-1.22667e-13
-1.22748e-13
-1.22667e-13
-1.22748e-13
-1.22667e-13
-1.22748e-13
-1.22667e-13
-1.22748e-13
-1.22667e-13
-1.22748e-13
-1.22667e-13
-1.22748e-13
-1.22667e-13
-1.22748e-13
-1.22667e-13
-1.22748e-13
-1.22667e-13
-1.22748e-13
-1.22667e-13
-1.22748e-13
-1.22667e-13
-1.22748e-13
-1.22667e-13
-1.22748e-13
-1.22667e-13
-1.22748e-13
-1.22667e-13
-1.22748e-13
-1.22667e-13
-1.22749e-13
-1.22667e-13
-1.22749e-13
-1.22667e-13
-1.22749e-13
-1.22667e-13
-1.22749e-13
-1.22667e-13
-1.22749e-13
-1.22667e-13
-1.22749e-13
-1.22667e-13
-1.22749e-13
-1.22667e-13
-1.22749e-13
-1.22667e-13
-1.22749e-13
-1.22667e-13
-1.22749e-13
-1.22667e-13
-1.22749e-13
-1.22667e-13
-1.22749e-13
-1.22667e-13
-1.22749e-13
-1.22667e-13
-1.22749e-13
-1.22667e-13
-1.22749e-13
-1.22667e-13
-1.20914e-13
-1.2091e-13
-1.20911e-13
-1.2091e-13
-1.20956e-13
-1.20911e-13
-1.21011e-13
-1.21008e-13
-1.21062e-13
-1.21059e-13
-1.21067e-13
-1.21001e-13
-1.21089e-13
-1.20927e-13
-1.21151e-13
-1.20992e-13
-1.21117e-13
-1.21125e-13
-1.21159e-13
-1.21152e-13
-1.21198e-13
-1.212e-13
-1.21178e-13
-1.21185e-13
-1.21232e-13
-1.21214e-13
-1.21287e-13
-1.21233e-13
-1.21323e-13
-1.21243e-13
-1.2137e-13
-1.21323e-13
-1.21397e-13
-1.2133e-13
-1.2143e-13
-1.21323e-13
-1.21419e-13
-1.21439e-13
-1.21517e-13
-1.21557e-13
-1.2158e-13
-1.21568e-13
-1.21617e-13
-1.21521e-13
-1.21637e-13
-1.21551e-13
-1.21665e-13
-1.21599e-13
-1.2167e-13
-1.21609e-13
-1.21708e-13
-1.21642e-13
-1.21721e-13
-1.21668e-13
-1.21737e-13
-1.21688e-13
-1.2175e-13
-1.21732e-13
-1.21727e-13
-1.21772e-13
-1.21693e-13
-1.21719e-13
-1.21775e-13
-1.21726e-13
-1.21796e-13
-1.21823e-13
-1.2178e-13
-1.21863e-13
-1.21849e-13
-1.21881e-13
-1.21915e-13
-1.21872e-13
-1.21889e-13
-1.21861e-13
-1.21928e-13
-1.21947e-13
-1.21934e-13
-1.21973e-13
-1.21968e-13
-1.21939e-13
-1.21988e-13
-1.2202e-13
-1.22023e-13
-1.22057e-13
-1.2199e-13
-1.22016e-13
-1.21989e-13
-1.22009e-13
-1.22002e-13
-1.2207e-13
-1.22011e-13
-1.22086e-13
-1.22049e-13
-1.22024e-13
-1.22054e-13
-1.22045e-13
-1.22092e-13
-1.22066e-13
-1.22062e-13
-1.22051e-13
-1.22081e-13
-1.22104e-13
-1.22147e-13
-1.22109e-13
-1.22197e-13
-1.22131e-13
-1.2223e-13
-1.22186e-13
-1.22214e-13
-1.22173e-13
-1.22215e-13
-1.22142e-13
-1.22251e-13
-1.22108e-13
-1.22239e-13
-1.22122e-13
-1.22248e-13
-1.22183e-13
-1.22257e-13
-1.22227e-13
-1.22266e-13
-1.22236e-13
-1.22309e-13
-1.22227e-13
-1.22319e-13
-1.22251e-13
-1.22297e-13
-1.22275e-13
-1.22328e-13
-1.22281e-13
-1.22343e-13
-1.22271e-13
-1.2236e-13
-1.22259e-13
-1.22381e-13
-1.22263e-13
-1.22404e-13
-1.22281e-13
-1.22414e-13
-1.22298e-13
-1.22428e-13
-1.22345e-13
-1.22435e-13
-1.22366e-13
-1.22445e-13
-1.22367e-13
-1.22456e-13
-1.2235e-13
-1.2247e-13
-1.22357e-13
-1.22478e-13
-1.22388e-13
-1.22487e-13
-1.22399e-13
-1.22507e-13
-1.22418e-13
-1.22529e-13
-1.22436e-13
-1.22528e-13
-1.22434e-13
-1.22536e-13
-1.22431e-13
-1.22546e-13
-1.22452e-13
-1.22549e-13
-1.22489e-13
-1.22545e-13
-1.22533e-13
-1.22566e-13
-1.2256e-13
-1.22579e-13
-1.2257e-13
-1.22574e-13
-1.22573e-13
-1.22579e-13
-1.22576e-13
-1.22583e-13
-1.22587e-13
-1.22587e-13
-1.22598e-13
-1.22591e-13
-1.22618e-13
-1.22595e-13
-1.2263e-13
-1.22598e-13
-1.22643e-13
-1.22584e-13
-1.22657e-13
-1.22594e-13
-1.2268e-13
-1.22603e-13
-1.2268e-13
-1.22611e-13
-1.22681e-13
-1.22594e-13
-1.22691e-13
-1.226e-13
-1.22678e-13
-1.22614e-13
-1.22674e-13
-1.2261e-13
-1.22671e-13
-1.22622e-13
-1.22665e-13
-1.22633e-13
-1.22659e-13
-1.22633e-13
-1.22654e-13
-1.22635e-13
-1.22641e-13
-1.22634e-13
-1.22629e-13
-1.22633e-13
-1.22635e-13
-1.2262e-13
-1.22639e-13
-1.2263e-13
-1.22634e-13
-1.22644e-13
-1.22637e-13
-1.22649e-13
-1.2264e-13
-1.22651e-13
-1.22639e-13
-1.22653e-13
-1.22642e-13
-1.22655e-13
-1.22641e-13
-1.22668e-13
-1.22647e-13
-1.22667e-13
-1.22654e-13
-1.22668e-13
-1.22656e-13
-1.2267e-13
-1.22658e-13
-1.22676e-13
-1.22657e-13
-1.22677e-13
-1.22658e-13
-1.22686e-13
-1.22664e-13
-1.22684e-13
-1.22669e-13
-1.22686e-13
-1.22667e-13
-1.22687e-13
-1.22671e-13
-1.22692e-13
-1.22676e-13
-1.22694e-13
-1.22687e-13
-1.22688e-13
-1.22698e-13
-1.2269e-13
-1.22697e-13
-1.22691e-13
-1.22699e-13
-1.22688e-13
-1.22708e-13
-1.22684e-13
-1.22722e-13
-1.22688e-13
-1.22724e-13
-1.22687e-13
-1.22725e-13
-1.2269e-13
-1.22729e-13
-1.22692e-13
-1.22733e-13
-1.22701e-13
-1.22735e-13
-1.22698e-13
-1.22738e-13
-1.22696e-13
-1.22738e-13
-1.22704e-13
-1.22738e-13
-1.22706e-13
-1.22736e-13
-1.22703e-13
-1.22732e-13
-1.227e-13
-1.22732e-13
-1.22704e-13
-1.2273e-13
-1.22709e-13
-1.22725e-13
-1.2271e-13
-1.22723e-13
-1.22709e-13
-1.22721e-13
-1.22708e-13
-1.22717e-13
-1.22709e-13
-1.22714e-13
-1.2271e-13
-1.22712e-13
-1.22712e-13
-1.22707e-13
-1.22713e-13
-1.22703e-13
-1.22715e-13
-1.22702e-13
-1.22717e-13
-1.22701e-13
-1.22717e-13
-1.227e-13
-1.22717e-13
-1.227e-13
-1.22718e-13
-1.227e-13
-1.22717e-13
-1.22699e-13
-1.22716e-13
-1.22699e-13
-1.22715e-13
-1.22699e-13
-1.22715e-13
-1.22698e-13
-1.22715e-13
-1.22697e-13
-1.22714e-13
-1.22697e-13
-1.22713e-13
-1.22697e-13
-1.22712e-13
-1.22697e-13
-1.22712e-13
-1.22695e-13
-1.22713e-13
-1.22693e-13
-1.22712e-13
-1.22691e-13
-1.22711e-13
-1.2269e-13
-1.22711e-13
-1.22687e-13
-1.2271e-13
-1.22686e-13
-1.22709e-13
-1.22684e-13
-1.22708e-13
-1.22683e-13
-1.22706e-13
-1.22682e-13
-1.22706e-13
-1.22679e-13
-1.22705e-13
-1.22678e-13
-1.22704e-13
-1.22678e-13
-1.22703e-13
-1.22677e-13
-1.22702e-13
-1.22678e-13
-1.22701e-13
-1.2268e-13
-1.22701e-13
-1.22679e-13
-1.22699e-13
-1.22679e-13
-1.22698e-13
-1.2268e-13
-1.22696e-13
-1.22681e-13
-1.22694e-13
-1.22682e-13
-1.22694e-13
-1.22682e-13
-1.22694e-13
-1.22682e-13
-1.22693e-13
-1.22682e-13
-1.22692e-13
-1.22682e-13
-1.22691e-13
-1.22682e-13
-1.22691e-13
-1.22682e-13
-1.22689e-13
-1.22682e-13
-1.22688e-13
-1.22682e-13
-1.22688e-13
-1.22682e-13
-1.22688e-13
-1.22683e-13
-1.22687e-13
-1.22683e-13
-1.22687e-13
-1.22682e-13
-1.22687e-13
-1.22682e-13
-1.22687e-13
-1.22683e-13
-1.22686e-13
-1.22683e-13
-1.22686e-13
-1.22683e-13
-1.22687e-13
-1.22683e-13
-1.22687e-13
-1.22683e-13
-1.22687e-13
-1.22683e-13
-1.22686e-13
-1.22684e-13
-1.22686e-13
-1.22684e-13
-1.22686e-13
-1.22684e-13
-1.22687e-13
-1.22684e-13
-1.22687e-13
-1.22684e-13
-1.22687e-13
-1.22685e-13
-1.22687e-13
-1.22685e-13
-1.22687e-13
-1.22684e-13
-1.22687e-13
-1.22684e-13
-1.22687e-13
-1.22685e-13
-1.22687e-13
-1.22685e-13
-1.22687e-13
-1.22685e-13
-1.22687e-13
-1.22685e-13
-1.22687e-13
-1.22685e-13
-1.22687e-13
-1.22686e-13
-1.22686e-13
-1.22686e-13
-1.22687e-13
-1.22686e-13
-1.22687e-13
-1.22687e-13
-1.22686e-13
-1.22687e-13
-1.22686e-13
-1.22687e-13
-1.22686e-13
-1.22687e-13
-1.22686e-13
-1.22687e-13
-1.22686e-13
-1.22687e-13
-1.22686e-13
-1.22687e-13
-1.22686e-13
-1.22687e-13
-1.22686e-13
-1.22687e-13
-1.22686e-13
-1.22687e-13
-1.22686e-13
-1.22687e-13
-1.22686e-13
-1.22688e-13
-1.22686e-13
-1.22687e-13
-1.22686e-13
-1.22687e-13
-1.22686e-13
-1.22688e-13
-1.22685e-13
-1.22688e-13
-1.22686e-13
-1.22687e-13
-1.22686e-13
-1.22687e-13
-1.22686e-13
-1.22687e-13
-1.22686e-13
-1.22687e-13
-1.22686e-13
-1.22687e-13
-1.22686e-13
-1.22687e-13
-1.22686e-13
-1.22687e-13
-1.22686e-13
-1.22687e-13
-1.22686e-13
-1.22687e-13
-1.22686e-13
-1.22687e-13
-1.22686e-13
-1.22687e-13
-1.22686e-13
-1.22687e-13
-1.22686e-13
-1.22687e-13
-1.22686e-13
-1.22687e-13
)
;

boundaryField
{
    walls
    {
        type            zeroGradient;
    }
    inlet
    {
        type            cyclic;
    }
    outlet
    {
        type            cyclic;
    }
    sides
    {
        type            empty;
    }
}


// ************************************************************************* //
