/*--------------------------------*- C++ -*----------------------------------*\
| =========                 |                                                 |
| \\      /  F ield         | OpenFOAM: The Open Source CFD Toolbox           |
|  \\    /   O peration     | Version:  2106                                  |
|   \\  /    A nd           | Website:  www.openfoam.com                      |
|    \\/     M anipulation  |                                                 |
\*---------------------------------------------------------------------------*/
FoamFile
{
    version     2.0;
    format      ascii;
    arch        "LSB;label=32;scalar=64";
    class       surfaceScalarField;
    location    "10090";
    object      phi;
}
// * * * * * * * * * * * * * * * * * * * * * * * * * * * * * * * * * * * * * //

dimensions      [0 3 -1 0 0 0 0];

oriented        oriented;

internalField   nonuniform List<scalar> 
1596
(
7.04068e-08
-1.14867e-18
1.08924e-21
1.6714e-21
1.98333e-22
2.24721e-07
-1.16845e-18
7.03004e-21
1.34678e-20
9.4739e-22
4.01021e-07
-1.18966e-18
7.5868e-21
2.5996e-20
1.08557e-21
6.0177e-07
-1.21208e-18
8.08765e-21
3.92763e-20
1.24115e-21
8.29684e-07
-1.23587e-18
8.58825e-21
5.30381e-20
1.41579e-21
1.08776e-06
-1.26104e-18
9.10018e-21
6.73827e-20
1.61134e-21
1.37929e-06
-1.28715e-18
9.6187e-21
8.22984e-20
1.8297e-21
1.70791e-06
-1.31457e-18
1.01431e-20
9.77099e-20
2.0729e-21
2.07764e-06
-1.34338e-18
1.06722e-20
1.13402e-19
2.34306e-21
2.49288e-06
-1.37499e-18
1.12035e-20
1.29779e-19
2.64247e-21
2.95847e-06
-1.40633e-18
1.17333e-20
1.45965e-19
2.97313e-21
3.47977e-06
-1.43793e-18
1.22564e-20
1.6234e-19
3.33711e-21
4.06263e-06
-1.4698e-18
1.27675e-20
1.78559e-19
3.73638e-21
4.7135e-06
-1.50408e-18
1.32603e-20
1.94517e-19
4.17329e-21
5.43946e-06
-1.53895e-18
1.37282e-20
2.10879e-19
4.64946e-21
6.24824e-06
-1.57278e-18
1.41635e-20
2.25367e-19
5.16588e-21
7.14832e-06
-1.60713e-18
1.45574e-20
2.40446e-19
5.72322e-21
8.14895e-06
-1.64205e-18
1.49003e-20
2.56118e-19
6.32075e-21
9.26015e-06
-1.67678e-18
1.51818e-20
2.70945e-19
6.95853e-21
1.04928e-05
-1.71192e-18
1.53885e-20
2.83222e-19
7.63215e-21
1.18585e-05
-1.7458e-18
1.55089e-20
2.93803e-19
8.33786e-21
1.33698e-05
-1.78077e-18
1.55306e-20
3.02523e-19
9.06625e-21
1.50398e-05
-1.81051e-18
1.54401e-20
3.07764e-19
9.80986e-21
1.6882e-05
-1.84038e-18
1.52189e-20
3.11345e-19
1.05568e-20
1.89104e-05
-1.86695e-18
1.48536e-20
3.11072e-19
1.12857e-20
2.1139e-05
-1.88931e-18
1.43275e-20
3.14768e-19
1.19803e-20
2.35813e-05
-1.91647e-18
1.3628e-20
3.08694e-19
1.26123e-20
2.62503e-05
-1.93055e-18
1.27504e-20
2.96221e-19
1.31573e-20
2.91579e-05
-1.94372e-18
1.1686e-20
2.81853e-19
1.35947e-20
3.23146e-05
-1.95822e-18
1.04428e-20
2.6777e-19
1.39001e-20
3.57297e-05
-1.96129e-18
9.04633e-21
2.49925e-19
1.40279e-20
3.94111e-05
-1.9625e-18
7.51283e-21
2.25444e-19
1.39676e-20
4.33659e-05
-1.95313e-18
5.86188e-21
1.89377e-19
1.37425e-20
4.76004e-05
-1.93191e-18
4.10355e-21
1.53848e-19
1.33701e-20
5.21208e-05
-1.90505e-18
2.23811e-21
1.20986e-19
1.28777e-20
5.69339e-05
-1.87987e-18
3.14271e-22
9.69821e-20
1.22625e-20
6.20472e-05
-1.83407e-18
-1.62969e-21
4.11543e-20
1.15311e-20
6.74693e-05
-1.80531e-18
-3.56337e-21
-2.92413e-21
1.07139e-20
7.32104e-05
-1.81292e-18
-5.33491e-21
-2.82192e-20
9.86076e-21
7.92821e-05
-1.77074e-18
-6.92175e-21
-4.89502e-20
8.98194e-21
8.56977e-05
-1.74882e-18
-8.41993e-21
-8.60295e-20
8.11607e-21
9.24721e-05
-1.69571e-18
-9.67887e-21
-1.16238e-19
7.37005e-21
9.96218e-05
-1.65698e-18
-1.0887e-20
-1.39955e-19
6.69715e-21
0.000107165
-1.64001e-18
-1.19899e-20
-1.53682e-19
6.09094e-21
0.000115121
-1.5734e-18
-1.27682e-20
-1.9895e-19
5.45429e-21
0.000123512
-1.52887e-18
-1.34943e-20
-1.83514e-19
5.03685e-21
0.000132359
-1.50572e-18
-1.40116e-20
-1.93034e-19
4.31134e-21
0.000141688
-1.47623e-18
-1.42796e-20
-2.18844e-19
3.73251e-21
0.000151523
-1.45015e-18
-1.43855e-20
-2.41187e-19
3.46294e-21
0.000161893
-1.39686e-18
-1.44599e-20
-2.18768e-19
3.44221e-21
0.000172825
-1.33822e-18
-1.43369e-20
-2.56976e-19
3.01256e-21
0.00018435
-1.30565e-18
-1.41646e-20
-2.9823e-19
2.7489e-21
0.000196501
-1.25698e-18
-1.36143e-20
-3.40608e-19
2.77783e-21
0.000209311
-1.18028e-18
-1.29155e-20
-3.97437e-19
3.01751e-21
0.000222815
-1.11575e-18
-1.23624e-20
-4.21559e-19
3.69155e-21
0.000237051
-1.08899e-18
-1.12142e-20
-4.39097e-19
4.10589e-21
0.000252058
-1.01971e-18
-1.01412e-20
-5.27316e-19
4.29114e-21
0.000267877
-1.04863e-18
-9.72218e-21
-4.90356e-19
6.01642e-21
0.000284552
-1.04168e-18
-7.90451e-21
-5.17676e-19
6.21849e-21
0.000302128
-9.90885e-19
-4.95246e-21
-5.1402e-19
6.5787e-21
0.000320653
-9.60948e-19
-2.88415e-21
-5.10655e-19
6.55928e-21
0.000340176
-9.61658e-19
-1.68027e-21
-5.46428e-19
5.02657e-21
0.000360751
-9.27148e-19
-2.43111e-21
-5.43751e-19
2.79325e-21
0.000382433
-9.22865e-19
-4.54413e-21
-5.30155e-19
-8.26108e-22
0.000405279
-8.52978e-19
-6.14497e-21
-5.25928e-19
-6.8305e-21
0.000429351
-8.02896e-19
-1.04836e-20
-5.5426e-19
-1.3261e-20
0.000454711
-7.67144e-19
-1.65535e-20
-5.86924e-19
-1.67565e-20
0.000481427
-8.16118e-19
-2.03867e-20
-5.99134e-19
-1.6443e-20
0.000509568
-6.21922e-19
-1.99522e-20
-6.14323e-19
-1.63567e-20
0.000539208
-6.17338e-19
-2.72561e-20
-5.99275e-19
-1.41057e-20
0.000570422
-6.8144e-19
-3.84026e-20
-6.40599e-19
-1.63216e-20
0.000603292
-6.24993e-19
-3.33304e-20
-6.9109e-19
-2.27907e-20
0.000637901
-5.85503e-19
-3.30205e-20
-6.62145e-19
-3.26598e-20
0.000674336
-6.97266e-19
-4.30043e-20
-6.74914e-19
-4.6462e-20
0.000712689
-6.54064e-19
-4.94313e-20
-6.57341e-19
-5.11095e-20
0.000753057
-6.40504e-19
-4.77275e-20
-6.61599e-19
-5.69254e-20
0.000795537
-6.61228e-19
-4.6526e-20
-6.46507e-19
-4.54651e-20
0.000840234
-6.22678e-19
-4.68264e-20
-6.40403e-19
-4.46536e-20
0.000887257
-6.92075e-19
-3.66102e-20
-6.94208e-19
-4.82718e-20
0.000936718
-5.66552e-19
-2.37039e-20
-5.3067e-19
-2.26965e-20
0.000988732
-4.68546e-19
-1.84127e-20
-4.3018e-19
-1.08606e-20
0.00104342
-4.41722e-19
3.58364e-21
-4.75692e-19
-2.15682e-20
0.00110091
-2.19221e-19
-8.98243e-21
-3.47771e-19
-1.71327e-21
0.00116133
-2.34552e-19
-2.98592e-20
-2.57908e-19
1.15717e-20
0.00122481
-2.07537e-19
-5.68383e-20
-3.02141e-19
-2.26167e-20
0.00129149
-3.15838e-19
-8.03618e-20
-5.01272e-20
-5.75073e-20
0.0013615
-1.11635e-19
-3.47861e-20
-5.03743e-20
-4.53366e-20
0.00143498
-4.14603e-20
-1.77092e-20
-3.44794e-20
-7.88812e-21
0.00151207
-1.50513e-19
-3.34377e-20
-2.63132e-20
-2.74953e-20
0.00159292
7.53434e-21
1.5062e-20
-7.31845e-20
-1.46726e-20
0.00167764
-1.3285e-19
2.62112e-20
-1.58105e-19
-8.02578e-21
0.00176637
-1.97893e-19
8.70702e-20
-1.54288e-19
2.65175e-20
0.00185922
-2.34596e-19
6.97551e-20
-1.59211e-19
1.86159e-20
0.00195629
1.33085e-20
1.22845e-19
-1.44841e-19
1.95153e-20
0.00205764
-9.69886e-20
3.53543e-20
-1.53639e-19
2.34996e-20
0.0021633
-2.37966e-19
-1.38722e-20
-2.88546e-19
4.14221e-20
0.00227324
-5.70764e-19
-7.70483e-20
-6.21383e-19
-8.93335e-20
0.00238736
-6.62878e-19
-6.04674e-20
-4.50264e-19
-8.33007e-20
0.00250547
-3.01739e-19
1.32896e-19
-4.99295e-19
-6.14511e-21
0.00262728
1.6158e-19
-4.71074e-19
1.67568e-19
-2.80489e-19
7.04068e-08
1.00143e-21
2.80322e-22
2.24721e-07
7.48938e-21
1.79532e-21
4.01021e-07
1.44689e-20
3.53232e-21
6.0177e-07
2.17313e-20
5.65084e-21
8.29684e-07
2.93728e-20
7.99327e-21
1.08776e-06
3.74857e-20
1.05377e-20
1.37929e-06
4.62042e-20
1.34447e-20
1.70791e-06
5.50903e-20
1.65196e-20
2.07764e-06
6.46101e-20
2.01694e-20
2.49288e-06
7.45762e-20
2.4194e-20
2.95847e-06
8.4891e-20
2.8323e-20
3.47977e-06
9.54541e-20
3.2946e-20
4.06263e-06
1.06008e-19
4.023e-20
4.7135e-06
1.1682e-19
4.74141e-20
5.43946e-06
1.27728e-19
5.47357e-20
6.24824e-06
1.39229e-19
6.24859e-20
7.14832e-06
1.50782e-19
7.08977e-20
8.14895e-06
1.62372e-19
8.42449e-20
9.26015e-06
1.70996e-19
9.54207e-20
1.04928e-05
1.81409e-19
1.08386e-19
1.18585e-05
1.94429e-19
1.18605e-19
1.33698e-05
2.07088e-19
1.3332e-19
1.50398e-05
2.18661e-19
1.4829e-19
1.6882e-05
2.2983e-19
1.62801e-19
1.89104e-05
2.37904e-19
1.84935e-19
2.1139e-05
2.46272e-19
2.09197e-19
2.35813e-05
2.50693e-19
2.2955e-19
2.62503e-05
2.58484e-19
2.49094e-19
2.91579e-05
2.64998e-19
2.70284e-19
3.23146e-05
2.7471e-19
2.8197e-19
3.57297e-05
2.85402e-19
2.94792e-19
3.94111e-05
2.83889e-19
3.23305e-19
4.33659e-05
2.75133e-19
3.5297e-19
4.76004e-05
2.60469e-19
3.82021e-19
5.21208e-05
2.58595e-19
3.97913e-19
5.69339e-05
2.55209e-19
4.2233e-19
6.20472e-05
2.66446e-19
4.22303e-19
6.74693e-05
2.99038e-19
4.36615e-19
7.32104e-05
2.91302e-19
4.5009e-19
7.92821e-05
2.94062e-19
4.71965e-19
8.56977e-05
3.1431e-19
4.98774e-19
9.24721e-05
3.15369e-19
4.98956e-19
9.96218e-05
3.08511e-19
4.97402e-19
0.000107165
3.14379e-19
4.77209e-19
0.000115121
3.08373e-19
4.66661e-19
0.000123512
3.19267e-19
4.17692e-19
0.000132359
3.24019e-19
4.15103e-19
0.000141688
3.2164e-19
4.06476e-19
0.000151523
3.02228e-19
4.00118e-19
0.000161893
3.24703e-19
3.85301e-19
0.000172825
3.22386e-19
3.63344e-19
0.00018435
3.29226e-19
3.48943e-19
0.000196501
3.24989e-19
3.67266e-19
0.000209311
3.17515e-19
3.6752e-19
0.000222815
3.64893e-19
3.4308e-19
0.000237051
3.42946e-19
3.50924e-19
0.000252058
3.40872e-19
3.73468e-19
0.000267877
3.61803e-19
3.41261e-19
0.000284552
3.99332e-19
3.6499e-19
0.000302128
3.99072e-19
4.09276e-19
0.000320653
3.89876e-19
3.97265e-19
0.000340176
3.02515e-19
3.73721e-19
0.000360751
2.75935e-19
3.7799e-19
0.000382433
2.82146e-19
3.67653e-19
0.000405279
2.68942e-19
4.08576e-19
0.000429351
2.94045e-19
4.43222e-19
0.000454711
3.82517e-19
5.08225e-19
0.000481427
3.85924e-19
5.06631e-19
0.000509568
4.00658e-19
4.9416e-19
0.000539208
3.31759e-19
4.24279e-19
0.000570422
5.09536e-19
3.39928e-19
0.000603292
4.51392e-19
2.60404e-19
0.000637901
3.28385e-19
2.60206e-19
0.000674336
2.52582e-19
3.42501e-19
0.000712689
3.13369e-19
2.57377e-19
0.000753057
2.64846e-19
4.05553e-19
0.000795537
2.4506e-19
3.43313e-19
0.000840234
3.16789e-19
2.13273e-19
0.000887257
1.59192e-19
2.00732e-19
0.000936718
9.72738e-20
1.27923e-19
0.000988732
1.42972e-19
-5.79569e-20
0.00104342
-2.10502e-19
-1.11806e-19
0.00110091
-1.44293e-19
-1.51321e-19
0.00116133
-1.83578e-19
-2.2051e-19
0.00122481
-7.69276e-20
-1.57341e-19
0.00129149
4.76186e-20
1.83365e-19
0.0013615
4.6039e-20
1.79967e-19
0.00143498
-7.16256e-21
3.70261e-22
0.00151207
5.57662e-20
4.88572e-20
0.00159292
6.12185e-20
-6.51442e-20
0.00167764
7.74512e-20
-4.03109e-20
0.00176637
-1.77014e-19
-7.22128e-20
0.00185922
-1.39823e-19
-8.91028e-20
0.00195629
-2.60014e-19
-2.17663e-19
0.00205764
-2.28814e-19
-2.08097e-19
0.0021633
-2.34354e-19
-4.14709e-19
0.00227324
-4.324e-19
-4.62568e-19
0.00238736
-5.26893e-19
-4.32767e-19
0.00250547
-4.83963e-19
-5.04843e-19
0.00262728
-3.80558e-19
-2.49169e-19
0.00262728
3.09707e-19
2.97595e-19
1.42288e-19
2.71147e-19
0.00250547
-1.64118e-19
-2.54777e-21
-1.19234e-19
5.55037e-20
0.00238736
3.97513e-20
8.57997e-20
-3.26236e-20
1.24107e-19
0.00227324
-1.58347e-19
2.57373e-20
-1.37439e-19
1.11264e-19
0.0021633
-2.89228e-19
8.26197e-20
-4.46736e-19
5.06118e-20
0.00205764
-5.52363e-19
4.41705e-20
-4.45274e-19
1.87799e-20
0.00195629
-4.32896e-19
1.57128e-20
-5.02384e-19
4.86373e-20
0.00185922
-3.61151e-19
-2.37796e-20
-4.93533e-19
3.05434e-20
0.00176637
-6.05014e-19
-8.52162e-20
-6.20197e-19
-1.28059e-20
0.00167764
-5.03383e-19
-2.11847e-20
-5.06143e-19
1.84507e-20
0.00159292
-4.06226e-19
-5.13339e-20
-3.8349e-19
-3.54407e-21
0.00151207
-6.24179e-19
-4.43496e-20
-5.39042e-19
-6.81047e-20
0.00143498
-4.28817e-19
1.08396e-20
-2.77894e-19
2.59042e-20
0.0013615
-5.69723e-19
3.89024e-20
-4.59346e-19
-4.48193e-22
0.00129149
-4.57264e-19
2.84051e-20
-4.67921e-19
8.98469e-21
0.00122481
-5.98266e-19
-6.24348e-21
-5.77174e-19
-1.49246e-20
0.00116133
-4.90588e-19
-9.63717e-21
-4.39623e-19
-1.50015e-20
0.00110091
-4.69138e-19
-2.53414e-20
-4.91621e-19
-1.0712e-20
0.00104342
-2.69331e-19
4.11054e-21
-3.13106e-19
4.62122e-21
0.000988732
-4.38947e-19
1.71971e-21
-2.03515e-19
-9.2912e-21
0.000936718
-2.85553e-19
1.16696e-20
-2.79352e-19
-3.50089e-20
0.000887257
-2.14353e-19
1.57872e-20
-3.30678e-19
-2.00269e-20
0.000840234
-1.83302e-19
1.74057e-20
-2.84031e-19
-4.19133e-22
0.000795537
-1.68557e-19
1.81185e-20
-1.51874e-19
6.01401e-21
0.000753057
-2.2212e-19
1.12592e-20
-1.4018e-19
1.40563e-21
0.000712689
-1.96198e-19
1.42987e-20
-2.00428e-19
-1.20381e-21
0.000674336
-1.90037e-19
1.22591e-20
-1.93881e-19
-1.86433e-22
0.000637901
-1.85589e-19
1.08709e-20
-2.24744e-19
6.413e-21
0.000603292
-1.92815e-19
5.41934e-21
-2.45528e-19
1.21988e-20
0.000570422
-1.33808e-19
6.20727e-21
-1.66681e-19
1.7324e-20
0.000539208
-6.11223e-20
1.22876e-21
-1.88758e-19
1.88566e-20
0.000509568
-1.28642e-19
-8.15733e-21
-1.01119e-19
1.83459e-20
0.000481427
-1.20087e-19
-6.8319e-21
-8.01257e-20
1.22883e-20
0.000454711
-1.53853e-19
-6.43278e-21
-1.12856e-19
6.78562e-21
0.000429351
-1.29353e-19
-4.93338e-21
-1.18042e-19
6.06381e-21
0.000405279
-1.16518e-19
-6.27804e-21
-8.25573e-20
6.53388e-21
0.000382433
-1.25331e-19
-6.41188e-21
-6.70836e-20
5.9416e-21
0.000360751
-8.69286e-20
-4.11337e-21
-8.51033e-20
4.48163e-21
0.000340176
-6.89662e-20
-2.77364e-21
-1.02066e-19
5.07768e-21
0.000320653
-4.15346e-20
-2.10317e-21
-5.46324e-20
6.13601e-21
0.000302128
-3.28265e-20
-1.94898e-21
-7.26636e-20
5.35426e-21
0.000284552
-6.23427e-20
-1.84891e-21
-4.50891e-20
5.13565e-21
0.000267877
-4.92329e-20
-1.40635e-21
2.20825e-21
4.68588e-21
0.000252058
-5.03106e-20
-1.25689e-21
-2.49488e-20
3.51481e-21
0.000237051
-4.73703e-20
-1.0632e-21
-4.38707e-20
2.73708e-21
0.000222815
-6.23097e-20
-8.08199e-22
-1.78842e-20
2.65232e-21
0.000209311
-5.34272e-20
-6.56e-22
-2.69795e-20
2.64591e-21
0.000196501
-4.963e-20
-1.41716e-22
-3.90995e-20
2.28735e-21
0.00018435
6.01416e-21
1.66003e-22
-4.00761e-20
2.54107e-21
0.000172825
9.27553e-21
3.38875e-22
-2.75511e-20
2.83107e-21
0.000161893
1.34433e-20
4.27021e-22
-3.49716e-20
2.79628e-21
0.000151523
9.61678e-21
6.92337e-22
-4.38959e-20
2.74815e-21
0.000141688
-1.65342e-20
8.96299e-22
-3.14076e-20
2.81279e-21
0.000132359
-2.25531e-20
1.20334e-21
9.92125e-21
2.69424e-21
0.000123512
-8.12896e-22
1.25764e-21
1.88532e-21
2.51944e-21
0.000115121
-6.01545e-21
1.15846e-21
-1.46785e-20
2.2569e-21
0.000107165
4.75134e-21
1.08714e-21
-1.47016e-20
2.10898e-21
9.96218e-05
5.39863e-21
9.28604e-22
-1.29056e-21
1.98045e-21
9.24721e-05
-5.01325e-21
7.87026e-22
1.03003e-20
1.85145e-21
8.56977e-05
-3.91874e-21
7.02603e-22
-5.67391e-21
1.70308e-21
7.92821e-05
-1.53561e-21
5.63232e-22
1.06453e-21
1.55702e-21
7.32104e-05
8.99266e-22
4.53996e-22
1.15705e-22
1.39331e-21
6.74693e-05
7.53218e-21
3.44277e-22
-2.30118e-21
1.25625e-21
6.20472e-05
-3.73489e-21
2.653e-22
-7.58357e-21
1.15021e-21
5.69339e-05
-8.17728e-21
2.14268e-22
-8.50992e-21
1.06831e-21
5.21208e-05
-1.10436e-20
1.74701e-22
-9.16004e-21
9.76251e-22
4.76004e-05
-1.36672e-20
1.3357e-22
-3.30471e-21
9.02522e-22
4.33659e-05
-1.36647e-20
1.101e-22
-7.25817e-21
8.31595e-22
3.94111e-05
-1.26584e-20
9.34772e-23
-1.55268e-21
7.67049e-22
3.57297e-05
-1.24559e-20
7.78205e-23
-2.38601e-21
6.99233e-22
3.23146e-05
-1.14718e-20
6.84109e-23
-5.0924e-21
6.26206e-22
2.91579e-05
-1.40906e-20
6.09377e-23
-6.33148e-21
5.69519e-22
2.62503e-05
-1.19325e-20
5.96871e-23
5.62246e-22
5.13656e-22
2.35813e-05
-1.33134e-20
5.70982e-23
-1.1739e-21
4.49266e-22
2.1139e-05
-1.1586e-20
5.39301e-23
-3.08111e-21
3.94117e-22
1.89104e-05
-1.17813e-20
4.67928e-23
-1.56537e-21
3.43615e-22
1.6882e-05
-1.02576e-20
4.50911e-23
-5.97255e-22
2.95564e-22
1.50398e-05
-4.90606e-21
4.07068e-23
-1.3203e-21
2.51766e-22
1.33698e-05
-3.90791e-21
3.51036e-23
3.00626e-22
2.14303e-22
1.18585e-05
-3.13081e-21
3.05832e-23
2.25559e-21
1.81269e-22
1.04928e-05
-2.74943e-21
2.67374e-23
1.51992e-21
1.51506e-22
9.26015e-06
-2.95809e-21
2.32685e-23
1.63202e-21
1.26914e-22
8.14895e-06
-2.21723e-21
2.03726e-23
2.1542e-22
1.06039e-22
7.14833e-06
-8.6684e-22
1.77834e-23
9.57039e-22
8.91471e-23
6.24824e-06
-7.36475e-22
1.55112e-23
2.61994e-22
7.51902e-23
5.43946e-06
-1.56284e-22
1.34228e-23
2.24787e-22
6.42662e-23
4.7135e-06
-3.5621e-22
1.17056e-23
-4.51674e-23
5.50775e-23
4.06263e-06
-1.86023e-22
1.00425e-23
9.31044e-23
4.72834e-23
3.47977e-06
-3.48104e-22
8.40035e-24
9.0014e-23
4.08442e-23
2.95847e-06
-3.05687e-22
7.14118e-24
-4.92244e-24
3.526e-23
2.49288e-06
-5.21062e-22
6.01184e-24
1.17034e-22
3.04722e-23
2.07764e-06
-4.96131e-22
5.12125e-24
-1.33555e-22
2.63719e-23
1.70792e-06
-4.23296e-22
4.33082e-24
-4.72171e-23
2.29182e-23
1.37929e-06
-2.44036e-22
3.70485e-24
-1.23405e-22
1.9866e-23
1.08776e-06
-1.43988e-22
3.17087e-24
-1.37497e-22
1.72623e-23
8.29683e-07
-1.1678e-22
2.68555e-24
-1.76834e-24
1.50314e-23
6.01771e-07
-5.16276e-23
2.29422e-24
-2.05552e-23
1.30769e-23
4.01021e-07
-2.16922e-23
1.97682e-24
-4.31075e-24
1.13769e-23
2.2472e-07
1.09265e-23
1.70342e-24
-1.11067e-23
9.89537e-24
7.04069e-08
-9.29052e-25
7.05314e-25
0.00262728
2.65579e-20
-5.04146e-20
0.00250547
6.37083e-20
9.38984e-20
0.00238736
3.78182e-20
6.79764e-20
0.00227324
1.37383e-19
-2.73388e-20
0.0021633
-1.88147e-19
-3.41109e-19
0.00205764
-5.72163e-19
-3.43966e-19
0.00195629
-4.74653e-19
-4.71597e-19
0.00185922
-5.11144e-19
-5.31941e-19
0.00176637
-5.01586e-19
-5.51135e-19
0.00167764
-6.01823e-19
-5.78744e-19
0.00159292
-4.11675e-19
-6.33896e-19
0.00151207
-5.84403e-19
-4.22639e-19
0.00143498
-4.848e-19
-5.95266e-19
0.0013615
-6.43394e-19
-4.49554e-19
0.00129149
-5.48381e-19
-4.6057e-19
0.00122481
-5.44607e-19
-4.7269e-19
0.00116133
-5.46674e-19
-4.03273e-19
0.00110091
-3.14713e-19
-4.32279e-19
0.00104342
-3.36345e-19
-4.49046e-19
0.000988732
-4.30107e-19
-4.66172e-19
0.000936718
-3.3862e-19
-2.82424e-19
0.000887257
-3.05196e-19
-3.0545e-19
0.000840234
-2.86096e-19
-3.47147e-19
0.000795537
-2.75154e-19
-2.74999e-19
0.000753057
-1.49398e-19
-2.026e-19
0.000712689
-1.95694e-19
-2.13568e-19
0.000674336
-1.93805e-19
-1.59741e-19
0.000637901
-2.44161e-19
-1.81491e-19
0.000603292
-1.42138e-19
-1.28938e-19
0.000570422
-1.70276e-19
-5.03755e-20
0.000539208
-1.8008e-19
-9.06895e-20
0.000509568
-1.61198e-20
-1.35313e-19
0.000481427
-3.39034e-20
-1.50562e-19
0.000454711
-4.85403e-20
-9.69154e-20
0.000429351
-1.06366e-19
-6.72583e-20
0.000405279
-8.42571e-20
-4.30792e-20
0.000382433
-4.10265e-20
-8.92911e-20
0.000360751
-3.86704e-20
-9.12381e-20
0.000340176
-3.46633e-20
-7.26004e-20
0.000320653
-2.82093e-20
-6.0898e-20
0.000302128
-3.68941e-20
-5.45922e-20
0.000284552
-5.35365e-20
-7.29099e-20
0.000267877
-5.07367e-20
-5.8497e-20
0.000252058
-4.12319e-20
-5.40379e-20
0.000237051
-2.49654e-20
-7.45697e-20
0.000222815
-5.0789e-20
-5.89078e-20
0.000209311
-2.63518e-20
-9.63775e-20
0.000196501
-5.28741e-20
-6.88158e-20
0.00018435
-2.31971e-20
-4.37947e-20
0.000172825
-4.57371e-20
-3.62049e-20
0.000161893
-2.65424e-20
-4.31505e-20
0.000151523
-3.47191e-20
-3.69236e-20
0.000141688
-2.48938e-20
-5.16618e-20
0.000132359
-4.59898e-20
-1.11366e-20
0.000123512
-4.72136e-20
-2.60108e-20
0.000115121
-4.71274e-20
-1.71932e-20
0.000107165
-4.86707e-20
-1.4577e-20
9.96218e-05
-4.35222e-20
-1.48059e-20
9.24721e-05
-3.68735e-20
-1.37448e-20
8.56977e-05
-4.67853e-20
-2.5413e-20
7.92821e-05
-3.21541e-20
-2.42872e-20
7.32104e-05
-3.09508e-20
-1.92134e-20
6.74693e-05
-1.59077e-20
-1.82089e-20
6.20472e-05
-1.55807e-20
-1.63177e-20
5.69339e-05
-1.56594e-20
-2.15998e-20
5.21208e-05
-2.09169e-20
-2.1027e-20
4.76004e-05
-1.55738e-20
-1.76849e-20
4.33659e-05
-1.50036e-20
-1.74158e-20
3.94111e-05
-1.66621e-20
-1.27042e-20
3.57297e-05
-1.40773e-20
-1.54269e-20
3.23146e-05
-1.31154e-20
-6.13731e-21
2.91579e-05
-1.16557e-20
-5.38261e-21
2.62503e-05
-1.1198e-20
-6.23581e-21
2.35813e-05
-1.14965e-20
-4.89705e-21
2.1139e-05
-1.245e-20
-7.25976e-21
1.89104e-05
-4.61782e-21
-5.18711e-21
1.6882e-05
-6.03586e-21
-4.84274e-21
1.50398e-05
-3.39688e-21
-6.19024e-21
1.33698e-05
-2.86159e-21
-6.1528e-21
1.18585e-05
-3.13441e-21
-6.45429e-21
1.04928e-05
-3.35033e-21
-4.95977e-21
9.26015e-06
-3.14125e-21
-4.67386e-21
8.14895e-06
-3.13585e-21
-4.35242e-21
7.14833e-06
-2.35867e-21
-2.3294e-21
6.24824e-06
-2.28976e-21
-3.56692e-23
5.43946e-06
-6.35461e-22
-1.61601e-22
4.7135e-06
-7.73338e-22
-6.95514e-22
4.06263e-06
-1.14388e-21
-3.07322e-22
3.47977e-06
-3.69436e-22
-8.96581e-22
2.95847e-06
-3.69673e-22
-6.77851e-22
2.49288e-06
-3.28241e-23
-3.72951e-22
2.07764e-06
2.58862e-23
-4.22227e-23
1.70792e-06
4.33619e-22
-2.12691e-22
1.37929e-06
3.91209e-22
-3.82631e-23
1.08776e-06
1.86092e-23
5.73213e-23
8.29683e-07
3.11774e-23
3.16471e-24
6.01771e-07
8.13838e-23
-3.28213e-24
4.01021e-07
1.472e-25
-5.1517e-24
2.2472e-07
6.94211e-24
-9.99549e-24
7.04069e-08
)
;

boundaryField
{
    walls
    {
        type            calculated;
        value           uniform 0;
    }
    inlet
    {
        type            cyclic;
        value           nonuniform List<scalar> 
400
(
-7.04068e-08
-2.24721e-07
-4.01021e-07
-6.0177e-07
-8.29684e-07
-1.08776e-06
-1.37929e-06
-1.70791e-06
-2.07764e-06
-2.49288e-06
-2.95847e-06
-3.47977e-06
-4.06263e-06
-4.7135e-06
-5.43946e-06
-6.24824e-06
-7.14832e-06
-8.14895e-06
-9.26015e-06
-1.04928e-05
-1.18585e-05
-1.33698e-05
-1.50398e-05
-1.6882e-05
-1.89104e-05
-2.1139e-05
-2.35813e-05
-2.62503e-05
-2.91579e-05
-3.23146e-05
-3.57297e-05
-3.94111e-05
-4.33659e-05
-4.76004e-05
-5.21208e-05
-5.69339e-05
-6.20472e-05
-6.74693e-05
-7.32104e-05
-7.92821e-05
-8.56977e-05
-9.24721e-05
-9.96218e-05
-0.000107165
-0.000115121
-0.000123512
-0.000132359
-0.000141688
-0.000151523
-0.000161893
-0.000172825
-0.00018435
-0.000196501
-0.000209311
-0.000222815
-0.000237051
-0.000252058
-0.000267877
-0.000284552
-0.000302128
-0.000320653
-0.000340176
-0.000360751
-0.000382433
-0.000405279
-0.000429351
-0.000454711
-0.000481427
-0.000509568
-0.000539208
-0.000570422
-0.000603292
-0.000637901
-0.000674336
-0.000712689
-0.000753057
-0.000795537
-0.000840234
-0.000887257
-0.000936718
-0.000988732
-0.00104342
-0.00110091
-0.00116133
-0.00122481
-0.00129149
-0.0013615
-0.00143498
-0.00151207
-0.00159292
-0.00167764
-0.00176637
-0.00185922
-0.00195629
-0.00205764
-0.0021633
-0.00227324
-0.00238736
-0.00250547
-0.00262728
-7.04068e-08
-2.24721e-07
-4.01021e-07
-6.0177e-07
-8.29684e-07
-1.08776e-06
-1.37929e-06
-1.70791e-06
-2.07764e-06
-2.49288e-06
-2.95847e-06
-3.47977e-06
-4.06263e-06
-4.7135e-06
-5.43946e-06
-6.24824e-06
-7.14832e-06
-8.14895e-06
-9.26015e-06
-1.04928e-05
-1.18585e-05
-1.33698e-05
-1.50398e-05
-1.6882e-05
-1.89104e-05
-2.1139e-05
-2.35813e-05
-2.62503e-05
-2.91579e-05
-3.23146e-05
-3.57297e-05
-3.94111e-05
-4.33659e-05
-4.76004e-05
-5.21208e-05
-5.69339e-05
-6.20472e-05
-6.74693e-05
-7.32104e-05
-7.92821e-05
-8.56977e-05
-9.24721e-05
-9.96218e-05
-0.000107165
-0.000115121
-0.000123512
-0.000132359
-0.000141688
-0.000151523
-0.000161893
-0.000172825
-0.00018435
-0.000196501
-0.000209311
-0.000222815
-0.000237051
-0.000252058
-0.000267877
-0.000284552
-0.000302128
-0.000320653
-0.000340176
-0.000360751
-0.000382433
-0.000405279
-0.000429351
-0.000454711
-0.000481427
-0.000509568
-0.000539208
-0.000570422
-0.000603292
-0.000637901
-0.000674336
-0.000712689
-0.000753057
-0.000795537
-0.000840234
-0.000887257
-0.000936718
-0.000988732
-0.00104342
-0.00110091
-0.00116133
-0.00122481
-0.00129149
-0.0013615
-0.00143498
-0.00151207
-0.00159292
-0.00167764
-0.00176637
-0.00185922
-0.00195629
-0.00205764
-0.0021633
-0.00227324
-0.00238736
-0.00250547
-0.00262728
-0.00262728
-0.00250547
-0.00238736
-0.00227324
-0.0021633
-0.00205764
-0.00195629
-0.00185922
-0.00176637
-0.00167764
-0.00159292
-0.00151207
-0.00143498
-0.0013615
-0.00129149
-0.00122481
-0.00116133
-0.00110091
-0.00104342
-0.000988732
-0.000936718
-0.000887257
-0.000840234
-0.000795537
-0.000753057
-0.000712689
-0.000674336
-0.000637901
-0.000603292
-0.000570422
-0.000539208
-0.000509568
-0.000481427
-0.000454711
-0.000429351
-0.000405279
-0.000382433
-0.000360751
-0.000340176
-0.000320653
-0.000302128
-0.000284552
-0.000267877
-0.000252058
-0.000237051
-0.000222815
-0.000209311
-0.000196501
-0.00018435
-0.000172825
-0.000161893
-0.000151523
-0.000141688
-0.000132359
-0.000123512
-0.000115121
-0.000107165
-9.96218e-05
-9.24721e-05
-8.56977e-05
-7.92821e-05
-7.32104e-05
-6.74693e-05
-6.20472e-05
-5.69339e-05
-5.21208e-05
-4.76004e-05
-4.33659e-05
-3.94111e-05
-3.57297e-05
-3.23146e-05
-2.91579e-05
-2.62503e-05
-2.35813e-05
-2.1139e-05
-1.89104e-05
-1.6882e-05
-1.50398e-05
-1.33698e-05
-1.18585e-05
-1.04928e-05
-9.26015e-06
-8.14895e-06
-7.14833e-06
-6.24824e-06
-5.43946e-06
-4.7135e-06
-4.06263e-06
-3.47977e-06
-2.95847e-06
-2.49288e-06
-2.07764e-06
-1.70792e-06
-1.37929e-06
-1.08776e-06
-8.29683e-07
-6.01771e-07
-4.01021e-07
-2.2472e-07
-7.04069e-08
-0.00262728
-0.00250547
-0.00238736
-0.00227324
-0.0021633
-0.00205764
-0.00195629
-0.00185922
-0.00176637
-0.00167764
-0.00159292
-0.00151207
-0.00143498
-0.0013615
-0.00129149
-0.00122481
-0.00116133
-0.00110091
-0.00104342
-0.000988732
-0.000936718
-0.000887257
-0.000840234
-0.000795537
-0.000753057
-0.000712689
-0.000674336
-0.000637901
-0.000603292
-0.000570422
-0.000539208
-0.000509568
-0.000481427
-0.000454711
-0.000429351
-0.000405279
-0.000382433
-0.000360751
-0.000340176
-0.000320653
-0.000302128
-0.000284552
-0.000267877
-0.000252058
-0.000237051
-0.000222815
-0.000209311
-0.000196501
-0.00018435
-0.000172825
-0.000161893
-0.000151523
-0.000141688
-0.000132359
-0.000123512
-0.000115121
-0.000107165
-9.96218e-05
-9.24721e-05
-8.56977e-05
-7.92821e-05
-7.32104e-05
-6.74693e-05
-6.20472e-05
-5.69339e-05
-5.21208e-05
-4.76004e-05
-4.33659e-05
-3.94111e-05
-3.57297e-05
-3.23146e-05
-2.91579e-05
-2.62503e-05
-2.35813e-05
-2.1139e-05
-1.89104e-05
-1.6882e-05
-1.50398e-05
-1.33698e-05
-1.18585e-05
-1.04928e-05
-9.26015e-06
-8.14895e-06
-7.14833e-06
-6.24824e-06
-5.43946e-06
-4.7135e-06
-4.06263e-06
-3.47977e-06
-2.95847e-06
-2.49288e-06
-2.07764e-06
-1.70792e-06
-1.37929e-06
-1.08776e-06
-8.29683e-07
-6.01771e-07
-4.01021e-07
-2.2472e-07
-7.04069e-08
)
;
    }
    outlet
    {
        type            cyclic;
        value           nonuniform List<scalar> 
400
(
7.04068e-08
2.24721e-07
4.01021e-07
6.0177e-07
8.29684e-07
1.08776e-06
1.37929e-06
1.70791e-06
2.07764e-06
2.49288e-06
2.95847e-06
3.47977e-06
4.06263e-06
4.7135e-06
5.43946e-06
6.24824e-06
7.14832e-06
8.14895e-06
9.26015e-06
1.04928e-05
1.18585e-05
1.33698e-05
1.50398e-05
1.6882e-05
1.89104e-05
2.1139e-05
2.35813e-05
2.62503e-05
2.91579e-05
3.23146e-05
3.57297e-05
3.94111e-05
4.33659e-05
4.76004e-05
5.21208e-05
5.69339e-05
6.20472e-05
6.74693e-05
7.32104e-05
7.92821e-05
8.56977e-05
9.24721e-05
9.96218e-05
0.000107165
0.000115121
0.000123512
0.000132359
0.000141688
0.000151523
0.000161893
0.000172825
0.00018435
0.000196501
0.000209311
0.000222815
0.000237051
0.000252058
0.000267877
0.000284552
0.000302128
0.000320653
0.000340176
0.000360751
0.000382433
0.000405279
0.000429351
0.000454711
0.000481427
0.000509568
0.000539208
0.000570422
0.000603292
0.000637901
0.000674336
0.000712689
0.000753057
0.000795537
0.000840234
0.000887257
0.000936718
0.000988732
0.00104342
0.00110091
0.00116133
0.00122481
0.00129149
0.0013615
0.00143498
0.00151207
0.00159292
0.00167764
0.00176637
0.00185922
0.00195629
0.00205764
0.0021633
0.00227324
0.00238736
0.00250547
0.00262728
7.04068e-08
2.24721e-07
4.01021e-07
6.0177e-07
8.29684e-07
1.08776e-06
1.37929e-06
1.70791e-06
2.07764e-06
2.49288e-06
2.95847e-06
3.47977e-06
4.06263e-06
4.7135e-06
5.43946e-06
6.24824e-06
7.14832e-06
8.14895e-06
9.26015e-06
1.04928e-05
1.18585e-05
1.33698e-05
1.50398e-05
1.6882e-05
1.89104e-05
2.1139e-05
2.35813e-05
2.62503e-05
2.91579e-05
3.23146e-05
3.57297e-05
3.94111e-05
4.33659e-05
4.76004e-05
5.21208e-05
5.69339e-05
6.20472e-05
6.74693e-05
7.32104e-05
7.92821e-05
8.56977e-05
9.24721e-05
9.96218e-05
0.000107165
0.000115121
0.000123512
0.000132359
0.000141688
0.000151523
0.000161893
0.000172825
0.00018435
0.000196501
0.000209311
0.000222815
0.000237051
0.000252058
0.000267877
0.000284552
0.000302128
0.000320653
0.000340176
0.000360751
0.000382433
0.000405279
0.000429351
0.000454711
0.000481427
0.000509568
0.000539208
0.000570422
0.000603292
0.000637901
0.000674336
0.000712689
0.000753057
0.000795537
0.000840234
0.000887257
0.000936718
0.000988732
0.00104342
0.00110091
0.00116133
0.00122481
0.00129149
0.0013615
0.00143498
0.00151207
0.00159292
0.00167764
0.00176637
0.00185922
0.00195629
0.00205764
0.0021633
0.00227324
0.00238736
0.00250547
0.00262728
0.00262728
0.00250547
0.00238736
0.00227324
0.0021633
0.00205764
0.00195629
0.00185922
0.00176637
0.00167764
0.00159292
0.00151207
0.00143498
0.0013615
0.00129149
0.00122481
0.00116133
0.00110091
0.00104342
0.000988732
0.000936718
0.000887257
0.000840234
0.000795537
0.000753057
0.000712689
0.000674336
0.000637901
0.000603292
0.000570422
0.000539208
0.000509568
0.000481427
0.000454711
0.000429351
0.000405279
0.000382433
0.000360751
0.000340176
0.000320653
0.000302128
0.000284552
0.000267877
0.000252058
0.000237051
0.000222815
0.000209311
0.000196501
0.00018435
0.000172825
0.000161893
0.000151523
0.000141688
0.000132359
0.000123512
0.000115121
0.000107165
9.96218e-05
9.24721e-05
8.56977e-05
7.92821e-05
7.32104e-05
6.74693e-05
6.20472e-05
5.69339e-05
5.21208e-05
4.76004e-05
4.33659e-05
3.94111e-05
3.57297e-05
3.23146e-05
2.91579e-05
2.62503e-05
2.35813e-05
2.1139e-05
1.89104e-05
1.6882e-05
1.50398e-05
1.33698e-05
1.18585e-05
1.04928e-05
9.26015e-06
8.14895e-06
7.14833e-06
6.24824e-06
5.43946e-06
4.7135e-06
4.06263e-06
3.47977e-06
2.95847e-06
2.49288e-06
2.07764e-06
1.70792e-06
1.37929e-06
1.08776e-06
8.29683e-07
6.01771e-07
4.01021e-07
2.2472e-07
7.04069e-08
0.00262728
0.00250547
0.00238736
0.00227324
0.0021633
0.00205764
0.00195629
0.00185922
0.00176637
0.00167764
0.00159292
0.00151207
0.00143498
0.0013615
0.00129149
0.00122481
0.00116133
0.00110091
0.00104342
0.000988732
0.000936718
0.000887257
0.000840234
0.000795537
0.000753057
0.000712689
0.000674336
0.000637901
0.000603292
0.000570422
0.000539208
0.000509568
0.000481427
0.000454711
0.000429351
0.000405279
0.000382433
0.000360751
0.000340176
0.000320653
0.000302128
0.000284552
0.000267877
0.000252058
0.000237051