/*--------------------------------*- C++ -*----------------------------------*\
| =========                 |                                                 |
| \\      /  F ield         | OpenFOAM: The Open Source CFD Toolbox           |
|  \\    /   O peration     | Version:  2106                                  |
|   \\  /    A nd           | Website:  www.openfoam.com                      |
|    \\/     M anipulation  |                                                 |
\*---------------------------------------------------------------------------*/
FoamFile
{
    version     2.0;
    format      ascii;
    arch        "LSB;label=32;scalar=64";
    class       surfaceScalarField;
    location    "10090";
    object      phi;
}
// * * * * * * * * * * * * * * * * * * * * * * * * * * * * * * * * * * * * * //

dimensions      [0 3 -1 0 0 0 0];

oriented        oriented;

internalField   nonuniform List<scalar> 
3996
(
9.04276e-09
-2.95314e-18
4.12548e-22
7.01266e-22
5.25195e-23
2.78032e-08
-2.95937e-18
2.18139e-21
4.51409e-21
2.48502e-22
4.76108e-08
-2.96578e-18
2.24529e-21
8.40544e-21
2.62487e-22
6.85112e-08
-2.97235e-18
2.30037e-21
1.23849e-20
2.77136e-22
9.05516e-08
-2.97905e-18
2.35706e-21
1.64311e-20
2.92466e-22
1.13781e-07
-2.98592e-18
2.41656e-21
2.05774e-20
3.08499e-22
1.38252e-07
-2.99298e-18
2.47726e-21
2.48069e-20
3.25257e-22
1.64016e-07
-3.00022e-18
2.53877e-21
2.91253e-20
3.42765e-22
1.9113e-07
-3.00755e-18
2.60106e-21
3.3488e-20
3.61046e-22
2.19651e-07
-3.01511e-18
2.66418e-21
3.79737e-20
3.80127e-22
2.49638e-07
-3.02288e-18
2.72814e-21
4.25803e-20
4.00032e-22
2.81154e-07
-3.03079e-18
2.79296e-21
4.72322e-20
4.20788e-22
3.14264e-07
-3.03876e-18
2.85862e-21
5.18622e-20
4.42422e-22
3.49035e-07
-3.04688e-18
2.92512e-21
5.66775e-20
4.64962e-22
3.85537e-07
-3.05512e-18
2.99244e-21
6.15574e-20
4.88436e-22
4.23842e-07
-3.06374e-18
3.06056e-21
6.65436e-20
5.12871e-22
4.64025e-07
-3.07248e-18
3.12945e-21
7.15861e-20
5.38288e-22
5.06166e-07
-3.08139e-18
3.19908e-21
7.6754e-20
5.64718e-22
5.50346e-07
-3.09044e-18
3.26942e-21
8.20015e-20
5.92186e-22
5.96649e-07
-3.09964e-18
3.34043e-21
8.72036e-20
6.2072e-22
6.45163e-07
-3.1091e-18
3.41208e-21
9.26916e-20
6.50353e-22
6.9598e-07
-3.11866e-18
3.48432e-21
9.82583e-20
6.8111e-22
7.49194e-07
-3.12855e-18
3.55712e-21
1.03791e-19
7.13016e-22
8.04905e-07
-3.13857e-18
3.63043e-21
1.09557e-19
7.46098e-22
8.63214e-07
-3.14884e-18
3.70422e-21
1.15447e-19
7.80378e-22
9.24229e-07
-3.1592e-18
3.77843e-21
1.21021e-19
8.15875e-22
9.88058e-07
-3.16946e-18
3.85302e-21
1.26711e-19
8.52628e-22
1.05482e-06
-3.18007e-18
3.9279e-21
1.32326e-19
8.90671e-22
1.12463e-06
-3.19096e-18
4.00305e-21
1.38311e-19
9.30019e-22
1.19761e-06
-3.20188e-18
4.07842e-21
1.44336e-19
9.70683e-22
1.2739e-06
-3.21298e-18
4.15397e-21
1.50329e-19
1.01267e-21
1.35362e-06
-3.22402e-18
4.22964e-21
1.56434e-19
1.05601e-21
1.43691e-06
-3.23543e-18
4.30536e-21
1.62378e-19
1.1007e-21
1.52392e-06
-3.24762e-18
4.38106e-21
1.6895e-19
1.14678e-21
1.6148e-06
-3.25963e-18
4.45672e-21
1.75205e-19
1.19426e-21
1.7097e-06
-3.2717e-18
4.53224e-21
1.81422e-19
1.24317e-21
1.80878e-06
-3.28369e-18
4.60754e-21
1.8776e-19
1.29354e-21
1.91222e-06
-3.29557e-18
4.68257e-21
1.93851e-19
1.34538e-21
2.02017e-06
-3.30759e-18
4.75722e-21
1.99583e-19
1.39873e-21
2.13283e-06
-3.32018e-18
4.83139e-21
2.05468e-19
1.45362e-21
2.25038e-06
-3.33356e-18
4.90505e-21
2.11919e-19
1.51004e-21
2.37301e-06
-3.34694e-18
4.97818e-21
2.183e-19
1.56794e-21
2.50092e-06
-3.36032e-18
5.05069e-21
2.24593e-19
1.62733e-21
2.63432e-06
-3.3735e-18
5.12248e-21
2.30734e-19
1.6882e-21
2.77343e-06
-3.38636e-18
5.19344e-21
2.36573e-19
1.75056e-21
2.91847e-06
-3.39886e-18
5.26338e-21
2.42132e-19
1.81447e-21
3.06967e-06
-3.414e-18
5.33213e-21
2.48782e-19
1.87999e-21
3.22727e-06
-3.42794e-18
5.39982e-21
2.54983e-19
1.94706e-21
3.39152e-06
-3.44242e-18
5.46623e-21
2.61454e-19
2.0157e-21
3.56267e-06
-3.45612e-18
5.53127e-21
2.67363e-19
2.08588e-21
3.74099e-06
-3.4694e-18
5.59476e-21
2.72872e-19
2.15765e-21
3.92676e-06
-3.4819e-18
5.65654e-21
2.78224e-19
2.23099e-21
4.12025e-06
-3.49606e-18
5.71647e-21
2.83936e-19
2.30582e-21
4.32177e-06
-3.50855e-18
5.77464e-21
2.89322e-19
2.38199e-21
4.53162e-06
-3.5233e-18
5.83081e-21
2.97205e-19
2.45954e-21
4.7501e-06
-3.53848e-18
5.88499e-21
3.03364e-19
2.53815e-21
4.97753e-06
-3.55272e-18
5.93711e-21
3.09951e-19
2.6181e-21
5.21426e-06
-3.5672e-18
5.9869e-21
3.15538e-19
2.69925e-21
5.46062e-06
-3.58125e-18
6.03414e-21
3.20359e-19
2.78163e-21
5.71697e-06
-3.59423e-18
6.07854e-21
3.25184e-19
2.86534e-21
5.98365e-06
-3.60856e-18
6.11995e-21
3.31405e-19
2.95015e-21
6.26104e-06
-3.62227e-18
6.15832e-21
3.37717e-19
3.03578e-21
6.54952e-06
-3.63579e-18
6.19321e-21
3.42051e-19
3.12245e-21
6.84948e-06
-3.65139e-18
6.22416e-21
3.47471e-19
3.21022e-21
7.1613e-06
-3.66358e-18
6.25128e-21
3.5147e-19
3.29871e-21
7.4854e-06
-3.67864e-18
6.2739e-21
3.56181e-19
3.38795e-21
7.82217e-06
-3.69368e-18
6.29221e-21
3.61562e-19
3.47761e-21
8.17204e-06
-3.70741e-18
6.30584e-21
3.64389e-19
3.56727e-21
8.53542e-06
-3.72204e-18
6.31428e-21
3.70114e-19
3.65766e-21
8.91274e-06
-3.73582e-18
6.31701e-21
3.71879e-19
3.74827e-21
9.30442e-06
-3.74643e-18
6.31365e-21
3.73567e-19
3.83886e-21
9.71089e-06
-3.76296e-18
6.3031e-21
3.81027e-19
3.93011e-21
1.01326e-05
-3.77684e-18
6.28609e-21
3.8371e-19
4.02113e-21
1.05699e-05
-3.79163e-18
6.26209e-21
3.86168e-19
4.11213e-21
1.10234e-05
-3.80423e-18
6.23072e-21
3.88534e-19
4.20315e-21
1.14933e-05
-3.81736e-18
6.19084e-21
3.88325e-19
4.29469e-21
1.19802e-05
-3.8276e-18
6.1425e-21
3.88747e-19
4.38574e-21
1.24844e-05
-3.8377e-18
6.08512e-21
3.90458e-19
4.47582e-21
1.30063e-05
-3.85057e-18
6.01668e-21
3.93073e-19
4.56594e-21
1.35464e-05
-3.86336e-18
5.9391e-21
3.93371e-19
4.65446e-21
1.4105e-05
-3.87278e-18
5.85226e-21
3.92675e-19
4.74052e-21
1.46825e-05
-3.88123e-18
5.75524e-21
3.91018e-19
4.82494e-21
1.52793e-05
-3.88787e-18
5.64743e-21
3.9171e-19
4.90864e-21
1.58957e-05
-3.8966e-18
5.5278e-21
3.88551e-19
4.99132e-21
1.65321e-05
-3.90674e-18
5.39633e-21
3.87486e-19
5.07438e-21
1.71888e-05
-3.91398e-18
5.25243e-21
3.85241e-19
5.15588e-21
1.78662e-05
-3.92815e-18
5.09459e-21
3.77851e-19
5.23522e-21
1.85644e-05
-3.93472e-18
4.92647e-21
3.7083e-19
5.31427e-21
1.92839e-05
-3.94027e-18
4.74505e-21
3.63582e-19
5.39373e-21
2.00249e-05
-3.94966e-18
4.54808e-21
3.63336e-19
5.47579e-21
2.07877e-05
-3.95428e-18
4.33733e-21
3.57811e-19
5.55655e-21
2.15726e-05
-3.95931e-18
4.11177e-21
3.54008e-19
5.63861e-21
2.23798e-05
-3.96056e-18
3.87347e-21
3.4854e-19
5.71947e-21
2.32096e-05
-3.96614e-18
3.617e-21
3.42827e-19
5.80132e-21
2.40622e-05
-3.97053e-18
3.34861e-21
3.37846e-19
5.88356e-21
2.4938e-05
-3.96591e-18
3.06784e-21
3.25929e-19
5.96287e-21
2.58372e-05
-3.96815e-18
2.77224e-21
3.13709e-19
6.04095e-21
2.676e-05
-3.96517e-18
2.46678e-21
3.00989e-19
6.11725e-21
2.77068e-05
-3.96371e-18
2.15111e-21
2.89373e-19
6.18912e-21
2.86778e-05
-3.96372e-18
1.83014e-21
2.78379e-19
6.25547e-21
2.96733e-05
-3.9605e-18
1.50499e-21
2.6942e-19
6.31307e-21
3.06937e-05
-3.95043e-18
1.17212e-21
2.49154e-19
6.35973e-21
3.17392e-05
-3.93824e-18
8.32276e-22
2.29564e-19
6.40454e-21
3.28101e-05
-3.91879e-18
4.81764e-22
2.04272e-19
6.45041e-21
3.39068e-05
-3.91222e-18
1.21076e-22
1.81089e-19
6.4916e-21
3.50297e-05
-3.90937e-18
-2.51134e-22
1.71236e-19
6.53452e-21
3.61792e-05
-3.90969e-18
-6.24769e-22
1.60286e-19
6.56648e-21
3.73556e-05
-3.90172e-18
-9.83984e-22
1.45354e-19
6.58594e-21
3.85593e-05
-3.90166e-18
-1.33631e-21
1.41567e-19
6.5917e-21
3.97909e-05
-3.88184e-18
-1.68276e-21
1.30637e-19
6.57866e-21
4.10506e-05
-3.8709e-18
-2.03867e-21
1.08832e-19
6.55135e-21
4.23391e-05
-3.85115e-18
-2.38132e-21
8.866e-20
6.51331e-21
4.36567e-05
-3.83742e-18
-2.73532e-21
7.12105e-20
6.47034e-21
4.5004e-05
-3.81376e-18
-3.07895e-21
5.2589e-20
6.40613e-21
4.63816e-05
-3.79143e-18
-3.43486e-21
3.32156e-20
6.32267e-21
4.77899e-05
-3.75505e-18
-3.79797e-21
-8.10601e-21
6.22743e-21
4.92295e-05
-3.74213e-18
-4.17926e-21
-2.95996e-20
6.13246e-21
5.0701e-05
-3.70281e-18
-4.56128e-21
-6.45695e-20
6.02633e-21
5.2205e-05
-3.67519e-18
-4.97996e-21
-7.96096e-20
5.91844e-21
5.37422e-05
-3.64347e-18
-5.40645e-21
-1.07563e-19
5.79319e-21
5.53131e-05
-3.61816e-18
-5.85292e-21
-1.32785e-19
5.67579e-21
5.69185e-05
-3.5907e-18
-6.30586e-21
-1.58315e-19
5.55044e-21
5.8559e-05
-3.5671e-18
-6.77581e-21
-1.89406e-19
5.42768e-21
6.02354e-05
-3.52821e-18
-7.24614e-21
-2.18327e-19
5.31697e-21
6.19483e-05
-3.50955e-18
-7.72863e-21
-2.11443e-19
5.21914e-21
6.36985e-05
-3.47588e-18
-8.1974e-21
-2.40336e-19
5.09176e-21
6.54867e-05
-3.45412e-18
-8.67737e-21
-2.49574e-19
4.94664e-21
6.73138e-05
-3.42312e-18
-9.13032e-21
-2.71032e-19
4.77098e-21
6.91806e-05
-3.3993e-18
-9.5817e-21
-2.81017e-19
4.55419e-21
7.10878e-05
-3.37578e-18
-9.97119e-21
-2.95499e-19
4.2928e-21
7.30364e-05
-3.34324e-18
-1.03041e-20
-3.16551e-19
4.00304e-21
7.50271e-05
-3.2879e-18
-1.05913e-20
-3.40163e-19
3.66096e-21
7.70608e-05
-3.25828e-18
-1.08499e-20
-3.68676e-19
3.26322e-21
7.91386e-05
-3.21301e-18
-1.10288e-20
-3.75953e-19
2.85901e-21
8.12612e-05
-3.17665e-18
-1.12133e-20
-4.01367e-19
2.45198e-21
8.34297e-05
-3.12673e-18
-1.13519e-20
-4.23542e-19
2.09269e-21
8.56451e-05
-3.10747e-18
-1.15326e-20
-4.49591e-19
1.7485e-21
8.79082e-05
-3.06372e-18
-1.16953e-20
-4.63056e-19
1.44954e-21
9.02202e-05
-3.04727e-18
-1.18714e-20
-4.6688e-19
1.15728e-21
9.2582e-05
-3.00727e-18
-1.19897e-20
-4.88324e-19
8.39963e-22
9.49948e-05
-2.98083e-18
-1.20993e-20
-5.06234e-19
5.49348e-22
9.74595e-05
-2.95361e-18
-1.22091e-20
-5.18234e-19
2.52974e-22
9.99774e-05
-2.92012e-18
-1.22906e-20
-5.3798e-19
-3.00058e-23
0.00010255
-2.88092e-18
-1.2307e-20
-5.63314e-19
-2.74034e-22
0.000105177
-2.85207e-18
-1.23455e-20
-5.84847e-19
-5.14641e-22
0.000107861
-2.81816e-18
-1.2404e-20
-5.97769e-19
-7.29474e-22
0.000110603
-2.78333e-18
-1.25048e-20
-6.21144e-19
-8.88428e-22
0.000113404
-2.76873e-18
-1.26574e-20
-6.24509e-19
-1.05421e-21
0.000116265
-2.74249e-18
-1.27047e-20
-6.46615e-19
-1.31211e-21
0.000119188
-2.69823e-18
-1.26617e-20
-6.62265e-19
-1.54634e-21
0.000122174
-2.644e-18
-1.27688e-20
-6.74995e-19
-1.69995e-21
0.000125224
-2.58342e-18
-1.29347e-20
-7.09723e-19
-1.91296e-21
0.000128339
-2.61748e-18
-1.3259e-20
-7.46104e-19
-2.19328e-21
0.000131521
-2.58496e-18
-1.32194e-20
-7.57382e-19
-2.47495e-21
0.000134772
-2.54979e-18
-1.32139e-20
-7.8709e-19
-2.74e-21
0.000138092
-2.50763e-18
-1.32217e-20
-8.0092e-19
-2.84133e-21
0.000141484
-2.48041e-18
-1.3244e-20
-8.07912e-19
-2.98767e-21
0.000144949
-2.43881e-18
-1.33558e-20
-8.26451e-19
-3.26014e-21
0.000148488
-2.39939e-18
-1.35286e-20
-8.61134e-19
-3.5482e-21
0.000152103
-2.36743e-18
-1.37298e-20
-8.67601e-19
-3.5246e-21
0.000155795
-2.34035e-18
-1.37875e-20
-8.82372e-19
-3.55134e-21
0.000159566
-2.29724e-18
-1.35437e-20
-8.69802e-19
-3.63414e-21
0.000163419
-2.26371e-18
-1.33896e-20
-8.88588e-19
-3.79852e-21
0.000167354
-2.24327e-18
-1.31463e-20
-9.0431e-19
-3.90478e-21
0.000171373
-2.20563e-18
-1.28461e-20
-9.12424e-19
-3.98332e-21
0.000175478
-2.1728e-18
-1.25754e-20
-9.20497e-19
-4.13599e-21
0.00017967
-2.14752e-18
-1.23817e-20
-9.46711e-19
-4.44701e-21
0.000183953
-2.13536e-18
-1.21232e-20
-9.61006e-19
-4.55123e-21
0.000188327
-2.10819e-18
-1.17111e-20
-9.59732e-19
-4.37543e-21
0.000192794
-2.06324e-18
-1.14092e-20
-9.57278e-19
-4.50484e-21
0.000197356
-2.02732e-18
-1.11812e-20
-9.80127e-19
-4.86272e-21
0.000202016
-1.98298e-18
-1.10244e-20
-9.65381e-19
-5.21926e-21
0.000206776
-1.98989e-18
-1.10666e-20
-9.7936e-19
-5.90944e-21
0.000211636
-1.93561e-18
-1.06292e-20
-9.54351e-19
-6.27732e-21
0.0002166
-1.9028e-18
-1.03555e-20
-9.2094e-19
-6.83705e-21
0.00022167
-1.83281e-18
-1.04147e-20
-9.39654e-19
-7.63363e-21
0.000226848
-1.82273e-18
-1.08081e-20
-9.32524e-19
-8.07151e-21
0.000232135
-1.78118e-18
-1.08553e-20
-9.44929e-19
-8.45325e-21
0.000237535
-1.76298e-18
-1.12628e-20
-9.15729e-19
-8.89277e-21
0.000243049
-1.7265e-18
-1.14938e-20
-9.24008e-19
-1.01019e-20
0.00024868
-1.61509e-18
-1.1222e-20
-9.59663e-19
-1.17498e-20
0.000254431
-1.50371e-18
-1.15124e-20
-9.71069e-19
-1.30001e-20
0.000260303
-1.50964e-18
-1.29128e-20
-9.75999e-19
-1.38527e-20
0.000266299
-1.43617e-18
-1.36554e-20
-1.00238e-18
-1.42654e-20
0.000272422
-1.39947e-18
-1.42237e-20
-9.9187e-19
-1.41204e-20
0.000278674
-1.3917e-18
-1.435e-20
-9.99546e-19
-1.43062e-20
0.000285058
-1.40808e-18
-1.47789e-20
-9.60897e-19
-1.4001e-20
0.000291576
-1.38547e-18
-1.43026e-20
-9.53722e-19
-1.34201e-20
0.000298231
-1.35929e-18
-1.4518e-20
-1.01469e-18
-1.29033e-20
0.000305027
-1.33173e-18
-1.47273e-20
-1.02114e-18
-1.18585e-20
0.000311965
-1.2666e-18
-1.43882e-20
-1.0556e-18
-1.0576e-20
0.000319048
-1.27526e-18
-1.40659e-20
-1.09756e-18
-1.08752e-20
0.00032628
-1.26355e-18
-1.40038e-20
-1.11171e-18
-1.07173e-20
0.000333663
-1.24974e-18
-1.36729e-20
-1.12481e-18
-1.1726e-20
0.0003412
-1.22257e-18
-1.42467e-20
-1.21282e-18
-1.25656e-20
0.000348894
-1.1904e-18
-1.42289e-20
-1.20037e-18
-1.22456e-20
0.000356748
-1.28991e-18
-1.51305e-20
-1.10347e-18
-1.14431e-20
0.000364766
-1.23719e-18
-1.43388e-20
-1.11448e-18
-1.34795e-20
0.00037295
-1.23989e-18
-1.31956e-20
-1.10476e-18
-1.51687e-20
0.000381304
-1.24416e-18
-1.30136e-20
-1.09507e-18
-1.68915e-20
0.000389831
-1.10504e-18
-1.26017e-20
-1.16514e-18
-1.8808e-20
0.000398533
-1.15246e-18
-1.53343e-20
-1.14024e-18
-1.82345e-20
0.000407416
-1.13878e-18
-1.69019e-20
-1.14717e-18
-1.90019e-20
0.00041648
-1.07768e-18
-1.98543e-20
-9.84769e-19
-1.78759e-20
0.000425731
-1.03666e-18
-2.40078e-20
-9.80481e-19
-1.81653e-20
0.000435172
-9.72992e-19
-2.49555e-20
-9.90466e-19
-1.88247e-20
0.000444805
-9.73249e-19
-2.49543e-20
-9.39109e-19
-1.80982e-20
0.000454635
-9.26763e-19
-2.51914e-20
-9.16821e-19
-2.03008e-20
0.000464665
-9.17713e-19
-2.51019e-20
-8.97165e-19
-2.29274e-20
0.000474898
-9.08848e-19
-2.39642e-20
-8.74674e-19
-2.60139e-20
0.000485338
-8.92962e-19
-2.25403e-20
-8.33505e-19
-2.84959e-20
0.000495989
-9.44006e-19
-2.31809e-20
-8.47268e-19
-2.88958e-20
0.000506854
-9.49706e-19
-2.16524e-20
-9.35673e-19
-2.56457e-20
0.000517936
-9.1248e-19
-2.04636e-20
-8.62079e-19
-2.66025e-20
0.000529241
-8.41313e-19
-2.18585e-20
-9.40082e-19
-3.41414e-20
0.00054077
-9.67209e-19
-2.53532e-20
-9.4835e-19
-3.52889e-20
0.000552527
-9.66725e-19
-2.46358e-20
-9.11021e-19
-3.09201e-20
0.000564517
-9.70842e-19
-2.30887e-20
-7.92559e-19
-3.11015e-20
0.000576743
-8.84603e-19
-2.60085e-20
-9.66157e-19
-3.79778e-20
0.000589207
-9.77056e-19
-3.38387e-20
-9.21648e-19
-4.49782e-20
0.000601915
-8.56221e-19
-3.2171e-20
-8.75786e-19
-4.96122e-20
0.000614868
-8.27624e-19
-3.33415e-20
-8.53383e-19
-5.31653e-20
0.000628071
-8.4575e-19
-3.59285e-20
-1.00151e-18
-5.11544e-20
0.000641527
-8.49524e-19
-3.97132e-20
-9.35104e-19
-4.10699e-20
0.000655239
-8.46908e-19
-3.90717e-20
-9.87358e-19
-3.53032e-20
0.000669209
-8.60842e-19
-3.70329e-20
-9.37963e-19
-3.07319e-20
0.000683442
-9.43077e-19
-3.6038e-20
-8.87594e-19
-3.30566e-20
0.000697939
-9.29422e-19
-3.17349e-20
-9.02187e-19
-3.2586e-20
0.000712703
-9.56946e-19
-3.09283e-20
-9.0083e-19
-2.59744e-20
0.000727736
-8.87375e-19
-2.90256e-20
-9.02999e-19
-2.22377e-20
0.000743042
-8.60757e-19
-3.03191e-20
-9.37522e-19
-2.24706e-20
0.00075862
-8.94822e-19
-2.78766e-20
-8.21714e-19
-1.47971e-20
0.000774473
-8.47531e-19
-2.64209e-20
-8.25248e-19
-2.02177e-20
0.000790601
-9.91419e-19
-3.80142e-20
-8.82126e-19
-2.65485e-20
0.000807006
-9.94181e-19
-3.18065e-20
-8.74804e-19
-2.89077e-20
0.000823687
-1.01751e-18
-3.07078e-20
-9.6686e-19
-3.83477e-20
0.000840644
-9.79541e-19
-2.50915e-20
-1.05592e-18
-5.17384e-20
0.000857875
-1.09399e-18
-1.96381e-20
-1.01306e-18
-3.6966e-20
0.000875379
-1.02258e-18
-1.411e-20
-9.95145e-19
-2.98225e-20
0.000893153
-1.07943e-18
-2.22033e-20
-1.19863e-18
-4.40616e-20
0.000911193
-1.07237e-18
-2.88749e-20
-1.14988e-18
-4.8914e-20
0.000929494
-1.16993e-18
-3.23215e-20
-1.29908e-18
-5.48849e-20
0.000948051
-9.90752e-19
-3.11646e-20
-1.23212e-18
-3.97222e-20
0.000966857
-1.11401e-18
-4.07947e-20
-1.04325e-18
-3.02518e-20
0.000985903
-9.98986e-19
-3.19141e-20
-1.15368e-18
-2.44264e-20
0.00100518
-1.00737e-18
-2.38531e-20
-9.89562e-19
-4.08714e-21
0.00102468
-1.06939e-18
-2.57963e-20
-8.37275e-19
-1.28543e-20
0.00104438
-8.90578e-19
-1.28323e-20
-8.0474e-19
-2.50576e-20
0.00106428
-9.64361e-19
1.25342e-20
-8.51085e-19
-2.16278e-21
0.00108436
2.65108e-20
-8.10925e-19
1.7938e-20
-1.00018e-18
9.04276e-09
3.75047e-22
9.04874e-23
2.78032e-08
2.3732e-21
5.25737e-22
4.76108e-08
4.42376e-21
9.79691e-22
6.85112e-08
6.51744e-21
1.4668e-21
9.05516e-08
8.65209e-21
1.98703e-21
1.13781e-07
1.08445e-20
2.52131e-21
1.38252e-07
1.30949e-20
3.14049e-21
1.64016e-07
1.53666e-20
3.74788e-21
1.9113e-07
1.76877e-20
4.39359e-21
2.19651e-07
2.00681e-20
5.08691e-21
2.49638e-07
2.25703e-20
5.82113e-21
2.81154e-07
2.50489e-20
6.54685e-21
3.14264e-07
2.75521e-20
7.36859e-21
3.49035e-07
3.00656e-20
8.2586e-21
3.85537e-07
3.27501e-20
9.17338e-21
4.23842e-07
3.55392e-20
1.00176e-20
4.64025e-07
3.83053e-20
1.09168e-20
5.06166e-07
4.10605e-20
1.19184e-20
5.50346e-07
4.38659e-20
1.29726e-20
5.96649e-07
4.67038e-20
1.41391e-20
6.45163e-07
4.94622e-20
1.54654e-20
6.9598e-07
5.23093e-20
1.68121e-20
7.49194e-07
5.53339e-20
1.80333e-20
8.04905e-07
5.83844e-20
1.93249e-20
8.63214e-07
6.1539e-20
2.05581e-20
9.24229e-07
6.44267e-20
2.19916e-20
9.88058e-07
6.72233e-20
2.37489e-20
1.05482e-06
7.0194e-20
2.53064e-20
1.12463e-06
7.33682e-20
2.71096e-20
1.19761e-06
7.67137e-20
2.88942e-20
1.2739e-06
8.0053e-20
3.0851e-20
1.35362e-06
8.32885e-20
3.27785e-20
1.43691e-06
8.63023e-20
3.4837e-20
1.52392e-06
8.98963e-20
3.71793e-20
1.6148e-06
9.33854e-20
3.93585e-20
1.7097e-06
9.70459e-20
4.16053e-20
1.80878e-06
1.01109e-19
4.3859e-20
1.91222e-06
1.05264e-19
4.59869e-20
2.02017e-06
1.08932e-19
4.8543e-20
2.13283e-06
1.12973e-19
5.08756e-20
2.25038e-06
1.17439e-19
5.30884e-20
2.37301e-06
1.21674e-19
5.52957e-20
2.50092e-06
1.2583e-19
5.75656e-20
2.63432e-06
1.30236e-19
6.0337e-20
2.77343e-06
1.3359e-19
6.35631e-20
2.91847e-06
1.36573e-19
6.73671e-20
3.06967e-06
1.40111e-19
7.11172e-20
3.22727e-06
1.43983e-19
7.50418e-20
3.39152e-06
1.4773e-19
7.90174e-20
3.56267e-06
1.51464e-19
8.30414e-20
3.74099e-06
1.55308e-19
8.70759e-20
3.92676e-06
1.5963e-19
9.08059e-20
4.12025e-06
1.64113e-19
9.34597e-20
4.32177e-06
1.69496e-19
9.72507e-20
4.53162e-06
1.74499e-19
1.01085e-19
4.7501e-06
1.79634e-19
1.05459e-19
4.97753e-06
1.84581e-19
1.09305e-19
5.21426e-06
1.89288e-19
1.13295e-19
5.46062e-06
1.93269e-19
1.18202e-19
5.71697e-06
1.98282e-19
1.22198e-19
5.98365e-06
2.03301e-19
1.26215e-19
6.26104e-06
2.07844e-19
1.3202e-19
6.54952e-06
2.11059e-19
1.38012e-19
6.84948e-06
2.15189e-19
1.43452e-19
7.1613e-06
2.20111e-19
1.47941e-19
7.4854e-06
2.25053e-19
1.52654e-19
7.82217e-06
2.29574e-19
1.56427e-19
8.17204e-06
2.346e-19
1.6134e-19
8.53542e-06
2.38733e-19
1.67592e-19
8.91274e-06
2.4486e-19
1.71066e-19
9.30442e-06
2.50685e-19
1.76886e-19
9.71089e-06
2.55507e-19
1.83326e-19
1.01326e-05
2.6078e-19
1.88779e-19
1.05699e-05
2.63825e-19
1.94437e-19
1.10234e-05
2.65506e-19
2.02938e-19
1.14933e-05
2.68452e-19
2.08442e-19
1.19802e-05
2.72484e-19
2.1382e-19
1.24844e-05
2.70873e-19
2.22285e-19
1.30063e-05
2.75772e-19
2.28313e-19
1.35464e-05
2.80122e-19
2.33766e-19
1.4105e-05
2.84964e-19
2.40007e-19
1.46825e-05
2.88382e-19
2.47145e-19
1.52793e-05
2.91254e-19
2.55984e-19
1.58957e-05
2.95485e-19
2.65296e-19
1.65321e-05
2.99319e-19
2.72261e-19
1.71888e-05
3.036e-19
2.78543e-19
1.78662e-05
3.13091e-19
2.86383e-19
1.85644e-05
3.19573e-19
2.95311e-19
1.92839e-05
3.18956e-19
3.07332e-19
2.00249e-05
3.18786e-19
3.15594e-19
2.07877e-05
3.20424e-19
3.25051e-19
2.15726e-05
3.27158e-19
3.29147e-19
2.23798e-05
3.22767e-19
3.36912e-19
2.32096e-05
3.25134e-19
3.45798e-19
2.40622e-05
3.25983e-19
3.53967e-19
2.4938e-05
3.2828e-19
3.60908e-19
2.58372e-05
3.29223e-19
3.68506e-19
2.676e-05
3.29771e-19
3.75673e-19
2.77068e-05
3.32403e-19
3.84507e-19
2.86778e-05
3.30745e-19
3.91311e-19
2.96733e-05
3.24176e-19
3.98957e-19
3.06937e-05
3.26441e-19
4.08724e-19
3.17392e-05
3.2554e-19
4.24891e-19
3.28101e-05
3.32577e-19
4.30371e-19
3.39068e-05
3.26185e-19
4.44531e-19
3.50297e-05
3.29114e-19
4.4704e-19
3.61792e-05
3.4583e-19
4.52357e-19
3.73556e-05
3.51642e-19
4.58589e-19
3.85593e-05
3.42824e-19
4.67854e-19
3.97909e-05
3.34548e-19
4.76071e-19
4.10506e-05
3.49461e-19
4.79093e-19
4.23391e-05
3.47962e-19
4.88638e-19
4.36567e-05
3.64424e-19
4.85114e-19
4.5004e-05
3.62701e-19
4.88783e-19
4.63816e-05
3.6602e-19
4.98263e-19
4.77899e-05
3.71734e-19
4.99212e-19
4.92295e-05
3.69855e-19
5.07626e-19
5.0701e-05
3.54944e-19
5.0711e-19
5.2205e-05
3.56131e-19
5.08872e-19
5.37422e-05
3.57044e-19
5.16541e-19
5.53131e-05
3.66394e-19
5.12934e-19
5.69185e-05
3.63159e-19
5.12793e-19
5.8559e-05
3.63283e-19
5.10073e-19
6.02354e-05
3.63702e-19
5.16398e-19
6.19483e-05
3.55344e-19
5.33447e-19
6.36985e-05
3.40685e-19
5.26475e-19
6.54867e-05
3.39231e-19
5.34145e-19
6.73138e-05
3.24138e-19
5.31322e-19
6.91806e-05
3.35347e-19
5.30417e-19
7.10878e-05
3.39965e-19
5.26934e-19
7.30364e-05
3.42003e-19
5.19524e-19
7.50271e-05
3.47934e-19
5.17784e-19
7.70608e-05
3.54612e-19
5.14414e-19
7.91386e-05
3.36571e-19
5.06876e-19
8.12612e-05
3.45202e-19
5.06456e-19
8.34297e-05
3.29959e-19
4.93662e-19
8.56451e-05
3.19394e-19
4.855e-19
8.79082e-05
3.25615e-19
4.69063e-19
9.02202e-05
3.3354e-19
4.55139e-19
9.2582e-05
3.32866e-19
4.57048e-19
9.49948e-05
3.15657e-19
4.44146e-19
9.74595e-05
3.13904e-19
4.38567e-19
9.99774e-05
3.3062e-19
4.40523e-19
0.00010255
3.20057e-19
4.27784e-19
0.000105177
2.94574e-19
4.25073e-19
0.000107861
2.60216e-19
4.43655e-19
0.000110603
2.27689e-19
4.33241e-19
0.000113404
2.2492e-19
4.13124e-19
0.000116265
2.23956e-19
3.99412e-19
0.000119188
1.70681e-19
4.00601e-19
0.000122174
1.68638e-19
3.86695e-19
0.000125224
1.60789e-19
3.65348e-19
0.000128339
1.96862e-19
3.46215e-19
0.000131521
1.91665e-19
3.35017e-19
0.000134772
1.81992e-19
3.35696e-19
0.000138092
1.69926e-19
3.2123e-19
0.000141484
1.35589e-19
3.08359e-19
0.000144949
1.26986e-19
2.9426e-19
0.000148488
1.19028e-19
3.14245e-19
0.000152103
1.35573e-19
3.05122e-19
0.000155795
1.79597e-19
2.88967e-19
0.000159566
1.73652e-19
2.75808e-19
0.000163419
1.94187e-19
2.81653e-19
0.000167354
1.94534e-19
2.90672e-19
0.000171373
1.94481e-19
2.87789e-19
0.000175478
1.76765e-19
2.75722e-19
0.00017967
1.75139e-19
2.6091e-19
0.000183953
1.71344e-19
2.66194e-19
0.000188327
1.40407e-19
2.42604e-19
0.000192794
1.36796e-19
2.21518e-19
0.000197356
1.31494e-19
1.9136e-19
0.000202016
1.23933e-19
1.69678e-19
0.000206776
1.55247e-19
1.90847e-19
0.000211636
1.49717e-19
1.73954e-19
0.0002166
8.71445e-20
1.67214e-19
0.00022167
6.95893e-20
1.85713e-19
0.000226848
7.65547e-20
1.95841e-19
0.000232135
5.48312e-20
1.84033e-19
0.000237535
5.04137e-20
1.66079e-19
0.000243049
7.31794e-20
1.46507e-19
0.00024868
8.21935e-20
1.7204e-19
0.000254431
5.15799e-20
1.69009e-19
0.000260303
6.4141e-20
1.73917e-19
0.000266299
1.26396e-19
2.13114e-19
0.000272422
1.98457e-19
1.67358e-19
0.000278674
1.78898e-19
1.39523e-19
0.000285058
1.90992e-19
1.93484e-19
0.000291576
1.2208e-19
2.11686e-19
0.000298231
1.10268e-19
1.80992e-19
0.000305027
1.26346e-19
1.90809e-19
0.000311965
1.52048e-19
7.06222e-20
0.000319048
9.48257e-20
7.79798e-20
0.00032628
9.39073e-20
3.09405e-20
0.000333663
2.62755e-20
7.1988e-20
0.0003412
4.70449e-20
6.91074e-20
0.000348894
1.43891e-20
9.79216e-20
0.000356748
7.48686e-21
5.94643e-20
0.000364766
7.8082e-20
8.7229e-20
0.00037295
4.66115e-20
1.05143e-19
0.000381304
7.05951e-20
7.21223e-20
0.000389831
4.80415e-20
4.90271e-20
0.000398533
9.97759e-22
-7.53107e-21
0.000407416
-9.2088e-20
5.27423e-21
0.00041648
-1.33759e-19
-2.61328e-21
0.000425731
-4.27817e-20
-9.83841e-20
0.000435172
-2.14937e-20
-5.63387e-20
0.000444805
-1.02314e-19
-8.51191e-20
0.000454635
-1.06989e-19
-8.75349e-20
0.000464665
-1.15856e-19
-1.24761e-19
0.000474898
-1.34367e-19
-1.75621e-19
0.000485338
-1.98178e-19
-1.49294e-19
0.000495989
-2.05216e-19
-8.25964e-20
0.000506854
-2.46715e-19
-2.6623e-19
0.000517936
-2.79964e-19
-3.03129e-19
0.000529241
-2.39416e-19
-2.10515e-19
0.00054077
-2.59761e-19
-1.51038e-19
0.000552527
-2.49417e-19
-2.23105e-19
0.000564517
-3.28154e-19
-2.02095e-19
0.000576743
-3.2128e-19
-3.53281e-19
0.000589207
-2.20612e-19
-2.4406e-19
0.000601915
-2.19052e-19
-2.30634e-19
0.000614868
-2.49693e-19
-2.2005e-19
0.000628071
-2.93358e-19
-2.31413e-19
0.000641527
-2.23038e-19
-2.05284e-19
0.000655239
-1.91963e-19
-2.8366e-19
0.000669209
-2.33676e-19
-3.36384e-19
0.000683442
-2.79209e-19
-2.91233e-19
0.000697939
-3.1793e-19
-2.71893e-19
0.000712703
-3.13482e-19
-2.13326e-19
0.000727736
-2.7098e-19
-2.35853e-19
0.000743042
-1.59926e-19
-1.75212e-19
0.00075862
-1.75711e-19
-1.72826e-19
0.000774473
-2.87909e-19
-1.84999e-19
0.000790601
-1.82941e-19
-2.16241e-19
0.000807006
-2.11242e-19
-2.06626e-19
0.000823687
-1.95713e-19
-3.31857e-19
0.000840644
-2.16168e-19
-2.01018e-19
0.000857875
-3.36449e-19
-2.375e-19
0.000875379
-3.94869e-19
-3.4981e-19
0.000893153
-4.45278e-19
-4.65513e-19
0.000911193
-4.75963e-19
-5.74964e-19
0.000929494
-5.7953e-19
-6.21927e-19
0.000948051
-5.65988e-19
-6.40443e-19
0.000966857
-6.30353e-19
-6.14233e-19
0.000985903
-5.6539e-19
-7.03786e-19
0.00100518
-6.7341e-19
-7.26171e-19
0.00102468
-6.86507e-19
-6.39129e-19
0.00104438
-5.07905e-19
-4.61691e-19
0.00106428
-6.88581e-19
-4.87998e-19
0.00108436
-6.57879e-19
-6.34529e-19
0.00108436
-8.33623e-19
1.99076e-20
-8.95547e-19
3.17679e-20
0.00106428
-7.15997e-19
2.35202e-20
-6.61076e-19
4.11237e-20
0.00104438
-5.46395e-19
2.82598e-20
-6.44817e-19
2.87197e-20
0.00102468
-7.7037e-19
2.08145e-20
-4.32099e-19
2.43277e-20
0.00100518
-6.13414e-19
3.33002e-20
-6.37977e-19
-6.43874e-21
0.000985903
-6.55588e-19
1.21093e-20
-6.20776e-19
-3.46947e-21
0.000966857
-6.42057e-19
-1.41539e-21
-5.80913e-19
-1.20045e-20
0.000948051
-6.01469e-19
-3.95737e-21
-6.05103e-19
-1.20495e-20
0.000929494
-5.69981e-19
-1.75645e-20
-6.04533e-19
-6.2509e-21
0.000911193
-6.45061e-19
-1.8756e-20
-5.79306e-19
-2.32417e-20
0.000893153
-5.94066e-19
-9.22347e-21
-5.33091e-19
-3.7959e-20
0.000875379
-6.25053e-19
-1.26378e-20
-6.58515e-19
-4.58476e-20
0.000857875
-5.8491e-19
-7.70169e-22
-6.3171e-19
-2.03715e-20
0.000840644
-6.20078e-19
4.19782e-21
-5.89221e-19
-3.60619e-21
0.000823687
-5.23859e-19
8.07703e-21
-3.52415e-19
-6.75585e-21
0.000807006
-3.64786e-19
1.18321e-20
-5.6401e-19
-1.898e-20
0.000790601
-4.51518e-19
2.88387e-21
-4.51527e-19
-1.64507e-20
0.000774473
-3.63972e-19
4.96721e-21
-3.99298e-19
-2.16717e-20
0.00075862
-3.25371e-19
-6.17746e-21
-4.32159e-19
-1.57392e-20
0.000743042
-3.78607e-19
-2.06105e-21
-4.15723e-19
-6.33767e-21
0.000727736
-3.65812e-19
6.97184e-21
-5.083e-19
-2.57315e-21
0.000712703
-2.6719e-19
1.05599e-20
-2.83606e-19
6.19023e-23
0.000697939
-3.0212e-19
3.28101e-21
-2.41306e-19
-1.39521e-21
0.000683442
-3.15153e-19
-3.14393e-21
-2.21714e-19
3.48132e-22
0.000669209
-2.84548e-19
-7.3768e-21
-2.26791e-19
5.59885e-22
0.000655239
-2.17572e-19
-9.40871e-21
-2.5636e-19
1.6752e-21
0.000641527
-1.32265e-19
-1.11471e-20
-3.10786e-19
7.21255e-23
0.000628071
-2.78381e-19
-2.0444e-20
-2.84304e-19
-1.9084e-21
0.000614868
-4.65245e-19
-2.22661e-20
-3.6477e-19
-7.38023e-21
0.000601915
-4.24262e-19
-1.72567e-20
-3.73518e-19
-5.13454e-21
0.000589207
-4.07522e-19
-1.1834e-20
-4.00529e-19
-5.35392e-21
0.000576743
-3.83051e-19
-2.74974e-21
-3.59485e-19
-1.2154e-21
0.000564517
-3.20554e-19
1.20724e-21
-3.16678e-19
6.72002e-21
0.000552527
-3.62427e-19
1.43344e-22
-3.36693e-19
8.47384e-21
0.00054077
-3.24274e-19
3.15811e-21
-3.24325e-19
5.91215e-21
0.000529241
-2.99975e-19
3.5349e-21
-3.77287e-19
4.18519e-21
0.000517936
-4.06224e-19
-6.09587e-22
-3.30886e-19
4.10603e-21
0.000506854
-3.85436e-19
2.35457e-21
-3.09689e-19
8.41333e-21
0.000495989
-3.88592e-19
1.20944e-21
-3.57721e-19
1.11758e-20
0.000485338
-3.53506e-19
3.08615e-21
-3.17522e-19
1.15795e-20
0.000474898
-3.19825e-19
2.79342e-21
-2.91688e-19
1.18375e-20
0.000464665
-3.26757e-19
1.98089e-21
-3.33695e-19
7.9449e-21
0.000454635
-2.93441e-19
-4.1544e-22
-3.04199e-19
4.66616e-21
0.000444805
-3.04423e-19
-1.88163e-21
-3.28365e-19
2.62204e-21
0.000435172
-3.03995e-19
-2.70583e-21
-2.82375e-19
4.75046e-21
0.000425731
-2.57829e-19
-3.9918e-21
-3.10423e-19
4.82062e-21
0.00041648
-2.36148e-19
-4.05793e-21
-2.76427e-19
2.44826e-21
0.000407416
-1.72586e-19
-4.36129e-21
-2.78375e-19
2.24318e-21
0.000398533
-1.99825e-19
-4.89388e-21
-3.34068e-19
2.08357e-21
0.000389831
-1.55233e-19
-5.79034e-21
-3.60881e-19
4.03339e-21
0.000381304
-1.48679e-19
-5.76873e-21
-2.54261e-19
8.6492e-21
0.00037295
-1.99134e-19
-4.77945e-21
-1.80091e-19
1.06111e-20
0.000364766
-1.48698e-19
-2.82031e-21
-2.40142e-19
1.11794e-20
0.000356748
-1.34146e-19
-2.79836e-21
-1.143e-19
1.26628e-20
0.000348894
-1.02001e-19
-3.25137e-21
-1.72003e-19
9.42839e-21
0.0003412
-1.83144e-19
-3.94662e-21
-1.62424e-19
7.69428e-21
0.000333663
-1.51268e-19
-3.06684e-21
-1.43585e-19
7.30491e-21
0.00032628
-9.86626e-20
-2.51362e-21
-5.10126e-20
8.4239e-21
0.000319048
-7.63409e-20
-2.77594e-21
-9.12471e-21
8.94275e-21
0.000311965
-1.55526e-19
-2.62641e-21
-5.19032e-20
8.12581e-21
0.000305027
-1.41032e-19
-1.26904e-21
-5.49243e-20
7.59709e-21
0.000298231
-1.31395e-19
7.12192e-22
-8.75733e-20
6.71413e-21
0.000291576
-1.32759e-19
1.42965e-21
-1.07611e-19
6.46291e-21
0.000285058
-1.30759e-19
1.7812e-21
-9.45256e-20
6.09492e-21
0.000278674
-1.0727e-19
3.15405e-21
-1.01467e-19
4.82998e-21
0.000272422
-1.12329e-19
3.38822e-21
-5.75887e-20
4.28032e-21
0.000266299
-6.4466e-20
3.66116e-21
-2.58107e-20
3.43562e-21
0.000260303
-9.45934e-20
3.31424e-21
-2.65239e-20
2.53393e-21
0.000254431
-9.41629e-20
3.25893e-21
-2.25652e-20
1.73225e-21
0.00024868
-3.18874e-20
3.13228e-21
-6.51954e-20
8.16252e-22
0.000243049
-3.31142e-20
2.6211e-21
-7.49271e-20
8.25751e-22
0.000237535
-9.17945e-20
2.33814e-21
-8.06927e-20
6.26249e-22
0.000232135
-8.14151e-20
2.61606e-21
-7.13757e-20
6.78384e-22
0.000226848
-7.46902e-20