/*--------------------------------*- C++ -*----------------------------------*\
| =========                 |                                                 |
| \\      /  F ield         | OpenFOAM: The Open Source CFD Toolbox           |
|  \\    /   O peration     | Version:  2106                                  |
|   \\  /    A nd           | Website:  www.openfoam.com                      |
|    \\/     M anipulation  |                                                 |
\*---------------------------------------------------------------------------*/
FoamFile
{
    version     2.0;
    format      ascii;
    arch        "LSB;label=32;scalar=64";
    class       volSymmTensorField;
    location    "10090";
    object      turbulenceProperties:R;
}
// * * * * * * * * * * * * * * * * * * * * * * * * * * * * * * * * * * * * * //

dimensions      [0 2 -2 0 0 0 0];

internalField   nonuniform List<symmTensor> 
800
(
(2.04313e-07 -7.70449e-12 -3.53637e-14 2.04313e-07 -6.84591e-26 2.04313e-07)
(2.04313e-07 -7.70449e-12 -3.53637e-14 2.04313e-07 -4.34179e-26 2.04313e-07)
(3.29496e-08 -7.27602e-12 -1.01798e-13 3.29496e-08 -6.00995e-26 3.29496e-08)
(3.29496e-08 -7.27602e-12 -1.01798e-13 3.29496e-08 -3.97723e-26 3.29496e-08)
(3.54246e-08 -2.37801e-11 -4.90343e-13 3.54246e-08 -1.04766e-25 3.54246e-08)
(3.54246e-08 -2.37801e-11 -4.90343e-13 3.54246e-08 -2.71226e-26 3.54246e-08)
(1.08624e-07 -1.59865e-10 -3.45333e-12 1.08624e-07 -7.39122e-25 1.08624e-07)
(1.08624e-07 -1.59865e-10 -3.45333e-12 1.08624e-07 -1.85892e-25 1.08624e-07)
(2.93632e-07 -7.89001e-10 -1.78549e-11 2.93632e-07 -4.01722e-24 2.93632e-07)
(2.93632e-07 -7.89001e-10 -1.78549e-11 2.93632e-07 -9.32475e-25 2.93632e-07)
(6.63369e-07 -2.90535e-09 -6.8877e-11 6.63369e-07 -1.59082e-23 6.63369e-07)
(6.63369e-07 -2.90535e-09 -6.8877e-11 6.63369e-07 -3.47048e-24 6.63369e-07)
(1.31815e-06 -8.72024e-09 -2.16571e-10 1.31815e-06 -5.07653e-23 1.31815e-06)
(1.31815e-06 -8.72024e-09 -2.16571e-10 1.31815e-06 -1.04855e-23 1.31815e-06)
(2.38995e-06 -2.26231e-08 -5.88598e-10 2.38995e-06 -1.39561e-22 2.38995e-06)
(2.38995e-06 -2.26231e-08 -5.88598e-10 2.38995e-06 -2.73044e-23 2.38995e-06)
(4.0489e-06 -5.26722e-08 -1.43563e-09 4.0489e-06 -3.43759e-22 4.0489e-06)
(4.0489e-06 -5.26722e-08 -1.43563e-09 4.0489e-06 -6.36272e-23 4.0489e-06)
(6.5114e-06 -1.12843e-07 -3.22204e-09 6.5114e-06 -7.78624e-22 6.5114e-06)
(6.5114e-06 -1.12843e-07 -3.22204e-09 6.5114e-06 -1.35815e-22 6.5114e-06)
(1.00498e-05 -2.26345e-07 -6.77045e-09 1.00498e-05 -1.4336e-21 1.00498e-05)
(1.00498e-05 -2.26345e-07 -6.77045e-09 1.00498e-05 -2.70395e-22 1.00498e-05)
(1.50039e-05 -4.30409e-07 -1.3487e-08 1.50039e-05 1.63641e-23 1.50039e-05)
(1.50039e-05 -4.30409e-07 -1.3487e-08 1.50039e-05 -5.08236e-22 1.50039e-05)
(2.17945e-05 -7.83087e-07 -2.57057e-08 2.17945e-05 2.64831e-22 2.17945e-05)
(2.17945e-05 -7.83087e-07 -2.57057e-08 2.17945e-05 -9.09777e-22 2.17945e-05)
(3.09388e-05 -1.37272e-06 -4.72044e-08 3.09388e-05 6.55314e-22 3.09388e-05)
(3.09388e-05 -1.37272e-06 -4.72044e-08 3.09388e-05 -1.56346e-21 3.09388e-05)
(4.30686e-05 -2.33091e-06 -8.39646e-08 4.30686e-05 1.41461e-21 4.30686e-05)
(4.30686e-05 -2.33091e-06 -8.39646e-08 4.30686e-05 -2.58365e-21 4.30686e-05)
(5.89501e-05 -3.84984e-06 -1.45269e-07 5.89501e-05 2.80647e-21 5.89501e-05)
(5.89501e-05 -3.84984e-06 -1.45269e-07 5.89501e-05 -4.12406e-21 5.89501e-05)
(7.95056e-05 -6.20493e-06 -2.45251e-07 7.95056e-05 5.23613e-21 7.95056e-05)
(7.95056e-05 -6.20493e-06 -2.45251e-07 7.95056e-05 -6.37952e-21 7.95056e-05)
(0.000105836 -9.78353e-06 -4.05033e-07 0.000105836 9.29462e-21 0.000105836)
(0.000105836 -9.78353e-06 -4.05033e-07 0.000105836 -9.54655e-21 0.000105836)
(0.000139245 -1.51198e-05 -6.55589e-07 0.000139245 1.59193e-20 0.000139245)
(0.000139245 -1.51198e-05 -6.55589e-07 0.000139245 -1.3838e-20 0.000139245)
(0.000181253 -2.29348e-05 -1.04143e-06 0.000181253 2.63197e-20 0.000181253)
(0.000181253 -2.29348e-05 -1.04143e-06 0.000181253 -1.93094e-20 0.000181253)
(0.000233616 -3.41786e-05 -1.62512e-06 0.000233616 4.213e-20 0.000233616)
(0.000233616 -3.41786e-05 -1.62512e-06 0.000233616 -2.58103e-20 0.000233616)
(0.000298317 -5.00695e-05 -2.49248e-06 0.000298317 4.17959e-20 0.000298317)
(0.000298317 -5.00695e-05 -2.49248e-06 0.000298317 -3.3205e-20 0.000298317)
(0.000377549 -7.21177e-05 -3.75787e-06 0.000377549 -6.52336e-21 0.000377549)
(0.000377549 -7.21177e-05 -3.75787e-06 0.000377549 -5.59755e-20 0.000377549)
(0.00047366 -0.000102123 -5.5688e-06 0.00047366 -5.6144e-20 0.00047366)
(0.00047366 -0.000102123 -5.5688e-06 0.00047366 -1.82288e-19 0.00047366)
(0.000589064 -0.000142123 -8.10819e-06 0.000589064 -7.00419e-20 0.000589064)
(0.000589064 -0.000142123 -8.10819e-06 0.000589064 -3.71161e-19 0.000589064)
(0.000726098 -0.000194283 -1.15927e-05 0.000726098 -8.00747e-20 0.000726098)
(0.000726098 -0.000194283 -1.15927e-05 0.000726098 -5.10154e-19 0.000726098)
(0.000886839 -0.000260709 -1.62653e-05 0.000886839 -8.69392e-20 0.000886839)
(0.000886839 -0.000260709 -1.62653e-05 0.000886839 -6.75657e-19 0.000886839)
(0.00107287 -0.000343193 -2.23805e-05 0.00107287 -8.8879e-20 0.00107287)
(0.00107287 -0.000343193 -2.23805e-05 0.00107287 -8.34037e-19 0.00107287)
(0.00128506 -0.000442928 -3.01839e-05 0.00128506 -6.96247e-20 0.00128506)
(0.00128506 -0.000442928 -3.01839e-05 0.00128506 -9.91905e-19 0.00128506)
(0.0015233 -0.000560239 -3.98882e-05 0.0015233 -3.13018e-20 0.0015233)
(0.0015233 -0.000560239 -3.98882e-05 0.0015233 -1.13067e-18 0.0015233)
(0.00178638 -0.000694402 -5.16493e-05 0.00178638 2.54662e-20 0.00178638)
(0.00178638 -0.000694402 -5.16493e-05 0.00178638 -1.24417e-18 0.00178638)
(0.00207197 -0.000843609 -6.55508e-05 0.00207197 1.04078e-19 0.00207197)
(0.00207197 -0.000843609 -6.55508e-05 0.00207197 -1.33085e-18 0.00207197)
(0.00237663 -0.0010051 -8.15971e-05 0.00237663 2.12717e-19 0.00237663)
(0.00237663 -0.0010051 -8.15971e-05 0.00237663 -1.41196e-18 0.00237663)
(0.00269613 -0.00117545 -9.97196e-05 0.00269613 3.57691e-19 0.00269613)
(0.00269613 -0.00117545 -9.97196e-05 0.00269613 -1.38434e-18 0.00269613)
(0.00302568 -0.00135091 -0.000119792 0.00302568 5.10492e-19 0.00302568)
(0.00302568 -0.00135091 -0.000119792 0.00302568 -1.29816e-18 0.00302568)
(0.0033603 -0.00152777 -0.00014165 0.0033603 6.03635e-19 0.0033603)
(0.0033603 -0.00152777 -0.00014165 0.0033603 -1.13265e-18 0.0033603)
(0.00369516 -0.00170267 -0.000165115 0.00369516 7.09086e-19 0.00369516)
(0.00369516 -0.00170267 -0.000165115 0.00369516 -1.02262e-18 0.00369516)
(0.00402586 -0.00187277 -0.00019001 0.00402586 8.80759e-19 0.00402586)
(0.00402586 -0.00187277 -0.00019001 0.00402586 -9.25849e-19 0.00402586)
(0.00434858 -0.00203584 -0.000216174 0.00434858 6.61508e-19 0.00434858)
(0.00434858 -0.00203584 -0.000216174 0.00434858 -5.04633e-19 0.00434858)
(0.00466019 -0.0021903 -0.000243469 0.00466019 6.29284e-19 0.00466019)
(0.00466019 -0.0021903 -0.000243469 0.00466019 -2.49742e-19 0.00466019)
(0.00495828 -0.00233509 -0.000271785 0.00495828 7.70756e-19 0.00495828)
(0.00495828 -0.00233509 -0.000271785 0.00495828 1.2426e-19 0.00495828)
(0.00524112 -0.00246964 -0.00030104 0.00524112 6.51071e-19 0.00524112)
(0.00524112 -0.00246964 -0.00030104 0.00524112 5.02241e-19 0.00524112)
(0.00550758 -0.00259375 -0.000331174 0.00550758 1.12543e-18 0.00550758)
(0.00550758 -0.00259375 -0.000331174 0.00550758 4.46995e-19 0.00550758)
(0.00575704 -0.0027075 -0.000362152 0.00575704 1.07728e-18 0.00575704)
(0.00575704 -0.0027075 -0.000362152 0.00575704 7.5511e-19 0.00575704)
(0.0059893 -0.00281116 -0.000393955 0.0059893 7.50482e-19 0.0059893)
(0.0059893 -0.00281116 -0.000393955 0.0059893 1.33196e-18 0.0059893)
(0.00620448 -0.00290512 -0.000426577 0.00620448 1.22124e-18 0.00620448)
(0.00620448 -0.00290512 -0.000426577 0.00620448 1.84397e-18 0.00620448)
(0.00640296 -0.00298985 -0.000460026 0.00640296 1.87795e-18 0.00640296)
(0.00640296 -0.00298985 -0.000460026 0.00640296 2.39629e-18 0.00640296)
(0.00658526 -0.00306588 -0.000494315 0.00658526 2.12024e-18 0.00658526)
(0.00658526 -0.00306588 -0.000494315 0.00658526 2.96757e-18 0.00658526)
(0.00675206 -0.0031337 -0.000529465 0.00675206 2.05557e-18 0.00675206)
(0.00675206 -0.0031337 -0.000529465 0.00675206 3.77674e-18 0.00675206)
(0.00690409 -0.00319385 -0.000565499 0.00690409 3.58457e-18 0.00690409)
(0.00690409 -0.00319385 -0.000565499 0.00690409 5.13673e-18 0.00690409)
(0.00704211 -0.0032468 -0.000602442 0.00704211 5.01775e-18 0.00704211)
(0.00704211 -0.0032468 -0.000602442 0.00704211 5.9544e-18 0.00704211)
(0.00716691 -0.00329301 -0.000640321 0.00716691 4.04145e-18 0.00716691)
(0.00716691 -0.00329301 -0.000640321 0.00716691 5.76971e-18 0.00716691)
(0.00727924 -0.0033329 -0.00067916 0.00727924 3.36902e-18 0.00727924)
(0.00727924 -0.0033329 -0.00067916 0.00727924 5.77992e-18 0.00727924)
(0.00737986 -0.00336687 -0.000718981 0.00737986 4.15889e-18 0.00737986)
(0.00737986 -0.00336687 -0.000718981 0.00737986 6.31433e-18 0.00737986)
(0.00746946 -0.00339527 -0.000759806 0.00746946 6.46548e-18 0.00746946)
(0.00746946 -0.00339527 -0.000759806 0.00746946 7.5071e-18 0.00746946)
(0.00754872 -0.0034184 -0.000801649 0.00754872 6.86817e-18 0.00754872)
(0.00754872 -0.0034184 -0.000801649 0.00754872 8.37035e-18 0.00754872)
(0.00761826 -0.00343656 -0.000844524 0.00761826 4.07655e-18 0.00761826)
(0.00761826 -0.00343656 -0.000844524 0.00761826 6.19433e-18 0.00761826)
(0.00767866 -0.00344998 -0.000888434 0.00767866 -5.49772e-19 0.00767866)
(0.00767866 -0.00344998 -0.000888434 0.00767866 2.11549e-18 0.00767866)
(0.00773043 -0.00345889 -0.000933381 0.00773043 -6.51151e-18 0.00773043)
(0.00773043 -0.00345889 -0.000933381 0.00773043 1.38676e-18 0.00773043)
(0.00777406 -0.00346347 -0.000979355 0.00777406 -5.22476e-18 0.00777406)
(0.00777406 -0.00346347 -0.000979355 0.00777406 2.61245e-18 0.00777406)
(0.00780997 -0.0034639 -0.00102634 0.00780997 1.16655e-19 0.00780997)
(0.00780997 -0.0034639 -0.00102634 0.00780997 -6.18848e-19 0.00780997)
(0.00783854 -0.0034603 -0.00107431 0.00783854 -2.96804e-19 0.00783854)
(0.00783854 -0.0034603 -0.00107431 0.00783854 1.23225e-18 0.00783854)
(0.00786011 -0.00345279 -0.00112323 0.00786011 -1.81919e-18 0.00786011)
(0.00786011 -0.00345279 -0.00112323 0.00786011 7.04844e-18 0.00786011)
(0.00787497 -0.00344147 -0.00117305 0.00787497 -2.07499e-18 0.00787497)
(0.00787497 -0.00344147 -0.00117305 0.00787497 8.97441e-18 0.00787497)
(0.00788334 -0.00342641 -0.00122371 0.00788334 -1.81634e-18 0.00788334)
(0.00788334 -0.00342641 -0.00122371 0.00788334 3.22662e-18 0.00788334)
(0.00788543 -0.00340767 -0.00127512 0.00788543 -2.77003e-18 0.00788543)
(0.00788543 -0.00340767 -0.00127512 0.00788543 -4.02958e-18 0.00788543)
(0.00788138 -0.00338528 -0.0013272 0.00788138 2.0352e-18 0.00788138)
(0.00788138 -0.00338528 -0.0013272 0.00788138 -3.9808e-18 0.00788138)
(0.00787129 -0.00335927 -0.00137983 0.00787129 5.92503e-18 0.00787129)
(0.00787129 -0.00335927 -0.00137983 0.00787129 -3.12253e-18 0.00787129)
(0.00785522 -0.00332966 -0.00143288 0.00785522 1.34031e-18 0.00785522)
(0.00785522 -0.00332966 -0.00143288 0.00785522 -3.54051e-18 0.00785522)
(0.00783316 -0.00329642 -0.00148618 0.00783316 2.58173e-18 0.00783316)
(0.00783316 -0.00329642 -0.00148618 0.00783316 2.11375e-18 0.00783316)
(0.00780508 -0.00325955 -0.00153955 0.00780508 8.06792e-19 0.00780508)
(0.00780508 -0.00325955 -0.00153955 0.00780508 6.21413e-18 0.00780508)
(0.00777086 -0.003219 -0.00159277 0.00777086 1.36933e-18 0.00777086)
(0.00777086 -0.003219 -0.00159277 0.00777086 -2.48044e-18 0.00777086)
(0.00773038 -0.00317474 -0.0016456 0.00773038 7.95583e-18 0.00773038)
(0.00773038 -0.00317474 -0.0016456 0.00773038 1.31219e-18 0.00773038)
(0.00768341 -0.00312671 -0.00169775 0.00768341 3.68719e-18 0.00768341)
(0.00768341 -0.00312671 -0.00169775 0.00768341 2.18542e-18 0.00768341)
(0.0076297 -0.00307483 -0.0017489 0.0076297 -2.51819e-34 0.0076297)
(0.0076297 -0.00307483 -0.0017489 0.0076297 1.59414e-17 0.0076297)
(0.00756893 -0.00301903 -0.00179867 0.00756893 1.021e-17 0.00756893)
(0.00756893 -0.00301903 -0.00179867 0.00756893 1.00233e-17 0.00756893)
(0.00750072 -0.00295922 -0.00184664 0.00750072 1.78468e-18 0.00750072)
(0.00750072 -0.00295922 -0.00184664 0.00750072 4.65895e-18 0.00750072)
(0.00742462 -0.00289529 -0.00189233 0.00742462 1.17993e-17 0.00742462)
(0.00742462 -0.00289529 -0.00189233 0.00742462 8.20984e-18 0.00742462)
(0.00734013 -0.00282713 -0.00193521 0.00734013 7.47708e-18 0.00734013)
(0.00734013 -0.00282713 -0.00193521 0.00734013 1.74268e-18 0.00734013)
(0.0072467 -0.00275461 -0.00197466 0.0072467 -6.04445e-18 0.0072467)
(0.0072467 -0.00275461 -0.00197466 0.0072467 1.3953e-19 0.0072467)
(0.00714369 -0.0026776 -0.00200999 0.00714369 1.2325e-17 0.00714369)
(0.00714369 -0.0026776 -0.00200999 0.00714369 1.64559e-17 0.00714369)
(0.00703044 -0.00259596 -0.00204044 0.00703044 1.90142e-18 0.00703044)
(0.00703044 -0.00259596 -0.00204044 0.00703044 1.34905e-17 0.00703044)
(0.00690623 -0.00250951 -0.00206513 0.00690623 1.32825e-17 0.00690623)
(0.00690623 -0.00250951 -0.00206513 0.00690623 -1.48399e-17 0.00690623)
(0.00677033 -0.00241811 -0.00208309 0.00677033 1.11843e-17 0.00677033)
(0.00677033 -0.00241811 -0.00208309 0.00677033 1.20677e-17 0.00677033)
(0.00662198 -0.00232156 -0.00209323 0.00662198 9.83855e-18 0.00662198)
(0.00662198 -0.00232156 -0.00209323 0.00662198 -8.30091e-18 0.00662198)
(0.00646047 -0.00221967 -0.00209432 0.00646047 -4.17269e-18 0.00646047)
(0.00646047 -0.00221967 -0.00209432 0.00646047 2.13212e-18 0.00646047)
(0.00628514 -0.00211224 -0.00208501 0.00628514 -1.3092e-17 0.00628514)
(0.00628514 -0.00211224 -0.00208501 0.00628514 -8.24623e-18 0.00628514)
(0.00609547 -0.00199907 -0.00206375 0.00609547 5.80556e-18 0.00609547)
(0.00609547 -0.00199907 -0.00206375 0.00609547 -9.80304e-19 0.00609547)
(0.00589117 -0.00187991 -0.00202883 0.00589117 -1.84616e-18 0.00589117)
(0.00589117 -0.00187991 -0.00202883 0.00589117 -4.60197e-20 0.00589117)
(0.00567228 -0.00175454 -0.00197832 0.00567228 2.9785e-19 0.00567228)
(0.00567228 -0.00175454 -0.00197832 0.00567228 8.91539e-18 0.00567228)
(0.00543933 -0.00162271 -0.00191008 0.00543933 1.21181e-17 0.00543933)
(0.00543933 -0.00162271 -0.00191008 0.00543933 8.56858e-18 0.00543933)
(0.00519358 -0.00148415 -0.00182168 0.00519358 2.34972e-17 0.00519358)
(0.00519358 -0.00148415 -0.00182168 0.00519358 5.06605e-18 0.00519358)
(0.00493732 -0.0013386 -0.00171041 0.00493732 2.32696e-18 0.00493732)
(0.00493732 -0.0013386 -0.00171041 0.00493732 2.61462e-17 0.00493732)
(0.00467424 -0.00118579 -0.00157321 0.00467424 7.8654e-18 0.00467424)
(0.00467424 -0.00118579 -0.00157321 0.00467424 6.92672e-18 0.00467424)
(0.00440993 -0.00102545 -0.0014067 0.00440993 1.88194e-17 0.00440993)
(0.00440993 -0.00102545 -0.0014067 0.00440993 1.18232e-17 0.00440993)
(0.00415251 -0.000857321 -0.00120716 0.00415251 3.7578e-17 0.00415251)
(0.00415251 -0.000857321 -0.00120716 0.00415251 3.02871e-17 0.00415251)
(0.00391319 -0.000681189 -0.000970643 0.00391319 -7.74954e-18 0.00391319)
(0.00391319 -0.000681189 -0.000970643 0.00391319 3.50555e-17 0.00391319)
(0.00370669 -0.000496877 -0.000693164 0.00370669 1.0241e-17 0.00370669)
(0.00370669 -0.000496877 -0.000693164 0.00370669 -1.25374e-17 0.00370669)
(0.00355086 -0.000304212 -0.000370904 0.00355086 2.11872e-17 0.00355086)
(0.00355086 -0.000304212 -0.000370904 0.00355086 -1.9436e-18 0.00355086)
(0.00346478 -8.30906e-13 -7.62584e-13 0.00346478 -2.55352e-18 0.00346478)
(0.00346478 -8.30824e-13 -7.62524e-13 0.00346478 1.1739e-17 0.00346478)
(2.04313e-07 -7.70449e-12 3.53637e-14 2.04313e-07 1.17135e-26 2.04313e-07)
(2.04313e-07 -7.70449e-12 3.53637e-14 2.04313e-07 1.26723e-29 2.04313e-07)
(3.29496e-08 -7.27602e-12 1.01798e-13 3.29496e-08 3.12783e-27 3.29496e-08)
(3.29496e-08 -7.27602e-12 1.01798e-13 3.29496e-08 5.59402e-29 3.29496e-08)
(3.54246e-08 -2.37801e-11 4.90343e-13 3.54246e-08 -2.79029e-27 3.54246e-08)
(3.54246e-08 -2.37801e-11 4.90343e-13 3.54246e-08 2.62557e-28 3.54246e-08)
(1.08624e-07 -1.59865e-10 3.45333e-12 1.08624e-07 -9.89913e-27 1.08624e-07)
(1.08624e-07 -1.59865e-10 3.45333e-12 1.08624e-07 2.61469e-27 1.08624e-07)
(2.93632e-07 -7.89001e-10 1.78549e-11 2.93632e-07 -3.27755e-26 2.93632e-07)
(2.93632e-07 -7.89001e-10 1.78549e-11 2.93632e-07 1.72653e-26 2.93632e-07)
(6.63369e-07 -2.90535e-09 6.8877e-11 6.63369e-07 -1.63217e-25 6.63369e-07)
(6.63369e-07 -2.90535e-09 6.8877e-11 6.63369e-07 8.05555e-26 6.63369e-07)
(1.31815e-06 -8.72024e-09 2.16571e-10 1.31815e-06 -5.96032e-25 1.31815e-06)
(1.31815e-06 -8.72024e-09 2.16571e-10 1.31815e-06 2.96025e-25 1.31815e-06)
(2.38995e-06 -2.26231e-08 5.88598e-10 2.38995e-06 -1.8389e-24 2.38995e-06)
(2.38995e-06 -2.26231e-08 5.88598e-10 2.38995e-06 9.18046e-25 2.38995e-06)
(4.0489e-06 -5.26722e-08 1.43563e-09 4.0489e-06 -5.10429e-24 4.0489e-06)
(4.0489e-06 -5.26722e-08 1.43563e-09 4.0489e-06 2.51494e-24 4.0489e-06)
(6.5114e-06 -1.12843e-07 3.22204e-09 6.5114e-06 -1.30683e-23 6.5114e-06)
(6.5114e-06 -1.12843e-07 3.22204e-09 6.5114e-06 6.23552e-24 6.5114e-06)
(1.00498e-05 -2.26345e-07 6.77045e-09 1.00498e-05 -3.12036e-23 1.00498e-05)
(1.00498e-05 -2.26345e-07 6.77045e-09 1.00498e-05 1.42002e-23 1.00498e-05)
(1.50039e-05 -4.30409e-07 1.3487e-08 1.50039e-05 -7.00042e-23 1.50039e-05)
(1.50039e-05 -4.30409e-07 1.3487e-08 1.50039e-05 3.08168e-23 1.50039e-05)
(2.17945e-05 -7.83087e-07 2.57057e-08 2.17945e-05 -1.4782e-22 2.17945e-05)
(2.17945e-05 -7.83087e-07 2.57057e-08 2.17945e-05 6.39913e-23 2.17945e-05)
(3.09388e-05 -1.37272e-06 4.72044e-08 3.09388e-05 -2.97027e-22 3.09388e-05)
(3.09388e-05 -1.37272e-06 4.72044e-08 3.09388e-05 1.25774e-22 3.09388e-05)
(4.30686e-05 -2.33091e-06 8.39646e-08 4.30686e-05 -5.73449e-22 4.30686e-05)
(4.30686e-05 -2.33091e-06 8.39646e-08 4.30686e-05 2.35109e-22 4.30686e-05)
(5.89501e-05 -3.84984e-06 1.45269e-07 5.89501e-05 -1.06978e-21 5.89501e-05)
(5.89501e-05 -3.84984e-06 1.45269e-07 5.89501e-05 4.23451e-22 5.89501e-05)
(7.95056e-05 -6.20493e-06 2.45251e-07 7.95056e-05 -1.94146e-21 7.95056e-05)
(7.95056e-05 -6.20493e-06 2.45251e-07 7.95056e-05 7.67682e-22 7.95056e-05)
(0.000105836 -9.78353e-06 4.05033e-07 0.000105836 -3.3974e-21 0.000105836)
(0.000105836 -9.78353e-06 4.05033e-07 0.000105836 1.33979e-21 0.000105836)
(0.000139245 -1.51198e-05 6.55589e-07 0.000139245 -5.75782e-21 0.000139245)
(0.000139245 -1.51198e-05 6.55589e-07 0.000139245 2.23461e-21 0.000139245)
(0.000181253 -2.29348e-05 1.04143e-06 0.000181253 -9.57703e-21 0.000181253)
(0.000181253 -2.29348e-05 1.04143e-06 0.000181253 3.66032e-21 0.000181253)
(0.000233616 -3.41786e-05 1.62512e-06 0.000233616 -1.46674e-20 0.000233616)
(0.000233616 -3.41786e-05 1.62512e-06 0.000233616 5.89041e-21 0.000233616)
(0.000298317 -5.00695e-05 2.49248e-06 0.000298317 -1.66792e-20 0.000298317)
(0.000298317 -5.00695e-05 2.49248e-06 0.000298317 9.3079e-21 0.000298317)
(0.000377549 -7.21177e-05 3.75787e-06 0.000377549 -1.83452e-20 0.000377549)
(0.000377549 -7.21177e-05 3.75787e-06 0.000377549 1.43419e-20 0.000377549)
(0.00047366 -0.000102123 5.5688e-06 0.00047366 6.04797e-20 0.00047366)
(0.00047366 -0.000102123 5.5688e-06 0.00047366 2.21447e-20 0.00047366)
(0.000589064 -0.000142123 8.10819e-06 0.000589064 2.17741e-19 0.000589064)
(0.000589064 -0.000142123 8.10819e-06 0.000589064 4.22704e-20 0.000589064)
(0.000726098 -0.000194283 1.15927e-05 0.000726098 3.076e-19 0.000726098)
(0.000726098 -0.000194283 1.15927e-05 0.000726098 7.99508e-20 0.000726098)
(0.000886839 -0.000260709 1.62653e-05 0.000886839 3.94262e-19 0.000886839)
(0.000886839 -0.000260709 1.62653e-05 0.000886839 1.29806e-19 0.000886839)
(0.00107287 -0.000343193 2.23805e-05 0.00107287 4.84668e-19 0.00107287)
(0.00107287 -0.000343193 2.23805e-05 0.00107287 2.15717e-19 0.00107287)
(0.00128506 -0.000442928 3.01839e-05 0.00128506 5.68058e-19 0.00128506)
(0.00128506 -0.000442928 3.01839e-05 0.00128506 3.18794e-19 0.00128506)
(0.0015233 -0.000560239 3.98882e-05 0.0015233 6.31563e-19 0.0015233)
(0.0015233 -0.000560239 3.98882e-05 0.0015233 4.15723e-19 0.0015233)
(0.00178638 -0.000694402 5.16493e-05 0.00178638 6.55693e-19 0.00178638)
(0.00178638 -0.000694402 5.16493e-05 0.00178638 5.52469e-19 0.00178638)
(0.00207197 -0.000843609 6.55508e-05 0.00207197 6.20072e-19 0.00207197)
(0.00207197 -0.000843609 6.55508e-05 0.00207197 7.05663e-19 0.00207197)
(0.00237663 -0.0010051 8.15971e-05 0.00237663 5.28919e-19 0.00237663)
(0.00237663 -0.0010051 8.15971e-05 0.00237663 8.22954e-19 0.00237663)
(0.00269613 -0.00117545 9.97196e-05 0.00269613 3.92468e-19 0.00269613)
(0.00269613 -0.00117545 9.97196e-05 0.00269613 8.89304e-19 0.00269613)
(0.00302568 -0.00135091 0.000119792 0.00302568 1.99873e-19 0.00302568)
(0.00302568 -0.00135091 0.000119792 0.00302568 9.43793e-19 0.00302568)
(0.0033603 -0.00152777 0.00014165 0.0033603 -7.91979e-20 0.0033603)
(0.0033603 -0.00152777 0.00014165 0.0033603 9.24135e-19 0.0033603)
(0.00369516 -0.00170267 0.000165115 0.00369516 -3.28245e-19 0.00369516)
(0.00369516 -0.00170267 0.000165115 0.00369516 9.85408e-19 0.00369516)
(0.00402586 -0.00187277 0.00019001 0.00402586 -6.3171e-19 0.00402586)
(0.00402586 -0.00187277 0.00019001 0.00402586 1.23803e-18 0.00402586)
(0.00434858 -0.00203584 0.000216174 0.00434858 -1.31819e-18 0.00434858)
(0.00434858 -0.00203584 0.000216174 0.00434858 1.31097e-18 0.00434858)
(0.00466019 -0.0021903 0.000243469 0.00466019 -1.84927e-18 0.00466019)
(0.00466019 -0.0021903 0.000243469 0.00466019 1.15242e-18 0.00466019)
(0.00495828 -0.00233509 0.000271785 0.00495828 -2.26249e-18 0.00495828)
(0.00495828 -0.00233509 0.000271785 0.00495828 9.60725e-19 0.00495828)
(0.00524112 -0.00246964 0.00030104 0.00524112 -2.95444e-18 0.00524112)
(0.00524112 -0.00246964 0.00030104 0.00524112 9.79627e-19 0.00524112)
(0.00550758 -0.00259375 0.000331174 0.00550758 -3.18958e-18 0.00550758)
(0.00550758 -0.00259375 0.000331174 0.00550758 1.09802e-18 0.00550758)
(0.00575704 -0.0027075 0.000362152 0.00575704 -3.58626e-18 0.00575704)
(0.00575704 -0.0027075 0.000362152 0.00575704 1.16544e-18 0.00575704)
(0.0059893 -0.00281116 0.000393955 0.0059893 -3.65548e-18 0.0059893)
(0.0059893 -0.00281116 0.000393955 0.0059893 1.27988e-18 0.0059893)
(0.00620448 -0.00290512 0.000426577 0.00620448 -3.5059e-18 0.00620448)
(0.00620448 -0.00290512 0.000426577 0.00620448 1.0184e-18 0.00620448)
(0.00640296 -0.00298985 0.000460026 0.00640296 -3.72104e-18 0.00640296)
(0.00640296 -0.00298985 0.000460026 0.00640296 2.58237e-19 0.00640296)
(0.00658526 -0.00306588 0.000494315 0.00658526 -4.80877e-18 0.00658526)
(0.00658526 -0.00306588 0.000494315 0.00658526 -5.20164e-19 0.00658526)
(0.00675206 -0.0031337 0.000529465 0.00675206 -5.42883e-18 0.00675206)
(0.00675206 -0.0031337 0.000529465 0.00675206 -1.30896e-18 0.00675206)
(0.00690409 -0.00319385 0.000565499 0.00690409 -6.10489e-18 0.00690409)
(0.00690409 -0.00319385 0.000565499 0.00690409 -2.57965e-18 0.00690409)
(0.00704211 -0.0032468 0.000602442 0.00704211 -6.54344e-18 0.00704211)
(0.00704211 -0.0032468 0.000602442 0.00704211 -3.51699e-18 0.00704211)
(0.00716691 -0.00329301 0.000640321 0.00716691 -6.09431e-18 0.00716691)
(0.00716691 -0.00329301 0.000640321 0.00716691 -3.39122e-18 0.00716691)
(0.00727924 -0.0033329 0.00067916 0.00727924 -5.46805e-18 0.00727924)
(0.00727924 -0.0033329 0.00067916 0.00727924 -3.88523e-18 0.00727924)
(0.00737986 -0.00336687 0.000718981 0.00737986 -5.74496e-18 0.00737986)
(0.00737986 -0.00336687 0.000718981 0.00737986 -3.40792e-18 0.00737986)
(0.00746946 -0.00339527 0.000759806 0.00746946 -5.98748e-18 0.00746946)
(0.00746946 -0.00339527 0.000759806 0.00746946 -8.56591e-19 0.00746946)
(0.00754872 -0.0034184 0.000801649 0.00754872 -6.09387e-18 0.00754872)
(0.00754872 -0.0034184 0.000801649 0.00754872 1.0832e-18 0.00754872)
(0.00761826 -0.00343656 0.000844524 0.00761826 -4.49351e-18 0.00761826)
(0.00761826 -0.00343656 0.000844524 0.00761826 4.27039e-19 0.00761826)
(0.00767866 -0.00344998 0.000888434 0.00767866 -2.79782e-18 0.00767866)
(0.00767866 -0.00344998 0.000888434 0.00767866 1.04941e-18 0.00767866)
(0.00773043 -0.00345889 0.000933381 0.00773043 -5.38712e-18 0.00773043)
(0.00773043 -0.00345889 0.000933381 0.00773043 1.27254e-18 0.00773043)
(0.00777406 -0.00346347 0.000979355 0.00777406 -8.76037e-18 0.00777406)
(0.00777406 -0.00346347 0.000979355 0.00777406 -1.96053e-19 0.00777406)
(0.00780997 -0.0034639 0.00102634 0.00780997 -5.1812e-18 0.00780997)
(0.00780997 -0.0034639 0.00102634 0.00780997 2.89375e-18 0.00780997)
(0.00783854 -0.0034603 0.00107431 0.00783854 -3.60206e-18 0.00783854)
(0.00783854 -0.0034603 0.00107431 0.00783854 7.40122e-18 0.00783854)
(0.00786011 -0.00345279 0.00112323 0.00786011 -4.15432e-18 0.00786011)
(0.00786011 -0.00345279 0.00112323 0.00786011 1.09885e-17 0.00786011)
(0.00787497 -0.00344147 0.00117305 0.00787497 -3.30554e-18 0.00787497)
(0.00787497 -0.00344147 0.00117305 0.00787497 1.76914e-17 0.00787497)
(0.00788334 -0.00342641 0.00122371 0.00788334 5.06718e-19 0.00788334)
(0.00788334 -0.00342641 0.00122371 0.00788334 1.9515e-17 0.00788334)
(0.00788543 -0.00340767 0.00127512 0.00788543 -6.87023e-18 0.00788543)
(0.00788543 -0.00340767 0.00127512 0.00788543 1.07522e-17 0.00788543)
(0.00788138 -0.00338528 0.0013272 0.00788138 -6.64061e-18 0.00788138)
(0.00788138 -0.00338528 0.0013272 0.00788138 1.83826e-18 0.00788138)
(0.00787129 -0.00335927 0.00137983 0.00787129 -5.78308e-18 0.00787129)
(0.00787129 -0.00335927 0.00137983 0.00787129 1.52942e-18 0.00787129)
(0.00785522 -0.00332966 0.00143288 0.00785522 3.16408e-20 0.00785522)
(0.00785522 -0.00332966 0.00143288 0.00785522 -8.33312e-20 0.00785522)
(0.00783316 -0.00329642 0.00148618 0.00783316 -4.38261e-18 0.00783316)
(0.00783316 -0.00329642 0.00148618 0.00783316 -2.7394e-18 0.00783316)
(0.00780508 -0.00325955 0.00153955 0.00780508 -5.88015e-18 0.00780508)
(0.00780508 -0.00325955 0.00153955 0.00780508 9.76555e-19 0.00780508)
(0.00777086 -0.003219 0.00159277 0.00777086 -1.10631e-17 0.00777086)
(0.00777086 -0.003219 0.00159277 0.00777086 -5.71246e-19 0.00777086)
(0.00773038 -0.00317474 0.0016456 0.00773038 7.53647e-18 0.00773038)
(0.00773038 -0.00317474 0.0016456 0.00773038 4.62479e-19 0.00773038)
(0.00768341 -0.00312671 0.00169775 0.00768341 -6.24647e-18 0.00768341)
(0.00768341 -0.00312671 0.00169775 0.00768341 8.31106e-19 0.00768341)
(0.0076297 -0.00307483 0.0017489 0.0076297 -1.47755e-17 0.0076297)
(0.0076297 -0.00307483 0.0017489 0.0076297 -7.25711e-18 0.0076297)
(0.00756893 -0.00301903 0.00179867 0.00756893 -1.13208e-17 0.00756893)
(0.00756893 -0.00301903 0.00179867 0.00756893 -2.55861e-17 0.00756893)
(0.00750072 -0.00295922 0.00184664 0.00750072 -8.21768e-18 0.00750072)
(0.00750072 -0.00295922 0.00184664 0.00750072 -1.46032e-17 0.00750072)
(0.00742462 -0.00289529 0.00189233 0.00742462 -8.39501e-18 0.00742462)
(0.00742462 -0.00289529 0.00189233 0.00742462 -8.80854e-20 0.00742462)
(0.00734013 -0.00282713 0.00193521 0.00734013 -2.2991e-17 0.00734013)
(0.00734013 -0.00282713 0.00193521 0.00734013 -8.77571e-18 0.00734013)
(0.0072467 -0.00275461 0.00197466 0.0072467 -5.03418e-18 0.0072467)
(0.0072467 -0.00275461 0.00197466 0.0072467 -1.70857e-17 0.0072467)
(0.00714369 -0.0026776 0.00200999 0.00714369 -1.08085e-17 0.00714369)
(0.00714369 -0.0026776 0.00200999 0.00714369 -2.00828e-17 0.00714369)
(0.00703044 -0.00259596 0.00204044 0.00703044 -1.91203e-17 0.00703044)
(0.00703044 -0.00259596 0.00204044 0.00703044 -5.76439e-18 0.00703044)
(0.00690623 -0.00250951 0.00206513 0.00690623 -7.77779e-18 0.00690623)
(0.00690623 -0.00250951 0.00206513 0.00690623 -1.5794e-17 0.00690623)
(0.00677033 -0.00241811 0.00208309 0.00677033 -1.65164e-18 0.00677033)
(0.00677033 -0.00241811 0.00208309 0.00677033 -1.51826e-17 0.00677033)
(0.00662198 -0.00232156 0.00209323 0.00662198 1.43994e-18 0.00662198)
(0.00662198 -0.00232156 0.00209323 0.00662198 7.33583e-18 0.00662198)
(0.00646047 -0.00221967 0.00209432 0.00646047 7.39771e-18 0.00646047)
(0.00646047 -0.00221967 0.00209432 0.00646047 2.04387e-17 0.00646047)
(0.00628514 -0.00211224 0.00208501 0.00628514 -2.07937e-18 0.00628514)
(0.00628514 -0.00211224 0.00208501 0.00628514 2.30836e-33 0.00628514)
(0.00609547 -0.00199907 0.00206375 0.00609547 -1.69367e-19 0.00609547)
(0.00609547 -0.00199907 0.00206375 0.00609547 -2.1461e-18 0.00609547)
(0.00589117 -0.00187991 0.00202883 0.00589117 5.64318e-18 0.00589117)
(0.00589117 -0.00187991 0.00202883 0.00589117 3.77549e-19 0.00589117)
(0.00567228 -0.00175454 0.00197832 0.00567228 4.13564e-18 0.00567228)
(0.00567228 -0.00175454 0.00197832 0.00567228 -1.32318e-18 0.00567228)
(0.00543933 -0.00162271 0.00191008 0.00543933 -2.95557e-32 0.00543933)
(0.00543933 -0.00162271 0.00191008 0.00543933 -9.41374e-18 0.00543933)
(0.00519358 -0.00148415 0.00182168 0.00519358 -3.35653e-17 0.00519358)
(0.00519358 -0.00148415 0.00182168 0.00519358 -2.7668e-17 0.00519358)
(0.00493732 -0.0013386 0.00171041 0.00493732 -2.42815e-17 0.00493732)
(0.00493732 -0.0013386 0.00171041 0.00493732 -2.39223e-17 0.00493732)
(0.00467424 -0.00118579 0.00157321 0.00467424 -1.45819e-17 0.00467424)
(0.00467424 -0.00118579 0.00157321 0.00467424 -1.61584e-17 0.00467424)
(0.00440993 -0.00102545 0.0014067 0.00440993 -2.30315e-18 0.00440993)
(0.00440993 -0.00102545 0.0014067 0.00440993 -1.25949e-17 0.00440993)
(0.00415251 -0.000857321 0.00120716 0.00415251 -2.95714e-17 0.00415251)
(0.00415251 -0.000857321 0.00120716 0.00415251 -3.65935e-17 0.00415251)
(0.00391319 -0.000681189 0.000970643 0.00391319 -4.35448e-17 0.00391319)
(0.00391319 -0.000681189 0.000970643 0.00391319 -8.79014e-18 0.00391319)
(0.00370669 -0.000496877 0.000693164 0.00370669 7.2008e-18 0.00370669)
(0.00370669 -0.000496877 0.000693164 0.00370669 -1.20641e-17 0.00370669)
(0.00355086 -0.000304212 0.000370904 0.00355086 -1.33968e-32 0.00355086)
(0.00355086 -0.000304212 0.000370904 0.00355086 -2.26217e-18 0.00355086)
(0.00346478 -8.30824e-13 7.62554e-13 0.00346478 -2.56299e-17 0.00346478)
(0.00346478 -8.30988e-13 7.62704e-13 0.00346478 -2.57903e-17 0.00346478)
(0.00346478 5.47887e-15 -5.04346e-15 0.00346478 1.30486e-17 0.00346478)
(0.00346478 5.9695e-15 -5.49377e-15 0.00346478 1.95924e-17 0.00346478)