/*--------------------------------*- C++ -*----------------------------------*\
| =========                 |                                                 |
| \\      /  F ield         | OpenFOAM: The Open Source CFD Toolbox           |
|  \\    /   O peration     | Version:  2106                                  |
|   \\  /    A nd           | Website:  www.openfoam.com                      |
|    \\/     M anipulation  |                                                 |
\*---------------------------------------------------------------------------*/
FoamFile
{
    version     2.0;
    format      ascii;
    arch        "LSB;label=32;scalar=64";
    class       volVectorField;
    location    "10090";
    object      U;
}
// * * * * * * * * * * * * * * * * * * * * * * * * * * * * * * * * * * * * * //

dimensions      [0 1 -1 0 0 0 0];

internalField   nonuniform List<vector> 
2000
(
(0.00097726 -1.13172e-15 2.13732e-17)
(0.00097726 -4.91586e-19 1.13517e-17)
(0.00294966 -3.7952e-16 1.23897e-16)
(0.00294966 1.71708e-18 5.27274e-17)
(0.0049585 -1.30544e-15 1.3173e-16)
(0.0049585 2.60021e-18 5.46743e-17)
(0.00700445 -1.21608e-15 1.40445e-16)
(0.00700445 4.1576e-18 5.66676e-17)
(0.00908818 -1.17288e-15 1.49506e-16)
(0.00908818 5.75294e-18 5.87064e-17)
(0.0112104 -1.18773e-15 1.5887e-16)
(0.0112104 7.37898e-18 6.079e-17)
(0.0133717 -1.19542e-15 1.68635e-16)
(0.0133717 9.04429e-18 6.29177e-17)
(0.015573 -1.19876e-15 1.78837e-16)
(0.015573 1.0755e-17 6.50894e-17)
(0.0178148 -1.20146e-15 1.89492e-16)
(0.0178148 1.24917e-17 6.73046e-17)
(0.020098 -1.20438e-15 2.00615e-16)
(0.020098 1.4258e-17 6.9563e-17)
(0.0224232 -1.20738e-15 2.12223e-16)
(0.0224232 1.60709e-17 7.18642e-17)
(0.0247914 -1.21045e-15 2.24332e-16)
(0.0247914 1.7924e-17 7.42078e-17)
(0.0272031 -1.21357e-15 2.36961e-16)
(0.0272031 1.97842e-17 7.65931e-17)
(0.0296593 -1.21676e-15 2.5013e-16)
(0.0296593 2.16661e-17 7.90204e-17)
(0.0321607 -1.22003e-15 2.6386e-16)
(0.0321607 2.36117e-17 8.14887e-17)
(0.0347081 -1.22339e-15 2.78173e-16)
(0.0347081 2.55847e-17 8.39972e-17)
(0.0373024 -1.22686e-15 2.9309e-16)
(0.0373024 2.7575e-17 8.65446e-17)
(0.0399444 -1.23039e-15 3.08635e-16)
(0.0399444 2.96353e-17 8.91301e-17)
(0.042635 -1.23399e-15 3.24833e-16)
(0.042635 3.17224e-17 9.17527e-17)
(0.0453751 -1.23764e-15 3.41709e-16)
(0.0453751 3.37897e-17 9.44113e-17)
(0.0481655 -1.24136e-15 3.59288e-16)
(0.0481655 3.59437e-17 9.71059e-17)
(0.0510072 -1.24517e-15 3.77597e-16)
(0.0510072 3.81569e-17 9.98347e-17)
(0.053901 -1.24906e-15 3.96665e-16)
(0.053901 4.03611e-17 1.02596e-16)
(0.0568479 -1.25304e-15 4.15955e-16)
(0.0568479 4.26327e-17 1.05389e-16)
(0.059849 -1.2571e-15 4.29674e-16)
(0.059849 4.49523e-17 1.08211e-16)
(0.062905 -1.26122e-15 4.4392e-16)
(0.062905 4.72445e-17 1.1106e-16)
(0.0660171 -1.26535e-15 4.58713e-16)
(0.0660171 4.95087e-17 1.13937e-16)
(0.0691862 -1.26954e-15 4.74077e-16)
(0.0691862 5.17665e-17 1.16839e-16)
(0.0724133 -1.27383e-15 4.90036e-16)
(0.0724133 5.41105e-17 1.19765e-16)
(0.0756995 -1.2782e-15 5.06613e-16)
(0.0756995 5.64868e-17 1.22711e-16)
(0.0790459 -1.28259e-15 5.15512e-16)
(0.0790459 5.88847e-17 1.25674e-16)
(0.0824534 -1.28699e-15 5.15284e-16)
(0.0824534 6.13229e-17 1.2865e-16)
(0.0859232 -1.29149e-15 5.14897e-16)
(0.0859232 6.37144e-17 1.31638e-16)
(0.0894564 -1.29621e-15 5.14349e-16)
(0.0894564 6.6183e-17 1.34636e-16)
(0.0930541 -1.30106e-15 5.13643e-16)
(0.0930541 6.87726e-17 1.3764e-16)
(0.0967174 -1.30588e-15 5.12775e-16)
(0.0967174 7.12793e-17 1.40652e-16)
(0.100447 -1.31068e-15 5.11743e-16)
(0.100447 7.37617e-17 1.43668e-16)
(0.104245 -1.31544e-15 5.10545e-16)
(0.104245 7.63135e-17 1.46688e-16)
(0.108113 -1.32024e-15 5.0918e-16)
(0.108113 7.86502e-17 1.4971e-16)
(0.11205 -1.32515e-15 5.07643e-16)
(0.11205 8.09413e-17 1.52735e-16)
(0.116059 -1.33036e-15 5.05938e-16)
(0.116059 8.34616e-17 1.55755e-16)
(0.120141 -1.33573e-15 5.04072e-16)
(0.120141 8.60138e-17 1.58764e-16)
(0.124297 -1.34103e-15 5.02042e-16)
(0.124297 8.85683e-17 1.61758e-16)
(0.128528 -1.34636e-15 4.99848e-16)
(0.128528 9.09879e-17 1.64733e-16)
(0.132835 -1.35161e-15 4.97486e-16)
(0.132835 9.34448e-17 1.67689e-16)
(0.13722 -1.35664e-15 4.94947e-16)
(0.13722 9.57526e-17 1.70625e-16)
(0.141685 -1.36214e-15 4.92223e-16)
(0.141685 9.80514e-17 1.73547e-16)
(0.146229 -1.368e-15 4.89337e-16)
(0.146229 1.00703e-16 1.76445e-16)
(0.150855 -1.37363e-15 4.86509e-16)
(0.150855 1.03348e-16 1.79318e-16)
(0.155564 -1.37934e-15 4.84055e-16)
(0.155564 1.05746e-16 1.82161e-16)
(0.160357 -1.38473e-15 4.81471e-16)
(0.160357 1.07963e-16 1.84975e-16)
(0.165236 -1.38989e-15 4.78757e-16)
(0.165236 1.102e-16 1.87758e-16)
(0.170201 -1.39523e-15 4.75933e-16)
(0.170201 1.12418e-16 1.905e-16)
(0.175254 -1.40046e-15 4.73002e-16)
(0.175254 1.146e-16 1.93186e-16)
(0.180396 -1.40596e-15 4.69963e-16)
(0.180396 1.17235e-16 1.9582e-16)
(0.185628 -1.41195e-15 4.66813e-16)
(0.185628 1.20027e-16 1.98376e-16)
(0.190952 -1.41782e-15 4.63574e-16)
(0.190952 1.2262e-16 2.00875e-16)
(0.196368 -1.42355e-15 4.6025e-16)
(0.196368 1.25181e-16 2.03306e-16)
(0.201877 -1.42932e-15 4.56826e-16)
(0.201877 1.27197e-16 2.05672e-16)
(0.207481 -1.43472e-15 4.53286e-16)
(0.207481 1.29088e-16 2.07979e-16)
(0.21318 -1.44008e-15 4.49619e-16)
(0.21318 1.31146e-16 2.10211e-16)
(0.218976 -1.44573e-15 4.45843e-16)
(0.218976 1.33768e-16 2.12349e-16)
(0.224868 -1.45124e-15 4.41987e-16)
(0.224868 1.36146e-16 2.14409e-16)
(0.230857 -1.45696e-15 4.37996e-16)
(0.230857 1.37838e-16 2.16738e-16)
(0.236944 -1.46258e-15 4.33872e-16)
(0.236944 1.39766e-16 2.20592e-16)
(0.243128 -1.46809e-15 4.2961e-16)
(0.243128 1.41636e-16 2.2444e-16)
(0.249411 -1.47401e-15 4.25256e-16)
(0.249411 1.43517e-16 2.28222e-16)
(0.255792 -1.47978e-15 4.20763e-16)
(0.255792 1.45071e-16 2.31955e-16)
(0.26227 -1.48533e-15 4.16117e-16)
(0.26227 1.46918e-16 2.35695e-16)
(0.268846 -1.49101e-15 4.11306e-16)
(0.268846 1.48406e-16 2.39357e-16)
(0.275518 -1.49614e-15 4.06354e-16)
(0.275518 1.48969e-16 2.42895e-16)
(0.282285 -1.50149e-15 4.01193e-16)
(0.282285 1.5117e-16 2.46381e-16)
(0.289145 -1.50761e-15 3.95888e-16)
(0.289145 1.53236e-16 2.49754e-16)
(0.296099 -1.51327e-15 3.90391e-16)
(0.296099 1.53758e-16 2.53036e-16)
(0.303142 -1.51862e-15 3.95511e-16)
(0.303142 1.54959e-16 2.56205e-16)
(0.310273 -1.52411e-15 4.04092e-16)
(0.310273 1.55529e-16 2.59352e-16)
(0.31749 -1.52854e-15 4.12774e-16)
(0.31749 1.55548e-16 2.62258e-16)
(0.324789 -1.53256e-15 4.21615e-16)
(0.324789 1.55889e-16 2.64956e-16)
(0.332167 -1.53739e-15 4.30384e-16)
(0.332167 1.56753e-16 2.74731e-16)
(0.339621 -1.5422e-15 4.39039e-16)
(0.339621 1.57477e-16 2.93314e-16)
(0.347146 -1.54679e-15 4.47704e-16)
(0.347146 1.56941e-16 3.11932e-16)
(0.354738 -1.55047e-15 4.56367e-16)
(0.354738 1.5711e-16 3.3072e-16)
(0.362392 -1.55341e-15 4.64962e-16)
(0.362392 1.56724e-16 3.49475e-16)
(0.370103 -1.55648e-15 4.73182e-16)
(0.370103 1.55692e-16 3.6814e-16)
(0.377867 -1.56026e-15 4.81158e-16)
(0.377867 1.55385e-16 3.86784e-16)
(0.385678 -1.56386e-15 4.89008e-16)
(0.385678 1.55163e-16 4.05374e-16)
(0.39353 -1.568e-15 4.96393e-16)
(0.39353 1.52895e-16 4.23811e-16)
(0.401417 -1.57243e-15 5.03544e-16)
(0.401417 1.49309e-16 4.4189e-16)
(0.409333 -1.57476e-15 5.10358e-16)
(0.409333 1.47305e-16 4.59857e-16)
(0.417273 -1.57735e-15 5.16845e-16)
(0.417273 1.45634e-16 4.77571e-16)
(0.42523 -1.5804e-15 5.22905e-16)
(0.42523 1.43777e-16 4.94832e-16)
(0.433199 -1.58231e-15 5.28452e-16)
(0.433199 1.42791e-16 5.11654e-16)
(0.441173 -1.58383e-15 5.3362e-16)
(0.441173 1.40718e-16 5.27989e-16)
(0.449146 -1.58534e-15 5.3795e-16)
(0.449146 1.3819e-16 5.43995e-16)
(0.457114 -1.58693e-15 5.41674e-16)
(0.457114 1.3642e-16 5.5938e-16)
(0.46507 -1.58727e-15 5.45067e-16)
(0.46507 1.33438e-16 5.74209e-16)
(0.47301 -1.58676e-15 5.47689e-16)
(0.47301 1.2821e-16 5.88682e-16)
(0.480927 -1.58669e-15 5.49804e-16)
(0.480927 1.23219e-16 6.02504e-16)
(0.488818 -1.58587e-15 5.5126e-16)
(0.488818 1.18419e-16 6.15739e-16)
(0.496678 -1.58538e-15 5.52136e-16)
(0.496678 1.13283e-16 6.28245e-16)
(0.504502 -1.58493e-15 5.52634e-16)
(0.504502 1.09432e-16 6.40165e-16)
(0.512287 -1.58188e-15 5.52928e-16)
(0.512287 1.04764e-16 6.5122e-16)
(0.520029 -1.57744e-15 5.52784e-16)
(0.520029 9.58203e-17 6.61569e-16)
(0.527725 -1.57121e-15 5.52331e-16)
(0.527725 8.64974e-17 6.71543e-16)
(0.535371 -1.56582e-15 5.51209e-16)
(0.535371 7.72236e-17 6.81372e-16)
(0.542966 -1.56446e-15 5.49891e-16)
(0.542966 7.02144e-17 6.90539e-16)
(0.550507 -1.56367e-15 5.48106e-16)
(0.550507 6.70323e-17 6.98999e-16)
(0.557991 -1.56271e-15 5.46205e-16)
(0.557991 6.08794e-17 7.06027e-16)
(0.565417 -1.56052e-15 5.42947e-16)
(0.565417 5.72608e-17 7.12469e-16)
(0.572784 -1.55661e-15 5.4047e-16)
(0.572784 5.48694e-17 7.17157e-16)
(0.580089 -1.54997e-15 5.37729e-16)
(0.580089 4.77109e-17 7.21684e-16)
(0.587333 -1.54437e-15 5.35056e-16)
(0.587333 3.91997e-17 7.25712e-16)
(0.594514 -1.53783e-15 5.31961e-16)
(0.594514 3.27989e-17 7.2897e-16)
(0.601631 -1.52988e-15 5.28668e-16)
(0.601631 2.49264e-17 7.31156e-16)
(0.608684 -1.52069e-15 5.25113e-16)
(0.608684 1.60062e-17 7.32401e-16)
(0.615673 -1.50894e-15 5.21715e-16)
(0.615673 4.75793e-18 7.33334e-16)
(0.622597 -1.49916e-15 5.17924e-16)
(0.622597 -7.01939e-18 7.3477e-16)
(0.629458 -1.48914e-15 5.14373e-16)
(0.629458 -1.87089e-17 7.35323e-16)
(0.636254 -1.47569e-15 5.09318e-16)
(0.636254 -3.00047e-17 7.3569e-16)
(0.642985 -1.46297e-15 5.03902e-16)
(0.642985 -3.80169e-17 7.3552e-16)
(0.649654 -1.45262e-15 4.98339e-16)
(0.649654 -4.69239e-17 7.35972e-16)
(0.656259 -1.44282e-15 4.92238e-16)
(0.656259 -5.82655e-17 7.36036e-16)
(0.662801 -1.4314e-15 4.84813e-16)
(0.662801 -6.89828e-17 7.35551e-16)
(0.669282 -1.41934e-15 4.77643e-16)
(0.669282 -8.18187e-17 7.34458e-16)
(0.675701 -1.40811e-15 4.69742e-16)
(0.675701 -8.56596e-17 7.3524e-16)
(0.682059 -1.39709e-15 4.62598e-16)
(0.682059 -9.02619e-17 7.34698e-16)
(0.688358 -1.38577e-15 4.5499e-16)
(0.688358 -9.79174e-17 7.33553e-16)
(0.694598 -1.37537e-15 4.47581e-16)
(0.694598 -1.0253e-16 7.3077e-16)
(0.700779 -1.36505e-15 4.40043e-16)
(0.700779 -1.12147e-16 7.27879e-16)
(0.706903 -1.35496e-15 4.32291e-16)
(0.706903 -1.15296e-16 7.22339e-16)
(0.71297 -1.34411e-15 4.24983e-16)
(0.71297 -1.21243e-16 7.14918e-16)
(0.718982 -1.326e-15 4.20244e-16)
(0.718982 -1.31607e-16 7.06062e-16)
(0.72494 -1.30827e-15 4.14854e-16)
(0.72494 -1.43871e-16 6.97615e-16)
(0.730843 -1.29344e-15 4.11332e-16)
(0.730843 -1.49967e-16 6.88783e-16)
(0.736694 -1.27646e-15 4.08707e-16)
(0.736694 -1.5477e-16 6.79185e-16)
(0.742494 -1.26038e-15 4.06792e-16)
(0.742494 -1.65438e-16 6.69236e-16)
(0.748242 -1.24707e-15 4.03038e-16)
(0.748242 -1.74943e-16 6.60267e-16)
(0.75394 -1.23412e-15 3.99767e-16)
(0.75394 -1.8275e-16 6.51842e-16)
(0.75959 -1.22236e-15 3.96528e-16)
(0.75959 -1.84391e-16 6.43804e-16)
(0.765191 -1.21069e-15 3.93513e-16)
(0.765191 -1.92607e-16 6.34113e-16)
(0.770745 -1.19769e-15 3.89699e-16)
(0.770745 -2.00374e-16 6.24666e-16)
(0.776253 -1.18653e-15 3.85682e-16)
(0.776253 -2.02541e-16 6.16569e-16)
(0.781716 -1.17459e-15 3.82939e-16)
(0.781716 -2.11425e-16 6.08026e-16)
(0.787134 -1.16059e-15 3.80221e-16)
(0.787134 -2.20499e-16 5.98859e-16)
(0.792508 -1.14671e-15 3.77627e-16)
(0.792508 -2.30056e-16 5.90765e-16)
(0.79784 -1.13369e-15 3.75212e-16)
(0.79784 -2.35825e-16 5.82418e-16)
(0.80313 -1.11988e-15 3.73822e-16)
(0.80313 -2.43405e-16 5.73645e-16)
(0.808379 -1.11096e-15 3.70722e-16)
(0.808379 -2.49947e-16 5.65294e-16)
(0.813587 -1.10227e-15 3.67667e-16)
(0.813587 -2.53044e-16 5.55616e-16)
(0.818756 -1.08761e-15 3.67927e-16)
(0.818756 -2.61418e-16 5.44407e-16)
(0.823887 -1.06665e-15 3.68217e-16)
(0.823887 -2.68575e-16 5.34057e-16)
(0.828979 -1.0454e-15 3.68843e-16)
(0.828979 -2.76134e-16 5.25197e-16)
(0.834034 -1.0402e-15 3.62572e-16)
(0.834034 -2.92071e-16 5.18458e-16)
(0.839053 -1.04022e-15 3.59131e-16)
(0.839053 -3.02441e-16 5.06526e-16)
(0.844036 -1.02781e-15 3.57176e-16)
(0.844036 -3.07002e-16 4.9583e-16)
(0.848983 -1.012e-15 3.55853e-16)
(0.848983 -3.18771e-16 4.8839e-16)
(0.853896 -9.97265e-16 3.53392e-16)
(0.853896 -3.20242e-16 4.82397e-16)
(0.858776 -9.83737e-16 3.52601e-16)
(0.858776 -3.26551e-16 4.71514e-16)
(0.863622 -9.68854e-16 3.48099e-16)
(0.863622 -3.41003e-16 4.6626e-16)
(0.868435 -9.53676e-16 3.41378e-16)
(0.868435 -3.42354e-16 4.6147e-16)
(0.873217 -9.40586e-16 3.36348e-16)
(0.873217 -3.50116e-16 4.5556e-16)
(0.877967 -9.26221e-16 3.33699e-16)
(0.877967 -3.50366e-16 4.50061e-16)
(0.882686 -9.13255e-16 3.30352e-16)
(0.882686 -3.52448e-16 4.41634e-16)
(0.887375 -9.00962e-16 3.24659e-16)
(0.887375 -3.59889e-16 4.31695e-16)
(0.892034 -8.88833e-16 3.2371e-16)
(0.892034 -3.60629e-16 4.23079e-16)
(0.896663 -8.75801e-16 3.24738e-16)
(0.896663 -3.68654e-16 4.16476e-16)
(0.901264 -8.63635e-16 3.24104e-16)
(0.901264 -3.76113e-16 4.12972e-16)
(0.905837 -8.56589e-16 3.20799e-16)
(0.905837 -3.79283e-16 4.07783e-16)
(0.910381 -8.48495e-16 3.18945e-16)
(0.910381 -3.82361e-16 3.99541e-16)
(0.914898 -8.34375e-16 3.21366e-16)
(0.914898 -3.83734e-16 3.93132e-16)
(0.919388 -8.19569e-16 3.19391e-16)
(0.919388 -3.88967e-16 3.84121e-16)
(0.923851 -8.01166e-16 3.22288e-16)
(0.923851 -3.91139e-16 3.70887e-16)
(0.928287 -7.93235e-16 3.17714e-16)
(0.928287 -3.89463e-16 3.65482e-16)
(0.932698 -7.86793e-16 3.15262e-16)
(0.932698 -3.85031e-16 3.58803e-16)
(0.937083 -7.66517e-16 3.08738e-16)
(0.937083 -3.73455e-16 3.56101e-16)
(0.941442 -7.47638e-16 3.12564e-16)
(0.941442 -3.71732e-16 3.45364e-16)
(0.945777 -7.31887e-16 3.08818e-16)
(0.945777 -3.77802e-16 3.39591e-16)
(0.950086 -7.19582e-16 3.09267e-16)
(0.950086 -3.72849e-16 3.2986e-16)
(0.954371 -7.11503e-16 3.06086e-16)
(0.954371 -3.71193e-16 3.27799e-16)
(0.958632 -6.98623e-16 2.96956e-16)
(0.958632 -3.64932e-16 3.21799e-16)
(0.962869 -6.66459e-16 3.03399e-16)
(0.962869 -3.75444e-16 3.08318e-16)
(0.967082 -6.24611e-16 3.15006e-16)
(0.967082 -3.92119e-16 3.05087e-16)
(0.971271 -6.02707e-16 3.14675e-16)
(0.971271 -3.87855e-16 3.03214e-16)
(0.975436 -5.86343e-16 3.20731e-16)
(0.975436 -4.0016e-16 2.93328e-16)
(0.979578 -5.66651e-16 3.20221e-16)
(0.979578 -4.00479e-16 2.89554e-16)
(0.983697 -5.60019e-16 3.14601e-16)
(0.983697 -3.9293e-16 3.00088e-16)
(0.987793 -5.59036e-16 3.18049e-16)
(0.987793 -3.87629e-16 3.12416e-16)
(0.991866 -5.56664e-16 3.13886e-16)
(0.991866 -3.83443e-16 3.15202e-16)
(0.995915 -5.48941e-16 3.15548e-16)
(0.995915 -3.97586e-16 3.10685e-16)
(0.999942 -5.3877e-16 3.17603e-16)
(0.999942 -4.06283e-16 3.20646e-16)
(1.00395 -5.19455e-16 3.23191e-16)
(1.00395 -4.16937e-16 3.24888e-16)
(1.00793 -5.08923e-16 3.28911e-16)
(1.00793 -4.30563e-16 3.27452e-16)
(1.01188 -5.06598e-16 3.33521e-16)
(1.01188 -4.37733e-16 3.31228e-16)
(1.01582 -5.04112e-16 3.34995e-16)
(1.01582 -4.48356e-16 3.4918e-16)
(1.01973 -4.95522e-16 3.37017e-16)
(1.01973 -4.74901e-16 3.40187e-16)
(1.02362 -4.79671e-16 3.49586e-16)
(1.02362 -4.77012e-16 3.3816e-16)
(1.02748 -4.95394e-16 3.47251e-16)
(1.02748 -4.57137e-16 3.56345e-16)
(1.03132 -5.05188e-16 3.69372e-16)
(1.03132 -4.52507e-16 3.52906e-16)
(1.03514 -4.92235e-16 3.65833e-16)
(1.03514 -4.38649e-16 3.58625e-16)
(1.03893 -4.97417e-16 3.58583e-16)
(1.03893 -4.4388e-16 3.79759e-16)
(1.0427 -4.75238e-16 3.71756e-16)
(1.0427 -4.52298e-16 3.61078e-16)
(1.04644 -4.52336e-16 3.56827e-16)
(1.04644 -4.54886e-16 3.60361e-16)
(1.05016 -4.57559e-16 3.36904e-16)
(1.05016 -4.57707e-16 3.77687e-16)
(1.05386 -4.43937e-16 3.51532e-16)
(1.05386 -4.42147e-16 3.99102e-16)
(1.05752 -4.23479e-16 3.6449e-16)
(1.05752 -3.85387e-16 3.58007e-16)
(1.06117 -4.0113e-16 3.60328e-16)
(1.06117 -3.77746e-16 3.87978e-16)
(1.06478 -3.88913e-16 3.45371e-16)
(1.06478 -4.05454e-16 4.17234e-16)
(1.06837 -3.79723e-16 3.47237e-16)
(1.06837 -3.70823e-16 3.9898e-16)
(1.07193 -3.68426e-16 3.40476e-16)
(1.07193 -3.55554e-16 3.89125e-16)
(1.07546 -3.62903e-16 3.42695e-16)
(1.07546 -3.57547e-16 3.97416e-16)
(1.07896 -3.55223e-16 3.64506e-16)
(1.07896 -3.33242e-16 4.01332e-16)
(1.08244 -3.69601e-16 3.89966e-16)
(1.08244 -3.36118e-16 3.91083e-16)
(1.08588 -3.78642e-16 3.85854e-16)
(1.08588 -3.62453e-16 3.59961e-16)
(1.08929 -3.68751e-16 3.90788e-16)
(1.08929 -3.50789e-16 4.18351e-16)
(1.09266 -3.55526e-16 4.08056e-16)
(1.09266 -3.71684e-16 4.55279e-16)
(1.09601 -3.64466e-16 4.05463e-16)
(1.09601 -3.79489e-16 4.3009e-16)
(1.09932 -3.85985e-16 4.30372e-16)
(1.09932 -3.54904e-16 4.16232e-16)
(1.10259 -3.87267e-16 4.20856e-16)
(1.10259 -3.46727e-16 4.3621e-16)
(1.10583 -3.70559e-16 4.41919e-16)
(1.10583 -3.60677e-16 3.79954e-16)
(1.10902 -3.7569e-16 4.12799e-16)
(1.10902 -3.74165e-16 3.58669e-16)
(1.11218 -3.68406e-16 4.22982e-16)
(1.11218 -3.64919e-16 4.03894e-16)
(1.1153 -3.29557e-16 4.38021e-16)
(1.1153 -3.75883e-16 4.28588e-16)
(1.11837 -3.35897e-16 4.26537e-16)
(1.11837 -3.70172e-16 3.74178e-16)
(1.1214 -3.37858e-16 4.37435e-16)
(1.1214 -3.78079e-16 3.52743e-16)
(1.12438 -3.38981e-16 4.19684e-16)
(1.12438 -3.78708e-16 3.88371e-16)
(1.12731 -3.42696e-16 4.166e-16)
(1.12731 -3.9809e-16 3.94659e-16)
(1.13018 -3.606e-16 4.21506e-16)
(1.13018 -3.73985e-16 3.93463e-16)
(1.13301 -3.74097e-16 4.2745e-16)
(1.13301 -3.40746e-16 4.00585e-16)
(1.13577 -3.82603e-16 4.3373e-16)
(1.13577 -3.69242e-16 4.057e-16)
(1.13848 -3.7208e-16 4.38075e-16)
(1.13848 -3.77771e-16 3.49412e-16)
(1.14112 -3.42938e-16 4.1259e-16)
(1.14112 -3.4382e-16 3.28067e-16)
(1.1437 -3.51334e-16 3.98437e-16)
(1.1437 -3.54584e-16 4.03724e-16)
(1.1462 -3.51929e-16 3.9111e-16)
(1.1462 -3.40494e-16 4.14544e-16)
(1.14863 -3.59218e-16 3.55071e-16)
(1.14863 -3.37702e-16 3.84876e-16)
(1.15098 -3.96133e-16 3.33115e-16)
(1.15098 -3.4254e-16 3.25097e-16)
(1.15324 -4.07655e-16 3.27864e-16)
(1.15324 -3.62233e-16 3.488e-16)
(1.15542 -3.93456e-16 3.05408e-16)
(1.15542 -4.13764e-16 3.09619e-16)
(1.15749 -4.13194e-16 2.8932e-16)
(1.15749 -4.13936e-16 2.37028e-16)
(1.15947 -4.26114e-16 2.91416e-16)
(1.15947 -3.89675e-16 2.61156e-16)
(1.16133 -4.21406e-16 3.04513e-16)
(1.16133 -4.46527e-16 2.84046e-16)
(1.16308 -4.37576e-16 2.90512e-16)
(1.16308 -4.83741e-16 2.68151e-16)
(1.1647 -4.44949e-16 1.99699e-16)
(1.1647 -5.19986e-16 1.52932e-16)
(1.16618 -4.38913e-16 2.29695e-16)
(1.16618 -5.05522e-16 1.45974e-16)
(1.16752 -4.64582e-16 1.70394e-16)
(1.16752 -4.53213e-16 2.58537e-16)
(1.1687 -4.19074e-16 1.64209e-16)
(1.1687 -4.32132e-16 2.40434e-16)
(1.16972 -4.05734e-16 1.52115e-16)
(1.16972 -4.40079e-16 2.34966e-16)
(1.17056 -4.10388e-16 1.46274e-16)
(1.17056 -3.8105e-16 2.44229e-16)
(1.1712 -3.86204e-16 1.20221e-16)
(1.1712 -3.22172e-16 1.60671e-16)
(1.17165 -3.88348e-16 9.53861e-17)
(1.17165 -3.34209e-16 1.93562e-16)
(1.17188 -3.62577e-16 1.68876e-16)
(1.17188 -4.19183e-16 1.02463e-16)
(0.00097726 -2.51579e-19 -3.81195e-18)
(0.00097726 -4.85908e-20 -5.63746e-22)
(0.00294966 8.99112e-19 -2.00192e-17)
(0.00294966 1.99839e-19 -4.52903e-21)
(0.0049585 1.36753e-18 -2.07552e-17)
(0.0049585 3.0337e-19 -7.89318e-21)
(0.00700445 2.18931e-18 -2.15065e-17)
(0.00700445 4.90356e-19 -1.16977e-20)
(0.00908818 3.02807e-18 -2.22726e-17)
(0.00908818 6.89903e-19 -1.59266e-20)
(0.0112104 3.8884e-18 -2.3053e-17)
(0.0112104 9.00482e-19 -2.05112e-20)
(0.0133717 4.77276e-18 -2.38471e-17)
(0.0133717 1.13103e-18 -2.57038e-20)
(0.015573 5.67704e-18 -2.46548e-17)
(0.015573 1.3734e-18 -3.11689e-20)
(0.0178148 6.5936e-18 -2.54756e-17)
(0.0178148 1.62894e-18 -3.71255e-20)
(0.020098 7.5308e-18 -2.63091e-17)
(0.020098 1.90008e-18 -4.37867e-20)
(0.0224232 8.50833e-18 -2.71551e-17)
(0.0224232 2.1757e-18 -5.10661e-20)
(0.0247914 9.50695e-18 -2.80132e-17)
(0.0247914 2.47067e-18 -5.86959e-20)
(0.0272031 1.05004e-17 -2.88829e-17)
(0.0272031 2.78222e-18 -6.71746e-20)
(0.0296593 1.15013e-17 -2.97641e-17)
(0.0296593 3.12325e-18 -7.64731e-20)
(0.0321607 1.25464e-17 -3.06568e-17)
(0.0321607 3.4777e-18 -8.63282e-20)
(0.0347081 1.36385e-17 -3.15599e-17)
(0.0347081 3.83784e-18 -9.64249e-20)
(0.0373024 1.47506e-17 -3.2472e-17)
(0.0373024 4.18028e-18 -1.07311e-19)
(0.0399444 1.58569e-17 -3.33929e-17)
(0.0399444 4.55931e-18 -1.19075e-19)
(0.042635 1.69583e-17 -3.43219e-17)
(0.042635 4.99235e-18 -1.31995e-19)
(0.0453751 1.80933e-17 -3.52589e-17)
(0.0453751 5.416e-18 -1.46447e-19)
(0.0481655 1.9216e-17 -3.6204e-17)
(0.0481655 5.91136e-18 -1.62235e-19)
(0.0510072 2.03362e-17 -3.71573e-17)
(0.0510072 6.46212e-18 -1.79116e-19)
(0.053901 2.15028e-17 -3.81181e-17)
(0.053901 6.97288e-18 -1.96806e-19)
(0.0568479 2.2718e-17 -3.90847e-17)
(0.0568479 7.46638e-18 -2.15973e-19)
(0.059849 2.39743e-17 -4.0057e-17)
(0.059849 7.95903e-18 -2.35613e-19)
(0.062905 2.5189e-17 -4.10331e-17)
(0.062905 8.49629e-18 -2.56743e-19)
(0.0660171 2.63115e-17 -4.2013e-17)
(0.0660171 9.14231e-18 -2.80328e-19)
(0.0691862 2.74601e-17 -4.29973e-17)
(0.0691862 9.79043e-18 -3.03797e-19)
(0.0724133 2.86989e-17 -4.39828e-17)
(0.0724133 1.04734e-17 -3.292e-19)
(0.0756995 3.00023e-17 -4.49681e-17)
(0.0756995 1.11953e-17 -3.55695e-19)
(0.0790459 3.13435e-17 -4.59502e-17)
(0.0790459 1.19299e-17 -3.84068e-19)
(0.0824534 3.26443e-17 -4.6928e-17)
(0.0824534 1.27237e-17 -4.13437e-19)
(0.0859232 3.39026e-17 -4.78996e-17)
(0.0859232 1.35423e-17 -4.4573e-19)
(0.0894564 3.52113e-17 -4.88661e-17)
(0.0894564 1.4389e-17 -4.81688e-19)
(0.0930541 3.66109e-17 -4.98249e-17)
(0.0930541 1.5313e-17 -5.18679e-19)
(0.0967174 3.80436e-17 -5.0775e-17)
(0.0967174 1.61961e-17 -5.58542e-19)
(0.100447 3.96105e-17 -5.17162e-17)
(0.100447 1.70703e-17 -6.00301e-19)
(0.104245 4.12722e-17 -5.26448e-17)
(0.104245 1.80048e-17 -6.44188e-19)
(0.108113 4.2832e-17 -5.3558e-17)
(0.108113 1.88696e-17 -6.93277e-19)
(0.11205 4.43674e-17 -5.44589e-17)
(0.11205 1.98068e-17 -7.40449e-19)
(0.116059 4.60604e-17 -5.53381e-17)
(0.116059 2.08503e-17 -7.88916e-19)
(0.120141 4.77799e-17 -5.61892e-17)
(0.120141 2.16766e-17 -8.41935e-19)
(0.124297 4.94675e-17 -5.70135e-17)
(0.124297 2.25455e-17 -8.97529e-19)
(0.128528 5.11997e-17 -5.781e-17)
(0.128528 2.35443e-17 -9.57497e-19)
(0.132835 5.27071e-17 -5.85763e-17)
(0.132835 2.47852e-17 -1.02284e-18)
(0.13722 5.40446e-17 -5.93205e-17)
(0.13722 2.62812e-17 -1.09929e-18)
(0.141685 5.53192e-17 -6.0052e-17)
(0.141685 2.76064e-17 -1.18011e-18)
(0.146229 5.67555e-17 -6.07654e-17)
(0.146229 2.91602e-17 -1.26108e-18)
(0.150855 5.83583e-17 -6.14546e-17)
(0.150855 3.09251e-17 -1.34844e-18)
(0.155564 5.98051e-17 -6.21217e-17)
(0.155564 3.24432e-17 -1.44654e-18)
(0.160357 6.132e-17 -6.27716e-17)
(0.160357 3.38514e-17 -1.5452e-18)
(0.165236 6.2992e-17 -6.33994e-17)
(0.165236 3.56162e-17 -1.6419e-18)
(0.170201 6.47308e-17 -6.39929e-17)
(0.170201 3.68628e-17 -1.73734e-18)
(0.175254 6.66624e-17 -6.45417e-17)
(0.175254 3.80121e-17 -1.84205e-18)
(0.180396 6.87835e-17 -6.50418e-17)
(0.180396 3.97604e-17 -1.95099e-18)
(0.185628 7.08226e-17 -6.54942e-17)
(0.185628 4.12951e-17 -2.07334e-18)
(0.190952 7.27727e-17 -6.59029e-17)
(0.190952 4.29337e-17 -2.19635e-18)
(0.196368 7.47561e-17 -6.62636e-17)
(0.196368 4.45794e-17 -2.32863e-18)
(0.201877 7.65252e-17 -6.65821e-17)
(0.201877 4.63006e-17 -2.47847e-18)
(0.207481 7.82829e-17 -6.6874e-17)
(0.207481 4.79991e-17 -2.62465e-18)
(0.21318 8.03115e-17 -6.71182e-17)
(0.21318 4.96226e-17 -2.772e-18)
(0.218976 8.21873e-17 -6.73072e-17)
(0.218976 5.16387e-17 -2.9398e-18)
(0.224868 8.37515e-17 -6.74584e-17)
(0.224868 5.39542e-17 -3.11482e-18)
(0.230857 8.52445e-17 -6.75863e-17)
(0.230857 5.64052e-17 -3.2959e-18)
(0.236944 8.70672e-17 -6.76818e-17)
(0.236944 5.82181e-17 -3.47899e-18)
(0.243128 8.90002e-17 -6.77303e-17)
(0.243128 6.00745e-17 -3.66753e-18)
(0.249411 9.08896e-17 -6.77287e-17)
(0.249411 6.19892e-17 -5.54549e-18)
(0.255792 9.27819e-17 -6.76807e-17)
(0.255792 6.35609e-17 -7.81307e-18)
(0.26227 9.46801e-17 -6.76074e-17)
(0.26227 6.55031e-17 -1.01515e-17)
(0.268846 9.67377e-17 -6.75233e-17)
(0.268846 6.77138e-17 -1.24448e-17)
(0.275518 9.91023e-17 -6.73608e-17)
(0.275518 6.98762e-17 -1.48009e-17)
(0.282285 1.01344e-16 -6.71614e-17)
(0.282285 7.20439e-17 -1.72472e-17)
(0.289145 1.03328e-16 -6.69571e-17)
(0.289145 7.45463e-17 -1.97764e-17)
(0.296099 1.0503e-16 -6.67341e-17)
(0.296099 7.66135e-17 -2.23127e-17)
(0.303142 1.05904e-16 -6.65216e-17)
(0.303142 7.92022e-17 -2.48642e-17)
(0.310273 1.0679e-16 -6.63511e-17)
(0.310273 8.1893e-17 -2.72583e-17)
(0.31749 1.08221e-16 -6.61382e-17)
(0.31749 8.496e-17 -2.96367e-17)
(0.324789 1.08652e-16 -6.58745e-17)
(0.324789 8.74208e-17 -3.2222e-17)
(0.332167 1.09437e-16 -7.28275e-17)
(0.332167 8.93498e-17 -3.47783e-17)
(0.339621 1.11339e-16 -8.87624e-17)
(0.339621 9.25492e-17 -3.71259e-17)
(0.347146 1.13144e-16 -1.04947e-16)
(0.347146 9.49322e-17 -3.93942e-17)
(0.354738 1.14777e-16 -1.21423e-16)
(0.354738 9.76359e-17 -4.173e-17)
(0.362392 1.15744e-16 -1.38089e-16)
(0.362392 1.00789e-16 -4.41369e-17)
(0.370103 1.17133e-16 -1.54902e-16)
(0.370103 1.03827e-16 -4.63356e-17)
(0.377867 1.18873e-16 -1.71803e-16)
(0.377867 1.0719e-16 -4.82098e-17)
(0.385678 1.20426e-16 -1.88962e-16)
(0.385678 1.10727e-16 -4.99396e-17)
(0.39353 1.23445e-16 -2.06396e-16)
(0.39353 1.12997e-16 -5.16506e-17)
(0.401417 1.26664e-16 -2.23649e-16)
(0.401417 1.16187e-16 -5.32198e-17)
(0.409333 1.27827e-16 -2.40938e-16)
(0.409333 1.20882e-16 -5.4632e-17)
(0.417273 1.27942e-16 -2.58413e-16)
(0.417273 1.24582e-16 -5.58674e-17)
(0.42523 1.27992e-16 -2.75951e-16)
(0.42523 1.2777e-16 -5.67984e-17)
(0.433199 1.2957e-16 -2.93475e-16)
(0.433199 1.31036e-16 -5.73273e-17)
(0.441173 1.30328e-16 -3.10892e-16)
(0.441173 1.33409e-16 -5.77887e-17)
(0.449146 1.29641e-16 -3.28333e-16)
(0.449146 1.35619e-16 -5.79008e-17)
(0.457114 1.30231e-16 -3.45389e-16)
(0.457114 1.39684e-16 -5.74225e-17)
(0.46507 1.31136e-16 -3.62357e-16)
(0.46507 1.43741e-16 -5.68346e-17)
(0.47301 1.31704e-16 -3.79094e-16)
(0.47301 1.45532e-16 -5.62156e-17)
(0.480927 1.31885e-16 -3.9521e-16)
(0.480927 1.48618e-16 -5.52584e-17)
(0.488818 1.32667e-16 -4.10979e-16)
(0.488818 1.52418e-16 -5.43204e-17)
(0.496678 1.32497e-16 -4.25942e-16)
(0.496678 1.54321e-16 -5.30283e-17)
(0.504502 1.30677e-16 -4.4039e-16)
(0.504502 1.58228e-16 -5.14963e-17)
(0.512287 1.29836e-16 -4.54474e-16)
(0.512287 1.62928e-16 -5.00569e-17)
(0.520029 1.30521e-16 -4.68157e-16)
(0.520029 1.66154e-16 -4.88885e-17)
(0.527725 1.31544e-16 -4.81212e-16)
(0.527725 1.70476e-16 -4.70059e-17)
(0.535371 1.31681e-16 -4.94113e-16)
(0.535371 1.76109e-16 -4.54261e-17)
(0.542966 1.31315e-16 -5.06449e-16)
(0.542966 1.78238e-16 -4.37163e-17)
(0.550507 1.3506e-16 -5.18319e-16)
(0.550507 1.79468e-16 -4.20218e-17)
(0.557991 1.39809e-16 -5.28997e-16)
(0.557991 1.82095e-16 -4.01067e-17)
(0.565417 1.38504e-16 -5.39072e-16)
(0.565417 1.85657e-16 -3.7999e-17)
(0.572784 1.35366e-16 -5.47797e-16)
(0.572784 1.89078e-16 -3.62854e-17)
(0.580089 1.36326e-16 -5.56483e-16)
(0.580089 1.90992e-16 -3.45327e-17)
(0.587333 1.39058e-16 -5.64317e-16)
(0.587333 1.93656e-16 -3.31069e-17)
(0.594514 1.42724e-16 -5.71813e-16)
(0.594514 1.94694e-16 -3.33395e-17)
(0.601631 1.45453e-16 -5.7863e-16)
(0.601631 1.95036e-16 -3.46702e-17)
(0.608684 1.46087e-16 -5.85079e-16)
(0.608684 1.96783e-16 -3.56187e-17)
(0.615673 1.47811e-16 -5.90802e-16)
(0.615673 1.98591e-16 -3.61229e-17)
(0.622597 1.48882e-16 -5.9716e-16)
(0.622597 2.02718e-16 -3.7938e-17)
(0.629458 1.45355e-16 -6.02667e-16)
(0.629458 2.03228e-16 -4.10745e-17)
(0.636254 1.41525e-16 -6.07718e-16)
(0.636254 2.02559e-16 -4.31907e-17)
(0.642985 1.4253e-16 -6.11438e-16)
(0.642985 2.04787e-16 -4.58853e-17)
(0.649654 1.44553e-16 -6.15625e-16)
(0.649654 2.06671e-16 -4.89118e-17)
(0.656259 1.45698e-16 -6.19733e-16)
(0.656259 2.06464e-16 -5.27328e-17)
(0.662801 1.45635e-16 -6.231e-16)
(0.662801 2.04453e-16 -5.53899e-17)
(0.669282 1.45778e-16 -6.24785e-16)
(0.669282 2.04154e-16 -5.77897e-17)
(0.675701 1.43782e-16 -6.26532e-16)
(0.675701 2.09816e-16 -6.03608e-17)
(0.682059 1.38835e-16 -6.27945e-16)
(0.682059 2.12265e-16 -6.24885e-17)
(0.688358 1.36395e-16 -6.29032e-16)
(0.688358 2.11548e-16 -6.40309e-17)
(0.694598 1.33053e-16 -6.29004e-16)
(0.694598 2.14075e-16 -6.55513e-17)
(0.700779 1.31333e-16 -6.29612e-16)
(0.700779 2.13303e-16 -6.64035e-17)
(0.706903 1.34459e-16 -6.27904e-16)
(0.706903 2.10847e-16 -6.79061e-17)
(0.71297 1.36705e-16 -6.24653e-16)
(0.71297 2.08103e-16 -6.97085e-17)
(0.718982 1.38531e-16 -6.2045e-16)
(0.718982 2.08209e-16 -7.14716e-17)
(0.72494 1.40617e-16 -6.16977e-16)
(0.72494 2.08536e-16 -7.39914e-17)
(0.730843 1.37955e-16 -6.12751e-16)
(0.730843 2.0432e-16 -7.66703e-17)
(0.736694 1.36743e-16 -6.08471e-16)
(0.736694 2.0196e-16 -7.80193e-17)
(0.742494 1.34819e-16 -6.02895e-16)
(0.742494 2.00237e-16 -7.87612e-17)
(0.748242 1.28901e-16 -5.98299e-16)
(0.748242 1.95531e-16 -7.95727e-17)
(0.75394 1.28281e-16 -5.94e-16)
(0.75394 1.90767e-16 -8.09198e-17)
(0.75959 1.32803e-16 -5.89889e-16)
(0.75959 1.84835e-16 -8.27907e-17)
(0.765191 1.34052e-16 -5.84442e-16)
(0.765191 1.80157e-16 -8.378e-17)
(0.770745 1.28728e-16 -5.78891e-16)
(0.770745 1.80247e-16 -8.47752e-17)
(0.776253 1.26295e-16 -5.74556e-16)
(0.776253 1.78519e-16 -8.53506e-17)
(0.781716 1.28899e-16 -5.69532e-16)
(0.781716 1.74593e-16 -8.52668e-17)
(0.787134 1.29671e-16 -5.62908e-16)
(0.787134 1.73367e-16 -8.76171e-17)
(0.792508 1.24038e-16 -5.57259e-16)
(0.792508 1.70396e-16 -8.98097e-17)
(0.79784 1.11403e-16 -5.51786e-16)
(0.79784 1.73369e-16 -9.05931e-17)
(0.80313 9.72883e-17 -5.46828e-16)
(0.80313 1.76132e-16 -9.02718e-17)
(0.808379 9.04733e-17 -5.42946e-16)
(0.808379 1.68871e-16 -8.842e-17)
(0.813587 8.93915e-17 -5.3796e-16)
(0.813587 1.65686e-16 -8.74635e-17)
(0.818756 7.95078e-17 -5.30902e-16)
(0.818756 1.59616e-16 -8.47491e-17)
(0.823887 6.72094e-17 -5.25528e-16)
(0.823887 1.52427e-16 -7.67832e-17)
(0.828979 6.59126e-17 -5.20072e-16)
(0.828979 1.52271e-16 -7.31918e-17)
(0.834034 7.11848e-17 -5.20425e-16)
(0.834034 1.43377e-16 -7.21249e-17)
(0.839053 7.81282e-17 -5.13429e-16)
(0.839053 1.36801e-16 -7.50557e-17)
(0.844036 7.62669e-17 -5.07144e-16)
(0.844036 1.34359e-16 -7.25775e-17)
(0.848983 6.92175e-17 -4.99365e-16)
(0.848983 1.27657e-16 -7.17471e-17)
(0.853896 6.02289e-17 -4.94048e-16)
(0.853896 1.27822e-16 -7.53724e-17)
(0.858776 5.31528e-17 -4.91227e-16)
(0.858776 1.23757e-16 -7.52387e-17)
(0.863622 4.83892e-17 -4.89605e-16)
(0.863622 1.18508e-16 -7.75641e-17)