/*--------------------------------*- C++ -*----------------------------------*\
| =========                 |                                                 |
| \\      /  F ield         | OpenFOAM: The Open Source CFD Toolbox           |
|  \\    /   O peration     | Version:  2106                                  |
|   \\  /    A nd           | Website:  www.openfoam.com                      |
|    \\/     M anipulation  |                                                 |
\*---------------------------------------------------------------------------*/
FoamFile
{
    version     2.0;
    format      ascii;
    arch        "LSB;label=32;scalar=64";
    class       volTensorField;
    location    "10080";
    object      grad(U);
}
// * * * * * * * * * * * * * * * * * * * * * * * * * * * * * * * * * * * * * //

dimensions      [0 0 -1 0 0 0 0];

internalField   nonuniform List<tensor> 
2000
(
(-1.43031e-17 -1.28134e-25 3.25412e-27 35.0354 -4.80438e-39 1.58187e-13 0.0648438 1.57772e-30 7.48507e-17)
(1.43031e-17 -9.75643e-30 5.08147e-32 35.0354 1.36745e-15 1.25726e-13 0.0648438 -1.52551e-18 7.15745e-17)
(0 9.97671e-31 -5.12755e-31 35.0288 -1.24647e-12 4.5142e-14 0.195717 -1.16379e-15 1.70202e-16)
(0 -9.97671e-31 3.99069e-31 35.0288 3.68648e-15 7.86004e-14 0.195717 8.87811e-18 1.03842e-16)
(4.71546e-17 -1.43858e-25 -5.70994e-32 35.0221 8.07794e-28 2.42457e-14 0.271506 0 2.02584e-16)
(-5.51347e-17 9.40214e-30 -3.91756e-31 35.0221 3.66068e-15 7.51292e-15 0.271506 1.68953e-17 1.07801e-16)
(-2.61238e-17 -6.15323e-30 -6.20938e-32 35.0152 1.52175e-12 2.62739e-14 0.27652 -1.62065e-14 2.08652e-16)
(1.04495e-16 9.22985e-30 -1.92288e-31 35.0152 4.27703e-15 7.67046e-15 0.27652 2.77039e-17 1.11928e-16)
(0 6.04048e-30 0 35.0083 9.19445e-14 2.66629e-14 0.281625 -1.94797e-15 2.16477e-16)
(0 -3.02024e-30 0 35.0083 4.31436e-15 7.83343e-15 0.281625 3.44627e-17 1.16231e-16)
(0 1.18596e-29 -5.55917e-31 35.0011 -4.29416e-14 2.72813e-14 0.286823 -1.89547e-16 2.26651e-16)
(-2.53692e-16 -1.1869e-29 5.55917e-31 35.0011 4.2209e-15 8.0026e-15 0.286823 3.40788e-17 1.20727e-16)
(0 -4.56653e-28 3.6382e-31 34.9938 -6.44224e-15 2.80261e-14 0.292115 -2.66428e-17 2.37071e-16)
(3.30364e-16 5.83556e-30 -3.6382e-31 34.9938 4.29796e-15 8.17738e-15 0.292115 3.70481e-17 1.25429e-16)
(0 0 1.78577e-31 34.9862 -4.33472e-15 2.87428e-14 0.297501 -4.65877e-17 2.47381e-16)
(8.16904e-16 5.75751e-30 -1.78577e-31 34.9862 4.39301e-15 8.35254e-15 0.297501 3.69796e-17 1.30363e-16)
(-1.21996e-16 -6.1135e-31 -8.81378e-32 34.9782 -7.1009e-15 2.94278e-14 0.302983 -7.55741e-17 2.57872e-16)
(0 8.41461e-30 0 34.9782 4.41098e-15 8.52818e-15 0.302983 3.87555e-17 1.35515e-16)
(1.93758e-16 -5.50694e-30 3.44184e-31 34.9695 -9.12417e-15 3.01065e-14 0.308559 -8.4053e-17 2.68682e-16)
(0 8.26041e-30 -3.44184e-31 34.9695 4.52619e-15 8.71153e-15 0.308559 4.04064e-17 1.40883e-16)
(3.80415e-16 -1.89211e-29 1.35151e-30 34.96 -9.44431e-15 3.07872e-14 0.314229 -8.41777e-17 2.79828e-16)
(0 1.62181e-29 -1.01363e-30 34.96 4.52592e-15 8.89982e-15 0.314229 4.0211e-17 1.46523e-16)
(1.83874e-16 5.76227e-30 1.07035e-31 34.9492 -9.22121e-15 3.14689e-14 0.319989 -8.31344e-17 2.91291e-16)
(5.48773e-16 -2.60178e-30 0 34.9492 4.38491e-15 9.08676e-15 0.319989 3.93466e-17 1.52435e-16)
(0 2.60486e-30 0 34.9366 -8.99688e-15 3.21486e-14 0.325834 -8.31645e-17 3.03054e-16)
(0 -2.60486e-30 0 34.9366 4.11532e-15 9.27271e-15 0.325834 3.66967e-17 1.58637e-16)
(-5.86937e-16 2.01015e-29 -1.71938e-30 34.9215 -8.99381e-15 3.28192e-14 0.331759 -8.62086e-17 3.15012e-16)
(0 -1.53427e-29 1.27856e-30 34.9215 3.98389e-15 9.45598e-15 0.331759 3.83313e-17 1.65107e-16)
(-2.49242e-16 1.47538e-29 -7.56323e-31 34.903 -9.4942e-15 3.34736e-14 0.337754 -9.59857e-17 3.27141e-16)
(-3.53289e-16 -7.5308e-30 0 34.903 4.12026e-15 9.63382e-15 0.337754 4.07196e-17 1.71859e-16)
(6.18653e-16 -9.59671e-30 1.06081e-30 34.8798 -1.01853e-14 3.41028e-14 0.343805 -1.03085e-16 3.39292e-16)
(-1.08735e-15 7.30931e-30 -6.16067e-31 34.8798 4.30585e-15 9.81084e-15 0.343805 4.34356e-17 1.78938e-16)
(3.40459e-16 -7.25733e-30 0 34.8506 -1.02514e-14 3.46978e-14 0.349894 -1.00931e-16 3.51421e-16)
(-3.40459e-16 7.25733e-30 -3.02389e-31 34.8506 4.48874e-15 9.98487e-15 0.349894 4.59281e-17 1.8635e-16)
(1.305e-15 -2.10407e-29 1.19809e-30 34.8135 -1.01368e-14 3.5248e-14 0.356001 -1.04625e-16 3.63337e-16)
(6.04682e-16 1.43508e-29 -2.96848e-31 34.8135 4.50261e-15 1.01309e-14 0.356001 4.53562e-17 1.94146e-16)
(-3.42138e-16 6.87408e-30 -7.45757e-31 34.7664 -1.00091e-14 3.57362e-14 0.362095 -1.02073e-16 3.74839e-16)
(0 0 0 34.7664 4.19209e-15 1.02512e-14 0.362095 4.11856e-17 2.02211e-16)
(3.66424e-16 -9.07967e-30 7.44695e-31 34.7064 -9.63883e-15 3.61463e-14 0.368143 -1.00704e-16 3.85737e-16)
(1.46569e-15 9.27741e-30 -5.72136e-31 34.7064 4.02613e-15 1.03666e-14 0.368143 4.35412e-17 2.10602e-16)
(-3.91142e-16 -3.1621e-32 3.78994e-31 34.6307 -9.77018e-15 3.64585e-14 0.374102 -1.08761e-16 3.95718e-16)
(3.12913e-15 2.50962e-30 -5.61652e-31 34.6307 4.20672e-15 1.0444e-14 0.374102 4.6644e-17 2.19418e-16)
(-6.20776e-16 4.41088e-30 -5.5136e-31 34.5357 -1.03119e-14 3.66496e-14 0.379921 -1.16436e-16 4.04482e-16)
(1.66517e-15 1.4344e-31 0 34.5357 4.13949e-15 1.04724e-14 0.379921 4.37004e-17 2.28479e-16)
(6.094e-16 -4.33005e-30 5.41256e-31 34.4174 -1.0662e-14 3.66945e-14 0.385544 -1.20716e-16 4.11638e-16)
(1.7675e-15 6.64581e-30 -5.41256e-31 34.4174 4.12103e-15 1.04601e-14 0.385544 4.79873e-17 2.37829e-16)
(0 6.37605e-30 -5.31338e-31 34.2717 -1.06869e-14 3.65712e-14 0.390905 -1.21393e-16 4.16904e-16)
(1.87153e-15 -4.08981e-30 0 34.2717 4.28102e-15 1.0401e-14 0.390905 4.90054e-17 2.47414e-16)
(9.29604e-17 -1.95066e-30 2.93426e-31 34.0939 -1.081e-14 3.62632e-14 0.395931 -1.28132e-16 4.19974e-16)
(-5.87271e-16 6.25921e-30 -5.21601e-31 34.0939 4.57687e-15 1.02894e-14 0.395931 5.66867e-17 2.57342e-16)
(5.76509e-16 -1.63854e-29 1.53613e-30 33.8793 -1.11122e-14 3.57497e-14 0.400545 -1.33139e-16 4.20431e-16)
(1.50806e-15 1.65658e-29 -1.53613e-30 33.8793 4.64971e-15 1.01104e-14 0.400545 5.25804e-17 2.67502e-16)
(5.83525e-16 -3.80578e-30 -2.53964e-31 33.6236 -1.13532e-14 3.50126e-14 0.404667 -1.38785e-16 4.17984e-16)
(-5.65945e-16 8.04256e-30 -5.0266e-31 33.6236 4.00434e-15 9.87027e-15 0.404667 4.32241e-17 2.77676e-16)
(-5.75951e-16 2.23014e-30 -2.67505e-31 33.3222 -1.11994e-14 3.40437e-14 0.408219 -1.3437e-16 4.12418e-16)
(0 3.94759e-30 -4.93449e-31 33.3222 4.03336e-15 9.55604e-15 0.408219 5.52761e-17 2.88024e-16)
(0 5.81288e-30 -4.84407e-31 32.9716 -1.04379e-14 3.28478e-14 0.411122 -1.24914e-16 4.03739e-16)
(-5.45393e-16 -1.93763e-30 0 32.9716 4.25929e-15 9.17304e-15 0.411122 5.05195e-17 2.98425e-16)
(-1.7029e-15 2.31602e-29 -3.62415e-30 32.5687 -1.0004e-14 3.14417e-14 0.413308 -1.28349e-16 3.92034e-16)
(-2.52839e-15 -1.73518e-29 2.37765e-30 32.5687 3.93458e-15 8.73577e-15 0.413308 4.90629e-17 3.08911e-16)
(6.60581e-16 -2.23986e-30 9.82577e-28 32.1117 -9.91245e-15 1.13596e-28 0.41472 -1.27237e-16 3.9443e-31)
(2.64232e-15 2.44575e-31 0 32.1117 3.83876e-15 8.24034e-15 0.41472 4.99292e-17 3.19308e-16)
(0 7.33219e-30 1.9119e-29 31.6 -1.003e-14 -5.38959e-16 0.415314 -1.36301e-16 3.53918e-18)
(0 -3.66609e-30 0 31.6 4.0703e-15 7.69501e-15 0.415314 5.70502e-17 3.29545e-16)
(-7.18128e-16 9.44028e-30 -1.25317e-30 31.034 -1.08231e-14 -3.57274e-15 0.415064 -1.53452e-16 3.46682e-17)
(0 -7.19783e-30 8.99729e-31 31.034 4.31046e-15 7.12155e-15 0.415064 5.82968e-17 3.39597e-16)
(-7.47082e-16 -1.28817e-30 5.36585e-31 30.4161 -1.1518e-14 -5.44171e-15 0.413963 -1.60555e-16 6.11729e-17)
(0 7.06593e-30 -8.83241e-31 30.4161 4.16561e-15 6.51819e-15 0.413963 5.5215e-17 3.49245e-16)
(0 -1.38729e-29 2.60117e-30 29.7494 -1.15975e-14 -7.1982e-15 0.412023 -1.61462e-16 8.73919e-17)
(3.1043e-15 1.41695e-29 -2.60117e-30 29.7494 4.18872e-15 5.90359e-15 0.412023 6.11411e-17 3.58762e-16)
(0 6.80934e-30 -8.51168e-31 29.0388 -1.06423e-14 -8.84402e-15 0.409274 -1.39336e-16 1.12703e-16)
(0 -3.40467e-30 0 29.0388 4.11683e-15 5.318e-15 0.409274 5.52432e-17 3.6808e-16)
(-1.06835e-16 1.08315e-30 -5.13192e-31 28.2897 -9.14734e-15 -1.03645e-14 0.405764 -1.24072e-16 1.37669e-16)
(3.33573e-15 -3.00895e-30 0 28.2897 3.45672e-15 4.74667e-15 0.405764 4.42489e-17 3.773e-16)
(-8.62673e-16 -1.08618e-29 5.07022e-31 27.5085 -8.14518e-15 -1.17123e-14 0.401556 -1.14899e-16 1.61165e-16)
(3.45069e-15 1.67588e-29 -8.20259e-31 27.5085 2.61513e-15 4.17218e-15 0.401556 3.23941e-17 3.86173e-16)
(-1.79781e-15 -1.38398e-29 1.30668e-30 26.7021 -7.68511e-15 -1.28981e-14 0.39672 -1.14864e-16 1.82785e-16)
(0 1.61046e-29 -1.61046e-30 26.7021 2.1688e-15 3.68858e-15 0.39672 3.24477e-17 3.94278e-16)
(0 1.58094e-29 -1.58094e-30 25.8774 -8.19932e-15 -1.38881e-14 0.391336 -1.35036e-16 2.0302e-16)
(3.67793e-15 -1.54343e-29 1.58094e-30 25.8774 2.20686e-15 3.25885e-15 0.391336 3.47845e-17 4.02784e-16)
(-3.64227e-15 1.07403e-29 -5.68147e-31 25.0413 -8.96939e-15 -1.46728e-14 0.385487 -1.43306e-16 2.20104e-16)
(3.7898e-15 3.90137e-31 0 25.0413 2.20723e-15 2.83388e-15 0.385487 3.3682e-17 4.1092e-16)
(0 -6.09414e-30 7.61767e-31 24.2002 -9.14538e-15 -1.52351e-14 0.379255 -1.45738e-16 2.35244e-16)
(0 9.14121e-30 0 24.2002 2.50083e-15 2.4845e-15 0.379255 4.54606e-17 4.18715e-16)
(0 -5.98247e-30 7.47808e-31 23.3603 -8.96419e-15 -1.55846e-14 0.372722 -1.42819e-16 2.46332e-16)
(0 8.9737e-30 0 23.3603 2.74578e-15 2.20097e-15 0.372722 4.29106e-17 4.26468e-16)
(-1.02909e-15 1.10849e-29 -1.723e-30 22.527 -8.60388e-15 -1.58015e-14 0.365963 -1.39303e-16 2.55466e-16)
(-4.11634e-15 -6.28539e-30 0 22.527 3.25388e-15 1.99582e-15 0.365963 6.39917e-17 4.34244e-16)
(1.05544e-15 3.48375e-30 -4.75411e-31 21.7049 -7.79288e-15 -1.58965e-14 0.359048 -1.20856e-16 2.62793e-16)
(2.59899e-15 -2.4423e-30 0 21.7049 3.34999e-15 1.84192e-15 0.359048 4.77679e-17 4.42379e-16)
(1.08133e-15 1.46954e-29 -4.71626e-31 20.8981 -7.33852e-15 -1.59261e-14 0.35204 -1.28946e-16 2.68296e-16)
(-4.3253e-15 -1.74524e-29 7.07447e-31 20.8981 2.00584e-15 1.72568e-15 0.35204 2.02354e-17 4.50449e-16)
(-1.10673e-15 2.28438e-30 -2.26266e-31 20.1097 -7.92402e-15 -1.5809e-14 0.344995 -1.45895e-16 2.73714e-16)
(4.42692e-15 3.25058e-30 0 20.1097 1.58938e-15 1.69753e-15 0.344995 3.49966e-17 4.58628e-16)
(0 -1.36351e-29 1.36351e-30 19.3426 -7.90212e-15 -1.55339e-14 0.337962 -1.33025e-16 2.74308e-16)
(9.05317e-15 1.73052e-29 -1.36351e-30 19.3426 2.58054e-15 1.64799e-15 0.337962 5.63242e-17 4.6806e-16)
(1.15607e-15 -2.37089e-29 2.21653e-30 18.5985 -7.38656e-15 -1.52454e-14 0.33098 -1.32675e-16 2.74223e-16)
(4.62426e-15 1.92367e-29 -6.69264e-31 18.5985 2.72548e-15 1.5121e-15 0.33098 4.15777e-17 4.7696e-16)
(-1.17999e-15 1.01822e-29 -1.51409e-30 17.8789 -6.6956e-15 -8.86654e-15 0.324085 -1.12482e-16 2.74168e-16)
(-4.71996e-15 -1.35589e-29 0 17.8789 1.29397e-15 1.52226e-15 0.324085 1.18536e-17 4.84709e-16)
(0 -5.15968e-30 6.44961e-31 17.1849 -5.56282e-15 -9.85261e-16 0.317304 -9.49964e-17 4.86385e-17)
(0 7.73953e-30 -6.44961e-31 17.1849 1.23585e-15 1.63694e-15 0.317304 3.44857e-17 4.93842e-16)
(-2.65207e-15 1.49641e-29 -8.70803e-31 16.5168 -5.44069e-15 5.24061e-16 0.310659 -1.12034e-16 7.45365e-18)
(0 -7.5977e-30 0 16.5168 1.92926e-15 1.66792e-15 0.310659 3.8912e-17 5.03718e-16)
(1.39958e-15 -7.45848e-30 1.24308e-30 15.875 -5.83209e-15 5.08092e-16 0.304168 -1.13878e-16 1.22708e-17)
(0 9.94464e-30 -1.24308e-30 15.875 1.3958e-15 1.74203e-15 0.304168 1.49296e-17 5.13116e-16)
(0 1.2203e-29 -6.1015e-31 15.2593 -4.80338e-15 6.89924e-16 0.297844 -7.52878e-17 1.49758e-17)
(-5.08319e-15 -1.52213e-29 6.1015e-31 15.2593 7.81985e-16 1.84617e-15 0.297844 1.59337e-17 5.23747e-16)
(-5.64409e-17 7.27199e-30 -9.6487e-31 14.6693 -3.80354e-15 7.40039e-16 0.291695 -7.76079e-17 1.47663e-17)
(0 -2.39588e-30 0 14.6693 9.71726e-16 1.91828e-15 0.291695 2.31895e-17 5.35083e-16)
(1.06569e-17 -2.39728e-30 -2.2415e-31 14.1045 -4.77723e-15 7.72225e-16 0.285729 -1.18362e-16 1.68702e-17)
(-1.32404e-15 9.4079e-30 0 14.1045 1.5705e-15 2.05388e-15 0.285729 4.12787e-17 5.46689e-16)
(-1.36825e-15 -6.92216e-30 1.4707e-31 13.5644 -5.29209e-15 9.10848e-16 0.279949 -1.02206e-16 2.11583e-17)
(5.33606e-15 7.5322e-30 -5.77219e-31 13.5644 1.66135e-15 2.19667e-15 0.279949 2.78875e-17 5.59666e-16)
(-1.35422e-15 4.58224e-30 -2.06423e-31 13.0481 -4.36042e-15 1.06469e-15 0.274356 -8.28702e-17 2.41032e-17)
(0 -3.19595e-31 0 13.0481 -1.48779e-29 2.2773e-15 0.274356 0 5.72505e-16)
(-2.74801e-15 1.79955e-29 -3.95946e-31 12.5548 -2.92044e-15 1.16957e-15 0.268951 -4.31553e-17 2.6537e-17)
(-5.49602e-15 -1.39595e-29 0 12.5548 -2.47239e-15 2.34532e-15 0.268951 6.28736e-17 5.85591e-16)
(1.39339e-15 1.0785e-29 -3.56565e-31 12.0837 -2.34168e-15 1.28242e-15 0.263731 -6.02395e-17 3.00329e-17)
(-5.57356e-15 -1.80044e-29 5.46065e-31 12.0837 -2.02688e-15 2.50821e-15 0.263731 2.0408e-16 5.99046e-16)
(-1.2071e-15 1.07212e-29 -5.36058e-31 11.6339 -4.50301e-15 1.34825e-15 0.258694 -1.42752e-16 3.0521e-17)
(-2.41419e-15 -4.28847e-30 0 11.6339 1.65538e-15 2.73367e-15 0.258694 2.89274e-16 6.15143e-16)
(-4.92077e-16 -8.00185e-30 1.80585e-31 11.2044 -6.28558e-15 1.46867e-15 0.253836 -1.4482e-16 3.67249e-17)
(9.07817e-15 1.1568e-29 -5.26235e-31 11.2044 3.4857e-15 2.85736e-15 0.253836 2.75132e-16 6.32258e-16)
(-1.44928e-15 1.47247e-29 -1.65026e-31 10.7943 -5.14465e-15 1.60497e-15 0.249153 -9.4465e-17 3.8082e-17)
(5.79711e-15 -1.1862e-29 0 10.7943 1.35062e-15 2.90029e-15 0.249153 2.85494e-16 6.49302e-16)
(0 -8.11401e-30 1.01425e-30 10.4027 -3.26162e-15 1.78384e-15 0.244641 -6.00513e-17 4.66793e-17)
(0 1.01425e-29 -5.07126e-31 10.4027 -2.4025e-16 3.03879e-15 0.244641 3.77279e-16 6.66141e-16)
(-3.72681e-15 2.3344e-30 -1.48748e-31 10.0288 -2.57603e-15 1.97906e-15 0.240293 -6.45617e-17 4.90457e-17)
(5.93909e-15 6.4489e-30 0 10.0288 -4.04736e-16 3.18199e-15 0.240293 4.25044e-16 6.8512e-16)
(0 7.81936e-30 -4.8871e-31 9.67175 -2.55773e-15 2.03842e-15 0.236105 -6.14043e-17 5.13897e-17)
(0 -3.90968e-30 -4.8871e-31 9.67175 -8.48692e-16 3.23227e-15 0.236105 4.84082e-16 7.04623e-16)
(-1.51897e-15 8.09517e-30 -6.13178e-31 9.33064 -2.23584e-15 2.16774e-15 0.23207 -5.06914e-17 5.74435e-17)
(0 -1.91902e-30 -4.79755e-31 9.33064 -1.3624e-15 3.31398e-15 0.23207 5.99386e-16 7.23641e-16)
(-2.12103e-15 7.53541e-30 0 9.0047 -2.56485e-15 2.24796e-15 0.228185 -8.06929e-17 5.7465e-17)
(0 -3.76771e-30 0 9.0047 -9.76187e-16 3.51773e-15 0.228185 7.08749e-16 7.42498e-16)
(2.08216e-15 -1.47947e-29 9.24666e-31 8.69318 -2.78592e-15 2.37867e-15 0.224443 -6.42203e-17 6.64777e-17)
(4.1257e-15 1.51075e-29 -9.24666e-31 8.69318 -8.75195e-16 3.68627e-15 0.224443 7.53265e-16 7.65159e-16)
(0 2.17853e-29 -9.07722e-31 8.39534 -1.95642e-15 2.54652e-15 0.220838 -3.93236e-17 6.86168e-17)
(0 -2.17853e-29 9.07722e-31 8.39534 -2.16415e-15 3.74684e-15 0.220838 8.04858e-16 7.89556e-16)
(-1.58384e-15 -1.22342e-30 -1.05584e-31 8.11049 -1.38697e-15 2.59176e-15 0.217365 -3.5584e-17 7.14501e-17)
(6.33538e-15 7.34063e-30 0 8.11049 -2.16521e-15 3.79812e-15 0.217365 9.18875e-16 8.14528e-16)
(1.96978e-15 -1.74952e-29 8.74759e-31 7.83797 -1.53199e-15 2.71098e-15 0.214019 -4.88622e-17 7.78256e-17)
(4.42778e-15 1.76595e-29 -8.74759e-31 7.83797 -1.8704e-15 3.81705e-15 0.214019 1.00781e-15 8.38431e-16)
(-1.61469e-15 1.95104e-29 -9.27183e-32 7.57714 -2.36186e-15 2.76171e-15 0.210795 -8.38893e-17 7.70139e-17)
(-6.45876e-15 -1.72634e-29 0 7.57714 -2.68833e-15 3.89874e-15 0.210795 1.14573e-15 8.62706e-16)
(1.89825e-15 -6.74395e-30 8.42994e-31 7.32741 -2.56049e-15 2.84458e-15 0.207687 -6.21543e-17 8.55352e-17)
(-8.41724e-15 6.73036e-30 0 7.32741 -2.18472e-15 4.11294e-15 0.207687 1.26931e-15 8.88623e-16)
(-3.28915e-15 4.68722e-30 -1.59404e-31 7.08823 -1.86757e-15 3.01531e-15 0.204692 -4.63586e-17 8.99423e-17)
(6.5783e-15 0 0 7.08823 -2.17821e-15 4.33149e-15 0.204692 1.29259e-15 9.16739e-16)
(-3.31836e-15 4.69047e-30 -1.49621e-31 6.85904 -1.39304e-15 3.01724e-15 0.201803 -3.61093e-17 8.88735e-17)
(0 0 0 6.85904 -3.09238e-15 4.36434e-15 0.201803 1.27766e-15 9.48878e-16)
(0 -1.72196e-29 0 6.63935 -1.60402e-28 3.19717e-15 0.199018 0 1.04296e-16)
(6.69427e-15 6.37996e-30 0 6.63935 -3.54133e-15 4.34067e-15 0.199018 1.28693e-15 9.80948e-16)
(-6.97642e-15 1.79178e-29 -2.41246e-30 6.42868 2.77125e-16 3.24736e-15 0.19633 -4.2609e-18 9.53375e-17)
(-3.22522e-15 -1.56576e-29 1.56576e-30 6.42868 -4.31946e-15 4.46157e-15 0.19633 1.27761e-15 1.00935e-15)
(3.43232e-15 -8.49312e-30 5.78313e-32 6.22658 9.98273e-16 3.15687e-15 0.193737 -3.5017e-17 1.02505e-16)
(-1.73059e-15 6.14828e-30 0 6.22658 -4.40717e-15 4.60121e-15 0.193737 1.24477e-15 1.04067e-15)
(1.71552e-15 -1.13968e-29 5.20095e-32 6.03262 3.49939e-16 3.36707e-15 0.191234 -2.74542e-17 1.12469e-16)
(-6.8621e-15 9.05342e-30 0 6.03262 -4.58307e-15 4.7198e-15 0.191234 1.24133e-15 1.07597e-15)
(-3.45826e-15 7.9874e-44 -9.47943e-32 5.84639 2.93324e-28 3.52001e-15 0.188818 -3.15544e-30 1.16403e-16)
(-3.33549e-15 -2.96251e-30 0 5.84639 -3.92663e-15 4.84087e-15 0.188818 1.209e-15 1.11356e-15)
(0 8.72466e-30 0 5.66753 9.6841e-16 3.51468e-15 0.186485 -2.42285e-17 1.16351e-16)
(0 -1.16329e-29 0 5.66753 -3.65397e-15 4.81427e-15 0.186485 1.20154e-15 1.1512e-15)
(1.75581e-15 -2.33619e-30 3.88981e-32 5.49566 1.16367e-15 3.51449e-15 0.184231 -4.00494e-17 1.20777e-16)
(-1.40465e-14 0 0 5.49566 -4.65073e-15 4.90432e-15 0.184231 1.18452e-15 1.18535e-15)
(1.76889e-15 -1.07415e-29 3.47094e-32 5.33046 6.61437e-16 3.59837e-15 0.182053 -3.84365e-17 1.26553e-16)
(0 8.40784e-30 0 5.33046 -2.75822e-15 5.21055e-15 0.182053 1.15008e-15 1.2244e-15)
(0 -1.65075e-29 1.37563e-30 5.17159 -8.91723e-16 3.60166e-15 0.179948 -6.9854e-17 1.25561e-16)
(7.12727e-15 1.65075e-29 -1.37563e-30 5.17159 -5.03884e-17 5.29831e-15 0.179948 1.15645e-15 1.27067e-15)
(1.79459e-15 -5.03196e-30 7.02271e-31 5.01876 -1.87501e-15 3.64611e-15 0.177914 -6.37943e-17 1.34521e-16)
(7.17835e-15 5.40168e-30 0 5.01876 -4.1578e-16 5.17634e-15 0.177914 1.18753e-15 1.31653e-15)
(8.63317e-16 -8.24187e-30 1.94382e-30 4.87169 -1.96675e-16 3.87473e-15 0.175946 -3.57161e-18 1.47054e-16)
(-1.49258e-15 1.32567e-29 -1.32567e-30 4.87169 -3.19428e-15 5.3701e-15 0.175946 1.18924e-15 1.3588e-15)
(-7.08906e-16 0 1.25771e-30 4.73009 1.26119e-28 3.81905e-15 0.174043 -3.15544e-30 1.35431e-16)
(7.27871e-15 1.56166e-29 0 4.73009 -3.62777e-15 5.67914e-15 0.174043 1.1788e-15 1.40813e-15)
(1.83201e-15 -1.76528e-29 1.64125e-32 4.59373 1.94759e-15 3.88753e-15 0.172201 -4.33089e-17 1.57806e-16)
(1.46561e-14 1.53304e-29 0 4.59373 -3.61913e-15 5.74075e-15 0.172201 1.20186e-15 1.4596e-15)
(9.79828e-16 -5.21227e-30 -1.50788e-32 4.46235 3.11136e-15 4.11841e-15 0.170419 -1.04056e-16 1.58428e-16)
(-2.82403e-15 1.0033e-29 0 4.46235 -6.4858e-15 5.8377e-15 0.170419 1.17446e-15 1.51046e-15)
(-3.71254e-15 2.15004e-30 -2.68356e-32 4.33572 3.23807e-15 4.05608e-15 0.168694 -1.35134e-16 1.58831e-16)
(7.42508e-15 2.46228e-30 0 4.33572 -6.45167e-15 5.95958e-15 0.168694 1.11411e-15 1.55655e-15)
(-1.86821e-15 -1.1292e-31 -9.65752e-33 4.21365 4.46008e-15 4.1804e-15 0.167023 -1.17981e-16 1.74396e-16)
(7.47283e-15 7.25149e-30 0 4.21365 -5.2711e-15 5.90941e-15 0.167023 1.08288e-15 1.60596e-15)
(0 1.18643e-29 -1.18643e-30 4.09591 4.74818e-15 4.10316e-15 0.165405 -2.38501e-16 1.58488e-16)
(-2.67161e-15 -4.74574e-30 0 4.09591 -4.62141e-15 5.8927e-15 0.165405 1.01838e-15 1.64998e-15)
(-7.3094e-16 -1.16047e-29 5.93674e-33 3.98231 2.41693e-15 4.00423e-15 0.163837 -1.46028e-16 1.72712e-16)
(1.01895e-14 9.31755e-30 0 3.98231 -2.58834e-15 6.15914e-15 0.163837 9.66703e-16 1.70074e-15)
(1.9033e-15 -1.37324e-29 1.14748e-30 3.87268 6.985e-16 4.11959e-15 0.162318 -5.29422e-17 1.74268e-16)
(7.61319e-15 1.14335e-29 -1.14335e-30 3.87268 -2.05715e-15 6.21479e-15 0.162318 9.5478e-16 1.7565e-15)
(-1.91476e-15 2.30634e-30 -5.59211e-34 3.76684 1.09494e-17 4.20728e-15 0.160845 -5.4484e-18 1.86813e-16)
(7.65906e-15 4.4896e-30 0 3.76684 -2.71127e-15 6.17671e-15 0.160845 9.5486e-16 1.80601e-15)
(1.92612e-15 -4.62392e-30 1.10183e-30 3.66462 1.05806e-28 4.28341e-15 0.159417 0 1.81911e-16)
(0 6.61099e-30 -1.10183e-30 3.66462 -2.15153e-15 6.24284e-15 0.159417 9.41086e-16 1.78401e-15)
(4.98262e-16 1.31274e-29 -1.08164e-30 3.56587 4.7653e-16 4.28329e-15 0.158033 -2.1671e-17 1.72841e-16)
(5.31387e-15 -6.48985e-30 1.24476e-31 3.56587 -1.34104e-15 6.3957e-15 0.158033 9.55624e-16 1.69785e-15)
(1.94853e-15 -1.26963e-29 1.06182e-30 3.47045 9.14985e-16 4.40862e-15 0.15669 -2.0745e-17 1.67294e-16)
(0 8.49456e-30 -1.06182e-30 3.47045 -1.60715e-15 6.62324e-15 0.15669 9.64648e-16 1.5958e-15)
(-1.95958e-15 1.06364e-29 0 3.3782 1.78002e-15 4.47799e-15 0.155386 -7.20556e-17 1.68431e-16)
(5.49114e-15 -4.16945e-30 -7.31262e-31 3.3782 -1.24961e-15 6.79799e-15 0.155386 9.2704e-16 1.49704e-15)
(4.27472e-15 1.8017e-30 -1.02326e-30 3.289 2.07915e-15 4.50012e-15 0.154122 -9.25772e-17 1.70531e-16)
(5.57798e-15 0 4.16124e-31 3.289 -1.7902e-16 6.78515e-15 0.154122 9.48123e-16 1.38131e-15)
(0 6.02707e-30 0 3.20273 2.28491e-15 4.53849e-15 0.152894 -1.03184e-16 1.69705e-16)
(7.92562e-15 -2.00902e-30 5.09941e-31 3.20273 -1.41711e-15 6.64125e-15 0.152894 9.85107e-16 1.28216e-15)
(0 7.88883e-30 -9.86104e-31 3.11926 2.91938e-15 4.7385e-15 0.151702 -1.15975e-16 1.69369e-16)
(-7.96872e-15 -3.94441e-30 -1.59525e-30 3.11926 -2.85736e-15 6.93619e-15 0.151702 9.34278e-16 1.1797e-15)
(0 1.54885e-29 0 3.03848 2.56999e-15 4.65239e-15 0.150544 -1.69609e-16 1.78693e-16)
(8.01147e-15 -1.54885e-29 7.21323e-31 3.03848 -2.67819e-15 7.23965e-15 0.150544 9.15365e-16 1.06745e-15)
(-2.01347e-15 -1.29336e-29 9.50295e-31 2.96027 1.64857e-15 4.62628e-15 0.14942 -8.52643e-17 1.78508e-16)
(0 1.52047e-29 -9.50295e-31 2.96027 -3.60466e-15 7.25357e-15 0.14942 9.02557e-16 9.22024e-16)
(-2.02399e-15 6.00272e-30 0 2.88454 1.84432e-15 4.69958e-15 0.148327 -8.1758e-17 1.85496e-16)
(8.09595e-15 0 9.65742e-31 2.88454 -4.29761e-15 7.09861e-15 0.148327 8.32998e-16 8.01452e-16)
(2.06217e-15 -3.66314e-30 9.15786e-31 2.8112 2.27313e-15 4.69671e-15 0.147265 -1.08872e-16 1.87286e-16)
(0 7.32629e-30 0 2.8112 -2.63766e-15 7.19917e-15 0.147265 8.04595e-16 6.74323e-16)
(0 7.19204e-30 0 2.74013 1.67063e-15 4.52546e-15 0.146233 -1.3035e-16 2.00327e-16)
(0 -3.59602e-30 -8.99004e-31 2.74013 -2.18262e-15 7.56227e-15 0.146233 8.21688e-16 5.38231e-16)
(4.04236e-15 -1.63893e-29 8.82531e-31 2.67126 1.0369e-15 4.65008e-15 0.14523 -4.78362e-17 2.02858e-16)
(8.2203e-15 1.41205e-29 4.54528e-31 2.67126 -2.42237e-15 7.67286e-15 0.14523 7.92285e-16 4.2263e-16)
(-1.83644e-15 3.29475e-30 -1.73272e-30 2.60451 2.35598e-15 5.08602e-15 0.144254 -6.54672e-17 2.2603e-16)
(8.26115e-15 0 1.38803e-30 2.60451 -2.98753e-15 7.72773e-15 0.144254 7.86125e-16 4.36441e-16)
(0 0 0 2.53978 3.64858e-15 4.96632e-15 0.143305 -2.51893e-16 2.4514e-16)
(8.30172e-15 3.40193e-30 1.44699e-30 2.53978 -4.76502e-15 7.83792e-15 0.143305 7.56364e-16 4.51149e-16)
(-4.171e-15 4.48484e-30 -2.96273e-32 2.477 3.07356e-15 3.83445e-15 0.142382 -1.60373e-16 1.61227e-16)
(8.34201e-15 0 1.50744e-30 2.477 -5.22344e-15 7.89527e-15 0.142382 7.27716e-16 4.59564e-16)
(2.09551e-15 -1.86193e-29 0 2.41611 4.19673e-15 1.39084e-15 0.141484 -1.94445e-16 2.61398e-16)
(8.38202e-15 1.6392e-29 1.56483e-30 2.41611 -5.26143e-15 7.97346e-15 0.141484 6.78439e-16 4.77421e-16)
(-3.62351e-15 1.60916e-29 1.60916e-30 2.35702 4.90899e-15 -9.16888e-17 0.14061 -2.99611e-16 2.18062e-16)
(-4.79827e-15 -1.60916e-29 -3.22962e-30 2.35702 -6.99727e-15 8.17096e-15 0.14061 6.09468e-16 5.0074e-16)
(0 3.15934e-30 0 2.29968 4.44141e-15 -2.7366e-16 0.139759 -2.87815e-16 1.70693e-16)
(0 -3.15934e-30 -1.57967e-30 2.29968 -6.89262e-15 8.36029e-15 0.139759 4.68974e-16 5.18709e-16)
(-7.74219e-15 1.98808e-29 0 2.24402 3.54725e-15 -3.94589e-16 0.13893 -2.53362e-16 1.23755e-16)
(3.49192e-15 -1.55073e-29 0 2.24402 -4.92602e-15 8.22625e-15 0.13893 4.06199e-16 5.02806e-16)
(-5.56282e-15 5.23365e-30 0 2.18997 5.2171e-15 -5.85336e-17 0.138123 -1.86573e-16 7.36439e-17)
(0 0 -1.52231e-30 2.18997 -6.25662e-15 8.22358e-15 0.138123 3.60783e-16 5.37915e-16)
(-3.36512e-15 1.49441e-29 -1.49441e-30 2.13748 8.49565e-15 -1.16549e-16 0.137338 -4.7614e-16 4.28716e-17)
(-5.21319e-15 -1.19553e-29 -1.8872e-30 2.13748 -8.36007e-15 8.50212e-15 0.137338 1.85038e-16 5.57984e-16)
(4.30843e-15 -1.25477e-30 0 2.08649 8.84723e-15 -4.59362e-16 0.136572 -6.20071e-16 -7.37132e-18)
(0 -2.93406e-30 -1.46703e-30 2.08649 -7.84226e-15 8.80734e-15 0.136572 -9.89398e-18 5.98628e-16)
(1.08467e-15 7.35092e-30 -1.44015e-30 2.03696 7.72863e-15 -3.03823e-16 0.135826 -5.40668e-16 -4.55259e-17)
(8.65518e-15 -1.44015e-29 2.05642e-30 2.03696 -5.97723e-15 8.6709e-15 0.135826 -1.23912e-16 5.60594e-16)
(-2.17332e-15 2.07056e-30 0 1.98882 6.82321e-15 -2.88508e-16 0.135099 -4.92448e-16 -9.71415e-17)
(8.69328e-15 0 2.13281e-30 1.98882 -6.71581e-15 8.31412e-15 0.135099 -2.2699e-16 5.72129e-16)
(4.36558e-15 1.43076e-30 0 1.94203 6.63008e-15 -4.14206e-16 0.134391 -4.36547e-16 -1.50989e-16)
(0 -2.7757e-30 -1.38785e-30 1.94203 -6.83115e-15 8.46358e-15 0.134391 -3.86487e-16 6.02651e-16)
(2.19221e-15 -4.76233e-30 0 1.89654 6.54125e-15 -5.30019e-16 0.1337 -4.83953e-16 -2.0303e-16)
(8.76885e-15 2.72483e-30 2.39084e-30 1.89654 -5.80949e-15 7.06272e-15 0.1337 -5.00699e-16 3.93812e-16)
(-2.20158e-15 1.00515e-29 0 1.85231 6.51763e-15 -5.4906e-16 0.133026 -4.40323e-16 -2.48177e-16)
(-3.01167e-15 -5.3498e-30 0 1.85231 -6.4553e-15 5.3652e-16 0.133026 -6.19375e-16 1.93147e-17)
(0 -2.62588e-30 -1.31294e-30 1.80929 7.84714e-15 -3.16159e-16 0.132369 -4.98755e-16 -2.92856e-16)
(1.76872e-14 5.25177e-30 5.30758e-30 1.80929 -7.19722e-15 3.32561e-16 0.132369 -7.2443e-16 2.95628e-17)
(-2.22018e-15 -1.09258e-29 -3.86665e-30 1.76745 8.73169e-15 -3.83671e-16 0.131728 -6.5376e-16 -3.28588e-16)
(0 1.28888e-29 2.57777e-30 1.76745 -7.04511e-15 6.40007e-16 0.131728 -8.55341e-16 6.64118e-17)
(-2.84912e-15 -1.01221e-29 -2.53053e-30 1.72674 7.21973e-15 -6.2481e-16 0.131103 -6.50958e-16 -3.92421e-16)
(1.78353e-14 1.01221e-29 7.85398e-30 1.72674 -5.57303e-15 7.10685e-16 0.131103 -9.87646e-16 4.15355e-17)
(-2.23859e-15 9.40776e-30 2.48416e-30 1.68712 4.88876e-15 -6.17972e-16 0.130492 -4.46103e-16 -4.52839e-16)
(0 -7.45248e-30 -2.48416e-30 1.68712 -5.78626e-15 3.97516e-16 0.130492 -1.02956e-15 1.99021e-17)
(0 -2.43864e-30 0 1.64857 4.95092e-15 -6.9882e-16 0.129896 -3.10681e-16 -5.18841e-16)
(8.99091e-15 2.43864e-30 -7.00649e-46 1.64857 -6.78598e-15 -1.2326e-32 0.129896 -1.16586e-15 0)
(2.25682e-15 -1.38877e-29 -2.39395e-30 1.61104 7.07204e-15 -2.86579e-16 0.129314 -4.72823e-16 -5.71739e-16)
(1.80546e-14 1.19697e-29 7.77325e-30 1.61104 -7.04504e-15 5.20502e-17 0.129314 -1.29768e-15 1.86094e-17)
(-2.26587e-15 1.8674e-30 0 1.5745 7.80757e-15 4.33958e-16 0.128746 -6.66861e-16 -5.98884e-16)
(9.06349e-15 4.70016e-30 2.69151e-30 1.5745 -6.05029e-15 3.10946e-16 0.128746 -1.41311e-15 3.24841e-17)
(-3.22587e-16 9.67928e-30 -1.15351e-30 1.53892 6.69173e-15 4.96472e-16 0.128191 -6.12321e-16 -6.27342e-16)
(9.09953e-15 -4.61403e-30 7.35682e-45 1.53892 -3.04468e-15 1.35103e-29 0.128191 -1.47199e-15 2.67187e-46)
(-7.11758e-15 8.23873e-30 0 1.50426 5.86577e-15 6.79212e-16 0.127648 -5.03947e-16 -6.75261e-16)
(9.13541e-15 -2.26474e-30 4.50249e-31 1.50426 -1.73143e-15 -9.05233e-18 0.127648 -1.46891e-15 3.84904e-19)
(-2.50315e-15 -2.22324e-30 -3.33486e-30 1.4705 5.42442e-15 9.88001e-16 0.127118 -4.93605e-16 -6.91178e-16)
(1.83423e-14 6.66972e-30 7.57951e-30 1.4705 -9.1632e-16 2.93307e-16 0.127118 -1.54215e-15 6.41612e-17)
(0 4.365e-30 0 1.43762 3.25633e-15 6.07576e-16 0.1266 -4.45756e-16 -7.25817e-16)
(6.74943e-15 0 0 1.43762 -3.76575e-16 0 0.1266 -1.53788e-15 7.88861e-31)
(-2.31053e-15 8.31328e-30 0 1.40557 2.01681e-15 3.68336e-16 0.126093 -1.25991e-16 -7.58773e-16)
(-2.41225e-15 -2.14251e-30 0 1.40557 -1.46395e-15 -2.65774e-16 0.126093 -1.51008e-15 1.19454e-17)
(4.68739e-15 6.5521e-30 0 1.37434 3.66077e-15 2.05026e-16 0.125597 -2.37629e-16 -7.67106e-16)
(-2.36804e-15 -1.05162e-29 -2.10325e-30 1.37434 -2.16645e-15 -7.15301e-16 0.125597 -1.53435e-15 7.20021e-17)
(0 4.12941e-30 0 1.3439 4.42386e-15 2.27535e-16 0.125112 -4.34621e-16 -7.88195e-16)
(0 0 0 1.3439 -1.62699e-15 -8.76362e-16 0.125112 -1.59776e-15 5.8876e-17)
(-2.33688e-15 1.1944e-29 4.05374e-30 1.31422 4.19191e-15 2.26827e-17 0.124637 -3.90272e-16 -7.85015e-16)
(0 -8.10748e-30 -4.05374e-30 1.31422 -2.07282e-15 -1.14308e-15 0.124637 -1.63554e-15 1.05043e-16)
(-1.05358e-16 5.78005e-30 0 1.28528 4.11721e-15 -4.93607e-16 0.124173 -4.06507e-16 -8.1481e-16)
(-1.16226e-14 0 -4.61837e-30 1.28528 -2.6835e-15 -1.30927e-15 0.124173 -1.75655e-15 1.12254e-16)
(-2.35427e-15 -2.11475e-30 -1.95327e-30 1.25707 4.25634e-15 -3.10641e-16 0.123718 -3.90384e-16 -8.44738e-16)
(1.88342e-14 7.81307e-30 7.18135e-30 1.25707 -2.01466e-15 -8.63899e-16 0.123718 -1.81091e-15 1.41474e-16)
(0 -7.6699e-30 -1.91747e-30 1.22954 3.22748e-15 -1.00713e-16 0.123272 -4.49518e-16 -8.86672e-16)
(9.45167e-15 7.6699e-30 4.60096e-30 1.22954 -2.61376e-15 -4.18174e-16 0.123272 -1.88765e-15 2.78372e-17)
(-2.37153e-15 9.32306e-30 0 1.2027 2.06106e-15 -3.67235e-16 0.122835 -1.96486e-16 -9.36803e-16)
(7.36681e-15 -3.76467e-30 7.85772e-31 1.2027 -2.47024e-15 -1.07854e-15 0.122835 -2.03798e-15 5.64307e-17)
(0 3.69569e-30 0 1.17651 2.91269e-15 -6.31983e-16 0.122407 -2.25541e-16 -9.62534e-16)
(9.52046e-15 0 2.58718e-30 1.17651 -2.04984e-15 -1.52476e-15 0.122407 -2.069e-15 1.6528e-16)
(-2.38867e-15 -5.51471e-30 -1.81398e-30 1.15096 3.8392e-15 -5.88354e-16 0.121987 -3.83071e-16 -9.76388e-16)
(9.55467e-15 7.25593e-30 4.39371e-30 1.15096 -2.37867e-15 -1.26994e-15 0.121987 -2.13833e-15 1.5244e-16)
(-4.00987e-15 -7.12297e-30 -1.78074e-30 1.12602 3.98478e-15 -6.55662e-16 0.121575 -4.32613e-16 -1.00036e-15)
(1.35986e-14 7.12297e-30 4.37347e-30 1.12602 -3.00671e-15 -1.29519e-15 0.121575 -2.22871e-15 1.16893e-16)
(-2.40568e-15 1.72477e-30 0 1.10168 4.18582e-15 -1.01286e-15 0.12117 -4.2929e-16 -1.03681e-15)
(0 3.49622e-30 0 1.10168 -4.48606e-15 -1.48465e-15 0.12117 -2.34305e-15 1.63697e-16)
(-2.41414e-15 1.70739e-30 -1.71608e-30 1.07792 4.26682e-15 -1.24357e-15 0.120773 -4.93625e-16 -1.09394e-15)
(0 3.43215e-30 1.71608e-30 1.07792 -3.90321e-15 -1.46233e-15 0.120773 -2.52356e-15 1.63435e-16)