/*--------------------------------*- C++ -*----------------------------------*\
| =========                 |                                                 |
| \\      /  F ield         | OpenFOAM: The Open Source CFD Toolbox           |
|  \\    /   O peration     | Version:  2106                                  |
|   \\  /    A nd           | Website:  www.openfoam.com                      |
|    \\/     M anipulation  |                                                 |
\*---------------------------------------------------------------------------*/
FoamFile
{
    version     2.0;
    format      ascii;
    arch        "LSB;label=32;scalar=64";
    class       volVectorField;
    location    "10080";
    object      grad(T);
}
// * * * * * * * * * * * * * * * * * * * * * * * * * * * * * * * * * * * * * //

dimensions      [0 -1 0 1 0 0 0];

internalField   nonuniform List<vector> 
2000
(
(0 455.644 0.843231)
(0 455.644 0.843231)
(8.98622e-16 455.643 2.54543)
(-8.98622e-16 455.643 2.54543)
(-1.0363e-16 455.642 3.53267)
(0 455.642 3.53267)
(-3.3961e-16 455.64 3.5986)
(1.35844e-15 455.64 3.5986)
(0 455.638 3.66575)
(0 455.638 3.66575)
(1.66909e-15 455.634 3.73414)
(-4.96854e-15 455.634 3.73414)
(0 455.629 3.80379)
(4.29723e-15 455.629 3.80379)
(0 455.621 3.87471)
(1.06272e-14 455.621 3.87471)
(-1.58725e-15 455.609 3.94691)
(0 455.609 3.94691)
(0 455.591 4.0204)
(3.10013e-15 455.591 4.0204)
(6.08665e-15 455.564 4.09516)
(0 455.564 4.09516)
(2.39313e-15 455.523 4.17116)
(9.57251e-15 455.523 4.17116)
(0 455.464 4.24836)
(0 455.464 4.24836)
(-8.7139e-15 455.377 4.32669)
(0 455.377 4.32669)
(-3.24498e-15 455.254 4.40606)
(-5.65262e-15 455.254 4.40606)
(9.0886e-15 455.081 4.48632)
(-1.41583e-14 455.081 4.48632)
(0 454.842 4.56729)
(0 454.842 4.56729)
(8.2905e-15 454.518 4.64873)
(2.19285e-14 454.518 4.64873)
(-4.4565e-15 454.083 4.73033)
(-5.24954e-15 454.083 4.73033)
(4.77343e-15 453.509 4.81172)
(1.90937e-14 453.509 4.81172)
(-5.09611e-15 452.763 4.89243)
(4.07689e-14 452.763 4.89243)
(9.93241e-15 451.804 4.97192)
(1.17658e-14 451.804 4.97192)
(0 450.591 5.04954)
(3.27855e-14 450.591 5.04954)
(0 449.073 5.12458)
(1.48233e-14 449.073 5.12458)
(-1.58407e-14 447.201 5.19621)
(9.39633e-15 447.201 5.19622)
(0 444.921 5.26358)
(2.71824e-14 444.921 5.26358)
(-7.15222e-15 442.18 5.32576)
(0 442.18 5.32576)
(-7.51399e-15 438.927 5.38182)
(0 438.927 5.38182)
(0 435.115 5.43085)
(-8.72629e-15 435.115 5.43085)
(-1.68181e-14 430.707 5.47198)
(-3.3007e-14 430.707 5.47198)
(8.62694e-15 425.672 5.50447)
(2.60983e-14 425.672 5.50447)
(0 419.997 5.52771)
(0 419.997 5.52771)
(-9.38735e-15 413.678 5.54124)
(0 413.678 5.54124)
(-9.77135e-15 406.728 5.54482)
(0 406.728 5.54482)
(0 399.176 5.5384)
(4.0628e-14 399.176 5.5384)
(1.53333e-14 391.064 5.52215)
(-1.53333e-14 391.064 5.52215)
(1.09303e-14 382.444 5.49644)
(2.86689e-14 382.444 5.49644)
(-1.13165e-14 373.382 5.46179)
(4.5266e-14 373.382 5.46179)
(-4.07128e-14 363.948 5.41887)
(2.90114e-14 363.948 5.41887)
(1.42399e-14 354.217 5.36847)
(3.40979e-14 354.217 5.36847)
(-1.09508e-14 344.265 5.31144)
(3.58805e-14 344.265 5.31144)
(0 334.167 5.24867)
(0 334.167 5.24867)
(0 323.995 5.18104)
(1.34713e-14 323.995 5.18104)
(-1.35852e-14 313.812 5.10942)
(-8.07896e-14 313.812 5.10942)
(1.39501e-14 303.681 5.03465)
(4.28182e-14 303.681 5.03465)
(1.43101e-14 293.652 4.9575)
(-5.72406e-14 293.652 4.9575)
(-1.46651e-14 283.771 4.87866)
(5.86603e-14 283.771 4.87866)
(0 274.077 4.79877)
(1.20117e-13 274.077 4.79877)
(1.53588e-14 264.599 4.71839)
(8.55481e-14 264.599 4.71839)
(-1.56974e-14 255.363 4.63799)
(-6.27895e-14 255.363 4.63799)
(0 246.386 4.558)
(0 246.386 4.558)
(-1.63576e-14 237.684 4.47877)
(0 237.684 4.47877)
(0 229.263 4.40057)
(0 229.263 4.40057)
(0 221.131 4.32366)
(-6.79809e-14 221.131 4.32366)
(1.73057e-14 213.288 4.24822)
(-2.15801e-14 213.288 4.24822)
(-1.76107e-14 205.734 4.17441)
(0 205.734 4.17441)
(-3.58208e-14 198.465 4.10232)
(9.24381e-14 198.465 4.10232)
(-1.82048e-14 191.477 4.03206)
(0 191.477 4.03206)
(-1.69469e-14 184.764 3.96366)
(-9.40176e-14 184.764 3.96366)
(3.84524e-14 178.319 3.89718)
(-9.47874e-14 178.319 3.89718)
(0 172.133 3.83262)
(0 172.133 3.83262)
(-5.76243e-14 166.198 3.76999)
(1.73618e-13 166.198 3.76999)
(-1.96024e-14 160.505 3.70927)
(7.84095e-14 160.505 3.70927)
(1.82711e-14 155.045 3.65044)
(0 155.045 3.65044)
(-3.80654e-14 149.809 3.59347)
(8.05165e-14 149.809 3.59347)
(0 144.788 3.53834)
(-1.76076e-14 144.788 3.53834)
(-2.06391e-14 139.972 3.48499)
(0 139.972 3.48499)
(0 135.354 3.43338)
(0 135.354 3.43338)
(0 130.923 3.38347)
(8.45328e-14 130.923 3.38347)
(0 126.673 3.3352)
(0 126.673 3.3352)
(-2.16126e-14 122.595 3.28853)
(8.64503e-14 122.595 3.28853)
(0 118.68 3.2434)
(8.73881e-14 118.68 3.2434)
(8.86085e-15 114.922 3.19977)
(-1.19252e-13 114.922 3.19977)
(0 111.313 3.15759)
(-5.88521e-14 111.313 3.15759)
(-4.50616e-14 107.847 3.11679)
(9.01232e-14 107.847 3.11679)
(-4.55051e-14 104.517 3.07735)
(0 104.517 3.07735)
(0 101.316 3.0392)
(9.18854e-14 101.316 3.0392)
(5.01889e-15 98.2392 3.0023)
(-1.49162e-13 98.2392 3.0023)
(2.34006e-14 95.2801 2.96661)
(0 95.2801 2.96661)
(2.36113e-14 92.4336 2.93208)
(-9.44452e-14 92.4336 2.93208)
(-4.76388e-14 89.6945 2.89867)
(0 89.6945 2.89867)
(0 87.058 2.86633)
(0 87.058 2.86633)
(2.42282e-14 84.5192 2.83503)
(-2.45256e-13 84.5192 2.83503)
(-2.60582e-14 82.074 2.80474)
(5.04874e-14 82.074 2.80474)
(0 79.7179 2.7754)
(9.85114e-14 79.7179 2.7754)
(2.48244e-14 77.4472 2.74699)
(9.92975e-14 77.4472 2.74699)
(-2.61564e-14 75.2579 2.71947)
(0 75.2579 2.71947)
(-2.69788e-14 73.1465 2.69281)
(1.00845e-13 73.1465 2.69281)
(2.38765e-15 71.1097 2.66698)
(2.26227e-13 71.1097 2.66698)
(-2.55902e-14 69.144 2.64194)
(0 69.144 2.64194)
(-5.15537e-14 67.2466 2.61767)
(1.03107e-13 67.2466 2.61767)
(-2.59618e-14 65.4144 2.59415)
(1.03847e-13 65.4144 2.59415)
(-2.13729e-14 63.6447 2.57133)
(-4.27458e-14 63.6447 2.57133)
(2.63264e-14 61.9348 2.54921)
(1.05306e-13 61.9348 2.54921)
(2.65063e-14 60.2822 2.52775)
(1.06025e-13 60.2822 2.52775)
(-2.66846e-14 58.6846 2.50692)
(1.06738e-13 58.6846 2.50692)
(2.68613e-14 57.1397 2.48672)
(0 57.1397 2.48672)
(-2.70366e-14 55.6454 2.4671)
(6.91762e-14 55.6454 2.4671)
(2.72104e-14 54.1994 2.44807)
(0 54.1994 2.44807)
(-2.73829e-14 52.8001 2.42959)
(7.19764e-14 52.8001 2.42959)
(2.7554e-14 51.4454 2.41164)
(7.33489e-14 51.4454 2.41164)
(0 50.1335 2.39421)
(1.10895e-13 50.1335 2.39421)
(0 48.8629 2.37728)
(-1.11569e-13 48.8629 2.37728)
(0 47.6319 2.36083)
(1.12238e-13 47.6319 2.36083)
(-2.82255e-14 46.439 2.34484)
(0 46.439 2.34484)
(-2.83903e-14 45.2827 2.32931)
(1.13561e-13 45.2827 2.32931)
(3.29947e-14 44.1615 2.31421)
(0 44.1615 2.31421)
(0 43.0743 2.29954)
(-3.23901e-14 43.0743 2.29954)
(2.88782e-14 42.0196 2.28527)
(1.15513e-13 42.0196 2.28527)
(-2.17514e-15 40.9964 2.27139)
(8.4941e-14 40.9964 2.27139)
(0 40.0034 2.2579)
(1.16793e-13 40.0034 2.2579)
(-5.87134e-14 39.0395 2.24477)
(1.17427e-13 39.0395 2.24477)
(2.95142e-14 38.1037 2.232)
(1.18057e-13 38.1037 2.232)
(0 37.195 2.21958)
(-1.18683e-13 37.195 2.21958)
(2.84568e-14 36.3123 2.20749)
(-2.84568e-14 36.3123 2.20749)
(-5.99627e-14 35.4548 2.19573)
(0 35.4548 2.19573)
(-3.01353e-14 34.6216 2.18428)
(0 34.6216 2.18428)
(0 33.8118 2.17313)
(-1.74995e-13 33.8118 2.17313)
(6.08814e-14 33.0246 2.16228)
(0 33.0246 2.16228)
(9.29767e-15 32.2592 2.15171)
(1.22369e-13 32.2592 2.15171)
(-3.07429e-14 31.515 2.14142)
(1.22972e-13 31.515 2.14142)
(1.11788e-13 30.7911 2.1314)
(-5.00025e-14 30.7911 2.1314)
(3.10422e-14 30.0869 2.12163)
(1.24169e-13 30.0869 2.12163)
(-3.11907e-14 29.4017 2.11212)
(-4.81867e-14 29.4017 2.11212)
(-4.73037e-14 28.7348 2.10285)
(2.50708e-13 28.7348 2.10285)
(-7.79226e-14 28.0858 2.09382)
(0 28.0858 2.09382)
(-4.5586e-14 27.454 2.08502)
(2.98644e-13 27.454 2.08502)
(1.29725e-14 26.8388 2.07644)
(-4.47506e-14 26.8388 2.07644)
(0 26.2397 2.06808)
(1.27693e-13 26.2397 2.06808)
(3.2068e-14 25.6562 2.05992)
(2.56544e-13 25.6562 2.05992)
(-3.2212e-14 25.0877 2.05197)
(1.28848e-13 25.0877 2.05197)
(-9.20407e-15 24.5339 2.04421)
(1.29422e-13 24.5339 2.04421)
(-6.49967e-14 23.9942 2.03664)
(8.91954e-14 23.9942 2.03664)
(-8.01007e-14 23.4682 2.02926)
(2.61126e-13 23.4682 2.02926)
(0 22.9555 2.02206)
(1.3113e-13 22.9555 2.02206)
(-3.29238e-14 22.4557 2.01502)
(-3.8596e-14 22.4557 2.01502)
(3.30646e-14 21.9683 2.00816)
(0 21.9683 2.00816)
(0 21.493 2.00146)
(-3.71944e-14 21.493 2.00146)
(-3.33446e-14 21.0294 1.99491)
(-3.65128e-14 21.0294 1.99491)
(2.35982e-15 20.5772 1.98851)
(-1.69779e-13 20.5772 1.98851)
(-6.88097e-14 20.136 1.98226)
(3.04169e-13 20.136 1.98226)
(-3.45421e-14 19.7055 1.97616)
(1.69587e-13 19.7055 1.97616)
(-3.38991e-14 19.2854 1.97019)
(1.35597e-13 19.2854 1.97019)
(0 18.8753 1.96435)
(1.02859e-13 18.8753 1.96435)
(-6.68515e-14 18.475 1.95864)
(1.69373e-13 18.475 1.95864)
(0 18.0842 1.95305)
(1.37242e-13 18.0842 1.95305)
(-3.44467e-14 17.7027 1.94758)
(0 17.7027 1.94758)
(-3.45826e-14 17.33 1.94222)
(0 17.33 1.94222)
(-6.50657e-14 16.9661 1.93698)
(0 16.9661 1.93698)
(5.06172e-15 16.6106 1.93183)
(-1.69204e-13 16.6106 1.93183)
(2.92456e-14 16.2633 1.92679)
(-2.92456e-14 16.2633 1.92679)
(0 15.9239 1.92185)
(0 15.9239 1.92185)
(9.16235e-14 15.5923 1.91699)
(0 15.5923 1.91699)
(-3.539e-14 15.2682 1.91223)
(1.4156e-13 15.2682 1.91223)
(-3.55234e-14 14.9515 1.90754)
(1.42094e-13 14.9515 1.90754)
(1.76684e-14 14.6418 1.90294)
(-5.33248e-14 14.6418 1.90294)
(0 14.339 1.89841)
(1.43156e-13 14.339 1.89841)
(1.5467e-14 14.043 1.89395)
(-1.95074e-13 14.043 1.89395)
(3.60534e-14 13.7535 1.88956)
(1.44214e-13 13.7535 1.88956)
(3.61851e-14 13.4704 1.88524)
(1.94263e-13 13.4704 1.88524)
(3.63166e-14 13.1934 1.88097)
(0 13.1934 1.88097)
(0 12.9224 1.87675)
(1.45791e-13 12.9224 1.87675)
(-3.65785e-14 12.6573 1.87258)
(0 12.6573 1.87258)
(0 12.3979 1.86846)
(1.46836e-13 12.3979 1.86846)
(-3.68392e-14 12.1441 1.86438)
(0 12.1441 1.86438)
(0 11.8956 1.86033)
(0 11.8956 1.86033)
(4.35087e-14 11.6523 1.85632)
(1.48395e-13 11.6523 1.85632)
(0 11.4142 1.85233)
(1.48912e-13 11.4142 1.85233)
(-3.73572e-14 11.181 1.84837)
(0 11.181 1.84837)
(-3.7486e-14 10.9526 1.84442)
(0 10.9526 1.84442)
(-3.76145e-14 10.729 1.84049)
(0 10.729 1.84049)
(3.58199e-14 10.5099 1.83656)
(1.50971e-13 10.5099 1.83656)
(-7.46735e-14 10.2953 1.83264)
(1.51483e-13 10.2953 1.83264)
(-3.82253e-14 10.085 1.82872)
(1.51994e-13 10.085 1.82872)
(-3.81259e-14 9.87898 1.82478)
(0 9.87898 1.82478)
(-1.11928e-13 9.67703 1.82084)
(3.68372e-14 9.67703 1.82084)
(0 9.47909 1.81687)
(0 9.47909 1.81687)
(0 9.28504 1.81288)
(1.54026e-13 9.28504 1.81288)
(-3.8633e-14 9.09477 1.80886)
(-1.54532e-13 9.09477 1.80886)
(0 8.9082 1.8048)
(0 8.9082 1.8048)
(-3.88848e-14 8.72522 1.8007)
(-3.44662e-13 8.72522 1.8007)
(-7.19785e-14 8.54573 1.79655)
(3.29681e-14 8.54573 1.79655)
(0 8.36964 1.79234)
(0 8.36964 1.79234)
(3.17709e-14 8.19686 1.78807)
(1.25271e-13 8.19686 1.78807)
(-7.87705e-14 8.02729 1.78373)
(3.15082e-13 8.02729 1.78373)
(0 7.86086 1.77931)
(1.58039e-13 7.86086 1.77931)
(-3.96337e-14 7.69748 1.7748)
(0 7.69748 1.7748)
(0 7.53705 1.77019)
(-1.5903e-13 7.53705 1.77019)
(-3.9881e-14 7.37951 1.76549)
(-5.79294e-14 7.37951 1.76549)
(0 7.22477 1.76067)
(1.60017e-13 7.22477 1.76067)
(0 7.07275 1.75573)
(1.60508e-13 7.07275 1.75573)
(4.02496e-14 6.92337 1.75065)
(3.21996e-13 6.92337 1.75065)
(4.03718e-14 6.77656 1.74544)
(1.61487e-13 6.77656 1.74544)
(0 6.63224 1.74007)
(1.61974e-13 6.63224 1.74007)
(9.24601e-14 6.49035 1.73454)
(1.62461e-13 6.49035 1.73454)
(-9.16312e-14 6.3508 1.72883)
(3.76785e-13 6.3508 1.72883)
(-4.08571e-14 6.21354 1.72293)
(-1.63428e-13 6.21354 1.72293)
(0 6.07847 1.71683)
(4.90467e-14 6.07847 1.71683)
(-4.10975e-14 5.94555 1.71051)
(-4.8148e-14 5.94555 1.71051)
(-8.24341e-14 5.8147 1.70396)
(-4.72657e-14 5.8147 1.70396)
(-4.13362e-14 5.68585 1.69717)
(1.65345e-13 5.68585 1.69717)
(0 5.55894 1.69012)
(0 5.55894 1.69012)
(-4.15733e-14 5.43389 1.68278)
(0 5.43389 1.68278)
(-4.38952e-14 5.31065 1.67515)
(-4.38952e-14 5.31065 1.67515)
(4.18084e-14 5.18915 1.6672)
(3.34468e-13 5.18915 1.6672)
(8.38506e-14 5.06932 1.65891)
(-1.67701e-13 5.06932 1.65891)
(8.40832e-14 4.95109 1.65026)
(0 4.95109 1.65026)
(8.43147e-14 4.8344 1.64123)
(3.37259e-13 4.8344 1.64123)
(8.22907e-14 4.71919 1.63179)
(1.29072e-13 4.71919 1.63179)
(4.23871e-14 4.60538 1.62192)
(1.30264e-13 4.60538 1.62192)
(-4.25011e-14 4.49291 1.61158)
(1.70004e-13 4.49291 1.61158)
(-4.26145e-14 4.38172 1.60075)
(0 4.38172 1.60075)
(0 4.27173 1.5894)
(2.08073e-13 4.27173 1.5894)
(-8.56781e-14 4.16287 1.57749)
(1.34873e-13 4.16287 1.57749)
(-4.29502e-14 4.05508 1.56497)
(0 4.05508 1.56497)
(0 3.94827 1.55183)
(3.44485e-13 3.94827 1.55183)
(0 3.84238 1.538)
(0 3.84238 1.538)
(4.3279e-14 3.73733 1.52344)
(-1.73116e-13 3.73733 1.52344)
(-2.31352e-14 3.63303 1.50811)
(6.6522e-14 3.63303 1.50811)
(-2.16844e-14 3.52941 1.49194)
(0 3.52941 1.49194)
(2.30929e-14 3.42638 1.47488)
(-6.41064e-14 3.42638 1.47488)
(0 3.32385 1.45687)
(1.74818e-13 3.32385 1.45687)
(0 3.22172 1.43783)
(1.75233e-13 3.22172 1.43783)
(4.39107e-14 3.11989 1.4177)
(1.75643e-13 3.11989 1.4177)
(0 3.01827 1.39638)
(-1.76048e-13 3.01827 1.39638)
(-4.41121e-14 2.91674 1.37378)
(0 2.91674 1.37378)
(-4.42108e-14 2.81518 1.34981)
(1.1947e-13 2.81518 1.34981)
(0 2.71347 1.32437)
(1.77232e-13 2.71347 1.32437)
(1.08861e-14 2.61147 1.29732)
(-1.77614e-13 2.61147 1.29732)
(1.53051e-13 2.50905 1.26854)
(2.47428e-13 2.50905 1.26854)
(1.06564e-13 2.40605 1.23789)
(7.17958e-14 2.40605 1.23789)
(-4.46803e-14 2.3023 1.20521)
(0 2.3023 1.20521)
(4.47688e-14 2.19764 1.17033)
(1.79075e-13 2.19764 1.17033)
(5.55096e-15 2.09187 1.13306)
(1.79421e-13 2.09187 1.13306)
(-4.49393e-14 1.9848 1.09319)
(1.79757e-13 1.9848 1.09319)
(9.71514e-14 1.87622 1.05051)
(0 1.87622 1.05051)
(4.51003e-14 1.76589 1.00476)
(0 1.76589 1.00476)
(-9.03538e-14 1.6536 0.955691)
(1.80708e-13 1.6536 0.955691)
(0 1.5391 0.903016)
(0 1.5391 0.903016)
(0 1.42214 0.846441)
(9.02237e-14 1.42214 0.846441)
(1.10299e-15 1.30249 0.785653)
(2.25838e-13 1.30249 0.785653)
(-4.54518e-14 1.17989 0.720335)
(1.81807e-13 1.17989 0.720335)
(-8.81885e-14 1.05414 0.650162)
(0 1.05414 0.650162)
(0 0.925036 0.57482)
(-8.379e-14 0.925036 0.57482)
(0 0.79243 0.494008)
(-1.82473e-13 0.79243 0.494008)
(3.50828e-14 0.656222 0.407455)
(-8.07473e-14 0.656222 0.407455)
(-6.07176e-15 0.516378 0.314929)
(1.82822e-13 0.516378 0.314929)
(0 0.372941 0.216251)
(1.82964e-13 0.372941 0.216251)
(-4.57707e-14 0.226037 0.111295)
(0 0.226037 0.111295)
(-4.57938e-14 7.33404e-07 2.71453e-07)
(3.66465e-13 4.75431e-07 1.7597e-07)
(0 455.644 -0.843231)
(-1.14425e-16 455.644 -0.843231)
(-4.49311e-16 455.643 -2.54543)
(0 455.643 -2.54543)
(-2.07261e-16 455.642 -3.53267)
(0 455.642 -3.53267)
(3.3961e-16 455.64 -3.5986)
(-8.6599e-16 455.64 -3.5986)
(-1.15999e-15 455.638 -3.66575)
(0 455.638 -3.66575)
(8.24865e-16 455.634 -3.73414)
(-1.66909e-15 455.634 -3.73414)
(1.6385e-15 455.629 -3.80379)
(-3.277e-15 455.629 -3.80379)
(5.87376e-15 455.621 -3.87471)
(-3.21695e-15 455.621 -3.87471)
(-4.74525e-15 455.609 -3.94691)
(6.34899e-15 455.609 -3.94691)
(1.85092e-15 455.591 -4.0204)
(-1.05038e-14 455.591 -4.0204)
(1.19571e-15 455.564 -4.09516)
(-8.47807e-15 455.564 -4.09516)
(5.38068e-15 455.523 -4.17116)
(-2.98756e-15 455.523 -4.17116)
(-2.67185e-15 455.464 -4.24836)
(-1.06874e-14 455.464 -4.24836)
(2.87907e-15 455.377 -4.32669)
(-1.47021e-14 455.377 -4.32669)
(3.24498e-15 455.254 -4.40606)
(-1.29799e-14 455.254 -4.40606)
(-5.54904e-15 455.081 -4.48632)
(0 455.081 -4.48632)
(3.83963e-15 454.842 -4.56729)
(-2.08059e-14 454.842 -4.56729)
(4.14525e-15 454.518 -4.64873)
(1.6581e-14 454.518 -4.64873)
(4.4565e-15 454.083 -4.73033)
(0 454.083 -4.73033)
(1.47002e-14 453.509 -4.81172)
(-5.15334e-15 453.509 -4.81172)
(5.09611e-15 452.763 -4.89243)
(1.02666e-14 452.763 -4.89243)
(5.42456e-15 451.804 -4.97192)
(2.16982e-14 451.804 -4.97192)
(-5.75878e-15 450.591 -5.04954)
(0 450.591 -5.04954)
(1.21975e-14 449.073 -5.12458)
(0 449.073 -5.12458)
(6.4444e-15 447.201 -5.19621)
(0 447.201 -5.19621)
(0 444.921 -5.26358)
(9.22415e-15 444.921 -5.26358)
(-9.05512e-15 442.18 -5.32576)
(-9.05512e-15 442.18 -5.32576)
(1.5028e-14 438.927 -5.38182)
(0 438.927 -5.38182)
(7.88062e-15 435.115 -5.43085)
(3.15225e-14 435.115 -5.43085)
(1.65035e-14 430.707 -5.47198)
(0 430.707 -5.47198)
(8.62694e-15 425.672 -5.50447)
(0 425.672 -5.50447)
(9.00566e-15 419.997 -5.52771)
(-8.25531e-15 419.997 -5.52771)
(9.38735e-15 413.678 -5.54124)
(-3.75494e-14 413.678 -5.54124)
(0 406.728 -5.54482)
(-5.49965e-14 406.728 -5.54482)
(0 399.176 -5.5384)
(0 399.176 -5.5384)
(1.05436e-14 391.064 -5.52215)
(-4.21742e-14 391.064 -5.52215)
(6.80829e-15 382.444 -5.49644)
(0 382.444 -5.49644)
(-1.13165e-14 373.382 -5.46179)
(-4.5266e-14 373.382 -5.46179)
(-1.17014e-14 363.948 -5.41887)
(-9.36115e-14 363.948 -5.41887)
(-1.20844e-14 354.217 -5.36847)
(-1.42399e-14 354.217 -5.36847)
(1.51407e-15 344.265 -5.31144)
(-1.39789e-14 344.265 -5.31144)
(-1.28421e-14 334.167 -5.24867)
(-1.02737e-13 334.167 -5.24867)
(2.64314e-14 323.995 -5.18104)
(0 323.995 -5.18104)
(1.35852e-14 313.812 -5.10942)
(-8.07896e-14 313.812 -5.10942)
(2.79002e-14 303.681 -5.03465)
(5.58003e-14 303.681 -5.03465)
(2.70544e-14 293.652 -4.9575)
(-6.99848e-14 293.652 -4.9575)
(-1.68195e-14 283.771 -4.87866)
(-7.1171e-14 283.771 -4.87866)
(3.00294e-14 274.077 -4.79877)
(6.00587e-14 274.077 -4.79877)
(0 264.599 -4.71839)
(0 264.599 -4.71839)
(-1.56974e-14 255.363 -4.63799)
(-1.25579e-13 255.363 -4.63799)
(1.60303e-14 246.386 -4.558)
(-6.41212e-14 246.386 -4.558)
(-6.45376e-15 237.684 -4.47877)
(2.28113e-14 237.684 -4.47877)
(0 229.263 -4.40057)
(-1.33434e-13 229.263 -4.40057)
(1.69952e-14 221.131 -4.32366)
(0 221.131 -4.32366)
(3.46114e-14 213.288 -4.24822)
(0 213.288 -4.24822)
(2.11847e-14 205.734 -4.17441)
(-9.16277e-14 205.734 -4.17441)
(-2.88609e-15 198.465 -4.10232)
(0 198.465 -4.10232)
(3.86202e-14 191.477 -4.03206)
(-9.32347e-14 191.477 -4.03206)
(0 184.764 -3.96366)
(-7.39763e-14 184.764 -3.96366)
(0 178.319 -3.89718)
(-7.51134e-14 178.319 -3.89718)
(1.90577e-14 172.133 -3.83262)
(0 172.133 -3.83262)
(0 166.198 -3.76999)
(0 166.198 -3.76999)
(1.96024e-14 160.505 -3.70927)
(0 160.505 -3.70927)
(3.81391e-14 155.045 -3.65044)
(-1.82711e-14 155.045 -3.65044)
(0 149.809 -3.59347)
(-8.05165e-14 149.809 -3.59347)
(0 144.788 -3.53834)
(0 144.788 -3.53834)
(2.06391e-14 139.972 -3.48499)
(-8.25562e-14 139.972 -3.48499)
(0 135.354 -3.43338)
(-8.35522e-14 135.354 -3.43338)
(0 130.923 -3.38347)
(0 130.923 -3.38347)
(-2.13747e-14 126.673 -3.3352)
(1.70997e-13 126.673 -3.3352)
(0 122.595 -3.28853)
(0 122.595 -3.28853)
(8.48801e-14 118.68 -3.2434)
(-1.50421e-13 118.68 -3.2434)
(2.20781e-14 114.922 -3.19977)
(-8.83126e-14 114.922 -3.19977)
(3.0372e-14 111.313 -3.15759)
(-1.78448e-13 111.313 -3.15759)
(-2.25308e-14 107.847 -3.11679)
(0 107.847 -3.11679)
(2.92691e-14 104.517 -3.07735)
(0 104.517 -3.07735)
(0 101.316 -3.0392)
(9.18854e-14 101.316 -3.0392)
(5.01889e-15 98.2392 -3.0023)
(-3.99204e-13 98.2392 -3.0023)
(4.68013e-14 95.2801 -2.96661)
(-9.36026e-14 95.2801 -2.96661)
(-2.36113e-14 92.4336 -2.93208)
(0 92.4336 -2.93208)
(-2.38194e-14 89.6945 -2.89867)
(-9.52775e-14 89.6945 -2.89867)
(-4.805e-14 87.058 -2.86633)
(-1.22295e-13 87.058 -2.86633)
(-2.42282e-14 84.5192 -2.83503)
(-2.19541e-13 84.5192 -2.83503)
(4.88583e-14 82.074 -2.80474)
(-9.77167e-14 82.074 -2.80474)
(2.46279e-14 79.7179 -2.7754)
(9.85114e-14 79.7179 -2.7754)
(-4.8654e-14 77.4472 -2.74699)
(1.47951e-13 77.4472 -2.74699)
(1.1376e-15 75.2579 -2.71947)
(-1.00075e-13 75.2579 -2.71947)
(-7.3866e-14 73.1465 -2.69281)
(7.74012e-14 73.1465 -2.69281)
(2.54016e-14 71.1097 -2.66698)
(0 71.1097 -2.66698)
(1.95944e-14 69.144 -2.64194)
(0 69.144 -2.64194)
(0 67.2466 -2.61767)
(-4.43566e-14 67.2466 -2.61767)
(-1.7582e-14 65.4144 -2.59415)
(1.47391e-13 65.4144 -2.59415)
(2.13729e-14 63.6447 -2.57133)
(-6.1834e-14 63.6447 -2.57133)
(0 61.9348 -2.54921)
(0 61.9348 -2.54921)
(2.65063e-14 60.2822 -2.52775)
(6.48316e-14 60.2822 -2.52775)
(0 58.6846 -2.50692)
(0 58.6846 -2.50692)
(3.96977e-14 57.1397 -2.48672)
(-2.54588e-13 57.1397 -2.48672)
(0 55.6454 -2.4671)
(0 55.6454 -2.4671)
(2.72104e-14 54.1994 -2.44807)
(-1.47098e-13 54.1994 -2.44807)
(6.4938e-14 52.8001 -2.42959)
(-3.75551e-14 52.8001 -2.42959)
(2.7554e-14 51.4454 -2.41164)
(2.57299e-13 51.4454 -2.41164)
(6.3915e-14 50.1335 -2.39421)
(-3.61913e-14 50.1335 -2.39421)
(2.78922e-14 48.8629 -2.37728)
(-1.47097e-13 48.8629 -2.37728)
(2.80594e-14 47.6319 -2.36083)
(7.73607e-14 47.6319 -2.36083)
(3.4238e-14 46.439 -2.34484)
(0 46.439 -2.34484)
(5.22024e-15 45.2827 -2.32931)
(-1.47172e-13 45.2827 -2.32931)
(0 44.1615 -2.31421)
(-3.29947e-14 44.1615 -2.31421)
(0 43.0743 -2.29954)
(-3.23901e-14 43.0743 -2.29954)
(0 42.0196 -2.28527)
(0 42.0196 -2.28527)
(6.24277e-14 40.9964 -2.27139)
(-1.47369e-13 40.9964 -2.27139)
(0 40.0034 -2.2579)
(-3.06419e-14 40.0034 -2.2579)
(3.00804e-14 39.0395 -2.24477)
(-3.00804e-14 39.0395 -2.24477)
(-1.4927e-17 38.1037 -2.232)
(0 38.1037 -2.232)
(-2.96708e-14 37.195 -2.21958)
(0 37.195 -2.21958)
(-2.98265e-14 36.3123 -2.20749)
(-2.84568e-14 36.3123 -2.20749)
(-2.58894e-14 35.4548 -2.19573)
(0 35.4548 -2.19573)
(0 34.6216 -2.18428)
(0 34.6216 -2.18428)
(-6.05768e-14 33.8118 -2.17313)
(-2.42307e-13 33.8118 -2.17313)
(0 33.0246 -2.16228)
(0 33.0246 -2.16228)
(3.05922e-14 32.2592 -2.15171)
(0 32.2592 -2.15171)
(-5.09359e-14 31.515 -2.14142)
(1.22972e-13 31.515 -2.14142)
(0 30.7911 -2.1314)
(-1.73574e-13 30.7911 -2.1314)
(0 30.0869 -2.12163)
(-1.73255e-13 30.0869 -2.12163)
(-3.11907e-14 29.4017 -2.11212)
(-1.24763e-13 29.4017 -2.11212)
(4.73037e-14 28.7348 -2.10285)
(7.80504e-14 28.7348 -2.10285)
(3.14857e-14 28.0858 -2.09382)
(0 28.0858 -2.09382)
(6.32644e-14 27.454 -2.08502)
(1.26529e-13 27.454 -2.08502)
(-3.17781e-14 26.8388 -2.07644)
(1.27112e-13 26.8388 -2.07644)
(0 26.2397 -2.06808)
(0 26.2397 -2.06808)
(7.51935e-14 25.6562 -2.05992)
(-4.31256e-14 25.6562 -2.05992)
(-1.01233e-14 25.0877 -2.05197)
(1.71183e-13 25.0877 -2.05197)
(3.23555e-14 24.5339 -2.04421)
(1.29422e-13 24.5339 -2.04421)
(3.24984e-14 23.9942 -2.03664)
(0 23.9942 -2.03664)
(4.00503e-14 23.4682 -2.02926)
(-1.30563e-13 23.4682 -2.02926)
(7.20989e-14 22.9555 -2.02206)
(0 22.9555 -2.02206)
(5.67219e-15 22.4557 -2.01502)
(0 22.4557 -2.01502)
(0 21.9683 -2.00816)
(0 21.9683 -2.00816)
(-3.98958e-15 21.493 -2.00146)
(0 21.493 -2.00146)
(6.66892e-14 21.0294 -1.99491)
(0 21.0294 -1.99491)
(0 20.5772 -1.98851)
(0 20.5772 -1.98851)
(3.36228e-14 20.136 -1.98226)
(2.68982e-13 20.136 -1.98226)
(0 19.7055 -1.97616)
(0 19.7055 -1.97616)
(-6.78083e-14 19.2854 -1.97019)
(0 19.2854 -1.97019)
(-3.40366e-14 18.8753 -1.96435)
(0 18.8753 -1.96435)
(0 18.475 -1.95864)
(0 18.475 -1.95864)
(3.43104e-14 18.0842 -1.95305)
(0 18.0842 -1.95305)
(3.14912e-14 17.7027 -1.94758)
(0 17.7027 -1.94758)
(6.91652e-14 17.33 -1.94222)
(-1.3833e-13 17.33 -1.94222)
(6.94362e-14 16.9661 -1.93698)
(-1.38872e-13 16.9661 -1.93698)
(2.47298e-14 16.6106 -1.93183)
(-4.18238e-13 16.6106 -1.93183)
(-3.4988e-14 16.2633 -1.92679)
(0 16.2633 -1.92679)
(0 15.9239 -1.92185)
(1.40489e-13 15.9239 -1.92185)
(-5.63671e-14 15.5923 -1.91699)
(0 15.5923 -1.91699)
(3.539e-14 15.2682 -1.91223)
(0 15.2682 -1.91223)
(-3.55234e-14 14.9515 -1.90754)
(-1.42094e-13 14.9515 -1.90754)
(5.33248e-14 14.6418 -1.90294)
(-5.33248e-14 14.6418 -1.90294)
(8.81367e-14 14.339 -1.89841)
(1.43156e-13 14.339 -1.89841)
(7.18428e-14 14.043 -1.89395)
(-1.43686e-13 14.043 -1.89395)
(0 13.7535 -1.88956)
(-1.44214e-13 13.7535 -1.88956)
(3.61851e-14 13.4704 -1.88524)
(0 13.4704 -1.88524)
(-4.86148e-14 13.1934 -1.88097)
(-1.45266e-13 13.1934 -1.88097)
(0 12.9224 -1.87675)
(-2.91581e-13 12.9224 -1.87675)
(-4.68495e-14 12.6573 -1.87258)
(0 12.6573 -1.87258)
(7.34179e-14 12.3979 -1.86846)
(1.46836e-13 12.3979 -1.86846)
(3.68392e-14 12.1441 -1.86438)
(-4.51482e-14 12.1441 -1.86438)
(4.43209e-14 11.8956 -1.86033)
(1.47876e-13 11.8956 -1.86033)
(3.70988e-14 11.6523 -1.85632)
(-1.48395e-13 11.6523 -1.85632)
(4.27114e-14 11.4142 -1.85233)
(-1.91624e-13 11.4142 -1.85233)
(0 11.181 -1.84837)
(4.19287e-14 11.181 -1.84837)
(3.7486e-14 10.9526 -1.84442)
(-1.91104e-13 10.9526 -1.84442)
(7.52291e-14 10.729 -1.84049)
(-1.50458e-13 10.729 -1.84049)
(3.77428e-14 10.5099 -1.83656)
(1.11305e-13 10.5099 -1.83656)
(7.57415e-14 10.2953 -1.83264)
(1.12544e-13 10.2953 -1.83264)
(3.79985e-14 10.085 -1.82872)
(0 10.085 -1.82872)
(-6.01067e-16 9.87898 -1.82478)
(0 9.87898 -1.82478)
(3.82531e-14 9.67703 -1.82084)
(-1.53012e-13 9.67703 -1.82084)
(3.838e-14 9.47909 -1.81687)
(1.5352e-13 9.47909 -1.81687)
(7.70132e-14 9.28504 -1.81288)
(-3.54995e-14 9.28504 -1.81288)
(3.4849e-14 9.09477 -1.80886)
(1.54532e-13 9.09477 -1.80886)
(-3.8759e-14 8.9082 -1.8048)
(-1.89247e-13 8.9082 -1.8048)
(7.77697e-14 8.72522 -1.8007)
(-1.89123e-13 8.72522 -1.8007)
(-3.90104e-14 8.54573 -1.79655)
(-3.12083e-13 8.54573 -1.79655)
(3.91356e-14 8.36964 -1.79234)
(-1.88906e-13 8.36964 -1.79234)
(-6.35418e-14 8.19686 -1.78807)
(1.57042e-13 8.19686 -1.78807)
(1.6393e-14 8.02729 -1.78373)
(1.57541e-13 8.02729 -1.78373)
(1.00744e-13 7.86086 -1.77931)
(-2.19273e-13 7.86086 -1.77931)
(3.96337e-14 7.69748 -1.7748)
(0 7.69748 -1.7748)
(5.90108e-14 7.53705 -1.77019)
(-2.18041e-13 7.53705 -1.77019)
(0 7.37951 -1.76549)
(-1.59524e-13 7.37951 -1.76549)
(0 7.22477 -1.76067)
(-2.16885e-13 7.22477 -1.76067)
(0 7.07275 -1.75573)
(0 7.07275 -1.75573)
(4.02496e-14 6.92337 -1.75065)
(0 6.92337 -1.75065)
(4.03718e-14 6.77656 -1.74544)
(1.61487e-13 6.77656 -1.74544)
(4.04936e-14 6.63224 -1.74007)
(-5.28127e-14 6.63224 -1.74007)
(0 6.49035 -1.73454)
(1.62461e-13 6.49035 -1.73454)
(0 6.3508 -1.72883)
(0 6.3508 -1.72883)
(4.99623e-14 6.21354 -1.72293)
(-2.13391e-13 6.21354 -1.72293)
(-4.90467e-14 6.07847 -1.71683)
(0 6.07847 -1.71683)
(-4.10975e-14 5.94555 -1.71051)
(0 5.94555 -1.71051)
(-4.12171e-14 5.8147 -1.70396)
(-1.64868e-13 5.8147 -1.70396)
(5.0633e-15 5.68585 -1.69717)
(-2.11745e-13 5.68585 -1.69717)
(4.55493e-14 5.55894 -1.69012)
(-4.55493e-14 5.55894 -1.69012)
(4.47146e-14 5.43389 -1.68278)
(-3.77301e-13 5.43389 -1.68278)
(4.38952e-14 5.31065 -1.67515)
(-2.1066e-13 5.31065 -1.67515)
(0 5.18915 -1.6672)
(0 5.18915 -1.6672)
(0 5.06932 -1.65891)
(-2.10002e-13 5.06932 -1.65891)
(-5.15514e-16 4.95109 -1.65026)
(0 4.95109 -1.65026)
(4.35496e-14 4.8344 -1.64123)
(1.68629e-13 4.8344 -1.64123)
(8.45451e-14 4.71919 -1.63179)
(0 4.71919 -1.63179)
(8.47743e-14 4.60538 -1.62192)
(-2.08833e-13 4.60538 -1.62192)
(8.1066e-14 4.49291 -1.61158)
(-3.85649e-14 4.49291 -1.61158)
(-4.26145e-14 4.38172 -1.60075)
(-3.78582e-14 4.38172 -1.60075)
(0 4.27173 -1.5894)
(1.70908e-13 4.27173 -1.5894)
(-4.2839e-14 4.16287 -1.57749)
(1.34873e-13 4.16287 -1.57749)
(0 4.05508 -1.56497)
(-2.07616e-13 4.05508 -1.56497)
(0 3.94827 -1.55183)
(-2.07401e-13 3.94827 -1.55183)
(-1.12199e-13 3.84238 -1.538)
(-1.72681e-13 3.84238 -1.538)
(8.6558e-14 3.73733 -1.52344)
(-1.73116e-13 3.73733 -1.52344)
(4.33868e-14 3.63303 -1.50811)
(0 3.63303 -1.50811)
(-6.5303e-14 3.52941 -1.49194)
(1.73975e-13 3.52941 -1.49194)
(0 3.42638 -1.47488)
(0 3.42638 -1.47488)
(0 3.32385 -1.45687)
(-2.37749e-13 3.32385 -1.45687)
(0 3.22172 -1.43783)
(-6.17784e-14 3.22172 -1.43783)
(-1.67356e-14 3.11989 -1.4177)
(1.75643e-13 3.11989 -1.4177)
(4.40121e-14 3.01827 -1.39638)
(-3.52097e-13 3.01827 -1.39638)
(0 2.91674 -1.37378)
(0 2.91674 -1.37378)
(-1.31623e-14 2.81518 -1.34981)
(0 2.81518 -1.34981)
(4.4308e-14 2.71347 -1.32437)
(-1.77232e-13 2.71347 -1.32437)
(-9.96933e-14 2.61147 -1.29732)
(1.22325e-13 2.61147 -1.29732)
(3.47187e-14 2.50905 -1.26854)
(1.7799e-13 2.50905 -1.26854)
(3.58979e-14 2.40605 -1.23789)
(0 2.40605 -1.23789)
(-7.62521e-15 2.3023 -1.20521)
(0 2.3023 -1.20521)
(4.47688e-14 2.19764 -1.17033)
(-1.02694e-13 2.19764 -1.17033)
(-5.55096e-15 2.09187 -1.13306)
(-1.79421e-13 2.09187 -1.13306)
(4.49393e-14 1.9848 -1.09319)
(1.79757e-13 1.9848 -1.09319)
(0 1.87622 -1.05051)
(-1.80084e-13 1.87622 -1.05051)
(4.51003e-14 1.76589 -1.00476)
(-1.80401e-13 1.76589 -1.00476)
(9.19886e-14 1.6536 -0.955691)
(0 1.6536 -0.955691)
(4.59539e-14 1.5391 -0.903016)
(1.81002e-13 1.5391 -0.903016)
(0 1.42214 -0.846441)
(-3.62568e-13 1.42214 -0.846441)
(0 1.30249 -0.785653)
(-1.81553e-13 1.30249 -0.785653)
(4.54518e-14 1.17989 -0.720335)
(-1.81807e-13 1.17989 -0.720335)
(4.55115e-14 1.05414 -0.650162)
(9.66919e-14 1.05414 -0.650162)
(8.7462e-14 0.925036 -0.57482)
(-4.06431e-13 0.925036 -0.57482)
(9.12363e-14 0.79243 -0.494008)
(-1.82473e-13 0.79243 -0.494008)
(8.07473e-14 0.656222 -0.407455)
(-8.07473e-14 0.656222 -0.407455)
(-6.07176e-15 0.516378 -0.314929)
(1.03555e-13 0.516378 -0.314929)
(3.89075e-14 0.372941 -0.216251)
(-2.21872e-13 0.372941 -0.216251)
(-4.57707e-14 0.226037 -0.111295)
(1.06694e-13 0.226037 -0.111295)
(4.57938e-14 7.55678e-07 -2.79697e-07)
(2.58392e-13 4.16506e-07 -1.5416e-07)
(4.58507e-14 -7.34178e-07 2.71742e-07)
(2.58165e-13 -4.74723e-07 1.75708e-07)
(-3.81946e-14 -0.226036 0.111295)
(2.89776e-13 -0.226036 0.111295)
(-6.83358e-15 -0.372941 0.21625)
(-3.89075e-14 -0.372941 0.21625)
(0 -0.516378 0.314929)
(1.82822e-13 -0.516378 0.314929)
(0 -0.656222 0.407455)
(3.65316e-13 -0.656222 0.407455)
(3.66364e-14 -0.79243 0.494008)
(-2.64727e-13 -0.79243 0.494008)
(8.379e-14 -0.925036 0.57482)
(0 -0.925036 0.57482)
(-4.55115e-14 -1.05414 0.650162)
(-1.82046e-13 -1.05414 0.650162)
(0 -1.17989 0.720335)
(0 -1.17989 0.720335)
(8.96734e-14 -1.30249 0.785653)
(0 -1.30249 0.785653)
(-9.02237e-14 -1.42214 0.84644)
(2.71508e-13 -1.42214 0.84644)
(0 -1.5391 0.903016)
(2.26956e-13 -1.5391 0.903016)
(0 -1.6536 0.955691)
(0 -1.6536 0.955691)
(-4.51003e-14 -1.76589 1.00476)
(-2.28087e-13 -1.76589 1.00476)
(1.38618e-13 -1.87621 1.05051)
(-4.85757e-14 -1.87621 1.05051)
(0 -1.9848 1.09319)
(0 -1.9848 1.09319)
(1.40116e-13 -2.09187 1.13306)
(1.29015e-13 -2.09187 1.13306)
(-4.47688e-14 -2.19764 1.17033)
(-1.79075e-13 -2.19764 1.17033)
(-8.93607e-14 -2.3023 1.20521)
(0 -2.3023 1.20521)
(-4.45899e-14 -2.40605 1.23789)