/*--------------------------------*- C++ -*----------------------------------*\
| =========                 |                                                 |
| \\      /  F ield         | OpenFOAM: The Open Source CFD Toolbox           |
|  \\    /   O peration     | Version:  2106                                  |
|   \\  /    A nd           | Website:  www.openfoam.com                      |
|    \\/     M anipulation  |                                                 |
\*---------------------------------------------------------------------------*/
FoamFile
{
    version     2.0;
    format      ascii;
    arch        "LSB;label=32;scalar=64";
    class       volScalarField;
    location    "10080";
    object      p;
}
// * * * * * * * * * * * * * * * * * * * * * * * * * * * * * * * * * * * * * //

dimensions      [0 2 -2 0 0 0 0];

internalField   nonuniform List<scalar> 
2000
(
9.71747e-16
-8.49006e-16
2.11207e-15
-8.49511e-16
2.09332e-15
-8.50408e-16
1.72723e-15
-8.51849e-16
1.42681e-15
-8.53861e-16
1.16811e-15
-8.56489e-16
9.12874e-16
-8.59723e-16
6.57667e-16
-8.63552e-16
4.06601e-16
-8.67957e-16
1.61182e-16
-8.7296e-16
-7.85234e-17
-8.78625e-16
-3.12628e-16
-8.84911e-16
-5.41299e-16
-8.91808e-16
-7.64584e-16
-8.99292e-16
-9.82628e-16
-9.07348e-16
-1.19561e-15
-9.16016e-16
-1.40327e-15
-9.25406e-16
-1.60591e-15
-9.3545e-16
-1.80365e-15
-9.46055e-16
-1.99665e-15
-9.57376e-16
-2.185e-15
-9.69368e-16
-2.36889e-15
-9.819e-16
-2.5485e-15
-9.95117e-16
-2.7238e-15
-1.00898e-15
-2.89509e-15
-1.0236e-15
-3.06258e-15
-1.03897e-15
-3.22647e-15
-1.05516e-15
-3.38685e-15
-1.0721e-15
-3.54406e-15
-1.08985e-15
-3.69839e-15
-1.10858e-15
-3.85031e-15
-1.12826e-15
-3.99973e-15
-1.14891e-15
-4.14724e-15
-1.17053e-15
-4.29291e-15
-1.19337e-15
-4.43696e-15
-1.2173e-15
-4.57946e-15
-1.24251e-15
-4.72086e-15
-1.26911e-15
-4.86159e-15
-1.2969e-15
-5.00184e-15
-1.3259e-15
-5.14183e-15
-1.3566e-15
-5.2817e-15
-1.38845e-15
-5.42173e-15
-1.42174e-15
-5.56154e-15
-1.45671e-15
-5.70147e-15
-1.4936e-15
-5.84164e-15
-1.53265e-15
-5.98213e-15
-1.57374e-15
-6.12344e-15
-1.61694e-15
-6.26485e-15
-1.6623e-15
-6.40679e-15
-1.70885e-15
-6.54931e-15
-1.75745e-15
-6.69242e-15
-1.80897e-15
-6.83616e-15
-1.8624e-15
-6.98184e-15
-1.91778e-15
-7.12728e-15
-1.97556e-15
-7.27379e-15
-2.03555e-15
-7.42186e-15
-2.098e-15
-7.57055e-15
-2.16293e-15
-7.71959e-15
-2.22987e-15
-7.86971e-15
-2.29856e-15
-8.02089e-15
-2.36975e-15
-8.17287e-15
-2.44369e-15
-8.32565e-15
-2.52064e-15
-8.47814e-15
-2.59954e-15
-8.63138e-15
-2.68036e-15
-8.78425e-15
-2.76415e-15
-8.93841e-15
-2.84923e-15
-9.0933e-15
-2.93607e-15
-9.24835e-15
-3.02521e-15
-9.40414e-15
-3.1166e-15
-9.55888e-15
-3.20958e-15
-9.71436e-15
-3.30405e-15
-9.87001e-15
-3.39932e-15
-1.00252e-14
-3.49526e-15
-1.01806e-14
-3.59432e-15
-1.03342e-14
-3.6971e-15
-1.04874e-14
-3.80092e-15
-1.06403e-14
-3.90497e-15
-1.07907e-14
-4.01046e-15
-1.09435e-14
-4.11728e-15
-1.10934e-14
-4.22599e-15
-1.12409e-14
-4.33718e-15
-1.13882e-14
-4.4486e-15
-1.15355e-14
-4.56006e-15
-1.16813e-14
-4.67653e-15
-1.18257e-14
-4.7957e-15
-1.19689e-14
-4.91597e-15
-1.21086e-14
-5.03866e-15
-1.22465e-14
-5.16747e-15
-1.23857e-14
-5.29614e-15
-1.25201e-14
-5.42761e-15
-1.26561e-14
-5.56013e-15
-1.27923e-14
-5.69354e-15
-1.29273e-14
-5.82762e-15
-1.3066e-14
-5.9654e-15
-1.32007e-14
-6.10674e-15
-1.33346e-14
-6.24652e-15
-1.34664e-14
-6.38781e-15
-1.35978e-14
-6.5304e-15
-1.37275e-14
-6.67743e-15
-1.38556e-14
-6.82534e-15
-1.39841e-14
-6.97559e-15
-1.41115e-14
-7.12452e-15
-1.4238e-14
-7.27705e-15
-1.43622e-14
-7.43648e-15
-1.44895e-14
-7.59558e-15
-1.46115e-14
-7.75408e-15
-1.47355e-14
-7.90993e-15
-1.48547e-14
-8.07356e-15
-1.49747e-14
-8.24118e-15
-1.50831e-14
-8.41257e-15
-1.51947e-14
-8.58567e-15
-1.53063e-14
-8.75842e-15
-1.54162e-14
-8.92867e-15
-1.55211e-14
-9.09984e-15
-1.56269e-14
-9.27538e-15
-1.5732e-14
-9.45319e-15
-1.58368e-14
-9.62736e-15
-1.59359e-14
-9.80325e-15
-1.60449e-14
-9.98061e-15
-1.61452e-14
-1.0163e-14
-1.62523e-14
-1.03386e-14
-1.63591e-14
-1.05109e-14
-1.64621e-14
-1.06836e-14
-1.65616e-14
-1.08639e-14
-1.66621e-14
-1.1044e-14
-1.67638e-14
-1.12196e-14
-1.68712e-14
-1.13944e-14
-1.6973e-14
-1.15718e-14
-1.70774e-14
-1.17516e-14
-1.71733e-14
-1.19375e-14
-1.72649e-14
-1.21133e-14
-1.73605e-14
-1.22788e-14
-1.74608e-14
-1.24614e-14
-1.75543e-14
-1.26449e-14
-1.76613e-14
-1.2817e-14
-1.77626e-14
-1.29934e-14
-1.78545e-14
-1.31777e-14
-1.79497e-14
-1.33617e-14
-1.80404e-14
-1.35409e-14
-1.81394e-14
-1.37314e-14
-1.8235e-14
-1.39368e-14
-1.83357e-14
-1.41247e-14
-1.84378e-14
-1.42988e-14
-1.853e-14
-1.44872e-14
-1.86206e-14
-1.46816e-14
-1.87142e-14
-1.48655e-14
-1.88072e-14
-1.5047e-14
-1.88959e-14
-1.52339e-14
-1.89848e-14
-1.54139e-14
-1.90743e-14
-1.5595e-14
-1.91814e-14
-1.57771e-14
-1.9282e-14
-1.59762e-14
-1.93848e-14
-1.61676e-14
-1.94572e-14
-1.63678e-14
-1.95404e-14
-1.65522e-14
-1.96264e-14
-1.67376e-14
-1.97153e-14
-1.69156e-14
-1.98074e-14
-1.70946e-14
-1.99028e-14
-1.72911e-14
-2.00019e-14
-1.74807e-14
-2.00718e-14
-1.76636e-14
-2.01454e-14
-1.78486e-14
-2.02388e-14
-1.80362e-14
-2.03358e-14
-1.82185e-14
-2.04279e-14
-1.83875e-14
-2.05237e-14
-1.85763e-14
-2.06149e-14
-1.87689e-14
-2.0693e-14
-1.895e-14
-2.07742e-14
-1.91121e-14
-2.08666e-14
-1.928e-14
-2.09619e-14
-1.94625e-14
-2.10515e-14
-1.96437e-14
-2.11596e-14
-1.98163e-14
-2.12454e-14
-1.99809e-14
-2.13409e-14
-2.01462e-14
-2.14134e-14
-2.03377e-14
-2.15183e-14
-2.05328e-14
-2.16144e-14
-2.07165e-14
-2.17169e-14
-2.08743e-14
-2.18014e-14
-2.10312e-14
-2.18673e-14
-2.1197e-14
-2.19771e-14
-2.13897e-14
-2.21135e-14
-2.15796e-14
-2.22284e-14
-2.17677e-14
-2.23213e-14
-2.19713e-14
-2.24058e-14
-2.2146e-14
-2.25267e-14
-2.22474e-14
-2.26382e-14
-2.23861e-14
-2.27556e-14
-2.25471e-14
-2.28627e-14
-2.27319e-14
-2.29737e-14
-2.28964e-14
-2.30873e-14
-2.30431e-14
-2.32029e-14
-2.31588e-14
-2.33213e-14
-2.32743e-14
-2.34432e-14
-2.34211e-14
-2.3553e-14
-2.35389e-14
-2.36815e-14
-2.36139e-14
-2.38161e-14
-2.37359e-14
-2.39432e-14
-2.38431e-14
-2.40639e-14
-2.398e-14
-2.41933e-14
-2.41471e-14
-2.43156e-14
-2.42711e-14
-2.44312e-14
-2.43975e-14
-2.45392e-14
-2.45431e-14
-2.4698e-14
-2.46653e-14
-2.48205e-14
-2.47475e-14
-2.49543e-14
-2.48909e-14
-2.50697e-14
-2.50517e-14
-2.51656e-14
-2.5174e-14
-2.52842e-14
-2.52605e-14
-2.53846e-14
-2.53684e-14
-2.54801e-14
-2.54691e-14
-2.56283e-14
-2.55618e-14
-2.56902e-14
-2.56414e-14
-2.58081e-14
-2.57659e-14
-2.59546e-14
-2.58815e-14
-2.59941e-14
-2.59589e-14
-2.60927e-14
-2.60282e-14
-2.61952e-14
-2.61427e-14
-2.63004e-14
-2.62766e-14
-2.63282e-14
-2.63781e-14
-2.64877e-14
-2.64826e-14
-2.66209e-14
-2.6614e-14
-2.67038e-14
-2.66909e-14
-2.67663e-14
-2.67664e-14
-2.68833e-14
-2.6895e-14
-2.7e-14
-2.70253e-14
-2.71695e-14
-2.71076e-14
-2.72993e-14
-2.72366e-14
-2.73946e-14
-2.73849e-14
-2.74996e-14
-2.75059e-14
-2.76365e-14
-2.76013e-14
-2.78353e-14
-2.7693e-14
-2.79872e-14
-2.78406e-14
-2.80728e-14
-2.79415e-14
-2.82601e-14
-2.79676e-14
-2.8406e-14
-2.80583e-14
-2.84999e-14
-2.81749e-14
-2.86307e-14
-2.82649e-14
-2.87359e-14
-2.83638e-14
-2.88266e-14
-2.85167e-14
-2.88672e-14
-2.87133e-14
-2.88678e-14
-2.88192e-14
-2.89608e-14
-2.89022e-14
-2.90769e-14
-2.90498e-14
-2.92093e-14
-2.91975e-14
-2.93811e-14
-2.93434e-14
-2.9467e-14
-2.94639e-14
-2.95677e-14
-2.95923e-14
-2.97132e-14
-2.96871e-14
-6.29133e-15
-6.81466e-15
-6.29154e-15
-6.81474e-15
-6.29196e-15
-6.8149e-15
-6.29266e-15
-6.81517e-15
-6.29365e-15
-6.81555e-15
-6.29493e-15
-6.81605e-15
-6.29649e-15
-6.8167e-15
-6.29836e-15
-6.8175e-15
-6.30049e-15
-6.81841e-15
-6.30292e-15
-6.81943e-15
-6.30558e-15
-6.82067e-15
-6.30855e-15
-6.82206e-15
-6.31177e-15
-6.82362e-15
-6.31532e-15
-6.8253e-15
-6.31903e-15
-6.8272e-15
-6.32298e-15
-6.82934e-15
-6.32724e-15
-6.83162e-15
-6.33174e-15
-6.83415e-15
-6.33652e-15
-6.83682e-15
-6.34158e-15
-6.83965e-15
-6.34693e-15
-6.84271e-15
-6.3526e-15
-6.84592e-15
-6.35864e-15
-6.84929e-15
-6.36508e-15
-6.85281e-15
-6.37178e-15
-6.85659e-15
-6.37891e-15
-6.86051e-15
-6.38643e-15
-6.86457e-15
-6.39438e-15
-6.86912e-15
-6.40258e-15
-6.87398e-15
-6.41114e-15
-6.87901e-15
-6.42022e-15
-6.88429e-15
-6.42959e-15
-6.8899e-15
-6.43942e-15
-6.89597e-15
-6.44974e-15
-6.90233e-15
-6.46072e-15
-6.90943e-15
-6.47231e-15
-6.91672e-15
-6.48444e-15
-6.92446e-15
-6.4974e-15
-6.93253e-15
-6.51114e-15
-6.94104e-15
-6.52533e-15
-6.95053e-15
-6.54037e-15
-6.96043e-15
-6.55619e-15
-6.9707e-15
-6.57292e-15
-6.9818e-15
-6.59069e-15
-6.99351e-15
-6.60935e-15
-7.00605e-15
-6.62893e-15
-7.01927e-15
-6.64909e-15
-7.03359e-15
-6.67042e-15
-7.04907e-15
-6.69319e-15
-7.06433e-15
-6.7168e-15
-7.0802e-15
-6.74191e-15
-7.09797e-15
-6.76836e-15
-7.11686e-15
-6.79596e-15
-7.13648e-15
-6.82472e-15
-7.15796e-15
-6.85492e-15
-7.18046e-15
-6.88656e-15
-7.20332e-15
-6.91921e-15
-7.22749e-15
-6.95409e-15
-7.25253e-15
-6.98976e-15
-7.27971e-15
-7.02698e-15
-7.30834e-15
-7.06524e-15
-7.33871e-15
-7.10534e-15
-7.36956e-15
-7.1465e-15
-7.4017e-15
-7.18816e-15
-7.43516e-15
-7.23085e-15
-7.47052e-15
-7.27569e-15
-7.5067e-15
-7.32271e-15
-7.54313e-15
-7.37076e-15
-7.58216e-15
-7.41983e-15
-7.62503e-15
-7.47049e-15
-7.66823e-15
-7.5252e-15
-7.70989e-15
-7.58154e-15
-7.75183e-15
-7.63886e-15
-7.79719e-15
-7.69907e-15
-7.84479e-15
-7.75957e-15
-7.89465e-15
-7.82231e-15
-7.9475e-15
-7.88727e-15
-7.99734e-15
-7.95583e-15
-8.04612e-15
-8.02319e-15
-8.10344e-15
-8.09204e-15
-8.1632e-15
-8.16378e-15
-8.22052e-15
-8.23768e-15
-8.27817e-15
-8.31447e-15
-8.33831e-15
-8.3934e-15
-8.40462e-15
-8.47224e-15
-8.47354e-15
-8.55092e-15
-8.53912e-15
-8.63239e-15
-8.60353e-15
-8.7174e-15
-8.67359e-15
-8.80672e-15
-8.74709e-15
-8.89726e-15
-8.82095e-15
-8.98583e-15
-8.89673e-15
-9.07388e-15
-8.97762e-15
-9.16777e-15
-9.05408e-15
-9.25941e-15
-9.13246e-15
-9.35361e-15
-9.21441e-15
-9.45031e-15
-9.29174e-15
-9.54451e-15
-9.37263e-15
-9.63943e-15
-9.45879e-15
-9.73668e-15
-9.54691e-15
-9.83623e-15
-9.64039e-15
-9.938e-15
-9.73587e-15
-1.00402e-14
-9.82472e-15
-1.01411e-14
-9.91726e-15
-1.02439e-14
-1.0017e-14
-1.0354e-14
-1.01152e-14
-1.04624e-14
-1.021e-14
-1.05709e-14
-1.03086e-14
-1.06829e-14
-1.04126e-14
-1.07966e-14
-1.05149e-14
-1.09119e-14
-1.06137e-14
-1.10159e-14
-1.07197e-14
-1.11305e-14
-1.08294e-14
-1.12428e-14
-1.0941e-14
-1.13618e-14
-1.10524e-14
-1.14819e-14
-1.11619e-14
-1.15994e-14
-1.1275e-14
-1.17197e-14
-1.13859e-14
-1.18409e-14
-1.14985e-14
-1.19591e-14
-1.16164e-14
-1.20817e-14
-1.17359e-14
-1.22011e-14
-1.18492e-14
-1.23287e-14
-1.19523e-14
-1.24527e-14
-1.20605e-14
-1.25771e-14
-1.21776e-14
-1.27056e-14
-1.22958e-14
-1.28342e-14
-1.2415e-14
-1.2955e-14
-1.25312e-14
-1.30757e-14
-1.26443e-14
-1.31962e-14
-1.2758e-14
-1.33281e-14
-1.28762e-14
-1.34517e-14
-1.30107e-14
-1.35826e-14
-1.31337e-14
-1.37088e-14
-1.32569e-14
-1.38422e-14
-1.33842e-14
-1.39707e-14
-1.35155e-14
-1.40981e-14
-1.36548e-14
-1.42282e-14
-1.37979e-14
-1.43648e-14
-1.39367e-14
-1.4512e-14
-1.40793e-14
-1.46493e-14
-1.42295e-14
-1.47848e-14
-1.43832e-14
-1.49181e-14
-1.4516e-14
-1.5045e-14
-1.46479e-14
-1.51938e-14
-1.47911e-14
-1.53441e-14
-1.49413e-14
-1.54835e-14
-1.50901e-14
-1.56323e-14
-1.52334e-14
-1.57617e-14
-1.53709e-14
-1.59003e-14
-1.55064e-14
-1.60479e-14
-1.56563e-14
-1.61797e-14
-1.58284e-14
-1.632e-14
-1.59983e-14
-1.64602e-14
-1.61496e-14
-1.66245e-14
-1.62821e-14
-1.67805e-14
-1.64199e-14
-1.69364e-14
-1.65789e-14
-1.71005e-14
-1.67342e-14
-1.72563e-14
-1.68608e-14
-1.74123e-14
-1.6991e-14
-1.75605e-14
-1.71487e-14
-1.77007e-14
-1.72842e-14
-1.78577e-14
-1.74135e-14
-1.80073e-14
-1.75769e-14
-1.8174e-14
-1.77495e-14
-1.83248e-14
-1.78897e-14
-1.84683e-14
-1.80383e-14
-1.86044e-14
-1.81699e-14
-1.87331e-14
-1.83167e-14
-1.88706e-14
-1.84947e-14
-1.90165e-14
-1.86467e-14
-1.91625e-14
-1.88134e-14
-1.93165e-14
-1.89862e-14
-1.9454e-14
-1.91487e-14
-1.96071e-14
-1.92928e-14
-1.97597e-14
-1.94258e-14
-1.98962e-14
-1.95792e-14
-2.00327e-14
-1.97524e-14
-2.01766e-14
-1.9913e-14
-2.03117e-14
-2.00606e-14
-2.04456e-14
-2.01708e-14
-2.0587e-14
-2.02984e-14
-2.07206e-14
-2.04421e-14
-2.08463e-14
-2.0633e-14
-2.09619e-14
-2.08396e-14
-2.1113e-14
-2.09999e-14
-2.12994e-14
-2.11132e-14
-2.13965e-14
-2.12558e-14
-2.15454e-14
-2.13811e-14
-2.16675e-14
-2.1535e-14
-2.17933e-14
-2.1686e-14
-2.19217e-14
-2.18335e-14
-2.20518e-14
-2.19458e-14
-2.21684e-14
-2.21148e-14
-2.22848e-14
-2.22486e-14
-2.24152e-14
-2.23786e-14
-2.2559e-14
-2.24727e-14
-2.26717e-14
-2.26206e-14
-2.27973e-14
-2.27622e-14
-2.29646e-14
-2.29284e-14
-2.30973e-14
-2.30887e-14
-2.32243e-14
-2.32441e-14
-2.33736e-14
-2.34098e-14
-2.35441e-14
-2.35115e-14
-2.36791e-14
-2.36649e-14
-2.38377e-14
-2.38249e-14
-2.3974e-14
-2.39619e-14
-2.41321e-14
-2.4121e-14
-2.42376e-14
-2.42869e-14
-2.43746e-14
-2.4418e-14
-2.44992e-14
-2.45139e-14
-2.46561e-14
-2.46451e-14
-2.47749e-14
-2.48096e-14
-2.49249e-14
-2.49679e-14
-2.50179e-14
-2.50791e-14
-2.51103e-14
-2.51453e-14
-2.52019e-14
-2.52473e-14
-2.52884e-14
-2.53841e-14
-2.54506e-14
-2.54765e-14
-2.55829e-14
-2.55755e-14
-2.56052e-14
-2.57042e-14
-2.57527e-14
-2.58153e-14
-2.5894e-14
-2.59052e-14
-2.60046e-14
-2.60495e-14
-2.6079e-14
-2.6169e-14
-2.62455e-14
-2.62699e-14
-2.63801e-14
-2.63994e-14
-2.64833e-14
-2.6529e-14
-2.66296e-14
-2.66341e-14
-2.67155e-14
-2.6789e-14
-2.68591e-14
-2.69761e-14
-2.70032e-14
-2.71246e-14
-2.71733e-14
-2.72114e-14
-2.73554e-14
-2.73265e-14
-2.74801e-14
-2.74859e-14
-2.76652e-14
-2.76684e-14
-2.78165e-14
-2.78037e-14
-2.79575e-14
-2.79225e-14
-2.81638e-14
-2.80969e-14
-2.8302e-14
-2.8227e-14
-2.83504e-14
-2.83149e-14
-2.84889e-14
-2.8415e-14
-2.86318e-14
-2.85854e-14
-2.87592e-14
-2.87086e-14
-2.88615e-14
-2.88322e-14
-2.89822e-14
-2.89878e-14
-2.90903e-14
-2.91833e-14
-2.92081e-14
-2.92822e-14
-2.93554e-14
-2.93914e-14
-2.95248e-14
-2.9546e-14
-2.96827e-14
-2.9654e-14
-2.98701e-14
-2.98252e-14
-2.99177e-14
-2.99155e-14
-2.99746e-14
-3.00101e-14
-3.00735e-14
-3.01195e-14
-3.01693e-14
-3.01964e-14
-3.01894e-14
-3.02343e-14
-3.02677e-14
-3.02617e-14
-3.03266e-14
-3.03357e-14
-3.04029e-14
-3.03892e-14
-3.0502e-14
-3.0462e-14
-3.05854e-14
-3.05292e-14
-3.06322e-14
-3.06102e-14
-3.06653e-14
-3.06429e-14
-3.07028e-14
-3.06984e-14
-3.07644e-14
-3.07766e-14
-3.08726e-14
-3.08565e-14
-3.09089e-14
-3.09339e-14
-3.09666e-14
-3.09668e-14
-3.10257e-14
-3.10751e-14
-3.10789e-14
-3.11388e-14
-3.11201e-14
-3.11844e-14
-3.11743e-14
-3.12136e-14
-3.1248e-14
-3.12745e-14
-3.12929e-14
-3.12896e-14
-3.13108e-14
-3.13316e-14
-3.1352e-14
-3.13762e-14
-3.14177e-14
-3.13692e-14
-3.15156e-14
-3.14086e-14
-3.15714e-14
-3.14894e-14
-3.15807e-14
-3.15613e-14
-3.15909e-14
-3.15773e-14
-3.16043e-14
-3.15922e-14
-3.16186e-14
-3.16046e-14
-3.16886e-14
-3.16415e-14
-3.17367e-14
-3.16445e-14
-3.17092e-14
-3.16389e-14
-3.17143e-14
-3.16271e-14
-3.17548e-14
-3.16369e-14
-3.17456e-14
-3.16371e-14
-3.17571e-14
-3.16286e-14
-3.17903e-14
-3.1698e-14
-3.18134e-14
-3.1748e-14
-3.18101e-14
-3.17509e-14
-3.18542e-14
-3.17511e-14
-3.18756e-14
-3.1761e-14
-3.18747e-14
-3.18085e-14
-3.18776e-14
-3.18081e-14
-3.19136e-14
-3.18205e-14
-3.19239e-14
-3.18449e-14
-3.19374e-14
-3.18369e-14
-3.19555e-14
-3.18262e-14
-3.20099e-14
-3.18259e-14
-3.20109e-14
-3.1849e-14
-3.19875e-14
-3.18965e-14
-3.19967e-14
-3.19412e-14
-3.20074e-14
-3.19238e-14
-3.20057e-14
-3.18583e-14
-3.20398e-14
-3.18353e-14
-3.20345e-14
-3.18528e-14
-3.20357e-14
-3.18962e-14
-3.20262e-14
-3.19048e-14
-3.20213e-14
-3.18789e-14
-3.20053e-14
-3.18651e-14
-3.19936e-14
-3.18635e-14
-3.19857e-14
-3.18904e-14
-3.19961e-14
-3.18996e-14
-3.19929e-14
-3.18915e-14
-3.19761e-14
-3.18821e-14
-3.19609e-14
-3.18874e-14
-3.19466e-14
-3.19081e-14
-3.19806e-14
-3.19292e-14
-3.19992e-14
-3.1934e-14
-3.19867e-14
-3.19138e-14
-3.19833e-14
-3.1917e-14
-3.1997e-14
-3.19357e-14
-3.20036e-14
-3.19461e-14
-3.20027e-14
-3.194e-14
-3.20108e-14
-3.19579e-14
-3.20113e-14
-3.2008e-14
-3.20115e-14
-3.2018e-14
-3.20277e-14
-3.20044e-14
-3.20277e-14
-3.19912e-14
-3.20279e-14
-3.19946e-14
-3.20364e-14
-3.20145e-14
-3.20368e-14
-3.20425e-14
-3.2037e-14
-3.20464e-14
-3.20285e-14
-3.20589e-14
-3.20276e-14
-3.20721e-14
-3.20425e-14
-3.20862e-14
-3.20402e-14
-3.20849e-14
-3.20538e-14
-3.20845e-14
-3.2067e-14
-3.20602e-14
-3.2072e-14
-3.20609e-14
-3.20772e-14
-3.20782e-14
-3.20825e-14
-3.20794e-14
-3.20878e-14
-3.20644e-14
-3.20934e-14
-3.20578e-14
-3.20911e-14
-3.20511e-14
-3.20974e-14
-3.20362e-14
-3.21041e-14
-3.20292e-14
-3.21198e-14
-3.203e-14
-3.21279e-14
-3.20222e-14
-3.21287e-14
-3.2022e-14
-3.2122e-14
-3.20212e-14
-3.21119e-14
-3.20159e-14
-3.20984e-14
-3.20142e-14
-3.20894e-14
-3.20285e-14
-3.20848e-14
-3.20345e-14
-3.20806e-14
-3.20363e-14
-3.20765e-14
-3.20339e-14
-3.20684e-14
-3.20356e-14
-3.20645e-14
-3.20251e-14
-3.20647e-14
-3.20186e-14
-3.2069e-14
-3.20121e-14
-3.20734e-14
-3.20055e-14
-3.20779e-14
-3.20107e-14
-3.20785e-14
-3.20119e-14
-3.20792e-14
-3.20089e-14
-3.20841e-14
-3.19978e-14
-3.20891e-14
-3.19826e-14
-3.20903e-14
-3.1983e-14
-3.20919e-14
-3.19831e-14
-3.20975e-14
-3.19869e-14
-3.20956e-14
-3.19825e-14
-3.20977e-14
-3.19702e-14
-3.21079e-14
-3.19693e-14
-3.21184e-14
-3.19797e-14
-3.21213e-14
-3.19821e-14
-3.21245e-14
-3.19726e-14
-3.21319e-14
-3.19706e-14
-3.21395e-14
-3.19721e-14
-3.21474e-14
-3.19695e-14
-3.21518e-14
-3.19627e-14
-3.21528e-14
-3.19671e-14
-3.21617e-14
-3.19748e-14
-3.21671e-14
-3.19785e-14
-3.21728e-14
-3.19763e-14
-3.21807e-14
-3.19701e-14
-3.21796e-14
-3.19728e-14
-3.21808e-14
-3.19844e-14
-3.2184e-14
-3.19921e-14
-3.21876e-14
-3.1994e-14
-3.21878e-14
-3.19992e-14
-3.219e-14
-3.20042e-14
-3.21943e-14
-3.20072e-14
-3.21935e-14
-3.20117e-14
-3.21965e-14
-3.20124e-14
-3.21997e-14
-3.20112e-14
-3.2203e-14
-3.20116e-14
-3.22032e-14
-3.201e-14
-3.22001e-14
-3.20065e-14
-3.22024e-14
-3.20096e-14
-3.22031e-14
-3.20143e-14
-3.22041e-14
-3.2017e-14
-3.22052e-14
-3.20179e-14
-3.22048e-14
-3.20153e-14
-3.22063e-14
-3.20126e-14
-3.22063e-14
-3.20163e-14
-3.22048e-14
-3.20213e-14
-3.22051e-14
-3.2023e-14
-3.22055e-14
-3.20245e-14
-3.22061e-14
-3.20275e-14
-3.22083e-14
-3.20287e-14
-3.22091e-14
-3.20314e-14
-3.22093e-14
-3.20339e-14
-3.22089e-14
-3.20355e-14
-3.22085e-14
-3.20392e-14
-3.2209e-14
-3.20413e-14
-3.22096e-14
-3.20411e-14
-3.22075e-14
-3.20415e-14
-3.22047e-14
-3.20432e-14
-3.22056e-14
-3.20463e-14
-3.22045e-14
-3.20485e-14
-3.22041e-14
-3.20506e-14
-3.22032e-14
-3.20513e-14
-3.22023e-14
-3.20506e-14
-3.22016e-14
-3.20518e-14
-3.22015e-14
-3.20542e-14
-3.22028e-14
-3.20552e-14
-3.22016e-14
-3.20568e-14
-3.22011e-14
-3.20571e-14
-3.22013e-14
-3.20579e-14
-3.22021e-14
-3.20599e-14
-3.22018e-14
-3.20606e-14
-3.22021e-14
-3.20601e-14
-3.22025e-14
-3.20607e-14
-3.22023e-14
-3.20624e-14
-3.22028e-14
-3.20618e-14
-3.22032e-14
-3.20607e-14
-3.22035e-14
-3.20614e-14
-3.22043e-14
-3.20626e-14
-3.22053e-14
-3.20629e-14
-3.22057e-14
-3.20629e-14
-3.22058e-14
-3.20632e-14
-3.22062e-14
-3.20635e-14
-3.22071e-14
-3.20634e-14
-3.2208e-14
-3.20634e-14
-3.22083e-14
-3.20633e-14
-3.22087e-14
-3.20636e-14
-3.22088e-14
-3.20637e-14
-3.22087e-14
-3.20642e-14
-3.22089e-14
-3.20653e-14
-3.2209e-14
-3.20659e-14
-3.22092e-14
-3.20655e-14
-3.22092e-14
-3.20653e-14
-3.22094e-14
-3.20656e-14
-3.22096e-14
-3.20659e-14
-3.22097e-14
-3.20662e-14
-3.22098e-14
-3.20661e-14
-3.22098e-14
-3.20664e-14
-3.22099e-14
-3.20669e-14
-3.22099e-14
-3.20672e-14
-3.22098e-14
-3.20671e-14
-3.22098e-14
-3.20673e-14
-3.22099e-14
-3.20674e-14
-3.221e-14
-3.20674e-14
-3.22102e-14
-3.20676e-14
-3.22102e-14
-3.20679e-14
-3.22102e-14
-3.20681e-14
-3.22103e-14
-3.20683e-14
-3.22103e-14
-3.20684e-14
-3.22105e-14
-3.20684e-14
-3.22107e-14
-3.20685e-14
-3.22108e-14
-3.20684e-14
-3.22109e-14
-3.20683e-14
-3.22109e-14
-3.20682e-14
-3.2211e-14
-3.20683e-14
-3.2211e-14
-3.20683e-14
-3.22111e-14
-3.20683e-14
-3.22112e-14
-3.20682e-14
-3.22112e-14
-3.20682e-14
-3.22112e-14
-3.20682e-14
-3.22113e-14
-3.20681e-14
-3.22113e-14
-3.2068e-14
-3.22113e-14
-3.2068e-14
-3.22114e-14
-3.2068e-14
-3.22114e-14
-3.2068e-14
-3.22114e-14
-3.2068e-14
-3.22114e-14
-3.2068e-14
-3.22114e-14
-3.2068e-14
-3.22114e-14
-3.2068e-14
-3.22114e-14
-3.20681e-14
-3.22114e-14
-3.20681e-14
-3.22114e-14
-3.20681e-14
-3.22115e-14
-3.20681e-14
-3.22115e-14
-3.20681e-14
-3.22115e-14
-3.20681e-14
-3.22115e-14
-3.20681e-14
-3.22115e-14
-3.20681e-14
-3.22115e-14
-3.20681e-14
-2.97525e-14
-2.97496e-14
-2.98528e-14
-2.988e-14
-2.99375e-14
-2.99671e-14
-3.00103e-14
-3.01027e-14
-3.01687e-14
-3.019e-14
-3.02064e-14
-3.02122e-14
-3.02449e-14
-3.02567e-14
-3.03729e-14
-3.0327e-14
-3.04451e-14
-3.04109e-14
-3.05053e-14
-3.04428e-14
-3.05786e-14
-3.05328e-14
-3.05636e-14
-3.05666e-14
-3.06636e-14
-3.06217e-14
-3.07225e-14
-3.0717e-14
-3.07844e-14
-3.07889e-14
-3.08726e-14
-3.08631e-14
-3.09127e-14
-3.09117e-14
-3.09535e-14
-3.09842e-14
-3.10147e-14
-3.10885e-14
-3.11422e-14
-3.11535e-14
-3.11957e-14
-3.11698e-14
-3.1206e-14
-3.12079e-14
-3.12442e-14
-3.122e-14
-3.13119e-14
-3.12786e-14
-3.13318e-14
-3.13331e-14
-3.1353e-14
-3.13882e-14
-3.14243e-14
-3.14212e-14
-3.14968e-14
-3.14568e-14
-3.15728e-14
-3.15183e-14
-3.15998e-14
-3.15488e-14
-3.15499e-14
-3.15741e-14
-3.16067e-14
-3.16294e-14
-3.16619e-14
-3.16607e-14
-3.16351e-14
-3.16944e-14
-3.16859e-14
-3.16788e-14
-3.17355e-14
-3.16638e-14
-3.17062e-14
-3.16444e-14
-3.1767e-14
-3.16783e-14
-3.17771e-14
-3.16789e-14
-3.17948e-14
-3.16597e-14
-3.18373e-14
-3.16764e-14
-3.18476e-14
-3.17263e-14
-3.18222e-14
-3.17243e-14
-3.18175e-14
-3.17307e-14
-3.18314e-14
-3.17909e-14
-3.18612e-14
-3.18054e-14
-3.18938e-14
-3.17571e-14
-3.19187e-14
-3.17606e-14
-3.19514e-14
-3.17851e-14
-3.19322e-14
-3.17552e-14
-3.19511e-14
-3.17914e-14
-3.20073e-14
-3.18048e-14
-3.20262e-14
-3.184e-14
-3.20683e-14
-3.18677e-14
-3.20274e-14
-3.18564e-14
-3.20088e-14
-3.1837e-14
-3.20274e-14
-3.17944e-14
-3.20077e-14
-3.18047e-14
-3.19942e-14
-3.18234e-14
-3.19856e-14
-3.18518e-14
-3.19645e-14
-3.18598e-14
-3.19771e-14
-3.18483e-14
-3.1977e-14
-3.18484e-14
-3.19642e-14
-3.18447e-14
-3.1986e-14
-3.18375e-14
-3.19957e-14
-3.18258e-14
-3.20096e-14
-3.17931e-14
-3.2013e-14
-3.18018e-14
-3.20216e-14
-3.18049e-14
-3.20197e-14
-3.18022e-14
-3.20232e-14
-3.18419e-14
-3.20147e-14
-3.18772e-14
-3.20173e-14
-3.18688e-14
-3.20148e-14
-3.1849e-14
-3.20238e-14
-3.18418e-14
-3.20281e-14
-3.18629e-14
-3.20355e-14
-3.18724e-14
-3.20459e-14
-3.1895e-14
-3.20508e-14
-3.19228e-14
-3.20498e-14
-3.19073e-14
-3.20594e-14
-3.18888e-14
-3.20716e-14
-3.18916e-14
-3.20703e-14
-3.1924e-14
-3.20629e-14
-3.19704e-14
-3.20733e-14
-3.19908e-14
-3.2085e-14
-3.19935e-14
-3.20733e-14
-3.19947e-14
-3.2071e-14
-3.19947e-14
-3.20781e-14
-3.19853e-14
-3.2078e-14
-3.19825e-14
-3.20709e-14
-3.19865e-14
-3.20647e-14
-3.19974e-14
-3.20592e-14
-3.19991e-14
-3.20541e-14
-3.2e-14
-3.20658e-14
-3.20083e-14
-3.2078e-14
-3.19912e-14
-3.20908e-14
-3.19895e-14
-3.20715e-14
-3.19949e-14
-3.20774e-14
-3.19914e-14
-3.20757e-14
-3.1987e-14
-3.20744e-14
-3.19819e-14
-3.209e-14
-3.19842e-14
-3.2098e-14
-3.19857e-14
-3.20984e-14
-3.19864e-14
-3.20994e-14
-3.19781e-14
-3.2097e-14
-3.19649e-14
-3.20912e-14
-3.19713e-14
-3.20821e-14
-3.19727e-14
-3.20979e-14
-3.19694e-14
-3.21063e-14
-3.19734e-14
-3.21153e-14
-3.19725e-14
-3.21211e-14
-3.19627e-14
-3.21277e-14
-3.19561e-14
-3.21352e-14
-3.19486e-14
-3.21436e-14
-3.19483e-14
-3.21449e-14
-3.19471e-14
-3.2147e-14
-3.19451e-14
-3.2146e-14
-3.19461e-14
-3.21539e-14
-3.19383e-14
-3.21546e-14
-3.19337e-14
-3.21562e-14
-3.19401e-14
-3.21626e-14
-3.19379e-14
-3.21697e-14
-3.1927e-14
-3.21738e-14
-3.19193e-14
-3.21747e-14
-3.19186e-14
-3.21765e-14
-3.19249e-14
-3.2179e-14
-3.19266e-14
-3.21783e-14
-3.19159e-14
-3.21784e-14
-3.19084e-14
-3.21792e-14
-3.19079e-14
-3.21769e-14
-3.19143e-14
-3.21828e-14
-3.19125e-14
-3.21817e-14
-3.19024e-14
-3.2185e-14
-3.18992e-14
-3.21851e-14
-3.1903e-14
-3.21914e-14
-3.19081e-14
-3.21871e-14
-3.19106e-14
-3.21776e-14
-3.19182e-14
-3.21854e-14
-3.19252e-14
-3.21916e-14
-3.19226e-14
-3.21855e-14
-3.19249e-14
-3.21834e-14
-3.19323e-14
-3.21836e-14
-3.19428e-14
-3.21876e-14
-3.19492e-14
-3.21849e-14
-3.1957e-14
-3.21806e-14
-3.1968e-14
-3.2182e-14
-3.19716e-14
-3.21853e-14
-3.19749e-14
-3.21889e-14
-3.19779e-14
-3.21926e-14
-3.19771e-14
-3.21949e-14
-3.19761e-14
-3.21957e-14
-3.198e-14
-3.22e-14
-3.19852e-14
-3.21978e-14
-3.19903e-14
-3.21975e-14
-3.19967e-14
-3.21974e-14
-3.20012e-14
-3.21958e-14
-3.20055e-14
-3.21928e-14
-3.20113e-14
-3.219e-14
-3.20168e-14
-3.21889e-14
-3.20205e-14
-3.21879e-14
-3.20241e-14
-3.21855e-14
-3.20291e-14
-3.21801e-14
-3.20355e-14
-3.21779e-14
-3.20402e-14
-3.21789e-14
-3.20409e-14
-3.21791e-14
-3.20431e-14
-3.21765e-14
-3.20474e-14
-3.21769e-14
-3.20494e-14
-3.21767e-14
-3.20484e-14
-3.21758e-14
-3.20501e-14
-3.21749e-14
-3.20519e-14
-3.21741e-14
-3.20542e-14
-3.21741e-14
-3.20543e-14
-3.21748e-14
-3.20531e-14
-3.21755e-14
-3.20532e-14
-3.21757e-14
-3.20532e-14
-3.21758e-14
-3.20525e-14
-3.2176e-14
-3.2053e-14
-3.21763e-14
-3.20541e-14
-3.21765e-14
-3.20527e-14
-3.21762e-14
-3.20512e-14
-3.21748e-14
-3.20522e-14
-3.21728e-14
-3.20543e-14
-3.21702e-14
-3.20545e-14
-3.21701e-14
-3.20536e-14
-3.21705e-14
-3.20526e-14
-3.21693e-14
-3.20522e-14
-3.21687e-14
-3.20517e-14
-3.21676e-14
-3.20512e-14
-3.21669e-14
-3.20513e-14
-3.21661e-14
-3.20502e-14
-3.21651e-14
-3.20497e-14
-3.21652e-14
-3.20496e-14
-3.21648e-14
-3.20495e-14
-3.21642e-14
-3.20492e-14
-3.21638e-14
-3.20481e-14
-3.21635e-14
-3.20472e-14
-3.21632e-14
-3.20466e-14
-3.21627e-14
-3.2046e-14
-3.21623e-14
-3.20451e-14
-3.21625e-14
-3.20438e-14
-3.21623e-14
-3.20432e-14
-3.21619e-14
-3.20433e-14
-3.21613e-14
-3.20434e-14
-3.21608e-14
-3.20431e-14
-3.21608e-14
-3.20428e-14
-3.21605e-14
-3.20425e-14
-3.21606e-14
-3.20424e-14
-3.21605e-14
-3.20424e-14
-3.21603e-14
-3.20421e-14
-3.21601e-14
-3.20417e-14
-3.21599e-14
-3.20415e-14
-3.21599e-14
-3.20415e-14
-3.21599e-14
-3.20415e-14
-3.21597e-14
-3.20415e-14
-3.21596e-14
-3.20413e-14
-3.21595e-14
-3.20411e-14
-3.21591e-14
-3.2041e-14
-3.21589e-14
-3.20412e-14
-3.2159e-14
-3.20413e-14
-3.21588e-14
-3.20413e-14
-3.21586e-14
-3.20413e-14
-3.21584e-14
-3.20413e-14
-3.21581e-14
-3.20412e-14
-3.2158e-14
-3.20411e-14
-3.21579e-14
-3.20411e-14
-3.21577e-14
-3.20412e-14
-3.21575e-14
-3.20412e-14
-3.21573e-14
-3.20411e-14
-3.21572e-14
-3.20411e-14
-3.21571e-14
-3.20412e-14
-3.21569e-14
-3.20411e-14
-3.21569e-14
-3.20411e-14
-3.21569e-14
-3.20411e-14
-3.21568e-14
-3.20412e-14
-3.21567e-14
-3.20412e-14
-3.21566e-14
-3.20413e-14
-3.21566e-14
-3.20413e-14
-3.21565e-14
-3.20413e-14
-3.21565e-14
-3.20414e-14
-3.21564e-14
-3.20414e-14
-3.21564e-14
-3.20414e-14
-3.21563e-14
-3.20414e-14
-3.21563e-14
-3.20414e-14
-3.21563e-14
-3.20414e-14
-3.21563e-14
-3.20414e-14
-3.21563e-14
-3.20414e-14
-3.21562e-14
-3.20414e-14
-3.21562e-14
-3.20414e-14
-3.21562e-14
-3.20414e-14
)
;

boundaryField
{
    walls
    {
        type            zeroGradient;
    }
    inlet
    {
        type            cyclic;
    }
    outlet
    {
        type            cyclic;
    }
    sides
    {
        type            empty;
    }
}


// ************************************************************************* //
