/*--------------------------------*- C++ -*----------------------------------*\
| =========                 |                                                 |
| \\      /  F ield         | OpenFOAM: The Open Source CFD Toolbox           |
|  \\    /   O peration     | Version:  2106                                  |
|   \\  /    A nd           | Website:  www.openfoam.com                      |
|    \\/     M anipulation  |                                                 |
\*---------------------------------------------------------------------------*/
FoamFile
{
    version     2.0;
    format      ascii;
    arch        "LSB;label=32;scalar=64";
    class       surfaceScalarField;
    location    "10080";
    object      phi;
}
// * * * * * * * * * * * * * * * * * * * * * * * * * * * * * * * * * * * * * //

dimensions      [0 3 -1 0 0 0 0];

oriented        oriented;

internalField   nonuniform List<scalar> 
3996
(
3.00006e-08
-3.94885e-18
2.33729e-22
1.32814e-22
1.25132e-22
9.22407e-08
-3.95274e-18
1.50751e-21
2.08569e-21
4.21279e-22
1.57955e-07
-3.95682e-18
1.56987e-21
4.11984e-21
4.45228e-22
2.27294e-07
-3.96099e-18
1.62271e-21
6.19941e-21
4.70485e-22
3.00415e-07
-3.96529e-18
1.67873e-21
8.411e-21
4.97118e-22
3.77483e-07
-3.96977e-18
1.73735e-21
1.05442e-20
5.25194e-22
4.58667e-07
-3.97428e-18
1.79765e-21
1.27443e-20
5.54793e-22
5.44143e-07
-3.97902e-18
1.85975e-21
1.50903e-20
5.85991e-22
6.34096e-07
-3.98397e-18
1.92395e-21
1.7344e-20
6.18868e-22
7.28715e-07
-3.9892e-18
1.99041e-21
1.99856e-20
6.53509e-22
8.28197e-07
-3.99453e-18
2.05923e-21
2.24153e-20
6.89994e-22
9.32748e-07
-3.99974e-18
2.1305e-21
2.5001e-20
7.28411e-22
1.04258e-06
-4.00496e-18
2.20428e-21
2.72774e-20
7.68849e-22
1.1579e-06
-4.01025e-18
2.28063e-21
2.96277e-20
8.11389e-22
1.27894e-06
-4.01566e-18
2.35957e-21
3.19447e-20
8.56121e-22
1.40593e-06
-4.0224e-18
2.44111e-21
3.47986e-20
9.03116e-22
1.53909e-06
-4.02865e-18
2.52529e-21
3.76034e-20
9.52414e-22
1.67866e-06
-4.03505e-18
2.61203e-21
4.0296e-20
1.00407e-21
1.82488e-06
-4.04167e-18
2.70123e-21
4.32375e-20
1.05811e-21
1.97798e-06
-4.04787e-18
2.79273e-21
4.57545e-20
1.11452e-21
2.13818e-06
-4.05444e-18
2.8863e-21
4.83825e-20
1.17329e-21
2.30571e-06
-4.06139e-18
2.98164e-21
5.14777e-20
1.23433e-21
2.48077e-06
-4.0693e-18
3.07836e-21
5.4094e-20
1.2975e-21
2.66355e-06
-4.07679e-18
3.17599e-21
5.71853e-20
1.36265e-21
2.85422e-06
-4.08447e-18
3.27389e-21
6.03788e-20
1.42956e-21
3.05293e-06
-4.09275e-18
3.37137e-21
6.41746e-20
1.49789e-21
3.25979e-06
-4.10135e-18
3.46765e-21
6.67691e-20
1.56728e-21
3.47488e-06
-4.11016e-18
3.56184e-21
6.99221e-20
1.6374e-21
3.69824e-06
-4.11838e-18
3.65297e-21
7.32749e-20
1.70776e-21
3.92988e-06
-4.12566e-18
3.74007e-21
7.64484e-20
1.77784e-21
4.16976e-06
-4.13445e-18
3.82219e-21
7.95307e-20
1.84711e-21
4.4178e-06
-4.14186e-18
3.89841e-21
8.23808e-20
1.9151e-21
4.6739e-06
-4.15117e-18
3.96786e-21
8.67428e-20
1.98132e-21
4.93792e-06
-4.16096e-18
4.02999e-21
9.01679e-20
2.04522e-21
5.20968e-06
-4.17129e-18
4.08431e-21
9.32723e-20
2.1066e-21
5.48902e-06
-4.18077e-18
4.13049e-21
9.77524e-20
2.16508e-21
5.77573e-06
-4.18858e-18
4.16831e-21
1.00373e-19
2.22039e-21
6.06962e-06
-4.19633e-18
4.19772e-21
1.0246e-19
2.27243e-21
6.3705e-06
-4.20261e-18
4.21889e-21
1.05401e-19
2.32119e-21
6.6782e-06
-4.21091e-18
4.23185e-21
1.06719e-19
2.36673e-21
6.99256e-06
-4.21892e-18
4.23724e-21
1.08644e-19
2.40915e-21
7.31344e-06
-4.22838e-18
4.23549e-21
1.11423e-19
2.44857e-21
7.64073e-06
-4.23734e-18
4.22732e-21
1.13907e-19
2.48516e-21
7.97434e-06
-4.24579e-18
4.21332e-21
1.17802e-19
2.5191e-21
8.31422e-06
-4.2547e-18
4.19404e-21
1.21184e-19
2.55054e-21
8.66033e-06
-4.26109e-18
4.17003e-21
1.23325e-19
2.5797e-21
9.01267e-06
-4.27068e-18
4.14168e-21
1.25983e-19
2.6069e-21
9.37126e-06
-4.2791e-18
4.10985e-21
1.26807e-19
2.63226e-21
9.73614e-06
-4.28795e-18
4.07495e-21
1.31371e-19
2.65608e-21
1.01074e-05
-4.29558e-18
4.03731e-21
1.33595e-19
2.67837e-21
1.04851e-05
-4.3022e-18
3.99731e-21
1.33815e-19
2.69957e-21
1.08693e-05
-4.30661e-18
3.95503e-21
1.36453e-19
2.72008e-21
1.12602e-05
-4.31569e-18
3.91031e-21
1.37942e-19
2.73987e-21
1.16579e-05
-4.32167e-18
3.8638e-21
1.39247e-19
2.75932e-21
1.20626e-05
-4.32478e-18
3.81558e-21
1.40306e-19
2.77817e-21
1.24744e-05
-4.33157e-18
3.76544e-21
1.42274e-19
2.79627e-21
1.28934e-05
-4.33897e-18
3.71358e-21
1.4491e-19
2.81415e-21
1.33199e-05
-4.34437e-18
3.66041e-21
1.44207e-19
2.83174e-21
1.37541e-05
-4.34878e-18
3.6052e-21
1.41418e-19
2.84958e-21
1.41961e-05
-4.35037e-18
3.54841e-21
1.36265e-19
2.86736e-21
1.46462e-05
-4.35737e-18
3.48938e-21
1.41021e-19
2.88573e-21
1.51045e-05
-4.36826e-18
3.42902e-21
1.46662e-19
2.90313e-21
1.55713e-05
-4.37443e-18
3.36723e-21
1.46935e-19
2.92014e-21
1.60467e-05
-4.37995e-18
3.30307e-21
1.48429e-19
2.93706e-21
1.65311e-05
-4.38223e-18
3.23688e-21
1.46203e-19
2.95375e-21
1.70247e-05
-4.38737e-18
3.16841e-21
1.44897e-19
2.97034e-21
1.75276e-05
-4.3902e-18
3.09807e-21
1.43609e-19
2.98686e-21
1.80401e-05
-4.3933e-18
3.02526e-21
1.40523e-19
3.00382e-21
1.85625e-05
-4.40055e-18
2.95005e-21
1.40632e-19
3.0224e-21
1.9095e-05
-4.40218e-18
2.87387e-21
1.3669e-19
3.04061e-21
1.96379e-05
-4.40512e-18
2.79692e-21
1.33369e-19
3.05787e-21
2.01914e-05
-4.40709e-18
2.71776e-21
1.27954e-19
3.07575e-21
2.07559e-05
-4.41023e-18
2.63539e-21
1.24039e-19
3.09576e-21
2.13314e-05
-4.41727e-18
2.55097e-21
1.22579e-19
3.11592e-21
2.19184e-05
-4.41896e-18
2.46472e-21
1.17247e-19
3.13555e-21
2.25171e-05
-4.42081e-18
2.37628e-21
1.10752e-19
3.15569e-21
2.31278e-05
-4.42553e-18
2.28558e-21
1.0459e-19
3.17513e-21
2.37508e-05
-4.41992e-18
2.19428e-21
9.603e-20
3.1946e-21
2.43863e-05
-4.41969e-18
2.099e-21
8.74133e-20
3.2176e-21
2.50347e-05
-4.41951e-18
2.00257e-21
7.92733e-20
3.24134e-21
2.56963e-05
-4.41934e-18
1.90655e-21
6.99444e-20
3.26379e-21
2.63713e-05
-4.41566e-18
1.81066e-21
6.06326e-20
3.2868e-21
2.70602e-05
-4.41549e-18
1.71404e-21
5.45725e-20
3.312e-21
2.77631e-05
-4.41171e-18
1.61845e-21
4.65984e-20
3.33766e-21
2.84805e-05
-4.41469e-18
1.52105e-21
4.7262e-20
3.364e-21
2.92126e-05
-4.42013e-18
1.42257e-21
4.49844e-20
3.38693e-21
2.99599e-05
-4.4233e-18
1.32538e-21
4.16158e-20
3.40731e-21
3.07225e-05
-4.41551e-18
1.22861e-21
2.72158e-20
3.4271e-21
3.1501e-05
-4.41855e-18
1.13223e-21
2.49666e-20
3.44813e-21
3.22956e-05
-4.40616e-18
1.03792e-21
5.30569e-21
3.46416e-21
3.31068e-05
-4.40063e-18
9.37802e-22
-8.08812e-21
3.4799e-21
3.39348e-05
-4.39269e-18
8.3674e-22
-2.34284e-20
3.49704e-21
3.478e-05
-4.37185e-18
7.35077e-22
-3.41117e-20
3.51085e-21
3.56429e-05
-4.37393e-18
6.23944e-22
-3.93088e-20
3.52484e-21
3.65239e-05
-4.36581e-18
5.11764e-22
-4.6096e-20
3.53588e-21
3.74233e-05
-4.37038e-18
3.94527e-22
-5.47154e-20
3.54193e-21
3.83415e-05
-4.36646e-18
2.74435e-22
-5.92148e-20
3.55007e-21
3.9279e-05
-4.36803e-18
1.47635e-22
-6.32952e-20
3.56166e-21
4.02361e-05
-4.36444e-18
2.29305e-23
-6.81728e-20
3.57315e-21
4.12134e-05
-4.35946e-18
-1.01852e-22
-7.02727e-20
3.58649e-21
4.22112e-05
-4.35148e-18
-2.27706e-22
-7.33257e-20
3.59874e-21
4.323e-05
-4.34652e-18
-3.60078e-22
-7.64079e-20
3.60921e-21
4.42702e-05
-4.33725e-18
-4.97946e-22
-8.20771e-20
3.62157e-21
4.53324e-05
-4.32525e-18
-6.40993e-22
-9.31113e-20
3.63626e-21
4.6417e-05
-4.32698e-18
-7.86647e-22
-1.02856e-19
3.64949e-21
4.75244e-05
-4.3146e-18
-9.35138e-22
-1.19055e-19
3.65999e-21
4.86552e-05
-4.31306e-18
-1.0909e-21
-1.23397e-19
3.67806e-21
4.98099e-05
-4.29771e-18
-1.24259e-21
-1.36556e-19
3.69755e-21
5.0989e-05
-4.30772e-18
-1.39928e-21
-1.42062e-19
3.70891e-21
5.21931e-05
-4.29149e-18
-1.53962e-21
-1.51298e-19
3.70998e-21
5.34226e-05
-4.2779e-18
-1.69751e-21
-1.69373e-19
3.71135e-21
5.4678e-05
-4.26751e-18
-1.84739e-21
-1.87541e-19
3.71566e-21
5.59601e-05
-4.25226e-18
-2.00298e-21
-2.11206e-19
3.72361e-21
5.72693e-05
-4.23305e-18
-2.15654e-21
-2.34556e-19
3.73901e-21
5.86062e-05
-4.21664e-18
-2.31043e-21
-2.61296e-19
3.74427e-21
5.99714e-05
-4.19905e-18
-2.47135e-21
-2.79895e-19
3.74648e-21
6.13655e-05
-4.19103e-18
-2.63411e-21
-3.04294e-19
3.74576e-21
6.27891e-05
-4.14055e-18
-2.78507e-21
-3.36864e-19
3.73519e-21
6.42429e-05
-4.11582e-18
-2.96528e-21
-3.6975e-19
3.71852e-21
6.57274e-05
-4.07741e-18
-3.13594e-21
-3.96175e-19
3.70762e-21
6.72435e-05
-4.04942e-18
-3.33539e-21
-4.24731e-19
3.69742e-21
6.87916e-05
-4.0217e-18
-3.52e-21
-4.57662e-19
3.66741e-21
7.03726e-05
-3.99379e-18
-3.72214e-21
-4.74528e-19
3.63111e-21
7.1987e-05
-3.96343e-18
-3.9266e-21
-5.07059e-19
3.58315e-21
7.36357e-05
-3.93079e-18
-4.13395e-21
-5.42077e-19
3.53555e-21
7.53193e-05
-3.88128e-18
-4.3506e-21
-5.75403e-19
3.48141e-21
7.70386e-05
-3.84977e-18
-4.63679e-21
-6.05556e-19
3.42262e-21
7.87942e-05
-3.82582e-18
-4.92786e-21
-6.27395e-19
3.35337e-21
8.05871e-05
-3.80777e-18
-5.20814e-21
-6.63091e-19
3.25016e-21
8.2418e-05
-3.77308e-18
-5.43758e-21
-6.95124e-19
3.14051e-21
8.42876e-05
-3.72396e-18
-5.66768e-21
-7.42498e-19
3.08791e-21
8.61969e-05
-3.69781e-18
-5.90162e-21
-7.35322e-19
3.03359e-21
8.81466e-05
-3.66515e-18
-6.1284e-21
-7.48168e-19
2.91453e-21
9.01375e-05
-3.63039e-18
-6.33768e-21
-7.64944e-19
2.77969e-21
9.21707e-05
-3.60951e-18
-6.59121e-21
-7.59153e-19
2.66987e-21
9.42468e-05
-3.61165e-18
-6.84572e-21
-7.66794e-19
2.54482e-21
9.63669e-05
-3.57845e-18
-7.02557e-21
-7.77923e-19
2.40628e-21
9.85319e-05
-3.56247e-18
-7.20224e-21
-7.97167e-19
2.25289e-21
0.000100743
-3.52675e-18
-7.34833e-21
-8.04573e-19
2.13197e-21
0.000103
-3.51165e-18
-7.58139e-21
-8.07057e-19
1.99664e-21
0.000105305
-3.47765e-18
-7.81697e-21
-8.32839e-19
1.82592e-21
0.00010766
-3.45786e-18
-8.07676e-21
-8.55182e-19
1.63644e-21
0.000110063
-3.44971e-18
-8.36457e-21
-8.61781e-19
1.46879e-21
0.000112518
-3.43197e-18
-8.54898e-21
-8.73229e-19
1.28182e-21
0.000115024
-3.40209e-18
-8.69879e-21
-8.95119e-19
1.08448e-21
0.000117584
-3.37521e-18
-8.94108e-21
-9.13038e-19
8.98759e-22
0.000120197
-3.35077e-18
-9.21381e-21
-9.43605e-19
6.89017e-22
0.000122866
-3.30812e-18
-9.56884e-21
-9.73635e-19
4.5668e-22
0.000125591
-3.29128e-18
-9.96913e-21
-9.91866e-19
2.21516e-22
0.000128373
-3.21402e-18
-1.02296e-20
-1.01596e-18
7.55522e-23
0.000131215
-3.19066e-18
-1.06126e-20
-1.02039e-18
-8.56647e-24
0.000134116
-3.16576e-18
-1.08196e-20
-1.04969e-18
-2.3939e-22
0.000137078
-3.16819e-18
-1.10364e-20
-1.0696e-18
-5.32347e-22
0.000140103
-3.13177e-18
-1.10411e-20
-1.10643e-18
-9.60349e-22
0.000143191
-3.11744e-18
-1.11046e-20
-1.12648e-18
-1.26798e-21
0.000146345
-3.07212e-18
-1.10832e-20
-1.15651e-18
-1.52495e-21
0.000149564
-3.02744e-18
-1.10127e-20
-1.18178e-18
-1.80045e-21
0.000152852
-2.99206e-18
-1.10448e-20
-1.20129e-18
-2.24953e-21
0.000156209
-2.95652e-18
-1.106e-20
-1.22118e-18
-2.73229e-21
0.000159636
-2.94591e-18
-1.11856e-20
-1.22969e-18
-3.02064e-21
0.000163136
-2.89886e-18
-1.11717e-20
-1.26114e-18
-3.44044e-21
0.000166708
-2.83696e-18
-1.10408e-20
-1.27075e-18
-3.87129e-21
0.000170356
-2.79602e-18
-1.09955e-20
-1.28514e-18
-4.20481e-21
0.000174081
-2.748e-18
-1.09184e-20
-1.30518e-18
-4.42099e-21
0.000177884
-2.71611e-18
-1.10584e-20
-1.3239e-18
-4.81555e-21
0.000181766
-2.69432e-18
-1.12071e-20
-1.33912e-18
-5.13358e-21
0.00018573
-2.67604e-18
-1.1434e-20
-1.34864e-18
-5.66427e-21
0.000189777
-2.63984e-18
-1.16933e-20
-1.36452e-18
-5.86921e-21
0.000193909
-2.57575e-18
-1.18625e-20
-1.38967e-18
-5.67418e-21
0.000198127
-2.53712e-18
-1.19964e-20
-1.39345e-18
-5.60304e-21
0.000202434
-2.50275e-18
-1.20956e-20
-1.4004e-18
-5.70698e-21
0.00020683
-2.42418e-18
-1.20332e-20
-1.41417e-18
-5.946e-21
0.000211319
-2.41165e-18
-1.24741e-20
-1.39753e-18
-6.10712e-21
0.000215901
-2.38483e-18
-1.25726e-20
-1.36378e-18
-6.4022e-21
0.000220579
-2.37058e-18
-1.23791e-20
-1.32589e-18
-7.3416e-21
0.000225354
-2.30673e-18
-1.21978e-20
-1.35493e-18
-8.62604e-21
0.000230229
-2.28756e-18
-1.23758e-20
-1.35794e-18
-9.41821e-21
0.000235206
-2.24759e-18
-1.22994e-20
-1.3611e-18
-1.0383e-20
0.000240286
-2.23746e-18
-1.24282e-20
-1.37721e-18
-1.12277e-20
0.000245472
-2.19348e-18
-1.24396e-20
-1.38728e-18
-1.22738e-20
0.000250766
-2.11506e-18
-1.24141e-20
-1.40057e-18
-1.30647e-20
0.00025617
-2.00557e-18
-1.28104e-20
-1.39688e-18
-1.37831e-20
0.000261686
-2.00394e-18
-1.39288e-20
-1.39627e-18
-1.36934e-20
0.000267317
-2.0088e-18
-1.44188e-20
-1.39179e-18
-1.3057e-20
0.000273064
-2.01547e-18
-1.41091e-20
-1.38442e-18
-1.3246e-20
0.00027893
-1.90552e-18
-1.26064e-20
-1.52268e-18
-1.42375e-20
0.000284918
-1.88939e-18
-1.30675e-20
-1.51029e-18
-1.29623e-20
0.00029103
-1.8635e-18
-1.30857e-20
-1.55941e-18
-1.2899e-20
0.000297267
-1.85749e-18
-1.3468e-20
-1.57251e-18
-1.27102e-20
0.000303634
-1.84726e-18
-1.35582e-20
-1.59947e-18
-1.34102e-20
0.000310132
-1.83818e-18
-1.3557e-20
-1.61429e-18
-1.43896e-20
0.000316764
-1.78263e-18
-1.40318e-20
-1.67035e-18
-1.56542e-20
0.000323532
-1.76429e-18
-1.52992e-20
-1.68324e-18
-1.4773e-20
0.00033044
-1.7447e-18
-1.66309e-20
-1.65627e-18
-1.42924e-20
0.000337489
-1.74196e-18
-1.78507e-20
-1.65229e-18
-1.48625e-20
0.000344683
-1.68209e-18
-1.87072e-20
-1.68031e-18
-1.59999e-20
0.000352024
-1.66423e-18
-2.07472e-20
-1.65801e-18
-1.4891e-20
0.000359516
-1.63887e-18
-2.22488e-20
-1.68368e-18
-1.51204e-20
0.000367161
-1.61663e-18
-2.22415e-20
-1.59852e-18
-1.31971e-20
0.000374961
-1.62003e-18
-2.32009e-20
-1.50018e-18
-1.29174e-20
0.000382921
-1.58453e-18
-2.32749e-20
-1.50163e-18
-1.44148e-20
0.000391042
-1.51294e-18
-2.29243e-20
-1.48178e-18
-1.48839e-20
0.000399329
-1.51044e-18
-2.20438e-20
-1.45841e-18
-1.74e-20
0.000407783
-1.44709e-18
-2.10382e-20
-1.45159e-18
-1.96474e-20
0.000416409
-1.40439e-18
-2.0663e-20
-1.43337e-18
-1.98979e-20
0.000425209
-1.3778e-18
-1.9628e-20
-1.29358e-18
-1.94169e-20
0.000434187
-1.32908e-18
-1.88315e-20
-1.3337e-18
-2.10049e-20
0.000443345
-1.24962e-18
-2.06412e-20
-1.27919e-18
-2.30927e-20
0.000452688
-1.22285e-18
-2.36644e-20
-1.22806e-18
-2.42422e-20
0.000462217
-1.17636e-18
-2.78349e-20
-1.21469e-18
-2.54762e-20
0.000471938
-1.16031e-18
-2.81074e-20
-1.2136e-18
-2.36994e-20
0.000481852
-1.11518e-18
-2.74464e-20
-1.18844e-18
-1.97544e-20
0.000491964
-1.19624e-18
-2.66831e-20
-1.24993e-18
-1.59201e-20
0.000502277
-1.13143e-18
-2.49941e-20
-1.11369e-18
-1.21206e-20
0.000512793
-1.13142e-18
-2.88352e-20
-1.17858e-18
-1.60946e-20
0.000523518
-1.30566e-18
-3.4927e-20
-1.12424e-18
-1.68228e-20
0.000534453
-1.24289e-18
-3.17056e-20
-1.15001e-18
-1.52847e-20
0.000545603
-1.24156e-18
-2.81141e-20
-1.17189e-18
-1.98852e-20
0.000556971
-1.16628e-18
-2.59352e-20
-1.15897e-18
-2.5854e-20
0.00056856
-1.25874e-18
-3.57151e-20
-1.18331e-18
-2.82292e-20
0.000580374
-1.08326e-18
-3.1458e-20
-1.24319e-18
-2.9651e-20
0.000592416
-1.1605e-18
-3.48036e-20
-1.10177e-18
-2.85735e-20
0.00060469
-1.1444e-18
-3.53943e-20
-1.10986e-18
-3.23688e-20
0.000617199
-1.17135e-18
-3.88773e-20
-1.1061e-18
-3.43881e-20
0.000629945
-1.02712e-18
-3.49079e-20
-1.10341e-18
-3.80099e-20
0.000642933
-1.00813e-18
-4.02844e-20
-1.10509e-18
-4.03942e-20
0.000656166
-9.63207e-19
-4.88567e-20
-1.07571e-18
-4.38525e-20
0.000669645
-1.01565e-18
-5.60488e-20
-9.45064e-19
-4.63216e-20
0.000683375
-1.01313e-18
-6.3164e-20
-9.68992e-19
-4.94402e-20
0.000697358
-8.95004e-19
-6.09508e-20
-9.85693e-19
-4.81829e-20
0.000711596
-8.29242e-19
-6.18489e-20
-9.5314e-19
-3.90164e-20
0.000726092
-7.30657e-19
-5.70713e-20
-1.00502e-18
-4.20247e-20
0.000740848
-8.86065e-19
-5.99881e-20
-9.09589e-19
-4.20212e-20
0.000755866
-9.63157e-19
-5.59434e-20
-9.28156e-19
-3.736e-20
0.000771147
-8.11497e-19
-4.61119e-20
-1.05698e-18
-2.49352e-20
0.000786693
-8.80865e-19
-5.17254e-20
-1.03324e-18
-1.29199e-20
0.000802504
-9.97083e-19
-5.65287e-20
-1.02746e-18
-6.52351e-21
0.000818581
-9.75483e-19
-4.50485e-20
-1.02684e-18
1.40291e-21
0.000834923
-9.7719e-19
-4.23204e-20
-1.02556e-18
5.85729e-21
0.00085153
-9.72597e-19
-5.02978e-20
-8.89705e-19
1.37635e-21
0.000868401
-1.11866e-18
-4.68994e-20
-6.92289e-19
-1.33313e-20
0.000885533
-1.06258e-18
-2.85384e-20
-8.64109e-19
-3.28753e-20
0.000902924
-8.84567e-19
-1.60149e-20
-8.16121e-19
-3.0834e-20
0.000920569
-7.4565e-19
-1.69954e-20
-6.24513e-19
-1.47407e-20
0.000938466
-6.51714e-19
-1.87042e-20
-6.54969e-19
-1.251e-20
0.000956607
-5.82323e-19
-2.64136e-20
-6.68332e-19
-3.8573e-21
0.000974987
-6.86338e-19
-3.34098e-20
-6.72234e-19
-9.87624e-21
0.000993599
-6.41892e-19
-2.22455e-20
-6.97807e-19
-8.73403e-21
0.00101243
-6.78255e-19
-1.09828e-20
-6.8048e-19
2.38732e-21
0.00103148
-1.43664e-20
-5.87062e-19
-2.10751e-21
-5.89017e-19
3.00006e-08
1.94049e-22
1.56862e-22
9.22407e-08
1.52595e-21
7.82405e-22
1.57955e-07
2.88793e-21
1.43244e-21
2.27294e-07
4.28704e-21
2.1262e-21
3.00415e-07
5.72225e-21
2.88102e-21
3.77483e-07
7.24357e-21
3.7359e-21
4.58667e-07
8.8799e-21
4.61489e-21
5.44143e-07
1.03438e-20
5.52591e-21
6.34096e-07
1.18245e-20
6.55588e-21
7.28715e-07
1.34443e-20
7.70079e-21
8.28197e-07
1.52103e-20
8.76643e-21
9.32748e-07
1.68158e-20
1.0154e-20
1.04258e-06
1.89079e-20
1.11733e-20
1.1579e-06
2.00934e-20
1.26943e-20
1.27894e-06
2.16436e-20
1.43178e-20
1.40593e-06
2.33599e-20
1.58162e-20
1.53909e-06
2.54002e-20
1.76016e-20
1.67866e-06
2.7344e-20
1.93233e-20
1.82488e-06
2.92696e-20
2.11514e-20
1.97798e-06
3.17743e-20
2.3043e-20
2.13818e-06
3.43874e-20
2.46516e-20
2.30571e-06
3.73414e-20
2.61813e-20
2.48077e-06
4.01531e-20
2.79246e-20
2.66355e-06
4.26979e-20
3.00465e-20
2.85422e-06
4.62728e-20
3.12688e-20
3.05293e-06
4.95929e-20
3.27938e-20
3.25979e-06
5.24927e-20
3.5798e-20
3.47488e-06
5.4631e-20
3.83243e-20
3.69824e-06
5.72068e-20
4.10002e-20
3.92988e-06
6.10847e-20
4.31413e-20
4.16976e-06
6.30136e-20
4.6301e-20
4.4178e-06
6.54702e-20
4.92422e-20
4.6739e-06
6.89717e-20
5.10345e-20
4.93792e-06
7.27998e-20
5.57195e-20
5.20968e-06
7.65922e-20
5.83871e-20
5.48902e-06
8.05575e-20
6.12147e-20
5.77573e-06
8.52328e-20
6.35599e-20
6.06962e-06
8.946e-20
6.65859e-20
6.3705e-06
9.09805e-20
7.06881e-20
6.6782e-06
9.45102e-20
7.37937e-20
6.99256e-06
9.74662e-20
7.68942e-20
7.31344e-06
1.01151e-19
8.015e-20
7.64073e-06
1.05171e-19
8.38308e-20
7.97434e-06
1.0873e-19
8.84405e-20
8.31422e-06
1.10932e-19
9.28542e-20
8.66033e-06
1.12655e-19
9.6985e-20
9.01267e-06
1.15263e-19
9.9587e-20
9.37126e-06
1.18873e-19
1.02011e-19
9.73614e-06
1.21056e-19
1.05721e-19
1.01074e-05
1.25478e-19
1.09502e-19
1.04851e-05
1.29554e-19
1.14404e-19
1.08693e-05
1.31815e-19
1.19066e-19
1.12602e-05
1.33712e-19
1.24658e-19
1.16579e-05
1.37602e-19
1.28355e-19
1.20626e-05
1.41975e-19
1.29499e-19
1.24744e-05
1.44219e-19
1.34106e-19
1.28934e-05
1.49428e-19
1.38768e-19
1.33199e-05
1.49878e-19
1.45519e-19
1.37541e-05
1.54055e-19
1.48471e-19
1.41961e-05
1.54625e-19
1.54718e-19
1.46462e-05
1.57764e-19
1.57378e-19
1.51045e-05
1.57616e-19
1.63512e-19
1.55713e-05
1.56124e-19
1.67794e-19
1.60467e-05
1.57888e-19
1.73163e-19
1.65311e-05
1.61023e-19
1.74435e-19
1.70247e-05
1.63861e-19
1.77902e-19
1.75276e-05
1.64788e-19
1.82721e-19
1.80401e-05
1.65322e-19
1.89202e-19
1.85625e-05
1.68429e-19
1.89976e-19
1.9095e-05
1.77568e-19
1.88256e-19
1.96379e-05
1.78973e-19
1.91656e-19
2.01914e-05
1.78001e-19
1.97893e-19
2.07559e-05
1.82483e-19
2.0024e-19
2.13314e-05
1.82925e-19
2.02821e-19
2.19184e-05
1.86477e-19
2.06107e-19
2.25171e-05
1.87778e-19
2.08054e-19
2.31278e-05
1.90098e-19
2.12601e-19
2.37508e-05
1.87164e-19
2.22109e-19
2.43863e-05
1.8825e-19
2.25005e-19
2.50347e-05
1.92704e-19
2.2691e-19
2.56963e-05
1.95437e-19
2.28983e-19
2.63713e-05
1.96145e-19
2.34807e-19
2.70602e-05
1.99454e-19
2.40131e-19
2.77631e-05
2.00361e-19
2.43811e-19
2.84805e-05
1.99289e-19
2.45156e-19
2.92126e-05
2.05202e-19
2.48154e-19
2.99599e-05
2.12012e-19
2.58575e-19
3.07225e-05
2.24758e-19
2.68141e-19
3.1501e-05
2.24228e-19
2.74644e-19
3.22956e-05
2.15991e-19
2.77625e-19
3.31068e-05
2.14598e-19
2.88313e-19
3.39348e-05
2.17394e-19
2.82052e-19
3.478e-05
2.15577e-19
2.84327e-19
3.56429e-05
2.13656e-19
2.83641e-19
3.65239e-05
2.14802e-19
2.81306e-19
3.74233e-05
2.08248e-19
2.88995e-19
3.83415e-05
1.98433e-19
2.98811e-19
3.9279e-05
1.9977e-19
3.02266e-19
4.02361e-05
2.02777e-19
3.05327e-19
4.12134e-05
2.06549e-19
3.07113e-19
4.22112e-05
2.03362e-19
3.10494e-19
4.323e-05
2.00445e-19
3.15207e-19
4.42702e-05
2.0461e-19
3.19864e-19
4.53324e-05
2.1554e-19
3.20944e-19
4.6417e-05
2.09605e-19
3.19603e-19
4.75244e-05
2.07503e-19
3.21572e-19
4.86552e-05
2.08819e-19
3.3482e-19
4.98099e-05
2.06436e-19
3.35511e-19
5.0989e-05
2.03633e-19
3.36983e-19
5.21931e-05
1.83334e-19
3.4699e-19
5.34226e-05
1.96437e-19
3.56013e-19
5.4678e-05
1.94241e-19
3.63941e-19
5.59601e-05
2.03808e-19
3.72017e-19
5.72693e-05
2.09031e-19
3.6884e-19
5.86062e-05
2.0478e-19
3.69109e-19
5.99714e-05
2.06818e-19
3.76885e-19
6.13655e-05
2.05287e-19
3.7175e-19
6.27891e-05
1.99029e-19
3.58811e-19
6.42429e-05
2.0609e-19
3.55644e-19
6.57274e-05
1.99092e-19
3.5474e-19
6.72435e-05
2.20984e-19
3.43152e-19
6.87916e-05
2.1185e-19
3.39311e-19
7.03726e-05
2.15079e-19
3.41304e-19
7.1987e-05
2.18772e-19
3.42641e-19
7.36357e-05
2.19238e-19
3.42426e-19
7.53193e-05
1.96847e-19
3.43788e-19
7.70386e-05
2.02319e-19
3.47416e-19
7.87942e-05
2.03693e-19
3.5333e-19
8.05871e-05
2.17596e-19
3.46682e-19
8.2418e-05
2.12276e-19
3.70713e-19
8.42876e-05
2.17942e-19
3.62469e-19
8.61969e-05
2.06511e-19
3.78157e-19
8.81466e-05
2.11221e-19
3.77308e-19
9.01375e-05
1.89818e-19
3.72543e-19
9.21707e-05
1.80798e-19
3.80632e-19
9.42468e-05
1.8505e-19
3.90341e-19
9.63669e-05
1.88781e-19
3.87779e-19
9.85319e-05
1.96045e-19
3.85655e-19
0.000100743
1.76141e-19
3.77883e-19
0.000103
1.69444e-19
3.81808e-19
0.000105305
1.7246e-19
3.64283e-19
0.00010766
1.61995e-19
3.54554e-19
0.000110063
1.85829e-19
3.51672e-19
0.000112518
1.93305e-19
3.53493e-19
0.000115024
1.71373e-19
3.48233e-19
0.000117584
1.63342e-19
3.41972e-19
0.000120197
1.33356e-19
3.35064e-19
0.000122866
1.28573e-19
3.29638e-19
0.000125591
1.33535e-19
3.44787e-19
0.000128373
1.03305e-19
3.36198e-19
0.000131215
1.1947e-19
3.18051e-19
0.000134116
1.05051e-19
3.18537e-19
0.000137078
1.28031e-19
2.92571e-19
0.000140103
1.25043e-19
2.94979e-19
0.000143191
1.25812e-19
2.87845e-19
0.000146345
1.34886e-19
2.73614e-19
0.000149564
1.14313e-19
2.48114e-19
0.000152852
1.18052e-19
2.41984e-19
0.000156209
9.20812e-20
2.55867e-19
0.000159636
8.76735e-20
2.33191e-19
0.000163136
1.10728e-19
2.09714e-19
0.000166708
1.13443e-19
2.02824e-19
0.000170356
1.24717e-19
2.24446e-19
0.000174081
1.04878e-19
2.0186e-19
0.000177884
1.01557e-19
2.24472e-19
0.000181766
6.86319e-20
2.01354e-19
0.00018573
3.9065e-20
2.22228e-19
0.000189777
4.00543e-20
2.45018e-19
0.000193909
6.01409e-20
2.23007e-19
0.000198127
6.72425e-20
2.03546e-19
0.000202434
8.61393e-20
1.75807e-19
0.00020683
5.52981e-20
1.92626e-19
0.000211319
7.0003e-20
2.07409e-19
0.000215901
7.98441e-20
1.65085e-19
0.000220579
2.97253e-20
1.60819e-19
0.000225354
4.78954e-23
1.8335e-19
0.000230229
6.38887e-21
1.50813e-19
0.000235206
-9.73531e-22
1.52126e-19
0.000240286
-1.65518e-20
1.20214e-19
0.000245472
-2.77207e-20
1.30662e-19
0.000250766
-3.58499e-20
1.20311e-19
0.00025617
-3.0175e-20
1.50132e-19
0.000261686
-1.84605e-20
1.51825e-19
0.000267317
-4.55698e-22
1.08929e-19
0.000273064
6.10349e-20
5.68206e-20
0.00027893
-7.36414e-21
8.11411e-20
0.000284918
5.68924e-21
4.65949e-20
0.00029103
-2.89165e-20
7.18692e-20
0.000297267
-3.29909e-20
1.20487e-20
0.000303634
-4.27095e-20
-3.71946e-20
0.000310132
-8.0914e-20
-6.56067e-20
0.000316764
-8.59483e-20
6.49262e-21
0.000323532
-7.93487e-20
-3.12666e-20
0.00033044
-7.18575e-20
-4.16368e-20
0.000337489
-8.26641e-20
-5.9896e-20
0.000344683
-1.08796e-19
-3.501e-22
0.000352024
-8.82603e-20
-5.39169e-20
0.000359516
-3.19636e-20
4.58395e-20
0.000367161
-8.75915e-20
4.07198e-20
0.000374961
-8.46839e-20
-5.08225e-21
0.000382921
-9.79934e-20
-7.80686e-21
0.000391042
-6.48832e-20
-7.10159e-20
0.000399329
-9.63425e-20
-9.15328e-20
0.000407783
-1.07054e-19
-1.09919e-19
0.000416409
-1.04263e-19
-1.4935e-19
0.000425209
-1.47458e-19
-1.04579e-19
0.000434187
-2.32596e-19
-1.75823e-19
0.000443345
-2.13987e-19
-1.55726e-19
0.000452688
-2.54963e-19
-1.91045e-19
0.000462217
-1.50327e-19
-1.98719e-19
0.000471938
-1.88085e-19
-2.4333e-19
0.000481852
-2.41121e-19
-2.55628e-19
0.000491964
-3.45218e-19
-2.80911e-19
0.000502277
-3.88199e-19
-2.96852e-19
0.000512793
-4.09429e-19
-2.78683e-19
0.000523518
-3.48195e-19
-2.54256e-19
0.000534453
-2.85864e-19
-4.54771e-19
0.000545603
-3.01317e-19
-4.68465e-19
0.000556971
-4.71654e-19
-3.41091e-19
0.00056856
-2.6915e-19
-2.82677e-19
0.000580374
-2.88246e-19
-2.80618e-19
0.000592416
-3.34862e-19
-3.31221e-19
0.00060469
-3.85409e-19
-3.36233e-19
0.000617199
-2.65349e-19
-3.44201e-19
0.000629945
-3.05484e-19
-3.43849e-19
0.000642933
-3.52181e-19
-3.83522e-19
0.000656166
-3.04759e-19
-4.16592e-19
0.000669645
-4.14741e-19
-3.41838e-19
0.000683375
-3.24959e-19
-1.96877e-19
0.000697358
-2.55212e-19
-9.16613e-20
0.000711596
-7.40126e-20
-2.99294e-19
0.000726092
-5.72484e-20
-2.69456e-19
0.000740848
-1.11893e-19
-8.90607e-20
0.000755866
-9.942e-20
-4.04738e-22
0.000771147
-7.97507e-20
-9.07515e-20
0.000786693
-1.52652e-19
-1.40312e-19
0.000802504
-1.5793e-19
-2.17893e-19
0.000818581
-2.25357e-19
-3.17465e-19
0.000834923
-3.4711e-19
-3.58492e-19
0.00085153
-2.99377e-19
-3.7177e-19
0.000868401
-3.60407e-19
-3.76777e-19
0.000885533
-4.06512e-19
-3.78631e-19
0.000902924
-4.01594e-19
-2.12272e-19
0.000920569
-3.6323e-19
-2.61389e-19
0.000938466
-3.6713e-19
-2.91113e-19
0.000956607
-2.80188e-19
-3.80957e-19
0.000974987
-2.70863e-19
-3.4586e-19
0.000993599
-2.78607e-19
-3.61375e-19
0.00101243
-4.33745e-19
-4.28029e-19
0.00103148
-5.55997e-19
-3.91194e-19
0.00103148
-6.3965e-19
-4.24542e-20
-5.5271e-19
-1.28222e-20
0.00101244
-6.94003e-19
-3.2622e-20
-5.57946e-19
-2.11075e-20
0.000993599
-6.07546e-19
-1.52888e-20
-6.07777e-19
-2.01121e-20
0.000974987
-5.83134e-19
-9.73947e-21
-4.80436e-19
1.28388e-21
0.000956607
-6.6373e-19
1.86352e-20
-4.80132e-19
2.23837e-21
0.000938466
-5.51769e-19
2.81475e-20
-6.14141e-19
-3.7942e-21
0.000920569
-4.89829e-19
2.27408e-20
-6.13393e-19
6.54808e-21
0.000902924
-5.48018e-19
1.90562e-20
-6.47802e-19
1.06202e-20
0.000885533
-4.93013e-19
1.56993e-20
-6.31004e-19
1.37002e-20
0.000868401
-4.71495e-19
9.67162e-21
-6.53697e-19
9.25668e-21
0.00085153
-6.53934e-19
1.90784e-21
-4.8788e-19
8.85488e-21
0.000834923
-6.12246e-19
-5.18485e-21
-5.06816e-19
-1.13208e-20
0.000818581
-6.28255e-19
5.54161e-21
-4.90302e-19
-1.11228e-20
0.000802504
-6.16516e-19
1.36795e-20
-5.7197e-19
-6.46242e-21
0.000786693
-3.79719e-19
1.78433e-20
-5.692e-19
5.7097e-22
0.000771147
-4.64773e-19
6.76453e-21
-4.35478e-19
4.43593e-21
0.000755866
-4.14209e-19
3.71097e-22
-4.20616e-19
1.21577e-22
0.000740848
-4.31234e-19
-2.27656e-21
-3.61201e-19
3.22772e-21
0.000726092
-4.19412e-19
-3.5242e-21
-4.25262e-19
2.74852e-21
0.000711596
-4.39382e-19
5.73317e-21
-4.04497e-19
-1.60835e-21
0.000697358
-4.36604e-19
9.60755e-21
-4.71343e-19
-1.38534e-20
0.000683375
-3.13483e-19
6.42716e-21
-3.65753e-19
-1.61963e-20
0.000669645
-3.77963e-19
-2.18467e-21
-3.51466e-19
-2.23756e-20
0.000656166
-3.78565e-19
1.94577e-22
-2.743e-19
-1.21427e-20
0.000642933
-2.6465e-19
1.96981e-21
-3.16884e-19
-7.26491e-21
0.000629945
-2.33192e-19
-1.05394e-21
-3.48251e-19
-4.30714e-22
0.000617199
-2.12339e-19
1.64202e-21
-3.3138e-19
3.63221e-21
0.00060469
-2.8977e-19
2.45628e-21
-3.31335e-19
8.51398e-22
0.000592416
-3.72476e-19
6.7521e-21
-3.43448e-19
-3.36643e-21
0.000580374
-3.82381e-19
8.73817e-21
-3.79913e-19
-6.48871e-21
0.00056856
-3.69805e-19
4.90586e-21
-3.32923e-19
-1.55286e-21
0.000556971
-4.25702e-19
4.69968e-21
-3.33259e-19
4.28896e-22
0.000545603
-2.74748e-19
8.4275e-21
-3.83147e-19
5.76413e-22
0.000534453
-3.07511e-19
3.55587e-21
-4.21836e-19
1.87355e-21
0.000523518
-4.7181e-19
1.5643e-21
-5.02396e-19
1.82027e-21
0.000512793
-4.36453e-19
6.31516e-21
-4.99323e-19
1.92398e-21
0.000502277
-3.85661e-19
6.77349e-21
-4.69995e-19
1.83905e-21
0.000491964
-4.2367e-19
7.62469e-21
-3.99556e-19
5.31293e-21
0.000481852
-4.07635e-19
6.52317e-21
-4.0343e-19
5.08313e-21
0.000471938
-3.45876e-19
5.48531e-21
-3.3512e-19
4.5738e-21
0.000462217
-3.27153e-19
3.73556e-21
-3.3328e-19
-7.37384e-22
0.000452688
-3.53639e-19
1.62987e-21
-3.61437e-19
-1.73009e-21
0.000443345
-2.77736e-19
2.79061e-21
-3.4728e-19
-2.93965e-21
0.000434187
-2.24485e-19
2.37121e-21
-3.33388e-19
-4.08386e-21
0.000425209
-3.33575e-19
1.72632e-21
-2.4588e-19
-2.35425e-21
0.000416409
-3.20425e-19
2.69066e-21
-2.89841e-19
-2.62774e-21
0.000407783
-2.54981e-19
3.03189e-21
-2.56014e-19
-2.73261e-21
0.000399329
-2.48547e-19
2.59356e-21
-2.97641e-19
-2.97374e-21
0.000391042
-2.18726e-19
2.43705e-21
-3.18242e-19
-1.45376e-21
0.000382921
-2.11132e-19
1.11934e-21
-3.11172e-19
-6.47376e-22
0.000374961
-1.62817e-19
7.22666e-22
-2.60997e-19
9.28595e-22
0.000367161
-2.68292e-19
1.16285e-21
-1.67007e-19
1.75815e-21
0.000359516
-2.60553e-19
1.91621e-21
-2.12789e-19
2.6174e-21
0.000352024
-1.89908e-19
3.59702e-21
-2.18347e-19
2.91049e-21
0.000344683
-1.91842e-19
1.48387e-21
-2.02101e-19
2.65674e-21
0.000337489
-1.77514e-19
5.06671e-22
-2.38936e-19
2.36135e-21
0.00033044
-1.15805e-19
3.95896e-22
-1.96016e-19
2.79068e-21
0.000323532
-1.99884e-19
-1.12428e-21
-8.31938e-20
2.99645e-21
0.000316764
-1.66931e-19
-7.02123e-22
-1.27308e-19
1.0677e-21
0.000310132
-1.60568e-19
-9.72027e-22
-1.43351e-19
2.87993e-22
0.000303634
-1.47117e-19
-1.28703e-21
-1.45226e-19
4.17654e-22
0.000297267
-1.81067e-19
-1.1967e-21
-1.26925e-19
2.87277e-22
0.00029103
-1.47391e-19
-1.18549e-21
-1.32701e-19
-3.08954e-22
0.000284918
-1.25312e-19
-9.39833e-22
-8.07855e-20
-1.06211e-21
0.00027893
-1.01277e-19
-3.1485e-22
-5.09306e-20
-1.71919e-21
0.000273064
-1.40705e-19
-1.10552e-22
-7.73514e-20
-2.20183e-21
0.000267317
-1.38578e-19
7.71809e-22
-7.71536e-20
-2.74836e-21
0.000261686
-9.00117e-20
1.68689e-21
-8.76708e-20
-2.39933e-21
0.00025617
-8.79061e-20
1.82068e-21
-8.68917e-20
-2.39619e-21
0.000250766
-3.76639e-20
1.89764e-21
-1.1811e-19
-2.70456e-21
0.000245472
-5.06391e-20
1.59873e-21
-9.30581e-20
-1.8558e-21
0.000240286
-9.2717e-20
1.0439e-21
-8.86785e-20
-1.3866e-21
0.000235206
-1.03997e-19