/*--------------------------------*- C++ -*----------------------------------*\
| =========                 |                                                 |
| \\      /  F ield         | OpenFOAM: The Open Source CFD Toolbox           |
|  \\    /   O peration     | Version:  2106                                  |
|   \\  /    A nd           | Website:  www.openfoam.com                      |
|    \\/     M anipulation  |                                                 |
\*---------------------------------------------------------------------------*/
FoamFile
{
    version     2.0;
    format      ascii;
    arch        "LSB;label=32;scalar=64";
    class       volSymmTensorField;
    location    "10080";
    object      turbulenceProperties:R;
}
// * * * * * * * * * * * * * * * * * * * * * * * * * * * * * * * * * * * * * //

dimensions      [0 2 -2 0 0 0 0];

internalField   nonuniform List<symmTensor> 
2000
(
(2.28093e-07 -1.50933e-11 -2.79347e-14 2.28093e-07 -6.81468e-26 2.28093e-07)
(2.28093e-07 -1.50933e-11 -2.79347e-14 2.28093e-07 -5.4162e-26 2.28093e-07)
(3.94903e-08 -1.50532e-11 -8.41073e-14 3.94903e-08 -1.88991e-26 3.94903e-08)
(3.94903e-08 -1.50532e-11 -8.41073e-14 3.94903e-08 -3.37814e-26 3.94903e-08)
(5.41111e-08 -6.10714e-11 -4.73452e-13 5.41111e-08 -4.22796e-26 5.41111e-08)
(5.41111e-08 -6.10714e-11 -4.73452e-13 5.41111e-08 -1.31305e-26 5.41111e-08)
(1.68269e-07 -4.0437e-10 -3.19336e-12 1.68269e-07 -1.16262e-25 1.68269e-07)
(1.68269e-07 -4.0437e-10 -3.19336e-12 1.68269e-07 -8.89015e-26 1.68269e-07)
(4.34963e-07 -1.85182e-09 -1.4897e-11 4.34963e-07 -1.30734e-24 4.34963e-07)
(4.34963e-07 -1.85182e-09 -1.4897e-11 4.34963e-07 -4.16185e-25 4.34963e-07)
(9.34292e-07 -6.28912e-09 -5.15373e-11 9.34292e-07 -4.86794e-24 9.34292e-07)
(9.34292e-07 -6.28912e-09 -5.15373e-11 9.34292e-07 -1.44406e-24 9.34292e-07)
(1.76377e-06 -1.73934e-08 -1.45193e-10 1.76377e-06 -1.39169e-23 1.76377e-06)
(1.76377e-06 -1.73934e-08 -1.45193e-10 1.76377e-06 -4.08291e-24 1.76377e-06)
(3.03753e-06 -4.15629e-08 -3.53425e-10 3.03753e-06 -3.40905e-23 3.03753e-06)
(3.03753e-06 -4.15629e-08 -3.53425e-10 3.03753e-06 -9.96658e-24 3.03753e-06)
(4.88696e-06 -8.90988e-08 -7.71779e-10 4.88696e-06 -7.47681e-23 4.88696e-06)
(4.88696e-06 -8.90988e-08 -7.71779e-10 4.88696e-06 -2.18223e-23 4.88696e-06)
(7.46174e-06 -1.75675e-07 -1.5501e-09 7.46174e-06 -1.50823e-22 7.46174e-06)
(7.46174e-06 -1.75675e-07 -1.5501e-09 7.46174e-06 -4.39668e-23 7.46174e-06)
(1.0931e-05 -3.24134e-07 -2.9134e-09 1.0931e-05 -2.84666e-22 1.0931e-05)
(1.0931e-05 -3.24134e-07 -2.9134e-09 1.0931e-05 -8.28882e-23 1.0931e-05)
(1.54846e-05 -5.66643e-07 -5.18808e-09 1.54846e-05 -5.08868e-22 1.54846e-05)
(1.54846e-05 -5.66643e-07 -5.18808e-09 1.54846e-05 -1.47965e-22 1.54846e-05)
(2.13344e-05 -9.47231e-07 -8.83429e-09 2.13344e-05 -8.69386e-22 2.13344e-05)
(2.13344e-05 -9.47231e-07 -8.83429e-09 2.13344e-05 -2.52404e-22 2.13344e-05)
(2.87153e-05 -1.52472e-06 -1.4485e-08 2.87153e-05 -1.42917e-21 2.87153e-05)
(2.87153e-05 -1.52472e-06 -1.4485e-08 2.87153e-05 -4.14534e-22 2.87153e-05)
(3.78861e-05 -2.37602e-06 -2.29926e-08 3.78861e-05 -2.27219e-21 3.78861e-05)
(3.78861e-05 -2.37602e-06 -2.29926e-08 3.78861e-05 -6.58596e-22 3.78861e-05)
(4.91308e-05 -3.59978e-06 -3.54824e-08 4.91308e-05 -3.50895e-21 4.91308e-05)
(4.91308e-05 -3.59978e-06 -3.54824e-08 4.91308e-05 -1.01701e-21 4.91308e-05)
(6.2758e-05 -5.32016e-06 -5.34135e-08 6.2758e-05 -5.28143e-21 6.2758e-05)
(6.2758e-05 -5.32016e-06 -5.34135e-08 6.2758e-05 -1.53126e-21 6.2758e-05)
(7.91011e-05 -7.69071e-06 -7.86446e-08 7.91011e-05 -7.76358e-21 7.91011e-05)
(7.91011e-05 -7.69071e-06 -7.86446e-08 7.91011e-05 -2.24806e-21 7.91011e-05)
(9.85172e-05 -1.08979e-05 -1.13503e-07 9.85172e-05 -1.117e-20 9.85172e-05)
(9.85172e-05 -1.08979e-05 -1.13503e-07 9.85172e-05 -3.22627e-21 9.85172e-05)
(0.000121385 -1.51643e-05 -1.60853e-07 0.000121385 -1.57494e-20 0.000121385)
(0.000121385 -1.51643e-05 -1.60853e-07 0.000121385 -4.54853e-21 0.000121385)
(0.000148099 -2.07501e-05 -2.24155e-07 0.000148099 -2.17801e-20 0.000148099)
(0.000148099 -2.07501e-05 -2.24155e-07 0.000148099 -6.28579e-21 0.000148099)
(0.00017907 -2.79536e-05 -3.07513e-07 0.00017907 -2.95703e-20 0.00017907)
(0.00017907 -2.79536e-05 -3.07513e-07 0.00017907 -8.51188e-21 0.00017907)
(0.000214712 -3.71089e-05 -4.15694e-07 0.000214712 -3.94339e-20 0.000214712)
(0.000214712 -3.71089e-05 -4.15694e-07 0.000214712 -1.13298e-20 0.000214712)
(0.000255438 -4.85813e-05 -5.54122e-07 0.000255438 -5.1669e-20 0.000255438)
(0.000255438 -4.85813e-05 -5.54122e-07 0.000255438 -1.48132e-20 0.000255438)
(0.000301645 -6.27584e-05 -7.28811e-07 0.000301645 -6.65157e-20 0.000301645)
(0.000301645 -6.27584e-05 -7.28811e-07 0.000301645 -1.90446e-20 0.000301645)
(0.000353706 -8.00381e-05 -9.46265e-07 0.000353706 -8.41422e-20 0.000353706)
(0.000353706 -8.00381e-05 -9.46265e-07 0.000353706 -2.40095e-20 0.000353706)
(0.000411952 -0.000100813 -1.2133e-06 0.000411952 -1.04561e-19 0.000411952)
(0.000411952 -0.000100813 -1.2133e-06 0.000411952 -2.97234e-20 0.000411952)
(0.00047666 -0.00012545 -1.53684e-06 0.00047666 -1.2766e-19 0.00047666)
(0.00047666 -0.00012545 -1.53684e-06 0.00047666 -3.61842e-20 0.00047666)
(0.000548031 -0.00015427 -1.92359e-06 0.000548031 -1.53107e-19 0.000548031)
(0.000548031 -0.00015427 -1.92359e-06 0.000548031 -4.3156e-20 0.000548031)
(0.000626184 -0.000187529 -2.3798e-06 0.000626184 -1.803e-19 0.000626184)
(0.000626184 -0.000187529 -2.3798e-06 0.000626184 -5.05825e-20 0.000626184)
(0.000711135 -0.00022539 -2.91089e-06 0.000711135 8.9307e-22 0.000711135)
(0.000711135 -0.00022539 -2.91089e-06 0.000711135 -5.81888e-20 0.000711135)
(0.000802792 -0.000267915 -3.52118e-06 0.000802792 5.72508e-21 0.000802792)
(0.000802792 -0.000267915 -3.52118e-06 0.000802792 -6.57246e-20 0.000802792)
(0.000900946 -0.000315049 -4.21361e-06 0.000900946 3.78272e-20 0.000900946)
(0.000900946 -0.000315049 -4.21361e-06 0.000900946 -7.28878e-20 0.000900946)
(0.00100528 -0.000366616 -4.98965e-06 0.00100528 6.75261e-20 0.00100528)
(0.00100528 -0.000366616 -4.98965e-06 0.00100528 -7.92316e-20 0.00100528)
(0.00111535 -0.000422326 -5.84911e-06 0.00111535 1.04479e-19 0.00111535)
(0.00111535 -0.000422326 -5.84911e-06 0.00111535 -8.46759e-20 0.00111535)
(0.00123063 -0.000481784 -6.79029e-06 0.00123063 1.49043e-19 0.00123063)
(0.00123063 -0.000481784 -6.79029e-06 0.00123063 -8.91479e-20 0.00123063)
(0.00135051 -0.000544509 -7.81001e-06 0.00135051 2.0188e-19 0.00135051)
(0.00135051 -0.000544509 -7.81001e-06 0.00135051 -9.2214e-20 0.00135051)
(0.0014743 -0.000609958 -8.90386e-06 0.0014743 2.6225e-19 0.0014743)
(0.0014743 -0.000609958 -8.90386e-06 0.0014743 -9.32299e-20 0.0014743)
(0.00160127 -0.000677546 -1.00665e-05 0.00160127 3.30194e-19 0.00160127)
(0.00160127 -0.000677546 -1.00665e-05 0.00160127 -9.44183e-20 0.00160127)
(0.00173068 -0.000746678 -1.12918e-05 0.00173068 4.04629e-19 0.00173068)
(0.00173068 -0.000746678 -1.12918e-05 0.00173068 -9.50361e-20 0.00173068)
(0.00186177 -0.000816766 -1.25733e-05 0.00186177 4.83255e-19 0.00186177)
(0.00186177 -0.000816766 -1.25733e-05 0.00186177 -9.35305e-20 0.00186177)
(0.00199381 -0.000887249 -1.39046e-05 0.00199381 5.63904e-19 0.00199381)
(0.00199381 -0.000887249 -1.39046e-05 0.00199381 -9.27556e-20 0.00199381)
(0.00212609 -0.000957614 -1.5279e-05 0.00212609 6.44717e-19 0.00212609)
(0.00212609 -0.000957614 -1.5279e-05 0.00212609 -9.19838e-20 0.00212609)
(0.00225797 -0.0010274 -1.66906e-05 0.00225797 7.27016e-19 0.00225797)
(0.00225797 -0.0010274 -1.66906e-05 0.00225797 -9.39424e-20 0.00225797)
(0.00238885 -0.00109619 -1.81335e-05 0.00238885 8.08945e-19 0.00238885)
(0.00238885 -0.00109619 -1.81335e-05 0.00238885 -9.54376e-20 0.00238885)
(0.00251819 -0.00116366 -1.96026e-05 0.00251819 8.93991e-19 0.00251819)
(0.00251819 -0.00116366 -1.96026e-05 0.00251819 -9.72173e-20 0.00251819)
(0.00264553 -0.00122953 -2.10934e-05 0.00264553 9.75499e-19 0.00264553)
(0.00264553 -0.00122953 -2.10934e-05 0.00264553 -1.05928e-19 0.00264553)
(0.00277047 -0.00129357 -2.26018e-05 0.00277047 1.04776e-18 0.00277047)
(0.00277047 -0.00129357 -2.26018e-05 0.00277047 -1.13979e-19 0.00277047)
(0.00289266 -0.00135561 -2.41246e-05 0.00289266 1.12088e-18 0.00289266)
(0.00289266 -0.00135561 -2.41246e-05 0.00289266 -1.13245e-19 0.00289266)
(0.00301184 -0.00141554 -2.56589e-05 0.00301184 7.10899e-19 0.00301184)
(0.00301184 -0.00141554 -2.56589e-05 0.00301184 -1.21461e-19 0.00301184)
(0.00312779 -0.00147326 -2.72025e-05 0.00312779 9.26106e-20 0.00312779)
(0.00312779 -0.00147326 -2.72025e-05 0.00312779 -1.43292e-19 0.00312779)
(0.00324033 -0.00152875 -2.87536e-05 0.00324033 -3.81359e-20 0.00324033)
(0.00324033 -0.00152875 -2.87536e-05 0.00324033 -1.57979e-19 0.00324033)
(0.00334937 -0.00158198 -3.03109e-05 0.00334937 -3.92842e-20 0.00334937)
(0.00334937 -0.00158198 -3.03109e-05 0.00334937 -1.75085e-19 0.00334937)
(0.00345481 -0.00163296 -3.18735e-05 0.00345481 -6.57747e-20 0.00345481)
(0.00345481 -0.00163296 -3.18735e-05 0.00345481 -1.99271e-19 0.00345481)
(0.00355661 -0.00168171 -3.34405e-05 0.00355661 -7.59424e-20 0.00355661)
(0.00355661 -0.00168171 -3.34405e-05 0.00355661 -2.22575e-19 0.00355661)
(0.00365478 -0.0017283 -3.50118e-05 0.00365478 -8.0121e-20 0.00365478)
(0.00365478 -0.0017283 -3.50118e-05 0.00365478 -2.5673e-19 0.00365478)
(0.00374932 -0.00177276 -3.65872e-05 0.00374932 -1.05683e-19 0.00374932)
(0.00374932 -0.00177276 -3.65872e-05 0.00374932 -2.90733e-19 0.00374932)
(0.00384027 -0.00181517 -3.81667e-05 0.00384027 -1.36585e-19 0.00384027)
(0.00384027 -0.00181517 -3.81667e-05 0.00384027 -3.16803e-19 0.00384027)
(0.00392769 -0.00185559 -3.97506e-05 0.00392769 -1.66483e-19 0.00392769)
(0.00392769 -0.00185559 -3.97506e-05 0.00392769 -3.55927e-19 0.00392769)
(0.00401164 -0.0018941 -4.13392e-05 0.00401164 -1.91574e-19 0.00401164)
(0.00401164 -0.0018941 -4.13392e-05 0.00401164 -4.25145e-19 0.00401164)
(0.00409221 -0.00193077 -4.29331e-05 0.00409221 -2.00066e-19 0.00409221)
(0.00409221 -0.00193077 -4.29331e-05 0.00409221 -5.0169e-19 0.00409221)
(0.00416949 -0.00196568 -4.45328e-05 0.00416949 -2.32256e-19 0.00416949)
(0.00416949 -0.00196568 -4.45328e-05 0.00416949 -5.49563e-19 0.00416949)
(0.00424357 -0.00199892 -4.6139e-05 0.00424357 -2.79719e-19 0.00424357)
(0.00424357 -0.00199892 -4.6139e-05 0.00424357 -5.89954e-19 0.00424357)
(0.00431455 -0.00203055 -4.77523e-05 0.00431455 -3.36472e-19 0.00431455)
(0.00431455 -0.00203055 -4.77523e-05 0.00431455 -6.66795e-19 0.00431455)
(0.00438253 -0.00206064 -4.93734e-05 0.00438253 -3.93375e-19 0.00438253)
(0.00438253 -0.00206064 -4.93734e-05 0.00438253 -7.41144e-19 0.00438253)
(0.00444763 -0.00208928 -5.10031e-05 0.00444763 -4.27074e-19 0.00444763)
(0.00444763 -0.00208928 -5.10031e-05 0.00444763 -8.02804e-19 0.00444763)
(0.00450994 -0.00211654 -5.26422e-05 0.00450994 -4.80225e-19 0.00450994)
(0.00450994 -0.00211654 -5.26422e-05 0.00450994 -8.87697e-19 0.00450994)
(0.00456956 -0.00214247 -5.42916e-05 0.00456956 -5.15652e-19 0.00456956)
(0.00456956 -0.00214247 -5.42916e-05 0.00456956 -1.0056e-18 0.00456956)
(0.00462661 -0.00216714 -5.59519e-05 0.00462661 -5.76974e-19 0.00462661)
(0.00462661 -0.00216714 -5.59519e-05 0.00462661 -1.10674e-18 0.00462661)
(0.00468117 -0.00219063 -5.7624e-05 0.00468117 -6.54211e-19 0.00468117)
(0.00468117 -0.00219063 -5.7624e-05 0.00468117 -1.18769e-18 0.00468117)
(0.00473335 -0.00221297 -5.93087e-05 0.00473335 -6.97459e-19 0.00473335)
(0.00473335 -0.00221297 -5.93087e-05 0.00473335 -1.28705e-18 0.00473335)
(0.00478325 -0.00223423 -6.10068e-05 0.00478325 -7.58843e-19 0.00478325)
(0.00478325 -0.00223423 -6.10068e-05 0.00478325 -1.37534e-18 0.00478325)
(0.00483095 -0.00225447 -6.27191e-05 0.00483095 -7.9675e-19 0.00483095)
(0.00483095 -0.00225447 -6.27191e-05 0.00483095 -1.50091e-18 0.00483095)
(0.00487655 -0.00227373 -6.44464e-05 0.00487655 -8.63399e-19 0.00487655)
(0.00487655 -0.00227373 -6.44464e-05 0.00487655 -1.67014e-18 0.00487655)
(0.00492013 -0.00229206 -6.61895e-05 0.00492013 -9.60047e-19 0.00492013)
(0.00492013 -0.00229206 -6.61895e-05 0.00492013 -1.81861e-18 0.00492013)
(0.00496177 -0.00230951 -6.79492e-05 0.00496177 -1.00378e-18 0.00496177)
(0.00496177 -0.00230951 -6.79492e-05 0.00496177 -1.89972e-18 0.00496177)
(0.00500156 -0.00232611 -6.97262e-05 0.00500156 -1.12014e-18 0.00500156)
(0.00500156 -0.00232611 -6.97262e-05 0.00500156 -1.97164e-18 0.00500156)
(0.00503956 -0.00234191 -7.15213e-05 0.00503956 -1.18143e-18 0.00503956)
(0.00503956 -0.00234191 -7.15213e-05 0.00503956 -2.09073e-18 0.00503956)
(0.00507586 -0.00235694 -7.33352e-05 0.00507586 -1.18171e-18 0.00507586)
(0.00507586 -0.00235694 -7.33352e-05 0.00507586 -2.21288e-18 0.00507586)
(0.00511052 -0.00237125 -7.51687e-05 0.00511052 -1.31271e-18 0.00511052)
(0.00511052 -0.00237125 -7.51687e-05 0.00511052 -2.34315e-18 0.00511052)
(0.00514361 -0.00238486 -7.70225e-05 0.00514361 -1.43588e-18 0.00514361)
(0.00514361 -0.00238486 -7.70225e-05 0.00514361 -2.46786e-18 0.00514361)
(0.00517518 -0.0023978 -7.88974e-05 0.00517518 -1.47673e-18 0.00517518)
(0.00517518 -0.0023978 -7.88974e-05 0.00517518 -2.54515e-18 0.00517518)
(0.00520531 -0.00241011 -8.07939e-05 0.00520531 -1.52371e-18 0.00520531)
(0.00520531 -0.00241011 -8.07939e-05 0.00520531 -2.67024e-18 0.00520531)
(0.00523405 -0.00242181 -8.2713e-05 0.00523405 -1.6174e-18 0.00523405)
(0.00523405 -0.00242181 -8.2713e-05 0.00523405 -2.88985e-18 0.00523405)
(0.00526145 -0.00243293 -8.46551e-05 0.00526145 -1.66151e-18 0.00526145)
(0.00526145 -0.00243293 -8.46551e-05 0.00526145 -3.03659e-18 0.00526145)
(0.00528756 -0.00244349 -8.66211e-05 0.00528756 -1.74413e-18 0.00528756)
(0.00528756 -0.00244349 -8.66211e-05 0.00528756 -3.09839e-18 0.00528756)
(0.00531244 -0.00245352 -8.86115e-05 0.00531244 -1.94963e-18 0.00531244)
(0.00531244 -0.00245352 -8.86115e-05 0.00531244 -3.30348e-18 0.00531244)
(0.00533613 -0.00246305 -9.06272e-05 0.00533613 -1.98865e-18 0.00533613)
(0.00533613 -0.00246305 -9.06272e-05 0.00533613 -3.57105e-18 0.00533613)
(0.00535867 -0.00247208 -9.26686e-05 0.00535867 -2.06874e-18 0.00535867)
(0.00535867 -0.00247208 -9.26686e-05 0.00535867 -3.73611e-18 0.00535867)
(0.00538011 -0.00248064 -9.47365e-05 0.00538011 -2.23159e-18 0.00538011)
(0.00538011 -0.00248064 -9.47365e-05 0.00538011 -3.89809e-18 0.00538011)
(0.00540049 -0.00248874 -9.68316e-05 0.00540049 -2.25066e-18 0.00540049)
(0.00540049 -0.00248874 -9.68316e-05 0.00540049 -4.06036e-18 0.00540049)
(0.00541984 -0.00249642 -9.89545e-05 0.00541984 -2.40682e-18 0.00541984)
(0.00541984 -0.00249642 -9.89545e-05 0.00541984 -4.14266e-18 0.00541984)
(0.0054382 -0.00250367 -0.000101106 0.0054382 -2.36232e-18 0.0054382)
(0.0054382 -0.00250367 -0.000101106 0.0054382 -4.22449e-18 0.0054382)
(0.00545561 -0.00251053 -0.000103286 0.00545561 -2.43228e-18 0.00545561)
(0.00545561 -0.00251053 -0.000103286 0.00545561 -4.49227e-18 0.00545561)
(0.0054721 -0.00251699 -0.000105496 0.0054721 -2.64306e-18 0.0054721)
(0.0054721 -0.00251699 -0.000105496 0.0054721 -4.65975e-18 0.0054721)
(0.00548769 -0.00252308 -0.000107736 0.00548769 -2.81444e-18 0.00548769)
(0.00548769 -0.00252308 -0.000107736 0.00548769 -4.77682e-18 0.00548769)
(0.00550242 -0.0025288 -0.000110007 0.00550242 -2.9558e-18 0.00550242)
(0.00550242 -0.0025288 -0.000110007 0.00550242 -4.95733e-18 0.00550242)
(0.00551631 -0.00253418 -0.00011231 0.00551631 -3.02863e-18 0.00551631)
(0.00551631 -0.00253418 -0.00011231 0.00551631 -5.2244e-18 0.00551631)
(0.0055294 -0.00253921 -0.000114645 0.0055294 -3.21047e-18 0.0055294)
(0.0055294 -0.00253921 -0.000114645 0.0055294 -5.55181e-18 0.0055294)
(0.0055417 -0.00254392 -0.000117012 0.0055417 -3.31785e-18 0.0055417)
(0.0055417 -0.00254392 -0.000117012 0.0055417 -5.81726e-18 0.0055417)
(0.00555324 -0.00254831 -0.000119413 0.00555324 -3.41495e-18 0.00555324)
(0.00555324 -0.00254831 -0.000119413 0.00555324 -5.99172e-18 0.00555324)
(0.00556404 -0.00255239 -0.000121848 0.00556404 -3.53469e-18 0.00556404)
(0.00556404 -0.00255239 -0.000121848 0.00556404 -6.07777e-18 0.00556404)
(0.00557413 -0.00255617 -0.000124317 0.00557413 -3.78807e-18 0.00557413)
(0.00557413 -0.00255617 -0.000124317 0.00557413 -6.4497e-18 0.00557413)
(0.00558351 -0.00255966 -0.000126821 0.00558351 -3.77636e-18 0.00558351)
(0.00558351 -0.00255966 -0.000126821 0.00558351 -6.86992e-18 0.00558351)
(0.00559222 -0.00256287 -0.000129361 0.00559222 -3.9314e-18 0.00559222)
(0.00559222 -0.00256287 -0.000129361 0.00559222 -7.0612e-18 0.00559222)
(0.00560026 -0.00256579 -0.000131936 0.00560026 -4.10754e-18 0.00560026)
(0.00560026 -0.00256579 -0.000131936 0.00560026 -7.05515e-18 0.00560026)
(0.00560766 -0.00256845 -0.000134549 0.00560766 -4.19169e-18 0.00560766)
(0.00560766 -0.00256845 -0.000134549 0.00560766 -7.31265e-18 0.00560766)
(0.00561443 -0.00257085 -0.000137199 0.00561443 -4.12358e-18 0.00561443)
(0.00561443 -0.00257085 -0.000137199 0.00561443 -7.86601e-18 0.00561443)
(0.00562059 -0.00257299 -0.000139887 0.00562059 -4.43293e-18 0.00562059)
(0.00562059 -0.00257299 -0.000139887 0.00562059 -8.15372e-18 0.00562059)
(0.00562615 -0.00257488 -0.000142613 0.00562615 -4.96344e-18 0.00562615)
(0.00562615 -0.00257488 -0.000142613 0.00562615 -8.417e-18 0.00562615)
(0.00563112 -0.00257652 -0.000145378 0.00563112 -4.78263e-18 0.00563112)
(0.00563112 -0.00257652 -0.000145378 0.00563112 -8.71861e-18 0.00563112)
(0.00563551 -0.00257792 -0.000148183 0.00563551 -3.82376e-18 0.00563551)
(0.00563551 -0.00257792 -0.000148183 0.00563551 -8.97429e-18 0.00563551)
(0.00563935 -0.00257908 -0.000151027 0.00563935 -1.2771e-18 0.00563935)
(0.00563935 -0.00257908 -0.000151027 0.00563935 -9.23549e-18 0.00563935)
(0.00564263 -0.00258002 -0.000153912 0.00564263 4.2832e-19 0.00564263)
(0.00564263 -0.00258002 -0.000153912 0.00564263 -9.61113e-18 0.00564263)
(0.00564538 -0.00258072 -0.000156838 0.00564538 6.30092e-19 0.00564538)
(0.00564538 -0.00258072 -0.000156838 0.00564538 -9.90827e-18 0.00564538)
(0.00564759 -0.0025812 -0.000159806 0.00564759 7.45312e-19 0.00564759)
(0.00564759 -0.0025812 -0.000159806 0.00564759 -9.92955e-18 0.00564759)
(0.00564928 -0.00258146 -0.000162815 0.00564928 2.88923e-19 0.00564928)
(0.00564928 -0.00258146 -0.000162815 0.00564928 -1.0119e-17 0.00564928)
(0.00565046 -0.0025815 -0.000165867 0.00565046 7.1581e-19 0.00565046)
(0.00565046 -0.0025815 -0.000165867 0.00565046 -1.04918e-17 0.00565046)
(0.00565114 -0.00258133 -0.000168962 0.00565114 1.33543e-18 0.00565114)
(0.00565114 -0.00258133 -0.000168962 0.00565114 -1.08839e-17 0.00565114)
(0.00565132 -0.00258094 -0.0001721 0.00565132 1.07002e-18 0.00565132)
(0.00565132 -0.00258094 -0.0001721 0.00565132 -1.08295e-17 0.00565132)
(0.005651 -0.00258035 -0.000175282 0.005651 1.01324e-18 0.005651)
(0.005651 -0.00258035 -0.000175282 0.005651 -1.04925e-17 0.005651)
(0.00565021 -0.00257955 -0.000178508 0.00565021 1.13004e-18 0.00565021)
(0.00565021 -0.00257955 -0.000178508 0.00565021 -1.07286e-17 0.00565021)
(0.00564894 -0.00257854 -0.000181779 0.00564894 1.3786e-18 0.00564894)
(0.00564894 -0.00257854 -0.000181779 0.00564894 -8.92174e-18 0.00564894)
(0.0056472 -0.00257733 -0.000185095 0.0056472 1.37664e-18 0.0056472)
(0.0056472 -0.00257733 -0.000185095 0.0056472 1.15286e-19 0.0056472)
(0.00564499 -0.00257592 -0.000188456 0.00564499 1.16021e-18 0.00564499)
(0.00564499 -0.00257592 -0.000188456 0.00564499 5.5791e-19 0.00564499)
(0.00564232 -0.0025743 -0.000191863 0.00564232 1.51103e-18 0.00564232)
(0.00564232 -0.0025743 -0.000191863 0.00564232 3.13636e-19 0.00564232)
(0.0056392 -0.00257249 -0.000195316 0.0056392 1.90064e-18 0.0056392)
(0.0056392 -0.00257249 -0.000195316 0.0056392 4.12617e-19 0.0056392)
(0.00563562 -0.00257048 -0.000198816 0.00563562 1.62121e-18 0.00563562)
(0.00563562 -0.00257048 -0.000198816 0.00563562 9.62981e-19 0.00563562)
(0.00563159 -0.00256828 -0.000202363 0.00563159 1.57268e-18 0.00563159)
(0.00563159 -0.00256828 -0.000202363 0.00563159 1.81627e-18 0.00563159)
(0.00562712 -0.00256587 -0.000205957 0.00562712 1.20949e-18 0.00562712)
(0.00562712 -0.00256587 -0.000205957 0.00562712 1.98389e-18 0.00562712)
(0.00562221 -0.00256328 -0.000209598 0.00562221 3.79166e-19 0.00562221)
(0.00562221 -0.00256328 -0.000209598 0.00562221 1.79431e-18 0.00562221)
(0.00561685 -0.00256048 -0.000213287 0.00561685 1.92752e-19 0.00561685)
(0.00561685 -0.00256048 -0.000213287 0.00561685 2.44913e-18 0.00561685)
(0.00561106 -0.00255749 -0.000217023 0.00561106 -2.9798e-19 0.00561106)
(0.00561106 -0.00255749 -0.000217023 0.00561106 2.51278e-18 0.00561106)
(0.00560484 -0.00255431 -0.000220808 0.00560484 -8.58781e-19 0.00560484)
(0.00560484 -0.00255431 -0.000220808 0.00560484 2.16928e-18 0.00560484)
(0.00559818 -0.00255093 -0.000224641 0.00559818 -2.87136e-19 0.00559818)
(0.00559818 -0.00255093 -0.000224641 0.00559818 2.72885e-18 0.00559818)
(0.00559109 -0.00254736 -0.000228522 0.00559109 -4.39209e-19 0.00559109)
(0.00559109 -0.00254736 -0.000228522 0.00559109 3.21844e-18 0.00559109)
(0.00558357 -0.00254359 -0.000232452 0.00558357 6.03405e-20 0.00558357)
(0.00558357 -0.00254359 -0.000232452 0.00558357 4.1636e-18 0.00558357)
(0.00557561 -0.00253963 -0.000236431 0.00557561 3.91342e-19 0.00557561)
(0.00557561 -0.00253963 -0.000236431 0.00557561 4.67548e-18 0.00557561)
(0.00556723 -0.00253547 -0.000240458 0.00556723 7.09177e-19 0.00556723)
(0.00556723 -0.00253547 -0.000240458 0.00556723 5.36068e-18 0.00556723)
(0.00555843 -0.00253112 -0.000244534 0.00555843 1.7726e-18 0.00555843)
(0.00555843 -0.00253112 -0.000244534 0.00555843 6.03754e-18 0.00555843)
(0.00554919 -0.00252656 -0.000248659 0.00554919 1.40898e-18 0.00554919)
(0.00554919 -0.00252656 -0.000248659 0.00554919 5.37608e-18 0.00554919)
(0.00553952 -0.00252181 -0.000252832 0.00553952 1.12853e-18 0.00553952)
(0.00553952 -0.00252181 -0.000252832 0.00553952 4.72927e-18 0.00553952)
(0.00552943 -0.00251686 -0.000257054 0.00552943 1.17969e-18 0.00552943)
(0.00552943 -0.00251686 -0.000257054 0.00552943 6.52188e-18 0.00552943)
(0.00551891 -0.00251172 -0.000261324 0.00551891 1.83072e-18 0.00551891)
(0.00551891 -0.00251172 -0.000261324 0.00551891 7.67227e-18 0.00551891)
(0.00550795 -0.00250636 -0.000265643 0.00550795 2.11541e-18 0.00550795)
(0.00550795 -0.00250636 -0.000265643 0.00550795 7.42197e-18 0.00550795)
(0.00549657 -0.00250081 -0.000270009 0.00549657 2.41698e-18 0.00549657)
(0.00549657 -0.00250081 -0.000270009 0.00549657 7.82633e-18 0.00549657)
(0.00548475 -0.00249505 -0.000274423 0.00548475 3.26615e-18 0.00548475)
(0.00548475 -0.00249505 -0.000274423 0.00548475 8.66887e-18 0.00548475)
(0.00547251 -0.00248909 -0.000278885 0.00547251 4.01146e-18 0.00547251)
(0.00547251 -0.00248909 -0.000278885 0.00547251 9.20404e-18 0.00547251)
(0.00545982 -0.00248292 -0.000283393 0.00545982 2.67728e-18 0.00545982)
(0.00545982 -0.00248292 -0.000283393 0.00545982 9.50936e-18 0.00545982)
(0.0054467 -0.00247654 -0.000287948 0.0054467 3.32077e-18 0.0054467)
(0.0054467 -0.00247654 -0.000287948 0.0054467 9.81325e-18 0.0054467)
(0.00543314 -0.00246995 -0.000292549 0.00543314 5.2808e-18 0.00543314)
(0.00543314 -0.00246995 -0.000292549 0.00543314 1.0771e-17 0.00543314)
(0.00541914 -0.00246315 -0.000297195 0.00541914 6.14151e-18 0.00541914)
(0.00541914 -0.00246315 -0.000297195 0.00541914 1.15247e-17 0.00541914)
(0.0054047 -0.00245613 -0.000301887 0.0054047 6.97627e-18 0.0054047)
(0.0054047 -0.00245613 -0.000301887 0.0054047 1.39544e-17 0.0054047)
(0.00538981 -0.0024489 -0.000306622 0.00538981 5.82018e-18 0.00538981)
(0.00538981 -0.0024489 -0.000306622 0.00538981 1.37381e-17 0.00538981)
(0.00537447 -0.00244144 -0.000311401 0.00537447 4.83889e-18 0.00537447)
(0.00537447 -0.00244144 -0.000311401 0.00537447 1.24555e-17 0.00537447)
(0.00535868 -0.00243377 -0.000316222 0.00535868 4.44933e-18 0.00535868)
(0.00535868 -0.00243377 -0.000316222 0.00535868 1.37594e-17 0.00535868)
(0.00534244 -0.00242587 -0.000321085 0.00534244 4.67795e-18 0.00534244)
(0.00534244 -0.00242587 -0.000321085 0.00534244 1.24305e-17 0.00534244)
(0.00532574 -0.00241775 -0.000325988 0.00532574 4.91078e-18 0.00532574)
(0.00532574 -0.00241775 -0.000325988 0.00532574 1.16255e-17 0.00532574)
(0.00530857 -0.00240939 -0.00033093 0.00530857 7.22704e-18 0.00530857)
(0.00530857 -0.00240939 -0.00033093 0.00530857 1.33027e-17 0.00530857)
(0.00529095 -0.00240081 -0.000335911 0.00529095 7.7008e-18 0.00529095)
(0.00529095 -0.00240081 -0.000335911 0.00529095 1.54234e-17 0.00529095)
(0.00527285 -0.00239199 -0.000340928 0.00527285 5.36606e-18 0.00527285)
(0.00527285 -0.00239199 -0.000340928 0.00527285 1.6483e-17 0.00527285)
(0.00525428 -0.00238294 -0.000345981 0.00525428 3.55628e-18 0.00525428)
(0.00525428 -0.00238294 -0.000345981 0.00525428 1.73062e-17 0.00525428)
(0.00523524 -0.00237364 -0.000351068 0.00523524 3.26886e-18 0.00523524)
(0.00523524 -0.00237364 -0.000351068 0.00523524 1.84751e-17 0.00523524)
(0.00521571 -0.0023641 -0.000356187 0.00521571 4.23112e-18 0.00521571)
(0.00521571 -0.0023641 -0.000356187 0.00521571 1.72396e-17 0.00521571)
(0.0051957 -0.00235432 -0.000361337 0.0051957 3.47948e-18 0.0051957)
(0.0051957 -0.00235432 -0.000361337 0.0051957 1.63808e-17 0.0051957)
(0.0051752 -0.00234428 -0.000366515 0.0051752 3.40779e-18 0.0051752)
(0.0051752 -0.00234428 -0.000366515 0.0051752 1.68983e-17 0.0051752)
(0.00515421 -0.00233399 -0.00037172 0.00515421 3.38934e-18 0.00515421)
(0.00515421 -0.00233399 -0.00037172 0.00515421 1.81181e-17 0.00515421)
(0.00513271 -0.00232345 -0.000376949 0.00513271 2.70941e-18 0.00513271)
(0.00513271 -0.00232345 -0.000376949 0.00513271 2.06435e-17 0.00513271)
(0.00511071 -0.00231264 -0.000382201 0.00511071 3.68127e-18 0.00511071)
(0.00511071 -0.00231264 -0.000382201 0.00511071 1.94315e-17 0.00511071)
(0.0050882 -0.00230158 -0.000387472 0.0050882 4.87775e-18 0.0050882)
(0.0050882 -0.00230158 -0.000387472 0.0050882 1.88972e-17 0.0050882)
(0.00506518 -0.00229024 -0.000392761 0.00506518 2.92381e-18 0.00506518)
(0.00506518 -0.00229024 -0.000392761 0.00506518 2.39602e-17 0.00506518)
(0.00504163 -0.00227863 -0.000398064 0.00504163 5.4519e-18 0.00504163)
(0.00504163 -0.00227863 -0.000398064 0.00504163 2.33871e-17 0.00504163)
(0.00501756 -0.00226675 -0.000403379 0.00501756 6.60276e-18 0.00501756)
(0.00501756 -0.00226675 -0.000403379 0.00501756 2.11855e-17 0.00501756)
(0.00499295 -0.00225459 -0.000408703 0.00499295 5.62479e-18 0.00499295)
(0.00499295 -0.00225459 -0.000408703 0.00499295 2.24208e-17 0.00499295)
(0.00496781 -0.00224215 -0.000414031 0.00496781 2.99549e-18 0.00496781)
(0.00496781 -0.00224215 -0.000414031 0.00496781 2.82155e-17 0.00496781)
(0.00494212 -0.00222942 -0.000419362 0.00494212 1.43388e-18 0.00494212)
(0.00494212 -0.00222942 -0.000419362 0.00494212 3.12521e-17 0.00494212)
(0.00491589 -0.00221639 -0.000424691 0.00491589 3.17891e-18 0.00491589)
(0.00491589 -0.00221639 -0.000424691 0.00491589 2.93316e-17 0.00491589)
(0.00488909 -0.00220307 -0.000430014 0.00488909 3.93505e-18 0.00488909)
(0.00488909 -0.00220307 -0.000430014 0.00488909 2.76091e-17 0.00488909)
(0.00486173 -0.00218945 -0.000435327 0.00486173 6.07388e-18 0.00486173)
(0.00486173 -0.00218945 -0.000435327 0.00486173 2.44579e-17 0.00486173)
(0.0048338 -0.00217553 -0.000440626 0.0048338 4.69796e-18 0.0048338)
(0.0048338 -0.00217553 -0.000440626 0.0048338 2.64844e-17 0.0048338)
(0.00480529 -0.00216129 -0.000445907 0.00480529 7.79861e-19 0.00480529)
(0.00480529 -0.00216129 -0.000445907 0.00480529 2.69726e-17 0.00480529)
(0.0047762 -0.00214674 -0.000451164 0.0047762 3.43715e-18 0.0047762)
(0.0047762 -0.00214674 -0.000451164 0.0047762 2.44526e-17 0.0047762)
(0.00474652 -0.00213187 -0.000456393 0.00474652 4.41966e-18 0.00474652)
(0.00474652 -0.00213187 -0.000456393 0.00474652 2.69578e-17 0.00474652)
(0.00471624 -0.00211667 -0.000461588 0.00471624 3.62946e-18 0.00471624)
(0.00471624 -0.00211667 -0.000461588 0.00471624 3.06753e-17 0.00471624)
(0.00468535 -0.00210115 -0.000466743 0.00468535 2.7337e-18 0.00468535)
(0.00468535 -0.00210115 -0.000466743 0.00468535 2.87032e-17 0.00468535)
(0.00465385 -0.00208528 -0.000471854 0.00465385 -9.63607e-19 0.00465385)
(0.00465385 -0.00208528 -0.000471854 0.00465385 2.14277e-17 0.00465385)
(0.00462173 -0.00206908 -0.000476913 0.00462173 6.32176e-19 0.00462173)
(0.00462173 -0.00206908 -0.000476913 0.00462173 1.87077e-17 0.00462173)
(0.00458898 -0.00205253 -0.000481914 0.00458898 1.99097e-19 0.00458898)
(0.00458898 -0.00205253 -0.000481914 0.00458898 2.44255e-17 0.00458898)
(0.0045556 -0.00203563 -0.000486851 0.0045556 -1.15798e-18 0.0045556)
(0.0045556 -0.00203563 -0.000486851 0.0045556 1.93787e-17 0.0045556)
(0.00452157 -0.00201837 -0.000491716 0.00452157 -3.16011e-18 0.00452157)
(0.00452157 -0.00201837 -0.000491716 0.00452157 1.72032e-17 0.00452157)
(0.0044869 -0.00200075 -0.000496501 0.0044869 -2.32742e-18 0.0044869)
(0.0044869 -0.00200075 -0.000496501 0.0044869 1.45325e-17 0.0044869)
(0.00445156 -0.00198276 -0.000501199 0.00445156 3.84723e-19 0.00445156)
(0.00445156 -0.00198276 -0.000501199 0.00445156 1.29055e-17 0.00445156)
(0.00441556 -0.00196439 -0.000505801 0.00441556 3.97734e-19 0.00441556)
(0.00441556 -0.00196439 -0.000505801 0.00441556 2.3041e-18 0.00441556)
(0.00437888 -0.00194564 -0.000510299 0.00437888 5.82074e-19 0.00437888)
(0.00437888 -0.00194564 -0.000510299 0.00437888 2.30685e-18 0.00437888)
(0.00434153 -0.0019265 -0.000514684 0.00434153 2.65984e-18 0.00434153)
(0.00434153 -0.0019265 -0.000514684 0.00434153 4.9946e-18 0.00434153)
(0.00430348 -0.00190697 -0.000518945 0.00430348 -8.00705e-19 0.00430348)
(0.00430348 -0.00190697 -0.000518945 0.00430348 2.67145e-18 0.00430348)
(0.00426474 -0.00188703 -0.000523074 0.00426474 -2.21781e-18 0.00426474)
(0.00426474 -0.00188703 -0.000523074 0.00426474 2.41547e-18 0.00426474)
(0.0042253 -0.00186669 -0.000527058 0.0042253 3.58152e-18 0.0042253)
(0.0042253 -0.00186669 -0.000527058 0.0042253 -2.16267e-18 0.0042253)
(0.00418515 -0.00184593 -0.000530889 0.00418515 3.11752e-18 0.00418515)
(0.00418515 -0.00184593 -0.000530889 0.00418515 -4.58298e-18 0.00418515)
(0.00414428 -0.00182475 -0.000534553 0.00414428 -5.66446e-18 0.00414428)
(0.00414428 -0.00182475 -0.000534553 0.00414428 6.21632e-18 0.00414428)