/*--------------------------------*- C++ -*----------------------------------*\
| =========                 |                                                 |
| \\      /  F ield         | OpenFOAM: The Open Source CFD Toolbox           |
|  \\    /   O peration     | Version:  2106                                  |
|   \\  /    A nd           | Website:  www.openfoam.com                      |
|    \\/     M anipulation  |                                                 |
\*---------------------------------------------------------------------------*/
FoamFile
{
    version     2.0;
    format      ascii;
    arch        "LSB;label=32;scalar=64";
    class       volVectorField;
    location    "10080";
    object      U;
}
// * * * * * * * * * * * * * * * * * * * * * * * * * * * * * * * * * * * * * //

dimensions      [0 1 -1 0 0 0 0];

internalField   nonuniform List<vector> 
2000
(
(0.00324219 -1.13868e-15 1.10612e-17)
(0.00324219 -1.41166e-19 9.40914e-18)
(0.00978587 -1.16837e-16 8.02511e-17)
(0.00978587 6.54656e-19 3.7384e-17)
(0.0164504 -2.1642e-15 8.45062e-17)
(0.0164504 1.24689e-18 3.87987e-17)
(0.0232381 -1.62209e-15 8.95708e-17)
(0.0232381 2.0627e-18 4.02701e-17)
(0.0301511 -1.57339e-15 9.47871e-17)
(0.0301511 2.92064e-18 4.18003e-17)
(0.0371917 -1.58601e-15 1.00199e-16)
(0.0371917 3.78221e-18 4.33926e-17)
(0.0443623 -1.59075e-15 1.05865e-16)
(0.0443623 4.63418e-18 4.50499e-17)
(0.0516651 -1.59142e-15 1.11792e-16)
(0.0516651 5.56038e-18 4.67751e-17)
(0.0591027 -1.59258e-15 1.17977e-16)
(0.0591027 6.48487e-18 4.85693e-17)
(0.0666772 -1.59447e-15 1.24423e-16)
(0.0666772 7.45376e-18 5.04357e-17)
(0.0743912 -1.59657e-15 1.3114e-16)
(0.0743912 8.46392e-18 5.23783e-17)
(0.0822469 -1.59868e-15 1.38136e-16)
(0.0822469 9.46919e-18 5.43996e-17)
(0.0902467 -1.60076e-15 1.45418e-16)
(0.0902467 1.04529e-17 5.65011e-17)
(0.0983925 -1.60283e-15 1.52995e-16)
(0.0983925 1.13703e-17 5.86853e-17)
(0.106687 -1.60499e-15 1.6087e-16)
(0.106687 1.23286e-17 6.09531e-17)
(0.11513 -1.60739e-15 1.69049e-16)
(0.11513 1.33465e-17 6.33057e-17)
(0.123725 -1.60997e-15 1.77531e-16)
(0.123725 1.44324e-17 6.57461e-17)
(0.132473 -1.61249e-15 1.86316e-16)
(0.132473 1.55806e-17 6.82748e-17)
(0.141373 -1.61511e-15 1.954e-16)
(0.141373 1.67145e-17 7.08819e-17)
(0.150425 -1.61766e-15 2.04771e-16)
(0.150425 1.77442e-17 7.35685e-17)
(0.159629 -1.62017e-15 2.14414e-16)
(0.159629 1.88327e-17 7.63352e-17)
(0.168981 -1.62289e-15 2.24307e-16)
(0.168981 1.99988e-17 7.91649e-17)
(0.178479 -1.6258e-15 2.34419e-16)
(0.178479 2.10913e-17 8.20515e-17)
(0.188118 -1.62882e-15 2.4471e-16)
(0.188118 2.2291e-17 8.49808e-17)
(0.197891 -1.63186e-15 2.55133e-16)
(0.197891 2.35161e-17 8.79424e-17)
(0.207789 -1.63506e-15 2.65632e-16)
(0.207789 2.49333e-17 9.09172e-17)
(0.217802 -1.63839e-15 2.76143e-16)
(0.217802 2.62478e-17 9.38842e-17)
(0.227919 -1.64186e-15 2.86593e-16)
(0.227919 2.73284e-17 9.6826e-17)
(0.238125 -1.64522e-15 2.96903e-16)
(0.238125 2.87103e-17 9.97114e-17)
(0.248403 -1.64834e-15 3.06996e-16)
(0.248403 2.99733e-17 1.02524e-16)
(0.258735 -1.65155e-15 3.16797e-16)
(0.258735 3.11999e-17 1.05239e-16)
(0.269103 -1.65473e-15 3.16709e-16)
(0.269103 3.24481e-17 1.07835e-16)
(0.279486 -1.65814e-15 3.15842e-16)
(0.279486 3.38744e-17 1.1029e-16)
(0.289863 -1.66197e-15 3.14313e-16)
(0.289863 3.53318e-17 1.12597e-16)
(0.300212 -1.66599e-15 3.12128e-16)
(0.300212 3.67122e-17 1.1473e-16)
(0.310513 -1.67002e-15 3.0931e-16)
(0.310513 3.82407e-17 1.16694e-16)
(0.320744 -1.67351e-15 3.05869e-16)
(0.320744 3.96218e-17 1.18489e-16)
(0.330888 -1.67661e-15 3.0184e-16)
(0.330888 4.0728e-17 1.20111e-16)
(0.340927 -1.67948e-15 2.9727e-16)
(0.340927 4.15378e-17 1.21549e-16)
(0.350845 -1.68235e-15 2.92194e-16)
(0.350845 4.2349e-17 1.22867e-16)
(0.360629 -1.68573e-15 2.86692e-16)
(0.360629 4.32187e-17 1.24029e-16)
(0.370266 -1.68931e-15 2.80811e-16)
(0.370266 4.40607e-17 1.25064e-16)
(0.379747 -1.69296e-15 2.74652e-16)
(0.379747 4.51972e-17 1.25991e-16)
(0.389065 -1.69653e-15 2.68266e-16)
(0.389065 4.627e-17 1.26834e-16)
(0.398214 -1.70001e-15 2.61696e-16)
(0.398214 4.78698e-17 1.27626e-16)
(0.407191 -1.70303e-15 2.54989e-16)
(0.407191 4.9064e-17 1.28372e-16)
(0.415992 -1.70625e-15 2.48146e-16)
(0.415992 4.95699e-17 1.29094e-16)
(0.424616 -1.7099e-15 2.41288e-16)
(0.424616 5.04448e-17 1.29843e-16)
(0.433066 -1.71323e-15 2.34432e-16)
(0.433066 5.18529e-17 1.30549e-16)
(0.44134 -1.71654e-15 2.27578e-16)
(0.44134 5.28923e-17 1.31203e-16)
(0.449442 -1.71936e-15 2.26362e-16)
(0.449442 5.31887e-17 1.31944e-16)
(0.457375 -1.72173e-15 2.26673e-16)
(0.457375 5.40508e-17 1.32731e-16)
(0.465141 -1.72453e-15 2.26859e-16)
(0.465141 5.50236e-17 1.3353e-16)
(0.472745 -1.72738e-15 2.27166e-16)
(0.472745 5.53968e-17 1.34418e-16)
(0.480192 -1.72926e-15 2.2754e-16)
(0.480192 5.57952e-17 1.35351e-16)
(0.487484 -1.7312e-15 2.2791e-16)
(0.487484 5.63749e-17 1.36346e-16)
(0.494627 -1.73416e-15 2.28331e-16)
(0.494627 5.74069e-17 1.37454e-16)
(0.501626 -1.73672e-15 2.2886e-16)
(0.501626 5.81041e-17 1.38638e-16)
(0.508485 -1.73879e-15 2.29463e-16)
(0.508485 5.72397e-17 1.39874e-16)
(0.515209 -1.73987e-15 2.30126e-16)
(0.515209 5.54202e-17 1.41176e-16)
(0.521802 -1.74137e-15 2.30877e-16)
(0.521802 5.50188e-17 1.4264e-16)
(0.528269 -1.74494e-15 2.3164e-16)
(0.528269 5.73036e-17 1.44246e-16)
(0.534615 -1.74856e-15 2.32558e-16)
(0.534615 5.9e-17 1.45908e-16)
(0.540844 -1.75092e-15 2.3351e-16)
(0.540844 5.88601e-17 1.47626e-16)
(0.54696 -1.75242e-15 2.34677e-16)
(0.54696 5.87148e-17 1.49516e-16)
(0.552967 -1.75404e-15 2.35904e-16)
(0.552967 5.8369e-17 1.51473e-16)
(0.55887 -1.75557e-15 2.37188e-16)
(0.55887 5.76663e-17 1.53497e-16)
(0.564672 -1.75684e-15 2.38624e-16)
(0.564672 5.6657e-17 1.55632e-16)
(0.570376 -1.75886e-15 2.40061e-16)
(0.570376 5.6426e-17 1.57995e-16)
(0.575987 -1.76046e-15 2.41723e-16)
(0.575987 5.55114e-17 1.60431e-16)
(0.581508 -1.76145e-15 2.43438e-16)
(0.581508 5.35465e-17 1.62964e-16)
(0.586942 -1.76234e-15 2.45225e-16)
(0.586942 5.25959e-17 1.65562e-16)
(0.592293 -1.76356e-15 2.4717e-16)
(0.592293 5.09665e-17 1.68217e-16)
(0.597563 -1.76565e-15 2.49096e-16)
(0.597563 4.88229e-17 1.71029e-16)
(0.602755 -1.76721e-15 2.51234e-16)
(0.602755 4.78578e-17 1.74092e-16)
(0.607872 -1.76837e-15 2.53483e-16)
(0.607872 4.5643e-17 1.77331e-16)
(0.612917 -1.76927e-15 2.55704e-16)
(0.612917 4.32744e-17 1.80559e-16)
(0.617893 -1.76916e-15 2.58312e-16)
(0.617893 4.02922e-17 1.83883e-16)
(0.622801 -1.76829e-15 2.60695e-16)
(0.622801 3.66268e-17 1.87421e-16)
(0.627644 -1.7676e-15 2.63258e-16)
(0.627644 3.33935e-17 1.91091e-16)
(0.632425 -1.76774e-15 2.6607e-16)
(0.632425 2.93067e-17 1.94953e-16)
(0.637146 -1.76713e-15 2.6898e-16)
(0.637146 2.70285e-17 1.9896e-16)
(0.641808 -1.76613e-15 2.71888e-16)
(0.641808 2.32433e-17 2.02923e-16)
(0.646414 -1.76517e-15 2.74908e-16)
(0.646414 1.91825e-17 2.07234e-16)
(0.650965 -1.765e-15 2.78072e-16)
(0.650965 1.85363e-17 2.11878e-16)
(0.655464 -1.76675e-15 2.81211e-16)
(0.655464 1.91056e-17 2.16506e-16)
(0.659912 -1.76834e-15 2.84574e-16)
(0.659912 1.77776e-17 2.21105e-16)
(0.66431 -1.76843e-15 2.8825e-16)
(0.66431 1.32754e-17 2.26264e-16)
(0.668661 -1.76735e-15 2.91636e-16)
(0.668661 1.1088e-17 2.31613e-16)
(0.672966 -1.76475e-15 2.95581e-16)
(0.672966 6.43261e-18 2.37083e-16)
(0.677227 -1.76137e-15 2.99542e-16)
(0.677227 -1.39144e-18 2.42821e-16)
(0.681444 -1.75842e-15 3.03512e-16)
(0.681444 -6.15489e-18 2.48738e-16)
(0.68562 -1.75246e-15 3.07872e-16)
(0.68562 -1.19002e-17 2.54592e-16)
(0.689755 -1.74881e-15 3.11835e-16)
(0.689755 -1.55125e-17 2.60697e-16)
(0.693851 -1.74748e-15 3.16152e-16)
(0.693851 -1.72328e-17 2.67328e-16)
(0.697909 -1.74735e-15 3.20509e-16)
(0.697909 -1.98523e-17 2.73781e-16)
(0.70193 -1.74746e-15 3.25179e-16)
(0.70193 -2.30535e-17 2.80579e-16)
(0.705915 -1.74692e-15 3.29868e-16)
(0.705915 -2.45374e-17 2.87422e-16)
(0.709866 -1.7464e-15 3.34714e-16)
(0.709866 -2.60384e-17 2.94819e-16)
(0.713783 -1.7446e-15 3.39866e-16)
(0.713783 -2.81872e-17 3.0244e-16)
(0.717668 -1.74229e-15 3.45057e-16)
(0.717668 -2.89113e-17 3.10524e-16)
(0.721521 -1.73971e-15 3.50456e-16)
(0.721521 -2.85988e-17 3.18402e-16)
(0.725343 -1.73681e-15 3.55934e-16)
(0.725343 -3.23451e-17 3.26442e-16)
(0.729136 -1.73257e-15 3.6203e-16)
(0.729136 -3.55697e-17 3.35343e-16)
(0.732899 -1.73044e-15 3.67499e-16)
(0.732899 -3.90075e-17 3.44448e-16)
(0.736635 -1.72839e-15 3.73757e-16)
(0.736635 -4.47226e-17 3.53721e-16)
(0.740343 -1.72567e-15 3.79623e-16)
(0.740343 -5.00948e-17 3.62765e-16)
(0.744025 -1.72241e-15 3.86109e-16)
(0.744025 -5.16209e-17 3.72654e-16)
(0.747681 -1.72121e-15 3.91734e-16)
(0.747681 -5.59656e-17 3.8302e-16)
(0.751311 -1.71958e-15 3.98807e-16)
(0.751311 -5.82093e-17 3.93586e-16)
(0.754918 -1.71328e-15 4.05866e-16)
(0.754918 -6.43029e-17 4.04497e-16)
(0.7585 -1.70927e-15 4.12865e-16)
(0.7585 -7.17095e-17 4.15776e-16)
(0.76206 -1.70441e-15 4.16895e-16)
(0.76206 -7.93669e-17 4.27265e-16)
(0.765597 -1.69692e-15 4.16913e-16)
(0.765597 -8.71653e-17 4.392e-16)
(0.769112 -1.68972e-15 4.16618e-16)
(0.769112 -1.00354e-16 4.51719e-16)
(0.772606 -1.68339e-15 4.16077e-16)
(0.772606 -1.08124e-16 4.64686e-16)
(0.776079 -1.67873e-15 4.15392e-16)
(0.776079 -1.15646e-16 4.77257e-16)
(0.779533 -1.66682e-15 4.15902e-16)
(0.779533 -1.27957e-16 4.90704e-16)
(0.782966 -1.65132e-15 4.15003e-16)
(0.782966 -1.42603e-16 5.04654e-16)
(0.78638 -1.6378e-15 4.14398e-16)
(0.78638 -1.53662e-16 5.1962e-16)
(0.789776 -1.62549e-15 4.13989e-16)
(0.789776 -1.62566e-16 5.33635e-16)
(0.793153 -1.61458e-15 4.13413e-16)
(0.793153 -1.76581e-16 5.47938e-16)
(0.796513 -1.60248e-15 4.1255e-16)
(0.796513 -1.86225e-16 5.63004e-16)
(0.799856 -1.59147e-15 4.11539e-16)
(0.799856 -1.97124e-16 5.72849e-16)
(0.803181 -1.579e-15 4.10573e-16)
(0.803181 -2.09478e-16 5.73332e-16)
(0.806491 -1.56266e-15 4.10387e-16)
(0.806491 -2.23533e-16 5.74071e-16)
(0.809784 -1.54639e-15 4.0913e-16)
(0.809784 -2.35779e-16 5.75732e-16)
(0.813061 -1.53523e-15 4.0801e-16)
(0.813061 -2.4471e-16 5.7677e-16)
(0.816324 -1.52747e-15 4.06733e-16)
(0.816324 -2.58252e-16 5.77268e-16)
(0.819571 -1.51565e-15 4.05249e-16)
(0.819571 -2.71504e-16 5.77018e-16)
(0.822804 -1.49897e-15 4.05597e-16)
(0.822804 -2.86608e-16 5.77484e-16)
(0.826023 -1.48367e-15 4.07037e-16)
(0.826023 -2.96245e-16 5.78296e-16)
(0.829227 -1.47107e-15 4.07662e-16)
(0.829227 -2.99255e-16 5.78286e-16)
(0.832419 -1.45873e-15 4.09941e-16)
(0.832419 -3.0362e-16 5.7797e-16)
(0.835596 -1.44758e-15 4.11939e-16)
(0.835596 -3.03179e-16 5.79574e-16)
(0.838761 -1.44443e-15 4.12609e-16)
(0.838761 -3.05305e-16 5.79276e-16)
(0.841914 -1.43849e-15 4.13597e-16)
(0.841914 -3.09781e-16 5.77475e-16)
(0.845054 -1.42763e-15 4.13538e-16)
(0.845054 -3.15233e-16 5.76004e-16)
(0.848181 -1.41787e-15 4.1467e-16)
(0.848181 -3.17338e-16 5.73378e-16)
(0.851297 -1.40771e-15 4.13626e-16)
(0.851297 -3.25133e-16 5.70571e-16)
(0.854402 -1.39795e-15 4.12278e-16)
(0.854402 -3.30301e-16 5.67034e-16)
(0.857495 -1.38671e-15 4.12105e-16)
(0.857495 -3.35062e-16 5.66338e-16)
(0.860576 -1.3818e-15 4.11771e-16)
(0.860576 -3.43461e-16 5.64928e-16)
(0.863647 -1.37616e-15 4.10215e-16)
(0.863647 -3.4766e-16 5.60796e-16)
(0.866708 -1.36658e-15 4.08475e-16)
(0.866708 -3.54165e-16 5.56985e-16)
(0.869757 -1.35577e-15 4.07095e-16)
(0.869757 -3.60284e-16 5.54062e-16)
(0.872797 -1.34504e-15 4.04923e-16)
(0.872797 -3.70462e-16 5.4997e-16)
(0.875826 -1.33269e-15 4.01504e-16)
(0.875826 -3.85037e-16 5.45884e-16)
(0.878845 -1.3211e-15 3.97943e-16)
(0.878845 -3.92297e-16 5.41764e-16)
(0.881855 -1.30083e-15 3.97685e-16)
(0.881855 -4.01282e-16 5.37328e-16)
(0.884855 -1.27876e-15 3.94579e-16)
(0.884855 -4.12921e-16 5.33434e-16)
(0.887845 -1.27193e-15 3.901e-16)
(0.887845 -4.12842e-16 5.28284e-16)
(0.890827 -1.26689e-15 3.813e-16)
(0.890827 -4.24229e-16 5.22557e-16)
(0.893799 -1.25935e-15 3.74448e-16)
(0.893799 -4.36806e-16 5.12874e-16)
(0.896762 -1.25131e-15 3.69098e-16)
(0.896762 -4.45062e-16 5.09307e-16)
(0.899716 -1.23866e-15 3.64785e-16)
(0.899716 -4.57769e-16 5.03608e-16)
(0.902662 -1.21884e-15 3.61614e-16)
(0.902662 -4.65797e-16 4.98715e-16)
(0.905599 -1.20294e-15 3.58695e-16)
(0.905599 -4.76434e-16 4.97345e-16)
(0.908528 -1.19061e-15 3.53978e-16)
(0.908528 -4.89491e-16 4.95747e-16)
(0.911448 -1.18089e-15 3.44501e-16)
(0.911448 -4.87276e-16 4.92141e-16)
(0.91436 -1.16918e-15 3.38022e-16)
(0.91436 -4.98467e-16 4.85688e-16)
(0.917264 -1.14659e-15 3.34828e-16)
(0.917264 -5.06502e-16 4.80938e-16)
(0.920159 -1.12615e-15 3.35977e-16)
(0.920159 -5.11626e-16 4.74458e-16)
(0.923047 -1.10842e-15 3.32877e-16)
(0.923047 -5.17986e-16 4.67929e-16)
(0.925926 -1.092e-15 3.31017e-16)
(0.925926 -5.23341e-16 4.64851e-16)
(0.928798 -1.08238e-15 3.29425e-16)
(0.928798 -5.35255e-16 4.6159e-16)
(0.931662 -1.07456e-15 3.25674e-16)
(0.931662 -5.39101e-16 4.58694e-16)
(0.934518 -1.06289e-15 3.23628e-16)
(0.934518 -5.41166e-16 4.53037e-16)
(0.937366 -1.04352e-15 3.22824e-16)
(0.937366 -5.4925e-16 4.44814e-16)
(0.940207 -1.02237e-15 3.20976e-16)
(0.940207 -5.57133e-16 4.4302e-16)
(0.94304 -1.00882e-15 3.1792e-16)
(0.94304 -5.60854e-16 4.3659e-16)
(0.945865 -9.84687e-16 3.1844e-16)
(0.945865 -5.64631e-16 4.25797e-16)
(0.948682 -9.66283e-16 3.12805e-16)
(0.948682 -5.62753e-16 4.2203e-16)
(0.951492 -9.60104e-16 3.0862e-16)
(0.951492 -5.49672e-16 4.15916e-16)
(0.954294 -9.50391e-16 3.01015e-16)
(0.954294 -5.36247e-16 4.09115e-16)
(0.957089 -9.34997e-16 3.04841e-16)
(0.957089 -5.36351e-16 3.88578e-16)
(0.959876 -9.18687e-16 3.03174e-16)
(0.959876 -5.46555e-16 3.75161e-16)
(0.962655 -9.04583e-16 3.03132e-16)
(0.962655 -5.42293e-16 3.61058e-16)
(0.965426 -8.98592e-16 2.98733e-16)
(0.965426 -5.48679e-16 3.52921e-16)
(0.96819 -8.87681e-16 2.90124e-16)
(0.96819 -5.5083e-16 3.4848e-16)
(0.970945 -8.61709e-16 2.91332e-16)
(0.970945 -5.55408e-16 3.36149e-16)
(0.973693 -8.25872e-16 2.9893e-16)
(0.973693 -5.6394e-16 3.31973e-16)
(0.976432 -8.02719e-16 2.97549e-16)
(0.976432 -5.53807e-16 3.2787e-16)
(0.979164 -7.99746e-16 2.97528e-16)
(0.979164 -5.60233e-16 3.16231e-16)
(0.981887 -8.04028e-16 2.89996e-16)
(0.981887 -5.55004e-16 3.04891e-16)
(0.984602 -7.84258e-16 2.90527e-16)
(0.984602 -5.76374e-16 2.9918e-16)
(0.987309 -7.57093e-16 3.0156e-16)
(0.987309 -6.04438e-16 3.11514e-16)
(0.990007 -7.51223e-16 3.01314e-16)
(0.990007 -6.14917e-16 3.17688e-16)
(0.992696 -7.42906e-16 3.03824e-16)
(0.992696 -6.32653e-16 3.17217e-16)
(0.995377 -7.40251e-16 3.08372e-16)
(0.995377 -6.34411e-16 3.19418e-16)
(0.998048 -7.37947e-16 3.13505e-16)
(0.998048 -6.44411e-16 3.23274e-16)
(1.00071 -7.25266e-16 3.15695e-16)
(1.00071 -6.56959e-16 3.27182e-16)
(1.00336 -7.07826e-16 3.18905e-16)
(1.00336 -6.65443e-16 3.24562e-16)
(1.00601 -7.02948e-16 3.23634e-16)
(1.00601 -6.67716e-16 3.43031e-16)
(1.00864 -6.95796e-16 3.19811e-16)
(1.00864 -6.7034e-16 3.46096e-16)
(1.01126 -6.83786e-16 3.20244e-16)
(1.01126 -6.61555e-16 3.4332e-16)
(1.01388 -6.71889e-16 3.28634e-16)
(1.01388 -6.63907e-16 3.50981e-16)
(1.01648 -6.62038e-16 3.32945e-16)
(1.01648 -6.75924e-16 3.47198e-16)
(1.01907 -6.48419e-16 3.26427e-16)
(1.01907 -6.54415e-16 3.57124e-16)
(1.02165 -6.48973e-16 3.32176e-16)
(1.02165 -6.24546e-16 3.72487e-16)
(1.02422 -6.43352e-16 3.42451e-16)
(1.02422 -5.98024e-16 3.62345e-16)
(1.02677 -6.17085e-16 3.42372e-16)
(1.02677 -5.92589e-16 3.54009e-16)
(1.02932 -6.01222e-16 3.317e-16)
(1.02932 -5.88767e-16 3.71948e-16)
(1.03185 -5.95039e-16 3.599e-16)
(1.03185 -5.94024e-16 3.58474e-16)
(1.03437 -5.74154e-16 3.57522e-16)
(1.03437 -5.70008e-16 3.33096e-16)
(1.03687 -5.53412e-16 3.73856e-16)
(1.03687 -5.32286e-16 3.50313e-16)
(1.03936 -5.40753e-16 3.6936e-16)
(1.03936 -5.42093e-16 3.55552e-16)
(1.04184 -5.14563e-16 3.68325e-16)
(1.04184 -5.21594e-16 3.36369e-16)
(1.0443 -4.96524e-16 3.5763e-16)
(1.0443 -4.94407e-16 3.20525e-16)
(1.04674 -4.8186e-16 3.38951e-16)
(1.04674 -4.9073e-16 3.3343e-16)
(1.04917 -4.6201e-16 3.18e-16)
(1.04917 -4.81088e-16 3.37575e-16)
(1.05158 -4.59704e-16 3.49829e-16)
(1.05158 -4.76487e-16 3.27718e-16)
(1.05398 -4.77603e-16 3.16845e-16)
(1.05398 -4.90893e-16 3.11231e-16)
(1.05635 -4.61152e-16 3.50651e-16)
(1.05635 -4.66691e-16 3.4521e-16)
(1.05871 -4.6618e-16 3.79603e-16)
(1.05871 -4.66973e-16 3.68389e-16)
(1.06104 -5.0635e-16 3.37628e-16)
(1.06104 -4.67728e-16 3.62289e-16)
(1.06336 -5.08659e-16 3.72155e-16)
(1.06336 -4.38089e-16 3.38269e-16)
(1.06565 -5.00161e-16 3.62711e-16)
(1.06565 -4.67726e-16 3.45081e-16)
(1.06792 -4.79726e-16 3.67072e-16)
(1.06792 -4.74109e-16 3.56646e-16)
(1.07016 -5.04333e-16 3.47152e-16)
(1.07016 -4.64896e-16 3.42654e-16)
(1.07238 -4.71034e-16 3.85426e-16)
(1.07238 -4.88205e-16 3.45943e-16)
(1.07457 -4.46482e-16 3.82246e-16)
(1.07457 -4.7222e-16 3.92129e-16)
(1.07674 -4.58906e-16 3.75273e-16)
(1.07674 -4.41682e-16 3.4461e-16)
(1.07887 -4.64328e-16 3.69223e-16)
(1.07887 -4.32603e-16 3.18808e-16)
(1.08097 -4.39491e-16 3.60779e-16)
(1.08097 -4.38454e-16 3.40512e-16)
(1.08304 -4.08587e-16 3.43179e-16)
(1.08304 -4.58342e-16 3.4744e-16)
(1.08508 -3.97061e-16 3.81947e-16)
(1.08508 -4.38827e-16 3.13269e-16)
(1.08708 -3.94446e-16 3.62057e-16)
(1.08708 -3.82997e-16 3.39062e-16)
(1.08904 -4.03147e-16 3.64557e-16)
(1.08904 -3.92729e-16 3.38967e-16)
(1.09096 -3.83518e-16 3.56772e-16)
(1.09096 -4.06953e-16 3.02099e-16)
(1.09283 -3.40249e-16 3.65364e-16)
(1.09283 -3.68321e-16 2.98165e-16)
(1.09466 -3.1449e-16 4.23504e-16)
(1.09466 -3.90629e-16 3.06548e-16)
(1.09644 -3.24871e-16 4.05648e-16)
(1.09644 -3.86353e-16 3.50117e-16)
(1.09817 -3.61425e-16 3.98837e-16)
(1.09817 -3.6738e-16 3.66307e-16)
(1.09984 -3.54141e-16 4.46744e-16)
(1.09984 -3.95825e-16 3.21982e-16)
(1.10145 -3.48222e-16 4.43168e-16)
(1.10145 -4.13661e-16 4.19163e-16)
(1.103 -3.73001e-16 3.99866e-16)
(1.103 -4.24727e-16 4.76984e-16)
(1.10448 -3.86901e-16 3.74053e-16)
(1.10448 -4.10076e-16 4.33153e-16)
(1.10588 -3.9657e-16 3.89958e-16)
(1.10588 -4.01155e-16 4.78132e-16)
(1.10721 -3.9484e-16 3.95938e-16)
(1.10721 -3.9461e-16 4.69142e-16)
(1.10846 -4.20955e-16 3.09474e-16)
(1.10846 -3.20067e-16 4.33017e-16)
(1.10961 -4.67658e-16 2.03124e-16)
(1.10961 -3.06335e-16 2.55038e-16)
(1.11067 -3.94132e-16 2.11522e-16)
(1.11067 -3.37164e-16 1.98161e-16)
(1.11163 -3.30466e-16 2.27577e-16)
(1.11163 -2.80105e-16 2.4407e-16)
(1.11247 -2.6792e-16 2.41131e-16)
(1.11247 -2.52303e-16 2.47846e-16)
(1.11319 -2.46511e-16 3.11731e-16)
(1.11319 -2.7232e-16 2.50749e-16)
(1.11379 -2.54118e-16 2.63741e-16)
(1.11379 -2.69811e-16 2.42647e-16)
(1.11426 -2.64552e-16 2.57375e-16)
(1.11426 -2.60922e-16 2.50265e-16)
(1.11457 -2.65407e-16 2.51037e-16)
(1.11457 -2.849e-16 2.62493e-16)
(1.11474 -2.58997e-16 2.67796e-16)
(1.11474 -2.5906e-16 2.79414e-16)
(0.00324219 -6.29333e-20 -3.57611e-18)
(0.00324219 -1.13853e-20 -2.2517e-18)
(0.00978587 4.57557e-19 -2.22711e-17)
(0.00978587 2.33155e-19 -2.69998e-17)
(0.0164504 8.8534e-19 -2.31034e-17)
(0.0164504 4.42647e-19 -2.80186e-17)
(0.0232381 1.43474e-18 -2.39622e-17)
(0.0232381 7.07689e-19 -2.90773e-17)
(0.0301511 1.99559e-18 -2.48483e-17)
(0.0301511 1.00029e-18 -3.01772e-17)
(0.0371917 2.5863e-18 -2.57622e-17)
(0.0371917 1.32396e-18 -3.132e-17)
(0.0443623 3.20993e-18 -2.67048e-17)
(0.0443623 1.67102e-18 -3.2507e-17)
(0.0516651 3.83907e-18 -2.76767e-17)
(0.0516651 2.01562e-18 -3.37388e-17)
(0.0591027 4.42731e-18 -2.86794e-17)
(0.0591027 2.41924e-18 -3.50178e-17)
(0.0666772 5.04453e-18 -2.97138e-17)
(0.0666772 2.85997e-18 -3.63474e-17)
(0.0743912 5.72867e-18 -3.07808e-17)
(0.0743912 3.27541e-18 -3.7726e-17)
(0.0822469 6.40644e-18 -3.18801e-17)
(0.0822469 3.77876e-18 -3.91562e-17)
(0.0902467 7.13432e-18 -3.30132e-17)
(0.0902467 4.27406e-18 -4.06374e-17)
(0.0983925 7.7837e-18 -3.41771e-17)
(0.0983925 4.77361e-18 -4.21746e-17)
(0.106687 8.34849e-18 -3.53774e-17)
(0.106687 5.37892e-18 -4.37672e-17)
(0.11513 8.99263e-18 -3.66126e-17)
(0.11513 6.0364e-18 -4.54118e-17)
(0.123725 9.74581e-18 -3.78803e-17)
(0.123725 6.66645e-18 -4.71111e-17)
(0.132473 1.05571e-17 -3.91789e-17)
(0.132473 7.35204e-18 -4.88601e-17)
(0.141373 1.13057e-17 -4.05048e-17)
(0.141373 8.12287e-18 -5.06608e-17)
(0.150425 1.21994e-17 -4.18551e-17)
(0.150425 8.81003e-18 -5.25084e-17)
(0.159629 1.3233e-17 -4.32236e-17)
(0.159629 9.5214e-18 -5.43934e-17)
(0.168981 1.43496e-17 -4.46015e-17)
(0.168981 1.02111e-17 -5.6317e-17)
(0.178479 1.54792e-17 -4.59801e-17)
(0.178479 1.08615e-17 -5.82686e-17)
(0.188118 1.65625e-17 -4.73541e-17)
(0.188118 1.15941e-17 -6.02394e-17)
(0.197891 1.78133e-17 -4.87181e-17)
(0.197891 1.22575e-17 -6.22082e-17)
(0.207789 1.91774e-17 -5.00518e-17)
(0.207789 1.2831e-17 -6.4167e-17)
(0.217802 2.04081e-17 -5.13445e-17)
(0.217802 1.37364e-17 -6.61166e-17)
(0.227919 2.14388e-17 -5.25932e-17)
(0.227919 1.47856e-17 -6.80236e-17)
(0.238125 2.2395e-17 -5.37859e-17)
(0.238125 1.58746e-17 -6.98689e-17)
(0.248403 2.36685e-17 -5.49064e-17)
(0.248403 1.6855e-17 -7.16328e-17)
(0.258735 2.48342e-17 -5.59325e-17)
(0.258735 1.78517e-17 -7.33079e-17)
(0.269103 2.57108e-17 -5.6867e-17)
(0.269103 1.91498e-17 -7.48802e-17)
(0.279486 2.69353e-17 -5.76961e-17)
(0.279486 2.0174e-17 -7.63308e-17)
(0.289863 2.83762e-17 -5.84031e-17)
(0.289863 2.12901e-17 -7.76728e-17)
(0.300212 2.98477e-17 -5.89966e-17)
(0.300212 2.28415e-17 -7.88542e-17)
(0.310513 3.14149e-17 -5.94627e-17)
(0.310513 2.39379e-17 -7.98855e-17)
(0.320744 3.32246e-17 -5.98039e-17)
(0.320744 2.48506e-17 -8.07593e-17)
(0.330888 3.49499e-17 -6.00122e-17)
(0.330888 2.62086e-17 -8.14936e-17)
(0.340927 3.60988e-17 -6.00985e-17)
(0.340927 2.73978e-17 -8.2121e-17)
(0.350845 3.7164e-17 -6.00957e-17)
(0.350845 2.87134e-17 -8.25883e-17)
(0.360629 3.84241e-17 -5.9985e-17)
(0.360629 3.04303e-17 -8.29366e-17)
(0.370266 3.97448e-17 -5.97789e-17)
(0.370266 3.13672e-17 -8.3192e-17)
(0.379747 4.12476e-17 -5.949e-17)
(0.379747 3.27451e-17 -8.33437e-17)
(0.389065 4.28058e-17 -5.91253e-17)
(0.389065 3.44474e-17 -8.34097e-17)
(0.398214 4.39531e-17 -5.87013e-17)
(0.398214 3.62263e-17 -8.33885e-17)
(0.407191 4.4833e-17 -5.8232e-17)
(0.407191 3.82824e-17 -8.33271e-17)
(0.415992 4.55919e-17 -5.77323e-17)
(0.415992 3.90747e-17 -8.32315e-17)
(0.424616 4.6712e-17 -5.71916e-17)
(0.424616 4.01326e-17 -8.30373e-17)
(0.433066 4.80722e-17 -5.65967e-17)
(0.433066 4.18969e-17 -8.28527e-17)
(0.44134 4.92988e-17 -5.59788e-17)
(0.44134 4.30525e-17 -8.27318e-17)
(0.449442 5.09612e-17 -5.53373e-17)
(0.449442 4.43754e-17 -8.25597e-17)
(0.457375 5.23206e-17 -5.46745e-17)
(0.457375 4.69528e-17 -8.23588e-17)
(0.465141 5.31014e-17 -5.39994e-17)
(0.465141 4.88033e-17 -8.2218e-17)
(0.472745 5.41751e-17 -5.33355e-17)
(0.472745 5.02707e-17 -8.20436e-17)
(0.480192 5.58724e-17 -5.81198e-17)
(0.480192 5.18695e-17 -8.18427e-17)
(0.487484 5.72329e-17 -6.47054e-17)
(0.487484 5.2597e-17 -8.16775e-17)
(0.494627 5.8611e-17 -7.12382e-17)
(0.494627 5.44722e-17 -8.14878e-17)
(0.501626 5.98115e-17 -7.77069e-17)
(0.501626 5.70421e-17 -8.1387e-17)
(0.508485 6.08308e-17 -8.41547e-17)
(0.508485 5.88115e-17 -8.13145e-17)
(0.515209 6.16947e-17 -9.0574e-17)
(0.515209 6.05222e-17 -8.12711e-17)
(0.521802 6.25034e-17 -9.69958e-17)
(0.521802 6.22507e-17 -8.11253e-17)
(0.528269 6.31217e-17 -1.03434e-16)
(0.528269 6.41819e-17 -8.10204e-17)
(0.534615 6.27177e-17 -1.09837e-16)
(0.534615 6.61373e-17 -8.09779e-17)
(0.540844 6.28111e-17 -1.16259e-16)
(0.540844 6.82921e-17 -8.10116e-17)
(0.54696 6.38519e-17 -1.22589e-16)
(0.54696 6.93409e-17 -8.10041e-17)
(0.552967 6.49116e-17 -1.2893e-16)
(0.552967 7.04711e-17 -8.10108e-17)
(0.55887 6.57139e-17 -1.35302e-16)
(0.55887 7.2651e-17 -8.11333e-17)
(0.564672 6.60627e-17 -1.41604e-16)
(0.564672 7.43758e-17 -8.13818e-17)
(0.570376 6.68117e-17 -1.47848e-16)
(0.570376 7.52577e-17 -8.14789e-17)
(0.575987 6.91557e-17 -1.54019e-16)
(0.575987 7.56328e-17 -8.14754e-17)
(0.581508 7.1072e-17 -1.60212e-16)
(0.581508 7.65184e-17 -8.15115e-17)
(0.586942 7.13792e-17 -1.66467e-16)
(0.586942 7.77912e-17 -8.1719e-17)
(0.592293 7.20503e-17 -1.72658e-16)
(0.592293 7.96099e-17 -8.19467e-17)
(0.597563 7.30726e-17 -1.78795e-16)
(0.597563 8.05557e-17 -8.21663e-17)
(0.602755 7.38221e-17 -1.84808e-16)
(0.602755 8.14007e-17 -8.24185e-17)
(0.607872 7.4837e-17 -1.90688e-16)
(0.607872 8.2123e-17 -8.24428e-17)
(0.612917 7.57394e-17 -1.96748e-16)
(0.612917 8.54189e-17 -8.24642e-17)
(0.617893 7.53389e-17 -2.02794e-16)
(0.617893 8.74691e-17 -8.29479e-17)
(0.622801 7.51514e-17 -2.08773e-16)
(0.622801 8.78504e-17 -8.33542e-17)
(0.627644 7.62725e-17 -2.14534e-16)
(0.627644 9.07399e-17 -8.34941e-17)
(0.632425 7.76209e-17 -2.20276e-16)
(0.632425 9.1593e-17 -8.35969e-17)
(0.637146 7.83988e-17 -2.26027e-16)
(0.637146 9.31257e-17 -8.38395e-17)
(0.641808 7.87207e-17 -2.31782e-16)
(0.641808 9.52086e-17 -8.43881e-17)
(0.646414 7.97133e-17 -2.37242e-16)
(0.646414 9.58251e-17 -8.47945e-17)
(0.650965 8.00659e-17 -2.42643e-16)
(0.650965 9.71091e-17 -8.48109e-17)
(0.655464 8.06156e-17 -2.48259e-16)
(0.655464 9.96478e-17 -8.48533e-17)
(0.659912 8.37132e-17 -2.53766e-16)
(0.659912 1.01146e-16 -8.52251e-17)
(0.66431 8.74749e-17 -2.58973e-16)
(0.66431 1.04604e-16 -8.54507e-17)
(0.668661 8.95685e-17 -2.64029e-16)
(0.668661 1.09098e-16 -8.56524e-17)
(0.672966 8.80345e-17 -2.68873e-16)
(0.672966 1.11013e-16 -8.60364e-17)
(0.677227 8.60909e-17 -2.7399e-16)
(0.677227 1.12802e-16 -8.71661e-17)
(0.681444 8.62399e-17 -2.79114e-16)
(0.681444 1.14443e-16 -8.81419e-17)
(0.68562 8.65701e-17 -2.84475e-16)
(0.68562 1.13739e-16 -8.9594e-17)
(0.689755 8.61502e-17 -2.90286e-16)
(0.689755 1.12183e-16 -9.0623e-17)
(0.693851 8.56881e-17 -2.95751e-16)
(0.693851 1.12711e-16 -9.16779e-17)
(0.697909 8.49085e-17 -3.01425e-16)
(0.697909 1.15338e-16 -9.31804e-17)
(0.70193 8.15187e-17 -3.06988e-16)
(0.70193 1.17162e-16 -9.42953e-17)
(0.705915 7.94799e-17 -3.12584e-16)
(0.705915 1.201e-16 -9.52127e-17)
(0.709866 8.02744e-17 -3.17985e-16)
(0.709866 1.22503e-16 -9.59511e-17)
(0.713783 8.19003e-17 -3.23023e-16)
(0.713783 1.20891e-16 -9.66932e-17)
(0.717668 8.19385e-17 -3.28004e-16)
(0.717668 1.23724e-16 -9.74306e-17)
(0.721521 8.03166e-17 -3.33485e-16)
(0.721521 1.27109e-16 -9.83233e-17)
(0.725343 8.08311e-17 -3.38998e-16)
(0.725343 1.25773e-16 -9.8738e-17)
(0.729136 8.40524e-17 -3.4416e-16)
(0.729136 1.27106e-16 -9.86559e-17)
(0.732899 8.53817e-17 -3.49648e-16)
(0.732899 1.29263e-16 -9.91511e-17)
(0.736635 8.36426e-17 -3.55207e-16)
(0.736635 1.28022e-16 -9.96028e-17)
(0.740343 8.31305e-17 -3.60894e-16)
(0.740343 1.30554e-16 -9.99859e-17)
(0.744025 8.34825e-17 -3.66077e-16)
(0.744025 1.3379e-16 -9.99411e-17)
(0.747681 8.16143e-17 -3.71448e-16)
(0.747681 1.35194e-16 -9.9894e-17)
(0.751311 7.74949e-17 -3.76204e-16)
(0.751311 1.36822e-16 -9.98957e-17)
(0.754918 7.59081e-17 -3.81352e-16)
(0.754918 1.39939e-16 -9.87158e-17)
(0.7585 7.73988e-17 -3.86068e-16)
(0.7585 1.44481e-16 -9.82628e-17)
(0.76206 8.00113e-17 -3.90756e-16)
(0.76206 1.47211e-16 -9.76269e-17)
(0.765597 8.27279e-17 -3.95107e-16)
(0.765597 1.48112e-16 -9.72094e-17)
(0.769112 8.27081e-17 -3.99549e-16)
(0.769112 1.47251e-16 -9.66979e-17)
(0.772606 8.23188e-17 -4.03701e-16)
(0.772606 1.48744e-16 -9.57256e-17)
(0.776079 8.27047e-17 -4.08027e-16)
(0.776079 1.51724e-16 -9.53009e-17)
(0.779533 8.06964e-17 -4.11615e-16)
(0.779533 1.46461e-16 -9.49378e-17)
(0.782966 8.01297e-17 -4.1574e-16)
(0.782966 1.41613e-16 -9.41871e-17)
(0.78638 8.12492e-17 -4.1895e-16)
(0.78638 1.41271e-16 -9.31088e-17)
(0.789776 8.42519e-17 -4.23703e-16)
(0.789776 1.39867e-16 -9.22084e-17)
(0.793153 8.6311e-17 -4.28512e-16)
(0.793153 1.37933e-16 -9.27423e-17)
(0.796513 8.59164e-17 -4.32853e-16)
(0.796513 1.36155e-16 -9.29277e-17)
(0.799856 8.69514e-17 -4.36357e-16)
(0.799856 1.35186e-16 -9.24872e-17)
(0.803181 8.7237e-17 -4.39859e-16)
(0.803181 1.37035e-16 -9.23116e-17)
(0.806491 8.27841e-17 -4.43246e-16)
(0.806491 1.37999e-16 -9.25899e-17)
(0.809784 8.01553e-17 -4.48372e-16)
(0.809784 1.37014e-16 -9.20843e-17)
(0.813061 8.16928e-17 -4.53294e-16)
(0.813061 1.41754e-16 -9.1309e-17)
(0.816324 8.36584e-17 -4.58617e-16)
(0.816324 1.41666e-16 -9.07299e-17)
(0.819571 8.63632e-17 -4.62423e-16)
(0.819571 1.41736e-16 -9.06329e-17)
(0.822804 8.66825e-17 -4.65486e-16)
(0.822804 1.45297e-16 -8.93765e-17)
(0.826023 8.5188e-17 -4.69771e-16)
(0.826023 1.49046e-16 -8.99802e-17)
(0.829227 8.42774e-17 -4.75188e-16)
(0.829227 1.52364e-16 -8.91583e-17)
(0.832419 8.02681e-17 -4.79058e-16)
(0.832419 1.49404e-16 -8.91039e-17)
(0.835596 7.4194e-17 -4.84521e-16)
(0.835596 1.49391e-16 -8.91177e-17)
(0.838761 7.30055e-17 -4.88486e-16)
(0.838761 1.54297e-16 -8.85453e-17)
(0.841914 7.38192e-17 -4.90308e-16)
(0.841914 1.56346e-16 -8.73235e-17)
(0.845054 7.60608e-17 -4.92358e-16)
(0.845054 1.55457e-16 -8.69514e-17)
(0.848181 7.48538e-17 -4.93171e-16)
(0.848181 1.53784e-16 -8.77087e-17)
(0.851297 6.95908e-17 -4.95107e-16)
(0.851297 1.49479e-16 -8.58123e-17)
(0.854402 6.77903e-17 -4.96752e-16)
(0.854402 1.4921e-16 -8.19832e-17)
(0.857495 6.74473e-17 -5.00772e-16)
(0.857495 1.46297e-16 -8.01405e-17)
(0.860576 6.96449e-17 -5.05451e-16)
(0.860576 1.39663e-16 -7.86407e-17)
(0.863647 7.48675e-17 -5.06469e-16)
(0.863647 1.4076e-16 -7.82021e-17)
(0.866708 7.35921e-17 -5.06114e-16)
(0.866708 1.40332e-16 -7.70176e-17)
(0.869757 6.75789e-17 -5.07131e-16)
(0.869757 1.37413e-16 -7.53078e-17)
(0.872797 5.92806e-17 -5.08604e-16)
(0.872797 1.36157e-16 -7.53889e-17)
(0.875826 5.3031e-17 -5.10898e-16)
(0.875826 1.32681e-16 -7.18602e-17)
(0.878845 5.34528e-17 -5.13043e-16)
(0.878845 1.37979e-16 -7.04026e-17)
(0.881855 4.83178e-17 -5.13373e-16)
(0.881855 1.35453e-16 -6.86208e-17)
(0.884855 4.26984e-17 -5.13812e-16)
(0.884855 1.24765e-16 -6.31657e-17)
(0.887845 4.35607e-17 -5.10281e-16)
(0.887845 1.30329e-16 -5.79806e-17)
(0.890827 4.53749e-17 -5.08993e-16)
(0.890827 1.24456e-16 -5.66669e-17)
(0.893799 5.07366e-17 -5.03471e-16)
(0.893799 1.17973e-16 -6.32534e-17)
(0.896762 5.11051e-17 -5.00113e-16)
(0.896762 1.17139e-16 -6.48902e-17)
(0.899716 5.12823e-17 -4.94278e-16)
(0.899716 1.0799e-16 -6.58784e-17)
(0.902662 4.98142e-17 -4.88416e-16)
(0.902662 1.05968e-16 -7.19668e-17)
(0.905599 4.73099e-17 -4.87509e-16)
(0.905599 1.02609e-16 -7.88729e-17)
(0.908528 4.19157e-17 -4.8727e-16)
(0.908528 9.53466e-17 -8.23436e-17)