/*--------------------------------*- C++ -*----------------------------------*\
| =========                 |                                                 |
| \\      /  F ield         | OpenFOAM: The Open Source CFD Toolbox           |
|  \\    /   O peration     | Version:  2106                                  |
|   \\  /    A nd           | Website:  www.openfoam.com                      |
|    \\/     M anipulation  |                                                 |
\*---------------------------------------------------------------------------*/
FoamFile
{
    version     2.0;
    format      ascii;
    arch        "LSB;label=32;scalar=64";
    class       volTensorField;
    location    "10020";
    object      grad(U);
}
// * * * * * * * * * * * * * * * * * * * * * * * * * * * * * * * * * * * * * //

dimensions      [0 0 -1 0 0 0 0];

internalField   nonuniform List<tensor> 
2000
(
(0 -5.51206e-26 8.89258e-32 10.5553 -7.8322e-12 -1.08531e-13 0.0195358 -7.24763e-15 -8.73371e-17)
(0 -4.63978e-29 -3.29841e-31 10.5553 -5.37015e-16 -1.96381e-18 0.0195358 -6.27817e-19 -9.0653e-19)
(0 -5.60519e-45 3.61992e-31 10.5533 8.07794e-28 -6.28632e-14 0.0589648 -3.15544e-30 -2.37017e-16)
(0 -2.87329e-29 -3.49185e-31 10.5533 -1.08366e-15 -8.74318e-18 0.0589648 -2.58338e-18 -5.50632e-17)
(-2.40406e-18 2.9737e-30 -5.42483e-28 10.5514 7.60934e-13 1.26218e-29 0.0817993 -4.75525e-15 4.93038e-32)
(0 3.13405e-30 1.46908e-31 10.5514 -1.1983e-15 -1.3027e-17 0.0817993 -4.96613e-18 -5.71468e-17)
(-7.87027e-18 2.42723e-30 -3.60432e-33 10.5494 4.77061e-13 -5.75095e-16 0.0833108 -6.95531e-15 -1.78411e-17)
(3.14811e-17 3.07662e-30 9.61442e-32 10.5494 -1.29571e-15 -1.41458e-17 0.0833108 -7.74061e-18 -5.92871e-17)
(0 9.06071e-30 1.88765e-31 10.5475 3.14492e-16 -4.31308e-15 0.0848501 -4.53776e-16 -5.12262e-17)
(0 -3.02024e-30 -9.43824e-32 10.5475 -1.31638e-15 -1.48396e-17 0.0848501 -1.04958e-17 -6.14812e-17)
(-5.21589e-17 -6.08201e-29 3.24285e-31 10.5455 -3.44293e-14 -6.7122e-15 0.0864178 -1.39778e-16 -5.78374e-17)
(-2.42714e-17 -1.77894e-29 -3.24285e-31 10.5455 -1.35234e-15 -1.52464e-17 0.0864178 -1.34258e-17 -6.3729e-17)
(0 -5.38842e-28 -1.8191e-31 10.5435 -1.64241e-27 -7.05963e-15 0.0880143 -3.15544e-30 -5.89576e-17)
(9.95299e-17 2.91056e-30 1.8191e-31 10.5435 -1.3203e-15 -1.584e-17 0.0880143 -1.64231e-17 -6.60292e-17)
(0 -2.70213e-30 8.92883e-32 10.5415 2.14897e-15 -7.14492e-15 0.0896402 -9.05328e-18 -6.14674e-17)
(2.46112e-16 5.71445e-30 0 10.5415 -1.2919e-15 -1.65037e-17 0.0896402 -1.9456e-17 -6.83846e-17)
(-3.67543e-17 9.00278e-30 1.335e-31 10.5395 2.81331e-15 -7.32455e-15 0.091296 -2.8724e-17 -6.42915e-17)
(0 0 8.76522e-32 10.5395 -1.32394e-15 -1.73516e-17 0.091296 -2.24707e-17 -7.07942e-17)
(9.68791e-17 -5.50694e-30 -1.72092e-31 10.5375 2.25566e-15 -7.49403e-15 0.0929822 -1.94838e-17 -6.67749e-17)
(0 5.50694e-30 1.72092e-31 10.5375 -1.37625e-15 -1.87064e-17 0.0929822 -2.55889e-17 -7.32602e-17)
(9.51039e-17 -2.70301e-29 -6.75754e-31 10.5354 2.34251e-15 -7.62883e-15 0.0946994 -1.9964e-17 -6.91377e-17)
(0 2.70301e-29 6.75754e-31 10.5354 -1.40722e-15 -2.0383e-17 0.0946994 -2.89272e-17 -7.57785e-17)
(-3.79639e-17 1.91447e-30 1.97469e-31 10.5334 2.40426e-15 -7.75048e-15 0.0964481 -2.17795e-17 -7.15192e-17)
(2.21589e-16 0 -1.65843e-31 10.5334 -1.39983e-15 -2.12034e-17 0.0964481 -3.22487e-17 -7.83494e-17)
(0 -5.20972e-30 0 10.5313 2.37206e-15 -8.58379e-15 0.0982289 -2.18473e-17 -8.72896e-17)
(0 5.20972e-30 0 10.5313 -1.39747e-15 -2.19111e-17 0.0982289 -3.56196e-17 -8.09654e-17)
(-6.84069e-17 3.40769e-29 6.9173e-31 10.5292 2.35914e-15 -9.96153e-15 0.100042 -2.19993e-17 -1.00398e-16)
(0 -2.55712e-29 -6.39281e-31 10.5292 -1.40954e-15 -2.34806e-17 0.100042 -3.91925e-17 -8.36333e-17)
(-1.63415e-16 1.34319e-29 3.68961e-31 10.527 2.29783e-15 -1.0683e-14 0.101889 -2.24249e-17 -1.04546e-16)
(-1.76644e-16 -5.02053e-30 -1.56892e-31 10.527 -1.45108e-15 -2.49929e-17 0.101889 -4.28694e-17 -8.63492e-17)
(1.68605e-16 -8.3189e-30 -5.20075e-31 10.5249 2.1654e-15 -1.09199e-14 0.103769 -2.16414e-17 -1.08854e-16)
(-3.27606e-16 0 3.85042e-31 10.5249 -1.49945e-15 -2.64917e-17 0.103769 -4.67779e-17 -8.91114e-17)
(8.51149e-17 -9.67644e-30 -3.02389e-31 10.5227 2.10381e-15 -1.11611e-14 0.105684 -2.06583e-17 -1.13331e-16)
(0 9.67644e-30 3.02389e-31 10.5227 -1.39267e-15 -2.74235e-17 0.105684 -5.09994e-17 -9.19163e-17)
(3.58908e-16 -3.05266e-29 -7.21876e-31 10.5204 2.13198e-15 -1.14067e-14 0.107634 -2.12197e-17 -1.17981e-16)
(2.16485e-16 2.37478e-29 4.45271e-31 10.5204 -1.25954e-15 -2.85006e-17 0.107634 -5.45942e-17 -9.47563e-17)
(-1.03092e-16 8.0513e-30 3.58729e-31 10.5182 2.16429e-15 -1.16561e-14 0.109619 -2.20132e-17 -1.22801e-16)
(-1.64048e-16 -4.66253e-30 -1.45704e-31 10.5182 -1.25998e-15 -2.96377e-17 0.109619 -5.81087e-17 -9.76342e-17)
(2.7146e-16 -3.38818e-30 -2.1372e-31 10.5159 2.28425e-15 -1.191e-14 0.111641 -2.26928e-17 -1.27819e-16)
(2.80629e-16 4.57709e-30 2.86068e-31 10.5159 -1.29669e-15 -3.29141e-17 0.111641 -6.19501e-17 -1.00546e-16)
(-1.17879e-16 7.88046e-30 2.14615e-31 10.5135 2.43774e-15 -1.2168e-14 0.113699 -2.53901e-17 -1.33008e-16)
(9.4303e-16 -4.49321e-30 -1.40413e-31 10.5135 -1.43698e-15 -3.64184e-17 0.113699 -6.57597e-17 -1.03496e-16)
(0 1.32326e-29 2.7568e-31 10.5111 2.38108e-15 -1.24296e-14 0.115795 -2.68681e-17 -1.384e-16)
(5.01909e-16 -8.82175e-30 -1.3784e-31 10.5111 -1.6416e-15 -3.56776e-17 0.115795 -7.02163e-17 -1.06461e-16)
(1.5235e-16 -1.29901e-29 -4.05942e-31 10.5087 2.30486e-15 -1.26963e-14 0.117929 -2.50983e-17 -1.44007e-16)
(5.32864e-16 1.29901e-29 4.05942e-31 10.5087 -1.38394e-15 -3.30478e-17 0.117929 -7.53036e-17 -1.09422e-16)
(0 8.5014e-30 2.65669e-31 10.5062 2.3905e-15 -1.29673e-14 0.120101 -2.61698e-17 -1.4981e-16)
(5.6439e-16 -4.2507e-30 -1.32834e-31 10.5062 -1.33788e-15 -2.86696e-17 0.120101 -7.89213e-17 -1.12382e-16)
(-1.49124e-16 -7.88463e-31 -3.01391e-31 10.5036 2.49024e-15 -1.32422e-14 0.122313 -2.80022e-17 -1.55838e-16)
(0 8.34562e-30 6.52001e-31 10.5036 -1.59898e-15 -2.79836e-17 0.122313 -8.42686e-17 -1.15323e-16)
(0 -2.04817e-29 -6.40054e-31 10.501 2.52307e-15 -1.12022e-14 0.124565 -2.94791e-17 -1.07051e-16)
(6.29196e-16 2.04817e-29 6.40054e-31 10.501 -1.594e-15 -2.96544e-17 0.124565 -8.95783e-17 -1.18267e-16)
(4.00321e-16 -4.65996e-30 -2.66404e-31 10.4984 2.50279e-15 -7.35162e-15 0.126858 -2.98363e-17 -6.86414e-17)
(-2.82972e-16 8.04256e-30 5.0266e-31 10.4984 -1.65212e-15 -2.79784e-17 0.126858 -9.46057e-17 -1.21184e-16)
(-1.74103e-16 3.38181e-30 1.12445e-31 10.4956 2.53079e-15 -5.71747e-15 0.129192 -3.00996e-17 -7.08494e-17)
(0 3.94759e-30 2.46724e-31 10.4956 -1.53334e-15 -2.30223e-17 0.129192 -1.0005e-16 -1.2404e-16)
(0 3.87525e-30 2.42203e-31 10.4928 2.57304e-15 -5.78856e-15 0.131568 -3.16502e-17 -7.30109e-17)
(0 0 0 10.4928 -1.40634e-15 -1.87231e-17 0.131568 -1.05063e-16 -1.26822e-16)
(-4.59231e-16 3.76181e-29 1.30517e-30 10.4899 2.65487e-15 -5.86379e-15 0.133986 -3.22933e-17 -7.54412e-17)
(-7.66125e-16 -2.66297e-29 -9.5106e-31 10.4899 -1.37728e-15 -2.00704e-17 0.133986 -1.10449e-16 -1.29562e-16)
(2.00487e-16 3.55807e-31 -1.18401e-31 10.487 2.74132e-15 -5.94075e-15 0.136448 -3.49336e-17 -7.77653e-17)
(8.01947e-16 -3.73453e-30 0 10.487 -1.28524e-15 -2.18421e-17 0.136448 -1.15806e-16 -1.32257e-16)
(-2.57978e-16 7.33219e-30 2.29131e-31 10.4839 2.72863e-15 -6.01512e-15 0.138954 -3.57602e-17 -8.02556e-17)
(0 -3.66609e-30 0 10.4839 -1.45261e-15 -2.47947e-17 0.138954 -1.2018e-16 -1.34887e-16)
(-2.18895e-16 6.97574e-30 5.72528e-31 10.4808 2.61268e-15 -6.10462e-15 0.141505 -3.59137e-17 -8.31126e-17)
(0 -3.59891e-30 -4.49864e-31 10.4808 -1.67258e-15 -2.24159e-17 0.141505 -1.26383e-16 -1.37454e-16)
(-2.28353e-16 -1.56674e-31 -9.58561e-32 10.4776 2.48812e-15 -6.19182e-15 0.144101 -3.3976e-17 -8.5679e-17)
(0 7.06593e-30 4.41621e-31 10.4776 -1.54082e-15 -1.53574e-17 0.144101 -1.33562e-16 -1.3989e-16)
(0 -2.42776e-29 -8.67056e-31 10.4742 2.54425e-15 -6.27159e-15 0.146743 -3.38402e-17 -8.84799e-17)
(9.51943e-16 2.42776e-29 8.67056e-31 10.4742 -1.34854e-15 -1.29676e-17 0.146743 -1.38933e-16 -1.42213e-16)
(0 3.40467e-30 4.25584e-31 10.4707 2.75256e-15 -6.36292e-15 0.149432 -3.68295e-17 -9.15147e-17)
(0 0 -2.12792e-31 10.4707 -1.43658e-15 -1.67932e-17 0.149432 -1.4452e-16 -1.44414e-16)
(2.25921e-17 -3.02806e-32 7.66978e-32 10.4671 2.95075e-15 -6.46188e-15 0.152168 -4.10621e-17 -9.46918e-17)
(1.03114e-15 -3.34228e-30 -2.08893e-31 10.4671 -1.58787e-15 -1.77816e-17 0.152168 -1.51361e-16 -1.46533e-16)
(-2.67957e-16 -1.63153e-29 -6.85468e-31 10.4634 3.0242e-15 -6.56027e-15 0.154952 -4.39808e-17 -9.78779e-17)
(1.07183e-15 2.29672e-29 8.20259e-31 10.4634 -1.75948e-15 -1.22562e-17 0.154952 -1.57591e-16 -1.48471e-16)
(-2.78316e-16 -9.51407e-30 -1.07039e-30 10.4595 2.95653e-15 -6.66094e-15 0.157785 -4.47851e-17 -1.01298e-16)
(0 1.93255e-29 1.20784e-30 10.4595 -1.88957e-15 -1.36587e-17 0.157785 -1.66032e-16 -1.5022e-16)
(0 1.89713e-29 9.8809e-31 10.4555 2.71509e-15 -6.76889e-15 0.160666 -4.35962e-17 -1.04884e-16)
(1.15546e-15 -1.89713e-29 -9.8809e-31 10.4555 -1.53042e-15 -1.80119e-17 0.160666 -1.73924e-16 -1.51782e-16)
(-5.99212e-16 1.60485e-29 6.74202e-31 10.4512 2.47036e-15 -6.87652e-15 0.163598 -3.90508e-17 -1.08485e-16)
(1.19842e-15 -6.2079e-30 -1.93997e-31 10.4512 -1.2169e-15 -1.11206e-17 0.163598 -1.7836e-16 -1.53188e-16)
(0 -3.04707e-30 -7.61767e-31 10.4468 2.45852e-15 -6.97254e-15 0.166579 -3.75758e-17 -1.11899e-16)
(0 3.04707e-30 7.61767e-31 10.4468 -1.3392e-15 -1.51597e-18 0.166579 -1.85317e-16 -1.54353e-16)
(0 -1.19649e-29 -5.60856e-31 10.4421 2.54623e-15 -7.06369e-15 0.169611 -4.01444e-17 -1.15535e-16)
(0 1.19649e-29 5.60856e-31 10.4421 -1.68614e-15 5.53822e-18 0.169611 -1.93277e-16 -1.55277e-16)
(-3.33023e-16 6.30146e-30 5.19454e-31 10.4372 2.74496e-15 -7.16916e-15 0.172694 -4.18417e-17 -1.19607e-16)
(-1.74536e-15 0 -1.83526e-31 10.4372 -1.6339e-15 9.97184e-18 0.172694 -2.02975e-16 -1.55919e-16)
(3.44571e-16 5.28482e-30 3.84804e-31 10.432 2.9262e-15 -7.28573e-15 0.175828 -4.82352e-17 -1.23819e-16)
(1.37829e-15 -2.88261e-30 -3.60326e-31 10.432 -1.29649e-15 1.6081e-17 0.175828 -2.08413e-16 -1.56289e-16)
(3.5633e-16 2.49363e-29 7.25133e-31 10.4266 2.87345e-15 -7.38636e-15 0.179013 -4.95295e-17 -1.2757e-16)
(-1.42532e-15 -2.82979e-29 -8.84309e-31 10.4266 -1.53702e-15 2.23992e-17 0.179013 -2.10958e-16 -1.56288e-16)
(-3.68302e-16 -2.19508e-30 -3.5815e-31 10.4207 2.88621e-15 -7.4876e-15 0.18225 -4.82408e-17 -1.32027e-16)
(1.47321e-15 5.55587e-30 2.16312e-32 10.4207 -1.69362e-15 6.17311e-44 0.18225 -2.20813e-16 -1.55869e-16)
(0 -1.63622e-29 -8.52196e-31 10.4146 3.19765e-15 -7.63948e-15 0.185539 -5.18425e-17 -1.37791e-16)
(3.04393e-15 2.18162e-29 1.19307e-30 10.4146 -1.70739e-15 -2.93374e-17 0.185539 -2.29498e-16 -1.553e-16)
(7.69665e-16 -1.94186e-29 -1.67593e-30 10.408 3.17158e-15 -7.78688e-15 0.188879 -6.11586e-17 -1.42354e-16)
(1.57161e-15 1.60623e-29 1.50584e-30 10.408 -1.90743e-15 1.31607e-17 0.188879 -2.372e-16 -1.54202e-16)
(-4.05538e-16 1.38684e-29 8.31126e-31 10.401 2.74507e-15 -7.88632e-15 0.19227 -5.28497e-17 -1.46661e-16)
(-1.62215e-15 -5.256e-30 -6.57e-31 10.401 -1.91691e-15 4.7245e-17 0.19227 -2.47916e-16 -1.5229e-16)
(7.26161e-16 -5.15968e-30 -3.2248e-31 10.3934 2.60956e-15 -7.96984e-15 0.195712 -4.7689e-17 -1.50865e-16)
(-7.26161e-16 5.15968e-30 3.2248e-31 10.3934 -1.59129e-15 3.84465e-17 0.195712 -2.58725e-16 -1.49909e-16)
(-1.85721e-15 1.85501e-29 1.1323e-30 10.3853 2.51784e-15 -8.07355e-15 0.199205 -4.97357e-17 -1.56167e-16)
(0 -1.01303e-29 -3.16571e-31 10.3853 -1.01114e-15 4.45231e-17 0.199205 -2.63904e-16 -1.47095e-16)
(6.99792e-16 -9.94464e-30 -6.2154e-31 10.3766 2.74046e-15 -8.14845e-15 0.202746 -4.59661e-17 -1.59478e-16)
(-6.99792e-16 9.94464e-30 6.2154e-31 10.3766 -9.74589e-16 5.83844e-17 0.202746 -2.68646e-16 -1.43723e-16)
(0 1.46436e-29 3.05075e-31 10.3672 3.41582e-15 -8.19654e-15 0.206336 -6.03131e-17 -1.63967e-16)
(-1.83359e-15 -1.95248e-29 -9.15225e-31 10.3672 -1.57517e-15 5.16317e-17 0.206336 -2.77231e-16 -1.39869e-16)
(-2.02168e-16 1.10284e-29 1.00141e-30 10.357 3.82089e-15 -8.29834e-15 0.209973 -7.45938e-17 -1.69617e-16)
(0 -9.58351e-30 -5.98969e-31 10.357 -1.93826e-15 4.13099e-17 0.209973 -2.86516e-16 -1.3561e-16)
(-4.8627e-16 -1.35971e-30 -3.86563e-31 10.346 3.73364e-15 -8.40514e-15 0.213655 -7.90183e-17 -1.74559e-16)
(0 9.4079e-30 -1.75162e-46 10.346 -2.02677e-15 -3.08149e-33 0.213655 -2.9903e-16 -1.30872e-16)
(-1.00116e-15 -7.16658e-30 -7.41673e-31 10.334 3.41203e-15 -8.50823e-15 0.21738 -7.37991e-17 -1.80348e-16)
(2.00231e-15 9.2355e-30 8.65828e-31 10.334 -2.01322e-15 1.32005e-17 0.21738 -3.1072e-16 -1.25766e-16)
(-5.1514e-16 7.87578e-30 2.11698e-31 10.3209 3.21412e-15 -8.60132e-15 0.221146 -6.84573e-17 -1.85129e-16)
(0 -4.53313e-30 0 10.3209 -2.01417e-15 5.54942e-17 0.221146 -3.22429e-16 -1.19746e-16)
(-1.05991e-15 2.89326e-29 1.82585e-30 10.3067 3.48005e-15 -8.66373e-15 0.22495 -6.80933e-17 -1.8987e-16)
(-2.11983e-15 -2.22503e-29 -1.39064e-30 10.3067 -2.27996e-15 9.40253e-17 0.22495 -3.36547e-16 -1.12872e-16)
(-6.97808e-17 9.76857e-30 8.68238e-31 10.2912 3.83259e-15 -8.69116e-15 0.228788 -8.26536e-17 -1.93326e-16)
(-1.56532e-15 -2.18426e-29 -1.36516e-30 10.2912 -2.61536e-15 9.38581e-17 0.228788 -3.52052e-16 -1.05176e-16)
(-1.2071e-15 1.28654e-29 5.36058e-31 10.2742 4.00294e-15 -8.73469e-15 0.232657 -8.63464e-17 -1.98998e-16)
(0 -8.57693e-30 0 10.2742 -2.62989e-15 3.69494e-17 0.232657 -3.67861e-16 -9.69661e-17)
(-1.74444e-15 -1.01776e-29 -8.42772e-31 10.2556 4.02779e-15 -8.82862e-15 0.236552 -9.34898e-17 -2.04948e-16)
(4.6078e-15 1.26296e-29 1.05247e-30 10.2556 -2.19499e-15 3.25711e-17 0.236552 -3.81921e-16 -8.83141e-17)
(-1.17348e-15 1.98604e-29 1.53474e-30 10.2353 3.47736e-15 -8.88849e-15 0.240468 -9.07475e-17 -2.09312e-16)
(2.94901e-15 -1.65309e-29 -1.29148e-30 10.2353 -2.06144e-15 7.56127e-17 0.240468 -3.94012e-16 -7.86177e-17)
(5.70973e-16 -1.2171e-29 -7.60688e-31 10.2131 4.3482e-15 -8.83768e-15 0.2444 -7.11221e-17 -2.10236e-16)
(-5.70973e-16 1.2171e-29 1.01425e-30 10.2131 -2.30105e-15 1.02151e-16 0.2444 -4.05748e-16 -6.79286e-17)
(-1.18491e-15 7.30096e-30 7.55734e-31 10.1887 3.35949e-15 -8.78138e-15 0.248341 -1.35893e-16 -2.14451e-16)
(2.49759e-15 3.98266e-30 2.48916e-31 10.1887 -2.34746e-15 9.35793e-17 0.248341 -4.19914e-16 -5.67026e-17)
(-5.50239e-16 -1.38687e-29 9.7742e-31 10.162 2.07419e-15 -8.76495e-15 0.252283 -2.5544e-17 -2.17341e-16)
(0 0 -4.8871e-31 10.162 -2.22137e-15 1.19003e-16 0.252283 -4.35453e-16 -4.48673e-17)
(-1.73835e-15 7.14931e-30 1.23271e-30 10.1329 5.35556e-15 -8.68184e-15 0.25622 -1.5555e-16 -2.18323e-16)
(0 0 -4.79755e-31 10.1329 -2.05968e-15 1.527e-16 0.25622 -4.5181e-16 -3.21898e-17)
(-1.06051e-15 7.53541e-30 4.70963e-31 10.1009 4.12147e-15 -8.58589e-15 0.260143 -1.12797e-16 -2.20581e-16)
(0 -3.76771e-30 0 10.1009 -1.9275e-15 1.72627e-16 0.260143 -4.73522e-16 -1.90812e-17)
(1.04108e-15 -2.58906e-29 -1.84933e-30 10.066 4.25051e-15 -8.41019e-15 0.264041 -9.77398e-17 -2.17316e-16)
(1.73006e-15 2.58906e-29 1.84933e-30 10.066 -2.49039e-15 1.46537e-16 0.264041 -4.93137e-16 -5.02472e-18)
(0 2.17853e-29 2.72317e-30 10.0279 4.39135e-15 -8.27278e-15 0.267905 -1.23829e-16 -2.21536e-16)
(0 -2.17853e-29 -2.72317e-30 10.0279 -3.2516e-15 1.13423e-16 0.267905 -5.11402e-16 3.32977e-18)
(-7.28631e-16 3.30683e-30 3.05434e-31 9.98637 3.56108e-15 -8.17183e-15 0.271724 -1.08963e-16 -2.19999e-16)
(2.91452e-15 3.56435e-30 4.45544e-31 9.98637 -2.0406e-15 1.68216e-16 0.271724 -5.32091e-16 2.45543e-17)
(0 -2.79923e-29 -1.31214e-30 9.94112 3.21599e-15 -7.88123e-15 0.275487 -8.32151e-17 -2.1374e-16)
(2.98786e-15 2.79923e-29 1.31214e-30 9.94112 -1.16127e-15 2.03597e-16 0.275487 -5.42451e-16 4.11534e-17)
(-7.65567e-16 2.73493e-29 2.46954e-30 9.89193 4.13179e-15 -7.59187e-15 0.27918 -9.38972e-17 -2.11913e-16)
(-3.06227e-15 -2.40444e-29 -2.14682e-30 9.89193 -2.69553e-15 2.19592e-16 0.27918 -5.5461e-16 5.8013e-17)
(9.49126e-16 -3.37197e-30 -1.26449e-30 9.83855 5.42168e-15 -7.27944e-15 0.282791 -1.38178e-16 -2.03783e-16)
(-3.13775e-15 3.37197e-30 1.26449e-30 9.83855 -3.55113e-15 2.1358e-16 0.282791 -5.83847e-16 7.57356e-17)
(-1.60715e-15 3.26444e-30 2.65505e-31 9.78076 5.44632e-15 -6.9796e-15 0.286306 -1.71796e-16 -2.0229e-16)
(3.21429e-15 3.31018e-30 4.13773e-31 9.78076 -3.40229e-15 1.37007e-16 0.286306 -6.02968e-16 9.34351e-17)
(-1.64593e-15 6.57393e-30 6.95554e-31 9.71833 4.65986e-15 -6.77128e-15 0.289712 -1.44832e-16 -1.99e-16)
(0 0 0 9.71833 -2.96592e-15 1.3239e-16 0.289712 -6.28617e-16 1.11702e-16)
(0 -3.18998e-30 -7.97495e-31 9.65104 4.42593e-15 -6.39401e-15 0.292994 -1.31223e-16 -1.86923e-16)
(3.37045e-15 3.18998e-30 7.97495e-31 9.65104 -2.47884e-15 1.90577e-16 0.292994 -6.45242e-16 1.3034e-16)
(-1.74395e-15 2.83358e-29 3.88769e-30 9.57872 4.83616e-15 -5.98226e-15 0.296139 -1.36034e-16 -1.80939e-16)
(-3.45003e-15 -2.19207e-29 -2.74008e-30 9.57872 -3.104e-15 2.04458e-16 0.296139 -6.65785e-16 1.48957e-16)
(8.82641e-16 -6.35091e-30 -1.52605e-30 9.50119 5.44895e-15 -5.58589e-15 0.299132 -1.61633e-16 -1.68903e-16)
(0 3.07414e-30 1.1528e-30 9.50119 -2.96959e-15 2.25873e-16 0.299132 -7.04584e-16 1.68011e-16)
(1.75244e-15 -9.30473e-30 -1.13602e-30 9.41832 5.6084e-15 -5.0681e-15 0.30196 -1.7991e-16 -1.54403e-16)
(-4.46146e-15 6.03561e-30 7.54452e-31 9.41832 -3.73694e-15 2.08423e-16 0.30196 -7.14921e-16 1.87377e-16)
(-1.84718e-15 9.49203e-30 1.51768e-30 9.33001 5.6737e-15 -4.60267e-15 0.30461 -1.77995e-16 -1.44728e-16)
(0 0 -3.70313e-31 9.33001 -4.07665e-15 1.40357e-16 0.30461 -7.58645e-16 2.05324e-16)
(-8.18591e-16 1.16329e-29 7.27055e-31 9.2362 6.04845e-15 -4.18921e-15 0.307068 -1.90974e-16 -1.32585e-16)
(8.18591e-16 -2.03575e-29 -1.81764e-30 9.2362 -4.5067e-15 7.85165e-17 0.307068 -7.8026e-16 2.22534e-16)
(9.6538e-16 5.31546e-30 -4.02285e-31 9.13686 6.51982e-15 -3.66973e-15 0.309324 -2.09751e-16 -1.1481e-16)
(-7.72304e-15 -8.56478e-30 -3.56866e-31 9.13686 -4.74844e-15 3.27074e-17 0.309324 -8.29308e-16 2.39154e-16)
(2.56429e-15 -1.16483e-29 -1.45967e-30 9.03203 6.26676e-15 -3.07608e-15 0.311367 -2.30265e-16 -9.64049e-17)
(-1.57773e-15 8.40784e-30 1.05098e-30 9.03203 -3.85252e-15 4.19289e-17 0.311367 -8.71434e-16 2.55375e-16)
(0 -2.47613e-29 -3.43907e-30 8.92175 5.55232e-15 -2.5653e-15 0.313189 -2.00102e-16 -8.30477e-17)
(4.03165e-15 2.47613e-29 3.43907e-30 8.92175 -4.68591e-15 8.17633e-17 0.313189 -9.10369e-16 2.71861e-16)
(2.54986e-15 -8.64008e-30 -1.09363e-30 8.80616 5.27259e-15 -2.13449e-15 0.314781 -1.88463e-16 -6.90304e-17)
(4.11769e-15 5.40168e-30 6.7521e-31 8.80616 -5.68909e-15 9.78505e-17 0.314781 -9.43891e-16 2.88856e-16)
(-6.09579e-16 -2.00472e-29 -3.12908e-30 8.68541 5.26869e-15 -1.57747e-15 0.316137 -1.87509e-16 -4.53372e-17)
(0 2.12108e-29 3.31418e-30 8.68541 -6.71252e-15 6.23576e-17 0.316137 -1.00977e-15 3.05827e-16)
(-6.80493e-16 -9.16599e-30 -2.39921e-30 8.5597 6.51117e-15 -1.05864e-15 0.317254 -1.95279e-16 -3.28823e-17)
(4.29144e-15 1.56166e-29 3.25345e-30 8.5597 -6.61447e-15 7.03277e-17 0.317254 -1.07241e-15 3.22066e-16)
(1.09475e-15 -2.87539e-29 -2.98525e-30 8.4293 7.27577e-15 -6.68713e-16 0.318128 -2.8737e-16 -1.73799e-17)
(8.75801e-15 2.55507e-29 2.55507e-30 8.4293 -5.39991e-15 1.06136e-16 0.318128 -1.11635e-15 3.39415e-16)
(2.95279e-16 3.19858e-30 0 8.29448 6.00757e-15 -6.16298e-33 0.31876 -2.60809e-16 -3.9443e-31)
(-1.41202e-15 5.01649e-30 6.27062e-31 8.29448 -4.74674e-15 -2.97081e-17 0.31876 -1.1677e-15 3.56332e-16)
(-2.2776e-15 6.40274e-30 8.59561e-31 8.15559 5.77319e-15 6.34182e-16 0.319151 -1.99913e-16 -1.44025e-17)
(4.55521e-15 0 0 8.15559 -4.70904e-15 -8.84582e-17 0.319151 -1.21751e-15 3.68065e-16)
(-1.16093e-15 3.18604e-30 4.25078e-31 8.01297 7.11172e-15 1.21891e-15 0.319302 -2.52133e-16 -3.53955e-17)
(4.64371e-15 4.83433e-30 6.04291e-31 8.01297 -5.10051e-15 -4.68605e-17 0.319302 -1.25528e-15 3.80769e-16)
(0 1.42372e-29 1.77965e-30 7.86702 8.04257e-15 1.79149e-15 0.31922 -3.15092e-16 -6.19698e-17)
(0 -4.74574e-30 -1.18643e-30 7.86702 -6.0153e-15 -7.2938e-17 0.31922 -1.31472e-15 3.90874e-16)
(2.51662e-15 -1.24758e-29 -1.57661e-30 7.71814 8.27571e-15 2.35853e-15 0.31891 -3.37891e-16 -8.36365e-17)
(3.50982e-15 9.31755e-30 1.16469e-30 7.71814 -6.17046e-15 -4.74707e-17 0.31891 -1.39131e-15 3.99831e-16)
(2.51479e-15 -2.14407e-29 -2.6902e-30 7.56676 8.01713e-15 2.98798e-15 0.31838 -3.46421e-16 -1.11625e-16)
(3.62266e-15 1.82936e-29 2.2867e-30 7.56676 -5.81089e-15 -4.33952e-17 0.31838 -1.43961e-15 4.0828e-16)
(-1.24969e-15 -1.34905e-30 -1.67292e-31 7.4133 7.9448e-15 3.51644e-15 0.317639 -3.28642e-16 -1.40297e-16)
(4.99874e-15 4.4896e-30 1.1224e-30 7.4133 -6.42896e-15 -7.48197e-17 0.317639 -1.48196e-15 4.14607e-16)
(1.27186e-15 -3.12839e-30 -9.35466e-31 7.25821 8.10472e-15 4.03214e-15 0.316696 -3.53211e-16 -1.61594e-16)
(0 0 5.50916e-31 7.25821 -7.16177e-15 -8.50231e-17 0.316696 -1.56321e-15 4.18486e-16)
(-1.29399e-15 1.17726e-29 1.99558e-30 7.10192 7.96742e-15 4.5767e-15 0.315564 -3.55133e-16 -1.91075e-16)
(5.17596e-15 -4.32656e-30 -1.08164e-30 7.10192 -6.96915e-15 -6.81805e-17 0.315564 -1.63244e-15 4.21636e-16)
(1.31607e-15 -7.3567e-30 -8.92363e-31 6.94484 7.50726e-15 5.03233e-15 0.314252 -3.54183e-16 -2.16617e-16)
(0 4.24728e-30 5.3091e-31 6.94484 -6.51211e-15 -5.38773e-17 0.314252 -1.70196e-15 4.24236e-16)
(-1.33808e-15 1.14424e-29 1.91275e-30 6.78739 6.77763e-15 2.37227e-15 0.312773 -3.26394e-16 -2.39982e-16)
(4.17872e-15 -4.16945e-30 -1.04236e-30 6.78739 -5.60445e-15 -6.40012e-17 0.312773 -1.79853e-15 4.25933e-16)
(-9.44173e-16 5.0868e-30 6.51959e-31 6.62997 8.35883e-15 -1.10547e-15 0.311141 -2.99494e-16 -8.13111e-17)
(5.44003e-15 -4.09305e-30 -5.11631e-31 6.62997 -5.02054e-15 -1.17073e-17 0.311141 -1.86606e-15 4.2544e-16)
(-2.26196e-15 1.20541e-29 1.00451e-30 6.47296 1.05533e-14 -1.76038e-15 0.309367 -4.88885e-16 -8.75031e-17)
(5.52738e-15 -8.03609e-30 -5.02255e-31 6.47296 -6.98925e-15 7.6797e-17 0.309367 -1.92435e-15 4.23661e-16)
(0 7.88883e-30 9.86104e-31 6.3167 1.0864e-14 -1.7684e-15 0.307464 -5.2311e-16 -8.51658e-17)
(-5.6143e-15 -3.94441e-30 -4.93052e-31 6.3167 -9.28523e-15 1.09659e-16 0.307464 -2.03323e-15 4.23404e-16)
(0 1.54885e-29 3.87213e-30 6.16153 1.10035e-14 -1.9309e-15 0.305444 -5.37931e-16 -1.07116e-16)
(5.70076e-15 -1.54885e-29 -3.87213e-30 6.16153 -8.45083e-15 1.89773e-16 0.305444 -2.1474e-15 4.25882e-16)
(6.93195e-16 -1.60063e-29 -2.47463e-30 6.00774 9.99874e-15 -2.10847e-15 0.303321 -5.56836e-16 -1.06536e-16)
(0 2.28071e-29 3.32603e-30 6.00774 -7.51499e-15 1.4088e-16 0.303321 -2.23619e-15 4.30524e-16)
(-1.46803e-15 3.00357e-30 8.42507e-31 5.85563 9.48586e-15 -2.24714e-15 0.301105 -4.55432e-16 -1.256e-16)
(5.87213e-15 3.73152e-30 0 5.85563 -7.7117e-15 1.35104e-16 0.301105 -2.35886e-15 4.30051e-16)
(4.12433e-15 -7.32629e-30 -1.83157e-30 5.70542 9.11772e-15 -2.45603e-15 0.298809 -5.24382e-16 -1.32722e-16)
(-4.12433e-15 7.32629e-30 1.83157e-30 5.70542 -6.58588e-15 1.29697e-16 0.298809 -2.47117e-15 4.3496e-16)
(0 7.19204e-30 4.49502e-31 5.55735 6.72019e-15 -2.35507e-15 0.296443 -4.33521e-16 -1.19417e-16)
(0 -3.59602e-30 0 5.55735 -3.71698e-15 -9.33816e-17 0.296443 -2.54709e-15 4.35274e-16)
(5.50578e-15 -2.41736e-29 -3.92085e-30 5.41161 6.42561e-15 -1.92416e-15 0.294018 -2.84936e-16 -9.02658e-17)
(2.15029e-15 1.76506e-29 3.53012e-30 5.41161 -2.65742e-15 -2.3326e-16 0.294018 -2.55573e-15 4.28374e-16)
(-2.34977e-15 3.96662e-30 9.07138e-31 5.26838 8.30373e-15 -1.65459e-15 0.291544 -4.17414e-16 -9.36743e-17)
(6.20784e-15 0 -4.33179e-31 5.26838 -4.74379e-15 -1.41765e-16 0.291544 -2.60214e-15 4.16431e-16)
(0 0 0 5.12778 8.3114e-15 -1.52588e-15 0.28903 -5.06376e-16 -7.89585e-17)
(6.29015e-15 3.40193e-30 8.50483e-31 5.12778 -5.4814e-15 -6.51365e-17 0.28903 -2.70302e-15 4.07866e-16)
(-3.18589e-15 5.86398e-30 1.21898e-30 4.98995 6.91482e-15 -1.24496e-15 0.286484 -4.34019e-16 -6.45009e-17)
(6.37179e-15 0 -4.17449e-31 4.98995 -3.79662e-15 -1.34309e-16 0.286484 -2.75163e-15 3.94771e-16)
(3.45875e-15 -1.27623e-29 -3.68536e-30 4.85499 6.34765e-15 -7.92808e-16 0.283916 -3.62873e-16 -2.83132e-17)
(4.60716e-15 9.83518e-30 3.27839e-30 4.85499 -3.53077e-15 -1.99629e-16 0.283916 -2.79029e-15 3.79091e-16)
(0 1.28733e-29 3.48918e-31 4.72297 7.34225e-15 -7.91228e-17 0.281331 -3.83115e-16 -2.36746e-18)
(-6.53296e-15 -1.28733e-29 -2.01145e-30 4.72297 -5.68256e-15 -2.45108e-16 0.281331 -2.87364e-15 3.55654e-16)
(-1.77855e-15 6.31869e-30 0 4.59395 8.82864e-15 1.33613e-29 0.278737 -4.96696e-16 3.9443e-31)
(0 0 0 4.59395 -6.37748e-15 -1.88965e-16 0.278737 -2.97098e-15 3.2628e-16)
(-3.34565e-15 2.12179e-29 3.90656e-30 4.46797 9.39683e-15 3.3745e-16 0.276141 -5.80463e-16 -1.67523e-17)
(0 -1.55073e-29 -3.10145e-30 4.46797 -4.87964e-15 -1.21657e-16 0.276141 -3.06714e-15 2.96273e-16)
(-1.69235e-15 1.19661e-29 1.1585e-30 4.34507 8.985e-15 6.16733e-16 0.273547 -5.86637e-16 -2.52359e-17)
(-3.42793e-15 -3.04462e-30 0 4.34507 -4.57292e-15 -1.95316e-16 0.273547 -3.13675e-15 2.60211e-16)
(-1.68256e-15 1.49441e-29 2.98883e-30 4.22525 9.1072e-15 9.8419e-16 0.27096 -5.49748e-16 -5.30465e-17)
(-6.84674e-15 -1.19553e-29 -2.24162e-30 4.22525 -5.70014e-15 -2.22035e-16 0.27096 -3.23592e-15 2.108e-16)
(3.46169e-15 3.22492e-30 3.42057e-31 4.10852 9.89592e-15 1.39944e-15 0.268386 -6.24639e-16 -7.3985e-17)
(0 -2.93406e-30 -1.10027e-30 4.10852 -5.50348e-15 -2.33724e-16 0.268386 -3.36599e-15 1.66191e-16)
(1.87818e-15 1.17671e-29 1.78663e-30 3.99486 9.51056e-15 1.7403e-15 0.265829 -6.74974e-16 -1.10069e-16)
(6.99929e-15 -1.72817e-29 -2.88029e-30 3.99486 -4.42921e-15 -1.53983e-16 0.265829 -3.49174e-15 1.16356e-16)
(-1.76862e-15 2.74689e-30 7.10446e-31 3.88425 8.72407e-15 2.00305e-15 0.263291 -5.9616e-16 -1.22782e-16)
(7.07448e-15 2.82751e-30 0 3.88425 -5.0206e-15 -1.11915e-16 0.263291 -3.58823e-15 7.75349e-17)
(3.57448e-15 9.27633e-32 5.14762e-33 3.77666 8.70056e-15 2.32533e-15 0.260777 -5.92267e-16 -1.50344e-16)
(0 -5.55139e-30 -6.93924e-31 3.77666 -5.65663e-15 -1.78955e-16 0.260777 -3.70852e-15 2.9564e-17)
(3.33962e-15 -1.08822e-29 -6.73144e-31 3.67207 8.42825e-15 2.66116e-15 0.258288 -6.1533e-16 -1.72549e-16)
(7.22271e-15 8.1745e-30 3.40604e-31 3.67207 -5.39367e-15 -1.77446e-16 0.258288 -3.80886e-15 -2.31691e-17)
(-1.82394e-15 1.0722e-29 1.32291e-30 3.57041 9.51021e-15 3.02398e-15 0.255828 -5.75732e-16 -2.03926e-16)
(0 -2.6749e-30 -6.68725e-31 3.57041 -5.62817e-15 -4.30716e-16 0.255828 -3.90184e-15 -3.84132e-17)
(-2.95648e-15 -5.25177e-30 -6.56471e-31 3.47165 1.26239e-14 3.08463e-15 0.253398 -7.95774e-16 -2.31784e-16)
(1.76927e-14 7.87765e-30 9.84707e-31 3.47165 -7.87957e-15 -1.60877e-15 0.253398 -4.01171e-15 -5.77284e-17)
(-4.76225e-15 -1.03221e-29 -1.63554e-30 3.37572 1.37321e-14 2.6891e-15 0.251001 -1.05843e-15 -2.2059e-16)
(0 1.28888e-29 2.25555e-30 3.37572 -9.21119e-15 -1.70765e-15 0.251001 -4.18833e-15 -9.77369e-17)
(0 -1.01221e-29 -2.53053e-30 3.28259 1.20545e-14 2.46291e-15 0.248638 -9.92907e-16 -1.80865e-16)
(1.21724e-14 1.01221e-29 2.53053e-30 3.28259 -7.27551e-15 -1.39655e-15 0.248638 -4.36617e-15 -1.15575e-16)
(-4.69218e-15 1.4967e-29 2.77102e-30 3.19217 9.91318e-15 2.51575e-15 0.246309 -8.40562e-16 -1.94152e-16)
(2.79691e-15 -1.24208e-29 -2.48416e-30 3.19217 -6.71776e-15 -1.25818e-15 0.246309 -4.46569e-15 -1.46729e-16)
(2.74566e-15 -9.75455e-30 -1.21932e-30 3.10442 8.23008e-15 2.69903e-15 0.244017 -6.95201e-16 -1.9595e-16)
(4.90505e-15 4.87727e-30 1.21932e-30 3.10442 -4.98527e-15 -8.9961e-16 0.244017 -4.58168e-15 -1.70585e-16)
(1.92992e-15 -1.21151e-29 -2.66217e-30 3.01926 8.16835e-15 3.10328e-15 0.241761 -6.03907e-16 -2.30687e-16)
(1.54394e-14 9.5758e-30 2.39395e-30 3.01926 -3.97966e-15 -7.31935e-16 0.241761 -4.65505e-15 -1.88454e-16)
(-1.94701e-15 7.19831e-30 -3.32018e-31 2.93664 1.00186e-14 3.24412e-15 0.239543 -7.11372e-16 -2.68984e-16)
(7.78802e-15 0 5.8752e-31 2.93664 -6.61371e-15 -7.81931e-16 0.239543 -4.81402e-15 -2.16944e-16)
(-6.33541e-16 2.17919e-30 3.27536e-31 2.85649 1.12684e-14 3.14254e-15 0.237363 -9.32758e-16 -2.62678e-16)
(7.85572e-15 -4.61403e-30 0 2.85649 -7.32059e-15 -7.14472e-16 0.237363 -5.00201e-15 -2.64901e-16)
(-3.96139e-15 9.33726e-30 1.04994e-30 2.77873 1.16305e-14 3.11252e-15 0.235222 -9.48788e-16 -2.62002e-16)
(5.37292e-15 0 -5.66185e-31 2.77873 -5.73923e-15 -3.88036e-16 0.235222 -5.15763e-15 -2.98725e-16)
(0 0 -1.11162e-30 2.70331 1.21791e-14 2.91593e-15 0.233119 -1.03007e-15 -2.67423e-16)
(1.34753e-14 4.44648e-30 1.66743e-30 2.70331 -4.73769e-15 1.37577e-16 0.233119 -5.3197e-15 -3.28256e-16)
(-2.45728e-15 0 1.09125e-30 2.63015 9.46405e-15 2.4299e-15 0.231054 -1.08048e-15 -2.37498e-16)
(8.05509e-15 0 -5.45625e-31 2.63015 -5.11238e-15 6.39466e-16 0.231054 -5.48524e-15 -3.49203e-16)
(-2.03009e-15 6.66971e-30 7.7132e-31 2.5592 5.38984e-15 2.24692e-15 0.229028 -5.85234e-16 -1.9092e-16)
(0 0 -5.35627e-31 2.5592 -3.89664e-15 7.01164e-16 0.229028 -5.66317e-15 -3.77377e-16)
(2.04625e-15 6.00629e-30 8.24212e-31 2.49038 4.93759e-15 2.45722e-15 0.22704 -3.81885e-16 -2.13244e-16)
(0 -1.26195e-29 -1.31453e-30 2.49038 -2.3922e-15 4.5382e-16 0.22704 -5.77624e-15 -4.13128e-16)
(0 4.12941e-30 5.16176e-31 2.42364 5.27672e-15 2.45827e-15 0.22509 -5.2369e-16 -2.36987e-16)
(-2.32465e-15 0 0 2.42364 -1.38915e-15 2.05021e-16 0.22509 -5.90301e-15 -4.58684e-16)
(-2.07816e-15 1.45257e-29 2.23876e-30 2.3589 5.17132e-15 2.4677e-15 0.223178 -4.60132e-16 -2.21479e-16)
(0 -1.21612e-29 -2.02687e-30 2.3589 -4.77643e-16 2.49967e-16 0.223178 -5.95804e-15 -5.05017e-16)
(-2.09391e-15 6.33466e-30 9.48277e-31 2.29611 5.7008e-15 2.61761e-15 0.221303 -5.23208e-16 -2.47724e-16)
(-8.37564e-15 0 -2.48716e-31 2.29611 -4.10294e-16 3.89682e-16 0.221303 -6.0211e-15 -5.25776e-16)
(-2.10952e-15 -5.47354e-30 -1.02579e-30 2.23521 5.37245e-15 2.49693e-15 0.219465 -5.80929e-16 -2.59118e-16)
(1.4677e-14 7.81307e-30 -2.25126e-31 2.23521 5.6819e-16 -4.56677e-30 0.219465 -6.02866e-15 -5.40735e-16)
(4.31777e-15 -7.6699e-30 -1.43811e-30 2.17613 4.38468e-15 2.32019e-15 0.217663 -4.77567e-16 -2.33037e-16)
(4.18223e-15 7.6699e-30 1.43811e-30 2.17613 2.95015e-16 -1.48577e-16 0.217663 -5.98235e-15 -5.87235e-16)
(-2.14035e-15 6.09803e-30 8.94268e-31 2.11882 4.69378e-15 2.35868e-15 0.215898 -4.02543e-16 -2.33047e-16)