/*--------------------------------*- C++ -*----------------------------------*\
| =========                 |                                                 |
| \\      /  F ield         | OpenFOAM: The Open Source CFD Toolbox           |
|  \\    /   O peration     | Version:  2106                                  |
|   \\  /    A nd           | Website:  www.openfoam.com                      |
|    \\/     M anipulation  |                                                 |
\*---------------------------------------------------------------------------*/
FoamFile
{
    version     2.0;
    format      ascii;
    arch        "LSB;label=32;scalar=64";
    class       volTensorField;
    location    "10020";
    object      grad(U);
}
// * * * * * * * * * * * * * * * * * * * * * * * * * * * * * * * * * * * * * //

dimensions      [0 0 -1 0 0 0 0];

internalField   nonuniform List<tensor> 
800
(
(-1.15363e-17 -1.76287e-26 1.23724e-27 13.3705 -2.66583e-40 1.15242e-13 0.0613706 -3.05377e-42 1.93552e-16)
(0 9.18067e-30 -1.24083e-27 13.3705 3.29353e-15 7.28801e-14 0.0613706 -7.6393e-18 1.67169e-16)
(0 9.38935e-31 1.03277e-27 13.3642 8.67015e-14 1.00013e-13 0.186976 -1.95226e-15 9.61616e-16)
(0 -6.25957e-31 0 13.3642 8.26172e-15 6.36858e-14 0.186976 4.31183e-17 7.02156e-16)
(-5.97673e-18 -6.59109e-27 8.28561e-31 13.3576 0 5.23055e-14 0.275433 -1.57772e-30 1.15021e-15)
(4.78138e-17 7.17007e-30 -8.96259e-31 13.3576 8.02252e-15 1.35974e-14 0.275433 8.14286e-17 7.68148e-16)
(0 0 -5.70349e-31 13.3507 1.4989e-13 5.76515e-14 0.288395 -5.66978e-15 1.2864e-15)
(0 0 0 13.3507 9.17945e-15 1.38731e-14 0.288395 1.34768e-16 8.38735e-16)
(-4.14188e-17 -2.77572e-31 -1.07886e-31 13.3435 4.34553e-16 6.13728e-14 0.30196 -5.43585e-16 1.43082e-15)
(0 2.1777e-30 -5.44425e-31 13.3435 9.24335e-15 1.42113e-14 0.30196 1.91937e-16 9.14034e-16)
(0 6.23616e-30 -1.03936e-30 13.3359 -2.15794e-14 6.51726e-14 0.316154 -4.53996e-16 1.59204e-15)
(-2.41606e-16 -6.25435e-30 1.03936e-30 13.3359 9.26696e-15 1.46256e-14 0.316154 2.20068e-16 9.95196e-16)
(-2.19907e-16 4.83107e-30 -6.56044e-31 13.328 -1.68668e-14 6.9165e-14 0.331006 -3.62433e-16 1.76869e-15)
(0 -1.98424e-30 0 13.328 9.23665e-15 1.49667e-14 0.331006 2.28386e-16 1.0825e-15)
(-1.0109e-16 -8.13997e-32 -1.91469e-31 13.3196 -1.49376e-14 7.32825e-14 0.346544 -3.97838e-16 1.96158e-15)
(0 2.84108e-30 -9.47027e-31 13.3196 9.22455e-15 1.52331e-14 0.346544 2.40894e-16 1.17341e-15)
(-1.2288e-16 5.38888e-30 -2.03495e-30 13.3108 -1.56802e-14 7.75332e-14 0.362799 -4.38266e-16 2.17293e-15)
(9.83043e-16 -1.56843e-30 0 13.3108 9.135e-15 1.54826e-14 0.362799 2.45771e-16 1.26958e-15)
(4.85767e-16 -5.17737e-30 3.45158e-30 13.3015 -1.63894e-14 8.19434e-14 0.3798 -4.77142e-16 2.40477e-15)
(0 5.17737e-30 -1.72579e-30 13.3015 8.94796e-15 1.56989e-14 0.3798 2.53696e-16 1.37115e-15)
(2.31844e-16 -2.47103e-30 1.64735e-30 13.2916 -1.67481e-14 8.65229e-14 0.397579 -5.02462e-16 2.65886e-15)
(-6.78328e-16 4.74728e-30 -8.23676e-31 13.2916 8.93366e-15 1.58635e-14 0.397579 2.68877e-16 1.47808e-15)
(-1.9459e-16 3.25222e-30 -5.56375e-31 13.281 -1.63937e-14 6.89126e-14 0.416164 -5.01447e-16 1.53513e-15)
(7.78361e-16 -5.43161e-31 0 13.281 8.75407e-15 1.6004e-14 0.416164 2.67171e-16 1.59016e-15)
(0 3.75251e-30 -1.50101e-30 13.2694 -1.5808e-14 3.55753e-14 0.435584 -5.12982e-16 7.28433e-16)
(8.83089e-16 -1.95392e-30 1.50101e-30 13.2694 8.18299e-15 1.61296e-14 0.435584 2.57583e-16 1.70791e-15)
(-2.48183e-16 5.20908e-30 1.0663e-28 13.2567 -1.56286e-14 5.83701e-15 0.455862 -5.3799e-16 9.80755e-17)
(0 -2.86556e-30 1.43278e-30 13.2567 7.7087e-15 1.61849e-14 0.455862 2.60584e-16 1.83105e-15)
(0 2.73532e-30 -1.36766e-30 13.2423 -1.55248e-14 2.07217e-15 0.477018 -5.55513e-16 4.66289e-17)
(0 -1.36766e-30 0 13.2423 7.71033e-15 1.61861e-14 0.477018 2.82814e-16 1.95839e-15)
(0 3.91649e-30 5.28296e-30 13.2258 -1.52813e-14 4.19464e-31 0.499058 -5.72053e-16 7.88861e-31)
(0 -1.3055e-30 2.611e-30 13.2258 7.67431e-15 1.61333e-14 0.499058 2.83271e-16 2.09065e-15)
(0 4.98464e-30 6.97672e-30 13.2062 -1.51559e-14 -4.78411e-16 0.521976 -5.99756e-16 9.24224e-18)
(-3.50763e-16 -2.49232e-30 0 13.2062 7.13009e-15 1.59813e-14 0.521976 2.67333e-16 2.22716e-15)
(-7.42579e-16 5.48121e-30 -4.01957e-30 13.1824 -1.47319e-14 -2.39348e-15 0.545744 -5.92684e-16 6.65846e-17)
(-1.48516e-15 -1.7723e-30 0 13.1824 6.08265e-15 1.57506e-14 0.545744 2.24077e-16 2.36629e-15)
(-2.33455e-16 2.43437e-30 -3.31531e-31 13.1528 -1.37653e-14 -3.81797e-15 0.570302 -5.74302e-16 1.2862e-16)
(-3.246e-15 -2.39225e-30 0 13.1528 5.36319e-15 1.54427e-14 0.570302 2.30928e-16 2.50863e-15)
(-4.41819e-16 1.0731e-29 -2.95233e-30 13.1154 -1.35658e-14 -5.2397e-15 0.595548 -6.32322e-16 1.96762e-16)
(0 -9.75462e-30 2.16769e-30 13.1154 5.1182e-15 1.49653e-14 0.595548 2.23639e-16 2.6523e-15)
(4.79566e-16 -6.17028e-30 2.83133e-30 13.0673 -1.31905e-14 -6.75138e-15 0.621322 -5.94536e-16 2.70483e-16)
(-1.91827e-15 4.38866e-30 -2.06917e-30 13.0673 4.16111e-15 1.43636e-14 0.621322 1.62239e-16 2.79449e-15)
(0 -2.96268e-30 1.97512e-30 13.005 -1.25157e-14 2.7593e-16 0.647395 -6.26606e-16 4.04687e-16)
(2.07624e-15 5.75394e-30 -1.97512e-30 13.005 3.70202e-15 1.3743e-14 0.647395 1.99613e-16 2.9361e-15)
(-5.60368e-16 1.02729e-30 -6.26695e-31 12.9242 -1.18379e-14 1.57313e-14 0.673447 -5.81619e-16 1.22129e-15)
(6.72441e-15 2.72875e-30 0 12.9242 3.33729e-15 1.29116e-14 0.673447 1.39911e-16 3.07622e-15)
(0 -3.59932e-30 0 12.8196 -1.1026e-14 2.27907e-14 0.699062 -5.98743e-16 1.2176e-15)
(0 3.59932e-30 0 12.8196 2.10384e-15 2.49702e-14 0.699062 8.39327e-17 3.20674e-15)
(0 -1.71786e-30 0 12.6856 -1.04954e-14 2.14824e-14 0.723721 -5.77425e-16 1.1902e-15)
(0 1.71786e-30 0 12.6856 1.52162e-15 4.15097e-14 0.723721 8.67247e-17 3.68767e-15)
(6.95641e-16 -1.06978e-30 6.40964e-31 12.5159 -9.40414e-15 1.96643e-14 0.746814 -5.25898e-16 1.11769e-15)
(0 -1.35713e-29 -1.63978e-30 12.5159 -3.81621e-31 4.46666e-14 0.746814 0 4.30863e-15)
(8.81158e-16 -4.69575e-30 1.56525e-30 12.3046 -8.56258e-15 1.75207e-14 0.76767 -5.27709e-16 1.03621e-15)
(-8.81158e-16 4.69575e-30 -1.56525e-30 12.3046 -1.26665e-16 4.26056e-14 0.76767 3.89632e-18 4.93479e-15)
(-7.95346e-16 7.08736e-30 -3.57514e-30 12.0468 -7.11704e-15 1.54236e-14 0.785603 -3.86403e-16 9.49912e-16)
(1.49917e-15 -1.78006e-30 0 12.0468 -4.5967e-16 3.99351e-14 0.785603 3.88435e-17 5.55337e-15)
(-2.45362e-15 -7.42632e-30 2.28621e-30 11.7392 -5.1131e-15 1.2819e-14 0.79998 -3.02108e-16 7.77135e-16)
(8.38866e-15 2.13531e-29 -2.74463e-30 11.7392 -5.91526e-16 3.67909e-14 0.79998 1.99698e-17 6.05619e-15)
(2.43471e-15 1.59541e-30 -2.18071e-30 11.3808 -4.51015e-15 9.67243e-15 0.810296 -3.36747e-16 5.86793e-16)
(-1.53277e-15 -2.72275e-30 0 11.3808 -2.73203e-15 3.28937e-14 0.810296 1.46997e-16 4.40933e-15)
(0 -9.09649e-30 2.599e-30 10.9739 -3.98156e-15 6.69728e-15 0.816233 -2.51357e-16 4.01472e-16)
(7.65874e-15 1.14569e-29 2.38604e-30 10.9739 -3.19432e-15 2.86012e-14 0.816233 2.41704e-16 2.7713e-15)
(1.01378e-15 -1.15533e-30 4.86712e-31 10.5235 -2.57909e-15 3.80948e-15 0.817705 -1.46643e-16 1.84963e-16)
(4.05511e-15 1.17141e-30 3.33321e-30 10.5235 -4.21095e-15 2.41445e-14 0.817705 2.73594e-16 1.7333e-15)
(0 -9.03069e-30 0 10.0374 -3.88129e-16 1.19516e-15 0.814862 -1.57828e-17 3.84588e-16)
(0 4.73622e-30 0 10.0374 -6.07335e-15 1.95461e-14 0.814862 9.11237e-16 1.43915e-15)
(-2.40093e-15 7.00649e-46 -1.42052e-31 9.52512 -2.32942e-30 -1.06061e-15 0.808065 0 1.81848e-15)
(5.78612e-15 5.97476e-30 4.05164e-30 9.52512 -6.2336e-15 1.55199e-14 0.808065 1.64933e-15 1.19989e-15)
(-2.37178e-15 2.30195e-30 0 8.99721 1.04671e-15 -2.9044e-15 0.797827 -6.16041e-17 2.41031e-15)
(4.74355e-15 0 4.3925e-30 8.99721 -5.80899e-15 1.16118e-14 0.797827 2.19413e-15 8.65207e-16)
(-1.15949e-15 3.08949e-30 -2.05966e-30 8.46397 1.99503e-15 -4.34945e-15 0.784752 -1.26763e-16 1.99263e-15)
(-1.15949e-15 0 0 8.46397 -5.96136e-15 7.57979e-15 0.784752 2.17208e-15 5.44873e-16)
(-9.13935e-16 8.71822e-30 -3.93209e-30 7.9348 2.81449e-15 -5.59035e-15 0.769471 -2.49183e-16 1.58489e-15)
(5.19855e-15 -7.86418e-30 4.86722e-30 7.9348 -5.90327e-15 4.44243e-15 0.769471 2.14342e-15 3.20261e-16)
(-7.57589e-16 -6.72053e-30 0 7.41763 2.99391e-15 -6.38571e-15 0.752589 -3.03493e-16 1.18054e-15)
(7.53445e-15 5.63006e-30 5.03703e-30 7.41763 -5.72264e-15 1.66983e-15 0.752589 2.09954e-15 8.56823e-17)
(1.41008e-15 -6.44574e-30 0 6.91865 3.46594e-15 -6.18742e-15 0.734649 -3.1118e-16 7.85826e-16)
(5.64033e-15 5.37416e-30 -2.8026e-45 6.91865 -5.15202e-15 -4.93038e-32 0.734649 2.04477e-15 1.57772e-30)
(1.46363e-15 2.39001e-30 0 6.44233 3.88284e-15 -6.46972e-15 0.716116 -4.36996e-16 4.76416e-16)
(0 -1.70997e-30 -3.41993e-30 6.44233 -5.20645e-15 -2.37615e-15 0.716116 2.00559e-15 1.76325e-16)
(1.83775e-15 -1.63225e-30 3.26449e-30 5.99157 3.13502e-15 -6.92946e-15 0.697371 -4.37665e-16 1.41915e-16)
(0 1.63225e-30 0 5.99157 -6.26177e-15 -4.61692e-15 0.697371 1.91268e-15 3.63271e-16)
(-3.13381e-15 5.14518e-30 3.11612e-30 5.56793 3.72447e-15 -6.71471e-15 0.678711 -2.98928e-16 -1.05897e-16)
(0 -1.55806e-30 -3.11612e-30 5.56793 -7.12164e-15 -6.1326e-15 0.678711 1.75368e-15 7.34894e-16)
(1.61654e-15 5.37438e-31 0 5.17194 5.38203e-15 -7.19368e-15 0.660362 -6.29531e-16 -3.54157e-16)
(-8.14066e-15 0 -4.35772e-30 5.17194 -5.91121e-15 -6.18129e-15 0.660362 1.51896e-15 7.82321e-16)
(4.8616e-15 -3.74934e-30 0 4.80332 5.44097e-15 -7.3164e-15 0.642486 -7.6759e-16 -6.14969e-16)
(3.46263e-15 2.83929e-30 4.23103e-30 4.80332 -4.33516e-15 -7.19305e-15 0.642486 1.44696e-15 8.19457e-16)
(1.71183e-15 -8.95285e-31 0 4.46123 5.85014e-15 -6.85779e-15 0.625195 -7.07284e-16 -8.33607e-16)
(-9.89877e-15 0 -3.8935e-30 4.46123 -5.80402e-15 -8.44291e-15 0.625195 1.31594e-15 1.13965e-15)
(0 5.17411e-30 2.58705e-30 4.14449 6.66345e-15 -6.3864e-15 0.608561 -9.61502e-16 -1.00695e-15)
(0 -2.58705e-30 -2.58705e-30 4.14449 -6.69963e-15 -8.42056e-15 0.608561 1.08989e-15 1.26308e-15)
(-1.80196e-15 3.2539e-30 0 3.85165 6.2803e-15 -6.49073e-15 0.592623 -1.0242e-15 -1.17266e-15)
(0 0 0 3.85165 -5.98466e-15 -7.24837e-15 0.592623 8.49556e-16 1.24395e-15)
(2.654e-15 -2.35723e-30 0 3.58118 5.43779e-15 -5.85224e-15 0.577398 -9.32872e-16 -1.37583e-15)
(0 2.35723e-30 0 3.58118 -4.94714e-15 -6.19018e-15 0.577398 5.68955e-16 1.01184e-15)
(-3.77454e-15 9.38464e-30 0 3.3315 4.64067e-15 -5.48503e-15 0.562883 -8.42159e-16 -1.48382e-15)
(7.54908e-15 -7.87531e-30 3.20558e-30 3.3315 -4.23728e-15 -5.54813e-15 0.562883 4.96914e-16 1.01117e-15)
(2.41823e-15 1.07391e-30 2.14782e-30 3.10104 5.20992e-15 -6.43396e-15 0.549067 -7.44414e-16 -1.68318e-15)
(-7.71298e-15 0 -5.26869e-30 3.10104 -4.39278e-15 -5.51702e-15 0.549067 3.33425e-16 8.85445e-16)
(3.93634e-15 2.8196e-30 2.0502e-30 2.88831 7.46556e-15 -4.29005e-15 0.535925 -1.13331e-15 -1.86842e-15)
(7.87268e-15 -4.10039e-30 7.82473e-31 2.88831 -2.93456e-15 -6.05283e-15 0.535925 1.22883e-16 1.09833e-15)
(-2.2034e-15 0 -1.95701e-30 2.69187 8.40974e-15 -2.19709e-15 0.52343 -1.68474e-15 -1.7766e-15)
(8.02836e-15 1.95701e-30 4.54872e-30 2.69187 -2.50198e-15 -5.19265e-15 0.52343 -4.95284e-17 1.1779e-15)
(0 5.60419e-30 0 2.51037 7.13751e-15 -2.02984e-15 0.511549 -1.62433e-15 -1.78495e-15)
(0 -5.60419e-30 0 2.51037 -3.66161e-15 -4.35745e-15 0.511549 -2.53736e-16 8.58749e-16)
(0 3.56631e-30 1.78316e-30 2.34259 5.04454e-15 -1.45044e-15 0.500249 -1.31185e-15 -1.7274e-15)
(0 -3.56631e-30 -1.78316e-30 2.34259 -2.04137e-15 -4.69442e-15 0.500249 -5.33568e-16 9.40116e-16)
(1.9164e-15 1.70211e-30 0 2.18736 4.26612e-15 -1.64001e-15 0.489495 -8.56952e-16 -1.61016e-15)
(6.55691e-15 0 2.11765e-30 2.18736 -9.33825e-16 -5.04705e-15 0.489495 -6.95883e-16 1.09152e-15)
(4.30743e-15 8.00602e-31 1.62475e-30 2.04363 5.25084e-15 -7.18825e-16 0.479251 -1.07905e-15 -1.59229e-15)
(0 -3.24949e-30 -1.62475e-30 2.04363 -2.07074e-15 -4.87241e-15 0.479251 -7.72228e-16 1.19518e-15)
(-2.18833e-15 -1.24162e-30 -3.1018e-30 1.91043 4.69824e-15 -1.15353e-15 0.469482 -1.41852e-15 -1.31737e-15)
(1.75066e-14 1.5509e-30 6.0688e-30 1.91043 -3.88215e-16 -3.02471e-15 0.469482 -1.00375e-15 1.11317e-15)
(5.55578e-15 -1.82285e-30 0 1.78688 3.26323e-15 -1.63422e-15 0.460156 -9.03233e-16 -1.39244e-15)
(8.88879e-15 0 1.76422e-30 1.78688 9.18275e-16 -2.61711e-15 0.460156 -8.9843e-16 3.7205e-16)
(-2.25536e-15 -3.92022e-30 0 1.67218 3.07371e-15 -2.85341e-16 0.451239 -7.92301e-16 -1.27824e-15)
(0 2.82624e-30 0 1.67218 3.0002e-16 -4.38825e-15 0.451239 -9.40923e-16 1.00455e-15)
(0 -1.34889e-30 -2.69778e-30 1.5656 2.9675e-15 -1.0417e-15 0.4427 -8.85519e-16 -9.7641e-16)
(1.83029e-14 1.34889e-30 4.05064e-30 1.5656 9.80684e-16 -4.16836e-15 0.4427 -9.0278e-16 1.39686e-15)
(5.21909e-15 -2.87065e-30 0 1.46647 2.71186e-15 -2.44079e-15 0.43451 -8.07445e-16 -8.95269e-16)
(9.27886e-15 1.28758e-30 6.56005e-31 1.46647 1.51211e-15 -2.64321e-15 0.43451 -6.90772e-16 9.73916e-16)
(0 -1.22906e-30 0 1.37418 2.62379e-15 -1.20977e-15 0.426639 -8.15266e-16 -9.82859e-16)
(9.40383e-15 1.22906e-30 7.38476e-31 1.37418 9.77491e-16 -3.17689e-15 0.426639 -7.42633e-16 5.98818e-16)
(0 1.1732e-30 8.75812e-46 1.28818 2.09075e-15 -3.9443e-31 0.419061 -8.29652e-16 -7.17473e-16)
(-9.52645e-15 1.1732e-30 -1.21404e-30 1.28818 7.89972e-16 -3.65956e-15 0.419061 -7.89991e-16 1.41134e-15)
(2.41171e-15 -1.45334e-30 0 1.20798 1.75506e-15 -1.93813e-15 0.41175 -5.36406e-16 -9.21275e-16)
(9.64682e-15 1.11987e-30 3.30857e-32 1.20798 4.67021e-17 -2.77916e-15 0.41175 -8.58248e-16 9.81695e-16)
(2.44126e-15 7.57097e-31 0 1.13311 2.40721e-15 -8.18213e-16 0.404681 -6.74122e-16 -6.81674e-16)
(0 0 -1.06897e-30 1.13311 -1.11772e-15 -1.39965e-15 0.404681 -1.11655e-15 2.37537e-16)
(-1.72581e-16 -1.8248e-30 0 1.06317 2.85735e-15 1.1118e-15 0.39783 -1.06987e-15 -8.12678e-16)
(1.74646e-14 2.04077e-30 0 1.06317 -5.71459e-16 2.11553e-16 0.39783 -1.33335e-15 -4.48887e-17)
(-4.69209e-15 1.46732e-31 7.70841e-32 0.997762 3.00181e-15 -4.93038e-32 0.391174 -1.08779e-15 -5.8626e-17)
(-9.99527e-15 9.74009e-31 -9.74009e-31 0.997762 -8.8258e-16 6.48002e-16 0.391174 -1.57997e-15 9.31503e-17)
(0 -9.29739e-31 9.29739e-31 0.936552 1.94793e-15 -2.60283e-15 0.384692 -1.29116e-15 -6.1592e-17)
(0 9.29739e-31 -9.29739e-31 0.936552 -9.38064e-17 6.96861e-16 0.384692 -1.25525e-15 1.60542e-16)
(-5.10886e-15 4.40905e-31 -8.87481e-31 0.87922 -4.42979e-17 1.15913e-16 0.378362 -3.53465e-16 -2.41492e-18)
(-3.99686e-15 0 0 0.87922 1.07343e-16 5.14595e-16 0.378362 -1.62638e-15 1.27072e-16)
(-2.58155e-15 3.15292e-45 0 0.825478 2.71704e-30 2.46965e-15 0.372163 -3.9443e-31 2.28947e-16)
(-1.03262e-14 -4.39008e-31 -4.91358e-32 0.825478 -1.29291e-15 3.50127e-16 0.372163 -1.37234e-15 1.64506e-16)
(0 -8.0864e-31 5.50279e-31 0.775059 9.92214e-16 1.08751e-15 0.366076 -8.93969e-16 2.59011e-16)
(0 -2.62743e-45 0 0.775059 2.36691e-30 2.91756e-16 0.366076 0 3.74749e-16)
(-5.2689e-15 6.03654e-31 -5.00666e-32 0.72772 3.67179e-16 1.04674e-15 0.360078 -9.16148e-17 7.98211e-16)
(0 0 0 0.72772 -9.01385e-16 1.37837e-15 0.360078 -9.50938e-16 3.41231e-16)
(2.66026e-15 1.39515e-30 7.33867e-31 0.683236 -1.52284e-16 2.45932e-30 0.35415 -1.61984e-15 0)
(0 -1.4736e-30 0 0.683236 -2.09585e-15 1.16935e-15 0.35415 -1.24729e-15 4.50716e-16)
(-2.20385e-15 -1.28586e-30 1.40663e-30 0.641402 -1.41111e-15 1.88326e-15 0.348271 -2.09934e-15 2.97218e-16)
(1.07426e-14 -6.65617e-45 2.26368e-31 0.641402 -1.47911e-30 -3.67281e-16 0.348271 -4.50653e-46 1.00575e-16)
(2.71063e-15 -2.71923e-31 1.16681e-30 0.602025 -3.881e-16 3.261e-30 0.342419 -8.83581e-16 0)
(2.1685e-14 -2.69305e-30 0 0.602025 1.36193e-15 -1.05926e-15 0.342419 -4.37658e-16 7.02239e-16)
(5.77211e-15 0 1.28167e-30 0.56493 5.74512e-17 -1.08903e-16 0.336571 -3.59208e-16 8.3716e-16)
(1.09408e-14 -1.95138e-30 0 0.56493 -2.48688e-16 7.35636e-16 0.336571 -1.50196e-15 5.40324e-16)
(-2.75937e-15 2.00536e-31 1.84601e-31 0.529952 -2.9105e-16 -4.93038e-31 0.330705 -1.29762e-15 0)
(0 0 0 0.529952 -5.08e-17 1.40565e-15 0.330705 -1.59942e-17 9.12892e-16)
(5.25933e-15 0 0 0.496938 3.86849e-16 -3.52419e-15 0.324793 -1.25849e-15 3.79426e-16)
(2.22651e-14 -9.80909e-45 1.16781e-30 0.496938 -4.62746e-30 7.43946e-16 0.324793 -3.9443e-31 6.76626e-16)
(-2.8065e-15 3.09829e-31 0 0.465747 8.08361e-17 -1.546e-15 0.318809 -5.80281e-16 -1.09042e-15)
(1.1226e-14 -2.10878e-31 0 0.465747 1.14699e-15 2.41564e-15 0.318809 -2.35066e-15 9.60416e-16)
(-2.82947e-15 0 2.12812e-30 0.436244 0 1.89896e-17 0.312723 0 -1.1533e-15)
(-1.611e-14 2.99555e-30 -7.48112e-31 0.436244 3.02515e-16 -4.16001e-31 0.312723 -1.65901e-16 0)
(0 2.02222e-30 0 0.408302 7.70205e-16 5.69861e-16 0.306499 -2.92087e-16 -4.42801e-16)
(1.14081e-14 -1.9016e-30 -1.0157e-30 0.408302 3.50165e-15 -1.73349e-15 0.306499 -1.32794e-15 -2.66584e-17)
(0 -9.69533e-31 -9.69533e-31 0.381803 1.30105e-15 2.0795e-15 0.300099 -9.2911e-16 -3.23408e-16)
(0 9.69533e-31 0 0.381803 2.67259e-15 5.3408e-16 0.300099 -1.91016e-15 -1.5374e-16)
(-2.89593e-15 3.69492e-31 0 0.356633 1.99884e-15 2.66399e-15 0.29348 -1.14346e-15 -2.37522e-16)
(-1.57516e-14 0 -1.85093e-30 0.356633 -7.34798e-17 1.57662e-15 0.29348 -2.63636e-15 -2.50229e-16)
(0 4.41701e-31 1.76681e-30 0.332681 1.71159e-15 1.45876e-15 0.286589 -2.20906e-15 -5.48209e-17)
(-1.1669e-14 7.14499e-31 -1.76681e-30 0.332681 4.52217e-16 3.69752e-15 0.286589 -9.3128e-16 4.92187e-16)
(2.93814e-15 -2.46389e-31 0 0.30984 2.59762e-16 4.27883e-16 0.279367 -7.42014e-16 -9.37554e-17)
(-1.17525e-14 3.98636e-31 -1.0272e-30 0.30984 -5.28935e-16 -4.1088e-30 0.279367 -1.98921e-15 3.9443e-31)
(2.95858e-15 -2.97134e-31 9.73509e-32 0.288007 -1.59545e-17 -1.32762e-16 0.271743 -5.54205e-16 1.34312e-16)
(1.90844e-14 -8.0215e-31 0 0.288007 -1.70787e-15 -3.14145e-15 0.271743 -1.26302e-15 -3.84254e-16)
(9.41741e-15 -2.62271e-31 1.94099e-30 0.267075 3.01261e-17 -2.38308e-16 0.263632 -2.09126e-15 1.19469e-16)
(0 0 0 0.267075 -1.56785e-29 6.02848e-16 0.263632 0 5.11156e-16)
(6.30108e-15 -2.44378e-31 0 0.246939 -2.31126e-16 -4.22968e-18 0.25493 -1.42209e-15 -5.04257e-17)
(-3.30301e-15 0 0 0.246939 6.31318e-16 7.80942e-16 0.25493 -6.8427e-16 -2.6989e-16)
(6.30577e-15 0 2.80033e-30 0.227489 2.81758e-16 1.67226e-15 0.24551 -2.68183e-16 -1.28375e-16)
(0 0 0 0.227489 5.59628e-16 1.51706e-15 0.24551 -6.40982e-16 -2.10403e-16)
(0 0 0 0.208607 5.26243e-16 2.14366e-15 0.235215 -1.17221e-15 -3.07473e-16)
(0 -6.68262e-31 0 0.208607 4.08837e-17 1.27235e-15 0.235215 -5.89453e-16 -3.40495e-16)
(0 0 0 0.190166 -5.96137e-16 3.27072e-15 0.223844 -1.48902e-15 7.22276e-17)
(0 0 0 0.190166 -7.77679e-16 2.20373e-15 0.223844 -1.37729e-15 -3.5064e-16)
(0 0 5.11196e-31 0.172023 3.53504e-16 1.61026e-15 0.211145 -1.27439e-15 2.96287e-16)
(-2.74222e-15 1.59014e-45 -2.43558e-30 0.172023 9.24638e-31 2.89872e-15 0.211145 7.88861e-31 8.50398e-16)
(1.14099e-14 0 5.82009e-32 0.154013 1.48643e-15 4.39106e-32 0.196791 -2.23688e-15 -2.09691e-16)
(7.11428e-15 -7.09936e-32 -2.32488e-30 0.154013 1.83584e-15 1.19659e-15 0.196791 -2.70802e-15 -2.75762e-16)
(4.99722e-15 -1.99916e-31 0 0.135945 2.97901e-30 -1.91382e-15 0.18036 -1.44055e-15 2.11219e-16)
(-4.99722e-15 0 -2.21921e-30 0.135945 9.65925e-16 -9.14165e-16 0.18036 -1.70567e-15 -1.12187e-16)
(-3.11846e-15 8.22314e-32 0 0.117591 -2.0457e-16 1.08714e-15 0.16131 -2.14839e-15 4.70709e-16)
(1.24738e-14 -3.70009e-31 0 0.117591 -7.76535e-31 8.28583e-16 0.16131 -1.3331e-15 -3.96639e-16)
(-3.13275e-15 1.88832e-31 9.5327e-32 0.0986875 -6.2259e-16 -1.44305e-15 0.138957 -2.27658e-15 -2.85811e-16)
(0 0 0 0.0986875 -3.40193e-16 -1.86176e-30 0.138957 -2.04038e-15 -4.93038e-32)
(4.34633e-15 -7.94059e-32 1.93016e-30 0.0789396 -1.30094e-15 -2.90944e-15 0.112481 -1.03847e-15 -3.16971e-16)
(2.08222e-14 -3.0716e-30 0 0.0789396 -1.51204e-15 -3.77309e-15 0.112481 -1.20698e-15 -1.44087e-16)
(-3.15824e-15 5.66222e-31 1.61933e-32 0.0580581 1.34197e-16 -4.93038e-32 0.0809923 -5.7094e-16 -1.16685e-16)
(1.2633e-14 0 0 0.0580581 7.39557e-31 6.82753e-16 0.0809923 -7.88861e-31 -7.66373e-16)
(-7.92042e-15 8.79343e-31 -1.75869e-30 0.0358235 9.83843e-16 -5.94249e-17 0.0436764 -1.5475e-15 -2.63486e-16)
(3.96021e-15 0 0 0.0358235 1.28659e-15 2.59486e-30 0.0436764 -2.36407e-15 0)
(1.84078e-18 0 0 4.35868e-11 1.14686e-15 1.7526e-15 4e-11 -1.90858e-15 -9.37213e-16)
(0 4.19688e-31 -1.67875e-30 4.39545e-11 9.44288e-16 1.53829e-15 4.03411e-11 -2.1393e-15 -2.89257e-16)
(1.15363e-17 -1.92118e-33 -3.07389e-32 13.3705 1.87059e-15 -2.48217e-14 -0.0613706 8.57879e-15 -1.93552e-16)
(-1.15363e-17 1.92118e-33 3.07389e-32 13.3705 4.43551e-16 -3.02437e-17 -0.0613706 7.6393e-18 -1.67169e-16)
(-2.20239e-17 -4.89029e-33 3.91223e-32 13.3642 4.56981e-15 -7.52308e-15 -0.186976 1.95226e-15 -1.41571e-15)
(0 0 -3.91223e-32 13.3642 1.03188e-15 -4.67406e-17 -0.186976 -4.31183e-17 -7.02156e-16)
(-3.00923e-17 -9.33603e-33 1.12032e-31 13.3576 4.52976e-15 -3.68186e-15 -0.275433 7.99586e-15 -1.63803e-15)
(4.20458e-17 9.33603e-33 -1.12032e-31 13.3576 1.04154e-15 -4.88549e-17 -0.275433 -8.14286e-17 -7.68148e-16)
(0 -1.78234e-32 0 13.3507 5.16401e-15 -3.68977e-15 -0.288395 6.55207e-15 -1.90655e-15)
(-8.02694e-17 1.78234e-32 0 13.3507 1.28451e-15 -5.85621e-17 -0.288395 -1.34768e-16 -8.38735e-16)
(4.14188e-17 0 0 13.3435 5.23046e-15 -3.68227e-15 -0.30196 6.38946e-15 -2.20822e-15)
(-1.65675e-16 0 0 13.3435 1.42817e-15 -7.04843e-17 -0.30196 -1.91937e-16 -9.14034e-16)
(0 -3.248e-32 2.2736e-31 13.3359 5.24565e-15 -3.66265e-15 -0.316154 6.49569e-15 -2.54513e-15)
(-2.41606e-16 3.248e-32 -2.2736e-31 13.3359 1.60609e-15 -9.16851e-17 -0.316154 -2.52826e-16 -9.95196e-16)
(0 0 0 13.328 5.30899e-15 -3.62961e-15 -0.331006 6.57807e-15 -2.9215e-15)
(-1.39629e-16 0 0 13.328 1.75722e-15 -2.84689e-16 -0.331006 -3.17959e-16 -1.0825e-15)
(0 -2.95946e-32 1.77568e-31 13.3196 5.37042e-15 -3.58248e-15 -0.346544 6.63534e-15 -3.34126e-15)
(-5.37642e-16 0 -1.18378e-31 13.3196 2.05808e-15 -5.23839e-16 -0.346544 -3.86285e-16 -1.17341e-15)
(-8.68771e-18 -2.25996e-31 3.95493e-31 13.3108 5.36689e-15 -3.53196e-15 -0.362799 6.69984e-15 -3.80852e-15)
(0 1.69497e-31 -3.38994e-31 13.3108 2.40234e-15 -6.42158e-16 -0.362799 -4.61526e-16 -1.26958e-15)
(1.45695e-16 -1.61793e-31 2.15724e-31 13.3015 5.36107e-15 -3.47011e-15 -0.3798 6.77286e-15 -4.32784e-15)
(-5.82781e-16 2.15724e-31 -3.23586e-31 13.3015 2.39182e-15 -7.61259e-16 -0.3798 -5.39987e-16 -1.37115e-15)
(2.31844e-16 1.02959e-31 -1.02959e-31 13.2916 5.33082e-15 -3.38793e-15 -0.397579 6.85387e-15 -4.90452e-15)
(-6.78328e-16 -1.02959e-31 1.02959e-31 13.2916 2.35324e-15 -8.8469e-16 -0.397579 -6.19742e-16 -1.47808e-15)
(0 -9.82798e-32 2.45699e-31 13.281 5.49224e-15 -3.29341e-15 -0.416164 6.93983e-15 -5.54423e-15)
(-7.78361e-16 1.9656e-31 -3.93119e-31 13.281 2.6015e-15 -1.00031e-15 -0.416164 -7.05061e-16 -1.59016e-15)
(-2.20772e-16 0 1.87626e-31 13.2694 5.78685e-15 -3.16905e-15 -0.435584 7.02065e-15 -5.90259e-15)
(8.83089e-16 0 -9.38128e-32 13.2694 2.79491e-15 -1.11824e-15 -0.435584 -7.93669e-16 -1.70791e-15)
(1.55109e-16 -2.68647e-31 2.68647e-31 13.2567 5.62239e-15 -3.01029e-15 -0.455862 7.10053e-15 -6.05929e-15)
(-1.39602e-15 2.68647e-31 -2.68647e-31 13.2567 2.71103e-15 -1.28338e-15 -0.455862 -8.81104e-16 -1.83105e-15)
(0 -1.70957e-31 3.41915e-31 13.2423 5.21395e-15 -2.86043e-15 -0.477018 7.18898e-15 -6.05864e-15)
(-1.10752e-15 1.70957e-31 -3.41915e-31 13.2423 2.79529e-15 -1.44448e-15 -0.477018 -9.6875e-16 -1.95839e-15)
(6.1384e-16 0 0 13.2258 5.01817e-15 -2.7093e-15 -0.499058 7.28214e-15 -6.04512e-15)
(0 0 0 13.2258 3.30756e-15 -1.56357e-15 -0.499058 -1.06626e-15 -2.09065e-15)
(-3.38368e-16 0 0 13.2062 4.73279e-15 -2.53426e-15 -0.521976 7.3783e-15 -6.01804e-15)
(1.35347e-15 0 7.7885e-32 13.2062 3.62221e-15 -1.71687e-15 -0.521976 -1.17144e-15 -2.22716e-15)
(-7.29378e-17 0 1.4869e-31 13.1824 4.83843e-15 -2.3593e-15 -0.545744 7.48372e-15 -5.97722e-15)
(-2.1548e-15 0 -1.4869e-31 13.1824 3.39535e-15 -1.84674e-15 -0.545744 -1.27391e-15 -2.36629e-15)
(1.04495e-15 2.83864e-31 -2.83864e-31 13.1528 5.07442e-15 -2.13318e-15 -0.570302 7.57828e-15 -5.9215e-15)
(0 -1.41932e-31 2.83864e-31 13.1528 3.6784e-15 -1.95402e-15 -0.570302 -1.36295e-15 -2.50863e-15)
(4.41819e-16 -2.70962e-31 4.06443e-31 13.1154 4.45267e-15 -1.90332e-15 -0.595548 7.66786e-15 -5.85069e-15)
(0 2.70962e-31 -5.41924e-31 13.1154 4.42448e-15 -2.09413e-15 -0.595548 -1.46594e-15 -2.6523e-15)
(1.06199e-15 2.58646e-31 -2.58646e-31 13.0673 3.97673e-15 -1.72076e-15 -0.621322 7.78125e-15 -5.76244e-15)
(-1.91827e-15 0 2.58646e-31 13.0673 4.61566e-15 -2.16699e-15 -0.621322 -1.57505e-15 -2.79449e-15)
(5.19061e-16 0 -1.23445e-31 13.005 4.19752e-15 -1.49961e-15 -0.647395 7.88197e-15 -5.65305e-15)
(-5.55947e-16 0 1.23445e-31 13.005 4.62946e-15 -2.18453e-15 -0.647395 -1.66984e-15 -2.9361e-15)
(1.12074e-15 0 -1.17834e-31 12.9242 4.55599e-15 -1.21739e-15 -0.673447 7.98406e-15 -5.73711e-15)
(0 0 1.17834e-31 12.9242 4.73221e-15 -2.30536e-15 -0.673447 -1.77847e-15 -3.07622e-15)
(1.01312e-15 0 -3.37436e-31 12.8196 4.64273e-15 -1.41569e-14 -0.699062 8.0675e-15 -6.02853e-15)
(-1.01312e-15 0 2.24957e-31 12.8196 4.66154e-15 -2.42041e-15 -0.699062 -1.87565e-15 -3.20674e-15)
(0 0 0 12.6856 4.53241e-15 -3.17798e-14 -0.723721 8.15493e-15 -5.95972e-15)
(0 0 0 12.6856 4.32072e-15 -2.31182e-15 -0.723721 -1.95916e-15 -3.68767e-15)
(-9.23115e-16 -4.09945e-31 1.22984e-30 12.5159 4.2848e-15 -3.61892e-14 -0.746814 8.23445e-15 -5.73632e-15)
(0 2.04973e-31 -8.19891e-31 12.5159 4.6061e-15 -2.19744e-15 -0.746814 -2.03932e-15 -4.30863e-15)
(7.44567e-16 3.91313e-31 -1.56525e-30 12.3046 3.46991e-15 -3.56102e-14 -0.76767 8.30504e-15 -5.47359e-15)
(0 -3.91313e-31 1.56525e-30 12.3046 6.04232e-15 -2.13464e-15 -0.76767 -2.11554e-15 -4.93479e-15)
(0 -3.73527e-31 3.73527e-31 12.0468 2.57314e-15 -3.45383e-14 -0.785603 8.39147e-15 -5.17914e-15)
(1.49917e-15 2.96594e-31 0 12.0468 6.74234e-15 -2.11117e-15 -0.785603 -1.68096e-15 -5.55337e-15)
(-4.4985e-17 0 2.1393e-30 11.7392 3.04561e-15 -3.31266e-14 -0.79998 8.45084e-15 -4.85696e-15)
(-8.02878e-16 0 -1.4262e-30 11.7392 5.49624e-15 -1.88292e-15 -0.79998 -1.22972e-15 -6.15325e-15)
(1.80388e-15 0 -2.72275e-30 11.3808 4.04913e-15 -3.09888e-14 -0.810296 8.4601e-15 -4.49258e-15)
(3.60777e-15 8.79132e-31 2.72275e-30 11.3808 4.15811e-15 -1.52893e-15 -0.810296 -7.74645e-16 -6.73136e-15)
(1.91469e-15 0 0 10.9739 3.66702e-15 -2.82893e-14 -0.816233 8.46709e-15 -4.10246e-15)
(0 0 0 10.9739 3.87764e-15 -1.40229e-15 -0.816233 -7.73321e-16 -7.26142e-15)
(0 0 3.10109e-30 10.5235 3.12333e-15 -2.53338e-14 -0.817705 8.4717e-15 -3.69209e-15)
(0 0 -4.34152e-30 10.5235 3.27377e-15 -1.14853e-15 -0.817705 -7.10677e-16 -7.73787e-15)
(0 5.92027e-31 -2.36811e-30 10.0374 2.94677e-15 -2.20993e-14 -0.814862 8.44524e-15 -3.26663e-15)
(0 -5.92027e-31 2.36811e-30 10.0374 2.37028e-15 -7.97348e-16 -0.814862 -7.52389e-16 -8.15259e-15)
(1.1284e-15 0 -1.13024e-30 9.52512 1.86261e-15 -1.90368e-14 -0.808065 8.39264e-15 -2.84207e-15)
(0 0 1.13024e-30 9.52512 3.01653e-15 -8.01776e-16 -0.808065 -8.04692e-16 -8.49867e-15)
(0 -2.88361e-44 4.31547e-30 8.99721 -1.03883e-28 -1.61365e-14 -0.797827 8.35524e-15 -2.41031e-15)
(0 0 -4.31547e-30 8.99721 4.45288e-15 -1.11647e-15 -0.797827 -5.48588e-16 -8.77803e-15)
(1.24306e-15 0 1.02983e-30 8.46397 -2.75206e-17 -1.33102e-14 -0.784752 8.33372e-15 -1.99263e-15)
(0 -5.14915e-31 0 8.46397 4.88005e-15 -9.12707e-16 -0.784752 -4.59397e-16 -8.96492e-15)
(1.29964e-15 -9.83023e-31 7.86418e-30 7.9348 6.94773e-16 -1.09912e-14 -0.769471 8.26209e-15 -1.58489e-15)
(2.98497e-15 9.63774e-31 -5.89814e-30 7.9348 4.42962e-15 -4.43156e-16 -0.769471 -4.07238e-16 -9.08826e-15)
(-7.57589e-16 -9.38343e-31 -9.38343e-31 7.41763 1.4645e-15 -9.19123e-15 -0.752589 8.16115e-15 -1.18054e-15)
(5.42149e-15 9.58452e-31 1.87669e-30 7.41763 3.80508e-15 -7.33877e-16 -0.752589 -3.7295e-16 -9.15959e-15)
(2.82017e-15 0 8.95694e-31 6.91865 2.14731e-15 -6.94827e-15 -0.734649 8.03268e-15 -7.85826e-16)
(-2.01692e-15 0 -8.95694e-31 6.91865 3.39741e-15 -6.76891e-16 -0.734649 -3.57199e-16 -9.15161e-15)
(2.92726e-15 0 -1.70997e-30 6.44233 1.80948e-15 -4.95406e-15 -0.716116 7.85834e-15 -4.76416e-16)
(0 -4.27492e-31 1.70997e-30 6.44233 2.88311e-15 -4.90754e-17 -0.716116 -2.90703e-16 -9.10108e-15)
(-2.15957e-15 0 4.89674e-30 5.99157 1.10095e-15 -2.97504e-15 -0.697371 7.71279e-15 -1.41915e-16)
(6.06369e-15 9.60174e-31 -1.63225e-30 5.99157 2.01791e-15 -1.36679e-16 -0.697371 -1.82989e-16 -9.01419e-15)
(1.5669e-15 0 0 5.56793 1.33547e-16 -1.31145e-15 -0.678711 7.60942e-15 1.05897e-16)
(0 1.23646e-29 0 5.56793 9.13787e-17 -4.72887e-17 -0.678711 -5.6477e-18 -8.81809e-15)
(-3.23309e-15 0 6.48097e-31 5.17194 -9.96817e-16 -5.77003e-16 -0.660362 7.47359e-15 3.736e-17)
(0 -7.43621e-31 0 5.17194 1.11574e-15 3.65434e-16 -0.660362 -2.89933e-16 -8.63248e-15)
(4.8616e-15 0 -7.00649e-46 4.80332 -8.01953e-16 0 -0.642486 7.32519e-15 1.91236e-30)
(3.46263e-15 5.02997e-30 4.25893e-30 4.80332 1.10166e-15 1.65768e-16 -0.642486 -7.47273e-17 -8.4414e-15)
(-1.52573e-15 0 4.06536e-30 4.46123 -3.89893e-17 1.32682e-15 -0.625195 7.15849e-15 1.04052e-16)
(-6.84731e-15 -6.43048e-31 -1.35512e-30 4.46123 8.1032e-16 -7.37347e-16 -0.625195 -1.57528e-16 -8.15356e-15)
(1.75752e-15 0 -3.98187e-30 4.14449 -1.86275e-16 1.82958e-15 -0.608561 6.91035e-15 2.77114e-16)
(7.03007e-15 0 3.88058e-30 4.14449 4.93038e-32 -1.23002e-15 -0.608561 3.97233e-45 -7.78721e-15)
(1.80196e-15 0 3.57858e-30 3.85165 -6.24985e-16 1.77208e-15 -0.592623 6.67663e-15 2.67472e-16)
(-7.20783e-15 1.56736e-30 -3.7042e-30 3.85165 -3.98903e-16 -1.37487e-15 -0.592623 -3.11103e-17 -7.43547e-15)
(1.84519e-15 -5.89307e-31 -2.5085e-30 3.58118 -5.79607e-16 2.01673e-15 -0.577398 6.46992e-15 2.85769e-16)
(0 5.89307e-31 2.35723e-30 3.58118 5.71643e-16 -1.75836e-15 -0.577398 -3.85631e-16 -7.11542e-15)
(-6.30792e-15 5.62522e-31 5.93287e-30 3.3315 -2.45484e-16 1.9191e-15 -0.562883 6.2801e-15 3.75407e-16)
(0 -1.12504e-30 -4.50018e-30 3.3315 1.46553e-15 -1.5681e-15 -0.562883 -1.2544e-16 -6.78582e-15)
(-2.41823e-15 5.36954e-31 5.36954e-30 3.10104 6.84372e-16 2.14121e-15 -0.549067 6.0938e-15 2.79411e-16)
(0 0 -5.36954e-30 3.10104 -3.50123e-45 -9.95305e-16 -0.549067 9.86076e-32 -6.50751e-15)
(-4.27648e-15 0 1.90799e-31 2.88831 8.10927e-16 3.22692e-15 -0.535925 5.74785e-15 4.93572e-16)