/*--------------------------------*- C++ -*----------------------------------*\
| =========                 |                                                 |
| \\      /  F ield         | OpenFOAM: The Open Source CFD Toolbox           |
|  \\    /   O peration     | Version:  2106                                  |
|   \\  /    A nd           | Website:  www.openfoam.com                      |
|    \\/     M anipulation  |                                                 |
\*---------------------------------------------------------------------------*/
FoamFile
{
    version     2.0;
    format      ascii;
    arch        "LSB;label=32;scalar=64";
    class       surfaceScalarField;
    location    "10020";
    object      phi;
}
// * * * * * * * * * * * * * * * * * * * * * * * * * * * * * * * * * * * * * //

dimensions      [0 3 -1 0 0 0 0];

oriented        oriented;

internalField   nonuniform List<scalar> 
1596
(
7.04068e-08
-1.56861e-18
1.07277e-21
1.66041e-21
1.91813e-22
2.24721e-07
-1.58669e-18
6.43279e-21
1.24231e-20
8.44206e-22
4.01021e-07
-1.60619e-18
6.97904e-21
2.40424e-20
9.6777e-22
6.0177e-07
-1.62694e-18
7.46455e-21
3.62399e-20
1.10732e-21
8.29684e-07
-1.64891e-18
7.96584e-21
4.90324e-20
1.26458e-21
1.08776e-06
-1.6721e-18
8.48884e-21
6.2547e-20
1.44143e-21
1.37929e-06
-1.69695e-18
9.02939e-21
7.65857e-20
1.63992e-21
1.70791e-06
-1.7232e-18
9.58673e-21
9.12987e-20
1.86224e-21
2.07764e-06
-1.75039e-18
1.0161e-20
1.06589e-19
2.11081e-21
2.49287e-06
-1.77907e-18
1.07509e-20
1.21635e-19
2.38837e-21
2.95847e-06
-1.81035e-18
1.13546e-20
1.38855e-19
2.69764e-21
3.47977e-06
-1.84158e-18
1.19694e-20
1.5516e-19
3.04111e-21
4.06263e-06
-1.87272e-18
1.2592e-20
1.71472e-19
3.4222e-21
4.7135e-06
-1.9061e-18
1.32185e-20
1.87725e-19
3.84387e-21
5.43945e-06
-1.94023e-18
1.38451e-20
2.04558e-19
4.30906e-21
6.24824e-06
-1.97544e-18
1.44656e-20
2.22993e-19
4.82115e-21
7.14832e-06
-2.01194e-18
1.5074e-20
2.39202e-19
5.38222e-21
8.14895e-06
-2.05057e-18
1.5663e-20
2.55534e-19
5.99572e-21
9.26015e-06
-2.08597e-18
1.6225e-20
2.68808e-19
6.66357e-21
1.04928e-05
-2.12463e-18
1.67499e-20
2.83536e-19
7.38666e-21
1.18585e-05
-2.16213e-18
1.72245e-20
2.9602e-19
8.16556e-21
1.33698e-05
-2.20228e-18
1.76335e-20
3.07283e-19
8.99873e-21
1.50398e-05
-2.23969e-18
1.7963e-20
3.17199e-19
9.882e-21
1.6882e-05
-2.27539e-18
1.8192e-20
3.2307e-19
1.08091e-20
1.89104e-05
-2.3153e-18
1.82987e-20
3.29991e-19
1.17697e-20
2.1139e-05
-2.34661e-18
1.82632e-20
3.31256e-19
1.27423e-20
2.35813e-05
-2.38263e-18
1.80629e-20
3.30388e-19
1.37078e-20
2.62503e-05
-2.41381e-18
1.76748e-20
3.30643e-19
1.46468e-20
2.91579e-05
-2.42723e-18
1.70803e-20
3.2054e-19
1.55346e-20
3.23146e-05
-2.45281e-18
1.62524e-20
3.14997e-19
1.63549e-20
3.57297e-05
-2.46958e-18
1.52234e-20
2.93609e-19
1.70382e-20
3.94111e-05
-2.48046e-18
1.39739e-20
2.76109e-19
1.76006e-20
4.33659e-05
-2.48835e-18
1.25313e-20
2.46531e-19
1.80005e-20
4.76004e-05
-2.4805e-18
1.09245e-20
2.10665e-19
1.82106e-20
5.21208e-05
-2.47772e-18
9.1602e-21
1.77309e-19
1.82359e-20
5.69339e-05
-2.46467e-18
7.26681e-21
1.47611e-19
1.81036e-20
6.20472e-05
-2.44646e-18
5.25132e-21
1.08428e-19
1.78069e-20
6.74693e-05
-2.42803e-18
3.16295e-21
7.11333e-20
1.73656e-20
7.32104e-05
-2.41201e-18
1.06537e-21
3.43218e-20
1.67249e-20
7.92821e-05
-2.36797e-18
-1.01124e-21
1.03363e-20
1.59556e-20
8.56977e-05
-2.36133e-18
-3.13007e-21
-4.33622e-20
1.49622e-20
9.24721e-05
-2.3242e-18
-5.11722e-21
-1.0438e-19
1.37729e-20
9.96218e-05
-2.27181e-18
-7.13177e-21
-1.464e-19
1.24866e-20
0.000107165
-2.23511e-18
-9.17011e-21
-1.86627e-19
1.10652e-20
0.000115121
-2.18797e-18
-1.1184e-20
-2.29982e-19
9.57339e-21
0.000123512
-2.11626e-18
-1.30148e-20
-3.03511e-19
8.01576e-21
0.000132359
-2.05311e-18
-1.48215e-20
-3.5637e-19
6.57079e-21
0.000141688
-2.00753e-18
-1.6719e-20
-4.09597e-19
5.06189e-21
0.000151523
-1.94825e-18
-1.84975e-20
-4.61959e-19
3.80608e-21
0.000161893
-1.89699e-18
-2.03231e-20
-4.94463e-19
2.91711e-21
0.000172825
-1.81938e-18
-2.18723e-20
-5.35439e-19
1.90942e-21
0.00018435
-1.68655e-18
-2.30554e-20
-5.71869e-19
7.12127e-22
0.000196501
-1.61194e-18
-2.47724e-20
-6.16914e-19
-2.71182e-22
0.000209311
-1.53047e-18
-2.66143e-20
-6.45053e-19
-1.55531e-21
0.000222815
-1.488e-18
-2.79627e-20
-6.53897e-19
-3.1139e-21
0.000237051
-1.41147e-18
-2.84998e-20
-6.74503e-19
-4.77726e-21
0.000252058
-1.31293e-18
-2.89653e-20
-7.14203e-19
-6.62397e-21
0.000267877
-1.29921e-18
-2.9767e-20
-6.72601e-19
-7.86688e-21
0.000284552
-1.21768e-18
-2.95187e-20
-6.57317e-19
-9.76031e-21
0.000302128
-1.16691e-18
-2.90416e-20
-6.56282e-19
-1.1086e-20
0.000320653
-1.12583e-18
-2.90371e-20
-6.35761e-19
-1.2269e-20
0.000340176
-1.07535e-18
-2.90769e-20
-6.15933e-19
-1.37564e-20
0.000360751
-1.0021e-18
-2.9116e-20
-5.87546e-19
-1.48974e-20
0.000382433
-1.01511e-18
-3.05393e-20
-5.61565e-19
-1.60192e-20
0.000405279
-9.13025e-19
-3.01895e-20
-6.22626e-19
-1.95923e-20
0.000429351
-8.92602e-19
-3.24348e-20
-6.4662e-19
-2.39248e-20
0.000454711
-7.63503e-19
-3.25607e-20
-6.41558e-19
-2.56531e-20
0.000481427
-7.4131e-19
-3.09821e-20
-6.55813e-19
-2.77167e-20
0.000509568
-7.69457e-19
-2.65126e-20
-6.52883e-19
-2.97013e-20
0.000539208
-7.37027e-19
-2.50837e-20
-6.96379e-19
-3.18615e-20
0.000570422
-6.86499e-19
-2.52625e-20
-6.95963e-19
-3.30329e-20
0.000603292
-6.98132e-19
-2.4095e-20
-7.40298e-19
-3.25118e-20
0.000637901
-6.28138e-19
-2.24511e-20
-7.81333e-19
-3.49881e-20
0.000674336
-7.78394e-19
-2.98677e-20
-8.34302e-19
-3.42362e-20
0.00071269
-7.17705e-19
-3.10692e-20
-7.81287e-19
-2.87697e-20
0.000753057
-7.86183e-19
-2.6578e-20
-7.99944e-19
-2.10026e-20
0.000795537
-7.13197e-19
-2.20575e-20
-8.17664e-19
-1.14976e-20
0.000840235
-7.64727e-19
-2.35788e-20
-7.63322e-19
-1.08994e-20
0.000887258
-7.13092e-19
-1.58169e-20
-7.539e-19
-1.48179e-20
0.000936718
-7.57235e-19
-2.35615e-20
-6.8998e-19
-8.84526e-21
0.000988733
-7.12493e-19
-2.02635e-20
-5.24481e-19
-7.77516e-21
0.00104342
-6.73526e-19
-2.72776e-21
-3.88347e-19
5.1899e-21
0.00110091
-5.26542e-19
1.43353e-20
-4.2878e-19
1.37888e-20
0.00116133
-4.13241e-19
2.3634e-20
-3.76637e-19
2.88157e-20
0.00122481
-4.10522e-19
2.86107e-20
-2.60104e-19
2.13856e-21
0.00129149
-4.65634e-19
4.44936e-20
-6.86285e-19
-7.47826e-20
0.0013615
-3.91034e-19
1.49085e-20
-4.88658e-19
-1.87331e-20
0.00143498
-4.63939e-19
-4.09354e-20
-5.13164e-19
-4.03124e-20
0.00151207
-4.41455e-19
-4.04187e-20
-4.36677e-19
-2.4272e-20
0.00159291
-3.65525e-19
-3.39366e-20
-4.54049e-19
-1.05297e-20
0.00167764
-4.4372e-19
-1.26601e-20
-5.27624e-19
1.5045e-20
0.00176637
-3.78022e-19
-1.94633e-20
-4.64048e-19
4.46088e-20
0.00185922
-2.01781e-19
-5.70816e-21
-2.64887e-19
-2.43308e-20
0.00195629
-2.74062e-19
1.25389e-20
-2.17282e-19
-1.59842e-21
0.00205764
-3.43999e-19
-6.22799e-21
-3.03875e-19
8.75093e-21
0.0021633
-2.11809e-19
-5.27195e-20
-2.00478e-19
4.81908e-20
0.00227324
-6.51063e-19
-2.74112e-20
-6.45242e-19
8.88081e-21
0.00238736
-4.95117e-19
4.52907e-21
-5.25603e-19
2.49821e-20
0.00250547
-4.24115e-19
1.79369e-20
-3.18402e-19
1.12698e-19
0.00262728
4.99379e-20
-3.38952e-19
5.45814e-20
-3.41928e-19
7.04068e-08
9.81757e-22
2.66365e-22
2.24721e-07
7.0002e-21
1.56245e-21
4.01021e-07
1.34889e-20
3.04693e-21
6.0177e-07
2.03087e-20
4.72722e-21
8.29684e-07
2.76389e-20
6.68647e-21
1.08776e-06
3.5178e-20
9.09107e-21
1.37929e-06
4.32632e-20
1.16514e-20
1.70791e-06
5.18659e-20
1.481e-20
2.07764e-06
6.07322e-20
1.91968e-20
2.49287e-06
7.00662e-20
2.31465e-20
2.95847e-06
7.98255e-20
2.73923e-20
3.47977e-06
8.99867e-20
3.25827e-20
4.06263e-06
1.02025e-19
3.80748e-20
4.7135e-06
1.14267e-19
4.34137e-20
5.43945e-06
1.25178e-19
5.02404e-20
6.24824e-06
1.36773e-19
5.73695e-20
7.14832e-06
1.4822e-19
6.59183e-20
8.14895e-06
1.59684e-19
7.54708e-20
9.26015e-06
1.75027e-19
8.3811e-20
1.04928e-05
1.86232e-19
9.69128e-20
1.18585e-05
1.97468e-19
1.10863e-19
1.33698e-05
2.10331e-19
1.24686e-19
1.50398e-05
2.24939e-19
1.39308e-19
1.6882e-05
2.40798e-19
1.55796e-19
1.89104e-05
2.54731e-19
1.69933e-19
2.1139e-05
2.74286e-19
1.8497e-19
2.35813e-05
2.84228e-19
2.0982e-19
2.62503e-05
2.94589e-19
2.37428e-19
2.91579e-05
3.05285e-19
2.66023e-19
3.23146e-05
3.29827e-19
2.74397e-19
3.57297e-05
3.40602e-19
2.98099e-19
3.94111e-05
3.58538e-19
3.14216e-19
4.33659e-05
3.73987e-19
3.23777e-19
4.76004e-05
3.8665e-19
3.36105e-19
5.21208e-05
3.86934e-19
3.65303e-19
5.69339e-05
3.82841e-19
3.96221e-19
6.20472e-05
3.87213e-19
4.27235e-19
6.74693e-05
3.9911e-19
4.39287e-19
7.32104e-05
4.12321e-19
4.73799e-19
7.92821e-05
4.23563e-19
4.95882e-19
8.56977e-05
4.38388e-19
5.00015e-19
9.24721e-05
4.34278e-19
5.09677e-19
9.96218e-05
4.32551e-19
5.18504e-19
0.000107165
4.12026e-19
5.30443e-19
0.000115121
4.22036e-19
5.38706e-19
0.000123512
4.25109e-19
5.47334e-19
0.000132359
4.08152e-19
5.26549e-19
0.000141688
4.06512e-19
5.40014e-19
0.000151523
3.97531e-19
5.66472e-19
0.000161893
4.07509e-19
5.69174e-19
0.000172825
4.30075e-19
5.37603e-19
0.00018435
4.19851e-19
5.38892e-19
0.000196501
3.99497e-19
5.12871e-19
0.000209311
4.26377e-19
4.8225e-19
0.000222815
4.35635e-19
4.7508e-19
0.000237051
4.37232e-19
4.64849e-19
0.000252058
4.48994e-19
4.51923e-19
0.000267877
4.60061e-19
4.35062e-19
0.000284552
4.78058e-19
4.63652e-19
0.000302128
4.2797e-19
4.58263e-19
0.000320653
3.85141e-19
4.31158e-19
0.000340176
3.53151e-19
4.10879e-19
0.000360751
2.97466e-19
4.07154e-19
0.000382433
2.64119e-19
3.54791e-19
0.000405279
2.26505e-19
2.80058e-19
0.000429351
2.50887e-19
2.69747e-19
0.000454711
3.36357e-19
2.39025e-19
0.000481427
3.20403e-19
2.1128e-19
0.000509568
1.59135e-19
1.59963e-19
0.000539208
1.17191e-19
1.45785e-19
0.000570422
1.50717e-19
1.81699e-19
0.000603292
1.35599e-19
8.86835e-20
0.000637901
9.721e-20
1.24575e-19
0.000674336
2.41923e-20
1.06761e-19
0.00071269
1.00646e-19
8.08186e-20
0.000753057
3.51264e-20
4.73363e-20
0.000795537
9.40153e-20
1.77727e-20
0.000840235
9.09857e-20
-1.1165e-20
0.000887258
-6.43165e-20
-3.67484e-20
0.000936718
-1.37925e-19
-8.68879e-20
0.000988733
-1.96303e-19
-2.34837e-20
0.00104342
-3.31876e-19
-1.56257e-19
0.00110091
-3.2826e-19
-2.67749e-19
0.00116133
-2.50435e-19
-3.41227e-19
0.00122481
-1.45171e-19
-3.1166e-19
0.00129149
-3.93054e-19
-2.09337e-19
0.0013615
-4.41746e-19
-4.03849e-19
0.00143498
-3.10636e-19
-3.00995e-19
0.00151207
-3.30393e-19
-3.39424e-19
0.00159291
-2.52366e-19
-3.68742e-19
0.00167764
-3.49626e-19
-3.80385e-19
0.00176637
-2.49366e-19
-5.17961e-19
0.00185922
-1.68639e-19
-1.39383e-19
0.00195629
-3.74735e-19
-2.42341e-19
0.00205764
-4.75875e-19
-3.2341e-19
0.0021633
-1.65365e-19
-2.70743e-19
0.00227324
-6.21259e-19
-6.24957e-19
0.00238736
-5.55152e-19
-4.81699e-19
0.00250547
-4.43514e-19
-4.75549e-19
0.00262728
-2.5148e-19
-3.74799e-19
0.00262728
-1.16772e-19
1.57459e-19
-8.75208e-20
8.77661e-20
0.00250547
-2.2758e-19
1.2791e-19
-1.25175e-19
3.97511e-20
0.00238736
-2.27575e-19
8.25735e-21
-2.56676e-19
-7.00777e-20
0.00227324
-2.78288e-19
1.82126e-20
-3.52532e-19
9.2404e-21
0.0021633
-3.83083e-19
1.34795e-19
-4.05831e-19
7.67457e-20
0.00205764
-3.88301e-19
4.47349e-20
-5.54231e-19
1.43154e-20
0.00195629
-3.4777e-19
-2.20063e-20
-2.88281e-19
7.24102e-20
0.00185922
-3.77157e-19
-4.70283e-20
-2.60087e-19
1.90341e-20
0.00176637
-2.6534e-19
-4.54174e-20
-2.55484e-19
1.62162e-20
0.00167764
-2.33543e-19
-2.79981e-21
-2.00579e-19
-8.8104e-21
0.00159291
-2.74051e-19
-8.19551e-21
-1.16871e-19
-3.2653e-20
0.00151207
-1.65074e-19
-2.7658e-21
-2.62451e-19
-2.12624e-20
0.00143498
-1.28833e-19
-1.46472e-21
-2.66399e-19
8.68694e-21
0.0013615
-2.17003e-19
-2.27897e-20
-3.40995e-19
4.36113e-20
0.00129149
-2.95315e-19
-1.67649e-20
-2.86921e-19
5.86338e-20
0.00122481
-2.79514e-19
-1.84154e-20
-3.29911e-19
4.06391e-20
0.00116133
-2.83827e-19
-3.69763e-20
-3.13759e-19
4.67775e-20
0.00110091
-4.90142e-19
-1.88131e-20
-2.25062e-19
4.80355e-20
0.00104342
-1.39875e-19
2.81814e-20
-1.8813e-19
3.70178e-20
0.000988733
-1.88421e-19
1.98624e-20
-1.9055e-19
2.18622e-20
0.000936718
-8.62687e-20
1.87975e-22
-1.9918e-19
-4.89926e-21
0.000887258
-1.48231e-19
-1.65116e-20
-2.53594e-19
-3.7812e-21
0.000840235
-2.51674e-19
-1.90968e-20
-2.10689e-19
7.49947e-21
0.000795537
-1.92613e-19
-1.51122e-20
-4.68358e-20
1.29716e-20
0.000753057
-6.89116e-20
-1.95234e-20
-1.16179e-19
-3.67618e-21
0.00071269
-1.61703e-19
-1.72932e-20
-5.23299e-20
-6.70371e-21
0.000674336
-1.54183e-19
-1.21273e-20
-1.18409e-19
-1.10961e-20
0.000637901
-1.45912e-19
-7.25025e-21
-9.27101e-20
-6.40328e-21
0.000603292
-9.43512e-20
-8.18597e-21
-7.26903e-20
-3.09132e-21
0.000570422
-6.02497e-20
-6.71971e-21
-5.27881e-20
-1.90396e-21
0.000539208
-1.87442e-19
-8.33801e-21
-1.421e-19
-6.24195e-21
0.000509568
-1.02036e-19
-1.88091e-21
-1.26657e-19
-8.71769e-21
0.000481427
-1.01601e-19
-1.14672e-21
-1.04923e-19
-7.40583e-21
0.000454711
-1.43958e-19
-1.61306e-21
-8.88954e-20
-7.32847e-21
0.000429351
-9.15391e-20
-1.11708e-21
-7.96706e-20
-5.03511e-21
0.000405279
-7.75016e-20
-2.28397e-21
-8.89292e-20
-3.47322e-21
0.000382433
-1.06763e-19
-2.18875e-21
-8.49553e-20
-4.51404e-21
0.000360751
-8.65675e-20
-1.64462e-21
-7.28902e-20
-4.70623e-21
0.000340176
-9.09519e-20
-1.10382e-21
-8.13612e-20
-3.07407e-21
0.000320653
-9.56802e-20
-6.00216e-22
-4.16465e-20
-1.90196e-21
0.000302128
-1.00358e-19
-1.41314e-22
-6.58946e-20
-2.48182e-21
0.000284552
-8.40307e-20
6.36079e-22
-5.25658e-20
-3.13932e-21
0.000267877
-6.05303e-20
2.36342e-22
-6.41539e-20
-3.35821e-21
0.000252058
-6.3783e-20
1.55807e-23
-5.07425e-20
-2.55783e-21
0.000237051
-4.72952e-20
4.41078e-22
-5.64133e-20
-2.54949e-21
0.000222815
-4.5294e-20
8.8851e-22
-5.44111e-20
-2.2503e-21
0.000209311
-6.47567e-20
9.42568e-22
-3.91711e-20
-1.98302e-21
0.000196501
-4.00222e-20
1.15401e-21
-6.60881e-20
-2.11314e-21
0.00018435
1.13946e-20
8.82615e-22
-6.49154e-20
-1.57361e-21
0.000172825
9.94075e-21
5.37195e-22
-6.35549e-20
-1.08148e-21
0.000161893
2.63598e-20
2.09301e-22
-1.74896e-20
-7.00954e-22
0.000151523
7.80951e-21
-1.95221e-22
-1.6073e-20
-6.58779e-22
0.000141688
-1.06152e-20
-4.06822e-22
6.53488e-21
-7.0795e-22
0.000132359
-9.9466e-22
-3.69078e-22
9.14018e-21
-8.0876e-22
0.000123512
-6.71996e-21
-3.79865e-22
-3.04048e-21
-9.65478e-22
0.000115121
-3.73977e-20
-3.84956e-22
-4.29738e-21
-1.01281e-21
0.000107165
-2.49013e-20
-2.20498e-22
-3.85909e-22
-1.01882e-21
9.96218e-05
-2.74511e-20
-1.66198e-22
-8.32153e-21
-1.07416e-21
9.24721e-05
-3.08828e-20
-1.49911e-22
-3.609e-21
-1.04663e-21
8.56977e-05
-3.27544e-20
-1.48983e-22
6.24029e-21
-1.04498e-21
7.92821e-05
-2.01368e-20
-1.03226e-22
8.42855e-21
-1.11921e-21
7.32104e-05
-1.80348e-20
-7.80278e-23
-5.78011e-21
-1.10012e-21
6.74693e-05
-9.06655e-21
-5.09758e-23
-1.24857e-20
-1.02575e-21
6.20472e-05
-2.3735e-20
-3.62583e-23
-9.26885e-21
-9.54259e-22
5.69339e-05
-2.1785e-20
-1.61785e-24
-6.80643e-21
-8.93647e-22
5.21208e-05
-2.61154e-20
1.76363e-23
-1.31828e-21
-8.47907e-22
4.76004e-05
-1.85444e-20
1.33728e-23
-4.28043e-21
-7.91997e-22
4.33659e-05
-1.39144e-20
1.11398e-24
-6.97344e-21
-7.31381e-22
3.94111e-05
-1.17136e-20
-1.20273e-23
-3.79336e-21
-6.82518e-22
3.57297e-05
-6.18317e-21
-2.65509e-23
-3.94145e-21
-6.42502e-22
3.23146e-05
-1.46766e-21
-4.17827e-23
-9.64551e-21
-6.0654e-22
2.91579e-05
-2.84673e-21
-4.71557e-23
-8.8007e-21
-5.6134e-22
2.62503e-05
-1.88649e-21
-3.98118e-23
-6.88097e-21
-5.10782e-22
2.35813e-05
-1.11803e-21
-3.24816e-23
-9.5868e-21
-4.56789e-22
2.1139e-05
-1.39256e-21
-3.00463e-23
-8.04831e-21
-4.0079e-22
1.89104e-05
-1.39009e-21
-2.87195e-23
-7.54825e-21
-3.50619e-22
1.6882e-05
-5.86939e-21
-2.6619e-23
-2.51395e-21
-3.07076e-22
1.50398e-05
-2.53837e-21
-2.14445e-23
-3.68903e-21
-2.71777e-22
1.33698e-05
-1.73341e-21
-2.04233e-23
-3.37214e-21
-2.3726e-22
1.18585e-05
-2.92093e-21
-1.89648e-23
-1.66183e-21
-2.0725e-22
1.04928e-05
2.57882e-22
-1.6097e-23
-3.12392e-21
-1.81926e-22
9.26015e-06
-4.20808e-22
-1.52037e-23
-4.1352e-21
-1.58172e-22
8.14894e-06
-5.32591e-22
-1.40054e-23
-3.44208e-21
-1.36964e-22
7.14832e-06
-2.65598e-22
-1.26224e-23
-1.26983e-21
-1.1813e-22
6.24823e-06
1.401e-22
-1.1483e-23
-1.23924e-21
-1.02106e-22
5.43945e-06
2.43276e-22
-1.06529e-23
-1.77174e-21
-8.87225e-23
4.7135e-06
3.02262e-22
-9.69239e-24
-1.29293e-21
-7.67643e-23
4.06263e-06
3.84933e-22
-8.81016e-24
-1.49714e-21
-6.66078e-23
3.47976e-06
6.22763e-22
-7.84981e-24
-1.69045e-21
-5.76425e-23
2.95847e-06
3.29606e-22
-7.15656e-24
-1.48829e-21
-4.97333e-23
2.49288e-06
-4.25445e-22
-6.50239e-24
-6.04422e-22
-4.29211e-23
2.07764e-06
-7.98454e-23
-5.69254e-24
-3.95093e-22
-3.71976e-23
1.70792e-06
1.81481e-22
-5.0166e-24
-4.45997e-22
-3.22982e-23
1.37929e-06
2.2223e-22
-4.43456e-24
-3.59986e-22
-2.80272e-23
1.08776e-06
4.70198e-24
-3.92518e-24
-5.05871e-23
-2.43419e-23
8.29683e-07
-5.97723e-23
-3.42904e-24
-6.13761e-23
-2.11675e-23
6.01771e-07
-1.62829e-23
-2.98725e-24
-9.81098e-23
-1.84104e-23
4.01021e-07
4.13805e-23
-2.60004e-24
-8.95999e-23
-1.60082e-23
2.2472e-07
1.63729e-23
-2.26923e-24
-6.70396e-24
-1.39234e-23
7.04068e-08
-1.84037e-24
-3.91999e-24
0.00262728
-1.70823e-19
-1.54937e-19
0.00250547
-3.94082e-19
-2.54e-19
0.00238736
-2.02094e-19
-1.48545e-19
0.00227324
-2.27737e-20
-1.64188e-19
0.0021633
-4.29208e-19
-3.75557e-19
0.00205764
-3.87221e-19
-3.1995e-19
0.00195629
-3.32203e-19
-3.07662e-19
0.00185922
-4.12267e-19
-2.63213e-19
0.00176637
-2.20342e-19
-3.92539e-19
0.00167764
-2.6274e-19
-3.08304e-19
0.00159291
-2.84228e-19
-1.08826e-19
0.00151207
-2.37486e-19
-2.43976e-19
0.00143498
-2.61258e-19
-2.3453e-19
0.0013615
-2.16864e-19
-3.04852e-19
0.00129149
-2.91422e-19
-3.16225e-19
0.00122481
-3.44174e-19
-2.43616e-19
0.00116133
-2.14638e-19
-3.1386e-19
0.00110091
-2.62096e-19
-3.21465e-19
0.00104342
-2.05465e-19
-2.88273e-19
0.000988733
-3.43325e-19
-3.9169e-19
0.000936718
-2.85709e-19
-2.47898e-19
0.000887258
-2.61089e-19
-2.5212e-19
0.000840235
-3.07146e-19
-2.24838e-19
0.000795537
-2.85333e-19
-2.35142e-19
0.000753057
-4.86605e-20
-1.49614e-19
0.00071269
-1.09535e-19
-1.38147e-19
0.000674336
-1.02777e-19
-1.5435e-19
0.000637901
-1.73296e-19
-1.56997e-19
0.000603292
-8.66053e-20
-9.63337e-20
0.000570422
-9.96302e-20
-1.15025e-19
0.000539208
-2.32907e-20
-1.43839e-19
0.000509568
-2.90545e-20
-4.45278e-20
0.000481427
-5.67717e-20
-7.92512e-20
0.000454711
-6.5991e-20
-2.43201e-20
0.000429351
-6.52849e-20
-2.92841e-20
0.000405279
-3.79111e-20
-1.10523e-19
0.000382433
-8.04655e-20
-1.1614e-19
0.000360751
-7.41927e-20
-9.31785e-20
0.000340176
-7.07466e-20
-1.1071e-19
0.000320653
-7.21984e-20
-1.13111e-19
0.000302128
-6.49197e-20
-1.38364e-19
0.000284552
-1.12593e-19
-1.20797e-19
0.000267877
-9.02507e-20
-5.69488e-20
0.000252058
-6.36576e-20
-8.10144e-20
0.000237051
-4.93355e-20
-9.3443e-20
0.000222815
-7.99598e-20
-8.76937e-20
0.000209311
-7.98978e-20
-8.47082e-20
0.000196501
-8.62444e-20
-5.12582e-20
0.00018435
-3.31775e-20
-3.21501e-20
0.000172825
-3.41763e-20
-1.65989e-20
0.000161893
-3.98026e-20
-1.70301e-20
0.000151523
-4.65438e-20
-3.90602e-20
0.000141688
-3.22079e-20
-3.70814e-20
0.000132359
-2.98667e-20
-4.88667e-20
0.000123512
-3.69371e-20
-4.44591e-20
0.000115121
-2.83675e-20
-4.16327e-20
0.000107165
-2.53977e-20
-5.16261e-20
9.96218e-05
-2.89556e-20
-4.61575e-20
9.24721e-05
-3.33202e-20
-4.40322e-20
8.56977e-05
-2.02776e-20
-5.20942e-20
7.92821e-05
-1.21858e-20
-1.89539e-20
7.32104e-05
-8.58704e-21
-9.19849e-21
6.74693e-05
-1.86486e-21
-1.66491e-20
6.20472e-05
-9.3969e-22
-1.36205e-20
5.69339e-05
-1.55979e-21
-1.16623e-20
5.21208e-05
-1.79528e-20
-1.72928e-21
4.76004e-05
-1.54344e-20
6.0074e-22
4.33659e-05
-1.26031e-20
-4.8363e-21
3.94111e-05
-1.38632e-20
-5.69833e-21
3.57297e-05
-1.45211e-20
-8.2484e-21
3.23146e-05
-1.04725e-20
-1.14405e-20
2.91579e-05
-7.51478e-21
-7.89826e-21
2.62503e-05
-8.62457e-21
5.95385e-22
2.35813e-05
-1.16629e-20
1.48075e-21
2.1139e-05
-1.10812e-20
2.20541e-22
1.89104e-05
-8.53388e-21
7.73934e-22
1.6882e-05
-6.38923e-21
-2.58975e-22
1.50398e-05
-7.55738e-21
5.37501e-23
1.33698e-05
-6.24288e-21
-2.06599e-21
1.18585e-05
-4.60527e-21
-3.44102e-21
1.04928e-05
-4.37866e-21
-2.45406e-21
9.26015e-06
-3.74592e-21
-2.53549e-21
8.14894e-06
-3.28773e-21
-1.00014e-21
7.14832e-06
-3.53348e-21
1.04117e-21
6.24823e-06
-3.57386e-21
1.61386e-23
5.43945e-06
-2.31911e-21
5.37075e-22
4.7135e-06
-1.70916e-21
1.21817e-22
4.06263e-06
-5.54197e-22
-8.2797e-23
3.47976e-06
-6.80804e-22
-1.78936e-22
2.95847e-06
-5.97872e-22
-1.1157e-22
2.49288e-06
-1.25532e-22
-1.46855e-22
2.07764e-06
-1.40741e-23
-9.27582e-23
1.70792e-06
6.9632e-23
3.05225e-22
1.37929e-06
-1.07204e-22
2.95662e-22
1.08776e-06
-3.54356e-23
3.39424e-22
8.29683e-07
-4.63225e-23
2.29355e-22
6.01771e-07
1.85262e-23
1.51472e-22
4.01021e-07
5.99272e-24
4.84874e-23
2.2472e-07
2.42127e-24
1.30579e-23
7.04068e-08
)
;

boundaryField
{
    walls
    {
        type            calculated;
        value           uniform 0;
    }
    inlet
    {
        type            cyclic;
        value           nonuniform List<scalar> 
400
(
-7.04068e-08
-2.24721e-07
-4.01021e-07
-6.0177e-07
-8.29684e-07
-1.08776e-06
-1.37929e-06
-1.70791e-06
-2.07764e-06
-2.49287e-06
-2.95847e-06
-3.47977e-06
-4.06263e-06
-4.7135e-06
-5.43945e-06
-6.24824e-06
-7.14832e-06
-8.14895e-06
-9.26015e-06
-1.04928e-05
-1.18585e-05
-1.33698e-05
-1.50398e-05
-1.6882e-05
-1.89104e-05
-2.1139e-05
-2.35813e-05
-2.62503e-05
-2.91579e-05
-3.23146e-05
-3.57297e-05
-3.94111e-05
-4.33659e-05
-4.76004e-05
-5.21208e-05
-5.69339e-05
-6.20472e-05
-6.74693e-05
-7.32104e-05
-7.92821e-05
-8.56977e-05
-9.24721e-05
-9.96218e-05
-0.000107165
-0.000115121
-0.000123512
-0.000132359
-0.000141688
-0.000151523
-0.000161893
-0.000172825
-0.00018435
-0.000196501
-0.000209311
-0.000222815
-0.000237051
-0.000252058
-0.000267877
-0.000284552
-0.000302128
-0.000320653
-0.000340176
-0.000360751
-0.000382433
-0.000405279
-0.000429351
-0.000454711
-0.000481427
-0.000509568
-0.000539208
-0.000570422
-0.000603292
-0.000637901
-0.000674336
-0.00071269
-0.000753057
-0.000795537
-0.000840235
-0.000887258
-0.000936718
-0.000988733
-0.00104342
-0.00110091
-0.00116133
-0.00122481
-0.00129149
-0.0013615
-0.00143498
-0.00151207
-0.00159291
-0.00167764
-0.00176637
-0.00185922
-0.00195629
-0.00205764
-0.0021633
-0.00227324
-0.00238736
-0.00250547
-0.00262728
-7.04068e-08
-2.24721e-07
-4.01021e-07
-6.0177e-07
-8.29684e-07
-1.08776e-06
-1.37929e-06
-1.70791e-06
-2.07764e-06
-2.49287e-06
-2.95847e-06
-3.47977e-06
-4.06263e-06
-4.7135e-06
-5.43945e-06
-6.24824e-06
-7.14832e-06
-8.14895e-06
-9.26015e-06
-1.04928e-05
-1.18585e-05
-1.33698e-05
-1.50398e-05
-1.6882e-05
-1.89104e-05
-2.1139e-05
-2.35813e-05
-2.62503e-05
-2.91579e-05
-3.23146e-05
-3.57297e-05
-3.94111e-05
-4.33659e-05
-4.76004e-05
-5.21208e-05
-5.69339e-05
-6.20472e-05
-6.74693e-05
-7.32104e-05
-7.92821e-05
-8.56977e-05
-9.24721e-05
-9.96218e-05
-0.000107165
-0.000115121
-0.000123512
-0.000132359
-0.000141688
-0.000151523
-0.000161893
-0.000172825
-0.00018435
-0.000196501
-0.000209311
-0.000222815
-0.000237051
-0.000252058
-0.000267877
-0.000284552
-0.000302128
-0.000320653
-0.000340176
-0.000360751
-0.000382433
-0.000405279
-0.000429351
-0.000454711
-0.000481427
-0.000509568
-0.000539208
-0.000570422
-0.000603292
-0.000637901
-0.000674336
-0.00071269
-0.000753057
-0.000795537
-0.000840235
-0.000887258
-0.000936718
-0.000988733
-0.00104342
-0.00110091
-0.00116133
-0.00122481
-0.00129149
-0.0013615
-0.00143498
-0.00151207
-0.00159291
-0.00167764
-0.00176637
-0.00185922
-0.00195629
-0.00205764
-0.0021633
-0.00227324
-0.00238736
-0.00250547
-0.00262728
-0.00262728
-0.00250547
-0.00238736
-0.00227324
-0.0021633
-0.00205764
-0.00195629
-0.00185922
-0.00176637
-0.00167764
-0.00159291
-0.00151207
-0.00143498
-0.0013615
-0.00129149
-0.00122481
-0.00116133
-0.00110091
-0.00104342
-0.000988733
-0.000936718
-0.000887258
-0.000840235
-0.000795537
-0.000753057
-0.00071269
-0.000674336
-0.000637901
-0.000603292
-0.000570422
-0.000539208
-0.000509568
-0.000481427
-0.000454711
-0.000429351
-0.000405279
-0.000382433
-0.000360751
-0.000340176
-0.000320653
-0.000302128
-0.000284552
-0.000267877
-0.000252058
-0.000237051
-0.000222815
-0.000209311
-0.000196501
-0.00018435
-0.000172825
-0.000161893
-0.000151523
-0.000141688
-0.000132359
-0.000123512
-0.000115121
-0.000107165
-9.96218e-05
-9.24721e-05
-8.56977e-05
-7.92821e-05
-7.32104e-05
-6.74693e-05
-6.20472e-05
-5.69339e-05
-5.21208e-05
-4.76004e-05
-4.33659e-05
-3.94111e-05
-3.57297e-05
-3.23146e-05
-2.91579e-05
-2.62503e-05
-2.35813e-05
-2.1139e-05
-1.89104e-05
-1.6882e-05
-1.50398e-05
-1.33698e-05
-1.18585e-05
-1.04928e-05
-9.26015e-06
-8.14894e-06
-7.14832e-06
-6.24823e-06
-5.43945e-06
-4.7135e-06
-4.06263e-06
-3.47976e-06
-2.95847e-06
-2.49288e-06
-2.07764e-06
-1.70792e-06
-1.37929e-06
-1.08776e-06
-8.29683e-07
-6.01771e-07
-4.01021e-07
-2.2472e-07
-7.04068e-08
-0.00262728
-0.00250547
-0.00238736
-0.00227324
-0.0021633
-0.00205764
-0.00195629
-0.00185922
-0.00176637
-0.00167764
-0.00159291
-0.00151207
-0.00143498
-0.0013615
-0.00129149
-0.00122481
-0.00116133
-0.00110091
-0.00104342
-0.000988733
-0.000936718
-0.000887258
-0.000840235
-0.000795537
-0.000753057
-0.00071269
-0.000674336
-0.000637901
-0.000603292
-0.000570422
-0.000539208
-0.000509568
-0.000481427
-0.000454711
-0.000429351
-0.000405279
-0.000382433
-0.000360751
-0.000340176
-0.000320653
-0.000302128
-0.000284552
-0.000267877
-0.000252058
-0.000237051
-0.000222815
-0.000209311
-0.000196501
-0.00018435
-0.000172825
-0.000161893
-0.000151523
-0.000141688
-0.000132359
-0.000123512
-0.000115121
-0.000107165
-9.96218e-05
-9.24721e-05
-8.56977e-05
-7.92821e-05
-7.32104e-05
-6.74693e-05
-6.20472e-05
-5.69339e-05
-5.21208e-05
-4.76004e-05
-4.33659e-05
-3.94111e-05
-3.57297e-05
-3.23146e-05
-2.91579e-05
-2.62503e-05
-2.35813e-05
-2.1139e-05
-1.89104e-05
-1.6882e-05
-1.50398e-05
-1.33698e-05
-1.18585e-05
-1.04928e-05
-9.26015e-06
-8.14894e-06
-7.14832e-06
-6.24823e-06
-5.43945e-06
-4.7135e-06
-4.06263e-06
-3.47976e-06
-2.95847e-06
-2.49288e-06
-2.07764e-06
-1.70792e-06
-1.37929e-06
-1.08776e-06
-8.29683e-07
-6.01771e-07
-4.01021e-07
-2.2472e-07
-7.04068e-08
)
;
    }
    outlet
    {
        type            cyclic;
        value           nonuniform List<scalar> 
400
(
7.04068e-08
2.24721e-07
4.01021e-07
6.0177e-07
8.29684e-07
1.08776e-06
1.37929e-06
1.70791e-06
2.07764e-06
2.49287e-06
2.95847e-06
3.47977e-06
4.06263e-06
4.7135e-06
5.43945e-06
6.24824e-06
7.14832e-06
8.14895e-06
9.26015e-06
1.04928e-05
1.18585e-05
1.33698e-05
1.50398e-05
1.6882e-05
1.89104e-05
2.1139e-05
2.35813e-05
2.62503e-05
2.91579e-05
3.23146e-05
3.57297e-05
3.94111e-05
4.33659e-05
4.76004e-05
5.21208e-05
5.69339e-05
6.20472e-05
6.74693e-05
7.32104e-05
7.92821e-05
8.56977e-05
9.24721e-05
9.96218e-05
0.000107165
0.000115121
0.000123512
0.000132359
0.000141688
0.000151523
0.000161893
0.000172825
0.00018435
0.000196501
0.000209311
0.000222815
0.000237051
0.000252058
0.000267877
0.000284552
0.000302128
0.000320653
0.000340176
0.000360751
0.000382433
0.000405279
0.000429351
0.000454711
0.000481427
0.000509568
0.000539208
0.000570422
0.000603292
0.000637901
0.000674336
0.00071269
0.000753057
0.000795537
0.000840235
0.000887258
0.000936718
0.000988733
0.00104342
0.00110091
0.00116133
0.00122481
0.00129149
0.0013615
0.00143498
0.00151207
0.00159291
0.00167764
0.00176637
0.00185922
0.00195629
0.00205764
0.0021633
0.00227324
0.00238736
0.00250547
0.00262728
7.04068e-08
2.24721e-07
4.01021e-07
6.0177e-07
8.29684e-07
1.08776e-06
1.37929e-06
1.70791e-06
2.07764e-06
2.49287e-06
2.95847e-06
3.47977e-06
4.06263e-06
4.7135e-06
5.43945e-06
6.24824e-06
7.14832e-06
8.14895e-06
9.26015e-06
1.04928e-05
1.18585e-05
1.33698e-05
1.50398e-05
1.6882e-05
1.89104e-05
2.1139e-05
2.35813e-05
2.62503e-05
2.91579e-05
3.23146e-05
3.57297e-05
3.94111e-05
4.33659e-05
4.76004e-05
5.21208e-05
5.69339e-05
6.20472e-05
6.74693e-05
7.32104e-05
7.92821e-05
8.56977e-05
9.24721e-05
9.96218e-05
0.000107165
0.000115121
0.000123512
0.000132359
0.000141688
0.000151523
0.000161893
0.000172825
0.00018435
0.000196501
0.000209311
0.000222815
0.000237051
0.000252058
0.000267877
0.000284552
0.000302128
0.000320653
0.000340176
0.000360751
0.000382433
0.000405279
0.000429351
0.000454711
0.000481427
0.000509568
0.000539208
0.000570422
0.000603292
0.000637901
0.000674336
0.00071269
0.000753057
0.000795537
0.000840235
0.000887258
0.000936718
0.000988733
0.00104342
0.00110091
0.00116133
0.00122481
0.00129149
0.0013615
0.00143498
0.00151207
0.00159291
0.00167764
0.00176637
0.00185922
0.00195629
0.00205764
0.0021633
0.00227324
0.00238736
0.00250547
0.00262728
0.00262728
0.00250547
0.00238736
0.00227324
0.0021633
0.00205764
0.00195629
0.00185922
0.00176637
0.00167764
0.00159291
0.00151207
0.00143498
0.0013615
0.00129149
0.00122481
0.00116133
0.00110091
0.00104342
0.000988733
0.000936718
0.000887258
0.000840235
0.000795537
0.000753057
0.00071269
0.000674336
0.000637901
0.000603292
0.000570422
0.000539208
0.000509568
0.000481427
0.000454711
0.000429351
0.000405279
0.000382433
0.000360751
0.000340176
0.000320653
0.000302128
0.000284552
0.000267877
0.000252058
0.000237051
0.000222815
0.000209311
0.000196501
0.00018435
0.000172825
0.000161893
0.000151523
0.000141688
0.000132359
0.000123512
0.000115121
0.000107165
9.96218e-05
9.24721e-05
8.56977e-05
7.92821e-05
7.32104e-05
6.74693e-05
6.20472e-05
5.69339e-05
5.21208e-05
4.76004e-05
4.33659e-05
3.94111e-05
3.57297e-05
3.23146e-05
2.91579e-05
2.62503e-05
2.35813e-05
2.1139e-05
1.89104e-05
1.6882e-05
1.50398e-05
1.33698e-05
1.18585e-05
1.04928e-05
9.26015e-06
8.14894e-06
7.14832e-06
6.24823e-06
5.43945e-06
4.7135e-06
4.06263e-06
3.47976e-06
2.95847e-06
2.49288e-06
2.07764e-06
1.70792e-06
1.37929e-06
1.08776e-06
8.29683e-07
6.01771e-07
4.01021e-07
2.2472e-07
7.04068e-08
0.00262728
0.00250547
0.00238736
0.00227324
0.0021633
0.00205764
0.00195629
0.00185922
0.00176637
0.00167764
0.00159291
0.00151207
0.00143498
0.0013615
0.00129149
0.00122481
0.00116133
0.00110091
0.00104342
0.000988733
0.000936718
0.000887258
0.000840235
0.000795537
0.000753057
0.00071269
0.000674336
0.000637901
0.000603292
0.000570422
0.000539208
0.000509568
0.000481427
0.000454711
0.000429351