/*--------------------------------*- C++ -*----------------------------------*\
| =========                 |                                                 |
| \\      /  F ield         | OpenFOAM: The Open Source CFD Toolbox           |
|  \\    /   O peration     | Version:  2106                                  |
|   \\  /    A nd           | Website:  www.openfoam.com                      |
|    \\/     M anipulation  |                                                 |
\*---------------------------------------------------------------------------*/
FoamFile
{
    version     2.0;
    format      ascii;
    arch        "LSB;label=32;scalar=64";
    class       volSymmTensorField;
    location    "10020";
    object      turbulenceProperties:R;
}
// * * * * * * * * * * * * * * * * * * * * * * * * * * * * * * * * * * * * * //

dimensions      [0 2 -2 0 0 0 0];

internalField   nonuniform List<symmTensor> 
2000
(
(2.06709e-08 -7.29744e-14 -1.35061e-16 2.06709e-08 8.00444e-28 2.06709e-08)
(2.06709e-08 -7.29744e-14 -1.35061e-16 2.06709e-08 1.79173e-32 2.06709e-08)
(3.10095e-09 -6.30633e-14 -3.52354e-16 3.10095e-09 3.7565e-28 3.10095e-09)
(3.10095e-09 -6.30633e-14 -3.52354e-16 3.10095e-09 6.76838e-32 3.10095e-09)
(1.43756e-09 -8.65613e-14 -6.71063e-16 1.43756e-09 3.9011e-29 1.43756e-09)
(1.43756e-09 -8.65613e-14 -6.71063e-16 1.43756e-09 1.47612e-31 1.43756e-09)
(2.38022e-09 -3.05173e-13 -2.41001e-15 2.38022e-09 2.17839e-28 2.38022e-09)
(2.38022e-09 -3.05173e-13 -2.41001e-15 2.38022e-09 6.33128e-31 2.38022e-09)
(5.46791e-09 -1.24205e-12 -9.99176e-15 5.46791e-09 5.61335e-28 5.46791e-09)
(5.46791e-09 -1.24205e-12 -9.99176e-15 5.46791e-09 2.98344e-30 5.46791e-09)
(1.1475e-08 -4.12153e-12 -3.37749e-14 1.1475e-08 2.67798e-27 1.1475e-08)
(1.1475e-08 -4.12153e-12 -3.37749e-14 1.1475e-08 1.1206e-29 1.1475e-08)
(2.15345e-08 -1.13326e-11 -9.46008e-14 2.15345e-08 7.58794e-27 2.15345e-08)
(2.15345e-08 -1.13326e-11 -9.46008e-14 2.15345e-08 3.46775e-29 2.15345e-08)
(3.70177e-08 -2.70352e-11 -2.29895e-13 3.70177e-08 1.83473e-26 3.70177e-08)
(3.70177e-08 -2.70352e-11 -2.29895e-13 3.70177e-08 9.22236e-29 3.70177e-08)
(5.95178e-08 -5.79358e-11 -5.01855e-13 5.95178e-08 4.0421e-26 5.95178e-08)
(5.95178e-08 -5.79358e-11 -5.01855e-13 5.95178e-08 2.18904e-28 5.95178e-08)
(9.08577e-08 -1.1426e-10 -1.00823e-12 9.08577e-08 8.14707e-26 9.08577e-08)
(9.08577e-08 -1.1426e-10 -1.00823e-12 9.08577e-08 4.80305e-28 9.08577e-08)
(1.33103e-07 -2.10961e-10 -1.89626e-12 1.33103e-07 1.53159e-25 1.33103e-07)
(1.33103e-07 -2.10961e-10 -1.89626e-12 1.33103e-07 9.87385e-28 1.33103e-07)
(1.88583e-07 -3.69198e-10 -3.38053e-12 1.88583e-07 2.7242e-25 1.88583e-07)
(1.88583e-07 -3.69198e-10 -3.38053e-12 1.88583e-07 1.87351e-27 1.88583e-07)
(2.59907e-07 -6.18137e-10 -5.76557e-12 2.59907e-07 5.0511e-25 2.59907e-07)
(2.59907e-07 -6.18137e-10 -5.76557e-12 2.59907e-07 3.37678e-27 2.59907e-07)
(3.4999e-07 -9.97128e-10 -9.47415e-12 3.4999e-07 9.45455e-25 3.4999e-07)
(3.4999e-07 -9.97128e-10 -9.47415e-12 3.4999e-07 5.93524e-27 3.4999e-07)
(4.62077e-07 -1.55831e-09 -1.50826e-11 4.62077e-07 1.58472e-24 4.62077e-07)
(4.62077e-07 -1.55831e-09 -1.50826e-11 4.62077e-07 1.00456e-26 4.62077e-07)
(5.99769e-07 -2.36974e-09 -2.33643e-11 5.99769e-07 2.46356e-24 5.99769e-07)
(5.99769e-07 -2.36974e-09 -2.33643e-11 5.99769e-07 1.64971e-26 5.99769e-07)
(7.67054e-07 -3.51906e-09 -3.53436e-11 7.67054e-07 3.73949e-24 7.67054e-07)
(7.67054e-07 -3.51906e-09 -3.53436e-11 7.67054e-07 2.62268e-26 7.67054e-07)
(9.68334e-07 -5.11791e-09 -5.2361e-11 9.68334e-07 5.55938e-24 9.68334e-07)
(9.68334e-07 -5.11791e-09 -5.2361e-11 9.68334e-07 4.04234e-26 9.68334e-07)
(1.20846e-06 -7.30704e-09 -7.61532e-11 1.20846e-06 8.11288e-24 1.20846e-06)
(1.20846e-06 -7.30704e-09 -7.61532e-11 1.20846e-06 6.09581e-26 1.20846e-06)
(1.49279e-06 -1.02624e-08 -1.0895e-10 1.49279e-06 1.16451e-23 1.49279e-06)
(1.49279e-06 -1.02624e-08 -1.0895e-10 1.49279e-06 9.25778e-26 1.49279e-06)
(1.82716e-06 -1.42021e-08 -1.5359e-10 1.82716e-06 1.64714e-23 1.82716e-06)
(1.82716e-06 -1.42021e-08 -1.5359e-10 1.82716e-06 1.38027e-25 1.82716e-06)
(2.21803e-06 -1.93949e-08 -2.13662e-10 2.21803e-06 2.29845e-23 2.21803e-06)
(2.21803e-06 -1.93949e-08 -2.13662e-10 2.21803e-06 1.95394e-25 2.21803e-06)
(2.67243e-06 -2.61695e-08 -2.93675e-10 2.67243e-06 3.16799e-23 2.67243e-06)
(2.67243e-06 -2.61695e-08 -2.93675e-10 2.67243e-06 2.69825e-25 2.67243e-06)
(3.19807e-06 -3.49258e-08 -3.99253e-10 3.19807e-06 4.31942e-23 3.19807e-06)
(3.19807e-06 -3.49258e-08 -3.99253e-10 3.19807e-06 3.57665e-25 3.19807e-06)
(3.80337e-06 -4.61477e-08 -5.37383e-10 3.80337e-06 5.83029e-23 3.80337e-06)
(3.80337e-06 -4.61477e-08 -5.37383e-10 3.80337e-06 4.93181e-25 3.80337e-06)
(4.4975e-06 -6.04182e-08 -7.16692e-10 4.4975e-06 6.46221e-23 4.4975e-06)
(4.4975e-06 -6.04182e-08 -7.16692e-10 4.4975e-06 6.86012e-25 4.4975e-06)
(5.29047e-06 -7.84362e-08 -9.47788e-10 5.29047e-06 5.51489e-23 5.29047e-06)
(5.29047e-06 -7.84362e-08 -9.47788e-10 5.29047e-06 9.1586e-25 5.29047e-06)
(6.19318e-06 -1.01036e-07 -1.24366e-09 6.19318e-06 5.53289e-23 6.19318e-06)
(6.19318e-06 -1.01036e-07 -1.24366e-09 6.19318e-06 1.18476e-24 6.19318e-06)
(7.21746e-06 -1.2921e-07 -1.62014e-09 7.21746e-06 7.16709e-23 7.21746e-06)
(7.21746e-06 -1.2921e-07 -1.62014e-09 7.21746e-06 1.52433e-24 7.21746e-06)
(8.3762e-06 -1.64136e-07 -2.09647e-09 8.3762e-06 9.22556e-23 8.3762e-06)
(8.3762e-06 -1.64136e-07 -2.09647e-09 8.3762e-06 2.04223e-24 8.3762e-06)
(9.68336e-06 -2.07202e-07 -2.69594e-09 9.68336e-06 1.18068e-22 9.68336e-06)
(9.68336e-06 -2.07202e-07 -2.69594e-09 9.68336e-06 2.71966e-24 9.68336e-06)
(1.11541e-05 -2.60045e-07 -3.44664e-09 1.11541e-05 1.50087e-22 1.11541e-05)
(1.11541e-05 -2.60045e-07 -3.44664e-09 1.11541e-05 3.59598e-24 1.11541e-05)
(1.28048e-05 -3.24588e-07 -4.38238e-09 1.28048e-05 1.90171e-22 1.28048e-05)
(1.28048e-05 -3.24588e-07 -4.38238e-09 1.28048e-05 4.60827e-24 1.28048e-05)
(1.46534e-05 -4.0308e-07 -5.54368e-09 1.46534e-05 2.39511e-22 1.46534e-05)
(1.46534e-05 -4.0308e-07 -5.54368e-09 1.46534e-05 5.72903e-24 1.46534e-05)
(1.6719e-05 -4.98147e-07 -6.97902e-09 1.6719e-05 2.99883e-22 1.6719e-05)
(1.6719e-05 -4.98147e-07 -6.97902e-09 1.6719e-05 7.22428e-24 1.6719e-05)
(1.90224e-05 -6.1285e-07 -8.74623e-09 1.90224e-05 3.74576e-22 1.90224e-05)
(1.90224e-05 -6.1285e-07 -8.74623e-09 1.90224e-05 9.44162e-24 1.90224e-05)
(2.15861e-05 -7.50743e-07 -1.09141e-08 2.15861e-05 4.66416e-22 2.15861e-05)
(2.15861e-05 -7.50743e-07 -1.09141e-08 2.15861e-05 1.21316e-23 2.15861e-05)
(2.44343e-05 -9.15948e-07 -1.35643e-08 2.44343e-05 5.78125e-22 2.44343e-05)
(2.44343e-05 -9.15948e-07 -1.35643e-08 2.44343e-05 1.48681e-23 2.44343e-05)
(2.75933e-05 -1.11323e-06 -1.67934e-08 2.75933e-05 7.13705e-22 2.75933e-05)
(2.75933e-05 -1.11323e-06 -1.67934e-08 2.75933e-05 1.91249e-23 2.75933e-05)
(3.10913e-05 -1.34808e-06 -2.07156e-08 3.10913e-05 8.78372e-22 3.10913e-05)
(3.10913e-05 -1.34808e-06 -2.07156e-08 3.10913e-05 2.47474e-23 3.10913e-05)
(3.49585e-05 -1.62684e-06 -2.54656e-08 3.49585e-05 1.07648e-21 3.49585e-05)
(3.49585e-05 -1.62684e-06 -2.54656e-08 3.49585e-05 2.94945e-23 3.49585e-05)
(3.92277e-05 -1.95677e-06 -3.12017e-08 3.92277e-05 1.31305e-21 3.92277e-05)
(3.92277e-05 -1.95677e-06 -3.12017e-08 3.92277e-05 3.49954e-23 3.92277e-05)
(4.39341e-05 -2.34621e-06 -3.81095e-08 4.39341e-05 1.59614e-21 4.39341e-05)
(4.39341e-05 -2.34621e-06 -3.81095e-08 4.39341e-05 4.21826e-23 4.39341e-05)
(4.91152e-05 -2.80471e-06 -4.64066e-08 4.91152e-05 1.93776e-21 4.91152e-05)
(4.91152e-05 -2.80471e-06 -4.64066e-08 4.91152e-05 5.18643e-23 4.91152e-05)
(5.48118e-05 -3.34314e-06 -5.63473e-08 5.48118e-05 2.35031e-21 5.48118e-05)
(5.48118e-05 -3.34314e-06 -5.63473e-08 5.48118e-05 6.16365e-23 5.48118e-05)
(6.10672e-05 -3.97391e-06 -6.82279e-08 6.10672e-05 2.83407e-21 6.10672e-05)
(6.10672e-05 -3.97391e-06 -6.82279e-08 6.10672e-05 7.1866e-23 6.10672e-05)
(6.7928e-05 -4.71112e-06 -8.23935e-08 6.7928e-05 3.40688e-21 6.7928e-05)
(6.7928e-05 -4.71112e-06 -8.23935e-08 6.7928e-05 9.98273e-23 6.7928e-05)
(7.54439e-05 -5.57077e-06 -9.92448e-08 7.54439e-05 4.1141e-21 7.54439e-05)
(7.54439e-05 -5.57077e-06 -9.92448e-08 7.54439e-05 1.38451e-22 7.54439e-05)
(8.36684e-05 -6.57095e-06 -1.19246e-07 8.36684e-05 4.95475e-21 8.36684e-05)
(8.36684e-05 -6.57095e-06 -1.19246e-07 8.36684e-05 1.41444e-22 8.36684e-05)
(9.26581e-05 -7.73211e-06 -1.42934e-07 9.26581e-05 5.902e-21 9.26581e-05)
(9.26581e-05 -7.73211e-06 -1.42934e-07 9.26581e-05 1.49179e-22 9.26581e-05)
(0.000102474 -9.07727e-06 -1.70928e-07 0.000102474 7.00223e-21 0.000102474)
(0.000102474 -9.07727e-06 -1.70928e-07 0.000102474 1.92384e-22 0.000102474)
(0.00011318 -1.06323e-05 -2.03942e-07 0.00011318 8.31646e-21 0.00011318)
(0.00011318 -1.06323e-05 -2.03942e-07 0.00011318 2.24598e-22 0.00011318)
(0.000124846 -1.24263e-05 -2.42794e-07 0.000124846 9.81301e-21 0.000124846)
(0.000124846 -1.24263e-05 -2.42794e-07 0.000124846 2.51794e-22 0.000124846)
(0.000137544 -1.44915e-05 -2.88422e-07 0.000137544 1.15416e-20 0.000137544)
(0.000137544 -1.44915e-05 -2.88422e-07 0.000137544 3.15348e-22 0.000137544)
(0.000151352 -1.68643e-05 -3.41899e-07 0.000151352 1.36336e-20 0.000151352)
(0.000151352 -1.68643e-05 -3.41899e-07 0.000151352 3.99269e-22 0.000151352)
(0.000166352 -1.95849e-05 -4.04447e-07 0.000166352 1.60605e-20 0.000166352)
(0.000166352 -1.95849e-05 -4.04447e-07 0.000166352 5.66062e-22 0.000166352)
(0.00018263 -2.26977e-05 -4.77457e-07 0.00018263 1.88497e-20 0.00018263)
(0.00018263 -2.26977e-05 -4.77457e-07 0.00018263 6.53476e-22 0.00018263)
(0.000200278 -2.62521e-05 -5.62502e-07 0.000200278 2.20522e-20 0.000200278)
(0.000200278 -2.62521e-05 -5.62502e-07 0.000200278 6.78968e-22 0.000200278)
(0.000219392 -3.03022e-05 -6.61363e-07 0.000219392 2.5672e-20 0.000219392)
(0.000219392 -3.03022e-05 -6.61363e-07 0.000219392 7.13025e-22 0.000219392)
(0.000240071 -3.49075e-05 -7.76046e-07 0.000240071 2.97607e-20 0.000240071)
(0.000240071 -3.49075e-05 -7.76046e-07 0.000240071 8.75791e-22 0.000240071)
(0.000262423 -4.01329e-05 -9.08802e-07 0.000262423 3.44567e-20 0.000262423)
(0.000262423 -4.01329e-05 -9.08802e-07 0.000262423 1.2926e-21 0.000262423)
(0.000286556 -4.60492e-05 -1.06215e-06 0.000286556 4.00615e-20 0.000286556)
(0.000286556 -4.60492e-05 -1.06215e-06 0.000286556 1.56863e-21 0.000286556)
(0.000312584 -5.27327e-05 -1.2389e-06 0.000312584 4.62613e-20 0.000312584)
(0.000312584 -5.27327e-05 -1.2389e-06 0.000312584 1.6404e-21 0.000312584)
(0.000340626 -6.02658e-05 -1.44217e-06 0.000340626 5.25696e-20 0.000340626)
(0.000340626 -6.02658e-05 -1.44217e-06 0.000340626 1.79148e-21 0.000340626)
(0.000370803 -6.87369e-05 -1.6754e-06 0.000370803 6.01594e-20 0.000370803)
(0.000370803 -6.87369e-05 -1.6754e-06 0.000370803 2.20158e-21 0.000370803)
(0.000403241 -7.824e-05 -1.94239e-06 0.000403241 6.76802e-20 0.000403241)
(0.000403241 -7.824e-05 -1.94239e-06 0.000403241 2.43642e-21 0.000403241)
(0.000438066 -8.88747e-05 -2.24729e-06 0.000438066 7.75123e-20 0.000438066)
(0.000438066 -8.88747e-05 -2.24729e-06 0.000438066 2.62348e-21 0.000438066)
(0.000475409 -0.000100745 -2.59463e-06 0.000475409 8.67597e-20 0.000475409)
(0.000475409 -0.000100745 -2.59463e-06 0.000475409 3.00109e-21 0.000475409)
(0.000515399 -0.000113961 -2.98931e-06 0.000515399 9.63216e-20 0.000515399)
(0.000515399 -0.000113961 -2.98931e-06 0.000515399 3.92399e-21 0.000515399)
(0.000558167 -0.000128635 -3.43662e-06 0.000558167 1.0771e-19 0.000558167)
(0.000558167 -0.000128635 -3.43662e-06 0.000558167 5.10517e-21 0.000558167)
(0.000603842 -0.000144883 -3.9422e-06 0.000603842 1.20138e-19 0.000603842)
(0.000603842 -0.000144883 -3.9422e-06 0.000603842 5.27913e-21 0.000603842)
(0.000652551 -0.000162821 -4.51208e-06 0.000652551 1.30446e-19 0.000652551)
(0.000652551 -0.000162821 -4.51208e-06 0.000652551 5.54993e-21 0.000652551)
(0.000704416 -0.000182567 -5.15259e-06 0.000704416 1.4185e-19 0.000704416)
(0.000704416 -0.000182567 -5.15259e-06 0.000704416 6.18316e-21 0.000704416)
(0.000759556 -0.000204237 -5.8704e-06 0.000759556 1.53981e-19 0.000759556)
(0.000759556 -0.000204237 -5.8704e-06 0.000759556 7.68632e-21 0.000759556)
(0.00081808 -0.000227942 -6.67241e-06 0.00081808 1.66665e-19 0.00081808)
(0.00081808 -0.000227942 -6.67241e-06 0.00081808 1.08593e-20 0.00081808)
(0.000880091 -0.000253791 -7.56573e-06 0.000880091 1.80612e-19 0.000880091)
(0.000880091 -0.000253791 -7.56573e-06 0.000880091 1.29588e-20 0.000880091)
(0.000945679 -0.000281883 -8.55763e-06 0.000945679 1.90586e-19 0.000945679)
(0.000945679 -0.000281883 -8.55763e-06 0.000945679 1.32796e-20 0.000945679)
(0.00101492 -0.000312307 -9.65541e-06 0.00101492 1.99483e-19 0.00101492)
(0.00101492 -0.000312307 -9.65541e-06 0.00101492 1.50412e-20 0.00101492)
(0.00108789 -0.000345143 -1.08664e-05 0.00108789 2.08787e-19 0.00108789)
(0.00108789 -0.000345143 -1.08664e-05 0.00108789 1.73898e-20 0.00108789)
(0.00116462 -0.000380455 -1.21977e-05 0.00116462 2.11994e-19 0.00116462)
(0.00116462 -0.000380455 -1.21977e-05 0.00116462 2.04601e-20 0.00116462)
(0.00124515 -0.00041829 -1.36565e-05 0.00124515 2.14331e-19 0.00124515)
(0.00124515 -0.00041829 -1.36565e-05 0.00124515 2.77196e-20 0.00124515)
(0.00132948 -0.000458679 -1.52493e-05 0.00132948 2.17525e-19 0.00132948)
(0.00132948 -0.000458679 -1.52493e-05 0.00132948 3.48493e-20 0.00132948)
(0.00141761 -0.000501632 -1.69825e-05 0.00141761 2.12991e-19 0.00141761)
(0.00141761 -0.000501632 -1.69825e-05 0.00141761 4.37349e-20 0.00141761)
(0.00150951 -0.000547137 -1.88618e-05 0.00150951 2.0029e-19 0.00150951)
(0.00150951 -0.000547137 -1.88618e-05 0.00150951 5.02493e-20 0.00150951)
(0.00160511 -0.000595162 -2.08926e-05 0.00160511 1.84478e-19 0.00160511)
(0.00160511 -0.000595162 -2.08926e-05 0.00160511 5.52756e-20 0.00160511)
(0.00170433 -0.000645652 -2.30792e-05 0.00170433 1.70315e-19 0.00170433)
(0.00170433 -0.000645652 -2.30792e-05 0.00170433 6.20302e-20 0.00170433)
(0.00180707 -0.000698528 -2.54255e-05 0.00180707 1.41949e-19 0.00180707)
(0.00180707 -0.000698528 -2.54255e-05 0.00180707 7.61958e-20 0.00180707)
(0.0019132 -0.00075369 -2.79345e-05 0.0019132 1.10409e-19 0.0019132)
(0.0019132 -0.00075369 -2.79345e-05 0.0019132 8.82346e-20 0.0019132)
(0.00202257 -0.000811016 -3.06084e-05 0.00202257 9.19886e-20 0.00202257)
(0.00202257 -0.000811016 -3.06084e-05 0.00202257 9.71966e-20 0.00202257)
(0.00213501 -0.000870367 -3.34486e-05 0.00213501 2.73675e-20 0.00213501)
(0.00213501 -0.000870367 -3.34486e-05 0.00213501 1.25648e-19 0.00213501)
(0.00225032 -0.000931583 -3.64554e-05 0.00225032 -4.9605e-20 0.00225032)
(0.00225032 -0.000931583 -3.64554e-05 0.00225032 1.49177e-19 0.00225032)
(0.00236828 -0.000994492 -3.96287e-05 0.00236828 -1.19987e-19 0.00236828)
(0.00236828 -0.000994492 -3.96287e-05 0.00236828 1.61609e-19 0.00236828)
(0.00248867 -0.0010589 -4.29672e-05 0.00248867 -1.98725e-19 0.00248867)
(0.00248867 -0.0010589 -4.29672e-05 0.00248867 1.8678e-19 0.00248867)
(0.00261123 -0.00112463 -4.64691e-05 0.00261123 -2.94431e-19 0.00261123)
(0.00261123 -0.00112463 -4.64691e-05 0.00261123 2.09647e-19 0.00261123)
(0.00273572 -0.00119145 -5.01317e-05 0.00273572 -4.15936e-19 0.00273572)
(0.00273572 -0.00119145 -5.01317e-05 0.00273572 2.33512e-19 0.00273572)
(0.00286186 -0.00125917 -5.3952e-05 0.00286186 -5.41458e-19 0.00286186)
(0.00286186 -0.00125917 -5.3952e-05 0.00286186 2.64424e-19 0.00286186)
(0.00298937 -0.00132758 -5.79261e-05 0.00298937 -6.72903e-19 0.00298937)
(0.00298937 -0.00132758 -5.79261e-05 0.00298937 3.01474e-19 0.00298937)
(0.00311798 -0.00139646 -6.20499e-05 0.00311798 -8.30096e-19 0.00311798)
(0.00311798 -0.00139646 -6.20499e-05 0.00311798 3.34396e-19 0.00311798)
(0.00324741 -0.00146562 -6.63189e-05 0.00324741 -9.87265e-19 0.00324741)
(0.00324741 -0.00146562 -6.63189e-05 0.00324741 3.70548e-19 0.00324741)
(0.00337738 -0.00153485 -7.07282e-05 0.00337738 -4.6264e-19 0.00337738)
(0.00337738 -0.00153485 -7.07282e-05 0.00337738 4.21178e-19 0.00337738)
(0.0035076 -0.00160396 -7.52729e-05 0.0035076 3.39896e-19 0.0035076)
(0.0035076 -0.00160396 -7.52729e-05 0.0035076 4.5428e-19 0.0035076)
(0.00363782 -0.00167277 -7.99478e-05 0.00363782 5.81264e-19 0.00363782)
(0.00363782 -0.00167277 -7.99478e-05 0.00363782 4.77452e-19 0.00363782)
(0.00376777 -0.00174111 -8.47479e-05 0.00376777 6.31621e-19 0.00376777)
(0.00376777 -0.00174111 -8.47479e-05 0.00376777 5.30203e-19 0.00376777)
(0.00389719 -0.00180881 -8.96679e-05 0.00389719 7.24764e-19 0.00389719)
(0.00389719 -0.00180881 -8.96679e-05 0.00389719 5.74692e-19 0.00389719)
(0.00402585 -0.00187574 -9.47029e-05 0.00402585 8.32161e-19 0.00402585)
(0.00402585 -0.00187574 -9.47029e-05 0.00402585 6.54199e-19 0.00402585)
(0.00415351 -0.00194176 -9.9848e-05 0.00415351 8.96186e-19 0.00415351)
(0.00415351 -0.00194176 -9.9848e-05 0.00415351 7.37409e-19 0.00415351)
(0.00427995 -0.00200674 -0.000105099 0.00427995 1.04829e-18 0.00427995)
(0.00427995 -0.00200674 -0.000105099 0.00427995 8.23553e-19 0.00427995)
(0.00440499 -0.00207058 -0.00011045 0.00440499 1.03898e-18 0.00440499)
(0.00440499 -0.00207058 -0.00011045 0.00440499 9.838e-19 0.00440499)
(0.00452842 -0.00213319 -0.000115898 0.00452842 8.70796e-19 0.00452842)
(0.00452842 -0.00213319 -0.000115898 0.00452842 1.09939e-18 0.00452842)
(0.00465009 -0.00219448 -0.000121439 0.00465009 8.63066e-19 0.00465009)
(0.00465009 -0.00219448 -0.000121439 0.00465009 1.14294e-18 0.00465009)
(0.00476982 -0.00225438 -0.000127069 0.00476982 8.93461e-19 0.00476982)
(0.00476982 -0.00225438 -0.000127069 0.00476982 1.21699e-18 0.00476982)
(0.00488748 -0.00231283 -0.000132785 0.00488748 7.78203e-19 0.00488748)
(0.00488748 -0.00231283 -0.000132785 0.00488748 1.33762e-18 0.00488748)
(0.00500293 -0.00236978 -0.000138583 0.00500293 5.64102e-19 0.00500293)
(0.00500293 -0.00236978 -0.000138583 0.00500293 1.45942e-18 0.00500293)
(0.00511608 -0.00242519 -0.00014446 0.00511608 2.37354e-19 0.00511608)
(0.00511608 -0.00242519 -0.00014446 0.00511608 1.60145e-18 0.00511608)
(0.00522681 -0.00247904 -0.000150416 0.00522681 2.68033e-19 0.00522681)
(0.00522681 -0.00247904 -0.000150416 0.00522681 1.70521e-18 0.00522681)
(0.00533505 -0.0025313 -0.000156445 0.00533505 1.37677e-19 0.00533505)
(0.00533505 -0.0025313 -0.000156445 0.00533505 1.80659e-18 0.00533505)
(0.00544071 -0.00258195 -0.000162548 0.00544071 -1.78835e-20 0.00544071)
(0.00544071 -0.00258195 -0.000162548 0.00544071 1.98e-18 0.00544071)
(0.00554373 -0.00263099 -0.000168722 0.00554373 -2.70519e-19 0.00554373)
(0.00554373 -0.00263099 -0.000168722 0.00554373 2.1532e-18 0.00554373)
(0.00564407 -0.00267841 -0.000174966 0.00564407 -5.05107e-19 0.00564407)
(0.00564407 -0.00267841 -0.000174966 0.00564407 2.34671e-18 0.00564407)
(0.00574168 -0.00272422 -0.000181277 0.00574168 -7.2648e-19 0.00574168)
(0.00574168 -0.00272422 -0.000181277 0.00574168 2.48613e-18 0.00574168)
(0.00583654 -0.00276843 -0.000187656 0.00583654 -1.00273e-18 0.00583654)
(0.00583654 -0.00276843 -0.000187656 0.00583654 2.63721e-18 0.00583654)
(0.00592861 -0.00281105 -0.000194101 0.00592861 -1.28995e-18 0.00592861)
(0.00592861 -0.00281105 -0.000194101 0.00592861 2.89353e-18 0.00592861)
(0.0060179 -0.00285209 -0.000200612 0.0060179 -1.58899e-18 0.0060179)
(0.0060179 -0.00285209 -0.000200612 0.0060179 3.09616e-18 0.0060179)
(0.00610438 -0.00289157 -0.000207187 0.00610438 -1.98276e-18 0.00610438)
(0.00610438 -0.00289157 -0.000207187 0.00610438 3.5088e-18 0.00610438)
(0.00618806 -0.00292951 -0.000213827 0.00618806 -1.93142e-18 0.00618806)
(0.00618806 -0.00292951 -0.000213827 0.00618806 4.74278e-18 0.00618806)
(0.00626895 -0.00296594 -0.000220532 0.00626895 -1.43272e-18 0.00626895)
(0.00626895 -0.00296594 -0.000220532 0.00626895 5.18025e-18 0.00626895)
(0.00634706 -0.00300087 -0.0002273 0.00634706 -1.34385e-18 0.00634706)
(0.00634706 -0.00300087 -0.0002273 0.00634706 5.26816e-18 0.00634706)
(0.0064224 -0.00303435 -0.000234131 0.0064224 -1.59237e-18 0.0064224)
(0.0064224 -0.00303435 -0.000234131 0.0064224 5.44088e-18 0.0064224)
(0.006495 -0.00306638 -0.000241027 0.006495 -1.97928e-18 0.006495)
(0.006495 -0.00306638 -0.000241027 0.006495 5.41413e-18 0.006495)
(0.00656487 -0.00309701 -0.000247987 0.00656487 -2.56373e-18 0.00656487)
(0.00656487 -0.00309701 -0.000247987 0.00656487 5.5257e-18 0.00656487)
(0.00663205 -0.00312625 -0.00025501 0.00663205 -2.69628e-18 0.00663205)
(0.00663205 -0.00312625 -0.00025501 0.00663205 5.95727e-18 0.00663205)
(0.00669657 -0.00315414 -0.000262098 0.00669657 -2.44005e-18 0.00669657)
(0.00669657 -0.00315414 -0.000262098 0.00669657 6.31216e-18 0.00669657)
(0.00675845 -0.00318071 -0.00026925 0.00675845 -2.47674e-18 0.00675845)
(0.00675845 -0.00318071 -0.00026925 0.00675845 6.34792e-18 0.00675845)
(0.00681774 -0.00320598 -0.000276466 0.00681774 -2.23653e-18 0.00681774)
(0.00681774 -0.00320598 -0.000276466 0.00681774 6.14571e-18 0.00681774)
(0.00687446 -0.00322998 -0.000283747 0.00687446 -1.65716e-18 0.00687446)
(0.00687446 -0.00322998 -0.000283747 0.00687446 5.95089e-18 0.00687446)
(0.00692866 -0.00325274 -0.000291094 0.00692866 -2.112e-18 0.00692866)
(0.00692866 -0.00325274 -0.000291094 0.00692866 6.3067e-18 0.00692866)
(0.00698036 -0.00327428 -0.000298505 0.00698036 -2.72859e-18 0.00698036)
(0.00698036 -0.00327428 -0.000298505 0.00698036 6.99776e-18 0.00698036)
(0.00702962 -0.00329464 -0.000305983 0.00702962 -2.62983e-18 0.00702962)
(0.00702962 -0.00329464 -0.000305983 0.00702962 7.74572e-18 0.00702962)
(0.00707647 -0.00331384 -0.000313526 0.00707647 -2.82027e-18 0.00707647)
(0.00707647 -0.00331384 -0.000313526 0.00707647 8.01884e-18 0.00707647)
(0.00712095 -0.00333191 -0.000321135 0.00712095 -3.03921e-18 0.00712095)
(0.00712095 -0.00333191 -0.000321135 0.00712095 8.17181e-18 0.00712095)
(0.00716309 -0.00334887 -0.00032881 0.00716309 -2.87062e-18 0.00716309)
(0.00716309 -0.00334887 -0.00032881 0.00716309 9.03235e-18 0.00716309)
(0.00720294 -0.00336474 -0.000336552 0.00720294 -2.84907e-18 0.00720294)
(0.00720294 -0.00336474 -0.000336552 0.00720294 9.47967e-18 0.00720294)
(0.00724054 -0.00337955 -0.000344361 0.00724054 -3.12007e-18 0.00724054)
(0.00724054 -0.00337955 -0.000344361 0.00724054 8.94847e-18 0.00724054)
(0.00727591 -0.00339332 -0.000352236 0.00727591 -2.86387e-18 0.00727591)
(0.00727591 -0.00339332 -0.000352236 0.00727591 8.88167e-18 0.00727591)
(0.00730911 -0.00340608 -0.000360177 0.00730911 -2.45848e-18 0.00730911)
(0.00730911 -0.00340608 -0.000360177 0.00730911 9.90526e-18 0.00730911)
(0.00734016 -0.00341783 -0.000368185 0.00734016 -1.87657e-18 0.00734016)
(0.00734016 -0.00341783 -0.000368185 0.00734016 1.08243e-17 0.00734016)
(0.00736911 -0.00342862 -0.00037626 0.00736911 -1.08348e-18 0.00736911)
(0.00736911 -0.00342862 -0.00037626 0.00736911 1.1703e-17 0.00736911)
(0.00739598 -0.00343844 -0.0003844 0.00739598 -6.64645e-19 0.00739598)
(0.00739598 -0.00343844 -0.0003844 0.00739598 1.25179e-17 0.00739598)
(0.00742082 -0.00344733 -0.000392607 0.00742082 3.26504e-19 0.00742082)
(0.00742082 -0.00344733 -0.000392607 0.00742082 1.22309e-17 0.00742082)
(0.00744366 -0.00345529 -0.000400879 0.00744366 9.35861e-19 0.00744366)
(0.00744366 -0.00345529 -0.000400879 0.00744366 1.22332e-17 0.00744366)
(0.00746452 -0.00346236 -0.000409216 0.00746452 4.11169e-19 0.00746452)
(0.00746452 -0.00346236 -0.000409216 0.00746452 1.45834e-17 0.00746452)
(0.00748344 -0.00346853 -0.000417618 0.00748344 -1.25595e-19 0.00748344)
(0.00748344 -0.00346853 -0.000417618 0.00748344 1.5065e-17 0.00748344)
(0.00750046 -0.00347383 -0.000426084 0.00750046 -1.80384e-18 0.00750046)
(0.00750046 -0.00347383 -0.000426084 0.00750046 1.61433e-17 0.00750046)
(0.00751559 -0.00347827 -0.000434612 0.00751559 -2.71835e-18 0.00751559)
(0.00751559 -0.00347827 -0.000434612 0.00751559 1.75026e-17 0.00751559)
(0.00752887 -0.00348187 -0.000443203 0.00752887 -1.90865e-18 0.00752887)
(0.00752887 -0.00348187 -0.000443203 0.00752887 1.72128e-17 0.00752887)
(0.00754033 -0.00348463 -0.000451854 0.00754033 -2.03687e-18 0.00754033)
(0.00754033 -0.00348463 -0.000451854 0.00754033 1.67299e-17 0.00754033)
(0.00754999 -0.00348658 -0.000460565 0.00754999 -1.02254e-18 0.00754999)
(0.00754999 -0.00348658 -0.000460565 0.00754999 1.80551e-17 0.00754999)
(0.00755788 -0.00348771 -0.000469335 0.00755788 -7.63564e-19 0.00755788)
(0.00755788 -0.00348771 -0.000469335 0.00755788 2.06651e-17 0.00755788)
(0.00756402 -0.00348805 -0.000478162 0.00756402 -7.08241e-19 0.00756402)
(0.00756402 -0.00348805 -0.000478162 0.00756402 2.13783e-17 0.00756402)
(0.00756843 -0.0034876 -0.000487044 0.00756843 -1.45097e-19 0.00756843)
(0.00756843 -0.0034876 -0.000487044 0.00756843 2.24471e-17 0.00756843)
(0.00757113 -0.00348636 -0.00049598 0.00757113 -1.5596e-18 0.00757113)
(0.00757113 -0.00348636 -0.00049598 0.00757113 2.40046e-17 0.00757113)
(0.00757215 -0.00348436 -0.000504968 0.00757215 -1.50364e-18 0.00757215)
(0.00757215 -0.00348436 -0.000504968 0.00757215 2.34819e-17 0.00757215)
(0.00757151 -0.0034816 -0.000514004 0.00757151 -7.55112e-19 0.00757151)
(0.00757151 -0.0034816 -0.000514004 0.00757151 2.27799e-17 0.00757151)
(0.00756922 -0.00347807 -0.000523088 0.00756922 -5.05095e-19 0.00756922)
(0.00756922 -0.00347807 -0.000523088 0.00756922 2.54703e-17 0.00756922)
(0.00756529 -0.0034738 -0.000532217 0.00756529 1.16566e-19 0.00756529)
(0.00756529 -0.0034738 -0.000532217 0.00756529 2.60379e-17 0.00756529)
(0.00755976 -0.00346879 -0.000541387 0.00755976 3.74594e-18 0.00755976)
(0.00755976 -0.00346879 -0.000541387 0.00755976 2.43137e-17 0.00755976)
(0.00755262 -0.00346303 -0.000550595 0.00755262 5.64799e-18 0.00755262)
(0.00755262 -0.00346303 -0.000550595 0.00755262 2.51284e-17 0.00755262)
(0.00754391 -0.00345655 -0.00055984 0.00754391 7.29519e-19 0.00754391)
(0.00754391 -0.00345655 -0.00055984 0.00754391 2.62233e-17 0.00754391)
(0.00753362 -0.00344933 -0.000569116 0.00753362 -6.51981e-19 0.00753362)
(0.00753362 -0.00344933 -0.000569116 0.00753362 2.74084e-17 0.00753362)
(0.00752177 -0.00344139 -0.000578421 0.00752177 -3.23379e-20 0.00752177)
(0.00752177 -0.00344139 -0.000578421 0.00752177 2.92815e-17 0.00752177)
(0.00750838 -0.00343272 -0.00058775 0.00750838 2.36971e-19 0.00750838)
(0.00750838 -0.00343272 -0.00058775 0.00750838 3.10491e-17 0.00750838)
(0.00749344 -0.00342334 -0.000597099 0.00749344 1.56285e-18 0.00749344)
(0.00749344 -0.00342334 -0.000597099 0.00749344 3.31094e-17 0.00749344)
(0.00747698 -0.00341323 -0.000606464 0.00747698 -3.73648e-19 0.00747698)
(0.00747698 -0.00341323 -0.000606464 0.00747698 3.40976e-17 0.00747698)
(0.00745901 -0.00340242 -0.000615839 0.00745901 2.59069e-19 0.00745901)
(0.00745901 -0.00340242 -0.000615839 0.00745901 3.33339e-17 0.00745901)
(0.00743952 -0.00339088 -0.000625221 0.00743952 4.55366e-18 0.00743952)
(0.00743952 -0.00339088 -0.000625221 0.00743952 3.4074e-17 0.00743952)
(0.00741852 -0.00337863 -0.000634602 0.00741852 2.93172e-18 0.00741852)
(0.00741852 -0.00337863 -0.000634602 0.00741852 3.51213e-17 0.00741852)
(0.00739603 -0.00336567 -0.000643978 0.00739603 1.97715e-18 0.00739603)
(0.00739603 -0.00336567 -0.000643978 0.00739603 3.45164e-17 0.00739603)
(0.00737204 -0.00335199 -0.000653342 0.00737204 -1.98491e-19 0.00737204)
(0.00737204 -0.00335199 -0.000653342 0.00737204 3.29804e-17 0.00737204)
(0.00734656 -0.00333759 -0.000662688 0.00734656 -1.04373e-18 0.00734656)
(0.00734656 -0.00333759 -0.000662688 0.00734656 3.40263e-17 0.00734656)
(0.0073196 -0.00332248 -0.000672008 0.0073196 2.06794e-19 0.0073196)
(0.0073196 -0.00332248 -0.000672008 0.0073196 3.68125e-17 0.0073196)
(0.00729115 -0.00330665 -0.000681297 0.00729115 4.86154e-18 0.00729115)
(0.00729115 -0.00330665 -0.000681297 0.00729115 4.06445e-17 0.00729115)
(0.00726122 -0.0032901 -0.000690544 0.00726122 9.63877e-18 0.00726122)
(0.00726122 -0.0032901 -0.000690544 0.00726122 4.19994e-17 0.00726122)
(0.00722982 -0.00327283 -0.000699744 0.00722982 8.72697e-18 0.00722982)
(0.00722982 -0.00327283 -0.000699744 0.00722982 4.42652e-17 0.00722982)
(0.00719693 -0.00325483 -0.000708887 0.00719693 8.48362e-20 0.00719693)
(0.00719693 -0.00325483 -0.000708887 0.00719693 5.25614e-17 0.00719693)
(0.00716257 -0.0032361 -0.000717963 0.00716257 -2.11494e-18 0.00716257)
(0.00716257 -0.0032361 -0.000717963 0.00716257 5.77731e-17 0.00716257)
(0.00712672 -0.00321664 -0.000726964 0.00712672 -2.39513e-18 0.00712672)
(0.00712672 -0.00321664 -0.000726964 0.00712672 5.04207e-17 0.00712672)
(0.0070894 -0.00319644 -0.000735879 0.0070894 7.91951e-19 0.0070894)
(0.0070894 -0.00319644 -0.000735879 0.0070894 4.25664e-17 0.0070894)
(0.0070506 -0.0031755 -0.000744698 0.0070506 2.43752e-18 0.0070506)
(0.0070506 -0.0031755 -0.000744698 0.0070506 3.42174e-17 0.0070506)
(0.00701031 -0.00315382 -0.00075341 0.00701031 4.74063e-18 0.00701031)
(0.00701031 -0.00315382 -0.00075341 0.00701031 2.82759e-17 0.00701031)
(0.00696853 -0.00313138 -0.000762002 0.00696853 1.53943e-18 0.00696853)
(0.00696853 -0.00313138 -0.000762002 0.00696853 3.09193e-17 0.00696853)
(0.00692527 -0.00310819 -0.000770463 0.00692527 4.27505e-18 0.00692527)
(0.00692527 -0.00310819 -0.000770463 0.00692527 2.41953e-17 0.00692527)
(0.00688051 -0.00308424 -0.000778779 0.00688051 4.44692e-18 0.00688051)
(0.00688051 -0.00308424 -0.000778779 0.00688051 1.50437e-17 0.00688051)
(0.00683425 -0.00305952 -0.000786938 0.00683425 -3.14381e-18 0.00683425)
(0.00683425 -0.00305952 -0.000786938 0.00683425 9.35178e-18 0.00683425)
(0.0067865 -0.00303402 -0.000794924 0.0067865 -3.17854e-18 0.0067865)
(0.0067865 -0.00303402 -0.000794924 0.0067865 1.21059e-17 0.0067865)
(0.00673724 -0.00300774 -0.000802722 0.00673724 -2.34714e-18 0.00673724)
(0.00673724 -0.00300774 -0.000802722 0.00673724 8.39808e-18 0.00673724)
(0.00668647 -0.00298068 -0.000810318 0.00668647 -1.92561e-18 0.00668647)
(0.00668647 -0.00298068 -0.000810318 0.00668647 -7.50375e-18 0.00668647)
(0.00663418 -0.00295282 -0.000817693 0.00663418 -1.22236e-18 0.00663418)
(0.00663418 -0.00295282 -0.000817693 0.00663418 -4.40657e-18 0.00663418)
(0.00658038 -0.00292415 -0.000824832 0.00658038 3.95046e-18 0.00658038)
(0.00658038 -0.00292415 -0.000824832 0.00658038 -5.26961e-19 0.00658038)
(0.00652506 -0.00289467 -0.000831716 0.00652506 -1.30115e-19 0.00652506)