/*--------------------------------*- C++ -*----------------------------------*\
| =========                 |                                                 |
| \\      /  F ield         | OpenFOAM: The Open Source CFD Toolbox           |
|  \\    /   O peration     | Version:  2106                                  |
|   \\  /    A nd           | Website:  www.openfoam.com                      |
|    \\/     M anipulation  |                                                 |
\*---------------------------------------------------------------------------*/
FoamFile
{
    version     2.0;
    format      ascii;
    arch        "LSB;label=32;scalar=64";
    class       volVectorField;
    location    "10020";
    object      U;
}
// * * * * * * * * * * * * * * * * * * * * * * * * * * * * * * * * * * * * * //

dimensions      [0 1 -1 0 0 0 0];

internalField   nonuniform List<vector> 
800
(
(0.00306853 -8.57547e-16 2.28986e-17)
(0.00306853 -6.92323e-19 1.67195e-17)
(0.00934882 -1.97332e-16 1.61182e-16)
(0.00934882 3.82003e-18 7.02413e-17)
(0.015925 -8.03636e-16 1.85222e-16)
(0.015925 7.22553e-18 7.68624e-17)
(0.0228108 -6.61891e-16 2.13978e-16)
(0.0228108 1.19311e-17 8.39484e-17)
(0.0300207 -6.4845e-16 2.46138e-16)
(0.0300207 1.69186e-17 9.15129e-17)
(0.0375697 -6.6204e-16 2.81908e-16)
(0.0375697 2.21553e-17 9.96727e-17)
(0.0454735 -6.7339e-16 3.21709e-16)
(0.0454735 2.7657e-17 1.08466e-16)
(0.0537487 -6.8245e-16 3.65927e-16)
(0.0537487 3.33667e-17 1.17845e-16)
(0.0624123 -6.92396e-16 4.14966e-16)
(0.0624123 3.9389e-17 1.27842e-16)
(0.0714822 -7.03353e-16 4.69289e-16)
(0.0714822 4.55333e-17 1.38476e-16)
(0.0809772 -7.15282e-16 5.29409e-16)
(0.0809772 5.18757e-17 1.49757e-16)
(0.0909167 -7.27843e-16 5.9588e-16)
(0.0909167 5.85976e-17 1.61673e-16)
(0.101321 -7.40379e-16 6.34259e-16)
(0.101321 6.52769e-17 1.74274e-16)
(0.11221 -7.53204e-16 6.52469e-16)
(0.11221 7.17165e-17 1.87559e-16)
(0.123607 -7.66654e-16 6.54921e-16)
(0.123607 7.82311e-17 2.01483e-16)
(0.135532 -7.80541e-16 6.56087e-16)
(0.135532 8.53014e-17 2.16065e-16)
(0.148009 -7.94843e-16 6.55856e-16)
(0.148009 9.23832e-17 2.31248e-16)
(0.161058 -8.09837e-16 6.54191e-16)
(0.161058 9.90665e-17 2.46951e-16)
(0.174702 -8.24654e-16 6.50976e-16)
(0.174702 1.04668e-16 2.63136e-16)
(0.188959 -8.39011e-16 6.46057e-16)
(0.188959 1.10442e-16 2.79702e-16)
(0.203848 -8.54819e-16 6.39295e-16)
(0.203848 1.16033e-16 2.96379e-16)
(0.219381 -8.69683e-16 6.30295e-16)
(0.219381 1.20089e-16 3.13127e-16)
(0.235566 -8.85348e-16 6.40412e-16)
(0.235566 1.25079e-16 3.29881e-16)
(0.252402 -8.99888e-16 6.70944e-16)
(0.252402 1.28577e-16 3.46088e-16)
(0.269879 -9.14857e-16 7.01384e-16)
(0.269879 1.30675e-16 3.97506e-16)
(0.287972 -9.29293e-16 7.31139e-16)
(0.287972 1.32843e-16 4.62753e-16)
(0.306642 -9.4244e-16 7.59081e-16)
(0.306642 1.32746e-16 5.28674e-16)
(0.325834 -9.55633e-16 7.84987e-16)
(0.325834 1.31775e-16 5.93792e-16)
(0.345474 -9.65293e-16 8.08734e-16)
(0.345474 1.31275e-16 6.5733e-16)
(0.365473 -9.72845e-16 8.28163e-16)
(0.365473 1.276e-16 7.1793e-16)
(0.385731 -9.81264e-16 8.42833e-16)
(0.385731 1.21558e-16 7.7355e-16)
(0.406137 -9.87548e-16 8.52869e-16)
(0.406137 1.15771e-16 8.23776e-16)
(0.426579 -9.91214e-16 8.57493e-16)
(0.426579 1.05099e-16 8.67108e-16)
(0.446951 -9.91609e-16 8.57625e-16)
(0.446951 9.09946e-17 9.03087e-16)
(0.467152 -9.90069e-16 8.52861e-16)
(0.467152 7.85833e-17 9.33084e-16)
(0.487098 -9.869e-16 8.44581e-16)
(0.487098 6.50437e-17 9.54714e-16)
(0.506717 -9.8067e-16 8.32436e-16)
(0.506717 5.0693e-17 9.68336e-16)
(0.525954 -9.73083e-16 8.17126e-16)
(0.525954 3.61245e-17 9.76343e-16)
(0.544768 -9.65303e-16 7.99619e-16)
(0.544768 2.13236e-17 9.78485e-16)
(0.563135 -9.54378e-16 7.83907e-16)
(0.563135 8.47511e-18 9.74077e-16)
(0.581038 -9.43437e-16 7.63065e-16)
(0.581038 -8.08274e-18 9.64995e-16)
(0.598472 -9.35963e-16 7.43045e-16)
(0.598472 -2.85581e-17 9.46622e-16)
(0.61544 -9.20225e-16 7.2153e-16)
(0.61544 -5.21713e-17 9.27064e-16)
(0.631949 -9.01035e-16 6.96383e-16)
(0.631949 -6.66191e-17 9.06578e-16)
(0.648011 -8.83353e-16 6.71918e-16)
(0.648011 -8.15895e-17 8.78087e-16)
(0.663641 -8.59316e-16 6.47655e-16)
(0.663641 -1.08132e-16 8.4651e-16)
(0.678855 -8.33711e-16 6.24398e-16)
(0.678855 -1.31388e-16 8.15411e-16)
(0.69367 -8.10389e-16 5.96937e-16)
(0.69367 -1.5481e-16 7.90115e-16)
(0.708105 -7.89335e-16 5.76752e-16)
(0.708105 -1.71655e-16 7.64836e-16)
(0.722177 -7.70725e-16 5.49832e-16)
(0.722177 -1.9114e-16 7.427e-16)
(0.735904 -7.42392e-16 5.18968e-16)
(0.735904 -2.11055e-16 7.15241e-16)
(0.749302 -7.00274e-16 5.10041e-16)
(0.749302 -2.18415e-16 6.85794e-16)
(0.762388 -6.59665e-16 4.97256e-16)
(0.762388 -2.35913e-16 6.64325e-16)
(0.775177 -6.26869e-16 4.89225e-16)
(0.775177 -2.56231e-16 6.40822e-16)
(0.787683 -6.05445e-16 4.816e-16)
(0.787683 -2.57519e-16 6.13534e-16)
(0.79992 -5.78469e-16 4.70589e-16)
(0.79992 -2.66987e-16 5.83655e-16)
(0.811901 -5.43006e-16 4.734e-16)
(0.811901 -2.82198e-16 5.55825e-16)
(0.823638 -5.20425e-16 4.5579e-16)
(0.823638 -2.71199e-16 5.46524e-16)
(0.835142 -5.00618e-16 4.52473e-16)
(0.835142 -2.70491e-16 5.21411e-16)
(0.846423 -4.7848e-16 4.51966e-16)
(0.846423 -2.67046e-16 4.86489e-16)
(0.857491 -4.58293e-16 4.37269e-16)
(0.857491 -2.5632e-16 4.62141e-16)
(0.868354 -4.37912e-16 4.15288e-16)
(0.868354 -2.44401e-16 4.47171e-16)
(0.87902 -4.1717e-16 4.18908e-16)
(0.87902 -2.41206e-16 4.11887e-16)
(0.889496 -4.0376e-16 3.90988e-16)
(0.889496 -2.31276e-16 3.87345e-16)
(0.89979 -3.86907e-16 3.86112e-16)
(0.89979 -2.40856e-16 3.64123e-16)
(0.909907 -3.6016e-16 3.76128e-16)
(0.909907 -2.51437e-16 3.62633e-16)
(0.919853 -3.32966e-16 4.08072e-16)
(0.919853 -2.51395e-16 3.68282e-16)
(0.929632 -3.00687e-16 3.7683e-16)
(0.929632 -2.69306e-16 3.75482e-16)
(0.939249 -2.93191e-16 3.54359e-16)
(0.939249 -2.52532e-16 3.82718e-16)
(0.948708 -3.02028e-16 3.80476e-16)
(0.948708 -2.67719e-16 3.86571e-16)
(0.958012 -2.79679e-16 4.10598e-16)
(0.958012 -2.81902e-16 3.90684e-16)
(0.967164 -2.78898e-16 4.17073e-16)
(0.967164 -2.81188e-16 3.93489e-16)
(0.976166 -2.64466e-16 4.37028e-16)
(0.976166 -3.04962e-16 4.25761e-16)
(0.98502 -2.8366e-16 4.18776e-16)
(0.98502 -3.36144e-16 4.23246e-16)
(0.993727 -3.03113e-16 4.90696e-16)
(0.993727 -3.25203e-16 4.06842e-16)
(1.00229 -2.94133e-16 4.45707e-16)
(1.00229 -2.96665e-16 3.92916e-16)
(1.0107 -3.01773e-16 4.89487e-16)
(1.0107 -3.34213e-16 4.3014e-16)
(1.01897 -3.03151e-16 4.2004e-16)
(1.01897 -3.34613e-16 4.36454e-16)
(1.02709 -2.88644e-16 3.73786e-16)
(1.02709 -2.75847e-16 4.54961e-16)
(1.03506 -3.00982e-16 3.67549e-16)
(1.03506 -2.96834e-16 5.2103e-16)
(1.04288 -2.9368e-16 3.74786e-16)
(1.04288 -2.63636e-16 4.51058e-16)
(1.05054 -2.70452e-16 3.8933e-16)
(1.05054 -1.60209e-16 4.57057e-16)
(1.05804 -2.41866e-16 4.58677e-16)
(1.05804 -1.59853e-16 4.72495e-16)
(1.06538 -1.86639e-16 4.99545e-16)
(1.06538 -1.63357e-16 5.23505e-16)
(1.07254 -1.68089e-16 5.21851e-16)
(1.07254 -1.39499e-16 6.35126e-16)
(1.07953 -1.75374e-16 5.18494e-16)
(1.07953 -1.89229e-16 4.50702e-16)
(1.08632 -1.68524e-16 5.15507e-16)
(1.08632 -2.20805e-16 4.89998e-16)
(1.09291 -1.68146e-16 4.93879e-16)
(1.09291 -2.03698e-16 4.79773e-16)
(1.09929 -1.80969e-16 5.16309e-16)
(1.09929 -1.87674e-16 5.32476e-16)
(1.10542 -1.51664e-16 5.87009e-16)
(1.10542 -1.72937e-16 5.62719e-16)
(1.1113 -1.5131e-16 6.39445e-16)
(1.1113 -1.85963e-16 6.06121e-16)
(1.1169 -1.88535e-16 7.86715e-16)
(1.1169 -2.20395e-16 6.96892e-16)
(1.12218 -1.26642e-16 8.12182e-16)
(1.12218 -1.52695e-16 7.89536e-16)
(1.1271 -9.06285e-17 7.27582e-16)
(1.1271 -9.90575e-17 7.73669e-16)
(1.13161 -1.10192e-16 6.80175e-16)
(1.13161 -8.65901e-17 7.12512e-16)
(1.13564 -1.0493e-16 8.10793e-16)
(1.13564 -9.30704e-17 8.38282e-16)
(1.13911 -1.99451e-16 5.40967e-16)
(1.13911 -1.96746e-16 5.5516e-16)
(1.14193 -2.25413e-16 5.85866e-16)
(1.14193 -2.2692e-16 5.43406e-16)
(1.14395 -1.86726e-16 5.71286e-16)
(1.14395 -1.67819e-16 6.14174e-16)
(1.14504 -1.39011e-16 5.8123e-16)
(1.14504 -1.14336e-16 5.6616e-16)
(0.00306853 -3.32235e-19 -3.54341e-18)
(0.00306853 -7.16068e-20 -2.64363e-21)
(0.00934882 2.10574e-18 -1.96114e-17)
(0.00934882 4.91796e-19 -2.56488e-20)
(0.015925 4.05013e-18 -2.14197e-17)
(0.015925 9.17328e-19 -4.7559e-20)
(0.0228108 6.6845e-18 -2.33222e-17)
(0.0228108 1.54562e-18 -7.49875e-20)
(0.0300207 9.50368e-18 -2.53154e-17)
(0.0300207 2.27515e-18 -1.09521e-19)
(0.0375697 1.24701e-17 -2.73949e-17)
(0.0375697 3.12729e-18 -1.53117e-19)
(0.0454735 1.55822e-17 -2.95592e-17)
(0.0454735 4.13891e-18 -2.16156e-19)
(0.0537487 1.89165e-17 -3.18004e-17)
(0.0537487 5.26186e-18 -5.03743e-19)
(0.0624123 2.24119e-17 -3.41144e-17)
(0.0624123 6.76361e-18 -8.84132e-19)
(0.0714822 2.60665e-17 -3.65052e-17)
(0.0714822 8.46536e-18 -1.36106e-18)
(0.0809772 2.98944e-17 -3.89564e-17)
(0.0809772 1.00985e-17 -1.94863e-18)
(0.0909167 3.38601e-17 -4.14574e-17)
(0.0909167 1.19085e-17 -2.65673e-18)
(0.101321 3.83143e-17 -4.39995e-17)
(0.101321 1.409e-17 -3.48283e-18)
(0.11221 4.31503e-17 -4.65401e-17)
(0.11221 1.6394e-17 -4.45361e-18)
(0.123607 4.77558e-17 -4.9057e-17)
(0.123607 1.86439e-17 -5.64432e-18)
(0.135532 5.23273e-17 -5.15752e-17)
(0.135532 2.13244e-17 -7.00008e-18)
(0.148009 5.70123e-17 -5.40521e-17)
(0.148009 2.47608e-17 -8.53173e-18)
(0.161058 6.1465e-17 -5.64697e-17)
(0.161058 2.8325e-17 -1.03229e-17)
(0.174702 6.68256e-17 -5.88255e-17)
(0.174702 3.16264e-17 -1.2273e-17)
(0.188959 7.22248e-17 -6.0988e-17)
(0.188959 3.61525e-17 -1.44716e-17)
(0.203848 7.66942e-17 -6.30508e-17)
(0.203848 4.14724e-17 -1.69304e-17)
(0.219381 8.14859e-17 -6.49892e-17)
(0.219381 4.68952e-17 -1.9517e-17)
(0.235566 8.69421e-17 -6.67012e-17)
(0.235566 5.27682e-17 -2.22593e-17)
(0.252402 9.31383e-17 -6.80907e-17)
(0.252402 5.89884e-17 -2.54141e-17)
(0.269879 9.9364e-17 -1.05412e-16)
(0.269879 6.52405e-17 -2.87389e-17)
(0.287972 1.05848e-16 -1.57507e-16)
(0.287972 7.10892e-17 -3.18896e-17)
(0.306642 1.11936e-16 -2.11723e-16)
(0.306642 7.88087e-17 -3.51947e-17)
(0.325834 1.16486e-16 -2.67072e-16)
(0.325834 8.97507e-17 -3.84549e-17)
(0.345474 1.20209e-16 -3.23038e-16)
(0.345474 1.00532e-16 -4.20048e-17)
(0.365473 1.26835e-16 -3.78905e-16)
(0.365473 1.08234e-16 -4.47939e-17)
(0.385731 1.34555e-16 -4.32586e-16)
(0.385731 1.15222e-16 -4.74081e-17)
(0.406137 1.40378e-16 -4.8366e-16)
(0.406137 1.22611e-16 -4.99887e-17)
(0.426579 1.4669e-16 -5.30831e-16)
(0.426579 1.2788e-16 -5.18495e-17)
(0.446951 1.52345e-16 -5.73418e-16)
(0.446951 1.32228e-16 -5.32197e-17)
(0.467152 1.54544e-16 -6.11831e-16)
(0.467152 1.40829e-16 -5.52812e-17)
(0.487098 1.53528e-16 -6.45318e-16)
(0.487098 1.52164e-16 -5.82228e-17)
(0.506717 1.54461e-16 -6.73948e-16)
(0.506717 1.63649e-16 -5.95099e-17)
(0.525954 1.56968e-16 -6.99072e-16)
(0.525954 1.7383e-16 -6.03837e-17)
(0.544768 1.62035e-16 -7.21036e-16)
(0.544768 1.83154e-16 -6.33236e-17)
(0.563135 1.68544e-16 -7.36266e-16)
(0.563135 1.92084e-16 -6.3969e-17)
(0.581038 1.72158e-16 -7.48874e-16)
(0.581038 1.99351e-16 -6.35758e-17)
(0.598472 1.75022e-16 -7.53635e-16)
(0.598472 2.03926e-16 -6.48133e-17)
(0.61544 1.72866e-16 -7.56946e-16)
(0.61544 2.04067e-16 -6.38161e-17)
(0.631949 1.68517e-16 -7.5788e-16)
(0.631949 2.11315e-16 -6.24383e-17)
(0.648011 1.67504e-16 -7.55278e-16)
(0.648011 2.13184e-16 -6.27306e-17)
(0.663641 1.68281e-16 -7.48351e-16)
(0.663641 2.17122e-16 -6.77888e-17)
(0.678855 1.66047e-16 -7.41664e-16)
(0.678855 2.16344e-16 -7.18645e-17)
(0.69367 1.63397e-16 -7.3452e-16)
(0.69367 2.11706e-16 -7.85727e-17)
(0.708105 1.61325e-16 -7.25134e-16)
(0.708105 2.21347e-16 -8.62535e-17)
(0.722177 1.61345e-16 -7.18149e-16)
(0.722177 2.24483e-16 -9.19484e-17)
(0.735904 1.67607e-16 -7.0581e-16)
(0.735904 2.23343e-16 -9.51197e-17)
(0.749302 1.68846e-16 -6.87702e-16)
(0.749302 2.13462e-16 -1.01123e-16)
(0.762388 1.6492e-16 -6.75751e-16)
(0.762388 2.10539e-16 -1.045e-16)
(0.775177 1.6648e-16 -6.61965e-16)
(0.775177 2.02874e-16 -1.09299e-16)
(0.787683 1.67675e-16 -6.42616e-16)
(0.787683 1.8793e-16 -1.229e-16)
(0.79992 1.73635e-16 -6.29819e-16)
(0.79992 1.89765e-16 -1.46209e-16)
(0.811901 1.78295e-16 -6.05138e-16)
(0.811901 1.81823e-16 -1.77265e-16)
(0.823638 1.83345e-16 -5.95034e-16)
(0.823638 1.81356e-16 -1.91505e-16)
(0.835142 1.91422e-16 -5.80297e-16)
(0.835142 1.76399e-16 -2.04118e-16)
(0.846423 1.78861e-16 -5.49607e-16)
(0.846423 1.76768e-16 -2.24948e-16)
(0.857491 1.64632e-16 -5.26796e-16)
(0.857491 1.87243e-16 -2.46574e-16)
(0.868354 1.47782e-16 -5.13574e-16)
(0.868354 1.70137e-16 -2.54257e-16)
(0.87902 1.30183e-16 -4.90655e-16)
(0.87902 1.62207e-16 -2.63395e-16)
(0.889496 1.09835e-16 -4.83116e-16)
(0.889496 1.45451e-16 -2.83215e-16)
(0.89979 9.4764e-17 -4.5428e-16)
(0.89979 1.29201e-16 -3.40369e-16)
(0.909907 9.75445e-17 -4.57396e-16)
(0.909907 1.18101e-16 -3.67122e-16)
(0.919853 1.18455e-16 -4.13934e-16)
(0.919853 9.33977e-17 -3.58966e-16)
(0.929632 1.29854e-16 -3.8299e-16)
(0.929632 9.2824e-17 -3.59428e-16)
(0.939249 9.89919e-17 -3.546e-16)
(0.939249 7.70141e-17 -3.7001e-16)
(0.948708 5.72987e-17 -3.57581e-16)
(0.948708 5.69617e-17 -3.61269e-16)
(0.958012 5.51119e-17 -3.49299e-16)
(0.958012 6.87096e-17 -3.53209e-16)
(0.967164 5.22471e-17 -3.19214e-16)
(0.967164 5.49354e-17 -3.59366e-16)
(0.976166 4.59518e-17 -3.2627e-16)
(0.976166 4.14226e-17 -3.71758e-16)
(0.98502 3.02146e-17 -3.89054e-16)
(0.98502 4.36535e-17 -3.7241e-16)
(0.993727 1.88136e-17 -3.70479e-16)
(0.993727 3.88683e-17 -3.36618e-16)
(1.00229 2.34444e-17 -3.61991e-16)
(1.00229 2.58234e-17 -3.38884e-16)
(1.0107 2.75103e-17 -3.56468e-16)
(1.0107 1.95719e-18 -3.38851e-16)
(1.01897 4.25372e-17 -3.82097e-16)
(1.01897 1.0748e-17 -3.68791e-16)
(1.02709 7.36062e-18 -4.82828e-16)
(1.02709 2.79282e-18 -3.5892e-16)
(1.03506 -3.48562e-17 -4.8288e-16)
(1.03506 -6.77013e-17 -4.13216e-16)
(1.04288 -6.64679e-17 -4.19067e-16)
(1.04288 -2.87475e-17 -4.53723e-16)
(1.05054 -1.0819e-16 -4.21671e-16)
(1.05054 -3.08068e-17 -4.72431e-16)
(1.05804 -1.38728e-16 -4.82429e-16)
(1.05804 -1.03783e-16 -4.97518e-16)
(1.06538 -1.25737e-16 -5.05027e-16)
(1.06538 -1.38053e-16 -4.74286e-16)
(1.07254 -8.36544e-17 -5.31227e-16)
(1.07254 -1.31233e-16 -4.50082e-16)
(1.07953 -9.41541e-17 -4.34914e-16)
(1.07953 -8.15751e-17 -4.89128e-16)
(1.08632 -1.70121e-16 -4.30909e-16)
(1.08632 -1.31133e-16 -4.38883e-16)
(1.09291 -1.50156e-16 -4.98921e-16)
(1.09291 -1.3279e-16 -5.06762e-16)
(1.09929 -1.17684e-16 -5.29147e-16)
(1.09929 -1.20549e-16 -5.53517e-16)
(1.10542 -1.23265e-16 -6.17756e-16)
(1.10542 -1.55057e-16 -5.96769e-16)
(1.1113 -1.12184e-16 -6.32222e-16)
(1.1113 -1.40519e-16 -6.41185e-16)
(1.1169 -1.50189e-16 -7.57087e-16)
(1.1169 -2.01088e-16 -6.11853e-16)
(1.12218 -9.70459e-17 -8.33151e-16)
(1.12218 -1.30896e-16 -8.17113e-16)
(1.1271 -1.10516e-16 -7.0646e-16)
(1.1271 -7.15098e-17 -7.84888e-16)
(1.13161 -1.63901e-16 -6.33104e-16)
(1.13161 -1.19918e-16 -7.52176e-16)
(1.13564 -1.22728e-16 -8.39374e-16)
(1.13564 -1.10968e-16 -7.96359e-16)
(1.13911 -1.60958e-16 -5.72664e-16)
(1.13911 -1.88957e-16 -5.69568e-16)
(1.14193 -2.39687e-16 -5.97534e-16)
(1.14193 -2.19668e-16 -6.20043e-16)
(1.14395 -2.10241e-16 -5.97635e-16)
(1.14395 -1.9674e-16 -5.57964e-16)
(1.14504 -1.16256e-16 -6.74951e-16)
(1.14504 -1.48498e-16 -5.95085e-16)
(1.14504 -8.25768e-17 7.31907e-16)
(1.14504 -8.23963e-17 7.56474e-16)
(1.14395 -7.46218e-17 6.22269e-16)
(1.14395 -5.05801e-17 6.85697e-16)
(1.14193 -1.09674e-16 5.1267e-16)
(1.14193 -8.86515e-17 4.90654e-16)
(1.13911 -9.40165e-17 3.55017e-16)
(1.13911 -1.19163e-16 3.11529e-16)
(1.13564 -1.11899e-16 3.36417e-16)
(1.13564 -1.34626e-16 3.75355e-16)
(1.13161 -1.64916e-16 3.03101e-16)
(1.13161 -1.88425e-16 2.73256e-16)
(1.1271 -1.79696e-16 2.38499e-16)
(1.1271 -2.56707e-16 3.07814e-16)
(1.12218 -1.35589e-16 1.61537e-16)
(1.12218 -1.09229e-16 2.60747e-16)
(1.1169 -1.25323e-16 2.08284e-16)
(1.1169 -1.79596e-16 2.24216e-16)
(1.1113 -1.27049e-16 1.90396e-16)
(1.1113 -9.98476e-17 1.827e-16)
(1.10542 -9.50884e-17 1.65757e-16)
(1.10542 -5.71127e-17 2.09006e-16)
(1.09929 -8.97117e-17 2.20555e-16)
(1.09929 -8.84263e-17 1.57084e-16)
(1.09291 -6.87384e-17 2.33971e-16)
(1.09291 -1.21896e-16 1.77612e-16)
(1.08632 -8.05821e-17 1.699e-16)
(1.08632 -1.40687e-16 2.21788e-16)
(1.07953 -8.68214e-17 1.64204e-16)
(1.07953 -1.94424e-16 1.71765e-16)
(1.07254 -1.21848e-16 1.33891e-16)
(1.07254 -1.4362e-16 1.79141e-16)
(1.06538 -1.25702e-16 1.00078e-16)
(1.06538 -1.35983e-16 1.63856e-16)
(1.05804 -1.31369e-16 5.81317e-17)
(1.05804 -8.84482e-17 1.58832e-16)
(1.05054 -1.69349e-16 1.43226e-16)
(1.05054 -1.03374e-16 1.12176e-16)
(1.04288 -7.35443e-17 1.04297e-16)
(1.04288 -7.62625e-17 7.96729e-17)
(1.03506 -6.2706e-17 1.24141e-16)
(1.03506 -7.41698e-17 1.08201e-16)
(1.02709 -7.47756e-17 8.11872e-17)
(1.02709 -9.2027e-17 1.53021e-16)
(1.01897 -8.0752e-17 6.53866e-17)
(1.01897 -8.27167e-17 1.56077e-16)
(1.0107 -8.55291e-17 5.76508e-17)
(1.0107 -8.48358e-17 1.24466e-16)
(1.00229 -5.98823e-17 1.2079e-16)
(1.00229 -3.82596e-17 7.40069e-17)
(0.993727 -5.63381e-17 7.72819e-17)
(0.993727 -3.41002e-17 8.08098e-17)
(0.98502 -6.34171e-17 4.72014e-17)
(0.98502 -3.40005e-17 6.38362e-17)
(0.976166 -6.04549e-17 3.20654e-17)
(0.976166 -4.00498e-17 6.21592e-17)
(0.967164 -4.29378e-17 5.09698e-17)
(0.967164 -2.74254e-17 3.53883e-17)
(0.958012 -3.28513e-17 6.4552e-17)
(0.958012 -2.99133e-17 5.79971e-17)
(0.948708 -6.9199e-17 3.53228e-17)
(0.948708 -3.96564e-17 4.60444e-17)
(0.939249 -5.98644e-17 6.09535e-17)
(0.939249 -6.51292e-17 2.55515e-17)
(0.929632 -4.05323e-17 4.47111e-17)
(0.929632 -4.18703e-17 2.48352e-17)
(0.919853 -4.92059e-17 3.14424e-17)
(0.919853 -3.63923e-17 2.68796e-17)
(0.909907 -5.04713e-17 3.58263e-17)
(0.909907 -3.79256e-17 1.48724e-17)
(0.89979 -3.22697e-17 2.19579e-17)
(0.89979 -2.6571e-17 2.21361e-17)
(0.889496 -3.91097e-17 1.64073e-17)
(0.889496 -4.07213e-17 1.91919e-17)
(0.87902 -3.80529e-17 1.41473e-17)
(0.87902 -3.32165e-17 1.50688e-17)
(0.868354 -3.1777e-17 1.24277e-17)
(0.868354 -2.54108e-17 1.54355e-17)
(0.857491 -4.10331e-17 1.41314e-17)
(0.857491 -2.96896e-17 1.81088e-17)
(0.846423 -4.1182e-17 8.85754e-18)
(0.846423 -4.25188e-17 9.81409e-18)
(0.835142 -3.79437e-17 1.02419e-17)
(0.835142 -1.06924e-17 1.40878e-17)
(0.823638 -2.94307e-17 1.38669e-17)
(0.823638 -2.14665e-17 1.60372e-17)
(0.811901 -2.5799e-17 1.06475e-17)
(0.811901 -2.86952e-17 2.13015e-17)
(0.79992 -2.35351e-17 1.4219e-17)
(0.79992 -3.25054e-17 1.65515e-17)
(0.787683 -1.81041e-17 1.46102e-17)
(0.787683 -1.99037e-17 1.2756e-17)
(0.775177 -2.08101e-17 1.57257e-17)
(0.775177 -1.82579e-17 1.45389e-17)
(0.762388 -2.05005e-17 2.25538e-17)
(0.762388 -2.11086e-17 1.67072e-17)
(0.749302 -8.33167e-18 2.26705e-17)
(0.749302 -2.52546e-17 1.60125e-17)
(0.735904 3.90596e-18 1.63903e-17)
(0.735904 -2.49735e-17 1.48442e-17)
(0.722177 1.32651e-17 1.46024e-17)
(0.722177 -1.73934e-17 1.62205e-17)
(0.708105 7.23358e-18 1.47462e-17)
(0.708105 -5.40131e-18 1.50927e-17)
(0.69367 4.42229e-18 1.66007e-17)
(0.69367 -2.55303e-18 1.69527e-17)
(0.678855 -1.60317e-18 1.72226e-17)
(0.678855 2.00668e-19 1.33109e-17)
(0.663641 -2.37387e-18 1.84092e-17)
(0.663641 4.77087e-19 1.26771e-17)
(0.648011 1.54629e-18 1.9594e-17)
(0.648011 1.3503e-19 1.4862e-17)
(0.631949 -1.15297e-17 2.0516e-17)
(0.631949 -2.18929e-18 1.23516e-17)
(0.61544 -1.10129e-17 1.87716e-17)
(0.61544 2.07556e-18 1.17977e-17)
(0.598472 -2.21394e-18 1.90863e-17)
(0.598472 -6.18719e-19 1.22391e-17)
(0.581038 -1.53992e-17 1.93287e-17)
(0.581038 -1.82549e-19 1.16096e-17)
(0.563135 -1.12941e-17 1.87884e-17)
(0.563135 1.79288e-18 1.22684e-17)
(0.544768 -7.50281e-18 1.92746e-17)
(0.544768 -1.7267e-18 9.91769e-18)
(0.525954 -4.96729e-18 1.86992e-17)
(0.525954 -2.95283e-18 1.02986e-17)
(0.506717 -5.25729e-18 1.70983e-17)
(0.506717 -2.83818e-18 1.03829e-17)
(0.487098 -9.41868e-18 1.64601e-17)
(0.487098 -3.40149e-18 8.9148e-18)
(0.467152 -9.73372e-18 1.55567e-17)
(0.467152 -2.9016e-18 8.44828e-18)
(0.446951 -8.95798e-18 1.5263e-17)
(0.446951 -2.86816e-18 7.21685e-18)
(0.426579 -9.34501e-18 1.44802e-17)
(0.426579 -1.47858e-18 6.43444e-18)
(0.406137 -4.85439e-18 1.35491e-17)
(0.406137 -2.41842e-18 5.92101e-18)
(0.385731 -3.87178e-18 1.27611e-17)
(0.385731 -1.78871e-18 5.42825e-18)
(0.365473 -1.95163e-18 1.18434e-17)
(0.365473 -4.33008e-18 4.92075e-18)
(0.345474 -3.35626e-19 1.07049e-17)
(0.345474 -3.08564e-18 4.64313e-18)
(0.325834 -6.99429e-19 9.77336e-18)
(0.325834 -3.11902e-18 4.28666e-18)
(0.306642 -3.96768e-19 9.0174e-18)
(0.306642 -4.60993e-18 3.85206e-18)
(0.287972 -4.57689e-19 8.51172e-18)
(0.287972 -3.04338e-18 3.49002e-18)
(0.269879 -3.11139e-19 7.91337e-18)
(0.269879 -3.33862e-18 3.4249e-18)
(0.252402 -1.83461e-18 7.1252e-18)
(0.252402 -2.04492e-18 3.32994e-18)
(0.235566 -1.72739e-18 6.45955e-18)
(0.235566 -1.05494e-18 2.93219e-18)
(0.219381 -8.84306e-19 5.90363e-18)
(0.219381 -1.50179e-18 2.77548e-18)
(0.203848 -1.1755e-18 5.40481e-18)
(0.203848 -9.12147e-19 2.62205e-18)
(0.188959 -4.25883e-19 5.019e-18)
(0.188959 -8.75202e-19 2.44718e-18)
(0.174702 -6.80341e-20 4.58905e-18)
(0.174702 -1.65392e-18 2.34664e-18)
(0.161058 -6.06349e-19 4.18139e-18)
(0.161058 -1.45453e-18 2.2476e-18)
(0.148009 -1.71629e-19 3.85325e-18)
(0.148009 -7.6962e-19 2.09721e-18)
(0.135532 1.88011e-20 3.51858e-18)
(0.135532 -6.44678e-19 1.91295e-18)
(0.123607 9.22823e-20 3.21695e-18)
(0.123607 -5.84057e-19 1.76058e-18)
(0.11221 -5.93522e-20 2.93611e-18)
(0.11221 -5.74542e-19 1.65052e-18)
(0.101321 1.59654e-19 2.67341e-18)
(0.101321 -6.33298e-19 1.50855e-18)
(0.0909167 1.91644e-19 2.43625e-18)
(0.0909167 -5.7405e-19 1.38892e-18)
(0.0809772 1.65738e-19 2.22132e-18)
(0.0809772 -6.74557e-19 1.29367e-18)
(0.0714822 -7.93241e-20 2.01898e-18)
(0.0714822 -4.23147e-19 1.20556e-18)
(0.0624123 -8.37188e-20 1.85348e-18)
(0.0624123 -1.27351e-19 1.11082e-18)
(0.0537487 1.14324e-20 1.69125e-18)
(0.0537487 -1.88536e-19 1.021e-18)
(0.0454735 6.96364e-20 1.54266e-18)
(0.0454735 -1.88105e-19 9.36771e-19)
(0.0375697 8.30336e-21 1.40402e-18)
(0.0375697 -7.08473e-20 8.5707e-19)
(0.0300207 -4.25151e-21 1.28132e-18)
(0.0300207 -2.3144e-20 7.79371e-19)
(0.0228108 -1.50802e-20 1.16853e-18)
(0.0228108 -3.3368e-20 7.07271e-19)
(0.015925 1.19297e-20 1.06669e-18)
(0.015925 -3.63547e-20 6.45059e-19)
(0.00934882 1.64294e-20 9.72182e-19)
(0.00934882 -1.54204e-20 5.88838e-19)
(0.00306853 -3.59515e-21 7.60632e-20)
(0.00306853 -5.87097e-21 7.51297e-20)
(1.14504 -8.40191e-17 -7.13649e-16)
(1.14504 -1.17267e-16 -7.16952e-16)
(1.14395 -1.13026e-16 -5.13553e-16)
(1.14395 -7.17894e-17 -5.80775e-16)
(1.14193 -1.43334e-16 -5.23485e-16)
(1.14193 -9.68585e-17 -5.67189e-16)
(1.13911 -3.5919e-17 -4.81997e-16)
(1.13911 -7.70108e-17 -3.84956e-16)
(1.13564 -1.25437e-16 -1.79064e-16)
(1.13564 -1.07065e-16 -3.43893e-16)
(1.13161 -1.70892e-16 -2.0007e-16)
(1.13161 -1.2718e-16 -2.90477e-16)
(1.1271 -1.45992e-16 -2.05595e-16)
(1.1271 -1.41951e-16 -2.47958e-16)
(1.12218 -1.39535e-16 -2.48328e-16)
(1.12218 -1.00883e-16 -2.58811e-16)
(1.1169 -2.14178e-16 -2.74231e-16)
(1.1169 -1.74272e-16 -1.68907e-16)
(1.1113 -1.00627e-16 -2.07473e-16)
(1.1113 -1.54058e-16 -1.47893e-16)
(1.10542 -8.83197e-17 -2.18343e-16)
(1.10542 -6.8066e-17 -2.22623e-16)
(1.09929 -1.83158e-16 -2.22288e-16)
(1.09929 -6.16073e-17 -2.01568e-16)
(1.09291 -1.11e-16 -1.9891e-16)
(1.09291 -1.05994e-16 -2.35745e-16)
(1.08632 -9.84691e-17 -1.77525e-16)
(1.08632 -1.35103e-16 -1.59572e-16)
(1.07953 -9.57454e-17 -1.20514e-16)
(1.07953 -1.00638e-16 -1.194e-16)
(1.07254 -1.22367e-16 -1.07382e-16)
(1.07254 -1.15326e-16 -1.31854e-16)
(1.06538 -1.19889e-16 -1.30816e-16)
(1.06538 -1.22853e-16 -9.06106e-17)
(1.05804 -9.59066e-17 -1.00903e-16)
(1.05804 -1.59186e-16 -8.7554e-17)
(1.05054 -1.04359e-16 -1.41028e-16)
(1.05054 -1.50906e-16 -7.93612e-17)
(1.04288 -1.7589e-16 -6.66971e-17)
(1.04288 -1.30872e-16 -8.97576e-17)
(1.03506 -1.256e-16 -9.37419e-17)
(1.03506 -1.13939e-16 -6.34993e-17)
(1.02709 -1.07535e-16 -1.35386e-16)
(1.02709 -1.04612e-16 -4.09896e-17)
(1.01897 -1.14543e-16 -1.12963e-16)
(1.01897 -9.53531e-17 -3.90766e-17)
(1.0107 -1.25536e-16 -1.11864e-16)
(1.0107 -9.78892e-17 -3.52124e-17)
(1.00229 -1.31454e-16 -9.63283e-17)
(1.00229 -8.18983e-17 -8.66185e-17)
(0.993727 -2.74988e-17 -1.05652e-16)
(0.993727 -7.71639e-17 -5.78082e-17)
(0.98502 -4.32879e-17 -7.87882e-17)
(0.98502 -5.8602e-17 -6.44114e-17)
(0.976166 -5.83169e-17 -8.57695e-17)
(0.976166 -7.34808e-17 -4.96559e-17)
(0.967164 -9.16942e-17 -5.8636e-17)
(0.967164 -4.9455e-17 -3.87223e-17)
(0.958012 -4.389e-17 -5.24111e-17)
(0.958012 -4.32028e-17 -2.673e-17)
(0.948708 -2.68381e-17 -8.57819e-17)
(0.948708 -5.21466e-17 -4.53249e-17)
(0.939249 -2.31347e-17 -6.32088e-17)
(0.939249 -3.66967e-17 -7.2765e-17)
(0.929632 -1.91959e-17 -5.42749e-17)
(0.929632 -1.8118e-17 -6.38225e-17)
(0.919853 -2.28728e-17 -4.28731e-17)
(0.919853 -5.92344e-17 -5.71915e-17)
(0.909907 -2.83025e-17 -2.53067e-17)
(0.909907 -1.82487e-17 -4.42124e-17)
(0.89979 -1.70715e-17 -3.18271e-17)
(0.89979 -2.2364e-17 -2.54278e-17)
(0.889496 -2.448e-17 -2.77987e-17)
(0.889496 -3.73783e-17 -3.35857e-17)
(0.87902 -3.25009e-17 -2.28173e-17)
(0.87902 -6.1533e-17 -3.84553e-17)
(0.868354 -2.75809e-17 -1.82874e-17)
(0.868354 -4.37353e-17 -3.42829e-17)
(0.857491 -2.928e-17 -1.98465e-17)
(0.857491 -4.88217e-17 -2.30678e-17)
(0.846423 -2.84061e-17 -1.93785e-17)
(0.846423 -4.90857e-17 -3.49288e-17)
(0.835142 -4.32215e-17 -1.99837e-17)
(0.835142 -4.54835e-17 -3.99656e-17)
(0.823638 -3.93219e-17 -2.44475e-17)
(0.823638 -3.96023e-17 -3.73183e-17)
(0.811901 -3.01378e-17 -2.36176e-17)
(0.811901 -2.8374e-17 -3.23438e-17)
(0.79992 -2.39647e-17 -2.42983e-17)
(0.79992 -3.11971e-17 -3.37578e-17)
(0.787683 -2.48393e-17 -1.76734e-17)
(0.787683 -4.14886e-17 -2.97179e-17)
(0.775177 -3.19573e-17 -1.79731e-17)
(0.775177 -3.06102e-17 -3.08192e-17)
(0.762388 -3.38682e-17 -1.87352e-17)
(0.762388 -3.15986e-17 -3.31043e-17)
(0.749302 -2.37143e-17 -1.62731e-17)
(0.749302 -2.13966e-17 -2.70767e-17)
(0.735904 -1.28778e-17 -1.72854e-17)
(0.735904 -4.6533e-18 -2.34773e-17)
(0.722177 -1.31674e-17 -2.37355e-17)
(0.722177 -6.83041e-18 -2.06243e-17)
(0.708105 -1.72192e-17 -2.8922e-17)
(0.708105 -1.05048e-17 -2.0912e-17)
(0.69367 -1.62371e-17 -3.30862e-17)
(0.69367 -1.39307e-17 -1.98125e-17)
(0.678855 -1.16692e-17 -3.17688e-17)
(0.678855 -1.93495e-17 -2.1324e-17)
(0.663641 -1.37449e-17 -3.26841e-17)
(0.663641 -1.74104e-17 -2.27248e-17)
(0.648011 -1.46485e-17 -3.50988e-17)
(0.648011 -1.8365e-17 -2.25731e-17)
(0.631949 -9.98729e-18 -3.22153e-17)
(0.631949 -1.89207e-17 -2.40284e-17)
(0.61544 -1.06042e-17 -3.14987e-17)
(0.61544 -1.8987e-17 -2.50137e-17)
(0.598472 -1.22971e-17 -3.15857e-17)
(0.598472 -1.79452e-17 -2.46715e-17)
(0.581038 -9.98956e-18 -3.03569e-17)
(0.581038 -1.89126e-17 -2.52346e-17)
(0.563135 -7.42534e-18 -2.84098e-17)
(0.563135 -9.23746e-18 -2.6962e-17)
(0.544768 -3.65863e-18 -2.57751e-17)
(0.544768 -5.79712e-18 -2.79186e-17)
(0.525954 -2.3261e-18 -2.53613e-17)
(0.525954 -3.90808e-18 -2.55973e-17)
(0.506717 -7.32377e-19 -2.52368e-17)
(0.506717 -6.67287e-18 -2.41031e-17)
(0.487098 3.79685e-21 -2.37596e-17)
(0.487098 -2.499e-19 -2.30674e-17)
(0.467152 -4.22582e-18 -2.21124e-17)
(0.467152 -7.38972e-18 -2.3503e-17)
(0.446951 -6.79483e-18 -2.03429e-17)
(0.446951 -9.93e-19 -2.2993e-17)
(0.426579 -5.55424e-18 -1.91851e-17)
(0.426579 5.40348e-19 -2.12318e-17)
(0.406137 -4.93269e-18 -1.80066e-17)
(0.406137 -2.76728e-18 -1.97184e-17)
(0.385731 -5.57509e-18 -1.71076e-17)
(0.385731 -2.64051e-18 -1.92568e-17)
(0.365473 -5.13552e-18 -1.64485e-17)
(0.365473 -3.58669e-18 -1.86995e-17)
(0.345474 -3.61483e-18 -1.57581e-17)
(0.345474 -4.15941e-18 -1.7888e-17)
(0.325834 -3.4246e-18 -1.46719e-17)
(0.325834 3.91924e-19 -1.6825e-17)
(0.306642 -4.18099e-18 -1.34991e-17)
(0.306642 2.69214e-19 -1.57783e-17)
(0.287972 -4.51826e-18 -1.25038e-17)
(0.287972 -5.52218e-20 -1.44676e-17)
(0.269879 -4.01585e-18 -1.16504e-17)
(0.269879 -1.92804e-19 -1.31216e-17)
(0.252402 -3.16679e-18 -1.07796e-17)
(0.252402 3.64117e-19 -1.20444e-17)
(0.235566 -2.69815e-18 -9.72987e-18)
(0.235566 2.44567e-19 -1.12384e-17)
(0.219381 -2.66842e-18 -8.99707e-18)
(0.219381 -8.14577e-19 -1.0301e-17)
(0.203848 -2.10385e-18 -8.30966e-18)
(0.203848 -8.64923e-19 -9.44453e-18)
(0.188959 -1.79054e-18 -7.64739e-18)
(0.188959 -1.22057e-18 -8.70437e-18)
(0.174702 -1.62172e-18 -7.0833e-18)
(0.174702 -1.15532e-18 -7.96391e-18)
(0.161058 -1.38079e-18 -6.53672e-18)
(0.161058 -3.49587e-19 -7.22528e-18)
(0.148009 -1.42993e-18 -5.97386e-18)
(0.148009 -4.48459e-19 -6.50477e-18)
(0.135532 -1.42174e-18 -5.4598e-18)
(0.135532 2.32627e-19 -5.90341e-18)
(0.123607 -1.17794e-18 -5.01976e-18)
(0.123607 1.0962e-19 -5.39013e-18)
(0.11221 -7.82639e-19 -4.62691e-18)
(0.11221 2.97835e-19 -4.89133e-18)
(0.101321 -4.12903e-19 -4.23169e-18)
(0.101321 -1.85854e-19 -4.44758e-18)
(0.0909167 -2.8255e-19 -3.86491e-18)
(0.0909167 -8.21497e-20 -4.04675e-18)
(0.0809772 -2.39306e-19 -3.54443e-18)
(0.0809772 -1.1455e-19 -3.67078e-18)
(0.0714822 -1.1374e-19 -3.2551e-18)
(0.0714822 -5.68346e-20 -3.34087e-18)
(0.0624123 -2.40054e-20 -2.9788e-18)
(0.0624123 -2.61773e-20 -3.03499e-18)
(0.0537487 2.51227e-20 -2.72383e-18)
(0.0537487 8.14351e-20 -2.75612e-18)
(0.0454735 -2.1538e-20 -2.48867e-18)
(0.0454735 9.5235e-20 -2.50626e-18)
(0.0375697 -3.40684e-20 -2.27252e-18)
(0.0375697 1.36526e-19 -2.28011e-18)
(0.0300207 -1.28833e-20 -2.07141e-18)
(0.0300207 1.19769e-19 -2.07405e-18)
(0.0228108 -8.71922e-21 -1.88624e-18)
(0.0228108 7.19977e-20 -1.88861e-18)
(0.015925 4.59646e-21 -1.71963e-18)
(0.015925 4.1172e-20 -1.71916e-18)
(0.00934882 3.73799e-21 -1.56816e-18)
(0.00934882 1.40262e-20 -1.5665e-18)
(0.00306853 -2.88836e-22 -2.68398e-19)
(0.00306853 -1.65209e-21 -3.73606e-19)
)
;

boundaryField
{
    walls
    {
        type            fixedValue;
        value           uniform (0 0 0);
    }
    inlet
    {
        type            cyclic;
    }
    outlet
    {
        type            cyclic;
    }
    sides
    {
        type            empty;
    }
}


// ************************************************************************* //
