/*--------------------------------*- C++ -*----------------------------------*\
| =========                 |                                                 |
| \\      /  F ield         | OpenFOAM: The Open Source CFD Toolbox           |
|  \\    /   O peration     | Version:  2106                                  |
|   \\  /    A nd           | Website:  www.openfoam.com                      |
|    \\/     M anipulation  |                                                 |
\*---------------------------------------------------------------------------*/
FoamFile
{
    version     2.0;
    format      ascii;
    arch        "LSB;label=32;scalar=64";
    class       volVectorField;
    location    "10020";
    object      U;
}
// * * * * * * * * * * * * * * * * * * * * * * * * * * * * * * * * * * * * * //

dimensions      [0 1 -1 0 0 0 0];

internalField   nonuniform List<vector> 
2000
(
(0.000976788 -7.24727e-16 -9.40167e-18)
(0.000976788 -4.9691e-20 -1.81715e-22)
(0.00294824 -2.73697e-15 -3.09682e-17)
(0.00294824 -2.51396e-19 -1.14863e-21)
(0.00495612 -2.61808e-15 -3.68936e-17)
(0.00495612 -4.58317e-19 -3.49093e-21)
(0.0070011 -2.4442e-15 -3.66787e-17)
(0.0070011 -7.12066e-19 -6.15494e-21)
(0.00908387 -2.43294e-15 -3.71247e-17)
(0.00908387 -9.65251e-19 -9.02732e-21)
(0.0112051 -2.44429e-15 -3.84054e-17)
(0.0112051 -1.23688e-18 -1.20708e-20)
(0.0133656 -2.44778e-15 -3.98513e-17)
(0.0133656 -1.51434e-18 -1.52181e-20)
(0.0155659 -2.44755e-15 -4.13253e-17)
(0.0155659 -1.78282e-18 -1.86241e-20)
(0.0178069 -2.44684e-15 -4.2862e-17)
(0.0178069 -2.05866e-18 -2.21722e-20)
(0.0200893 -2.44635e-15 -4.44692e-17)
(0.0200893 -2.35114e-18 -2.60738e-20)
(0.0224139 -2.44585e-15 -4.61386e-17)
(0.0224139 -2.66046e-18 -3.03534e-20)
(0.0247814 -2.4453e-15 -4.78671e-17)
(0.0247814 -2.97788e-18 -3.51556e-20)
(0.0271926 -2.44476e-15 -4.9655e-17)
(0.0271926 -3.29546e-18 -3.99721e-20)
(0.0296483 -2.44421e-15 -5.18373e-17)
(0.0296483 -3.62375e-18 -4.52853e-20)
(0.0321493 -2.44365e-15 -5.43472e-17)
(0.0321493 -3.95904e-18 -5.1029e-20)
(0.0346966 -2.44311e-15 -5.69609e-17)
(0.0346966 -4.3198e-18 -5.72743e-20)
(0.0372908 -2.44259e-15 -5.96822e-17)
(0.0372908 -4.69157e-18 -6.39735e-20)
(0.0399329 -2.44206e-15 -6.25155e-17)
(0.0399329 -5.0123e-18 -7.09221e-20)
(0.0426237 -2.44151e-15 -6.5465e-17)
(0.0426237 -5.32997e-18 -7.84247e-20)
(0.0453642 -2.44094e-15 -6.8535e-17)
(0.0453642 -5.66301e-18 -8.62278e-20)
(0.0481552 -2.44031e-15 -7.17305e-17)
(0.0481552 -6.01213e-18 -9.57525e-20)
(0.0509977 -2.43964e-15 -7.50557e-17)
(0.0509977 -6.4336e-18 -1.05745e-19)
(0.0538926 -2.43901e-15 -7.85157e-17)
(0.0538926 -6.9086e-18 -1.1522e-19)
(0.0568408 -2.43835e-15 -8.21159e-17)
(0.0568408 -7.20135e-18 -1.24113e-19)
(0.0598433 -2.43765e-15 -8.58611e-17)
(0.0598433 -7.66792e-18 -1.31443e-19)
(0.0629012 -2.43692e-15 -8.97571e-17)
(0.0629012 -8.12375e-18 -1.40272e-19)
(0.0660153 -2.43617e-15 -9.24334e-17)
(0.0660153 -8.60495e-18 -1.48869e-19)
(0.0691867 -2.43542e-15 -9.41494e-17)
(0.0691867 -9.11307e-18 -1.57017e-19)
(0.0724165 -2.43463e-15 -9.59206e-17)
(0.0724165 -9.53929e-18 -1.62888e-19)
(0.0757057 -2.43382e-15 -9.77459e-17)
(0.0757057 -9.98692e-18 -1.68647e-19)
(0.0790553 -2.43295e-15 -9.96319e-17)
(0.0790553 -1.04106e-17 -1.756e-19)
(0.0824666 -2.43205e-15 -1.01576e-16)
(0.0824666 -1.08153e-17 -1.82729e-19)
(0.0859404 -2.43115e-15 -1.03582e-16)
(0.0859404 -1.13659e-17 -1.919e-19)
(0.089478 -2.43031e-15 -1.0566e-16)
(0.089478 -1.19343e-17 -1.97693e-19)
(0.0930806 -2.42946e-15 -1.07802e-16)
(0.0930806 -1.2415e-17 -2.02355e-19)
(0.0967492 -2.42854e-15 -1.10014e-16)
(0.0967492 -1.28701e-17 -2.06691e-19)
(0.100485 -2.42751e-15 -1.12302e-16)
(0.100485 -1.34318e-17 -2.14259e-19)
(0.104289 -2.42641e-15 -1.14669e-16)
(0.104289 -1.4014e-17 -2.19477e-19)
(0.108163 -2.42529e-15 -1.17116e-16)
(0.108163 -1.4724e-17 -2.23238e-19)
(0.112108 -2.4242e-15 -1.19649e-16)
(0.112108 -1.54263e-17 -2.29711e-19)
(0.116124 -2.42323e-15 -1.22271e-16)
(0.116124 -1.5887e-17 -2.36959e-19)
(0.120214 -2.42229e-15 -1.24983e-16)
(0.120214 -1.63703e-17 -2.38281e-19)
(0.124379 -2.42128e-15 -1.27781e-16)
(0.124379 -1.69459e-17 -2.38144e-19)
(0.128619 -2.42024e-15 -1.30669e-16)
(0.128619 -1.77293e-17 -2.33785e-19)
(0.132936 -2.41903e-15 -1.33659e-16)
(0.132936 -1.82833e-17 -2.29973e-19)
(0.137332 -2.41779e-15 -1.36755e-16)
(0.137332 -1.88118e-17 -2.20301e-19)
(0.141807 -2.41659e-15 -1.39944e-16)
(0.141807 -1.95933e-17 -2.1092e-19)
(0.146364 -2.41529e-15 -1.43244e-16)
(0.146364 -2.02786e-17 -2.26496e-19)
(0.151002 -2.41376e-15 -1.46689e-16)
(0.151002 -2.11018e-17 -2.3677e-19)
(0.155724 -2.41244e-15 -1.50248e-16)
(0.155724 -2.19946e-17 -2.14358e-19)
(0.160531 -2.41125e-15 -1.53915e-16)
(0.160531 -2.28576e-17 -1.93505e-19)
(0.165424 -2.41001e-15 -1.57686e-16)
(0.165424 -2.34773e-17 -1.78536e-19)
(0.170404 -2.40886e-15 -1.6159e-16)
(0.170404 -2.38161e-17 -1.51067e-19)
(0.175472 -2.40735e-15 -1.65577e-16)
(0.175472 -2.44235e-17 -1.21986e-19)
(0.180631 -2.40548e-15 -1.69677e-16)
(0.180631 -2.5373e-17 -1.00205e-19)
(0.18588 -2.40351e-15 -1.73917e-16)
(0.18588 -2.63715e-17 -8.04962e-20)
(0.191221 -2.40166e-15 -1.78281e-16)
(0.191221 -2.74483e-17 -8.33735e-20)
(0.196656 -2.39995e-15 -1.8279e-16)
(0.196656 -2.84701e-17 -6.65501e-20)
(0.202185 -2.39825e-15 -1.87418e-16)
(0.202185 -2.95885e-17 -2.41947e-20)
(0.207808 -2.39618e-15 -1.92165e-16)
(0.207808 -3.09391e-17 3.53412e-20)
(0.213528 -2.39402e-15 -1.96998e-16)
(0.213528 -3.24728e-17 7.91065e-20)
(0.219344 -2.39169e-15 -2.01973e-16)
(0.219344 -3.38907e-17 8.94777e-20)
(0.225258 -2.38942e-15 -2.07096e-16)
(0.225258 -3.49802e-17 1.16512e-19)
(0.23127 -2.38764e-15 -2.12329e-16)
(0.23127 -3.62945e-17 1.77887e-19)
(0.23738 -2.38424e-15 -2.17585e-16)
(0.23738 -3.7712e-17 2.3773e-19)
(0.243588 -2.3836e-15 -2.22946e-16)
(0.243588 -3.91325e-17 2.90959e-19)
(0.249896 -2.37972e-15 -2.2838e-16)
(0.249896 -4.04466e-17 3.84659e-19)
(0.256301 -2.3769e-15 -2.33838e-16)
(0.256301 -4.17159e-17 4.8256e-19)
(0.262805 -2.37445e-15 -2.39353e-16)
(0.262805 -4.29091e-17 6.05494e-19)
(0.269406 -2.37136e-15 -2.44785e-16)
(0.269406 -4.49658e-17 6.72805e-19)
(0.276103 -2.36863e-15 -2.50324e-16)
(0.276103 -4.72228e-17 7.56049e-19)
(0.282896 -2.36655e-15 -2.55824e-16)
(0.282896 -4.77059e-17 9.00602e-19)
(0.289784 -2.36421e-15 -2.61167e-16)
(0.289784 -4.88267e-17 1.03612e-18)
(0.296763 -2.36075e-15 -2.66465e-16)
(0.296763 -5.14987e-17 1.20875e-18)
(0.303833 -2.35646e-15 -2.7156e-16)
(0.303833 -5.38948e-17 1.34072e-18)
(0.31099 -2.35283e-15 -2.76617e-16)
(0.31099 -5.64489e-17 1.40743e-18)
(0.318233 -2.34955e-15 -2.81592e-16)
(0.318233 -5.82827e-17 1.53747e-18)
(0.325558 -2.34615e-15 -2.86265e-16)
(0.325558 -6.01911e-17 1.69534e-18)
(0.332962 -2.34211e-15 -2.90788e-16)
(0.332962 -6.30642e-17 1.85181e-18)
(0.34044 -2.33761e-15 -2.95011e-16)
(0.34044 -6.4832e-17 2.04949e-18)
(0.347989 -2.33317e-15 -2.98871e-16)
(0.347989 -6.9049e-17 2.18376e-18)
(0.355604 -2.32839e-15 -3.02489e-16)
(0.355604 -7.14407e-17 2.27723e-18)
(0.363281 -2.32315e-15 -3.05804e-16)
(0.363281 -7.65352e-17 2.31322e-18)
(0.371014 -2.31739e-15 -3.08674e-16)
(0.371014 -7.94285e-17 2.33223e-18)
(0.378798 -2.31239e-15 -3.11084e-16)
(0.378798 -8.31615e-17 2.38557e-18)
(0.386628 -2.30768e-15 -3.1316e-16)
(0.386628 -8.7636e-17 2.47566e-18)
(0.394497 -2.30299e-15 -3.14886e-16)
(0.394497 -9.33147e-17 2.55996e-18)
(0.402401 -2.29811e-15 -3.1602e-16)
(0.402401 -9.98336e-17 2.58839e-18)
(0.410332 -2.29092e-15 -3.16842e-16)
(0.410332 -1.05543e-16 2.69074e-18)
(0.418285 -2.2844e-15 -3.17276e-16)
(0.418285 -1.09998e-16 2.78835e-18)
(0.426254 -2.2794e-15 -3.16916e-16)
(0.426254 -1.14657e-16 2.63136e-18)
(0.434233 -2.2731e-15 -3.16031e-16)
(0.434233 -1.19205e-16 2.61669e-18)
(0.442216 -2.26522e-15 -3.14482e-16)
(0.442216 -1.24827e-16 2.53742e-18)
(0.450196 -2.25678e-15 -3.12391e-16)
(0.450196 -1.3142e-16 2.46879e-18)
(0.458169 -2.24812e-15 -3.09601e-16)
(0.458169 -1.37577e-16 2.43966e-18)
(0.466128 -2.2399e-15 -3.06093e-16)
(0.466128 -1.43654e-16 2.37711e-18)
(0.474069 -2.23107e-15 -3.02053e-16)
(0.474069 -1.51382e-16 2.27885e-18)
(0.481987 -2.22219e-15 -2.97276e-16)
(0.481987 -1.59304e-16 2.19144e-18)
(0.489876 -2.21334e-15 -2.91861e-16)
(0.489876 -1.6689e-16 2.12732e-18)
(0.497732 -2.20518e-15 -2.85861e-16)
(0.497732 -1.74065e-16 2.06935e-18)
(0.505552 -2.19769e-15 -2.86443e-16)
(0.505552 -1.79821e-16 1.9792e-18)
(0.51333 -2.18547e-15 -2.88476e-16)
(0.51333 -1.85879e-16 2.04323e-18)
(0.521064 -2.17239e-15 -2.90663e-16)
(0.521064 -1.96614e-16 2.16378e-18)
(0.528751 -2.15894e-15 -2.92792e-16)
(0.528751 -2.08559e-16 2.31119e-18)
(0.536387 -2.14502e-15 -2.9547e-16)
(0.536387 -2.17604e-16 2.63738e-18)
(0.54397 -2.13363e-15 -2.98134e-16)
(0.54397 -2.27606e-16 2.66533e-18)
(0.551498 -2.12052e-15 -3.01274e-16)
(0.551498 -2.37504e-16 2.98876e-18)
(0.558968 -2.10969e-15 -3.04592e-16)
(0.558968 -2.44895e-16 3.00342e-18)
(0.566379 -2.10256e-15 -3.07577e-16)
(0.566379 -2.47412e-16 2.73609e-18)
(0.573729 -2.09213e-15 -3.09834e-16)
(0.573729 -2.52165e-16 2.36617e-18)
(0.581018 -2.07947e-15 -3.12176e-16)
(0.581018 -2.60629e-16 2.34539e-18)
(0.588244 -2.06862e-15 -3.1415e-16)
(0.588244 -2.67668e-16 2.18046e-18)
(0.595406 -2.05955e-15 -3.15762e-16)
(0.595406 -2.71547e-16 1.95758e-18)
(0.602504 -2.04997e-15 -3.1647e-16)
(0.602504 -2.78063e-16 1.59278e-18)
(0.609537 -2.03755e-15 -3.16529e-16)
(0.609537 -2.88587e-16 1.22415e-18)
(0.616505 -2.02304e-15 -3.1611e-16)
(0.616505 -2.97487e-16 1.01832e-18)
(0.623409 -2.00837e-15 -3.15479e-16)
(0.623409 -3.03713e-16 8.46729e-19)
(0.630248 -1.99463e-15 -3.14153e-16)
(0.630248 -3.11969e-16 3.98001e-19)
(0.637022 -1.97901e-15 -3.12304e-16)
(0.637022 -3.22096e-16 1.33059e-19)
(0.643731 -1.96214e-15 -3.09552e-16)
(0.643731 -3.30011e-16 -3.71299e-19)
(0.650377 -1.94724e-15 -3.06482e-16)
(0.650377 -3.36894e-16 -3.7714e-19)
(0.656959 -1.93243e-15 -3.02724e-16)
(0.656959 -3.47141e-16 -7.55897e-19)
(0.663479 -1.91705e-15 -2.9841e-16)
(0.663479 -3.5651e-16 -9.9671e-19)
(0.669936 -1.90265e-15 -2.93312e-16)
(0.669936 -3.66205e-16 -1.38435e-18)
(0.676332 -1.88276e-15 -2.87517e-16)
(0.676332 -3.7678e-16 -3.35329e-18)
(0.682667 -1.8563e-15 -2.82003e-16)
(0.682667 -3.95173e-16 -7.30236e-18)
(0.688942 -1.83147e-15 -2.77481e-16)
(0.688942 -4.11168e-16 -9.7183e-18)
(0.695157 -1.81046e-15 -2.72627e-16)
(0.695157 -4.22819e-16 -1.26213e-17)
(0.701315 -1.79308e-15 -2.67728e-16)
(0.701315 -4.37234e-16 -1.45869e-17)
(0.707416 -1.77798e-15 -2.61961e-16)
(0.707416 -4.4242e-16 -1.61701e-17)
(0.71346 -1.7602e-15 -2.55237e-16)
(0.71346 -4.53295e-16 -1.7529e-17)
(0.719448 -1.73688e-15 -2.4867e-16)
(0.719448 -4.6957e-16 -1.93787e-17)
(0.725382 -1.71316e-15 -2.4212e-16)
(0.725382 -4.83833e-16 -2.05046e-17)
(0.731263 -1.68741e-15 -2.35434e-16)
(0.731263 -4.93934e-16 -2.1023e-17)
(0.737091 -1.6604e-15 -2.29497e-16)
(0.737091 -5.04357e-16 -1.98934e-17)
(0.742867 -1.64577e-15 -2.24724e-16)
(0.742867 -5.16507e-16 -1.81963e-17)
(0.748593 -1.63622e-15 -2.19392e-16)
(0.748593 -5.21807e-16 -1.67443e-17)
(0.754269 -1.62313e-15 -2.13468e-16)
(0.754269 -5.27463e-16 -1.61262e-17)
(0.759896 -1.61162e-15 -2.07931e-16)
(0.759896 -5.28241e-16 -1.57907e-17)
(0.765476 -1.59854e-15 -2.01738e-16)
(0.765476 -5.29739e-16 -1.49338e-17)
(0.771008 -1.58402e-15 -1.9526e-16)
(0.771008 -5.30217e-16 -1.39031e-17)
(0.776495 -1.57208e-15 -1.89434e-16)
(0.776495 -5.26903e-16 -1.49343e-17)
(0.781936 -1.56202e-15 -1.83608e-16)
(0.781936 -5.28783e-16 -1.4637e-17)
(0.787334 -1.54803e-15 -1.77363e-16)
(0.787334 -5.32042e-16 -1.26809e-17)
(0.792688 -1.53337e-15 -1.71623e-16)
(0.792688 -5.37535e-16 -1.09008e-17)
(0.798 -1.51844e-15 -1.66557e-16)
(0.798 -5.42329e-16 -1.02672e-17)
(0.80327 -1.50102e-15 -1.62593e-16)
(0.80327 -5.49187e-16 -9.38184e-18)
(0.8085 -1.48521e-15 -1.59409e-16)
(0.8085 -5.57327e-16 -9.23687e-18)
(0.813689 -1.46582e-15 -1.57037e-16)
(0.813689 -5.63173e-16 -9.40854e-18)
(0.81884 -1.44465e-15 -1.55967e-16)
(0.81884 -5.71422e-16 -7.36983e-18)
(0.823952 -1.42832e-15 -1.54886e-16)
(0.823952 -5.80803e-16 -4.69102e-18)
(0.829027 -1.41786e-15 -1.53298e-16)
(0.829027 -5.86591e-16 -4.8116e-18)
(0.834064 -1.41831e-15 -1.51995e-16)
(0.834064 -5.94111e-16 -5.56889e-18)
(0.839066 -1.41356e-15 -1.47214e-16)
(0.839066 -6.02969e-16 -7.364e-18)
(0.844033 -1.4042e-15 -1.43017e-16)
(0.844033 -6.11863e-16 -1.04014e-17)
(0.848964 -1.39585e-15 -1.39403e-16)
(0.848964 -6.23702e-16 -9.01838e-18)
(0.853862 -1.37999e-15 -1.35091e-16)
(0.853862 -6.28908e-16 -8.26884e-18)
(0.858726 -1.36542e-15 -1.3235e-16)
(0.858726 -6.3892e-16 -1.1094e-17)
(0.863558 -1.35434e-15 -1.29029e-16)
(0.863558 -6.53067e-16 -1.35184e-17)
(0.868357 -1.3414e-15 -1.27362e-16)
(0.868357 -6.55646e-16 -1.59942e-17)
(0.873125 -1.33341e-15 -1.24998e-16)
(0.873125 -6.6536e-16 -1.9318e-17)
(0.877862 -1.32448e-15 -1.20811e-16)
(0.877862 -6.77449e-16 -2.40167e-17)
(0.882569 -1.31199e-15 -1.18341e-16)
(0.882569 -6.87072e-16 -2.33794e-17)
(0.887245 -1.29523e-15 -1.1507e-16)
(0.887245 -6.9293e-16 -2.25149e-17)
(0.891893 -1.27788e-15 -1.11932e-16)
(0.891893 -6.99693e-16 -2.77428e-17)
(0.896511 -1.25785e-15 -1.10057e-16)
(0.896511 -7.10146e-16 -2.56777e-17)
(0.901101 -1.23789e-15 -1.15676e-16)
(0.901101 -7.1648e-16 -2.3873e-17)
(0.905664 -1.23198e-15 -1.18593e-16)
(0.905664 -7.13636e-16 -2.15381e-17)
(0.910198 -1.22561e-15 -1.17219e-16)
(0.910198 -7.13663e-16 -2.00349e-17)
(0.914706 -1.21555e-15 -1.14765e-16)
(0.914706 -7.19254e-16 -1.9591e-17)
(0.919187 -1.20844e-15 -1.13754e-16)
(0.919187 -7.24254e-16 -2.10113e-17)
(0.923642 -1.19069e-15 -1.12944e-16)
(0.923642 -7.21167e-16 -2.19707e-17)
(0.928071 -1.17823e-15 -1.11592e-16)
(0.928071 -7.13077e-16 -2.69056e-17)
(0.932474 -1.16143e-15 -1.06659e-16)
(0.932474 -7.16556e-16 -3.02929e-17)
(0.936853 -1.13065e-15 -1.062e-16)
(0.936853 -7.1939e-16 -3.16221e-17)
(0.941206 -1.11194e-15 -1.07015e-16)
(0.941206 -7.22642e-16 -3.42873e-17)
(0.945535 -1.09872e-15 -1.07136e-16)
(0.945535 -7.34662e-16 -3.57252e-17)
(0.94984 -1.09152e-15 -1.0614e-16)
(0.94984 -7.35081e-16 -3.44217e-17)
(0.95412 -1.08906e-15 -1.038e-16)
(0.95412 -7.38181e-16 -3.10434e-17)
(0.958377 -1.08078e-15 -1.02499e-16)
(0.958377 -7.36477e-16 -3.08692e-17)
(0.96261 -1.05195e-15 -1.0097e-16)
(0.96261 -7.33992e-16 -3.34121e-17)
(0.966819 -1.01215e-15 -1.03029e-16)
(0.966819 -7.45636e-16 -4.16895e-17)
(0.971006 -9.82823e-16 -1.08852e-16)
(0.971006 -7.58323e-16 -4.75004e-17)
(0.975169 -9.82328e-16 -1.12699e-16)
(0.975169 -7.58121e-16 -5.84051e-17)
(0.97931 -9.79349e-16 -1.10594e-16)
(0.97931 -7.49938e-16 -8.37994e-17)
(0.983427 -9.7702e-16 -1.05953e-16)
(0.983427 -7.64181e-16 -1.03709e-16)
(0.987522 -9.61338e-16 -1.03443e-16)
(0.987522 -7.75378e-16 -1.15991e-16)
(0.991595 -9.48405e-16 -1.00734e-16)
(0.991595 -7.90604e-16 -1.26594e-16)
(0.995644 -9.37898e-16 -1.03647e-16)
(0.995644 -8.02623e-16 -1.29918e-16)
(0.999671 -9.31544e-16 -1.07853e-16)
(0.999671 -7.9459e-16 -1.34204e-16)
(1.00368 -9.1046e-16 -1.04423e-16)
(1.00368 -8.08449e-16 -1.42418e-16)
(1.00766 -8.90941e-16 -1.08424e-16)
(1.00766 -8.14459e-16 -1.45611e-16)
(1.01162 -8.88242e-16 -1.05928e-16)
(1.01162 -8.23191e-16 -1.40876e-16)
(1.01555 -8.90249e-16 -9.88759e-17)
(1.01555 -8.24999e-16 -1.36186e-16)
(1.01947 -8.84792e-16 -9.77584e-17)
(1.01947 -8.44085e-16 -1.37968e-16)
(1.02336 -8.6742e-16 -8.98001e-17)
(1.02336 -8.65949e-16 -1.32685e-16)
(1.02723 -8.52659e-16 -8.32855e-17)
(1.02723 -8.64361e-16 -1.17542e-16)
(1.03107 -8.44844e-16 -7.84223e-17)
(1.03107 -8.76581e-16 -1.14499e-16)
(1.03489 -8.4274e-16 -7.57019e-17)
(1.03489 -8.51429e-16 -1.16204e-16)
(1.03869 -8.36511e-16 -7.30717e-17)
(1.03869 -8.32909e-16 -1.25225e-16)
(1.04246 -8.29016e-16 -7.83812e-17)
(1.04246 -8.32066e-16 -1.35879e-16)
(1.04621 -8.2821e-16 -7.82216e-17)
(1.04621 -7.94693e-16 -1.44505e-16)
(1.04994 -7.97175e-16 -8.60145e-17)
(1.04994 -7.8922e-16 -1.5466e-16)
(1.05364 -7.71073e-16 -9.49538e-17)
(1.05364 -7.8266e-16 -1.58995e-16)
(1.05731 -7.36003e-16 -1.20495e-16)
(1.05731 -7.6294e-16 -1.4756e-16)
(1.06096 -7.14279e-16 -1.3845e-16)
(1.06096 -7.09117e-16 -1.32039e-16)
(1.06458 -7.35728e-16 -1.32395e-16)
(1.06458 -7.32337e-16 -1.29281e-16)
(1.06817 -6.99788e-16 -1.3082e-16)
(1.06817 -7.35875e-16 -1.35045e-16)
(1.07174 -6.46609e-16 -1.32867e-16)
(1.07174 -6.93814e-16 -1.23635e-16)
(1.07528 -6.30909e-16 -1.36777e-16)
(1.07528 -6.66461e-16 -1.26416e-16)
(1.07879 -6.05601e-16 -1.37674e-16)
(1.07879 -6.19698e-16 -1.27289e-16)
(1.08227 -6.43502e-16 -1.48358e-16)
(1.08227 -6.03052e-16 -1.35095e-16)
(1.08572 -6.36834e-16 -1.44568e-16)
(1.08572 -6.23699e-16 -1.41811e-16)
(1.08914 -6.2339e-16 -1.5272e-16)
(1.08914 -6.20746e-16 -1.53708e-16)
(1.09252 -6.19549e-16 -1.72382e-16)
(1.09252 -6.44713e-16 -1.55596e-16)
(1.09587 -6.0429e-16 -1.91887e-16)
(1.09587 -6.25701e-16 -1.45857e-16)
(1.09919 -5.97408e-16 -2.03125e-16)
(1.09919 -5.80422e-16 -1.22632e-16)
(1.10247 -5.83355e-16 -1.93682e-16)
(1.10247 -5.94599e-16 -9.118e-17)
(1.10572 -5.95553e-16 -2.09156e-16)
(1.10572 -5.61637e-16 -7.55298e-17)
(1.10892 -5.74901e-16 -2.24292e-16)
(1.10892 -5.5287e-16 -9.2834e-17)
(1.11209 -6.06278e-16 -1.97532e-16)
(1.11209 -5.84079e-16 -1.07295e-16)
(1.11521 -6.11086e-16 -2.00947e-16)
(1.11521 -5.67e-16 -1.29738e-16)
(1.11829 -5.98299e-16 -1.9437e-16)
(1.11829 -5.49408e-16 -1.35488e-16)
(1.12133 -5.92955e-16 -1.69771e-16)
(1.12133 -5.44292e-16 -1.31434e-16)
(1.12431 -5.60744e-16 -1.41981e-16)
(1.12431 -5.54317e-16 -1.10763e-16)
(1.12725 -5.33324e-16 -1.46625e-16)
(1.12725 -5.71084e-16 -1.06251e-16)
(1.13014 -5.13671e-16 -1.72982e-16)
(1.13014 -5.40164e-16 -1.02786e-16)
(1.13297 -4.92578e-16 -1.82366e-16)
(1.13297 -4.67005e-16 -1.11612e-16)
(1.13574 -5.17651e-16 -1.95132e-16)
(1.13574 -5.05839e-16 -9.96564e-17)
(1.13846 -5.06635e-16 -1.83529e-16)
(1.13846 -5.52516e-16 -8.76743e-17)
(1.14111 -4.69179e-16 -1.42944e-16)
(1.14111 -4.69046e-16 -1.12576e-16)
(1.14369 -4.44909e-16 -1.36077e-16)
(1.14369 -4.9492e-16 -1.40726e-16)
(1.1462 -4.44298e-16 -1.33657e-16)
(1.1462 -4.96622e-16 -1.29851e-16)
(1.14863 -5.15302e-16 -1.27643e-16)
(1.14863 -4.84855e-16 -1.06105e-16)
(1.15099 -4.18117e-16 -9.56018e-17)
(1.15099 -5.1418e-16 -8.21431e-17)
(1.15325 -4.36511e-16 -1.26872e-16)
(1.15325 -5.11238e-16 -6.06442e-17)
(1.15543 -4.56602e-16 -1.13195e-16)
(1.15543 -4.90221e-16 -5.49461e-17)
(1.15751 -4.59113e-16 -6.65903e-17)
(1.15751 -4.63712e-16 -4.83903e-17)
(1.15949 -5.00998e-16 -9.48869e-17)
(1.15949 -4.61148e-16 -1.01214e-17)
(1.16136 -5.45694e-16 -1.03477e-16)
(1.16136 -4.9041e-16 -1.68264e-17)
(1.16311 -5.19992e-16 -1.04279e-16)
(1.16311 -4.85508e-16 -3.48688e-17)
(1.16473 -4.73772e-16 -1.1492e-16)
(1.16473 -4.51403e-16 -3.28782e-17)
(1.16621 -5.37461e-16 -9.05736e-17)
(1.16621 -4.41675e-16 -3.46813e-17)
(1.16755 -4.85727e-16 -1.06925e-16)
(1.16755 -4.50145e-16 -3.48375e-17)
(1.16874 -4.52344e-16 -1.36394e-16)
(1.16874 -4.33029e-16 -1.39228e-17)
(1.16976 -4.25906e-16 -1.21191e-16)
(1.16976 -4.831e-16 -8.68158e-18)
(1.1706 -4.47649e-16 -1.18974e-16)
(1.1706 -4.30552e-16 -3.90522e-17)
(1.17124 -4.16676e-16 -6.70915e-17)
(1.17124 -3.88857e-16 -6.04541e-17)
(1.17169 -3.35482e-16 -1.31351e-17)
(1.17169 -4.09608e-16 -5.87749e-17)
(1.17192 -4.02055e-16 -4.00831e-17)
(1.17192 -4.24874e-16 -2.06609e-17)
(0.000976788 -3.6246e-20 6.67961e-19)
(0.000976788 -1.30907e-20 -9.04713e-20)
(0.00294824 -1.08648e-19 2.65231e-18)
(0.00294824 -6.9419e-21 -5.50518e-18)
(0.00495612 -2.16627e-19 2.75088e-18)
(0.00495612 -3.82957e-20 -5.71119e-18)
(0.0070011 -3.34593e-19 2.85217e-18)
(0.0070011 -6.19943e-20 -5.92256e-18)
(0.00908387 -4.56336e-19 2.95598e-18)
(0.00908387 -8.43327e-20 -6.13909e-18)
(0.0112051 -5.84135e-19 3.06235e-18)
(0.0112051 -1.05706e-19 -6.36083e-18)
(0.0133656 -7.12618e-19 3.17109e-18)
(0.0133656 -1.27972e-19 -6.5877e-18)
(0.0155659 -8.41866e-19 3.28221e-18)
(0.0155659 -1.62773e-19 -6.81984e-18)
(0.0178069 -9.82339e-19 3.39623e-18)
(0.0178069 -1.88413e-19 -7.05724e-18)
(0.0200893 -1.12568e-18 3.51299e-18)
(0.0200893 -2.07751e-19 -7.29994e-18)
(0.0224139 -1.26557e-18 3.63206e-18)
(0.0224139 -2.32262e-19 -7.54749e-18)
(0.0247814 -1.42159e-18 3.7535e-18)
(0.0247814 -2.46987e-19 -7.79978e-18)
(0.0271926 -1.58637e-18 3.87751e-18)
(0.0271926 -2.66495e-19 -8.05657e-18)
(0.0296483 -1.7492e-18 4.00405e-18)
(0.0296483 -2.95504e-19 -8.31804e-18)
(0.0321493 -1.92108e-18 4.13275e-18)
(0.0321493 -3.27908e-19 -8.58389e-18)
(0.0346966 -2.07519e-18 4.26399e-18)
(0.0346966 -3.57991e-19 -8.85386e-18)
(0.0372908 -2.21996e-18 4.39829e-18)
(0.0372908 -4.08376e-19 -9.12766e-18)
(0.0399329 -2.38883e-18 4.53524e-18)
(0.0399329 -4.47122e-19 -9.4047e-18)
(0.0426237 -2.56272e-18 4.67521e-18)
(0.0426237 -4.80908e-19 -9.685e-18)
(0.0453642 -2.7716e-18 4.81815e-18)
(0.0453642 -5.32003e-19 -9.96842e-18)
(0.0481552 -2.99695e-18 4.96127e-18)
(0.0481552 -5.6384e-19 -1.02538e-17)
(0.0509977 -3.20812e-18 5.10782e-18)
(0.0509977 -5.88029e-19 -1.05403e-17)
(0.0538926 -3.43435e-18 5.25729e-18)
(0.0538926 -6.21761e-19 -1.08269e-17)
(0.0568408 -3.63248e-18 5.40916e-18)
(0.0568408 -6.90785e-19 -1.11141e-17)
(0.0598433 -3.82473e-18 5.56235e-18)
(0.0598433 -7.58939e-19 -1.14009e-17)
(0.0629012 -4.03458e-18 5.71827e-18)
(0.0629012 -8.34087e-19 -1.16864e-17)
(0.0660153 -4.23283e-18 5.87984e-18)
(0.0660153 -8.55617e-19 -1.19695e-17)
(0.0691867 -4.4418e-18 6.03952e-18)
(0.0691867 -8.91983e-19 -1.2247e-17)
(0.0724165 -4.66369e-18 6.20184e-18)
(0.0724165 -9.67044e-19 -1.25193e-17)
(0.0757057 -4.89905e-18 6.36938e-18)
(0.0757057 -1.058e-18 -1.27876e-17)
(0.0790553 -5.17204e-18 6.5388e-18)
(0.0790553 -1.16999e-18 -1.30501e-17)
(0.0824666 -5.48103e-18 6.71057e-18)
(0.0824666 -1.20277e-18 -1.33059e-17)
(0.0859404 -5.69911e-18 6.88236e-18)
(0.0859404 -1.27241e-18 -1.35535e-17)
(0.089478 -5.96632e-18 7.05338e-18)
(0.089478 -1.42193e-18 -1.37913e-17)
(0.0930806 -6.31118e-18 7.22444e-18)
(0.0930806 -1.47824e-18 -1.40189e-17)
(0.0967492 -6.57847e-18 7.40156e-18)
(0.0967492 -1.5819e-18 -1.42347e-17)
(0.100485 -6.78089e-18 7.57657e-18)
(0.100485 -1.70432e-18 -1.4439e-17)
(0.104289 -6.98221e-18 7.75492e-18)
(0.104289 -1.74508e-18 -1.46276e-17)
(0.108163 -7.22238e-18 7.9399e-18)
(0.108163 -1.87928e-18 -1.47988e-17)
(0.112108 -7.49515e-18 8.12019e-18)
(0.112108 -1.96615e-18 -1.49485e-17)
(0.116124 -7.80852e-18 8.30507e-18)
(0.116124 -1.949e-18 -1.50819e-17)
(0.120214 -8.18822e-18 8.49725e-18)
(0.120214 -2.16141e-18 -1.5197e-17)
(0.124379 -8.4293e-18 8.68796e-18)
(0.124379 -2.38182e-18 -1.52896e-17)
(0.128619 -8.71548e-18 8.89153e-18)
(0.128619 -2.56828e-18 -1.53581e-17)
(0.132936 -9.09335e-18 9.09381e-18)
(0.132936 -2.55801e-18 -1.53989e-17)
(0.137332 -9.45905e-18 9.29964e-18)
(0.137332 -2.28398e-18 -1.54085e-17)
(0.141807 -9.93771e-18 9.49473e-18)
(0.141807 -2.48798e-18 -1.5376e-17)
(0.146364 -1.03227e-17 9.68262e-18)
(0.146364 -2.6712e-18 -1.53035e-17)
(0.151002 -1.0825e-17 9.89081e-18)
(0.151002 -2.61821e-18 -1.51834e-17)
(0.155724 -1.1419e-17 1.0111e-17)
(0.155724 -2.79703e-18 -1.50146e-17)
(0.160531 -1.18681e-17 1.03094e-17)
(0.160531 -3.01493e-18 -1.47974e-17)
(0.165424 -1.23091e-17 1.05037e-17)
(0.165424 -2.91317e-18 -1.4531e-17)
(0.170404 -1.27341e-17 1.07063e-17)
(0.170404 -3.0485e-18 -1.42212e-17)
(0.175472 -1.31881e-17 1.09013e-17)
(0.175472 -3.29964e-18 -1.3865e-17)
(0.180631 -1.36753e-17 1.10976e-17)
(0.180631 -3.27853e-18 -1.34608e-17)
(0.18588 -1.41711e-17 1.13147e-17)
(0.18588 -3.53151e-18 -1.30067e-17)
(0.191221 -1.48418e-17 1.1532e-17)
(0.191221 -3.62371e-18 -1.24932e-17)
(0.196656 -1.55264e-17 1.17321e-17)
(0.196656 -3.77274e-18 -1.1908e-17)
(0.202185 -1.61067e-17 1.16326e-17)
(0.202185 -4.06616e-18 -1.1263e-17)
(0.207808 -1.66278e-17 1.15016e-17)
(0.207808 -4.26609e-18 -1.0553e-17)
(0.213528 -1.71329e-17 1.13365e-17)
(0.213528 -4.31332e-18 -9.77572e-18)
(0.219344 -1.78802e-17 1.11283e-17)
(0.219344 -4.30135e-18 -8.92088e-18)
(0.225258 -1.88003e-17 1.08814e-17)
(0.225258 -4.42103e-18 -7.97828e-18)
(0.23127 -1.95645e-17 1.05993e-17)
(0.23127 -4.28034e-18 -6.97075e-18)
(0.23738 -2.0434e-17 1.03023e-17)
(0.23738 -4.27947e-18 -5.90799e-18)
(0.243588 -2.11827e-17 9.98555e-18)
(0.243588 -4.41284e-18 -4.77769e-18)
(0.249896 -2.18659e-17 9.68428e-18)
(0.249896 -4.73439e-18 -3.60364e-18)
(0.256301 -2.28719e-17 9.35907e-18)
(0.256301 -5.63628e-18 -2.39068e-18)
(0.262805 -2.36467e-17 9.00242e-18)
(0.262805 -6.40455e-18 -1.10797e-18)
(0.269406 -2.43016e-17 8.62064e-18)
(0.269406 -6.17441e-18 2.42227e-19)
(0.276103 -2.50874e-17 8.23537e-18)
(0.276103 -5.98627e-18 1.69938e-18)
(0.282896 -2.57776e-17 7.84018e-18)
(0.282896 -6.53914e-18 3.21474e-18)
(0.289784 -2.658e-17 7.43753e-18)
(0.289784 -6.63434e-18 4.76518e-18)
(0.296763 -2.80747e-17 7.03205e-18)
(0.296763 -6.88599e-18 6.3648e-18)
(0.303833 -2.9482e-17 6.59497e-18)
(0.303833 -6.40202e-18 8.00279e-18)
(0.31099 -3.01552e-17 6.11715e-18)
(0.31099 -6.41271e-18 9.76276e-18)
(0.318233 -3.12411e-17 5.7163e-18)
(0.318233 -6.24141e-18 1.14965e-17)
(0.325558 -3.35605e-17 5.35897e-18)
(0.325558 -6.38738e-18 1.32004e-17)
(0.332962 -3.52147e-17 4.94661e-18)
(0.332962 -7.39425e-18 1.49493e-17)
(0.34044 -3.6023e-17 4.62414e-18)
(0.34044 -6.66018e-18 1.66883e-17)
(0.347989 -3.71413e-17 4.43599e-18)
(0.347989 -6.81554e-18 1.83486e-17)
(0.355604 -3.80185e-17 4.40062e-18)
(0.355604 -6.58531e-18 1.99762e-17)
(0.363281 -3.92091e-17 4.4457e-18)
(0.363281 -6.39551e-18 2.16021e-17)
(0.371014 -4.06724e-17 4.54135e-18)
(0.371014 -7.7149e-18 2.32053e-17)
(0.378798 -4.24631e-17 4.64066e-18)
(0.378798 -7.87541e-18 2.48005e-17)
(0.386628 -4.46849e-17 4.75081e-18)
(0.386628 -6.75319e-18 2.64099e-17)
(0.394497 -4.54994e-17 4.84987e-18)
(0.394497 -7.66195e-18 2.80227e-17)
(0.402401 -4.54882e-17 4.95929e-18)
(0.402401 -7.4078e-18 2.96182e-17)
(0.410332 -4.59682e-17 5.12779e-18)
(0.410332 -6.09157e-18 3.12508e-17)
(0.418285 -4.64975e-17 5.40779e-18)
(0.418285 -6.77269e-18 3.28448e-17)
(0.426254 -4.7418e-17 5.78656e-18)
(0.426254 -7.09447e-18 3.41752e-17)
(0.434233 -4.78963e-17 6.19073e-18)
(0.434233 -6.32335e-18 3.54602e-17)
(0.442216 -4.97718e-17 6.75579e-18)
(0.442216 -6.64529e-18 3.655e-17)
(0.450196 -5.2748e-17 7.20726e-18)
(0.450196 -7.71115e-18 3.75143e-17)
(0.458169 -5.42233e-17 7.68917e-18)
(0.458169 -6.384e-18 3.83884e-17)
(0.466128 -5.59673e-17 8.22302e-18)
(0.466128 -4.54187e-18 3.90836e-17)
(0.474069 -5.84927e-17 8.7965e-18)
(0.474069 -4.93956e-18 3.95697e-17)
(0.481987 -6.11182e-17 9.30609e-18)
(0.481987 -3.93978e-18 3.99722e-17)
(0.489876 -6.26551e-17 9.74521e-18)
(0.489876 -3.30645e-18 4.02963e-17)
(0.497732 -6.37366e-17 1.0232e-17)
(0.497732 -5.78818e-18 4.05239e-17)
(0.505552 -6.55337e-17 1.07599e-17)
(0.505552 -6.78572e-18 4.05648e-17)
(0.51333 -6.78806e-17 1.15359e-17)
(0.51333 -6.55564e-18 4.03229e-17)
(0.521064 -7.0028e-17 1.2234e-17)
(0.521064 -6.70828e-18 4.01767e-17)
(0.528751 -7.02662e-17 1.27672e-17)
(0.528751 -6.18123e-18 4.0277e-17)
(0.536387 -7.21217e-17 1.36997e-17)
(0.536387 -6.01529e-18 4.0415e-17)
(0.54397 -7.62097e-17 1.45893e-17)
(0.54397 -8.28027e-18 4.03398e-17)
(0.551498 -7.82532e-17 1.53465e-17)
(0.551498 -9.61255e-18 4.05073e-17)
(0.558968 -7.9759e-17 1.61787e-17)
(0.558968 -9.81412e-18 4.0524e-17)
(0.566379 -8.24883e-17 1.69985e-17)
(0.566379 -8.16093e-18 4.01013e-17)
(0.573729 -8.55793e-17 1.77125e-17)
(0.573729 -8.04868e-18 3.92769e-17)
(0.581018 -8.72767e-17 1.81298e-17)
(0.581018 -9.67324e-18 3.84412e-17)
(0.588244 -8.75063e-17 1.89177e-17)
(0.588244 -7.49569e-18 3.72966e-17)
(0.595406 -8.59369e-17 1.96798e-17)
(0.595406 -7.48245e-18 3.59515e-17)
(0.602504 -8.56445e-17 2.10273e-17)
(0.602504 -9.30142e-18 3.39727e-17)
(0.609537 -9.05719e-17 2.27101e-17)
(0.609537 -8.51121e-18 3.14038e-17)
(0.616505 -9.24784e-17 2.43623e-17)
(0.616505 -9.22722e-18 2.8609e-17)
(0.623409 -9.11524e-17 2.66353e-17)
(0.623409 -9.9619e-18 2.51744e-17)
(0.630248 -9.18546e-17 2.92012e-17)
(0.630248 -1.16232e-17 2.0682e-17)
(0.637022 -9.28645e-17 3.17298e-17)
(0.637022 -1.45035e-17 1.6486e-17)
(0.643731 -9.22286e-17 3.42303e-17)
(0.643731 -1.91629e-17 1.20069e-17)
(0.650377 -9.1724e-17 3.69533e-17)
(0.650377 -2.19288e-17 8.13063e-18)
(0.656959 -9.34767e-17 3.95315e-17)
(0.656959 -2.37118e-17 3.7123e-18)
(0.663479 -9.55873e-17 4.15353e-17)
(0.663479 -2.4376e-17 -1.3202e-18)
(0.669936 -9.85074e-17 4.24658e-17)
(0.669936 -2.39788e-17 -2.45697e-18)
(0.676332 -9.78145e-17 4.35486e-17)
(0.676332 -2.43909e-17 -2.41955e-18)
(0.682667 -9.90954e-17 4.53692e-17)
(0.682667 -2.36594e-17 -2.47132e-18)
(0.688942 -1.05473e-16 4.605e-17)
(0.688942 -2.54491e-17 -1.83916e-18)
(0.695157 -1.08358e-16 4.65085e-17)
(0.695157 -2.375e-17 -2.05165e-18)
(0.701315 -1.11035e-16 4.64876e-17)
(0.701315 -2.09336e-17 -2.4716e-18)
(0.707416 -1.1219e-16 4.56229e-17)
(0.707416 -2.30854e-17 -2.67525e-18)
(0.71346 -1.11045e-16 4.42292e-17)
(0.71346 -2.81073e-17 -4.16538e-18)
(0.719448 -1.10889e-16 4.28211e-17)
(0.719448 -3.0631e-17 -7.11138e-18)
(0.725382 -1.13902e-16 4.16267e-17)
(0.725382 -3.19305e-17 -9.36797e-18)
(0.731263 -1.21394e-16 4.00956e-17)
(0.731263 -3.80354e-17 -1.18026e-17)
(0.737091 -1.2699e-16 3.80186e-17)
(0.737091 -4.41679e-17 -1.50269e-17)
(0.742867 -1.31115e-16 3.57967e-17)
(0.742867 -4.98097e-17 -1.95414e-17)
(0.748593 -1.36174e-16 3.42012e-17)
(0.748593 -5.5817e-17 -2.45685e-17)
(0.754269 -1.35338e-16 3.2904e-17)
(0.754269 -6.28376e-17 -2.97423e-17)
(0.759896 -1.38165e-16 3.30987e-17)
(0.759896 -6.7563e-17 -3.47111e-17)
(0.765476 -1.50884e-16 3.1316e-17)
(0.765476 -7.2371e-17 -3.76438e-17)
(0.771008 -1.5988e-16 2.88344e-17)
(0.771008 -7.2649e-17 -4.01703e-17)
(0.776495 -1.62031e-16 2.67977e-17)
(0.776495 -7.13318e-17 -4.37892e-17)
(0.781936 -1.59598e-16 2.45523e-17)
(0.781936 -7.59912e-17 -4.57484e-17)
(0.787334 -1.56339e-16 2.29169e-17)
(0.787334 -7.97097e-17 -4.71214e-17)
(0.792688 -1.58175e-16 2.13985e-17)
(0.792688 -9.24509e-17 -4.95964e-17)
(0.798 -1.59119e-16 2.0814e-17)
(0.798 -1.05477e-16 -5.31144e-17)
(0.80327 -1.61756e-16 2.15121e-17)
(0.80327 -1.11965e-16 -5.42571e-17)
(0.8085 -1.6969e-16 2.24857e-17)
(0.8085 -1.18671e-16 -5.39988e-17)
(0.813689 -1.75211e-16 2.34617e-17)
(0.813689 -1.1095e-16 -5.52138e-17)
(0.81884 -1.80273e-16 2.35163e-17)
(0.81884 -1.33508e-16 -5.47061e-17)