/*--------------------------------*- C++ -*----------------------------------*\
| =========                 |                                                 |
| \\      /  F ield         | OpenFOAM: The Open Source CFD Toolbox           |
|  \\    /   O peration     | Version:  2106                                  |
|   \\  /    A nd           | Website:  www.openfoam.com                      |
|    \\/     M anipulation  |                                                 |
\*---------------------------------------------------------------------------*/
FoamFile
{
    version     2.0;
    format      ascii;
    arch        "LSB;label=32;scalar=64";
    class       volTensorField;
    location    "10020";
    object      grad(U);
}
// * * * * * * * * * * * * * * * * * * * * * * * * * * * * * * * * * * * * * //

dimensions      [0 0 -1 0 0 0 0];

internalField   nonuniform List<tensor> 
2000
(
(-1.43031e-17 -2.33152e-25 -2.37475e-27 35.0175 -2.01498e-12 -2.36296e-13 0.0648106 -1.85694e-15 -1.23519e-16)
(1.43031e-17 -3.90912e-28 -7.62221e-32 35.0175 3.9443e-31 -1.60804e-13 0.0648106 -9.77292e-29 6.32621e-17)
(0 0 5.22093e-31 35.0108 0 -6.43321e-14 0.195617 0 -2.42555e-16)
(0 -2.55404e-29 -3.99069e-31 35.0108 -6.30538e-15 -1.41372e-13 0.195617 -1.72828e-17 -1.18682e-16)
(4.71587e-17 -3.13405e-30 -1.2723e-31 35.0041 2.70762e-12 -3.15497e-14 0.271367 -1.85964e-14 -2.42138e-16)
(-5.51347e-17 6.26809e-30 5.87634e-31 35.0041 -3.75327e-15 -1.11712e-14 0.271367 -2.18257e-17 -1.23143e-16)
(2.8014e-17 -1.14454e-27 7.37051e-32 34.9973 2.91091e-14 -3.1842e-14 0.276378 -1.13887e-16 -2.56313e-16)
(5.03172e-17 1.23065e-29 0 34.9973 -5.4129e-15 -1.13999e-14 0.276378 -3.41669e-17 -1.27691e-16)
(0 3.02024e-30 3.7753e-31 34.9903 3.95332e-14 -3.30555e-14 0.281481 -8.50502e-16 -2.70788e-16)
(0 0 0 34.9903 -5.52705e-15 -1.16351e-14 0.281481 -4.68458e-17 -1.32315e-16)
(0 -9.87252e-29 3.70612e-31 34.9833 -1.46064e-14 -3.41227e-14 0.286677 -5.92998e-17 -2.83463e-16)
(-2.53562e-16 -1.48245e-29 -3.70612e-31 34.9833 -5.61954e-15 -1.18755e-14 0.286677 -6.01668e-17 -1.37026e-16)
(1.02406e-16 -5.12068e-30 0 34.976 1.23831e-27 -3.50176e-14 0.291966 -3.15544e-30 -2.95934e-16)
(3.30194e-16 8.73169e-30 0 34.976 -5.5796e-15 -1.21215e-14 0.291966 -7.38681e-17 -1.41802e-16)
(0 5.71445e-30 0 34.9685 9.32239e-15 -3.58757e-14 0.297351 -7.56754e-17 -3.08739e-16)
(8.16484e-16 0 3.57153e-31 34.9685 -5.62071e-15 -1.23696e-14 0.297351 -8.79674e-17 -1.46661e-16)
(-1.21933e-16 -2.59752e-31 1.06232e-31 34.9606 9.20013e-15 -3.673e-14 0.302831 -8.14735e-17 -3.21888e-16)
(0 8.41461e-30 3.50609e-31 34.9606 -5.65156e-15 -1.26143e-14 0.302831 -1.02655e-16 -1.51578e-16)
(1.93758e-16 -8.26041e-30 -3.44184e-31 34.9521 8.96126e-15 -3.75818e-14 0.308406 -7.64087e-17 -3.35406e-16)
(-1.93758e-16 8.26041e-30 0 34.9521 -5.62166e-15 -1.28687e-14 0.308406 -1.17912e-16 -1.56532e-16)
(1.90208e-16 -2.16241e-29 -1.35151e-30 34.9427 9.36991e-15 -3.84317e-14 0.314074 -8.03276e-17 -3.49299e-16)
(0 1.89211e-29 1.01363e-30 34.9427 -5.61538e-15 -1.31305e-14 0.314074 -1.3399e-16 -1.61581e-16)
(1.8378e-16 5.42223e-30 8.6467e-31 34.932 9.88572e-15 -3.92797e-14 0.319832 -8.6635e-17 -3.63575e-16)
(3.61675e-16 -5.30696e-30 -6.63371e-31 34.932 -5.67952e-15 -1.33899e-14 0.319832 -1.49599e-16 -1.66695e-16)
(0 2.60486e-30 0 34.9196 1.03227e-14 -4.01224e-14 0.325677 -9.28015e-17 -3.78183e-16)
(0 -2.60486e-30 0 34.9196 -5.88519e-15 -1.36473e-14 0.325677 -1.65751e-16 -1.71872e-16)
(-5.86821e-16 2.2989e-29 1.74669e-30 34.9047 1.02475e-14 -4.09537e-14 0.331601 -9.80518e-17 -3.93073e-16)
(0 -1.78999e-29 -9.58922e-31 34.9047 -5.70705e-15 -1.38956e-14 0.331601 -1.82282e-16 -1.77067e-16)
(-6.02404e-16 1.0061e-29 1.41334e-30 34.8864 9.78032e-15 -4.17659e-14 0.337594 -9.48691e-17 -4.08158e-16)
(0 0 -6.27567e-31 34.8864 -5.33939e-15 -1.41344e-14 0.337594 -1.97943e-16 -1.82263e-16)
(9.6533e-16 -9.92112e-30 -7.84455e-31 34.8635 9.38655e-15 -4.25492e-14 0.343644 -9.27027e-17 -4.23332e-16)
(-1.43362e-15 4.92853e-30 6.16067e-31 34.8635 -5.28229e-15 -1.43709e-14 0.343644 -2.13298e-16 -1.87491e-16)
(0 -1.20955e-29 0 34.8345 9.29206e-15 -4.329e-14 0.349733 -9.06784e-17 -4.38421e-16)
(0 1.20955e-29 0 34.8345 -5.11479e-15 -1.46001e-14 0.349733 -2.3027e-16 -1.92773e-16)
(6.36243e-16 -1.92955e-29 -2.16167e-30 34.7977 9.51977e-15 -4.39712e-14 0.355839 -9.42976e-17 -4.53224e-16)
(1.27249e-15 1.18739e-29 1.18739e-30 34.7977 -5.13459e-15 -1.4787e-14 0.355839 -2.47234e-16 -1.98141e-16)
(-3.41967e-16 2.52016e-30 7.84873e-31 34.7507 9.47702e-15 -4.45744e-14 0.361934 -9.87552e-17 -4.67517e-16)
(-6.56192e-16 4.66253e-30 0 34.7507 -5.32538e-15 -1.49467e-14 0.361934 -2.65361e-16 -2.03438e-16)
(1.01041e-15 -2.51789e-30 -7.86532e-31 34.6911 9.36945e-15 -4.50805e-14 0.367982 -9.69599e-17 -4.81048e-16)
(8.208e-16 4.57709e-30 5.72136e-31 34.6911 -4.98467e-15 -1.5088e-14 0.367982 -2.84213e-16 -2.08815e-16)
(-3.90949e-16 -1.9782e-30 2.27348e-31 34.6157 9.50186e-15 -4.54644e-14 0.37394 -1.00192e-16 -4.93439e-16)
(3.12759e-15 4.49321e-30 0 34.6157 -4.8148e-15 -1.51678e-14 0.37394 -3.00113e-16 -2.14165e-16)
(0 8.82175e-30 5.5136e-31 34.5209 9.5427e-15 -4.56966e-14 0.37976 -1.03478e-16 -5.04292e-16)
(1.66435e-15 -4.41088e-30 0 34.5209 -5.01521e-15 -1.51879e-14 0.37976 -3.16584e-16 -2.19424e-16)
(6.094e-16 -6.49507e-30 -1.08251e-30 34.403 9.69559e-15 -4.57501e-14 0.385384 -1.04867e-16 -5.13233e-16)
(1.15724e-15 6.49507e-30 1.08251e-30 34.403 -5.16619e-15 -1.51523e-14 0.385384 -3.33617e-16 -2.24618e-16)
(0 8.5014e-30 5.31338e-31 34.2575 1.01176e-14 -4.55965e-14 0.390745 -1.10809e-16 -5.19784e-16)
(1.27239e-15 -4.2507e-30 0 34.2575 -5.75203e-15 -1.50382e-14 0.390745 -3.52368e-16 -2.29701e-16)
(9.31983e-17 -1.67111e-30 -2.36032e-31 34.08 1.01653e-14 -4.52096e-14 0.395771 -1.18468e-16 -5.2356e-16)
(-5.87271e-16 6.25921e-30 5.21601e-31 34.08 -5.8017e-15 -1.48347e-14 0.395771 -3.74374e-16 -2.3462e-16)
(0 -1.63854e-29 -2.04817e-30 33.8658 9.61413e-15 -4.45691e-14 0.400386 -1.16096e-16 -5.24172e-16)
(2.08358e-15 1.63854e-29 2.04817e-30 33.8658 -5.15207e-15 -1.4535e-14 0.400386 -3.93718e-16 -2.3933e-16)
(1.78406e-17 -9.56623e-30 -6.86866e-31 33.6103 9.51861e-15 -4.36548e-14 0.40451 -1.09855e-16 -5.2119e-16)
(0 8.04256e-30 1.00532e-30 33.6103 -5.36581e-15 -1.41399e-14 0.40451 -4.12774e-16 -2.43682e-16)
(-5.7568e-16 2.4934e-30 3.35704e-31 33.3093 1.00803e-14 -4.2455e-14 0.408061 -1.18162e-16 -5.14382e-16)
(0 3.94759e-30 9.86898e-31 33.3093 -5.41554e-15 -1.36424e-14 0.408061 -4.35543e-16 -2.47754e-16)
(0 3.87525e-30 9.68813e-31 32.9589 1.05388e-14 -4.0974e-14 0.410965 -1.27824e-16 -5.03686e-16)
(-5.45393e-16 0 0 32.9589 -5.40494e-15 -1.30461e-14 0.410965 -4.54865e-16 -2.51428e-16)
(-1.7026e-15 2.531e-29 3.22453e-30 32.5564 1.12994e-14 -3.92217e-14 0.413152 -1.34115e-16 -4.88996e-16)
(-2.52722e-15 -1.90212e-29 -1.90212e-30 32.5564 -6.1825e-15 -1.237e-14 0.413152 -4.78309e-16 -2.54773e-16)
(6.60277e-16 -2.4779e-30 -4.31766e-31 32.0996 1.12928e-14 -2.55194e-14 0.414564 -1.52071e-16 -1.66048e-16)
(1.58993e-15 0 0 32.0996 -5.86315e-15 -1.15948e-14 0.414564 -5.0537e-16 -2.57738e-16)
(0 7.33219e-30 9.16524e-31 31.5881 9.70012e-15 -9.12177e-15 0.415158 -1.38996e-16 -7.26886e-17)
(0 -3.66609e-30 0 31.5881 -4.69629e-15 -1.07384e-14 0.415158 -5.26595e-16 -2.5999e-16)
(-7.17803e-16 9.67467e-30 1.35493e-30 31.0224 8.40418e-15 -4.26567e-15 0.414908 -1.15578e-16 -4.11566e-17)
(0 -7.19783e-30 -8.99729e-31 31.0224 -4.22935e-15 -9.84028e-15 0.414908 -5.47245e-16 -2.61665e-16)
(2.47696e-16 -1.05794e-30 -1.03977e-29 30.4046 7.95878e-15 -1.37465e-15 0.413806 -1.09235e-16 -9.36703e-18)
(-9.94441e-16 7.06593e-30 1.76648e-30 30.4046 -3.82467e-15 -8.93048e-15 0.413806 -5.70615e-16 -2.62747e-16)
(0 -1.38729e-29 -9.22669e-31 29.7381 8.05517e-15 6.63629e-29 0.411865 -1.0768e-16 3.9443e-31)
(3.10291e-15 1.38729e-29 1.73411e-30 29.7381 -3.48978e-15 -8.00322e-15 0.411865 -5.88393e-16 -2.63513e-16)
(0 6.80934e-30 8.51168e-31 29.0276 8.67279e-15 2.63601e-15 0.409115 -1.16052e-16 -2.18278e-17)
(-9.5833e-16 -3.40467e-30 0 29.0276 -3.92282e-15 -7.10391e-15 0.409115 -6.06773e-16 -2.63655e-16)
(8.33565e-16 -2.46305e-30 1.22024e-30 28.2786 8.80253e-15 4.68636e-15 0.405604 -1.29369e-16 -5.30166e-17)
(3.33426e-15 0 0 28.2786 -3.9656e-15 -6.24931e-15 0.405604 -6.2894e-16 -2.63554e-16)
(-1.78582e-15 -1.39448e-29 -2.01672e-30 27.4975 8.82903e-15 6.54763e-15 0.401393 -1.24198e-16 -8.22757e-17)
(3.44917e-15 1.64052e-29 2.46078e-30 27.4975 -4.14974e-15 -5.4015e-15 0.401393 -6.46905e-16 -2.62921e-16)
(-1.79742e-15 -1.36493e-29 -3.68623e-31 26.6912 9.63405e-15 8.21025e-15 0.396556 -1.35029e-16 -1.10151e-16)
(0 1.61046e-29 1.61046e-30 26.6912 -4.87056e-15 -4.66222e-15 0.396556 -6.7369e-16 -2.6158e-16)
(0 1.58094e-29 1.58094e-30 25.8665 9.31769e-15 9.63983e-15 0.391169 -1.53171e-16 -1.35548e-16)
(3.67632e-15 -1.58094e-29 -1.58094e-30 25.8665 -4.63827e-15 -4.01086e-15 0.391169 -6.97172e-16 -2.60265e-16)
(-1.89407e-15 1.42102e-29 2.39341e-30 25.0305 8.22452e-15 1.08463e-14 0.385318 -1.30393e-16 -1.58247e-16)
(3.78814e-15 -6.2079e-30 0 25.0305 -4.49248e-15 -3.38005e-15 0.385318 -7.11587e-16 -2.5851e-16)
(0 -6.09414e-30 -7.61767e-31 24.1895 8.30078e-15 1.17989e-14 0.379084 -1.24711e-16 -1.78435e-16)
(0 6.09414e-30 7.61767e-31 24.1895 -4.22753e-15 -2.82614e-15 0.379084 -7.39924e-16 -2.56202e-16)
(0 -2.99123e-30 -2.24342e-30 23.3496 8.01813e-15 1.24845e-14 0.372548 -1.37739e-16 -1.94594e-16)
(0 5.98247e-30 2.24342e-30 23.3496 -3.6471e-15 -2.37471e-15 0.372548 -7.67043e-16 -2.53796e-16)
(-1.02864e-15 1.12489e-29 1.13029e-30 22.5163 7.27412e-15 1.29883e-14 0.365787 -1.20226e-16 -2.07436e-16)
(-4.11455e-15 -2.93642e-30 0 22.5163 -3.01544e-15 -2.0174e-15 0.365787 -7.91895e-16 -2.51604e-16)
(-5.67786e-16 3.32753e-30 3.32594e-31 21.6943 7.46782e-15 1.33449e-14 0.358869 -1.18302e-16 -2.18602e-16)
(4.21992e-15 0 0 21.6943 -2.84496e-15 -1.72129e-15 0.358869 -8.05241e-16 -2.49594e-16)
(1.08085e-15 1.45457e-29 1.74227e-30 20.8875 6.6278e-15 1.35467e-14 0.351859 -1.31288e-16 -2.27279e-16)
(-4.32342e-15 -1.69787e-29 -2.12234e-30 20.8875 -3.5777e-15 -1.50343e-15 0.351859 -8.16051e-16 -2.47376e-16)
(4.5759e-16 -3.41474e-31 3.72262e-31 20.0993 5.03224e-15 1.35897e-14 0.344812 -9.39079e-17 -2.3377e-16)
(4.42499e-15 2.77793e-30 0 20.0993 -2.94059e-15 -1.43284e-15 0.344812 -8.42178e-16 -2.45415e-16)
(0 -1.63622e-29 -6.81757e-31 19.3321 5.4353e-15 1.34859e-14 0.337777 -8.04088e-17 -2.37347e-16)
(9.0492e-15 1.63622e-29 2.04527e-30 19.3321 -2.0907e-15 -1.35116e-15 0.337777 -8.59156e-16 -2.44623e-16)
(1.15556e-15 -1.84913e-29 -2.36536e-30 18.5882 6.08747e-15 1.32955e-14 0.330794 -1.11812e-16 -2.3888e-16)
(4.62223e-15 1.60623e-29 2.00779e-30 18.5882 -2.63191e-15 -1.18667e-15 0.330794 -8.71196e-16 -2.43481e-16)
(-1.17947e-15 1.0311e-29 1.66451e-30 17.8687 5.28306e-15 1.30461e-14 0.323897 -1.07117e-16 -2.3938e-16)
(-4.71787e-15 -2.628e-30 0 17.8687 -2.74264e-15 -1.15264e-15 0.323897 -8.97205e-16 -2.41622e-16)
(0 -7.73953e-30 0 17.1748 5.00473e-15 1.26865e-14 0.317114 -8.62747e-17 -2.38654e-16)
(0 7.73953e-30 0 17.1748 -2.10782e-15 -1.27764e-15 0.317114 -9.22581e-16 -2.4057e-16)
(-1.22581e-15 1.25528e-29 9.70628e-31 16.5068 5.72224e-15 1.23246e-14 0.310468 -1.00667e-16 -2.34855e-16)
(0 -5.06514e-30 0 16.5068 -1.91925e-15 -1.34705e-15 0.310468 -9.34913e-16 -2.40951e-16)
(0 -7.45848e-30 0 15.8651 6.03913e-15 1.19082e-14 0.303976 -1.17063e-16 -2.33758e-16)
(0 7.45848e-30 0 15.8651 -2.31276e-15 -1.38322e-15 0.303976 -9.55991e-16 -2.40802e-16)
(-1.37394e-15 1.2203e-29 0 15.2495 5.83106e-15 1.14214e-14 0.297651 -1.16849e-16 -2.27425e-16)
(-3.70696e-15 -1.70842e-29 -1.2203e-30 15.2495 -3.0844e-15 -1.49152e-15 0.297651 -9.80122e-16 -2.41042e-16)
(-5.70279e-17 7.17313e-30 2.79103e-31 14.6597 5.0617e-15 6.03302e-15 0.291502 -1.13187e-16 -2.23178e-16)
(-1.34876e-15 -4.79176e-30 0 14.6597 -3.06985e-15 -1.58976e-15 0.291502 -9.9978e-16 -2.42005e-16)
(-1.31279e-15 5.87036e-32 -8.30368e-31 14.0951 3.03487e-15 -6.48399e-16 0.285535 -9.00417e-17 -4.45218e-17)
(0 7.05592e-30 1.17599e-30 14.0951 -1.22585e-15 -1.71615e-15 0.285535 -1.02465e-15 -2.43124e-16)
(-1.36702e-15 -4.39955e-30 1.18938e-31 13.5551 1.81429e-15 -2.24899e-15 0.279755 -3.36935e-17 -4.93215e-17)
(4.03383e-15 6.92663e-30 0 13.5551 4.57729e-16 -1.81948e-15 0.279755 -1.0237e-15 -2.45244e-16)
(-1.35359e-15 2.41627e-30 3.50774e-31 13.0389 3.13105e-15 -2.427e-15 0.274162 -4.20527e-17 -5.38328e-17)
(0 0 0 13.0389 -6.35023e-16 -1.93862e-15 0.274162 -1.00791e-15 -2.46786e-16)
(-2.74673e-15 2.03905e-29 2.93279e-30 12.5458 4.23951e-15 -2.55882e-15 0.268756 -9.14286e-17 -5.69384e-17)
(-5.49345e-15 -1.55752e-29 -2.22503e-30 12.5458 -1.97274e-15 -2.08104e-15 0.268756 -1.01191e-15 -2.49079e-16)
(1.39274e-15 4.14723e-30 -3.48812e-31 12.0749 4.25342e-15 -2.69596e-15 0.263537 -9.20579e-17 -6.19635e-17)
(-5.57095e-15 -1.09213e-29 -1.09213e-30 12.0749 -1.06435e-15 -2.1799e-15 0.263537 -1.02104e-15 -2.51266e-16)
(-1.2071e-15 6.4327e-30 1.07212e-30 11.6252 4.16202e-15 -2.79643e-15 0.2585 -9.54924e-17 -6.36384e-17)
(0 0 0 11.6252 -9.01634e-17 -2.41921e-15 0.2585 -1.03278e-15 -2.54976e-16)
(-2.86067e-15 -5.73049e-30 -3.7914e-31 11.1959 3.56363e-15 -2.89714e-15 0.253643 -9.13841e-17 -6.89488e-17)
(1.14427e-14 8.41976e-30 1.05247e-30 11.1959 -6.97709e-16 -2.69492e-15 0.253643 -1.03444e-15 -2.61674e-16)
(-1.44858e-15 1.06648e-29 1.36413e-30 10.786 3.13257e-15 -3.02533e-15 0.24896 -7.14601e-17 -7.20661e-17)
(5.79433e-15 -8.26547e-30 -1.03318e-30 10.786 -2.49652e-15 -2.75415e-15 0.24896 -1.03192e-15 -2.68521e-16)
(2.28389e-15 -4.057e-30 0 10.3946 3.26086e-15 -3.22957e-15 0.244448 -7.45519e-17 -8.13328e-17)
(-2.28389e-15 6.08551e-30 0 10.3946 -2.24495e-15 -2.86863e-15 0.244448 -1.04635e-15 -2.73843e-16)
(-3.72609e-15 4.38784e-30 3.1999e-31 10.0209 3.5776e-15 -3.41032e-15 0.240101 -8.02999e-17 -8.36037e-17)
(5.9362e-15 3.98266e-30 0 10.0209 -4.51593e-16 -3.03577e-15 0.240101 -1.063e-15 -2.81597e-16)
(0 3.90968e-30 0 9.664 3.83382e-15 -3.52947e-15 0.235914 -9.2821e-17 -9.03219e-17)
(-2.20095e-15 0 0 9.664 -1.8192e-16 -3.12674e-15 0.235914 -1.06683e-15 -2.90179e-16)
(-1.51822e-15 1.00652e-29 3.10118e-31 9.32307 3.49421e-15 -3.66503e-15 0.231881 -9.60649e-17 -9.36202e-17)
(0 -3.83804e-30 0 9.32307 -1.85332e-16 -3.28378e-15 0.231881 -1.06945e-15 -2.99843e-16)
(0 3.76771e-30 0 8.99732 3.2695e-15 -3.75866e-15 0.227997 -7.91183e-17 -9.85561e-17)
(0 0 0 8.99732 -5.09859e-16 -3.49435e-15 0.227997 -1.08197e-15 -3.09966e-16)
(0 -1.47947e-29 -2.774e-30 8.68598 3.86461e-15 -3.96914e-15 0.224256 -8.80907e-17 -1.0821e-16)
(6.20476e-15 1.47947e-29 2.774e-30 8.68598 -1.85098e-15 -3.6885e-15 0.224256 -1.1013e-15 -3.22597e-16)
(0 1.81544e-29 1.81544e-30 8.38832 4.29436e-15 -4.13507e-15 0.220652 -1.13377e-16 -1.11153e-16)
(0 -1.81544e-29 -1.81544e-30 8.38832 -3.11947e-15 -3.84618e-15 0.220652 -1.11504e-15 -3.37897e-16)
(-1.58304e-15 -1.19168e-30 2.93485e-31 8.10366 4.06195e-15 -4.17435e-15 0.217181 -1.14418e-16 -1.1443e-16)
(6.33217e-15 7.1287e-30 0 8.10366 -2.83771e-15 -3.96006e-15 0.217181 -1.13739e-15 -3.55114e-16)
(0 -1.39961e-29 0 7.83132 4.28607e-15 -4.30587e-15 0.213837 -1.04974e-16 -1.22648e-16)
(6.39431e-15 1.39961e-29 0 7.83132 -2.74018e-15 -3.97154e-15 0.213837 -1.16659e-15 -3.71438e-16)
(-1.61386e-15 1.95369e-29 1.14508e-30 7.57067 4.14774e-15 -4.39922e-15 0.210615 -1.31181e-16 -1.24025e-16)
(-6.45545e-15 -1.71746e-29 -8.58729e-31 7.57067 -3.81749e-15 -3.95139e-15 0.210615 -1.1905e-15 -3.87114e-16)
(1.89825e-15 -3.37197e-30 -1.68599e-30 7.32113 2.85375e-15 -4.54686e-15 0.207509 -1.01101e-16 -1.35781e-16)
(-6.51563e-15 3.37197e-30 1.68599e-30 7.32113 -2.71681e-15 -4.18743e-15 0.207509 -1.21778e-15 -4.02784e-16)
(-3.28744e-15 4.73862e-30 5.59351e-31 7.08212 1.17433e-15 -4.74722e-15 0.204515 -6.15271e-17 -1.40465e-16)
(6.57489e-15 0 0 7.08212 -1.30271e-15 -4.47243e-15 0.204515 -1.22919e-15 -4.22748e-16)
(-3.31663e-15 4.75166e-30 5.55516e-31 6.85312 2.08611e-16 -4.76792e-15 0.201629 -6.28659e-18 -1.42136e-16)
(0 0 0 6.85312 -4.95187e-16 -4.42462e-15 0.201629 -1.24982e-15 -4.44773e-16)
(0 -9.56994e-30 -7.97495e-31 6.63361 3.62074e-16 -4.94408e-15 0.198845 -6.07543e-18 -1.56492e-16)
(6.69076e-15 9.56994e-30 7.97495e-31 6.63361 2.39538e-16 -4.4119e-15 0.198845 -1.23158e-15 -4.67854e-16)
(-3.44975e-15 2.11632e-29 3.40357e-30 6.42312 1.57997e-16 -5.07205e-15 0.19616 -1.58752e-17 -1.55436e-16)
(-6.74744e-15 -1.56576e-29 -2.34864e-30 6.42312 -1.48935e-16 -4.59497e-15 0.19616 -1.23872e-15 -4.91424e-16)
(1.70083e-15 -1.15979e-29 -2.69427e-31 6.22119 -2.40308e-16 -5.0875e-15 0.19357 -8.71311e-18 -1.63366e-16)
(0 9.22242e-30 0 6.22119 2.26736e-16 -4.68007e-15 0.19357 -1.26587e-15 -5.17241e-16)
(1.71461e-15 -9.72713e-30 -1.02763e-30 6.0274 -1.53744e-28 -4.57788e-15 0.191069 0 -1.28466e-16)
(-6.85844e-15 9.05342e-30 7.54452e-31 6.0274 -6.97557e-17 -4.84152e-15 0.191069 -1.23992e-15 -5.45461e-16)
(-3.45641e-15 1.13998e-29 1.28401e-30 5.84135 5.13237e-16 -3.8413e-15 0.188656 -8.3414e-18 -1.2119e-16)
(0 -5.92501e-30 0 5.84135 -1.9731e-16 -5.03236e-15 0.188656 -1.25013e-15 -5.80888e-16)
(0 5.81644e-30 7.27055e-31 5.66266 1.38266e-15 -3.71292e-15 0.186325 -4.23774e-17 -1.24726e-16)
(0 -1.16329e-29 -7.27055e-31 5.66266 -4.14283e-16 -4.97578e-15 0.186325 -1.23207e-15 -6.16517e-16)
(-1.4595e-15 3.34298e-30 -2.66004e-31 5.49096 1.43439e-15 -3.65106e-15 0.184074 -4.92508e-17 -1.21544e-16)
(-1.40389e-14 -5.70985e-30 0 5.49096 -1.60631e-15 -5.07702e-15 0.184074 -1.22317e-15 -6.49282e-16)
(1.76793e-15 -1.07736e-29 -1.6649e-30 5.32592 1.12163e-15 -3.56079e-15 0.181899 -4.74967e-17 -1.23165e-16)
(0 8.40784e-30 1.40131e-30 5.32592 -8.78114e-16 -5.45453e-15 0.181899 -1.24273e-15 -6.87261e-16)
(0 -1.65075e-29 -1.37563e-30 5.16722 1.15658e-15 -3.68172e-15 0.179797 -2.94138e-17 -1.34668e-16)
(7.12339e-15 1.65075e-29 1.37563e-30 5.16722 -4.37733e-16 -5.66071e-15 0.179797 -1.25281e-15 -7.26312e-16)
(1.7936e-15 -5.05948e-30 -2.5737e-31 5.01455 7.77074e-17 -3.84948e-15 0.177765 -5.17553e-17 -1.39881e-16)
(7.17442e-15 5.40168e-30 0 5.01455 -1.3905e-15 -5.49842e-15 0.177765 -1.257e-15 -7.66836e-16)
(8.65303e-16 -1.38526e-29 -2.1379e-30 4.86764 -1.86274e-15 -3.72865e-15 0.1758 -8.85637e-17 -1.30884e-16)
(-2.98515e-15 1.59081e-29 1.32567e-30 4.86764 -2.19272e-15 -5.54774e-15 0.1758 -1.27486e-15 -8.04225e-16)
(-7.06899e-16 -8.42622e-30 -2.09452e-30 4.7262 -1.2819e-28 -3.61752e-15 0.1739 0 -1.36852e-16)
(7.2747e-15 1.56166e-29 2.60276e-30 4.7262 -1.68602e-15 -5.93394e-15 0.1739 -1.28934e-15 -8.48244e-16)
(1.831e-15 -2.27603e-29 -1.52959e-30 4.58999 4.94687e-16 -3.69814e-15 0.172062 -9.32198e-18 -1.4195e-16)
(1.4648e-14 1.53304e-29 1.27753e-30 4.58999 -2.03986e-15 -5.92595e-15 0.172062 -1.28594e-15 -8.96702e-16)
(9.80852e-16 2.35903e-30 2.51805e-31 4.45877 9.47678e-16 -3.59421e-15 0.170283 -5.42847e-17 -1.33953e-16)
(-2.82403e-15 5.01649e-30 0 4.45877 -4.04871e-15 -5.96865e-15 0.170283 -1.32633e-15 -9.43431e-16)
(-3.71047e-15 4.72398e-30 4.99889e-31 4.3323 9.2806e-16 -3.43568e-15 0.168561 -1.81476e-17 -1.34783e-16)
(7.42095e-15 0 0 4.3323 -4.00661e-15 -6.18252e-15 0.168561 -1.38543e-15 -9.99553e-16)
(-1.86716e-15 1.43044e-30 2.47206e-31 4.21037 2.75116e-15 -3.47908e-15 0.166894 -5.48013e-17 -1.42492e-16)
(7.46866e-15 4.83433e-30 0 4.21037 -3.64979e-15 -6.10237e-15 0.166894 -1.40765e-15 -1.05503e-15)
(-2.67161e-15 9.49148e-30 2.37287e-30 4.09277 4.05485e-15 -3.42633e-15 0.165279 -1.76102e-16 -1.35541e-16)
(0 -4.74574e-30 1.18643e-30 4.09277 -3.83732e-15 -6.21988e-15 0.165279 -1.43592e-15 -1.11019e-15)
(1.89065e-15 -9.31989e-30 -2.45964e-31 3.97932 2.856e-15 -3.18324e-15 0.163715 -1.52793e-16 -1.27574e-16)
(7.56262e-15 6.98816e-30 0 3.97932 -3.67522e-15 -6.58383e-15 0.163715 -1.48098e-15 -1.17387e-15)
(1.90223e-15 -1.37734e-29 -1.38669e-30 3.86983 1.58415e-15 -3.10937e-15 0.1622 -8.26922e-17 -1.34369e-16)
(7.6089e-15 1.14335e-29 1.14335e-30 3.86983 -4.37015e-15 -6.74717e-15 0.1622 -1.49055e-15 -1.24168e-15)
(-1.91368e-15 2.34083e-30 2.4027e-31 3.76413 1.78556e-15 -3.27885e-15 0.160731 -5.04317e-17 -1.47058e-16)
(7.65474e-15 4.4896e-30 1.1224e-30 3.76413 -5.11332e-15 -6.73529e-15 0.160731 -1.50651e-15 -1.30937e-15)
(1.92503e-15 -1.11431e-29 -2.38693e-31 3.66205 2.5546e-15 -3.41079e-15 0.159307 -1.0325e-16 -1.51071e-16)
(0 8.81465e-30 0 3.66205 -4.70564e-15 -6.84131e-15 0.159307 -1.59119e-15 -1.3794e-15)
(-1.93628e-15 8.81186e-30 2.37157e-31 3.56343 2.86631e-15 -3.47297e-15 0.157926 -1.20171e-16 -1.58187e-16)
(7.74512e-15 -2.16328e-30 0 3.56343 -3.91918e-15 -7.00977e-15 0.157926 -1.64151e-15 -1.45303e-15)
(1.94742e-15 -1.08114e-29 -2.34992e-31 3.46814 3.05112e-15 -3.65781e-15 0.156587 -1.3515e-16 -1.73683e-16)
(0 8.49456e-30 0 3.46814 -3.917e-15 -5.03024e-15 0.156587 -1.66213e-15 -1.53035e-15)
(-4.30566e-15 1.06511e-29 2.34381e-31 3.37602 2.28051e-15 -3.90214e-15 0.155288 -1.41616e-16 -1.8693e-16)
(7.83388e-15 -4.16945e-30 0 3.37602 -2.81198e-15 -2.04381e-15 0.155288 -1.71215e-15 -1.56038e-15)
(1.96942e-15 1.77175e-30 -2.35242e-31 3.28695 9.98977e-16 -4.06675e-15 0.154027 -6.83866e-17 -1.95863e-16)
(7.87768e-15 0 0 3.28695 -2.00626e-16 -9.79524e-16 0.154027 -1.69334e-15 -1.56761e-15)
(0 6.02707e-30 0 3.2008 1.0083e-16 -4.0431e-15 0.152803 -2.52254e-17 -1.91686e-16)
(7.92111e-15 -2.00902e-30 0 3.2008 -7.82279e-16 -6.59508e-16 0.152803 -1.66157e-15 -1.57464e-15)
(-2.22051e-15 2.8026e-44 0 3.11745 -1.00171e-28 -3.7751e-15 0.151616 -4.97617e-46 -1.76829e-16)
(-7.96418e-15 0 0 3.11745 -2.92039e-15 -3.7853e-16 0.151616 -1.73301e-15 -1.57924e-15)
(0 1.09673e-29 9.68033e-31 3.03679 5.27873e-16 -3.55518e-15 0.150462 -1.31277e-17 -1.76828e-16)
(8.0069e-15 -1.16164e-29 -9.68033e-31 3.03679 -2.98032e-15 -4.22028e-16 0.150462 -1.76805e-15 -1.58604e-15)
(-2.01232e-15 -1.28813e-29 -1.65754e-30 2.9587 5.83771e-16 -3.65138e-15 0.149342 -4.54679e-17 -1.93331e-16)
(0 1.52047e-29 9.50295e-31 2.9587 -3.36709e-15 -5.139e-16 0.149342 -1.76955e-15 -1.59288e-15)
(-2.02284e-15 1.19537e-30 2.45442e-31 2.88309 5.18905e-16 -3.74128e-15 0.148254 -1.3391e-17 -1.92857e-16)
(8.09134e-15 3.73152e-30 0 2.88309 -3.81408e-15 -6.05926e-16 0.148254 -1.82257e-15 -1.59807e-15)
(0 -7.32629e-30 -1.83157e-30 2.80985 2.02039e-15 -3.69451e-15 0.147197 -6.24072e-17 -1.95652e-16)
(0 7.32629e-30 0 2.80985 -4.43877e-15 -4.74516e-16 0.147197 -1.86832e-15 -1.60499e-15)
(-2.02438e-15 3.59602e-30 0 2.73889 2.52951e-15 -3.36837e-15 0.146169 -1.50858e-16 -1.64865e-16)
(0 0 0 2.73889 -3.74719e-15 -2.54518e-16 0.146169 -1.91623e-15 -1.60457e-15)
(2.05391e-15 -1.64284e-29 -2.01929e-30 2.67013 2.70379e-15 -3.16574e-15 0.14517 -1.19802e-16 -1.80708e-16)
(8.21563e-15 1.41205e-29 1.76506e-30 2.67013 -2.24131e-15 -1.52721e-16 0.14517 -1.9117e-15 -1.61081e-15)
(-1.83762e-15 4.63158e-30 1.47584e-30 2.60348 3.73112e-15 -3.24e-15 0.144199 -1.75737e-16 -1.79408e-16)
(6.30559e-15 0 0 2.60348 -2.6931e-15 -2.29555e-16 0.144199 -1.9181e-15 -1.61412e-15)
(0 0 0 2.53885 3.21897e-15 -3.13614e-15 0.143255 -2.3957e-16 -1.75648e-16)
(8.29701e-15 3.40193e-30 0 2.53885 -3.58083e-15 -5.27774e-16 0.143255 -1.94167e-15 -1.62953e-15)
(-4.16864e-15 4.58083e-30 5.25884e-31 2.47618 2.145e-15 -3.05592e-15 0.142337 -1.2383e-16 -1.7683e-16)
(8.33728e-15 0 0 2.47618 -3.03672e-15 -5.7017e-16 0.142337 -1.97651e-15 -1.64058e-15)
(2.09432e-15 -1.53981e-29 -1.90665e-30 2.41538 2.47412e-15 -2.90232e-15 0.141443 -1.23571e-16 -1.64052e-16)
(8.37728e-15 1.31136e-29 1.6392e-30 2.41538 -2.66398e-15 -3.74543e-16 0.141443 -2.01038e-15 -1.65293e-15)
(0 6.43664e-30 0 2.35638 3.47459e-15 -2.53308e-15 0.140574 -1.67526e-16 -1.38888e-16)
(-8.41702e-15 -6.43664e-30 0 2.35638 -3.88997e-15 -1.67836e-16 0.140574 -2.05758e-15 -1.66295e-15)
(0 6.31869e-30 0 2.29913 4.07375e-15 -2.23392e-15 0.139728 -2.49087e-16 -1.3342e-16)
(0 -6.31869e-30 0 2.29913 -3.81096e-15 -3.22863e-16 0.139728 -2.1322e-15 -1.67948e-15)
(-4.24787e-15 1.68887e-29 2.10041e-30 2.24356 3.66437e-15 -2.25653e-15 0.138904 -2.47569e-16 -1.46956e-16)
(0 -1.24058e-29 -1.55073e-30 2.24356 -3.82118e-15 -5.49617e-16 0.138904 -2.15651e-15 -1.71034e-15)
(-2.13369e-15 8.32748e-30 2.77114e-31 2.1896 4.34691e-15 -2.2564e-15 0.138102 -2.07155e-16 -1.3843e-16)
(0 -3.04462e-30 0 2.1896 -5.35007e-15 -4.17692e-16 0.138102 -2.13332e-15 -1.73583e-15)
(-3.36512e-15 2.09218e-29 4.48324e-30 2.13719 5.30447e-15 -1.86781e-15 0.137322 -3.44055e-16 -1.01947e-16)
(-8.57351e-15 -1.7933e-29 -2.98883e-30 2.13719 -6.14289e-15 -3.28542e-16 0.137322 -2.19399e-15 -1.75821e-15)
(4.30602e-15 -1.46738e-30 -5.69445e-31 2.08629 4.56215e-15 -1.56731e-15 0.136561 -3.39519e-16 -1.03828e-16)
(0 -2.93406e-30 0 2.08629 -4.92809e-15 -2.50446e-16 0.136561 -2.29211e-15 -1.78918e-15)
(1.08226e-15 9.99528e-30 2.30556e-30 2.03683 3.29265e-15 -1.51967e-15 0.13582 -2.58656e-16 -9.93591e-17)
(8.65036e-15 -1.44015e-29 -2.88029e-30 2.03683 -3.88204e-15 -4.9951e-16 0.13582 -2.35714e-15 -1.81665e-15)
(-2.17212e-15 2.20745e-30 2.85729e-31 1.98877 2.77147e-15 -1.56353e-15 0.135098 -1.80957e-16 -1.13771e-16)
(8.68846e-15 5.65502e-30 0 1.98877 -4.76316e-15 -4.57422e-16 0.135098 -2.41832e-15 -1.86493e-15)
(4.36317e-15 1.15567e-30 -5.9187e-31 1.94205 3.13875e-15 -1.10033e-15 0.134395 -1.96741e-16 -3.82243e-17)
(-3.12516e-15 -5.55139e-30 0 1.94205 -4.34015e-15 -8.81759e-17 0.134395 -2.48027e-15 -1.88907e-15)
(2.19101e-15 -2.18309e-30 -2.93062e-31 1.89663 3.15075e-15 -5.81533e-16 0.133709 -2.39219e-16 -4.40356e-17)
(8.76403e-15 5.44967e-30 0 1.89663 -3.36905e-15 3.51379e-16 0.133709 -2.51027e-15 -1.92544e-15)
(-2.20038e-15 4.85858e-30 -1.61187e-31 1.85247 3.4574e-15 -7.17866e-30 0.133041 -2.05867e-16 0)
(-3.01167e-15 0 0 1.85247 -3.31812e-15 3.61086e-16 0.133041 -2.55708e-15 -1.93703e-15)
(0 -2.62588e-30 0 1.80953 4.934e-15 -1.2551e-17 0.132389 -2.92803e-16 -1.29986e-17)
(1.76776e-14 5.25177e-30 0 1.80953 -5.03485e-15 -9.93918e-17 0.132389 -2.59499e-15 -1.97747e-15)
(-5.12128e-15 -1.07621e-29 2.93359e-31 1.76775 6.49599e-15 -3.80596e-16 0.131753 -4.32245e-16 -4.41606e-17)
(0 1.28888e-29 0 1.76775 -6.43074e-15 -3.39278e-16 0.131753 -2.69363e-15 -2.0101e-15)
(-2.84912e-15 -1.26526e-29 -1.26526e-30 1.7271 5.86551e-15 -7.80723e-16 0.131133 -5.39418e-16 -7.49624e-17)
(1.78256e-14 1.26526e-29 1.26526e-30 1.7271 -4.39221e-15 -2.90587e-16 0.131133 -2.81055e-15 -2.05493e-15)
(5.59527e-16 9.55509e-30 -4.36718e-31 1.68755 3.48163e-15 1.19977e-30 0.130528 -3.51668e-16 0)
(-2.79691e-15 -7.45248e-30 -1.24208e-30 1.68755 -3.97004e-15 -3.22329e-16 0.130528 -2.82822e-15 -2.0797e-15)
(0 -4.87727e-30 0 1.64905 3.39063e-15 5.59391e-16 0.129937 -1.86656e-16 -3.31107e-17)
(8.9861e-15 4.87727e-30 0 1.64905 -4.34145e-15 -9.19384e-16 0.129937 -2.88396e-15 -2.1349e-15)
(2.25562e-15 -1.40495e-29 -2.83934e-31 1.61158 5.19369e-15 4.89321e-16 0.12936 -3.50412e-16 -5.54523e-17)
(1.8045e-14 1.19697e-29 0 1.61158 -4.30421e-15 -1.31693e-15 0.12936 -2.93892e-15 -2.19249e-15)
(-2.26468e-15 2.04867e-30 2.87912e-31 1.57509 7.03372e-15 2.22577e-17 0.128797 -4.86509e-16 -2.29791e-17)
(9.05871e-15 4.70016e-30 0 1.57509 -5.65037e-15 -1.47131e-15 0.128797 -3.02831e-15 -2.24954e-15)
(-3.2378e-16 4.91776e-30 2.18953e-47 1.53957 7.9998e-15 1.2326e-32 0.128248 -6.68019e-16 -2.13384e-47)
(6.49729e-15 0 0 1.53957 -6.51394e-15 -1.58025e-15 0.128248 -3.09336e-15 -2.30337e-15)
(-4.56533e-15 1.0756e-29 5.54701e-31 1.50496 6.77681e-15 -3.32488e-16 0.127711 -6.67647e-16 -5.91953e-17)
(9.13065e-15 -2.26474e-30 0 1.50496 -6.07087e-15 -1.96392e-15 0.127711 -3.20597e-15 -2.36409e-15)
(-5.00629e-15 -2.22324e-30 -1.11162e-30 1.47125 4.9292e-15 -1.18501e-15 0.127186 -4.83244e-16 -1.46924e-16)
(2.08359e-14 8.89296e-30 2.22324e-30 1.47125 -3.447e-15 -2.16859e-15 0.127186 -3.36542e-15 -2.43835e-15)
(0 8.73e-30 0 1.43841 3.29242e-15 -1.50265e-15 0.126673 -3.69711e-16 -1.18008e-16)
(9.20198e-15 -4.365e-30 0 1.43841 -1.38032e-15 -1.65787e-15 0.126673 -3.43023e-15 -2.48644e-15)
(1.02895e-16 6.29655e-30 2.78918e-31 1.40641 2.15503e-15 -9.53419e-16 0.126171 -2.09884e-16 -5.27971e-17)
(-2.41225e-15 0 0 1.40641 -8.69346e-16 -1.06569e-15 0.126171 -3.44366e-15 -2.52356e-15)
(2.31818e-15 6.40388e-30 -2.78642e-31 1.37522 2.39208e-15 -5.24522e-16 0.125681 -1.77251e-16 -4.31742e-17)
(0 -8.41298e-30 0 1.37522 -9.61752e-17 -7.25885e-16 0.125681 -3.44709e-15 -2.56907e-15)
(0 4.12941e-30 0 1.34482 2.8695e-15 -4.65484e-16 0.125201 -2.61613e-16 -4.36699e-17)
(-2.32465e-15 0 0 1.34482 3.15182e-16 -2.12359e-16 0.125201 -3.48176e-15 -2.60739e-15)
(-5.36641e-17 1.41355e-29 9.10844e-45 1.31518 2.88286e-15 8.16115e-30 0.124732 -2.73827e-16 0)
(-2.28205e-15 -8.10748e-30 -2.02687e-30 1.31518 -9.76427e-16 5.69334e-16 0.124732 -3.5245e-15 -2.62637e-15)
(-1.04201e-16 5.95057e-30 -7.27971e-31 1.28629 2.70336e-15 1.64917e-16 0.124273 -2.74033e-16 -7.98148e-18)
(-1.1618e-14 0 0 1.28629 -1.71602e-15 6.55753e-16 0.124273 -3.66702e-15 -2.63799e-15)
(-2.35312e-15 -1.93121e-30 2.61106e-31 1.25811 2.98518e-15 6.02453e-16 0.123823 -2.49073e-16 -9.25452e-17)
(1.8825e-14 3.90653e-30 0 1.25811 -6.60362e-16 2.25536e-16 0.123823 -3.70741e-15 -2.6898e-15)
(0 -7.6699e-30 -1.91747e-30 1.23062 3.85164e-15 3.80246e-17 0.123382 -3.40452e-16 -2.56404e-17)
(9.4471e-15 7.6699e-30 1.91747e-30 1.23062 -1.25154e-15 2.42776e-16 0.123382 -3.73151e-15 -2.74367e-15)
(-2.3704e-15 5.68405e-30 0 1.20381 4.34553e-15 6.16298e-33 0.122951 -4.34139e-16 2.58095e-46)
(7.36226e-15 0 0 1.20381 -2.00374e-15 6.78133e-16 0.122951 -3.86844e-15 -2.79361e-15)
(0 3.69569e-30 -7.05074e-31 1.17765 3.59518e-15 5.70651e-16 0.122528 -4.5529e-16 -2.97383e-17)
(9.51594e-15 0 0 1.17765 -2.07224e-15 8.40757e-16 0.122528 -3.93048e-15 -2.81239e-15)
(-2.38755e-15 -5.35172e-30 -1.57941e-30 1.15212 2.95826e-15 7.68908e-16 0.122113 -2.92627e-16 -1.17623e-16)
(9.55018e-15 1.08839e-29 1.81398e-30 1.15212 -3.07868e-15 4.57387e-16 0.122113 -4.03081e-15 -2.87525e-15)
(0 -7.12297e-30 0 1.12721 3.34057e-15 1.97699e-16 0.121707 -3.35938e-16 -4.49775e-17)
(9.5843e-15 7.12297e-30 0 1.12721 -3.877e-15 6.31397e-16 0.121707 -4.16346e-15 -2.93621e-15)
(-2.40458e-15 1.86875e-30 2.10195e-45 1.1029 2.72703e-15 1.88912e-30 0.121308 -3.87122e-16 -1.97215e-31)
(0 0 0 1.1029 -3.19144e-15 1.10019e-15 0.121308 -4.28516e-15 -2.96091e-15)