/*--------------------------------*- C++ -*----------------------------------*\
| =========                 |                                                 |
| \\      /  F ield         | OpenFOAM: The Open Source CFD Toolbox           |
|  \\    /   O peration     | Version:  2106                                  |
|   \\  /    A nd           | Website:  www.openfoam.com                      |
|    \\/     M anipulation  |                                                 |
\*---------------------------------------------------------------------------*/
FoamFile
{
    version     2.0;
    format      ascii;
    arch        "LSB;label=32;scalar=64";
    class       volVectorField;
    location    "10020";
    object      grad(T);
}
// * * * * * * * * * * * * * * * * * * * * * * * * * * * * * * * * * * * * * //

dimensions      [0 -1 0 1 0 0 0];

internalField   nonuniform List<vector> 
2000
(
(0 455.643 0.84323)
(0 455.643 0.84323)
(0 455.643 2.54543)
(0 455.643 2.54543)
(-1.0363e-16 455.642 3.53267)
(0 455.642 3.53267)
(-3.39609e-16 455.64 3.59859)
(1.35844e-15 455.64 3.59859)
(0 455.637 3.66574)
(0 455.637 3.66574)
(0 455.633 3.73413)
(-3.29945e-15 455.633 3.73413)
(0 455.628 3.80378)
(4.29722e-15 455.628 3.80378)
(0 455.62 3.87471)
(1.06272e-14 455.62 3.87471)
(-1.58724e-15 455.608 3.94691)
(0 455.608 3.94691)
(0 455.59 4.02039)
(0 455.59 4.02039)
(3.04332e-15 455.563 4.09515)
(0 455.563 4.09515)
(2.39313e-15 455.523 4.17115)
(3.59739e-15 455.523 4.17115)
(0 455.463 4.24835)
(0 455.463 4.24835)
(-5.83483e-15 455.377 4.32668)
(0 455.377 4.32668)
(-8.89759e-15 455.253 4.40605)
(0 455.253 4.40605)
(9.0886e-15 455.08 4.48631)
(-1.41583e-14 455.08 4.48631)
(5.44735e-15 454.841 4.56728)
(0 454.841 4.56728)
(1.3638e-14 454.517 4.64872)
(1.6581e-14 454.517 4.64872)
(-4.45649e-15 454.082 4.73032)
(0 454.082 4.73032)
(4.77343e-15 453.508 4.8117)
(1.90937e-14 453.508 4.8117)
(-5.09611e-15 452.761 4.89241)
(4.07688e-14 452.761 4.89241)
(0 451.802 4.97189)
(1.17658e-14 451.802 4.97189)
(0 450.588 5.04951)
(2.30351e-14 450.588 5.04951)
(0 449.07 5.12453)
(1.48232e-14 449.07 5.12453)
(-6.44439e-15 447.197 5.19616)
(0 447.197 5.19616)
(0 444.916 5.26351)
(2.71824e-14 444.916 5.26351)
(1.90291e-15 442.173 5.32567)
(0 442.173 5.32567)
(-7.51397e-15 438.918 5.3817)
(0 438.918 5.3817)
(0 435.104 5.43069)
(-8.72629e-15 435.104 5.43069)
(-2.53845e-14 430.693 5.47178)
(-3.30069e-14 430.693 5.47178)
(8.62691e-15 425.655 5.50423)
(3.45076e-14 425.655 5.50423)
(8.25531e-15 419.976 5.52741)
(-8.25531e-15 419.976 5.52741)
(-9.38729e-15 413.653 5.54087)
(0 413.653 5.54087)
(-9.77128e-15 406.699 5.54437)
(0 406.699 5.54437)
(0 399.142 5.53787)
(4.06276e-14 399.142 5.53787)
(0 391.023 5.52154)
(-3.06665e-14 391.023 5.52154)
(1.09302e-14 382.398 5.49572)
(2.86683e-14 382.398 5.49572)
(-1.13163e-14 373.329 5.46096)
(4.52653e-14 373.329 5.46096)
(-1.17012e-14 363.889 5.41793)
(0 363.889 5.41793)
(0 354.151 5.3674)
(4.83367e-14 354.151 5.3674)
(3.02878e-15 344.192 5.31024)
(2.19003e-14 344.192 5.31024)
(0 334.087 5.24733)
(0 334.087 5.24733)
(0 323.907 5.17956)
(1.34713e-14 323.907 5.17956)
(-1.35846e-14 313.718 5.10781)
(-6.7563e-14 313.718 5.10781)
(1.39494e-14 303.58 5.0329)
(5.57978e-14 303.58 5.0329)
(1.43094e-14 293.545 4.9556)
(-5.72376e-14 293.545 4.9556)
(1.03572e-14 283.658 4.87662)
(5.86569e-14 283.658 4.87662)
(-2.45629e-14 273.957 4.79659)
(1.2011e-13 273.957 4.79659)
(1.53577e-14 264.474 4.71607)
(8.55437e-14 264.474 4.71607)
(-1.56961e-14 255.232 4.63554)
(-6.27846e-14 255.232 4.63554)
(2.32372e-14 246.251 4.55541)
(0 246.251 4.55541)
(-3.91674e-14 237.544 4.47604)
(-2.28113e-14 237.544 4.47604)
(0 229.119 4.39771)
(0 229.119 4.39771)
(0 220.982 4.32067)
(-6.79733e-14 220.982 4.32067)
(-4.27653e-15 213.136 4.2451)
(0 213.136 4.2451)
(-1.76084e-14 205.578 4.17116)
(0 205.578 4.17116)
(-3.58158e-14 198.306 4.09895)
(7.16316e-14 198.306 4.09895)
(-1.82021e-14 191.316 4.02856)
(0 191.316 4.02856)
(-3.69823e-14 184.6 3.96005)
(-7.39645e-14 184.6 3.96005)
(1.87752e-14 178.152 3.89345)
(-7.51006e-14 178.152 3.89345)
(-1.93135e-14 171.964 3.82878)
(-1.93135e-14 171.964 3.82878)
(-5.7617e-14 166.027 3.76603)
(1.54629e-13 166.027 3.76603)
(-1.95984e-14 160.333 3.7052)
(7.83938e-14 160.333 3.7052)
(0 154.871 3.64626)
(0 154.871 3.64626)
(-3.8061e-14 149.634 3.58919)
(8.04986e-14 149.634 3.58919)
(0 144.612 3.53395)
(0 144.612 3.53395)
(-2.0634e-14 139.795 3.4805)
(-1.7285e-14 139.795 3.4805)
(0 135.176 3.42879)
(0 135.176 3.42879)
(0 130.745 3.37877)
(8.45102e-14 130.745 3.37877)
(0 126.494 3.33041)
(0 126.494 3.33041)
(-2.16063e-14 122.415 3.28364)
(8.64252e-14 122.415 3.28364)
(-3.15165e-14 118.501 3.23842)
(1.18878e-13 118.501 3.23842)
(-2.20712e-14 114.742 3.19469)
(-8.82848e-14 114.742 3.19469)
(3.0372e-14 111.134 3.15241)
(-8.9195e-14 111.134 3.15241)
(-4.50463e-14 107.668 3.11153)
(9.00926e-14 107.668 3.11153)
(-4.54891e-14 104.338 3.07199)
(0 104.338 3.07199)
(-2.87328e-14 101.137 3.03376)
(1.20585e-13 101.137 3.03376)
(-5.13849e-14 98.0608 2.99677)
(-9.27146e-14 98.0608 2.99677)
(2.33916e-14 95.1022 2.96099)
(0 95.1022 2.96099)
(2.36018e-14 92.2563 2.92638)
(-9.44073e-14 92.2563 2.92638)
(-4.76191e-14 89.5178 2.89288)
(-2.66839e-14 89.5178 2.89288)
(0 86.882 2.86046)
(0 86.882 2.86046)
(2.42176e-14 84.344 2.82908)
(-2.19456e-13 84.344 2.82908)
(-8.25546e-16 81.8996 2.7987)
(2.52437e-14 81.8996 2.7987)
(0 79.5445 2.76929)
(9.84657e-14 79.5445 2.76929)
(2.48125e-14 77.2747 2.7408)
(9.92501e-14 77.2747 2.7408)
(-2.61319e-14 75.0864 2.7132)
(4.77624e-14 75.0864 2.7132)
(-3.50984e-15 72.9761 2.68647)
(1.00794e-13 72.9761 2.68647)
(-2.06395e-14 70.9404 2.66056)
(2.49136e-13 70.9404 2.66056)
(-2.55766e-14 68.9759 2.63545)
(0 68.9759 2.63545)
(-5.15257e-14 67.0797 2.61111)
(1.03051e-13 67.0797 2.61111)
(-2.59473e-14 65.2487 2.58751)
(1.03789e-13 65.2487 2.58751)
(-2.13729e-14 63.4803 2.56463)
(-4.27458e-14 63.4803 2.56463)
(-1.56514e-14 61.7717 2.54243)
(1.47207e-13 61.7717 2.54243)
(2.64905e-14 60.1205 2.5209)
(1.05962e-13 60.1205 2.5209)
(-2.66683e-14 58.5243 2.50001)
(1.06673e-13 58.5243 2.50001)
(2.68446e-14 56.9808 2.47974)
(0 56.9808 2.47974)
(-2.70194e-14 55.4878 2.46006)
(6.91074e-14 55.4878 2.46006)
(2.71927e-14 54.0434 2.44096)
(0 54.0434 2.44096)
(-2.73647e-14 52.6455 2.42241)
(7.19037e-14 52.6455 2.42241)
(2.75353e-14 51.2923 2.4044)
(7.32742e-14 51.2923 2.4044)
(3.61913e-14 49.982 2.38691)
(7.46269e-14 49.982 2.38691)
(0 48.7129 2.36992)
(-1.47018e-13 48.7129 2.36992)
(0 47.4834 2.35341)
(1.12157e-13 47.4834 2.35341)
(-2.82048e-14 46.2921 2.33737)
(0 46.2921 2.33737)
(-2.83691e-14 45.1373 2.32178)
(1.13477e-13 45.1373 2.32178)
(0 44.0178 2.30663)
(0 44.0178 2.30663)
(3.23901e-14 42.9321 2.2919)
(-3.23901e-14 42.9321 2.2919)
(2.88555e-14 41.8791 2.27757)
(1.15422e-13 41.8791 2.27757)
(-2.1984e-15 40.8575 2.26364)
(8.48479e-14 40.8575 2.26364)
(0 39.8661 2.2501)
(1.16698e-13 39.8661 2.2501)
(-5.86647e-14 38.9039 2.23692)
(1.17329e-13 38.9039 2.23692)
(2.94894e-14 37.9697 2.2241)
(1.17957e-13 37.9697 2.2241)
(0 37.0626 2.21163)
(-1.18582e-13 37.0626 2.21163)
(0 36.1816 2.1995)
(-2.84568e-14 36.1816 2.1995)
(-5.99096e-14 35.3257 2.18769)
(0 35.3257 2.18769)
(-2.68474e-15 34.4941 2.17619)
(-2.74235e-14 34.4941 2.17619)
(-5.38419e-14 33.686 2.165)
(-1.21043e-13 33.686 2.165)
(6.0825e-14 32.9004 2.1541)
(-5.28553e-14 32.9004 2.1541)
(3.51836e-14 32.1367 2.1435)
(1.22254e-13 32.1367 2.1435)
(-3.07136e-14 31.3941 2.13316)
(1.22855e-13 31.3941 2.13316)
(6.17261e-14 30.6718 2.1231)
(0 30.6718 2.1231)
(3.10117e-14 29.9692 2.1133)
(1.24047e-13 29.9692 2.1133)
(-3.11597e-14 29.2857 2.10375)
(0 29.2857 2.10375)
(-4.73037e-14 28.6205 2.09445)
(2.50456e-13 28.6205 2.09445)
(-7.78905e-14 27.9731 2.08538)
(4.64369e-14 27.9731 2.08538)
(-4.5586e-14 27.3428 2.07654)
(2.98382e-13 27.3428 2.07654)
(-3.17448e-14 26.7292 2.06793)
(0 26.7292 2.06793)
(0 26.1317 2.05953)
(1.27558e-13 26.1317 2.05953)
(3.20335e-14 25.5498 2.05135)
(2.56268e-13 25.5498 2.05135)
(-3.21769e-14 24.983 2.04336)
(1.28708e-13 24.983 2.04336)
(3.23198e-14 24.4307 2.03558)
(8.77196e-14 24.4307 2.03558)
(-6.49241e-14 23.8926 2.02798)
(1.29848e-13 23.8926 2.02798)
(-8.01007e-14 23.3681 2.02057)
(2.60831e-13 23.3681 2.02057)
(0 22.8569 2.01334)
(9.16637e-14 22.8569 2.01334)
(-3.28857e-14 22.3586 2.00629)
(0 22.3586 2.00629)
(3.30259e-14 21.8727 1.9994)
(0 21.8727 1.9994)
(3.71944e-14 21.3989 1.99267)
(-3.71944e-14 21.3989 1.99267)
(3.20811e-15 20.9369 1.9861)
(-3.65128e-14 20.9369 1.9861)
(-3.34434e-14 20.4861 1.97969)
(-1.33774e-13 20.4861 1.97969)
(-6.87686e-14 20.0464 1.97342)
(3.0384e-13 20.0464 1.97342)
(0 19.6173 1.96729)
(1.34878e-13 19.6173 1.96729)
(-3.38568e-14 19.1987 1.96131)
(1.01518e-13 19.1987 1.96131)
(0 18.79 1.95545)
(1.02687e-13 18.79 1.95545)
(-3.41302e-14 18.3912 1.94973)
(1.36521e-13 18.3912 1.94973)
(-3.2079e-14 18.0018 1.94412)
(1.69144e-13 18.0018 1.94412)
(-3.44019e-14 17.6216 1.93864)
(0 17.6216 1.93864)
(-6.54513e-14 17.2503 1.93327)
(3.09141e-14 17.2503 1.93327)
(-9.53673e-14 16.8877 1.92801)
(6.06952e-14 16.8877 1.92801)
(5.01507e-15 16.5336 1.92286)
(-1.39226e-13 16.5336 1.92286)
(0 16.1876 1.91781)
(0 16.1876 1.91781)
(2.87097e-14 15.8495 1.91285)
(-2.87097e-14 15.8495 1.91285)
(9.1575e-14 15.5192 1.90799)
(0 15.5192 1.90799)
(-3.53409e-14 15.1964 1.90322)
(1.41364e-13 15.1964 1.90322)
(-3.54736e-14 14.8809 1.89853)
(1.41894e-13 14.8809 1.89853)
(-3.5606e-14 14.5725 1.89392)
(0 14.5725 1.89392)
(0 14.271 1.88939)
(1.42952e-13 14.271 1.88939)
(-3.58698e-14 13.9762 1.88493)
(-1.43479e-13 13.9762 1.88493)
(3.60012e-14 13.6879 1.88054)
(1.44005e-13 13.6879 1.88054)
(3.61323e-14 13.406 1.87621)
(1.94051e-13 13.406 1.87621)
(3.6263e-14 13.1302 1.87194)
(0 13.1302 1.87194)
(-4.7724e-14 12.8604 1.86773)
(1.45574e-13 12.8604 1.86773)
(-3.65237e-14 12.5964 1.86356)
(0 12.5964 1.86356)
(4.5991e-14 12.3382 1.85944)
(1.46614e-13 12.3382 1.85944)
(-3.67832e-14 12.0854 1.85537)
(0 12.0854 1.85537)
(0 11.838 1.85133)
(4.43209e-14 11.838 1.85133)
(0 11.5959 1.84732)
(1.48166e-13 11.5959 1.84732)
(0 11.3588 1.84334)
(1.48681e-13 11.3588 1.84334)
(-3.72987e-14 11.1267 1.83938)
(0 11.1267 1.83938)
(-3.74269e-14 10.8994 1.83545)
(0 10.8994 1.83545)
(-3.75548e-14 10.6767 1.83152)
(0 10.6767 1.83152)
(3.56991e-14 10.4587 1.82761)
(1.11064e-13 10.4587 1.82761)
(-7.44904e-14 10.2451 1.8237)
(1.51239e-13 10.2451 1.8237)
(0 10.0358 1.81978)
(1.13522e-13 10.0358 1.81978)
(-3.80637e-14 9.83071 1.81586)
(0 9.83071 1.81586)
(-7.50274e-14 9.62972 1.81193)
(0 9.62972 1.81193)
(0 9.43272 1.80798)
(0 9.43272 1.80798)
(0 9.2396 1.80401)
(1.5377e-13 9.2396 1.80401)
(-3.85682e-14 9.05026 1.8)
(-1.54273e-13 9.05026 1.8)
(0 8.86459 1.79596)
(0 8.86459 1.79596)
(-3.88189e-14 8.6825 1.79188)
(-3.44134e-13 8.6825 1.79188)
(-7.19119e-14 8.50388 1.78775)
(0 8.50388 1.78775)
(0 8.32866 1.78357)
(0 8.32866 1.78357)
(0 8.15673 1.77932)
(1.25e-13 8.15673 1.77932)
(-7.86336e-14 7.988 1.775)
(3.14535e-13 7.988 1.775)
(0 7.8224 1.7706)
(1.57762e-13 7.8224 1.7706)
(-3.95641e-14 7.65983 1.76612)
(0 7.65983 1.76612)
(0 7.5002 1.76154)
(-1.58749e-13 7.5002 1.76154)
(-3.98101e-14 7.34345 1.75686)
(0 7.34345 1.75686)
(0 7.18948 1.75207)
(1.59731e-13 7.18948 1.75207)
(0 7.03822 1.74716)
(1.6022e-13 7.03822 1.74716)
(4.01769e-14 6.8896 1.74212)
(3.21415e-13 6.8896 1.74212)
(4.02985e-14 6.74353 1.73693)
(1.61194e-13 6.74353 1.73693)
(0 6.59995 1.7316)
(1.61679e-13 6.59995 1.7316)
(4.05407e-14 6.45877 1.7261)
(1.62163e-13 6.45877 1.7261)
(-4.06612e-14 6.31993 1.72043)
(3.2529e-13 6.31993 1.72043)
(9.18083e-15 6.18336 1.71457)
(-2.13088e-13 6.18336 1.71457)
(0 6.04899 1.7085)
(0 6.04899 1.7085)
(-4.10207e-14 5.91674 1.70223)
(-4.8148e-14 5.91674 1.70223)
(-8.22794e-14 5.78656 1.69572)
(-4.72657e-14 5.78656 1.69572)
(-8.76578e-14 5.65836 1.68897)
(2.11433e-13 5.65836 1.68897)
(0 5.5321 1.68196)
(0 5.5321 1.68196)
(-4.14942e-14 5.40769 1.67467)
(0 5.40769 1.67467)
(-4.38952e-14 5.28508 1.66709)
(-4.38952e-14 5.28508 1.66709)
(-1.36265e-15 5.16419 1.65919)
(3.76917e-13 5.16419 1.65919)
(8.3689e-14 5.04497 1.65095)
(-1.67378e-13 5.04497 1.65095)
(8.39205e-14 4.92734 1.64235)
(0 4.92734 1.64235)
(8.41509e-14 4.81125 1.63338)
(3.36604e-13 4.81125 1.63338)
(4.21901e-14 4.69662 1.624)
(1.28742e-13 4.69662 1.624)
(4.23041e-14 4.58339 1.61418)
(1.69217e-13 4.58339 1.61418)
(-4.24176e-14 4.4715 1.60391)
(1.6967e-13 4.4715 1.60391)
(-4.67213e-15 4.36087 1.59314)
(-3.78582e-14 4.36087 1.59314)
(0 4.25143 1.58185)
(1.7057e-13 4.25143 1.58185)
(-8.55077e-14 4.14313 1.57001)
(1.34532e-13 4.14313 1.57001)
(-4.28645e-14 4.03587 1.55757)
(0 4.03587 1.55757)
(0 3.92961 1.54449)
(3.43795e-13 3.92961 1.54449)
(6.90287e-14 3.82425 1.53074)
(-6.90287e-14 3.82425 1.53074)
(4.31917e-14 3.71972 1.51627)
(-1.72767e-13 3.71972 1.51627)
(4.32991e-14 3.61594 1.50102)
(0 3.61594 1.50102)
(-2.15079e-14 3.51284 1.48494)
(0 3.51284 1.48494)
(2.29153e-14 3.41032 1.46797)
(0 3.41032 1.46797)
(0 3.30829 1.45006)
(1.74461e-13 3.30829 1.45006)
(0 3.20666 1.43112)
(2.36652e-13 3.20666 1.43112)
(4.38205e-14 3.10534 1.41109)
(1.75282e-13 3.10534 1.41109)
(0 3.00422 1.38988)
(-1.75686e-13 3.00422 1.38988)
(-4.40209e-14 2.90318 1.3674)
(0 2.90318 1.3674)
(-4.41191e-14 2.80212 1.34356)
(1.76477e-13 2.80212 1.34356)
(0 2.7009 1.31824)
(1.76863e-13 2.7009 1.31824)
(1.09786e-14 2.5994 1.29132)
(-1.77244e-13 2.5994 1.29132)
(4.44047e-14 2.49746 1.26269)
(3.55237e-13 2.49746 1.26269)
(0 2.39495 1.23219)
(7.14222e-14 2.39495 1.23219)
(-4.45865e-14 2.2917 1.19967)
(0 2.2917 1.19967)
(4.46746e-14 2.18754 1.16495)
(1.78698e-13 2.18754 1.16495)
(5.60517e-14 2.08227 1.12786)
(1.79042e-13 2.08227 1.12786)
(-4.48443e-14 1.9757 1.08818)
(1.79377e-13 1.9757 1.08818)
(0 1.86763 1.0457)
(9.71514e-14 1.86763 1.0457)
(4.50046e-14 1.75782 1.00017)
(9.53712e-14 1.75782 1.00017)
(-1.36973e-13 1.64605 0.951329)
(2.27135e-13 1.64605 0.951329)
(4.59539e-14 1.53208 0.898898)
(0 1.53208 0.898898)
(0 1.41566 0.842585)
(9.02237e-14 1.41566 0.842585)
(-4.32792e-14 1.29655 0.782077)
(2.69735e-13 1.29655 0.782077)
(-4.53544e-14 1.17452 0.717058)
(1.81418e-13 1.17452 0.717058)
(-8.80909e-14 1.04935 0.647207)
(0 1.04935 0.647207)
(0 0.920832 0.572208)
(-4.1895e-14 0.920832 0.572208)
(0 0.788831 0.491765)
(-1.8208e-13 0.788831 0.491765)
(-4.55661e-14 0.653243 0.405605)
(0 0.653243 0.405605)
(-5.97326e-15 0.514034 0.3135)
(1.82428e-13 0.514034 0.3135)
(0 0.371249 0.215269)
(1.8257e-13 0.371249 0.215269)
(-4.56719e-14 0.225011 0.11079)
(0 0.225011 0.11079)
(-4.5695e-14 8.09427e-07 2.99591e-07)
(3.65673e-13 5.48796e-07 2.03124e-07)
(0 455.643 -0.84323)
(-1.14425e-16 455.643 -0.84323)
(-8.98622e-16 455.643 -2.54543)
(0 455.643 -2.54543)
(-2.07261e-16 455.642 -3.53267)
(0 455.642 -3.53267)
(3.39609e-16 455.64 -3.59859)
(-8.6599e-16 455.64 -3.59859)
(5.40257e-16 455.637 -3.66574)
(-1.70024e-15 455.637 -3.66574)
(8.24864e-16 455.633 -3.73413)
(0 455.633 -3.73413)
(-1.6385e-15 455.628 -3.80378)
(-1.6385e-15 455.628 -3.80378)
(5.87376e-15 455.62 -3.87471)
(-3.21695e-15 455.62 -3.87471)
(-4.74525e-15 455.608 -3.94691)
(6.34898e-15 455.608 -3.94691)
(1.85092e-15 455.59 -4.02039)
(-7.40367e-15 455.59 -4.02039)
(1.19571e-15 455.563 -4.09515)
(-8.47806e-15 455.563 -4.09515)
(2.39313e-15 455.523 -4.17115)
(0 455.523 -4.17115)
(2.60966e-16 455.463 -4.24835)
(-1.36202e-14 455.463 -4.24835)
(2.87907e-15 455.377 -4.32668)
(-1.1823e-14 455.377 -4.32668)
(3.24497e-15 455.253 -4.40605)
(-1.86325e-14 455.253 -4.40605)
(0 455.08 -4.48631)
(-5.54904e-15 455.08 -4.48631)
(3.83963e-15 454.841 -4.56728)
(-1.53585e-14 454.841 -4.56728)
(4.14524e-15 454.517 -4.64872)
(1.6581e-14 454.517 -4.64872)
(4.45649e-15 454.082 -4.73032)
(0 454.082 -4.73032)
(1.47002e-14 453.508 -4.8117)
(-5.15334e-15 453.508 -4.8117)
(1.0155e-14 452.761 -4.89241)
(1.53255e-14 452.761 -4.89241)
(5.42455e-15 451.802 -4.97189)
(1.17658e-14 451.802 -4.97189)
(-5.75878e-15 450.588 -5.04951)
(0 450.588 -5.04951)
(2.17692e-14 449.07 -5.12453)
(-9.57173e-15 449.07 -5.12453)
(6.44439e-15 447.197 -5.19616)
(0 447.197 -5.19616)
(0 444.916 -5.26351)
(9.22415e-15 444.916 -5.26351)
(-9.05512e-15 442.173 -5.32567)
(-9.05512e-15 442.173 -5.32567)
(1.50279e-14 438.918 -5.3817)
(0 438.918 -5.3817)
(-8.45693e-16 435.104 -5.43069)
(4.02487e-14 435.104 -5.43069)
(1.65035e-14 430.693 -5.47178)
(0 430.693 -5.47178)
(1.70363e-14 425.655 -5.50423)
(-8.40941e-15 425.655 -5.50423)
(1.72609e-14 419.976 -5.52741)
(-8.25531e-15 419.976 -5.52741)
(2.55954e-14 413.653 -5.54087)
(-3.75492e-14 413.653 -5.54087)
(0 406.699 -5.54437)
(-3.90851e-14 406.699 -5.54437)
(0 399.142 -5.53787)
(0 399.142 -5.53787)
(2.58767e-14 391.023 -5.52154)
(-5.7507e-14 391.023 -5.52154)
(6.80801e-15 382.398 -5.49572)
(0 382.398 -5.49572)
(-1.13163e-14 373.329 -5.46096)
(-4.52653e-14 373.329 -5.46096)
(-1.17012e-14 363.889 -5.41793)
(-9.36098e-14 363.889 -5.41793)
(-1.20842e-14 354.151 -5.3674)
(0 354.151 -5.3674)
(1.51439e-15 344.192 -5.31024)
(-1.39789e-14 344.192 -5.31024)
(-1.28418e-14 334.087 -5.24733)
(-1.02734e-13 334.087 -5.24733)
(2.64305e-14 323.907 -5.17956)
(0 323.907 -5.17956)
(1.35846e-14 313.718 -5.10781)
(-8.07874e-14 313.718 -5.10781)
(2.78989e-14 303.58 -5.0329)
(5.57978e-14 303.58 -5.0329)
(5.25421e-14 293.545 -4.9556)
(-8.27261e-14 293.545 -4.9556)
(-2.93285e-14 283.658 -4.87662)
(-5.86569e-14 283.658 -4.87662)
(3.00274e-14 273.957 -4.79659)
(6.00549e-14 273.957 -4.79659)
(0 264.474 -4.71607)
(0 264.474 -4.71607)
(-1.56961e-14 255.232 -4.63554)
(-1.4924e-13 255.232 -4.63554)
(1.60289e-14 246.251 -4.55541)
(-6.41157e-14 246.251 -4.55541)
(1.6356e-14 237.544 -4.47604)
(0 237.544 -4.47604)
(0 229.119 -4.39771)
(-1.3342e-13 229.119 -4.39771)
(1.69933e-14 220.982 -4.32067)
(0 220.982 -4.32067)
(3.46072e-14 213.136 -4.2451)
(0 213.136 -4.2451)
(0 205.578 -4.17116)
(-9.16185e-14 205.578 -4.17116)
(1.79079e-14 198.306 -4.09895)
(0 198.306 -4.09895)
(1.82021e-14 191.316 -4.02856)
(-9.32238e-14 191.316 -4.02856)
(2.00413e-14 184.6 -3.96005)
(-9.40058e-14 184.6 -3.96005)
(0 178.152 -3.89345)
(-7.51006e-14 178.152 -3.89345)
(1.90543e-14 171.964 -3.82878)
(0 171.964 -3.82878)
(0 166.027 -3.76603)
(-1.89596e-14 166.027 -3.76603)
(1.95984e-14 160.333 -3.7052)
(-1.86122e-14 160.333 -3.7052)
(1.98637e-14 154.871 -3.64626)
(-1.82711e-14 154.871 -3.64626)
(1.79363e-14 149.634 -3.58919)
(-9.84349e-14 149.634 -3.58919)
(0 144.612 -3.53395)
(0 144.612 -3.53395)
(2.0634e-14 139.795 -3.4805)
(-8.2536e-14 139.795 -3.4805)
(0 135.176 -3.42879)
(-8.35308e-14 135.176 -3.42879)
(0 130.745 -3.37877)
(0 130.745 -3.37877)
(-2.13687e-14 126.494 -3.33041)
(1.7095e-13 126.494 -3.33041)
(0 122.415 -3.28364)
(0 122.415 -3.28364)
(5.33569e-14 118.501 -3.23842)
(-1.18878e-13 118.501 -3.23842)
(2.20712e-14 114.742 -3.19469)
(-8.82848e-14 114.742 -3.19469)
(6.07441e-14 111.134 -3.15241)
(-1.7839e-13 111.134 -3.15241)
(-2.25232e-14 107.668 -3.11153)
(-2.98155e-14 107.668 -3.11153)
(0 104.338 -3.07199)
(5.85383e-14 104.338 -3.07199)
(-2.87328e-14 101.137 -3.03376)
(1.20585e-13 101.137 -3.03376)
(5.0276e-15 98.0608 -2.99677)
(-4.27271e-13 98.0608 -2.99677)
(4.67831e-14 95.1022 -2.96099)
(-9.35663e-14 95.1022 -2.96099)
(-2.36018e-14 92.2563 -2.92638)
(0 92.2563 -2.92638)
(-2.38095e-14 89.5178 -2.89288)
(-9.52382e-14 89.5178 -2.89288)
(-4.80295e-14 86.882 -2.86046)
(-1.22254e-13 86.882 -2.86046)
(-2.42176e-14 84.344 -2.82908)
(-2.19456e-13 84.344 -2.82908)
(4.88363e-14 81.8996 -2.7987)
(-9.76725e-14 81.8996 -2.7987)
(2.46164e-14 79.5445 -2.76929)
(9.84657e-14 79.5445 -2.76929)
(0 77.2747 -2.7408)
(9.92501e-14 77.2747 -2.7408)
(1.12533e-15 75.0864 -2.7132)
(-1.47789e-13 75.0864 -2.7132)
(-5.0397e-14 72.9761 -2.68647)
(5.39069e-14 72.9761 -2.68647)
(4.84025e-14 70.9404 -2.66056)
(-2.3014e-14 70.9404 -2.66056)
(-2.98435e-15 68.9759 -2.63545)
(0 68.9759 -2.63545)
(2.21783e-14 67.0797 -2.61111)
(-2.21783e-14 67.0797 -2.61111)
(2.59473e-14 65.2487 -2.58751)
(1.03789e-13 65.2487 -2.58751)
(6.41187e-14 63.4803 -2.56463)
(-1.0452e-13 63.4803 -2.56463)
(4.19625e-14 61.7717 -2.54243)
(-4.19625e-14 61.7717 -2.54243)
(6.7684e-14 60.1205 -2.5209)
(6.47684e-14 60.1205 -2.5209)
(0 58.5243 -2.50001)
(-4.04387e-14 58.5243 -2.50001)
(3.96977e-14 56.9808 -2.47974)
(-2.54454e-13 56.9808 -2.47974)
(3.89702e-14 55.4878 -2.46006)
(-3.89702e-14 55.4878 -2.46006)
(2.71927e-14 54.0434 -2.44096)
(-1.08771e-13 54.0434 -2.44096)
(6.49198e-14 52.6455 -2.42241)
(-3.75551e-14 52.6455 -2.42241)
(2.75353e-14 51.2923 -2.4044)
(2.57149e-13 51.2923 -2.4044)
(6.38959e-14 49.982 -2.38691)
(-3.61913e-14 49.982 -2.38691)
(2.78725e-14 48.7129 -2.36992)
(-1.1149e-13 48.7129 -2.36992)
(-4.17149e-14 47.4834 -2.35341)
(1.12157e-13 47.4834 -2.35341)
(0 46.2921 -2.33737)
(0 46.2921 -2.33737)
(-2.83691e-14 45.1373 -2.32178)
(-1.13477e-13 45.1373 -2.32178)
(3.29947e-14 44.0178 -2.30663)
(-3.29947e-14 44.0178 -2.30663)
(3.23901e-14 42.9321 -2.2919)
(-3.23901e-14 42.9321 -2.2919)
(3.17965e-14 41.8791 -2.27757)
(0 41.8791 -2.27757)
(3.12139e-14 40.8575 -2.26364)
(-1.47276e-13 40.8575 -2.26364)
(-3.06419e-14 39.8661 -2.2501)
(-6.12837e-14 39.8661 -2.2501)
(0 38.9039 -2.23692)
(0 38.9039 -2.23692)
(-3.97965e-17 37.9697 -2.2241)
(0 37.9697 -2.2241)
(-2.96454e-14 37.0626 -2.21163)
(0 37.0626 -2.21163)
(-2.98006e-14 36.1816 -2.1995)
(0 36.1816 -2.1995)
(2.99548e-14 35.3257 -2.18769)
(-2.79354e-14 35.3257 -2.18769)
(0 34.4941 -2.17619)
(-2.74235e-14 34.4941 -2.17619)
(-3.36006e-14 33.686 -2.165)
(-2.42086e-13 33.686 -2.165)
(0 32.9004 -2.1541)
(0 32.9004 -2.1541)
(8.24502e-14 32.1367 -2.1435)
(-5.18867e-14 32.1367 -2.1435)
(-5.09359e-14 31.3941 -2.13316)
(1.22855e-13 31.3941 -2.13316)
(0 30.6718 -2.1231)
(-1.48453e-13 30.6718 -2.1231)
(4.90862e-14 29.9692 -2.1133)
(-1.73133e-13 29.9692 -2.1133)
(-3.11597e-14 29.2857 -2.10375)
(-1.24639e-13 29.2857 -2.10375)
(0 28.6205 -2.09445)
(1.25228e-13 28.6205 -2.09445)
(3.14535e-14 27.9731 -2.08538)
(4.64369e-14 27.9731 -2.08538)
(6.31989e-14 27.3428 -2.07654)
(1.26398e-13 27.3428 -2.07654)
(-3.17448e-14 26.7292 -2.06793)
(8.22284e-14 26.7292 -2.06793)
(-4.39306e-14 26.1317 -2.05953)
(0 26.1317 -2.05953)
(3.20335e-14 25.5498 -2.05135)
(0 25.5498 -2.05135)
(-1.01584e-14 24.983 -2.04336)
(1.71043e-13 24.983 -2.04336)
(3.23198e-14 24.4307 -2.03558)
(8.77196e-14 24.4307 -2.03558)
(3.24621e-14 23.8926 -2.02798)
(0 23.8926 -2.02798)
(0 23.3681 -2.02057)
(-1.30415e-13 23.3681 -2.02057)
(7.20615e-14 22.8569 -2.01334)
(-3.93164e-14 22.8569 -2.01334)
(5.71026e-15 22.3586 -2.00629)
(-3.8596e-14 22.3586 -2.00629)
(0 21.8727 -1.9994)
(0 21.8727 -1.9994)
(-4.02886e-15 21.3989 -1.99267)
(0 21.3989 -1.99267)
(1.03122e-13 20.9369 -1.9861)
(0 20.9369 -1.9861)
(0 20.4861 -1.97969)
(0 20.4861 -1.97969)
(3.35817e-14 20.0464 -1.97342)
(2.68653e-13 20.0464 -1.97342)
(0 19.6173 -1.96729)
(0 19.6173 -1.96729)
(-1.01675e-13 19.1987 -1.96131)
(0 19.1987 -1.96131)
(-3.39937e-14 18.79 -1.95545)
(0 18.79 -1.95545)
(0 18.3912 -1.94973)
(3.26778e-14 18.3912 -1.94973)
(3.42663e-14 18.0018 -1.94412)
(0 18.0018 -1.94412)
(3.14912e-14 17.6216 -1.93864)
(0 17.6216 -1.93864)
(6.90744e-14 17.2503 -1.93327)
(-1.38149e-13 17.2503 -1.93327)
(6.93441e-14 16.8877 -1.92801)
(-1.38688e-13 16.8877 -1.92801)
(2.47764e-14 16.5336 -1.92286)
(-4.17679e-13 16.5336 -1.92286)
(-3.49407e-14 16.1876 -1.91781)
(0 16.1876 -1.91781)
(0 15.8495 -1.91285)
(8.28785e-14 15.8495 -1.91285)
(-5.63671e-14 15.5192 -1.90799)
(0 15.5192 -1.90799)
(3.53409e-14 15.1964 -1.90322)
(0 15.1964 -1.90322)
(-3.54736e-14 14.8809 -1.89853)
(-1.96215e-13 14.8809 -1.89853)
(0 14.5725 -1.89392)
(0 14.5725 -1.89392)
(3.5738e-14 14.271 -1.88939)
(1.42952e-13 14.271 -1.88939)
(7.17395e-14 13.9762 -1.88493)
(-1.43479e-13 13.9762 -1.88493)
(0 13.6879 -1.88054)
(-1.44005e-13 13.6879 -1.88054)
(3.61323e-14 13.406 -1.87621)
(-4.95223e-14 13.406 -1.87621)
(-4.86148e-14 13.1302 -1.87194)
(-1.45052e-13 13.1302 -1.87194)
(0 12.8604 -1.86773)
(-2.91148e-13 12.8604 -1.86773)
(0 12.5964 -1.86356)
(0 12.5964 -1.86356)
(7.33071e-14 12.3382 -1.85944)
(1.46614e-13 12.3382 -1.85944)
(3.67832e-14 12.0854 -1.85537)
(-4.51482e-14 12.0854 -1.85537)
(0 11.838 -1.85133)
(1.4765e-13 11.838 -1.85133)
(3.70415e-14 11.5959 -1.84732)
(-1.48166e-13 11.5959 -1.84732)
(0 11.3588 -1.84334)
(-1.48681e-13 11.3588 -1.84334)
(0 11.1267 -1.83938)
(0 11.1267 -1.83938)
(3.74269e-14 10.8994 -1.83545)
(-1.49707e-13 10.8994 -1.83545)
(7.51095e-14 10.6767 -1.83152)
(-1.50219e-13 10.6767 -1.83152)
(3.76824e-14 10.4587 -1.82761)
(1.11064e-13 10.4587 -1.82761)
(7.56195e-14 10.2451 -1.8237)
(1.123e-13 10.2451 -1.8237)
(7.61622e-14 10.0358 -1.81978)
(-3.82253e-14 10.0358 -1.81978)
(3.69861e-14 9.83071 -1.81586)
(-3.75249e-14 9.83071 -1.81586)
(3.81902e-14 9.62972 -1.81193)
(-1.52761e-13 9.62972 -1.81193)
(3.83165e-14 9.43272 -1.80798)
(1.17104e-13 9.43272 -1.80798)
(7.6885e-14 9.2396 -1.80401)
(0 9.2396 -1.80401)
(3.4849e-14 9.05026 -1.8)
(1.54273e-13 9.05026 -1.8)
(-4.48326e-15 8.86459 -1.79596)
(-1.88985e-13 8.86459 -1.79596)
(1.11221e-13 8.6825 -1.79188)
(-1.88859e-13 8.6825 -1.79188)
(2.69925e-14 8.50388 -1.78775)
(-3.77486e-13 8.50388 -1.78775)
(7.14324e-14 8.32866 -1.78357)
(-1.88638e-13 8.32866 -1.78357)
(-3.17709e-14 8.15673 -1.77932)
(1.56771e-13 8.15673 -1.77932)
(1.62562e-14 7.988 -1.775)
(1.57267e-13 7.988 -1.775)
(1.00675e-13 7.8224 -1.7706)
(-1.57762e-13 7.8224 -1.7706)
(-2.05482e-14 7.65983 -1.76612)
(0 7.65983 -1.76612)
(0 7.5002 -1.76154)
(-1.58749e-13 7.5002 -1.76154)
(0 7.34345 -1.75686)
(-1.59241e-13 7.34345 -1.75686)
(0 7.18948 -1.75207)
(-1.59731e-13 7.18948 -1.75207)
(0 7.03822 -1.74716)
(0 7.03822 -1.74716)
(4.01769e-14 6.8896 -1.74212)
(0 6.8896 -1.74212)
(4.02985e-14 6.74353 -1.73693)
(1.61194e-13 6.74353 -1.73693)
(4.04198e-14 6.59995 -1.7316)
(-5.28127e-14 6.59995 -1.7316)
(0 6.45877 -1.7261)
(1.62163e-13 6.45877 -1.7261)
(0 6.31993 -1.72043)
(-5.08949e-14 6.31993 -1.72043)
(4.99623e-14 6.18336 -1.71457)
(-2.13088e-13 6.18336 -1.71457)
(-4.90467e-14 6.04899 -1.7085)
(-4.90467e-14 6.04899 -1.7085)
(-4.10207e-14 5.91674 -1.70223)
(-4.8148e-14 5.91674 -1.70223)
(6.12597e-15 5.78656 -1.69572)
(-2.11824e-13 5.78656 -1.69572)
(5.14125e-15 5.65836 -1.68897)
(-2.11433e-13 5.65836 -1.68897)
(0 5.5321 -1.68196)
(0 5.5321 -1.68196)
(4.47146e-14 5.40769 -1.67467)
(-3.76668e-13 5.40769 -1.67467)
(0 5.28508 -1.66709)
(-1.66446e-13 5.28508 -1.66709)
(0 5.16419 -1.65919)
(0 5.16419 -1.65919)
(4.23012e-14 5.04497 -1.65095)
(-2.09679e-13 5.04497 -1.65095)
(-4.34161e-16 4.92734 -1.64235)
(0 4.92734 -1.64235)
(8.41509e-14 4.81125 -1.63338)
(1.27537e-13 4.81125 -1.63338)
(8.43802e-14 4.69662 -1.624)
(0 4.69662 -1.624)
(8.46083e-14 4.58339 -1.61418)
(-2.08501e-13 4.58339 -1.61418)
(8.09825e-14 4.4715 -1.60391)
(-3.85649e-14 4.4715 -1.60391)
(-4.25304e-14 4.36087 -1.59314)
(-3.78582e-14 4.36087 -1.59314)
(3.71645e-14 4.25143 -1.58185)
(1.7057e-13 4.25143 -1.58185)
(-4.27539e-14 4.14313 -1.57001)
(1.34532e-13 4.14313 -1.57001)
(3.58149e-14 4.03587 -1.55757)
(-2.07273e-13 4.03587 -1.55757)
(0 3.92961 -1.54449)
(-2.42215e-13 3.92961 -1.54449)
(-1.12112e-13 3.82425 -1.53074)
(-1.72334e-13 3.82425 -1.53074)
(8.63835e-14 3.71972 -1.51627)
(-1.72767e-13 3.71972 -1.51627)
(4.32991e-14 3.61594 -1.50102)
(0 3.61594 -1.50102)
(0 3.51284 -1.48494)
(1.08319e-13 3.51284 -1.48494)
(0 3.41032 -1.46797)
(0 3.41032 -1.46797)
(0 3.30829 -1.45006)
(-2.37392e-13 3.30829 -1.45006)
(0 3.20666 -1.43112)
(0 3.20666 -1.43112)
(-1.68258e-14 3.10534 -1.41109)
(1.75282e-13 3.10534 -1.41109)
(1.03456e-13 3.00422 -1.38988)
(-4.10906e-13 3.00422 -1.38988)
(0 2.90318 -1.3674)
(0 2.90318 -1.3674)
(-1.3254e-14 2.80212 -1.34356)
(0 2.80212 -1.34356)
(4.42159e-14 2.7009 -1.31824)
(-1.76863e-13 2.7009 -1.31824)
(1.09786e-14 2.5994 -1.29132)
(6.6665e-14 2.5994 -1.29132)
(3.45328e-14 2.49746 -1.26269)
(1.77619e-13 2.49746 -1.26269)
(3.57111e-14 2.39495 -1.23219)
(0 2.39495 -1.23219)
(-7.71902e-15 2.2917 -1.19967)
(-5.23055e-14 2.2917 -1.19967)
(4.46746e-14 2.18754 -1.16495)
(0 2.18754 -1.16495)
(-5.64557e-15 2.08227 -1.12786)
(-1.79042e-13 2.08227 -1.12786)
(4.48443e-14 1.9757 -1.08818)
(1.79377e-13 1.9757 -1.08818)
(0 1.86763 -1.0457)
(-1.79703e-13 1.86763 -1.0457)
(4.50046e-14 1.75782 -1.00017)
(-2.27704e-13 1.75782 -1.00017)
(-1.73096e-15 1.64605 -0.951329)
(9.36235e-14 1.64605 -0.951329)
(4.59539e-14 1.53208 -0.898898)
(1.80616e-13 1.53208 -0.898898)
(9.02237e-14 1.41566 -0.842585)
(-4.52018e-13 1.41566 -0.842585)
(-8.85704e-14 1.29655 -0.782077)
(-9.25941e-14 1.29655 -0.782077)
(4.53544e-14 1.17452 -0.717058)
(-1.81418e-13 1.17452 -0.717058)
(4.54139e-14 1.04935 -0.647207)
(9.63014e-14 1.04935 -0.647207)
(4.54692e-14 0.920832 -0.572208)
(-3.63754e-13 0.920832 -0.572208)
(9.10401e-14 0.788831 -0.491765)
(-1.8208e-13 0.788831 -0.491765)
(8.07473e-14 0.653243 -0.405605)
(-8.07473e-14 0.653243 -0.405605)
(-8.52409e-14 0.514034 -0.3135)
(1.82428e-13 0.514034 -0.3135)
(7.78151e-14 0.371249 -0.215269)
(-2.60385e-13 0.371249 -0.215269)
(-4.56719e-14 0.225011 -0.11079)
(1.82688e-13 0.225011 -0.11079)
(4.5695e-14 8.34086e-07 -3.08718e-07)
(1.83006e-13 5.48017e-07 -2.02836e-07)
(4.57516e-14 -8.10282e-07 2.9991e-07)
(2.57769e-13 -5.23603e-07 1.938e-07)
(-3.81946e-14 -0.22501 0.11079)
(2.88986e-13 -0.22501 0.11079)
(-4.56425e-14 -0.371248 0.215269)
(-7.78151e-14 -0.371248 0.215269)
(0 -0.514034 0.3135)
(1.82428e-13 -0.514034 0.3135)
(-8.07473e-14 -0.653242 0.405605)
(4.45276e-13 -0.653242 0.405605)
(-4.55201e-14 -0.788831 0.491764)
(-1.8208e-13 -0.788831 0.491764)
(8.379e-14 -0.920832 0.572208)
(0 -0.920832 0.572208)
(-4.54139e-14 -1.04934 0.647207)
(-1.81655e-13 -1.04934 0.647207)
(0 -1.17452 0.717058)
(0 -1.17452 0.717058)
(4.52911e-14 -1.29655 0.782077)
(0 -1.29655 0.782077)
(0 -1.41566 0.842584)
(1.80897e-13 -1.41566 0.842584)
(0 -1.53208 0.898898)
(2.72524e-13 -1.53208 0.898898)
(0 -1.64605 0.951328)
(0 -1.64605 0.951328)
(-4.50046e-14 -1.75782 1.00017)
(-1.80018e-13 -1.75782 1.00017)
(8.98515e-14 -1.86763 1.0457)
(-4.85757e-14 -1.86763 1.0457)
(0 -1.9757 1.08818)
(0 -1.9757 1.08818)
(1.39927e-13 -2.08227 1.12786)
(1.28636e-13 -2.08227 1.12786)
(-4.46746e-14 -2.18754 1.16495)
(-1.78698e-13 -2.18754 1.16495)