/*--------------------------------*- C++ -*----------------------------------*\
| =========                 |                                                 |
| \\      /  F ield         | OpenFOAM: The Open Source CFD Toolbox           |
|  \\    /   O peration     | Version:  2106                                  |
|   \\  /    A nd           | Website:  www.openfoam.com                      |
|    \\/     M anipulation  |                                                 |
\*---------------------------------------------------------------------------*/
FoamFile
{
    version     2.0;
    format      ascii;
    arch        "LSB;label=32;scalar=64";
    class       volScalarField;
    location    "10020";
    object      p;
}
// * * * * * * * * * * * * * * * * * * * * * * * * * * * * * * * * * * * * * //

dimensions      [0 2 -2 0 0 0 0];

internalField   nonuniform List<scalar> 
2000
(
1.1399e-15
1.35374e-14
2.63884e-15
1.35383e-14
3.04676e-15
1.35394e-14
3.15778e-15
1.35414e-14
3.31781e-15
1.3544e-14
3.50879e-15
1.35474e-14
3.69782e-15
1.35516e-14
3.88077e-15
1.35565e-14
4.05935e-15
1.35623e-14
4.23371e-15
1.35688e-14
4.40358e-15
1.35759e-14
4.56882e-15
1.35838e-14
4.7294e-15
1.35925e-14
4.88541e-15
1.36018e-14
5.03688e-15
1.36119e-14
5.1839e-15
1.36227e-14
5.32675e-15
1.3634e-14
5.46545e-15
1.3646e-14
5.6001e-15
1.36587e-14
5.73075e-15
1.36719e-14
5.85756e-15
1.36857e-14
5.98059e-15
1.37001e-14
6.09996e-15
1.37152e-14
6.21598e-15
1.37308e-14
6.32855e-15
1.3747e-14
6.43782e-15
1.37639e-14
6.54402e-15
1.37815e-14
6.64748e-15
1.37996e-14
6.74813e-15
1.38185e-14
6.84623e-15
1.38379e-14
6.94168e-15
1.38581e-14
7.03489e-15
1.38792e-14
7.12613e-15
1.39009e-14
7.21549e-15
1.39234e-14
7.30328e-15
1.39467e-14
7.38975e-15
1.39708e-14
7.47477e-15
1.39956e-14
7.55855e-15
1.40216e-14
7.6412e-15
1.40487e-14
7.72264e-15
1.40767e-14
7.80302e-15
1.4106e-14
7.88232e-15
1.41368e-14
7.96092e-15
1.41686e-14
8.03895e-15
1.42015e-14
8.11624e-15
1.42354e-14
8.19278e-15
1.42705e-14
8.26876e-15
1.43065e-14
8.34453e-15
1.43436e-14
8.4199e-15
1.43828e-14
8.49459e-15
1.44235e-14
8.56857e-15
1.44651e-14
8.64262e-15
1.45078e-14
8.71471e-15
1.45525e-14
8.78675e-15
1.45986e-14
8.85776e-15
1.46461e-14
8.92764e-15
1.46952e-14
8.99699e-15
1.47455e-14
9.06672e-15
1.47975e-14
9.13576e-15
1.48504e-14
9.20352e-15
1.49045e-14
9.27092e-15
1.49591e-14
9.33707e-15
1.50137e-14
9.40265e-15
1.50703e-14
9.46703e-15
1.51294e-14
9.53176e-15
1.51887e-14
9.5945e-15
1.52496e-14
9.65625e-15
1.53107e-14
9.71631e-15
1.53723e-14
9.77573e-15
1.54342e-14
9.83501e-15
1.54971e-14
9.89222e-15
1.55612e-14
9.94781e-15
1.56276e-14
1.00029e-14
1.56958e-14
1.00555e-14
1.5764e-14
1.01093e-14
1.58303e-14
1.01616e-14
1.58987e-14
1.02142e-14
1.59684e-14
1.02685e-14
1.60371e-14
1.03208e-14
1.61052e-14
1.03753e-14
1.61729e-14
1.04325e-14
1.62382e-14
1.04881e-14
1.63045e-14
1.05435e-14
1.63714e-14
1.0599e-14
1.64351e-14
1.06555e-14
1.64972e-14
1.07111e-14
1.65615e-14
1.07674e-14
1.66274e-14
1.08272e-14
1.66897e-14
1.08873e-14
1.67514e-14
1.09491e-14
1.68159e-14
1.10125e-14
1.68768e-14
1.10789e-14
1.69392e-14
1.11466e-14
1.70015e-14
1.12122e-14
1.70606e-14
1.12803e-14
1.71198e-14
1.13525e-14
1.71827e-14
1.14252e-14
1.72476e-14
1.14965e-14
1.73132e-14
1.1568e-14
1.73796e-14
1.16394e-14
1.7447e-14
1.17086e-14
1.75173e-14
1.17806e-14
1.7589e-14
1.18534e-14
1.76605e-14
1.19302e-14
1.77269e-14
1.2009e-14
1.77935e-14
1.20895e-14
1.78642e-14
1.21715e-14
1.79355e-14
1.22546e-14
1.80096e-14
1.23403e-14
1.80776e-14
1.24356e-14
1.8147e-14
1.25237e-14
1.82163e-14
1.26172e-14
1.82856e-14
1.27119e-14
1.8359e-14
1.28131e-14
1.84312e-14
1.29168e-14
1.84987e-14
1.30224e-14
1.85616e-14
1.31279e-14
1.86297e-14
1.32347e-14
1.86957e-14
1.33385e-14
1.87559e-14
1.34542e-14
1.88146e-14
1.35662e-14
1.88756e-14
1.36816e-14
1.89433e-14
1.38001e-14
1.90023e-14
1.3933e-14
1.90608e-14
1.40603e-14
1.9111e-14
1.41934e-14
1.9165e-14
1.43202e-14
1.92229e-14
1.44441e-14
1.9285e-14
1.45725e-14
1.93319e-14
1.47091e-14
1.93796e-14
1.48494e-14
1.94361e-14
1.49852e-14
1.94978e-14
1.51119e-14
1.9557e-14
1.5241e-14
1.9618e-14
1.53601e-14
1.9701e-14
1.54844e-14
1.97826e-14
1.56134e-14
1.98551e-14
1.57466e-14
1.99268e-14
1.58792e-14
1.99982e-14
1.60109e-14
2.00615e-14
1.6145e-14
2.01087e-14
1.62812e-14
2.01686e-14
1.64147e-14
2.02375e-14
1.6545e-14
2.03031e-14
1.66838e-14
2.03537e-14
1.68224e-14
2.04179e-14
1.69562e-14
2.04919e-14
1.70968e-14
2.05596e-14
1.7248e-14
2.06253e-14
1.73846e-14
2.06973e-14
1.75141e-14
2.07511e-14
1.76442e-14
2.08034e-14
1.77744e-14
2.08624e-14
1.79452e-14
2.0912e-14
1.81071e-14
2.09682e-14
1.82516e-14
2.10308e-14
1.83949e-14
2.10998e-14
1.85447e-14
2.11671e-14
1.86924e-14
2.12077e-14
1.88379e-14
2.12542e-14
1.90057e-14
2.13145e-14
1.91794e-14
2.13716e-14
1.93342e-14
2.14331e-14
1.94784e-14
2.15069e-14
1.96283e-14
2.15928e-14
1.97835e-14
2.16577e-14
1.9944e-14
2.17093e-14
2.011e-14
2.17712e-14
2.02738e-14
2.18504e-14
2.04273e-14
2.19216e-14
2.05789e-14
2.19759e-14
2.07374e-14
2.20284e-14
2.08787e-14
2.20862e-14
2.10441e-14
2.21564e-14
2.11934e-14
2.22456e-14
2.13595e-14
2.23122e-14
2.15023e-14
2.23708e-14
2.16552e-14
2.24443e-14
2.18107e-14
2.25233e-14
2.19776e-14
2.25819e-14
2.21494e-14
2.26416e-14
2.22798e-14
2.26834e-14
2.23701e-14
2.27369e-14
2.24844e-14
2.28008e-14
2.26068e-14
2.28419e-14
2.27386e-14
2.29216e-14
2.28335e-14
2.30532e-14
2.29529e-14
2.31262e-14
2.30654e-14
2.32022e-14
2.31873e-14
2.32479e-14
2.32887e-14
2.33233e-14
2.33856e-14
2.34109e-14
2.34778e-14
2.35096e-14
2.35801e-14
2.35877e-14
2.36773e-14
2.36432e-14
2.37859e-14
2.37354e-14
2.38445e-14
2.38775e-14
2.39111e-14
2.39642e-14
2.39989e-14
2.4058e-14
2.40922e-14
2.41132e-14
2.41615e-14
2.41741e-14
2.4237e-14
2.42553e-14
2.43182e-14
2.43421e-14
2.44051e-14
2.44043e-14
2.44375e-14
2.4471e-14
2.45179e-14
2.45738e-14
2.45701e-14
2.46395e-14
2.46224e-14
2.46697e-14
2.47045e-14
2.4722e-14
2.47892e-14
2.47938e-14
2.48635e-14
2.48533e-14
2.49287e-14
2.48988e-14
2.49276e-14
2.49575e-14
2.50416e-14
2.50197e-14
2.5101e-14
2.50803e-14
2.51336e-14
2.51379e-14
2.52208e-14
2.52504e-14
2.52755e-14
2.53374e-14
2.53252e-14
2.53757e-14
2.53704e-14
2.54211e-14
2.54897e-14
2.54732e-14
2.54992e-14
2.55248e-14
2.5531e-14
2.55777e-14
2.56349e-14
2.56879e-14
2.57545e-14
2.58022e-14
2.58648e-14
2.58679e-14
2.59431e-14
2.59347e-14
2.59616e-14
2.6054e-14
2.60364e-14
2.61329e-14
2.61359e-14
2.61742e-14
2.62168e-14
2.62518e-14
2.62807e-14
2.6314e-14
2.63052e-14
2.63817e-14
2.63101e-14
2.64342e-14
2.64081e-14
2.6504e-14
2.63834e-14
2.66383e-14
2.64303e-14
2.67161e-14
2.64949e-14
2.6798e-14
2.65315e-14
2.68268e-14
2.6584e-14
2.68553e-14
2.66711e-14
2.68539e-14
2.6788e-14
2.68271e-14
2.69215e-14
2.68407e-14
2.69404e-14
2.69123e-14
2.69726e-14
2.69399e-14
2.70212e-14
2.69468e-14
2.69612e-14
2.697e-14
2.70175e-14
2.70257e-14
2.70587e-14
2.70241e-14
2.70555e-14
2.70456e-14
1.05189e-14
1.13086e-14
1.05194e-14
1.13088e-14
1.05201e-14
1.13091e-14
1.05211e-14
1.13096e-14
1.05226e-14
1.13103e-14
1.05246e-14
1.13111e-14
1.0527e-14
1.13122e-14
1.05298e-14
1.13134e-14
1.0533e-14
1.13149e-14
1.05367e-14
1.13167e-14
1.05408e-14
1.13187e-14
1.05452e-14
1.1321e-14
1.05501e-14
1.13235e-14
1.05554e-14
1.13263e-14
1.05613e-14
1.13292e-14
1.05675e-14
1.13324e-14
1.05742e-14
1.13359e-14
1.05812e-14
1.13396e-14
1.05886e-14
1.13436e-14
1.05964e-14
1.13481e-14
1.06046e-14
1.13528e-14
1.06132e-14
1.13578e-14
1.06223e-14
1.13632e-14
1.06317e-14
1.13688e-14
1.06416e-14
1.13748e-14
1.06519e-14
1.13811e-14
1.06627e-14
1.13878e-14
1.06739e-14
1.13947e-14
1.06856e-14
1.1402e-14
1.06979e-14
1.14098e-14
1.07108e-14
1.1418e-14
1.07243e-14
1.14267e-14
1.07385e-14
1.14358e-14
1.07535e-14
1.14454e-14
1.07691e-14
1.14553e-14
1.07854e-14
1.1466e-14
1.08026e-14
1.14774e-14
1.08204e-14
1.14894e-14
1.08391e-14
1.15022e-14
1.08586e-14
1.15156e-14
1.08791e-14
1.15298e-14
1.09006e-14
1.1545e-14
1.09229e-14
1.15609e-14
1.09459e-14
1.15783e-14
1.09703e-14
1.15967e-14
1.09959e-14
1.16162e-14
1.10232e-14
1.16363e-14
1.10515e-14
1.16574e-14
1.10809e-14
1.16805e-14
1.11119e-14
1.17052e-14
1.11443e-14
1.17305e-14
1.11781e-14
1.17568e-14
1.12134e-14
1.17851e-14
1.12503e-14
1.18143e-14
1.12888e-14
1.18448e-14
1.13289e-14
1.18775e-14
1.13707e-14
1.19113e-14
1.14134e-14
1.19469e-14
1.14585e-14
1.1983e-14
1.15056e-14
1.20198e-14
1.15545e-14
1.20579e-14
1.16037e-14
1.20994e-14
1.1654e-14
1.21419e-14
1.17082e-14
1.21855e-14
1.17641e-14
1.22307e-14
1.18211e-14
1.22782e-14
1.18794e-14
1.23284e-14
1.194e-14
1.23798e-14
1.2003e-14
1.2431e-14
1.20673e-14
1.24846e-14
1.21316e-14
1.25429e-14
1.21978e-14
1.26036e-14
1.2266e-14
1.26648e-14
1.23354e-14
1.27264e-14
1.24087e-14
1.27892e-14
1.24821e-14
1.28523e-14
1.25562e-14
1.29219e-14
1.26296e-14
1.29959e-14
1.27071e-14
1.30662e-14
1.2786e-14
1.31376e-14
1.28656e-14
1.32142e-14
1.2946e-14
1.32947e-14
1.30263e-14
1.33741e-14
1.31088e-14
1.34508e-14
1.31935e-14
1.35284e-14
1.32805e-14
1.36137e-14
1.33676e-14
1.3703e-14
1.34554e-14
1.37917e-14
1.35432e-14
1.38805e-14
1.36342e-14
1.39726e-14
1.37269e-14
1.40663e-14
1.38196e-14
1.41617e-14
1.39123e-14
1.42604e-14
1.40084e-14
1.43591e-14
1.41046e-14
1.44579e-14
1.42026e-14
1.45599e-14
1.43007e-14
1.46652e-14
1.43989e-14
1.47688e-14
1.44991e-14
1.48741e-14
1.45994e-14
1.49775e-14
1.47016e-14
1.50791e-14
1.48058e-14
1.51926e-14
1.49121e-14
1.5306e-14
1.50205e-14
1.54157e-14
1.51257e-14
1.5527e-14
1.52349e-14
1.56434e-14
1.53446e-14
1.57578e-14
1.54548e-14
1.58702e-14
1.55637e-14
1.59842e-14
1.56732e-14
1.61015e-14
1.57962e-14
1.6215e-14
1.59071e-14
1.63262e-14
1.60225e-14
1.64409e-14
1.61369e-14
1.65589e-14
1.62541e-14
1.66804e-14
1.63723e-14
1.68015e-14
1.64878e-14
1.69262e-14
1.66063e-14
1.7043e-14
1.67242e-14
1.71557e-14
1.68415e-14
1.72681e-14
1.69659e-14
1.73878e-14
1.70822e-14
1.75151e-14
1.72021e-14
1.76383e-14
1.73216e-14
1.77458e-14
1.7441e-14
1.7853e-14
1.75564e-14
1.79601e-14
1.76758e-14
1.80669e-14
1.77954e-14
1.81815e-14
1.79113e-14
1.82959e-14
1.80196e-14
1.83983e-14
1.81364e-14
1.84888e-14
1.82499e-14
1.8595e-14
1.83641e-14
1.86972e-14
1.84753e-14
1.87992e-14
1.85876e-14
1.88972e-14
1.86972e-14
1.8995e-14
1.88083e-14
1.90927e-14
1.89129e-14
1.91902e-14
1.90113e-14
1.92915e-14
1.91156e-14
1.93927e-14
1.92262e-14
1.94938e-14
1.93431e-14
1.96112e-14
1.94625e-14
1.97328e-14
1.95599e-14
1.98465e-14
1.966e-14
1.99565e-14
1.97588e-14
2.00673e-14
1.9848e-14
2.01831e-14
1.99482e-14
2.03042e-14
2.00552e-14
2.04268e-14
2.01608e-14
2.05431e-14
2.02733e-14
2.06368e-14
2.03848e-14
2.07328e-14
2.05038e-14
2.08393e-14
2.06059e-14
2.09566e-14
2.07074e-14
2.10769e-14
2.08083e-14
2.11675e-14
2.09087e-14
2.12619e-14
2.10171e-14
2.13766e-14
2.11252e-14
2.14872e-14
2.12414e-14
2.15861e-14
2.13577e-14
2.16899e-14
2.1466e-14
2.1799e-14
2.15746e-14
2.18808e-14
2.16673e-14
2.19683e-14
2.1769e-14
2.20784e-14
2.18795e-14
2.21949e-14
2.19908e-14
2.23268e-14
2.21024e-14
2.24502e-14
2.22061e-14
2.25497e-14
2.23017e-14
2.2675e-14
2.24052e-14
2.27616e-14
2.25086e-14
2.28427e-14
2.26203e-14
2.2935e-14
2.27243e-14
2.30472e-14
2.28367e-14
2.31636e-14
2.29574e-14
2.32688e-14
2.30702e-14
2.33553e-14
2.31757e-14
2.34397e-14
2.32906e-14
2.35384e-14
2.34069e-14
2.36682e-14
2.34999e-14
2.37818e-14
2.36172e-14
2.38812e-14
2.37272e-14
2.39511e-14
2.38473e-14
2.39918e-14
2.39319e-14
2.4066e-14
2.39814e-14
2.41905e-14
2.41211e-14
2.42885e-14
2.42254e-14
2.43912e-14
2.43265e-14
2.4468e-14
2.44256e-14
2.45511e-14
2.45075e-14
2.46254e-14
2.45885e-14
2.47076e-14
2.46692e-14
2.47984e-14
2.47494e-14
2.4899e-14
2.48288e-14
2.49802e-14
2.4892e-14
2.51061e-14
2.49521e-14
2.51875e-14
2.50398e-14
2.52413e-14
2.50801e-14
2.52823e-14
2.51496e-14
2.52956e-14
2.52048e-14
2.53254e-14
2.52473e-14
2.53406e-14
2.52785e-14
2.54003e-14
2.53719e-14
2.54157e-14
2.53969e-14
2.54435e-14
2.54441e-14
2.54987e-14
2.54833e-14
2.5507e-14
2.55316e-14
2.55259e-14
2.55474e-14
2.55691e-14
2.55723e-14
2.56536e-14
2.56019e-14
2.5711e-14
2.56626e-14
2.57302e-14
2.56997e-14
2.57383e-14
2.57895e-14
2.5805e-14
2.58475e-14
2.58721e-14
2.59027e-14
2.59134e-14
2.59584e-14
2.59287e-14
2.59332e-14
2.59408e-14
2.5963e-14
2.59506e-14
2.60771e-14
2.59842e-14
2.60922e-14
2.60346e-14
2.61133e-14
2.61055e-14
2.61647e-14
2.61487e-14
2.62493e-14
2.62187e-14
2.63146e-14
2.62858e-14
2.64129e-14
2.63219e-14
2.65249e-14
2.63729e-14
2.65818e-14
2.6458e-14
2.66908e-14
2.64993e-14
2.67336e-14
2.6487e-14
2.67692e-14
2.65409e-14
2.67697e-14
2.66604e-14
2.67687e-14
2.67369e-14
2.68315e-14
2.67832e-14
2.68144e-14
2.6823e-14
2.6828e-14
2.69139e-14
2.6814e-14
2.69412e-14
2.67616e-14
2.68854e-14
2.68337e-14
2.68838e-14
2.69479e-14
2.69451e-14
2.69755e-14
2.69898e-14
2.7006e-14
2.69784e-14
2.70403e-14
2.70245e-14
2.70901e-14
2.7039e-14
2.70967e-14
2.70562e-14
2.71032e-14
2.70538e-14
2.7131e-14
2.7099e-14
2.71179e-14
2.71288e-14
2.71148e-14
2.71281e-14
2.70695e-14
2.70987e-14
2.70532e-14
2.70572e-14
2.71341e-14
2.71058e-14
2.71739e-14
2.71435e-14
2.71715e-14
2.71229e-14
2.71519e-14
2.71303e-14
2.71833e-14
2.71982e-14
2.71846e-14
2.72417e-14
2.72145e-14
2.72449e-14
2.72141e-14
2.72274e-14
2.71859e-14
2.72316e-14
2.71903e-14
2.7213e-14
2.7183e-14
2.72173e-14
2.72523e-14
2.72707e-14
2.72899e-14
2.72989e-14
2.73e-14
2.73031e-14
2.72815e-14
2.73058e-14
2.73313e-14
2.73346e-14
2.73786e-14
2.74102e-14
2.74204e-14
2.74129e-14
2.74631e-14
2.74159e-14
2.74657e-14
2.74412e-14
2.74745e-14
2.74656e-14
2.74842e-14
2.74648e-14
2.74959e-14
2.74871e-14
2.75364e-14
2.75061e-14
2.75536e-14
2.75459e-14
2.75451e-14
2.75844e-14
2.7505e-14
2.75994e-14
2.75077e-14
2.75689e-14
2.75563e-14
2.75425e-14
2.75771e-14
2.75661e-14
2.75934e-14
2.76125e-14
2.75765e-14
2.76317e-14
2.75233e-14
2.76554e-14
2.7537e-14
2.76609e-14
2.7593e-14
2.76736e-14
2.76118e-14
2.76891e-14
2.75925e-14
2.77059e-14
2.76202e-14
2.77272e-14
2.76541e-14
2.77515e-14
2.76374e-14
2.77347e-14
2.76295e-14
2.77347e-14
2.76744e-14
2.77381e-14
2.76712e-14
2.7743e-14
2.76927e-14
2.77504e-14
2.76963e-14
2.77307e-14
2.76987e-14
2.77418e-14
2.76546e-14
2.77382e-14
2.76519e-14
2.77073e-14
2.76626e-14
2.76935e-14
2.76571e-14
2.77102e-14
2.76347e-14
2.77288e-14
2.76252e-14
2.77048e-14
2.7645e-14
2.76523e-14
2.76363e-14
2.75987e-14
2.76304e-14
2.76184e-14
2.76415e-14
2.76666e-14
2.76215e-14
2.76824e-14
2.76156e-14
2.7652e-14
2.76086e-14
2.76057e-14
2.76017e-14
2.76054e-14
2.75944e-14
2.76358e-14
2.7586e-14
2.7651e-14
2.75917e-14
2.76521e-14
2.75798e-14
2.76547e-14
2.75819e-14
2.76591e-14
2.7582e-14
2.76813e-14
2.75796e-14
2.76736e-14
2.7591e-14
2.76517e-14
2.76173e-14
2.76145e-14
2.75953e-14
2.75764e-14
2.75735e-14
2.75695e-14
2.7584e-14
2.75944e-14
2.75862e-14
2.75948e-14
2.75801e-14
2.75868e-14
2.75903e-14
2.75785e-14
2.75928e-14
2.75859e-14
2.75956e-14
2.75687e-14
2.75992e-14
2.75345e-14
2.75876e-14
2.75483e-14
2.75686e-14
2.7586e-14
2.75657e-14
2.76073e-14
2.75541e-14
2.76045e-14
2.75416e-14
2.76024e-14
2.75445e-14
2.75848e-14
2.75467e-14
2.75761e-14
2.75566e-14
2.75762e-14
2.75496e-14
2.75682e-14
2.7534e-14
2.75604e-14
2.75346e-14
2.75608e-14
2.75182e-14
2.75696e-14
2.75011e-14
2.75869e-14
2.74914e-14
2.75883e-14
2.74888e-14
2.7574e-14
2.74852e-14
2.75686e-14
2.74808e-14
2.75721e-14
2.74754e-14
2.75679e-14
2.74691e-14
2.75644e-14
2.74619e-14
2.75615e-14
2.74621e-14
2.75427e-14
2.74615e-14
2.75244e-14
2.74603e-14
2.75229e-14
2.74586e-14
2.75216e-14
2.74646e-14
2.75205e-14
2.74662e-14
2.75279e-14
2.74755e-14
2.75354e-14
2.74764e-14
2.75309e-14
2.74729e-14
2.75223e-14
2.74732e-14
2.75179e-14
2.74733e-14
2.75176e-14
2.74733e-14
2.75132e-14
2.74731e-14
2.75211e-14
2.74728e-14
2.7525e-14
2.74682e-14
2.75289e-14
2.74634e-14
2.7529e-14
2.74583e-14
2.75172e-14
2.74572e-14
2.75095e-14
2.74558e-14
2.75099e-14
2.74463e-14
2.75184e-14
2.74486e-14
2.75271e-14
2.74506e-14
2.7524e-14
2.74485e-14
2.75251e-14
2.74422e-14
2.75264e-14
2.74475e-14
2.75359e-14
2.74564e-14
2.75534e-14
2.74534e-14
2.75554e-14
2.7454e-14
2.7546e-14
2.74583e-14
2.75486e-14
2.74623e-14
2.75591e-14
2.74623e-14
2.7566e-14
2.7462e-14
2.75655e-14
2.74654e-14
2.75728e-14
2.74685e-14
2.75842e-14
2.74714e-14
2.75883e-14
2.7474e-14
2.7585e-14
2.74782e-14
2.75877e-14
2.74804e-14
2.75981e-14
2.74787e-14
2.76105e-14
2.7486e-14
2.7612e-14
2.74912e-14
2.76083e-14
2.74925e-14
2.76084e-14
2.74955e-14
2.76123e-14
2.75019e-14
2.76129e-14
2.75064e-14
2.76153e-14
2.75088e-14
2.76198e-14
2.75147e-14
2.7619e-14
2.75169e-14
2.76219e-14
2.75172e-14
2.76267e-14
2.75156e-14
2.76316e-14
2.75156e-14
2.76401e-14
2.75206e-14
2.7647e-14
2.75204e-14
2.76471e-14
2.752e-14
2.76457e-14
2.75228e-14
2.76461e-14
2.75238e-14
2.765e-14
2.75264e-14
2.76539e-14
2.75272e-14
2.76596e-14
2.75295e-14
2.76622e-14
2.75316e-14
2.76632e-14
2.75337e-14
2.76659e-14
2.75356e-14
2.76703e-14
2.75374e-14
2.76731e-14
2.75376e-14
2.76761e-14
2.75407e-14
2.76791e-14
2.75437e-14
2.76814e-14
2.75466e-14
2.76816e-14
2.75493e-14
2.76789e-14
2.75513e-14
2.76784e-14
2.75531e-14
2.76796e-14
2.7557e-14
2.768e-14
2.75594e-14
2.76798e-14
2.75583e-14
2.7679e-14
2.75591e-14
2.76783e-14
2.75578e-14
2.76789e-14
2.75572e-14
2.7681e-14
2.75566e-14
2.76831e-14
2.75552e-14
2.76833e-14
2.75538e-14
2.76816e-14
2.75517e-14
2.76806e-14
2.75515e-14
2.76797e-14
2.75507e-14
2.768e-14
2.75492e-14
2.7678e-14
2.75483e-14
2.76754e-14
2.75479e-14
2.76753e-14
2.75469e-14
2.76764e-14
2.75465e-14
2.76752e-14
2.7546e-14
2.76741e-14
2.75455e-14
2.76747e-14
2.7545e-14
2.76759e-14
2.75444e-14
2.76749e-14
2.75436e-14
2.7674e-14
2.75425e-14
2.76744e-14
2.75421e-14
2.76749e-14
2.7542e-14
2.76746e-14
2.75418e-14
2.76744e-14
2.75407e-14
2.76741e-14
2.75397e-14
2.76742e-14
2.75397e-14
2.76741e-14
2.75394e-14
2.76735e-14
2.75394e-14
2.76734e-14
2.75393e-14
2.76729e-14
2.75393e-14
2.76714e-14
2.75392e-14
2.76706e-14
2.75392e-14
2.76706e-14
2.75396e-14
2.76706e-14
2.75396e-14
2.767e-14
2.75398e-14
2.76697e-14
2.75399e-14
2.76694e-14
2.75398e-14
2.76695e-14
2.75399e-14
2.76692e-14
2.75398e-14
2.76685e-14
2.75399e-14
2.76681e-14
2.754e-14
2.76679e-14
2.75402e-14
2.76675e-14
2.75403e-14
2.76672e-14
2.75405e-14
2.76669e-14
2.75405e-14
2.76666e-14
2.75409e-14
2.76661e-14
2.75412e-14
2.76659e-14
2.75411e-14
2.76658e-14
2.75411e-14
2.76658e-14
2.75411e-14
2.76656e-14
2.75411e-14
2.76655e-14
2.75411e-14
2.76655e-14
2.75411e-14
2.76657e-14
2.75412e-14
2.76657e-14
2.75412e-14
2.76656e-14
2.75412e-14
2.76656e-14
2.75412e-14
2.76656e-14
2.75411e-14
2.76657e-14
2.75411e-14
2.76657e-14
2.75411e-14
2.76657e-14
2.75411e-14
2.76658e-14
2.7541e-14
2.76659e-14
2.7541e-14
2.7666e-14
2.7541e-14
2.7666e-14
2.75409e-14
2.76661e-14
2.7541e-14
2.76661e-14
2.7541e-14
2.76661e-14
2.75409e-14
2.76661e-14
2.75409e-14
2.76661e-14
2.75409e-14
2.76661e-14
2.75409e-14
2.76661e-14
2.75409e-14
2.76661e-14
2.75409e-14
2.76661e-14
2.75409e-14
2.76661e-14
2.75409e-14
2.76661e-14
2.75409e-14
2.76661e-14
2.75408e-14
2.76661e-14
2.75408e-14
2.76661e-14
2.71102e-14
2.71307e-14
2.71531e-14
2.71323e-14
2.7204e-14
2.7178e-14
2.72194e-14
2.71754e-14
2.71584e-14
2.71684e-14
2.72124e-14
2.72384e-14
2.72407e-14
2.72958e-14
2.72158e-14
2.72771e-14
2.72256e-14
2.72746e-14
2.72504e-14
2.7311e-14
2.72699e-14
2.72708e-14
2.73456e-14
2.72846e-14
2.7301e-14
2.7318e-14
2.73066e-14
2.73095e-14
2.73381e-14
2.73272e-14
2.73246e-14
2.73452e-14
2.73617e-14
2.73949e-14
2.73963e-14
2.74292e-14
2.74275e-14
2.73932e-14
2.73871e-14
2.73765e-14
2.74205e-14
2.74074e-14
2.74791e-14
2.74347e-14
2.74913e-14
2.74808e-14
2.74788e-14
2.7527e-14
2.75396e-14
2.75549e-14
2.75455e-14
2.75605e-14
2.75494e-14
2.75956e-14
2.75487e-14
2.76093e-14
2.75715e-14
2.76022e-14
2.75945e-14
2.76273e-14
2.76994e-14
2.76595e-14
2.76749e-14
2.76369e-14
2.7657e-14
2.76399e-14
2.77002e-14
2.767e-14
2.76683e-14
2.77267e-14
2.76653e-14
2.77624e-14
2.77149e-14
2.7809e-14
2.76753e-14
2.78094e-14
2.7658e-14
2.78517e-14
2.76725e-14
2.78678e-14
2.76311e-14
2.78566e-14
2.76193e-14
2.78339e-14
2.76826e-14
2.78123e-14
2.77094e-14
2.78003e-14
2.76875e-14
2.77651e-14
2.76762e-14
2.77643e-14
2.76598e-14
2.78139e-14
2.76497e-14
2.77829e-14
2.76178e-14
2.77289e-14
2.76407e-14
2.77564e-14
2.76274e-14
2.77295e-14
2.75632e-14
2.77534e-14
2.75353e-14
2.77396e-14
2.75129e-14
2.77192e-14
2.75571e-14
2.7739e-14
2.75778e-14
2.77527e-14
2.75757e-14
2.77908e-14
2.75964e-14
2.77603e-14
2.76112e-14
2.77209e-14
2.76067e-14
2.7686e-14
2.76155e-14
2.76705e-14
2.75912e-14
2.76733e-14
2.75803e-14
2.76632e-14
2.75989e-14
2.76555e-14
2.75842e-14
2.76653e-14
2.75834e-14
2.76773e-14
2.75963e-14
2.76919e-14
2.75911e-14
2.76929e-14
2.75836e-14
2.76965e-14
2.76058e-14
2.7687e-14
2.76101e-14
2.76476e-14
2.75975e-14
2.76258e-14
2.75846e-14
2.76294e-14
2.75789e-14
2.76424e-14
2.7572e-14
2.76326e-14
2.7564e-14
2.76161e-14
2.7563e-14
2.76008e-14
2.75611e-14
2.7578e-14
2.75586e-14
2.75555e-14
2.75641e-14
2.75823e-14
2.75692e-14
2.76097e-14
2.75655e-14
2.76132e-14
2.75775e-14
2.75927e-14
2.75896e-14
2.75723e-14
2.75857e-14
2.75515e-14
2.75742e-14
2.75548e-14
2.75796e-14
2.75742e-14
2.75769e-14
2.75853e-14
2.7566e-14
2.76049e-14
2.75549e-14
2.76086e-14
2.75434e-14
2.76131e-14
2.75395e-14
2.76102e-14
2.75352e-14
2.76081e-14
2.75469e-14
2.76067e-14
2.75336e-14
2.75895e-14
2.752e-14
2.75977e-14
2.75141e-14
2.75983e-14
2.75244e-14
2.75831e-14
2.75178e-14
2.7585e-14
2.7511e-14
2.75793e-14
2.75121e-14
2.75741e-14
2.74965e-14
2.75695e-14
2.74888e-14
2.75656e-14
2.74806e-14
2.75705e-14
2.74721e-14
2.75802e-14
2.74629e-14
2.75989e-14
2.74611e-14
2.76021e-14
2.74708e-14
2.75981e-14
2.74634e-14
2.7599e-14
2.74554e-14
2.75927e-14
2.74548e-14
2.75872e-14
2.74535e-14
2.75825e-14
2.74557e-14
2.75786e-14
2.74573e-14
2.75794e-14
2.74463e-14
2.75767e-14
2.74428e-14
2.75746e-14
2.74347e-14
2.75732e-14
2.74381e-14
2.75644e-14
2.7433e-14
2.75642e-14
2.74315e-14
2.75605e-14
2.74335e-14
2.75454e-14
2.7435e-14
2.75426e-14
2.74363e-14
2.75442e-14
2.74371e-14
2.75461e-14
2.74377e-14
2.75483e-14
2.74379e-14
2.7539e-14
2.74417e-14
2.7534e-14
2.74414e-14
2.75408e-14
2.74447e-14
2.75479e-14
2.74477e-14
2.75436e-14
2.74543e-14
2.75357e-14
2.74607e-14
2.75356e-14
2.74707e-14
2.75432e-14
2.74729e-14
2.75433e-14
2.7475e-14
2.75435e-14
2.74694e-14
2.75476e-14
2.7473e-14
2.75574e-14
2.74802e-14
2.75616e-14
2.74742e-14
2.7566e-14
2.74718e-14
2.75777e-14
2.74821e-14
2.75841e-14
2.74867e-14
2.75869e-14
2.74928e-14
2.75881e-14
2.74953e-14
2.75911e-14
2.75011e-14
2.75942e-14
2.75103e-14
2.75939e-14
2.75141e-14
2.75989e-14
2.75177e-14
2.76023e-14
2.75195e-14
2.7604e-14
2.75229e-14
2.76109e-14
2.75261e-14
2.76161e-14
2.75276e-14
2.7618e-14
2.75272e-14
2.76183e-14
2.75301e-14
2.76186e-14
2.75296e-14
2.76206e-14
2.75291e-14
2.76244e-14
2.75284e-14
2.76298e-14
2.75293e-14
2.76337e-14
2.75317e-14
2.76375e-14
2.75292e-14
2.76446e-14
2.75282e-14
2.76486e-14
2.75287e-14
2.76526e-14
2.75322e-14
2.76551e-14
2.7531e-14
2.76576e-14
2.75297e-14
2.76602e-14
2.75291e-14
2.76613e-14
2.75321e-14
2.76595e-14
2.75328e-14
2.76608e-14
2.75349e-14
2.76635e-14
2.7539e-14
2.7662e-14
2.75402e-14
2.76634e-14
2.75419e-14
2.76642e-14
2.75443e-14
2.76663e-14
2.75453e-14
2.76699e-14
2.75461e-14
2.76721e-14
2.75482e-14
2.7673e-14
2.75509e-14
2.76733e-14
2.75535e-14
2.7673e-14
2.75561e-14
2.76721e-14
2.75579e-14
2.76738e-14
2.75596e-14
2.76754e-14
2.75619e-14
2.76741e-14
2.75635e-14
2.76734e-14
2.75651e-14
2.76745e-14
2.75648e-14
2.76757e-14
2.75629e-14
2.76768e-14
2.75631e-14
2.76774e-14
2.75634e-14
2.76775e-14
2.75636e-14
2.76776e-14
2.75637e-14
2.76778e-14
2.75644e-14
2.76784e-14
2.75653e-14
2.76789e-14
2.75654e-14
2.76786e-14
2.75657e-14
2.76783e-14
2.75664e-14
2.76783e-14
2.75667e-14
2.76791e-14
2.75672e-14
2.76796e-14
2.75674e-14
2.76799e-14
2.75678e-14
2.76802e-14
2.75686e-14
2.76806e-14
2.75683e-14
2.76813e-14
2.75686e-14
2.76817e-14
2.75689e-14
2.76812e-14
2.75694e-14
2.76808e-14
2.75699e-14
2.76812e-14
2.75698e-14
2.76816e-14
2.75702e-14
2.7682e-14
2.75704e-14
2.76822e-14
2.75709e-14
2.76823e-14
2.75718e-14
2.76826e-14
2.75727e-14
2.76831e-14
2.75734e-14
2.76833e-14
2.75738e-14
2.76833e-14
2.75742e-14
2.76833e-14
2.75749e-14
2.76833e-14
2.75754e-14
2.76834e-14
2.75758e-14
2.76837e-14
2.75765e-14
2.76838e-14
2.75769e-14
2.76837e-14
2.75771e-14
2.76836e-14
2.75775e-14
2.76836e-14
2.75779e-14
2.76836e-14
2.75783e-14
2.76837e-14
2.75786e-14
2.76837e-14
2.75789e-14
2.76838e-14
2.75791e-14
2.76838e-14
2.75795e-14
2.76836e-14
2.75798e-14
2.76836e-14
2.758e-14
2.76837e-14
2.75801e-14
2.76838e-14
2.75804e-14
2.76837e-14
2.75807e-14
2.76838e-14
2.75808e-14
2.76839e-14
2.75809e-14
2.76839e-14
2.75811e-14
2.76839e-14
2.75812e-14
2.76839e-14
2.75813e-14
2.76839e-14
2.75814e-14
2.76839e-14
2.75815e-14
2.76839e-14
2.75815e-14
2.76839e-14
2.75816e-14
2.76838e-14
2.75816e-14
2.76839e-14
2.75817e-14
2.76838e-14
2.75817e-14
2.76838e-14
2.75817e-14
2.76838e-14
2.75817e-14
2.76839e-14
2.75817e-14
2.76839e-14
2.75818e-14
2.76839e-14
2.75818e-14
2.76838e-14
2.75818e-14
2.76839e-14
)
;

boundaryField
{
    walls
    {
        type            zeroGradient;
    }
    inlet
    {
        type            cyclic;
    }
    outlet
    {
        type            cyclic;
    }
    sides
    {
        type            empty;
    }
}


// ************************************************************************* //
