/*--------------------------------*- C++ -*----------------------------------*\
| =========                 |                                                 |
| \\      /  F ield         | OpenFOAM: The Open Source CFD Toolbox           |
|  \\    /   O peration     | Version:  2106                                  |
|   \\  /    A nd           | Website:  www.openfoam.com                      |
|    \\/     M anipulation  |                                                 |
\*---------------------------------------------------------------------------*/
FoamFile
{
    version     2.0;
    format      ascii;
    arch        "LSB;label=32;scalar=64";
    class       surfaceScalarField;
    location    "10020";
    object      phi;
}
// * * * * * * * * * * * * * * * * * * * * * * * * * * * * * * * * * * * * * //

dimensions      [0 3 -1 0 0 0 0];

oriented        oriented;

internalField   nonuniform List<scalar> 
3996
(
2.99852e-08
-4.63069e-18
-2.73232e-22
-6.34956e-22
1.60823e-23
9.21934e-08
-4.6263e-18
-1.5191e-21
-3.27548e-21
-2.17117e-22
1.57874e-07
-4.62187e-18
-1.55781e-21
-5.93019e-21
-2.29349e-22
2.27177e-07
-4.61728e-18
-1.60263e-21
-8.62332e-21
-2.42173e-22
3.00261e-07
-4.6126e-18
-1.64681e-21
-1.14089e-20
-2.55606e-22
3.7729e-07
-4.60773e-18
-1.69034e-21
-1.42968e-20
-2.6967e-22
4.58432e-07
-4.60279e-18
-1.7343e-21
-1.71252e-20
-2.84384e-22
5.43865e-07
-4.59769e-18
-1.77903e-21
-2.01759e-20
-2.99773e-22
6.33772e-07
-4.59241e-18
-1.82456e-21
-2.32247e-20
-3.15858e-22
7.28344e-07
-4.58729e-18
-1.87098e-21
-2.61776e-20
-3.32665e-22
8.27777e-07
-4.58186e-18
-1.91831e-21
-2.9388e-20
-3.5022e-22
9.32275e-07
-4.57626e-18
-1.96656e-21
-3.24907e-20
-3.68537e-22
1.04205e-06
-4.57023e-18
-2.01576e-21
-3.60228e-20
-3.87639e-22
1.15732e-06
-4.56406e-18
-2.06588e-21
-3.93875e-20
-4.07532e-22
1.2783e-06
-4.55816e-18
-2.11692e-21
-4.25733e-20
-4.28222e-22
1.40522e-06
-4.55249e-18
-2.1688e-21
-4.57677e-20
-4.49724e-22
1.53833e-06
-4.54674e-18
-2.22145e-21
-4.88992e-20
-4.72033e-22
1.67783e-06
-4.54055e-18
-2.27475e-21
-5.2247e-20
-4.95144e-22
1.82399e-06
-4.53429e-18
-2.32856e-21
-5.57119e-20
-5.19034e-22
1.97701e-06
-4.52827e-18
-2.38268e-21
-5.87899e-20
-5.43672e-22
2.13714e-06
-4.52185e-18
-2.43685e-21
-6.21817e-20
-5.68991e-22
2.30459e-06
-4.51509e-18
-2.49077e-21
-6.55247e-20
-5.94922e-22
2.47957e-06
-4.50853e-18
-2.54407e-21
-6.89324e-20
-6.21369e-22
2.66228e-06
-4.50109e-18
-2.59629e-21
-7.32018e-20
-6.48194e-22
2.85287e-06
-4.49359e-18
-2.64694e-21
-7.75586e-20
-6.75221e-22
3.05149e-06
-4.4865e-18
-2.69544e-21
-8.09795e-20
-7.02258e-22
3.25826e-06
-4.4797e-18
-2.74118e-21
-8.50999e-20
-7.29126e-22
3.47327e-06
-4.4714e-18
-2.78343e-21
-8.94102e-20
-7.55573e-22
3.69654e-06
-4.46384e-18
-2.82158e-21
-9.31996e-20
-7.81341e-22
3.92808e-06
-4.45438e-18
-2.85494e-21
-9.79687e-20
-8.06185e-22
4.16786e-06
-4.44469e-18
-2.88297e-21
-1.0375e-19
-8.29806e-22
4.41581e-06
-4.43747e-18
-2.9051e-21
-1.06764e-19
-8.51835e-22
4.67181e-06
-4.43016e-18
-2.92078e-21
-1.10441e-19
-8.72191e-22
4.93572e-06
-4.42394e-18
-2.92968e-21
-1.13264e-19
-8.90638e-22
5.20737e-06
-4.41684e-18
-2.93147e-21
-1.16782e-19
-9.06982e-22
5.4866e-06
-4.40915e-18
-2.9261e-21
-1.19632e-19
-9.21015e-22
5.77319e-06
-4.40111e-18
-2.91366e-21
-1.24059e-19
-9.32646e-22
6.06696e-06
-4.39398e-18
-2.89428e-21
-1.27395e-19
-9.41733e-22
6.36772e-06
-4.38403e-18
-2.86815e-21
-1.3211e-19
-9.4835e-22
6.67529e-06
-4.3757e-18
-2.83579e-21
-1.3655e-19
-9.52437e-22
6.98951e-06
-4.36783e-18
-2.79763e-21
-1.41051e-19
-9.54027e-22
7.31025e-06
-4.35977e-18
-2.75414e-21
-1.45673e-19
-9.53233e-22
7.6374e-06
-4.35156e-18
-2.70582e-21
-1.4902e-19
-9.50088e-22
7.97086e-06
-4.34407e-18
-2.65312e-21
-1.51825e-19
-9.44988e-22
8.31058e-06
-4.33654e-18
-2.59668e-21
-1.54947e-19
-9.37914e-22
8.65652e-06
-4.32885e-18
-2.53701e-21
-1.5893e-19
-9.2897e-22
9.00869e-06
-4.32504e-18
-2.47448e-21
-1.60918e-19
-9.18109e-22
9.36711e-06
-4.31849e-18
-2.40915e-21
-1.64552e-19
-9.05582e-22
9.73181e-06
-4.31157e-18
-2.34162e-21
-1.67359e-19
-8.91398e-22
1.01029e-05
-4.30476e-18
-2.27247e-21
-1.70461e-19
-8.75532e-22
1.04804e-05
-4.3012e-18
-2.20188e-21
-1.7197e-19
-8.57953e-22
1.08644e-05
-4.29213e-18
-2.12999e-21
-1.75737e-19
-8.38701e-22
1.12551e-05
-4.28591e-18
-2.05768e-21
-1.7787e-19
-8.17538e-22
1.16526e-05
-4.27793e-18
-1.98482e-21
-1.81674e-19
-7.94429e-22
1.2057e-05
-4.27152e-18
-1.91161e-21
-1.86258e-19
-7.6941e-22
1.24686e-05
-4.26752e-18
-1.83817e-21
-1.87267e-19
-7.42566e-22
1.28874e-05
-4.26678e-18
-1.76427e-21
-1.86596e-19
-7.14047e-22
1.33137e-05
-4.26235e-18
-1.6897e-21
-1.8693e-19
-6.83712e-22
1.37476e-05
-4.25498e-18
-1.6151e-21
-1.91294e-19
-6.51363e-22
1.41894e-05
-4.25119e-18
-1.54099e-21
-1.91724e-19
-6.16611e-22
1.46391e-05
-4.24429e-18
-1.46668e-21
-1.89715e-19
-5.80373e-22
1.50972e-05
-4.23952e-18
-1.3924e-21
-1.92502e-19
-5.43403e-22
1.55637e-05
-4.23395e-18
-1.31863e-21
-1.97279e-19
-5.03759e-22
1.60389e-05
-4.23088e-18
-1.2469e-21
-1.99659e-19
-4.61196e-22
1.6523e-05
-4.22395e-18
-1.17618e-21
-2.00765e-19
-4.16604e-22
1.70162e-05
-4.21821e-18
-1.10678e-21
-2.01108e-19
-3.70079e-22
1.75188e-05
-4.21257e-18
-1.03865e-21
-2.00805e-19
-3.21637e-22
1.80311e-05
-4.2076e-18
-9.72158e-22
-2.0077e-19
-2.71458e-22
1.85531e-05
-4.20174e-18
-9.07239e-22
-2.05816e-19
-2.19536e-22
1.90853e-05
-4.19419e-18
-8.4364e-22
-2.08687e-19
-1.65088e-22
1.96279e-05
-4.18709e-18
-7.81802e-22
-2.15434e-19
-1.09143e-22
2.0181e-05
-4.18156e-18
-7.22401e-22
-2.19446e-19
-5.05152e-23
2.07451e-05
-4.16966e-18
-6.64945e-22
-2.27893e-19
1.0415e-23
2.13203e-05
-4.16948e-18
-6.10636e-22
-2.28667e-19
7.45847e-23
2.19069e-05
-4.16321e-18
-5.57993e-22
-2.34604e-19
1.3984e-22
2.25052e-05
-4.16606e-18
-5.06852e-22
-2.34472e-19
2.07202e-22
2.31156e-05
-4.16478e-18
-4.55417e-22
-2.33932e-19
2.73373e-22
2.37381e-05
-4.16345e-18
-4.03928e-22
-2.33863e-19
3.38978e-22
2.43733e-05
-4.16404e-18
-3.53744e-22
-2.34178e-19
4.05309e-22
2.50213e-05
-4.16816e-18
-3.03738e-22
-2.31695e-19
4.71714e-22
2.56824e-05
-4.16216e-18
-2.53521e-22
-2.33652e-19
5.35658e-22
2.6357e-05
-4.16132e-18
-2.06138e-22
-2.35508e-19
5.9935e-22
2.70454e-05
-4.15653e-18
-1.61144e-22
-2.3771e-19
6.65693e-22
2.77479e-05
-4.15547e-18
-1.20882e-22
-2.38259e-19
7.3395e-22
2.84648e-05
-4.15135e-18
-8.421e-23
-2.41943e-19
8.03975e-22
2.91965e-05
-4.15011e-18
-5.22427e-23
-2.45926e-19
8.73802e-22
2.99433e-05
-4.15816e-18
-2.46927e-23
-2.49275e-19
9.45388e-22
3.07055e-05
-4.15619e-18
5.43543e-25
-2.51987e-19
1.01765e-21
3.14835e-05
-4.15831e-18
2.12055e-23
-2.59835e-19
1.08911e-21
3.22776e-05
-4.15315e-18
4.12066e-23
-2.65976e-19
1.15957e-21
3.30882e-05
-4.15427e-18
6.11565e-23
-2.76654e-19
1.22828e-21
3.39157e-05
-4.14637e-18
8.071e-23
-2.88589e-19
1.2974e-21
3.47605e-05
-4.13356e-18
9.69521e-23
-2.93924e-19
1.36713e-21
3.56229e-05
-4.12839e-18
1.08018e-22
-3.03472e-19
1.43544e-21
3.65033e-05
-4.12571e-18
1.13563e-22
-3.16542e-19
1.50388e-21
3.74021e-05
-4.11919e-18
1.15112e-22
-3.31424e-19
1.57676e-21
3.83198e-05
-4.11238e-18
1.11185e-22
-3.43758e-19
1.6535e-21
3.92567e-05
-4.10372e-18
9.77904e-23
-3.55812e-19
1.73649e-21
4.02133e-05
-4.09442e-18
7.13924e-23
-3.66374e-19
1.82669e-21
4.11899e-05
-4.08585e-18
2.9088e-23
-3.75457e-19
1.92449e-21
4.21872e-05
-4.08501e-18
-2.79387e-23
-3.74833e-19
2.02919e-21
4.32054e-05
-4.08439e-18
-9.51347e-23
-3.76984e-19
2.12839e-21
4.4245e-05
-4.08486e-18
-1.7207e-22
-3.86391e-19
2.22592e-21
4.53066e-05
-4.08372e-18
-2.57342e-22
-3.9262e-19
2.32627e-21
4.63906e-05
-4.08071e-18
-3.49343e-22
-4.0769e-19
2.42677e-21
4.74974e-05
-4.08072e-18
-4.51116e-22
-4.14916e-19
2.53073e-21
4.86276e-05
-4.07355e-18
-5.57769e-22
-4.37263e-19
2.63817e-21
4.97817e-05
-4.06005e-18
-6.69924e-22
-4.42813e-19
2.7511e-21
5.09601e-05
-4.05981e-18
-7.88837e-22
-4.53031e-19
2.85622e-21
5.21635e-05
-4.0387e-18
-9.0337e-22
-4.61862e-19
2.95759e-21
5.33923e-05
-4.03192e-18
-1.04677e-21
-4.73541e-19
3.0599e-21
5.46472e-05
-4.02165e-18
-1.18306e-21
-4.88184e-19
3.15793e-21
5.59286e-05
-4.01512e-18
-1.3309e-21
-4.96228e-19
3.24569e-21
5.72371e-05
-4.00224e-18
-1.48086e-21
-5.09752e-19
3.31697e-21
5.85733e-05
-3.98368e-18
-1.64091e-21
-5.21787e-19
3.36652e-21
5.99378e-05
-3.97201e-18
-1.81039e-21
-5.38866e-19
3.3917e-21
6.13313e-05
-3.95747e-18
-1.98379e-21
-5.637e-19
3.41053e-21
6.27542e-05
-3.92633e-18
-2.16591e-21
-5.81664e-19
3.43681e-21
6.42073e-05
-3.91581e-18
-2.36819e-21
-6.0667e-19
3.44277e-21
6.56912e-05
-3.90065e-18
-2.5644e-21
-6.1586e-19
3.44785e-21
6.72065e-05
-3.88852e-18
-2.77141e-21
-6.5065e-19
3.42586e-21
6.8754e-05
-3.87189e-18
-2.97278e-21
-6.56197e-19
3.41343e-21
7.03343e-05
-3.86372e-18
-3.18342e-21
-6.82227e-19
3.3835e-21
7.1948e-05
-3.84472e-18
-3.38364e-21
-6.82635e-19
3.38558e-21
7.3596e-05
-3.82578e-18
-3.58729e-21
-7.15975e-19
3.34024e-21
7.52789e-05
-3.79135e-18
-3.78565e-21
-7.4359e-19
3.29937e-21
7.69974e-05
-3.75782e-18
-3.99424e-21
-7.71818e-19
3.25037e-21
7.87524e-05
-3.74911e-18
-4.23092e-21
-7.77203e-19
3.19501e-21
8.05446e-05
-3.73196e-18
-4.42137e-21
-8.03207e-19
3.08472e-21
8.23748e-05
-3.70912e-18
-4.56282e-21
-8.25593e-19
2.97503e-21
8.42438e-05
-3.67194e-18
-4.69989e-21
-8.55585e-19
2.8799e-21
8.61523e-05
-3.62611e-18
-4.84177e-21
-8.8656e-19
2.76121e-21
8.81013e-05
-3.58914e-18
-5.00393e-21
-9.1958e-19
2.67277e-21
9.00916e-05
-3.56254e-18
-5.17645e-21
-9.46941e-19
2.60068e-21
9.21241e-05
-3.5461e-18
-5.35582e-21
-9.50344e-19
2.59471e-21
9.41996e-05
-3.53399e-18
-5.50274e-21
-9.51162e-19
2.58671e-21
9.6319e-05
-3.5213e-18
-5.64271e-21
-9.53776e-19
2.57993e-21
9.84833e-05
-3.50355e-18
-5.75811e-21
-9.53923e-19
2.57227e-21
0.000100693
-3.48545e-18
-5.89887e-21
-9.61982e-19
2.55504e-21
0.00010295
-3.4678e-18
-6.09736e-21
-9.58594e-19
2.51829e-21
0.000105255
-3.45283e-18
-6.37462e-21
-9.75635e-19
2.41784e-21
0.000107608
-3.42995e-18
-6.66946e-21
-9.83035e-19
2.30188e-21
0.000110012
-3.39673e-18
-6.96067e-21
-9.93406e-19
2.16595e-21
0.000112466
-3.37605e-18
-7.18318e-21
-1.00158e-18
2.03424e-21
0.000114972
-3.3601e-18
-7.36455e-21
-1.02317e-18
1.86182e-21
0.00011753
-3.32879e-18
-7.51258e-21
-1.06175e-18
1.68736e-21
0.000120143
-3.31451e-18
-7.64033e-21
-1.07379e-18
1.57184e-21
0.000122811
-3.29889e-18
-7.80157e-21
-1.08356e-18
1.41109e-21
0.000125536
-3.2522e-18
-7.9434e-21
-1.11712e-18
1.22607e-21
0.000128318
-3.19186e-18
-8.1191e-21
-1.11923e-18
1.13266e-21
0.000131159
-3.16107e-18
-8.46757e-21
-1.14254e-18
1.04655e-21
0.000134059
-3.14838e-18
-8.88372e-21
-1.17924e-18
1.00984e-21
0.000137021
-3.17322e-18
-9.26722e-21
-1.18349e-18
9.59224e-22
0.000140045
-3.13982e-18
-9.36302e-21
-1.20866e-18
7.57039e-22
0.000143134
-3.08259e-18
-9.48019e-21
-1.23324e-18
5.60815e-22
0.000146287
-3.04821e-18
-9.7362e-21
-1.25936e-18
5.07444e-22
0.000149506
-3.01619e-18
-9.99596e-21
-1.28016e-18
5.55675e-22
0.000152793
-2.9987e-18
-1.03509e-20
-1.27116e-18
5.22805e-22
0.00015615
-2.96418e-18
-1.06382e-20
-1.29119e-18
3.12455e-22
0.000159577
-2.95135e-18
-1.08926e-20
-1.31203e-18
1.02957e-22
0.000163076
-2.92267e-18
-1.10436e-20
-1.33342e-18
-5.11598e-23
0.000166649
-2.87217e-18
-1.11237e-20
-1.36135e-18
-4.30968e-22
0.000170297
-2.80278e-18
-1.13005e-20
-1.41207e-18
-6.37717e-22
0.000174021
-2.78385e-18
-1.15562e-20
-1.41639e-18
-7.91736e-22
0.000177824
-2.77583e-18
-1.18396e-20
-1.41744e-18
-1.09498e-21
0.000181707
-2.75433e-18
-1.20404e-20
-1.43353e-18
-1.55117e-21
0.000185671
-2.71414e-18
-1.20959e-20
-1.44008e-18
-2.06486e-21
0.000189718
-2.68524e-18
-1.22346e-20
-1.45727e-18
-2.58205e-21
0.00019385
-2.64582e-18
-1.23331e-20
-1.46774e-18
-2.94622e-21
0.000198068
-2.60933e-18
-1.24422e-20
-1.47699e-18
-3.53219e-21
0.000202375
-2.59248e-18
-1.26178e-20
-1.51083e-18
-4.09965e-21
0.000206772
-2.53528e-18
-1.27399e-20
-1.51283e-18
-4.63811e-21
0.00021126
-2.53506e-18
-1.32067e-20
-1.52218e-18
-5.37256e-21
0.000215843
-2.47783e-18
-1.34354e-20
-1.53548e-18
-6.33994e-21
0.000220521
-2.4871e-18
-1.40379e-20
-1.51828e-18
-7.22226e-21
0.000225297
-2.43846e-18
-1.42683e-20
-1.52182e-18
-8.24317e-21
0.000230173
-2.41678e-18
-1.46462e-20
-1.52811e-18
-9.2238e-21
0.00023515
-2.39455e-18
-1.46915e-20
-1.49775e-18
-9.92673e-21
0.000240231
-2.36253e-18
-1.47832e-20
-1.48442e-18
-1.09618e-20
0.000245418
-2.32673e-18
-1.51328e-20
-1.48319e-18
-1.22379e-20
0.000250713
-2.20488e-18
-1.51789e-20
-1.52054e-18
-1.34497e-20
0.000256117
-2.12033e-18
-1.63636e-20
-1.60696e-18
-1.52386e-20
0.000261635
-2.09572e-18
-1.80213e-20
-1.64869e-18
-1.62872e-20
0.000267266
-2.06981e-18
-1.92209e-20
-1.61494e-18
-1.65135e-20
0.000273015
-2.09462e-18
-2.00242e-20
-1.61425e-18
-1.79496e-20
0.000278882
-1.99258e-18
-1.98976e-20
-1.70805e-18
-2.01612e-20
0.000284871
-2.03235e-18
-2.20648e-20
-1.64193e-18
-2.10396e-20
0.000290984
-2.00557e-18
-2.26105e-20
-1.72674e-18
-2.34879e-20
0.000297224
-1.98811e-18
-2.33244e-20
-1.7549e-18
-2.42273e-20
0.000303592
-1.93881e-18
-2.40029e-20
-1.78559e-18
-2.51745e-20
0.000310092
-1.90416e-18
-2.49043e-20
-1.79016e-18
-2.63054e-20
0.000316725
-1.86429e-18
-2.60745e-20
-1.74344e-18
-2.75951e-20
0.000323496
-1.89106e-18
-2.75769e-20
-1.71672e-18
-3.03702e-20
0.000330405
-1.8386e-18
-2.85171e-20
-1.7044e-18
-3.35332e-20
0.000337456
-1.83738e-18
-2.97511e-20
-1.75129e-18
-3.67285e-20
0.000344653
-1.70829e-18
-2.99712e-20
-1.80023e-18
-3.9433e-20
0.000351996
-1.71581e-18
-3.12721e-20
-1.75716e-18
-3.95782e-20
0.00035949
-1.78605e-18
-3.39881e-20
-1.73782e-18
-3.94236e-20
0.000367137
-1.73109e-18
-3.33239e-20
-1.72136e-18
-3.93738e-20
0.000374941
-1.69181e-18
-3.42033e-20
-1.69774e-18
-3.85315e-20
0.000382903
-1.68315e-18
-3.57135e-20
-1.62202e-18
-3.83921e-20
0.000391027
-1.64346e-18
-3.64348e-20
-1.62019e-18
-3.69435e-20
0.000399317
-1.62201e-18
-3.64091e-20
-1.56663e-18
-3.58224e-20
0.000407775
-1.5126e-18
-3.76374e-20
-1.56679e-18
-3.61864e-20
0.000416404
-1.5098e-18
-3.72786e-20
-1.50627e-18
-3.60778e-20
0.000425207
-1.39838e-18
-3.67178e-20
-1.48314e-18
-3.60336e-20
0.000434188
-1.36043e-18
-3.83019e-20
-1.43647e-18
-3.29044e-20
0.00044335
-1.39175e-18
-3.88755e-20
-1.3269e-18
-3.21706e-20
0.000452697
-1.3614e-18
-3.5977e-20
-1.3109e-18
-3.48243e-20
0.00046223
-1.27955e-18
-3.35843e-20
-1.27426e-18
-3.87319e-20
0.000471955
-1.26847e-18
-3.2967e-20
-1.17573e-18
-4.31108e-20
0.000481874
-1.13746e-18
-3.3787e-20
-1.25342e-18
-4.68071e-20
0.00049199
-1.32716e-18
-3.87276e-20
-1.27775e-18
-4.62031e-20
0.000502307
-1.28103e-18
-3.8812e-20
-1.26945e-18
-4.6621e-20
0.000512828
-1.2859e-18
-3.99545e-20
-1.26798e-18
-4.57953e-20
0.000523558
-1.28168e-18
-3.95608e-20
-1.32574e-18
-4.50548e-20
0.000534498
-1.26303e-18
-3.65631e-20
-1.19848e-18
-3.86147e-20
0.000545653
-1.28626e-18
-3.3885e-20
-1.26352e-18
-3.68284e-20
0.000557026
-1.3079e-18
-3.36346e-20
-1.28265e-18
-3.49973e-20
0.000568621
-1.31527e-18
-3.77092e-20
-1.29023e-18
-3.47816e-20
0.000580441
-1.28195e-18
-3.56926e-20
-1.29911e-18
-3.59607e-20
0.000592488
-1.19867e-18
-3.26783e-20
-1.29064e-18
-3.54287e-20
0.000604768
-1.344e-18
-3.67835e-20
-1.3252e-18
-3.37238e-20
0.000617283
-1.36233e-18
-3.45394e-20
-1.27737e-18
-2.99204e-20
0.000630035
-1.35649e-18
-3.33687e-20
-1.34323e-18
-2.91025e-20
0.00064303
-1.31101e-18
-3.87601e-20
-1.32819e-18
-2.48475e-20
0.000656268
-1.1384e-18
-4.43629e-20
-1.401e-18
-2.40269e-20
0.000669755
-1.3122e-18
-5.69298e-20
-1.23223e-18
-1.49626e-20
0.000683491
-1.30435e-18
-6.51479e-20
-1.20566e-18
-1.40361e-20
0.000697481
-1.23036e-18
-6.21805e-20
-1.21595e-18
-1.5969e-20
0.000711726
-1.11128e-18
-5.95983e-20
-1.16175e-18
-1.61361e-20
0.000726229
-1.05791e-18
-5.44133e-20
-1.16339e-18
-2.46866e-20
0.000740992
-9.80125e-19
-5.62704e-20
-1.1791e-18
-3.15916e-20
0.000756017
-1.18729e-18
-7.05109e-20
-1.12566e-18
-3.51322e-20
0.000771306
-1.05065e-18
-5.03452e-20
-1.22098e-18
-3.97321e-20
0.000786859
-1.11292e-18
-4.63687e-20
-1.20205e-18
-3.78789e-20
0.000802677
-1.1934e-18
-2.91816e-20
-1.27298e-18
-2.51312e-20
0.000818762
-1.19801e-18
-5.82877e-21
-1.11954e-18
-3.50056e-21
0.000835111
-1.20037e-18
-1.1755e-20
-1.12345e-18
4.86751e-21
0.000851726
-1.30994e-18
-2.87022e-20
-1.11548e-18
-1.54932e-21
0.000868604
-1.28044e-18
-2.59815e-20
-9.98321e-19
-1.73502e-20
0.000885743
-1.22595e-18
-2.11912e-20
-9.10118e-19
-3.29074e-20
0.000903141
-9.04713e-19
-1.56665e-20
-9.65267e-19
-5.11242e-20
0.000920794
-9.13099e-19
-3.99012e-20
-9.22932e-19
-3.49236e-20
0.000938697
-9.1423e-19
-2.67937e-20
-8.42848e-19
-2.78546e-20
0.000956845
-6.85891e-19
-1.94144e-21
-8.85006e-19
-3.21299e-20
0.000975232
-7.8306e-19
-1.607e-20
-8.16461e-19
-3.33479e-20
0.00099385
-7.39521e-19
-3.36034e-21
-6.73604e-19
-1.57054e-20
0.00101269
-5.61721e-19
1.27604e-20
-6.91511e-19
-2.4095e-20
0.00103175
2.0883e-21
-7.22878e-19
-1.11051e-20
-6.5702e-19
2.99852e-08
-2.23075e-22
-3.3151e-23
9.21934e-08
-1.48215e-21
-5.06277e-22
1.57874e-07
-2.77392e-21
-9.88083e-22
2.27177e-07
-4.09995e-21
-1.46688e-21
3.00261e-07
-5.4916e-21
-1.9913e-21
3.7729e-07
-6.88862e-21
-2.48973e-21
4.58432e-07
-8.26635e-21
-3.07719e-21
5.43865e-07
-9.65934e-21
-3.71263e-21
6.33772e-07
-1.1051e-20
-4.45976e-21
7.28344e-07
-1.24039e-20
-5.29561e-21
8.27777e-07
-1.36762e-20
-6.089e-21
9.32275e-07
-1.52531e-20
-6.89687e-21
1.04205e-06
-1.70484e-20
-7.60359e-21
1.15732e-06
-1.90656e-20
-8.15998e-21
1.2783e-06
-2.0839e-20
-8.94023e-21
1.40522e-06
-2.26199e-20
-9.64328e-21
1.53833e-06
-2.41128e-20
-1.07095e-20
1.67783e-06
-2.56021e-20
-1.18955e-20
1.82399e-06
-2.69825e-20
-1.32516e-20
1.97701e-06
-2.87412e-20
-1.39914e-20
2.13714e-06
-3.07908e-20
-1.49965e-20
2.30459e-06
-3.27686e-20
-1.58196e-20
2.47957e-06
-3.47481e-20
-1.65915e-20
2.66228e-06
-3.65668e-20
-1.76886e-20
2.85287e-06
-3.8724e-20
-1.85878e-20
3.05149e-06
-4.13776e-20
-1.96182e-20
3.25826e-06
-4.28687e-20
-2.08223e-20
3.47327e-06
-4.51172e-20
-2.20028e-20
3.69654e-06
-4.73092e-20
-2.30771e-20
3.92808e-06
-4.94683e-20
-2.47571e-20
4.16786e-06
-5.15218e-20
-2.5562e-20
4.41581e-06
-5.40328e-20
-2.72348e-20
4.67181e-06
-5.67042e-20
-2.9255e-20
4.93572e-06
-5.82956e-20
-3.09711e-20
5.20737e-06
-6.00593e-20
-3.2547e-20
5.4866e-06
-6.2172e-20
-3.39522e-20
5.77319e-06
-6.39202e-20
-3.54097e-20
6.06696e-06
-6.54963e-20
-3.75045e-20
6.36772e-06
-6.74687e-20
-3.90955e-20
6.67529e-06
-7.08284e-20
-3.92008e-20
6.98951e-06
-7.30871e-20
-4.0709e-20
7.31025e-06
-7.47314e-20
-4.25641e-20
7.6374e-06
-7.49049e-20
-4.67357e-20
7.97086e-06
-7.77393e-20
-4.76288e-20
8.31058e-06
-8.14275e-20
-4.83224e-20
8.65652e-06
-8.45222e-20
-4.82333e-20
9.00869e-06
-8.62633e-20
-5.0042e-20
9.36711e-06
-8.72509e-20
-5.27314e-20
9.73181e-06
-8.9943e-20
-5.43023e-20
1.01029e-05
-9.06774e-20
-5.72923e-20
1.04804e-05
-9.16686e-20
-5.93171e-20
1.08644e-05
-9.35785e-20
-6.20522e-20
1.12551e-05
-9.48992e-20
-6.40146e-20
1.16526e-05
-9.50018e-20
-6.55736e-20
1.2057e-05
-9.5971e-20
-6.78776e-20
1.24686e-05
-9.65231e-20
-6.94566e-20
1.28874e-05
-9.75104e-20
-6.79751e-20
1.33137e-05
-9.97524e-20
-6.54657e-20
1.37476e-05
-1.02966e-19
-6.34264e-20
1.41894e-05
-1.03181e-19
-6.4122e-20
1.46391e-05
-9.98934e-20
-6.87283e-20
1.50972e-05
-9.92658e-20
-6.58802e-20
1.55637e-05
-1.07304e-19
-6.28757e-20
1.60389e-05
-1.09901e-19
-6.40341e-20
1.6523e-05
-1.10443e-19
-6.65184e-20
1.70162e-05
-1.11169e-19
-6.6876e-20
1.75188e-05
-1.13371e-19
-6.82107e-20
1.80311e-05
-1.14953e-19
-7.16256e-20
1.85531e-05
-1.13431e-19
-7.21624e-20
1.90853e-05
-1.11501e-19
-7.23441e-20
1.96279e-05
-1.12697e-19
-7.37252e-20
2.0181e-05
-1.12467e-19
-7.66616e-20
2.07451e-05
-1.12767e-19
-7.43289e-20
2.13203e-05
-1.18599e-19
-7.4273e-20
2.19069e-05
-1.16538e-19
-7.45758e-20
2.25052e-05
-1.15927e-19
-7.7658e-20
2.31156e-05
-1.14486e-19
-7.71583e-20
2.37381e-05
-1.17152e-19
-7.86679e-20
2.43733e-05
-1.16686e-19
-7.84113e-20
2.50213e-05
-1.17186e-19
-7.83106e-20
2.56824e-05
-1.1494e-19
-7.87823e-20
2.6357e-05
-1.15085e-19
-7.20636e-20
2.70454e-05
-1.18083e-19
-6.93888e-20
2.77479e-05
-1.16058e-19
-6.84809e-20
2.84648e-05
-1.12297e-19
-7.52475e-20
2.91965e-05
-1.09274e-19
-7.33255e-20
2.99433e-05
-1.08401e-19
-7.06088e-20
3.07055e-05
-1.09337e-19
-6.7975e-20
3.14835e-05
-1.10624e-19
-7.04372e-20
3.22776e-05
-1.04744e-19
-7.14219e-20
3.30882e-05
-1.05515e-19
-7.13285e-20
3.39157e-05
-1.05933e-19
-7.00671e-20
3.47605e-05
-1.05778e-19
-6.72736e-20
3.56229e-05
-1.11451e-19
-6.60217e-20
3.65033e-05
-1.10811e-19
-5.63564e-20
3.74021e-05
-1.04984e-19
-5.78548e-20
3.83198e-05
-1.04412e-19
-6.05313e-20
3.92567e-05
-1.05756e-19
-5.93649e-20
4.02133e-05
-1.09607e-19
-5.60253e-20
4.11899e-05
-1.11191e-19
-4.78886e-20
4.21872e-05
-1.13602e-19
-4.74412e-20
4.32054e-05
-1.14705e-19
-4.97023e-20
4.4245e-05
-1.14319e-19
-5.15683e-20
4.53066e-05
-1.13255e-19
-4.62563e-20
4.63906e-05
-1.18135e-19
-4.53787e-20
4.74974e-05
-1.22457e-19
-4.10378e-20
4.86276e-05
-1.24104e-19
-4.07241e-20
4.97817e-05
-1.25049e-19
-3.29905e-20
5.09601e-05
-1.25799e-19
-2.80773e-20
5.21635e-05
-1.45428e-19
-1.87293e-20
5.33923e-05
-1.29419e-19
-1.23863e-20
5.46472e-05
-1.30262e-19
-1.39489e-20
5.59286e-05
-1.26575e-19
-1.30685e-20
5.72371e-05
-1.29149e-19
-1.3545e-20
5.85733e-05
-1.24396e-19
-1.41054e-20
5.99378e-05
-1.20317e-19
1.11588e-22
6.13313e-05
-1.21568e-19
2.31042e-20
6.27542e-05
-1.24632e-19
2.32662e-20
6.42073e-05
-1.25442e-19
2.87656e-20
6.56912e-05
-1.3149e-19
2.24069e-20
6.72065e-05
-1.23726e-19
2.67149e-20
6.8754e-05
-1.26792e-19
3.17686e-20
7.03343e-05
-1.27981e-19
5.12225e-20
7.1948e-05
-1.34048e-19
4.42786e-20
7.3596e-05
-1.33086e-19
5.27739e-20
7.52789e-05
-1.24294e-19
5.55464e-20
7.69974e-05
-1.29743e-19
6.01709e-20
7.87524e-05
-1.19395e-19
6.69508e-20
8.05446e-05
-1.08034e-19
7.76447e-20
8.23748e-05
-1.2153e-19
8.82491e-20
8.42438e-05
-1.26702e-19
8.33128e-20
8.61523e-05
-1.29669e-19
1.08371e-19
8.81013e-05
-1.31961e-19
9.75078e-20
9.00916e-05
-1.40311e-19
9.47859e-20
9.21241e-05
-1.33467e-19
8.68093e-20
9.41996e-05
-1.37825e-19
9.43193e-20
9.6319e-05
-1.28007e-19
8.87524e-20
9.84833e-05
-1.27298e-19
7.52231e-20
0.000100693
-1.33564e-19
5.90093e-20
0.00010295
-1.54729e-19
5.03932e-20
0.000105255
-1.62828e-19
3.92716e-20
0.000107608
-1.64715e-19
2.49312e-20
0.000110012
-1.40302e-19
2.16693e-20
0.000112466
-1.37205e-19
1.25008e-20
0.000114972
-1.35996e-19
1.50685e-21
0.00011753
-1.26722e-19
-2.69468e-21
0.000120143
-1.5545e-19
-9.54469e-21
0.000122811
-1.67462e-19
-1.67779e-20
0.000125536
-1.67281e-19
-3.36378e-20
0.000128318
-1.93518e-19
-4.9688e-20
0.000131159
-2.04681e-19
-4.05417e-20
0.000134059
-1.96025e-19
-3.83516e-20
0.000137021
-1.6661e-19
-4.56598e-20
0.000140045
-1.57999e-19
-5.29168e-20
0.000143134
-1.55627e-19
-4.13705e-20
0.000146287
-1.58532e-19
-2.68536e-20
0.000149506
-1.87005e-19
-3.0685e-20
0.000152793
-1.90946e-19
-3.39087e-20
0.00015615
-1.85291e-19
-4.28481e-20
0.000159577
-1.86055e-19
-1.43304e-20
0.000163076
-1.71931e-19
-3.92425e-20
0.000166649
-1.60586e-19
-2.32524e-20
0.000170297
-1.30983e-19
-3.55126e-20
0.000174021
-1.43403e-19
-4.09665e-20
0.000177824
-1.51732e-19
-5.21887e-20
0.000181707
-1.4789e-19
-5.50921e-20
0.000185671
-1.55476e-19
-7.79289e-20
0.000189718
-1.49854e-19
-7.99515e-20
0.00019385
-1.4565e-19
-8.11589e-20
0.000198068
-1.51518e-19
-6.01694e-20
0.000202375
-1.64225e-19
-7.43285e-20
0.000206772
-1.90345e-19
-6.51484e-20
0.00021126
-1.9035e-19
-8.40629e-20
0.000215843
-2.20423e-19
-9.6886e-20
0.000220521
-2.41854e-19
-1.1756e-19
0.000225297
-2.58014e-19
-1.32499e-19
0.000230173
-2.41846e-19
-1.26786e-19
0.00023515
-2.53148e-19
-1.48342e-19
0.000240231
-2.83494e-19
-1.5091e-19
0.000245418
-2.73409e-19
-1.16308e-19
0.000250713
-3.03591e-19
-1.63965e-19
0.000256117
-2.98014e-19
-1.73636e-19
0.000261635
-2.70815e-19
-1.31792e-19
0.000267266
-2.51076e-19
-1.34978e-19
0.000273015
-2.30842e-19
-1.74422e-19
0.000278882
-3.37562e-19
-1.92661e-19
0.000284871
-3.06742e-19
-2.38801e-19
0.000290984
-3.35202e-19
-1.84703e-19
0.000297224
-3.38117e-19
-2.50799e-19
0.000303592
-3.18964e-19
-3.09631e-19
0.000310092
-3.10659e-19
-3.28148e-19
0.000316725
-3.08507e-19
-3.83687e-19
0.000323496
-3.24366e-19
-3.76069e-19
0.000330405
-3.2512e-19
-3.53703e-19
0.000337456
-3.25349e-19
-3.85998e-19
0.000344653
-2.93702e-19
-3.42813e-19
0.000351996
-3.94964e-19
-2.97642e-19
0.00035949
-3.33556e-19
-2.61222e-19
0.000367137
-3.73555e-19
-1.97891e-19
0.000374941
-3.67206e-19
-2.60413e-19
0.000382903
-3.69872e-19
-1.99247e-19
0.000391027
-3.70826e-19
-2.47182e-19
0.000399317
-4.58895e-19
-3.14143e-19
0.000407775
-3.37409e-19
-3.92823e-19
0.000416404
-3.85993e-19
-4.42993e-19
0.000425207
-4.21434e-19
-3.38765e-19
0.000434188
-4.12246e-19
-3.72051e-19
0.00044335
-3.71286e-19
-4.12439e-19
0.000452697
-4.01242e-19
-4.8646e-19
0.00046223
-4.3015e-19
-5.42749e-19
0.000471955
-5.06371e-19
-4.96592e-19
0.000481874
-5.30334e-19
-4.87378e-19
0.00049199
-6.16837e-19
-5.39529e-19
0.000502307
-6.01776e-19
-4.37464e-19
0.000512828
-5.41829e-19
-4.34854e-19
0.000523558
-4.78459e-19
-4.39579e-19
0.000534498
-4.66597e-19
-4.58789e-19
0.000545653
-4.99325e-19
-4.95242e-19
0.000557026
-5.8386e-19
-5.23016e-19
0.000568621
-4.76243e-19
-4.99896e-19
0.000580441
-4.63988e-19
-4.8455e-19
0.000592488
-5.58146e-19
-5.50048e-19
0.000604768
-5.96435e-19
-5.72811e-19
0.000617283
-6.384e-19
-5.44062e-19
0.000630035
-7.46303e-19
-5.36006e-19
0.00064303
-7.04324e-19
-5.88649e-19
0.000656268
-6.36362e-19
-6.0487e-19
0.000669755
-7.09111e-19
-6.11894e-19
0.000683491
-5.17002e-19
-4.88052e-19
0.000697481
-4.51428e-19
-4.31024e-19
0.000711726
-2.78947e-19
-5.52641e-19
0.000726229
-3.02881e-19
-4.88756e-19
0.000740992
-4.24807e-19
-4.71241e-19
0.000756017
-2.38561e-19
-4.89264e-19
0.000771306
-3.04845e-19
-4.75621e-19
0.000786859
-2.15467e-19
-3.12272e-19
0.000802677
-2.53107e-19
-3.3909e-19
0.000818762
-5.35293e-19
-3.24286e-19
0.000835111
-5.96587e-19
-4.02147e-19
0.000851726
-5.32244e-19
-5.23654e-19
0.000868604
-5.78559e-19
-5.60014e-19
0.000885743
-5.99247e-19
-5.72475e-19
0.000903141
-6.36716e-19
-3.39277e-19
0.000920794
-4.26801e-19
-5.39409e-19
0.000938697
-3.80401e-19
-6.59681e-19
0.000956845
-4.68041e-19
-6.15055e-19
0.000975232
-3.99873e-19
-4.20281e-19
0.00099385
-3.69879e-19
-5.36809e-19
0.00101269
-3.78715e-19
-3.18649e-19
0.00103175
-3.61843e-19
-3.90346e-19
0.00103175
-7.28672e-19
1.88882e-20
-6.48062e-19
-1.27772e-20
0.00101269
-5.89539e-19
2.48383e-20
-5.76857e-19
-8.48246e-21
0.00099385
-4.60347e-19
1.74723e-20
-5.22754e-19
-4.06413e-21
0.000975232
-4.21408e-19
1.59236e-21
-4.37575e-19
-6.23264e-21
0.000956845
-4.77206e-19
9.57597e-21
-4.14498e-19
-3.87038e-21
0.000938697
-4.59566e-19
2.46163e-21
-3.78479e-19
-1.42322e-20
0.000920794
-4.58466e-19
7.82909e-23
-4.63486e-19
-3.0541e-20
0.000903141
-4.6622e-19
2.06422e-21
-4.1886e-19
-1.95701e-20
0.000885743
-4.653e-19
-1.2042e-21
-4.96753e-19
-2.10847e-20
0.000868604
-4.28109e-19
-6.92795e-21
-4.97167e-19
-2.30341e-20
0.000851726
-4.14883e-19
-1.14858e-20
-4.54606e-19
-8.65631e-21
0.000835111
-5.22782e-19
-2.41822e-20
-4.47372e-19
-6.29625e-21
0.000818762
-4.69765e-19
-1.47316e-20
-4.10551e-19
7.68379e-22
0.000802677
-4.69553e-19
-6.5228e-21
-4.55611e-19
-3.91352e-23
0.000786859
-4.26162e-19
-6.35104e-21
-4.19251e-19
-5.02554e-21
0.000771306
-4.284e-19
-4.8369e-21
-4.32355e-19
-1.01942e-20
0.000756017
-4.18024e-19
-6.63056e-21
-4.81863e-19
-1.15601e-20
0.000740992
-3.71385e-19
-2.99751e-21
-3.32641e-19
-2.57577e-21
0.000726229
-4.27563e-19
-1.23252e-22
-3.15229e-19
5.40891e-21
0.000711726
-2.25816e-19
1.34893e-20
-3.07236e-19
1.20433e-20
0.000697481
-2.31159e-19
2.53879e-21
-3.65306e-19
1.74048e-20
0.000683491
-2.82639e-19
-6.38826e-21
-2.49488e-19
1.68455e-20
0.000669755
-2.61797e-19
-5.07598e-21
-1.8365e-19
8.0345e-21
0.000656268
-2.96925e-19
3.43321e-22
-1.54934e-19
-1.67165e-22
0.00064303
-2.26752e-19
6.04747e-21
-2.93294e-19
-5.98104e-21
0.000630035
-1.75382e-19
6.79974e-21
-2.53514e-19
-1.54225e-21
0.000617283
-1.96768e-19
3.40536e-21
-2.53008e-19
-4.13588e-21
0.000604768
-2.71987e-19
-2.66779e-22
-3.44922e-19
-7.69833e-21
0.000592488
-3.18889e-19
-5.06348e-21
-2.83376e-19
-1.03397e-20
0.00058044
-2.70146e-19
-6.42438e-21
-3.32633e-19
-1.57423e-20
0.000568621
-3.21289e-19
-1.32698e-20
-3.42865e-19
-1.31997e-20
0.000557026
-2.25487e-19
-1.03773e-20
-2.78705e-19
-4.44468e-21
0.000545653
-2.36885e-19
-1.04167e-20
-3.29981e-19
-5.29939e-21
0.000534498
-3.35288e-19
-1.5624e-20
-3.31605e-19
-7.40702e-21
0.000523558
-4.43181e-19
-1.46826e-20
-4.21403e-19
-1.18074e-20
0.000512828
-4.04005e-19
-1.38895e-20
-3.6453e-19
-9.62363e-21
0.000502307
-3.65759e-19
-1.52298e-20
-3.87321e-19
-1.34563e-20
0.00049199
-4.09521e-19
-1.53674e-20
-3.91261e-19
-1.28899e-20
0.000481874
-4.06397e-19
-1.30358e-20
-4.07549e-19
-1.41365e-20
0.000471955
-3.66471e-19
-1.1459e-20
-4.0527e-19
-1.34518e-20
0.00046223
-3.44022e-19
-8.2127e-21
-4.1859e-19
-1.25806e-20
0.000452697
-4.51526e-19
-6.4072e-21
-3.23377e-19
-9.03459e-21
0.00044335
-3.73609e-19
-4.79118e-21
-3.6409e-19
-7.04543e-21
0.000434188
-3.67428e-19
-2.82779e-21
-3.75094e-19
-4.65772e-21
0.000425207
-3.31687e-19
1.02236e-22
-2.45143e-19
-8.99838e-22
0.000416404
-3.28617e-19
1.04492e-21
-2.73788e-19
-1.1695e-21
0.000407775
-2.92041e-19
2.0778e-21
-2.68277e-19
-1.99161e-21
0.000399317
-2.52614e-19
2.67429e-21
-2.73357e-19
-1.08625e-21
0.000391027
-2.75573e-19
3.26927e-21
-2.61894e-19
2.16497e-21
0.000382903
-2.65056e-19
4.61553e-21
-2.89338e-19
2.07059e-21
0.000374941
-2.24031e-19
6.51263e-21
-3.03307e-19
3.24284e-21
0.000367137
-2.33067e-19
8.55219e-21
-1.60985e-19
3.31037e-21
0.00035949
-2.47354e-19
8.81269e-21
-1.74673e-19
2.53297e-21
0.000351996
-1.76177e-19
9.2055e-21
-1.81185e-19
1.3527e-21
0.000344653
-1.82791e-19
6.66871e-21
-1.839e-19
-5.86274e-22
0.000337456
-1.93363e-19
5.10067e-21
-1.69033e-19
-2.36785e-22
0.000330405
-1.4652e-19
4.56281e-21
-1.4308e-19
1.7518e-22
0.000323496
-1.38875e-19
3.90591e-21
-9.00278e-20
1.85711e-21
0.000316725
-1.28306e-19
3.7435e-21
-1.08632e-19
2.27745e-21
0.000310092
-1.39045e-19
3.99976e-21
-1.16955e-19
2.43774e-21
0.000303592
-1.28451e-19
4.15529e-21
-1.75966e-19
2.52833e-21
0.000297224
-1.0713e-19
4.3818e-21
-1.34828e-19
3.41145e-21
0.000290984
-1.54032e-19