/*--------------------------------*- C++ -*----------------------------------*\
| =========                 |                                                 |
| \\      /  F ield         | OpenFOAM: The Open Source CFD Toolbox           |
|  \\    /   O peration     | Version:  2106                                  |
|   \\  /    A nd           | Website:  www.openfoam.com                      |
|    \\/     M anipulation  |                                                 |
\*---------------------------------------------------------------------------*/
FoamFile
{
    version     2.0;
    format      ascii;
    arch        "LSB;label=32;scalar=64";
    class       volVectorField;
    location    "10020";
    object      U;
}
// * * * * * * * * * * * * * * * * * * * * * * * * * * * * * * * * * * * * * //

dimensions      [0 1 -1 0 0 0 0];

internalField   nonuniform List<vector> 
2000
(
(0.00324053 -1.85961e-16 -1.71084e-17)
(0.00324053 4.8861e-19 -4.61933e-18)
(0.00978086 -2.88637e-15 -9.45098e-17)
(0.00978086 -1.47146e-18 -5.53678e-17)
(0.016442 -1.85877e-15 -1.00574e-16)
(0.016442 -1.87435e-18 -5.74718e-17)
(0.0232262 -1.85592e-15 -1.06627e-16)
(0.0232262 -2.91892e-18 -5.96592e-17)
(0.0301356 -1.83466e-15 -1.13035e-16)
(0.0301356 -3.99238e-18 -6.19328e-17)
(0.0371726 -1.84041e-15 -1.19805e-16)
(0.0371726 -5.12223e-18 -6.42971e-17)
(0.0443396 -1.8419e-15 -1.26891e-16)
(0.0443396 -6.27404e-18 -6.67549e-17)
(0.0516387 -1.84e-15 -1.3429e-16)
(0.0516387 -7.4298e-18 -6.93111e-17)
(0.0590725 -1.83797e-15 -1.42008e-16)
(0.0590725 -8.64248e-18 -7.1967e-17)
(0.0666433 -1.83606e-15 -1.50055e-16)
(0.0666433 -9.85516e-18 -7.47254e-17)
(0.0743534 -1.83405e-15 -1.5844e-16)
(0.0743534 -1.11003e-17 -7.75937e-17)
(0.0822053 -1.83188e-15 -1.67173e-16)
(0.0822053 -1.23559e-17 -8.05737e-17)
(0.0902011 -1.82956e-15 -1.76262e-16)
(0.0902011 -1.36774e-17 -8.36688e-17)
(0.098343 -1.82711e-15 -1.85717e-16)
(0.098343 -1.50762e-17 -8.68812e-17)
(0.106633 -1.82474e-15 -1.95544e-16)
(0.106633 -1.63628e-17 -9.0211e-17)
(0.115073 -1.82242e-15 -2.05748e-16)
(0.115073 -1.76363e-17 -9.36599e-17)
(0.123664 -1.82015e-15 -2.16331e-16)
(0.123664 -1.89433e-17 -9.72318e-17)
(0.132407 -1.8178e-15 -2.27291e-16)
(0.132407 -2.01807e-17 -1.00926e-16)
(0.141303 -1.81533e-15 -2.38622e-16)
(0.141303 -2.15471e-17 -1.04728e-16)
(0.150352 -1.8129e-15 -2.5031e-16)
(0.150352 -2.29306e-17 -1.08644e-16)
(0.159551 -1.8104e-15 -2.62336e-16)
(0.159551 -2.41675e-17 -1.12665e-16)
(0.1689 -1.80781e-15 -2.74672e-16)
(0.1689 -2.55113e-17 -1.16772e-16)
(0.178394 -1.80519e-15 -2.87279e-16)
(0.178394 -2.69052e-17 -1.20955e-16)
(0.188028 -1.80242e-15 -3.0011e-16)
(0.188028 -2.83843e-17 -1.25197e-16)
(0.197797 -1.79946e-15 -3.13105e-16)
(0.197797 -3.01657e-17 -1.29472e-16)
(0.207691 -1.79656e-15 -3.26194e-16)
(0.207691 -3.17295e-17 -1.33755e-16)
(0.217701 -1.79381e-15 -3.39298e-16)
(0.217701 -3.31927e-17 -1.38014e-16)
(0.227814 -1.79086e-15 -3.52328e-16)
(0.227814 -3.49445e-17 -1.4222e-16)
(0.238015 -1.78766e-15 -3.65188e-16)
(0.238015 -3.64934e-17 -1.46333e-16)
(0.248289 -1.78431e-15 -3.7778e-16)
(0.248289 -3.83046e-17 -1.50323e-16)
(0.258618 -1.78051e-15 -3.90005e-16)
(0.258618 -4.04085e-17 -1.54159e-16)
(0.268982 -1.77703e-15 -3.94156e-16)
(0.268982 -4.20802e-17 -1.57796e-16)
(0.279361 -1.77414e-15 -3.95973e-16)
(0.279361 -4.349e-17 -1.61209e-16)
(0.289734 -1.77141e-15 -3.97002e-16)
(0.289734 -4.49094e-17 -1.64376e-16)
(0.300079 -1.76872e-15 -3.97236e-16)
(0.300079 -4.60941e-17 -1.67292e-16)
(0.310376 -1.76582e-15 -3.9669e-16)
(0.310376 -4.73323e-17 -1.69929e-16)
(0.320603 -1.76258e-15 -3.95365e-16)
(0.320603 -4.88706e-17 -1.72313e-16)
(0.330744 -1.75948e-15 -3.93308e-16)
(0.330744 -5.01866e-17 -1.74428e-16)
(0.340778 -1.7561e-15 -3.90554e-16)
(0.340778 -5.19193e-17 -1.76274e-16)
(0.350692 -1.75227e-15 -3.87166e-16)
(0.350692 -5.38287e-17 -1.77911e-16)
(0.360472 -1.74901e-15 -3.83209e-16)
(0.360472 -5.54481e-17 -1.79325e-16)
(0.370104 -1.7459e-15 -3.78749e-16)
(0.370104 -5.73153e-17 -1.8053e-16)
(0.379582 -1.74245e-15 -3.73884e-16)
(0.379582 -5.87845e-17 -1.81557e-16)
(0.388895 -1.73945e-15 -3.68698e-16)
(0.388895 -6.02506e-17 -1.8244e-16)
(0.39804 -1.73649e-15 -3.63233e-16)
(0.39804 -6.12524e-17 -1.83209e-16)
(0.407012 -1.73321e-15 -3.57551e-16)
(0.407012 -6.263e-17 -1.83877e-16)
(0.415808 -1.73086e-15 -3.51707e-16)
(0.415808 -6.42988e-17 -1.84488e-16)
(0.424428 -1.72885e-15 -3.45773e-16)
(0.424428 -6.5171e-17 -1.85119e-16)
(0.432873 -1.72605e-15 -3.39801e-16)
(0.432873 -6.61454e-17 -1.8568e-16)
(0.441143 -1.72338e-15 -3.33816e-16)
(0.441143 -6.75417e-17 -1.86185e-16)
(0.44924 -1.72122e-15 -3.2785e-16)
(0.44924 -6.86552e-17 -1.86736e-16)
(0.457168 -1.7187e-15 -3.21979e-16)
(0.457168 -6.95062e-17 -1.87378e-16)
(0.46493 -1.71578e-15 -3.16135e-16)
(0.46493 -7.04807e-17 -1.88017e-16)
(0.472529 -1.71285e-15 -3.10449e-16)
(0.472529 -7.17485e-17 -1.88718e-16)
(0.47997 -1.71002e-15 -3.0487e-16)
(0.47997 -7.35279e-17 -1.89489e-16)
(0.487258 -1.70777e-15 -3.04435e-16)
(0.487258 -7.48287e-17 -1.90316e-16)
(0.494396 -1.70693e-15 -3.05548e-16)
(0.494396 -7.47701e-17 -1.91246e-16)
(0.50139 -1.70588e-15 -3.06781e-16)
(0.50139 -7.4348e-17 -1.92214e-16)
(0.508244 -1.70359e-15 -3.08126e-16)
(0.508244 -7.54588e-17 -1.93307e-16)
(0.514963 -1.70129e-15 -3.0955e-16)
(0.514963 -7.64817e-17 -1.94466e-16)
(0.521552 -1.69891e-15 -3.11099e-16)
(0.521552 -7.66237e-17 -1.9571e-16)
(0.528014 -1.69662e-15 -3.1269e-16)
(0.528014 -7.65812e-17 -1.97184e-16)
(0.534355 -1.69483e-15 -3.14414e-16)
(0.534355 -7.74299e-17 -1.98793e-16)
(0.540579 -1.69297e-15 -3.16215e-16)
(0.540579 -7.95011e-17 -2.00393e-16)
(0.54669 -1.69096e-15 -3.18249e-16)
(0.54669 -8.00804e-17 -2.022e-16)
(0.552693 -1.68864e-15 -3.20339e-16)
(0.552693 -8.00413e-17 -2.04063e-16)
(0.558591 -1.68624e-15 -3.22597e-16)
(0.558591 -8.03073e-17 -2.06052e-16)
(0.564388 -1.68426e-15 -3.24937e-16)
(0.564388 -8.0271e-17 -2.08184e-16)
(0.570088 -1.68206e-15 -3.27401e-16)
(0.570088 -8.09656e-17 -2.10519e-16)
(0.575694 -1.67923e-15 -3.30106e-16)
(0.575694 -8.26901e-17 -2.12987e-16)
(0.58121 -1.67637e-15 -3.32885e-16)
(0.58121 -8.51087e-17 -2.15621e-16)
(0.58664 -1.67374e-15 -3.35746e-16)
(0.58664 -8.65139e-17 -2.18337e-16)
(0.591986 -1.67046e-15 -3.38812e-16)
(0.591986 -8.88882e-17 -2.21086e-16)
(0.597251 -1.66793e-15 -3.41913e-16)
(0.597251 -9.18707e-17 -2.23876e-16)
(0.602439 -1.6664e-15 -3.45307e-16)
(0.602439 -9.27481e-17 -2.27069e-16)
(0.607552 -1.66624e-15 -3.48819e-16)
(0.607552 -9.37668e-17 -2.30383e-16)
(0.612592 -1.66609e-15 -3.52372e-16)
(0.612592 -9.34696e-17 -2.33624e-16)
(0.617564 -1.66569e-15 -3.56285e-16)
(0.617564 -9.34074e-17 -2.37044e-16)
(0.622468 -1.66585e-15 -3.60171e-16)
(0.622468 -9.37019e-17 -2.40691e-16)
(0.627307 -1.66607e-15 -3.64255e-16)
(0.627307 -9.30435e-17 -2.44374e-16)
(0.632084 -1.66586e-15 -3.67466e-16)
(0.632084 -9.38265e-17 -2.48419e-16)
(0.6368 -1.6648e-15 -3.70496e-16)
(0.6368 -9.33526e-17 -2.52554e-16)
(0.641458 -1.66357e-15 -3.73614e-16)
(0.641458 -9.45277e-17 -2.56657e-16)
(0.64606 -1.66238e-15 -3.76653e-16)
(0.64606 -9.6065e-17 -2.61119e-16)
(0.650607 -1.66165e-15 -3.79732e-16)
(0.650607 -9.60216e-17 -2.66032e-16)
(0.655102 -1.66035e-15 -3.83099e-16)
(0.655102 -9.6839e-17 -2.71027e-16)
(0.659546 -1.66153e-15 -3.86596e-16)
(0.659546 -9.85084e-17 -2.75832e-16)
(0.663941 -1.66374e-15 -3.89868e-16)
(0.663941 -1.00827e-16 -2.81106e-16)
(0.668289 -1.66351e-15 -3.93289e-16)
(0.668289 -1.01613e-16 -2.86813e-16)
(0.672591 -1.66215e-15 -3.96838e-16)
(0.672591 -1.04692e-16 -2.9227e-16)
(0.676848 -1.6617e-15 -4.00187e-16)
(0.676848 -1.094e-16 -2.98276e-16)
(0.681062 -1.66033e-15 -4.03556e-16)
(0.681062 -1.12512e-16 -3.04361e-16)
(0.685234 -1.65593e-15 -4.07119e-16)
(0.685234 -1.1668e-16 -3.10431e-16)
(0.689366 -1.65211e-15 -4.10507e-16)
(0.689366 -1.20293e-16 -3.16986e-16)
(0.693459 -1.65004e-15 -4.13697e-16)
(0.693459 -1.2428e-16 -3.24044e-16)
(0.697514 -1.64878e-15 -4.17056e-16)
(0.697514 -1.29506e-16 -3.31193e-16)
(0.701532 -1.6462e-15 -4.20732e-16)
(0.701532 -1.35252e-16 -3.38492e-16)
(0.705515 -1.64319e-15 -4.24509e-16)
(0.705515 -1.39776e-16 -3.46144e-16)
(0.709463 -1.63982e-15 -4.28464e-16)
(0.709463 -1.43972e-16 -3.54097e-16)
(0.713378 -1.63627e-15 -4.32806e-16)
(0.713378 -1.48662e-16 -3.57507e-16)
(0.71726 -1.63457e-15 -4.37479e-16)
(0.71726 -1.5044e-16 -3.58797e-16)
(0.72111 -1.63393e-15 -4.42376e-16)
(0.72111 -1.49105e-16 -3.59809e-16)
(0.724931 -1.63433e-15 -4.47168e-16)
(0.724931 -1.52357e-16 -3.60374e-16)
(0.728721 -1.634e-15 -4.51588e-16)
(0.728721 -1.56241e-16 -3.60731e-16)
(0.732483 -1.63287e-15 -4.56009e-16)
(0.732483 -1.59766e-16 -3.61426e-16)
(0.736216 -1.63253e-15 -4.60842e-16)
(0.736216 -1.64784e-16 -3.62032e-16)
(0.739922 -1.63097e-15 -4.65664e-16)
(0.739922 -1.69606e-16 -3.62993e-16)
(0.743602 -1.6272e-15 -4.70555e-16)
(0.743602 -1.76472e-16 -3.63274e-16)
(0.747257 -1.62421e-15 -4.74677e-16)
(0.747257 -1.79606e-16 -3.63676e-16)
(0.750886 -1.61981e-15 -4.79195e-16)
(0.750886 -1.82584e-16 -3.63687e-16)
(0.754491 -1.61382e-15 -4.8368e-16)
(0.754491 -1.87104e-16 -3.6432e-16)
(0.758072 -1.61073e-15 -4.88071e-16)
(0.758072 -1.92731e-16 -3.65183e-16)
(0.761631 -1.60764e-15 -4.92492e-16)
(0.761631 -1.95837e-16 -3.65963e-16)
(0.765167 -1.60345e-15 -4.96593e-16)
(0.765167 -2.00571e-16 -3.66278e-16)
(0.768681 -1.59722e-15 -5.00065e-16)
(0.768681 -2.07497e-16 -3.66464e-16)
(0.772174 -1.59103e-15 -5.03401e-16)
(0.772174 -2.12166e-16 -3.67268e-16)
(0.775647 -1.58586e-15 -5.07075e-16)
(0.775647 -2.19385e-16 -3.68171e-16)
(0.779099 -1.57725e-15 -5.10535e-16)
(0.779099 -2.2911e-16 -3.68585e-16)
(0.782532 -1.56877e-15 -5.13084e-16)
(0.782532 -2.3918e-16 -3.69232e-16)
(0.785946 -1.5623e-15 -5.1568e-16)
(0.785946 -2.45247e-16 -3.69402e-16)
(0.789342 -1.55778e-15 -5.18164e-16)
(0.789342 -2.52166e-16 -3.70914e-16)
(0.792719 -1.55286e-15 -5.21008e-16)
(0.792719 -2.61491e-16 -3.70947e-16)
(0.796079 -1.54688e-15 -5.21964e-16)
(0.796079 -2.6719e-16 -3.71223e-16)
(0.799422 -1.54173e-15 -5.23065e-16)
(0.799422 -2.73403e-16 -3.69688e-16)
(0.802748 -1.53441e-15 -5.22791e-16)
(0.802748 -2.79131e-16 -3.69939e-16)
(0.806058 -1.5236e-15 -5.23116e-16)
(0.806058 -2.91932e-16 -3.70051e-16)
(0.809352 -1.51012e-15 -5.2422e-16)
(0.809352 -3.03139e-16 -3.71216e-16)
(0.81263 -1.50133e-15 -5.26094e-16)
(0.81263 -3.08593e-16 -3.71146e-16)
(0.815893 -1.49666e-15 -5.25266e-16)
(0.815893 -3.1857e-16 -3.72479e-16)
(0.819142 -1.4879e-15 -5.2388e-16)
(0.819142 -3.2571e-16 -3.74785e-16)
(0.822376 -1.47574e-15 -5.23306e-16)
(0.822376 -3.35912e-16 -3.77783e-16)
(0.825596 -1.45904e-15 -5.23799e-16)
(0.825596 -3.48888e-16 -3.80814e-16)
(0.828802 -1.44235e-15 -5.23747e-16)
(0.828802 -3.63113e-16 -3.84384e-16)
(0.831994 -1.43026e-15 -5.25227e-16)
(0.831994 -3.74677e-16 -3.89176e-16)
(0.835174 -1.42102e-15 -5.289e-16)
(0.835174 -3.77967e-16 -3.93775e-16)
(0.838341 -1.41577e-15 -5.3185e-16)
(0.838341 -3.80763e-16 -3.96473e-16)
(0.841495 -1.41134e-15 -5.3317e-16)
(0.841495 -3.81859e-16 -3.98559e-16)
(0.844637 -1.4048e-15 -5.34249e-16)
(0.844637 -3.81187e-16 -3.99789e-16)
(0.847767 -1.39796e-15 -5.35341e-16)
(0.847767 -3.80388e-16 -3.99536e-16)
(0.850886 -1.39111e-15 -5.35141e-16)
(0.850886 -3.85884e-16 -3.97063e-16)
(0.853992 -1.38488e-15 -5.32828e-16)
(0.853992 -3.88668e-16 -3.96379e-16)
(0.857088 -1.37637e-15 -5.32187e-16)
(0.857088 -3.89118e-16 -3.95954e-16)
(0.860173 -1.36552e-15 -5.32647e-16)
(0.860173 -3.95003e-16 -3.95156e-16)
(0.863246 -1.35413e-15 -5.31904e-16)
(0.863246 -3.99354e-16 -3.92467e-16)
(0.866309 -1.34682e-15 -5.28963e-16)
(0.866309 -4.05822e-16 -3.90784e-16)
(0.869362 -1.33842e-15 -5.27839e-16)
(0.869362 -4.1573e-16 -3.90048e-16)
(0.872405 -1.32874e-15 -5.27905e-16)
(0.872405 -4.26798e-16 -3.87351e-16)
(0.875438 -1.32344e-15 -5.25524e-16)
(0.875438 -4.33267e-16 -3.83981e-16)
(0.878461 -1.31058e-15 -5.23699e-16)
(0.878461 -4.39079e-16 -3.80564e-16)
(0.881474 -1.28879e-15 -5.23187e-16)
(0.881474 -4.46148e-16 -3.74763e-16)
(0.884478 -1.26983e-15 -5.20838e-16)
(0.884478 -4.52801e-16 -3.69329e-16)
(0.887472 -1.26247e-15 -5.18894e-16)
(0.887472 -4.63114e-16 -3.64841e-16)
(0.890458 -1.2639e-15 -5.1324e-16)
(0.890458 -4.73569e-16 -3.5924e-16)
(0.893434 -1.26091e-15 -5.03752e-16)
(0.893434 -4.80412e-16 -3.52163e-16)
(0.896402 -1.24553e-15 -4.96416e-16)
(0.896402 -4.86545e-16 -3.54259e-16)
(0.89936 -1.22745e-15 -4.91783e-16)
(0.89936 -5.00241e-16 -3.54051e-16)
(0.902311 -1.21246e-15 -4.87218e-16)
(0.902311 -5.05796e-16 -3.54167e-16)
(0.905252 -1.20235e-15 -4.82957e-16)
(0.905252 -5.09983e-16 -3.57009e-16)
(0.908186 -1.19268e-15 -4.72946e-16)
(0.908186 -5.17426e-16 -3.628e-16)
(0.911111 -1.18338e-15 -4.60768e-16)
(0.911111 -5.17048e-16 -3.66359e-16)
(0.914028 -1.17429e-15 -4.56657e-16)
(0.914028 -5.29366e-16 -3.67025e-16)
(0.916937 -1.15894e-15 -4.55352e-16)
(0.916937 -5.38979e-16 -3.6785e-16)
(0.919838 -1.13661e-15 -4.55327e-16)
(0.919838 -5.55528e-16 -3.65402e-16)
(0.922731 -1.11614e-15 -4.54114e-16)
(0.922731 -5.66682e-16 -3.62131e-16)
(0.925616 -1.11061e-15 -4.53415e-16)
(0.925616 -5.63836e-16 -3.63665e-16)
(0.928493 -1.10613e-15 -4.52102e-16)
(0.928493 -5.71856e-16 -3.67842e-16)
(0.931363 -1.09355e-15 -4.48366e-16)
(0.931363 -5.76032e-16 -3.74964e-16)
(0.934225 -1.07992e-15 -4.45632e-16)
(0.934225 -5.77588e-16 -3.78538e-16)
(0.937079 -1.06663e-15 -4.42616e-16)
(0.937079 -5.83425e-16 -3.76895e-16)
(0.939926 -1.05166e-15 -4.38529e-16)
(0.939926 -5.89268e-16 -3.83708e-16)
(0.942765 -1.0412e-15 -4.36292e-16)
(0.942765 -5.99365e-16 -3.84092e-16)
(0.945597 -1.02417e-15 -4.34785e-16)
(0.945597 -6.06947e-16 -3.82907e-16)
(0.948421 -1.01222e-15 -4.3229e-16)
(0.948421 -6.08413e-16 -3.87496e-16)
(0.951237 -1.00412e-15 -4.27306e-16)
(0.951237 -6.10437e-16 -3.91498e-16)
(0.954046 -9.92128e-16 -4.25129e-16)
(0.954046 -6.09599e-16 -3.96151e-16)
(0.956847 -9.85792e-16 -4.26189e-16)
(0.956847 -6.07934e-16 -3.97852e-16)
(0.959641 -9.71605e-16 -4.2514e-16)
(0.959641 -6.14047e-16 -3.99107e-16)
(0.962427 -9.60294e-16 -4.20763e-16)
(0.962427 -6.02596e-16 -3.96424e-16)
(0.965205 -9.5345e-16 -4.14726e-16)
(0.965205 -5.94125e-16 -3.9765e-16)
(0.967976 -9.38947e-16 -4.08344e-16)
(0.967976 -5.9032e-16 -4.04996e-16)
(0.970739 -9.05664e-16 -3.99643e-16)
(0.970739 -6.00121e-16 -4.09983e-16)
(0.973493 -8.66068e-16 -4.11939e-16)
(0.973493 -6.29924e-16 -4.17461e-16)
(0.97624 -8.42719e-16 -4.20949e-16)
(0.97624 -6.47895e-16 -4.20406e-16)
(0.978979 -8.30177e-16 -4.29292e-16)
(0.978979 -6.57262e-16 -4.08582e-16)
(0.98171 -8.33291e-16 -4.27687e-16)
(0.98171 -6.47296e-16 -4.09524e-16)
(0.984433 -8.1808e-16 -4.15359e-16)
(0.984433 -6.61377e-16 -4.26582e-16)
(0.987147 -8.03419e-16 -4.35691e-16)
(0.987147 -6.67398e-16 -4.3188e-16)
(0.989853 -8.08698e-16 -4.41107e-16)
(0.989853 -6.73675e-16 -4.45778e-16)
(0.99255 -7.99151e-16 -4.44135e-16)
(0.99255 -7.00909e-16 -4.64405e-16)
(0.995238 -7.85055e-16 -4.50252e-16)
(0.995238 -7.07881e-16 -4.79222e-16)
(0.997918 -7.69183e-16 -4.53692e-16)
(0.997918 -7.1703e-16 -4.85568e-16)
(1.00059 -7.53878e-16 -4.58338e-16)
(1.00059 -7.07317e-16 -4.86863e-16)
(1.00325 -7.48078e-16 -4.64718e-16)
(1.00325 -6.87951e-16 -4.98721e-16)
(1.0059 -7.46834e-16 -4.63472e-16)
(1.0059 -6.84434e-16 -5.22084e-16)
(1.00854 -7.35341e-16 -4.63445e-16)
(1.00854 -6.98521e-16 -5.3571e-16)
(1.01117 -7.06863e-16 -4.60897e-16)
(1.01117 -7.04518e-16 -5.49043e-16)
(1.01379 -6.86778e-16 -4.68571e-16)
(1.01379 -7.06637e-16 -5.50796e-16)
(1.0164 -7.02781e-16 -4.88552e-16)
(1.0164 -7.05844e-16 -5.42156e-16)
(1.019 -7.00203e-16 -4.72896e-16)
(1.019 -6.8976e-16 -5.4648e-16)
(1.02159 -6.85801e-16 -4.79062e-16)
(1.02159 -6.89783e-16 -5.38242e-16)
(1.02417 -6.81166e-16 -4.84633e-16)
(1.02417 -6.64311e-16 -5.25391e-16)
(1.02674 -6.65038e-16 -4.82223e-16)
(1.02674 -6.45144e-16 -5.10233e-16)
(1.02929 -6.49531e-16 -4.72006e-16)
(1.02929 -6.36936e-16 -5.16257e-16)
(1.03183 -6.28045e-16 -5.01664e-16)
(1.03183 -6.37046e-16 -5.13236e-16)
(1.03435 -6.04246e-16 -4.92528e-16)
(1.03435 -6.07639e-16 -4.93493e-16)
(1.03687 -5.79353e-16 -4.90959e-16)
(1.03687 -5.81455e-16 -4.93051e-16)
(1.03937 -5.52484e-16 -4.93872e-16)
(1.03937 -5.99646e-16 -4.82719e-16)
(1.04185 -5.49577e-16 -4.95857e-16)
(1.04185 -5.55366e-16 -4.69903e-16)
(1.04432 -5.51357e-16 -4.71106e-16)
(1.04432 -5.1945e-16 -4.68138e-16)
(1.04677 -5.28516e-16 -4.48697e-16)
(1.04677 -5.21025e-16 -4.88109e-16)
(1.04921 -5.037e-16 -4.38479e-16)
(1.04921 -4.89258e-16 -4.95268e-16)
(1.05163 -4.84936e-16 -4.61544e-16)
(1.05163 -4.85613e-16 -4.99556e-16)
(1.05403 -4.11003e-16 -4.60153e-16)
(1.05403 -5.07506e-16 -4.88655e-16)
(1.05642 -5.12651e-16 -4.79159e-16)
(1.05642 -4.98661e-16 -4.99441e-16)
(1.05878 -5.19057e-16 -5.0088e-16)
(1.05878 -5.17342e-16 -5.12613e-16)
(1.06112 -5.14336e-16 -4.9251e-16)
(1.06112 -5.24979e-16 -4.99774e-16)
(1.06345 -5.0557e-16 -4.99424e-16)
(1.06345 -4.88546e-16 -4.48115e-16)
(1.06575 -5.11613e-16 -4.63822e-16)
(1.06575 -4.9554e-16 -4.42711e-16)
(1.06802 -5.16906e-16 -4.64294e-16)
(1.06802 -5.14292e-16 -4.29812e-16)
(1.07028 -4.87013e-16 -4.73691e-16)
(1.07028 -5.12592e-16 -4.28085e-16)
(1.0725 -5.19467e-16 -4.90561e-16)
(1.0725 -5.20035e-16 -4.38158e-16)
(1.0747 -4.90455e-16 -4.85107e-16)
(1.0747 -5.19887e-16 -4.62427e-16)
(1.07688 -5.00169e-16 -4.85979e-16)
(1.07688 -5.27543e-16 -4.40574e-16)
(1.07902 -5.40243e-16 -4.73131e-16)
(1.07902 -5.05508e-16 -4.09352e-16)
(1.08113 -5.44055e-16 -4.46625e-16)
(1.08113 -5.18704e-16 -4.12358e-16)
(1.08321 -5.34913e-16 -4.62364e-16)
(1.08321 -5.54256e-16 -3.88396e-16)
(1.08525 -4.9284e-16 -5.16067e-16)
(1.08525 -5.50214e-16 -3.74428e-16)
(1.08726 -4.71085e-16 -5.5021e-16)
(1.08726 -5.07019e-16 -3.57231e-16)
(1.08922 -5.25599e-16 -5.71079e-16)
(1.08922 -4.93604e-16 -3.48103e-16)
(1.09115 -5.09472e-16 -5.43498e-16)
(1.09115 -5.01535e-16 -2.93037e-16)
(1.09303 -4.61725e-16 -5.08966e-16)
(1.09303 -4.56254e-16 -2.91093e-16)
(1.09487 -4.36084e-16 -4.85187e-16)
(1.09487 -4.64662e-16 -3.33397e-16)
(1.09665 -4.14555e-16 -4.80996e-16)
(1.09665 -4.75921e-16 -3.62493e-16)
(1.09839 -3.53402e-16 -5.10516e-16)
(1.09839 -4.6181e-16 -3.799e-16)
(1.10006 -4.44e-16 -4.91874e-16)
(1.10006 -4.61558e-16 -3.66744e-16)
(1.10168 -4.18795e-16 -4.7779e-16)
(1.10168 -4.80563e-16 -4.66597e-16)
(1.10323 -4.58319e-16 -4.22964e-16)
(1.10323 -5.12198e-16 -4.62093e-16)
(1.10472 -4.73062e-16 -3.64231e-16)
(1.10472 -4.75646e-16 -3.50841e-16)
(1.10613 -4.77438e-16 -3.38152e-16)
(1.10613 -4.33667e-16 -3.29223e-16)
(1.10747 -4.99566e-16 -4.01148e-16)
(1.10747 -4.58469e-16 -3.46295e-16)
(1.10872 -5.43392e-16 -3.46062e-16)
(1.10872 -4.32135e-16 -3.44506e-16)
(1.10987 -4.99091e-16 -2.85845e-16)
(1.10987 -3.79841e-16 -2.64602e-16)
(1.11094 -4.33003e-16 -1.94864e-16)
(1.11094 -3.49075e-16 -2.29788e-16)
(1.1119 -3.64707e-16 -2.19228e-16)
(1.1119 -3.70985e-16 -2.08819e-16)
(1.11274 -3.50775e-16 -1.86913e-16)
(1.11274 -3.46544e-16 -2.05106e-16)
(1.11347 -3.21427e-16 -2.09586e-16)
(1.11347 -3.48426e-16 -1.86556e-16)
(1.11407 -2.35647e-16 -2.22341e-16)
(1.11407 -3.50389e-16 -2.16259e-16)
(1.11454 -2.99125e-16 -1.51105e-16)
(1.11454 -2.82555e-16 -1.94109e-16)
(1.11485 -2.56111e-16 -1.05719e-16)
(1.11485 -2.59062e-16 -1.69199e-16)
(1.11502 -2.59785e-16 -9.58361e-17)
(1.11502 -2.7124e-16 -1.09516e-16)
(0.00324053 2.67275e-19 4.75646e-18)
(0.00324053 1.11229e-19 1.09455e-17)
(0.00978086 -7.00401e-19 2.593e-17)
(0.00978086 -2.56824e-19 4.34997e-17)
(0.016442 -8.6986e-19 2.68939e-17)
(0.016442 -3.08225e-19 4.51575e-17)
(0.0232262 -1.37947e-18 2.78857e-17)
(0.0232262 -4.97762e-19 4.68901e-17)
(0.0301356 -1.91665e-18 2.89055e-17)
(0.0301356 -6.922e-19 4.87013e-17)
(0.0371726 -2.46726e-18 2.99535e-17)
(0.0371726 -8.94447e-19 5.05946e-17)
(0.0443396 -3.02391e-18 3.10299e-17)
(0.0443396 -1.11277e-18 5.25748e-17)
(0.0516387 -3.57196e-18 3.21355e-17)
(0.0516387 -1.36695e-18 5.4645e-17)
(0.0590725 -4.13061e-18 3.3271e-17)
(0.0590725 -1.62299e-18 5.68092e-17)
(0.0666433 -4.68178e-18 3.44371e-17)
(0.0666433 -1.93606e-18 5.90722e-17)
(0.0743534 -5.20051e-18 3.56342e-17)
(0.0743534 -2.2986e-18 6.14356e-17)
(0.0822053 -5.75921e-18 3.68627e-17)
(0.0822053 -2.60405e-18 6.39042e-17)
(0.0902011 -6.44257e-18 3.81226e-17)
(0.0902011 -2.89768e-18 6.64817e-17)
(0.098343 -7.22255e-18 3.94128e-17)
(0.098343 -3.15204e-18 6.91745e-17)
(0.106633 -7.96741e-18 4.07311e-17)
(0.106633 -3.43152e-18 7.19847e-17)
(0.115073 -8.6957e-18 4.20781e-17)
(0.115073 -3.69347e-18 7.49108e-17)
(0.123664 -9.34236e-18 4.34513e-17)
(0.123664 -4.08367e-18 7.79544e-17)
(0.132407 -9.92798e-18 4.48502e-17)
(0.132407 -4.5427e-18 8.11117e-17)
(0.141303 -1.05154e-17 4.62729e-17)
(0.141303 -4.98907e-18 8.43841e-17)
(0.150352 -1.11205e-17 4.77162e-17)
(0.150352 -5.49075e-18 8.77628e-17)
(0.159551 -1.18745e-17 4.91706e-17)
(0.159551 -5.8438e-18 9.12482e-17)
(0.1689 -1.26875e-17 5.06321e-17)
(0.1689 -6.14716e-18 9.48295e-17)
(0.178394 -1.35233e-17 5.20938e-17)
(0.178394 -6.4565e-18 9.84929e-17)
(0.188028 -1.42905e-17 5.3545e-17)
(0.188028 -6.85246e-18 1.02227e-16)
(0.197797 -1.50511e-17 5.49749e-17)
(0.197797 -7.27163e-18 1.0601e-16)
(0.207691 -1.60113e-17 5.63679e-17)
(0.207691 -7.64227e-18 1.09822e-16)
(0.217701 -1.68899e-17 5.77093e-17)
(0.217701 -8.08479e-18 1.13646e-16)
(0.227814 -1.76425e-17 5.89898e-17)
(0.227814 -8.60979e-18 1.17445e-16)
(0.238015 -1.85341e-17 6.01895e-17)
(0.238015 -8.9931e-18 1.2119e-16)
(0.248289 -1.94354e-17 6.12914e-17)
(0.248289 -9.5263e-18 1.24846e-16)
(0.258618 -2.02189e-17 6.22795e-17)
(0.258618 -1.01285e-17 1.28386e-16)
(0.268982 -2.11863e-17 6.31344e-17)
(0.268982 -1.05793e-17 1.31797e-16)
(0.279361 -2.21673e-17 6.38467e-17)
(0.279361 -1.12345e-17 1.35042e-16)
(0.289734 -2.29593e-17 6.4405e-17)
(0.289734 -1.2152e-17 1.38102e-16)
(0.300079 -2.37249e-17 6.48095e-17)
(0.300079 -1.27452e-17 1.40941e-16)
(0.310376 -2.44729e-17 6.506e-17)
(0.310376 -1.3345e-17 1.43563e-16)
(0.320603 -2.51654e-17 6.51548e-17)
(0.320603 -1.40234e-17 1.45957e-16)
(0.330744 -2.58402e-17 6.51066e-17)
(0.330744 -1.45039e-17 1.48136e-16)
(0.340778 -2.66153e-17 6.49322e-17)
(0.340778 -1.54497e-17 1.50116e-16)
(0.350692 -2.76993e-17 6.46377e-17)
(0.350692 -1.58885e-17 1.51884e-16)
(0.360472 -2.88409e-17 6.4225e-17)
(0.360472 -1.57106e-17 1.53474e-16)
(0.370104 -2.96153e-17 6.3717e-17)
(0.370104 -1.66771e-17 1.5491e-16)
(0.379582 -2.99288e-17 6.312e-17)
(0.379582 -1.79198e-17 1.56177e-16)
(0.388895 -3.05573e-17 6.24714e-17)
(0.388895 -1.8939e-17 1.5728e-16)
(0.39804 -3.18835e-17 6.17469e-17)
(0.39804 -1.92717e-17 1.5825e-16)
(0.407012 -3.31234e-17 6.09519e-17)
(0.407012 -1.89751e-17 1.59139e-16)
(0.415808 -3.41851e-17 6.00862e-17)
(0.415808 -1.9919e-17 1.59946e-16)
(0.424428 -3.48099e-17 5.91788e-17)
(0.424428 -2.07445e-17 1.60656e-16)
(0.432873 -3.54047e-17 5.82603e-17)
(0.432873 -2.09742e-17 1.61332e-16)
(0.441143 -3.61764e-17 5.7306e-17)
(0.441143 -2.21788e-17 1.62023e-16)
(0.44924 -3.65593e-17 5.63241e-17)
(0.44924 -2.36029e-17 1.62679e-16)
(0.457168 -3.69582e-17 5.53088e-17)
(0.457168 -2.3985e-17 1.63283e-16)
(0.46493 -3.76102e-17 5.42612e-17)
(0.46493 -2.51184e-17 1.63937e-16)
(0.472529 -3.80103e-17 5.31733e-17)
(0.472529 -2.62638e-17 1.64614e-16)
(0.47997 -3.81601e-17 5.2064e-17)
(0.47997 -2.645e-17 1.65288e-16)
(0.487258 -3.83067e-17 5.09378e-17)
(0.487258 -2.76366e-17 1.66004e-16)
(0.494396 -3.87731e-17 4.97985e-17)
(0.494396 -2.76003e-17 1.66722e-16)
(0.50139 -3.9432e-17 4.86383e-17)
(0.50139 -2.64426e-17 1.67535e-16)
(0.508244 -4.04281e-17 4.74341e-17)
(0.508244 -2.57326e-17 1.68399e-16)
(0.514963 -4.1292e-17 5.20078e-17)
(0.514963 -2.56228e-17 1.69339e-16)
(0.521552 -4.05605e-17 5.75601e-17)
(0.521552 -2.6654e-17 1.70212e-16)
(0.528014 -3.98129e-17 6.32024e-17)
(0.528014 -2.6863e-17 1.71017e-16)
(0.534355 -4.12415e-17 6.87335e-17)
(0.534355 -2.57622e-17 1.71941e-16)
(0.540579 -4.32298e-17 7.40951e-17)
(0.540579 -2.51338e-17 1.73008e-16)
(0.54669 -4.39342e-17 7.93112e-17)
(0.54669 -2.62191e-17 1.7404e-16)
(0.552693 -4.43463e-17 8.45395e-17)
(0.552693 -2.66416e-17 1.75045e-16)
(0.558591 -4.49169e-17 8.97711e-17)
(0.558591 -2.6638e-17 1.76067e-16)
(0.564388 -4.57021e-17 9.49349e-17)
(0.564388 -2.7926e-17 1.77188e-16)
(0.570088 -4.5772e-17 9.99131e-17)
(0.570088 -2.91641e-17 1.78259e-16)
(0.575694 -4.49566e-17 1.04841e-16)
(0.575694 -2.88143e-17 1.79197e-16)
(0.58121 -4.47674e-17 1.09964e-16)
(0.58121 -2.86308e-17 1.80109e-16)
(0.58664 -4.48343e-17 1.15087e-16)
(0.58664 -3.01449e-17 1.81193e-16)
(0.591986 -4.48601e-17 1.20072e-16)
(0.591986 -3.01621e-17 1.82375e-16)
(0.597251 -4.60998e-17 1.24985e-16)
(0.597251 -2.99078e-17 1.83598e-16)
(0.602439 -4.70246e-17 1.29734e-16)
(0.602439 -3.01708e-17 1.84794e-16)
(0.607552 -4.6355e-17 1.3446e-16)
(0.607552 -3.1215e-17 1.85906e-16)
(0.612592 -4.59273e-17 1.39518e-16)
(0.612592 -2.96885e-17 1.86839e-16)
(0.617564 -4.6565e-17 1.44711e-16)
(0.617564 -3.04648e-17 1.87901e-16)
(0.622468 -4.67601e-17 1.49691e-16)
(0.622468 -3.28856e-17 1.88967e-16)
(0.627307 -4.68058e-17 1.54564e-16)
(0.627307 -3.09484e-17 1.89828e-16)
(0.632084 -4.64103e-17 1.59573e-16)
(0.632084 -3.11869e-17 1.9033e-16)
(0.6368 -4.57596e-17 1.64765e-16)
(0.6368 -2.98545e-17 1.90902e-16)
(0.641458 -4.68688e-17 1.69784e-16)
(0.641458 -2.77897e-17 1.91728e-16)
(0.64606 -4.70708e-17 1.74395e-16)
(0.64606 -2.82083e-17 1.92393e-16)
(0.650607 -4.57125e-17 1.78854e-16)
(0.650607 -2.92591e-17 1.934e-16)
(0.655102 -4.44016e-17 1.83656e-16)
(0.655102 -2.88607e-17 1.94343e-16)
(0.659546 -4.31498e-17 1.8852e-16)
(0.659546 -2.89781e-17 1.9541e-16)
(0.663941 -4.33163e-17 1.93069e-16)
(0.663941 -2.81068e-17 1.96281e-16)
(0.668289 -4.39734e-17 1.97466e-16)
(0.668289 -2.69813e-17 1.97143e-16)
(0.672591 -4.31376e-17 2.01998e-16)
(0.672591 -2.79411e-17 1.97927e-16)
(0.676848 -4.21081e-17 2.06605e-16)
(0.676848 -2.9143e-17 1.9832e-16)
(0.681062 -4.22596e-17 2.11176e-16)
(0.681062 -2.82532e-17 1.98858e-16)
(0.685234 -4.23057e-17 2.15828e-16)
(0.685234 -2.69123e-17 1.99412e-16)
(0.689366 -4.33583e-17 2.20514e-16)
(0.689366 -2.78045e-17 1.99599e-16)
(0.693459 -4.42718e-17 2.24913e-16)
(0.693459 -2.47748e-17 1.99876e-16)
(0.697514 -4.30081e-17 2.29217e-16)
(0.697514 -2.11445e-17 2.00256e-16)
(0.701532 -4.19173e-17 2.33629e-16)
(0.701532 -2.38663e-17 2.00552e-16)
(0.705515 -4.20071e-17 2.378e-16)
(0.705515 -2.43742e-17 2.00841e-16)
(0.709463 -4.31226e-17 2.41766e-16)
(0.709463 -2.22406e-17 2.01061e-16)
(0.713378 -4.4011e-17 2.45223e-16)
(0.713378 -2.25533e-17 2.01469e-16)
(0.71726 -4.49411e-17 2.48383e-16)
(0.71726 -1.8894e-17 2.02037e-16)
(0.72111 -4.5945e-17 2.52093e-16)
(0.72111 -1.70517e-17 2.02345e-16)
(0.724931 -4.58101e-17 2.55649e-16)
(0.724931 -2.09442e-17 2.0245e-16)
(0.728721 -4.53748e-17 2.58595e-16)
(0.728721 -2.05639e-17 2.02127e-16)
(0.732483 -4.59088e-17 2.61539e-16)
(0.732483 -1.71891e-17 2.02139e-16)
(0.736216 -4.78106e-17 2.64697e-16)
(0.736216 -1.74727e-17 2.02225e-16)
(0.739922 -4.92529e-17 2.67706e-16)
(0.739922 -1.72256e-17 2.02495e-16)
(0.743602 -4.9686e-17 2.70567e-16)
(0.743602 -1.51508e-17 2.02816e-16)
(0.747257 -5.08239e-17 2.73415e-16)
(0.747257 -1.15638e-17 2.02595e-16)
(0.750886 -5.45685e-17 2.76154e-16)
(0.750886 -9.22606e-18 2.02275e-16)
(0.754491 -5.5153e-17 2.78604e-16)
(0.754491 -7.06258e-18 2.01366e-16)
(0.758072 -5.20726e-17 2.80918e-16)
(0.758072 -4.92e-18 2.01124e-16)
(0.761631 -5.0924e-17 2.83369e-16)
(0.761631 -5.20056e-18 2.0067e-16)
(0.765167 -5.11767e-17 2.85781e-16)
(0.765167 -5.18744e-18 1.99983e-16)
(0.768681 -5.08154e-17 2.883e-16)
(0.768681 -5.72361e-18 1.98516e-16)
(0.772174 -4.88704e-17 2.90659e-16)
(0.772174 -3.48534e-18 1.96235e-16)
(0.775647 -4.7686e-17 2.9355e-16)
(0.775647 6.05274e-18 1.94589e-16)
(0.779099 -4.8827e-17 2.95696e-16)
(0.779099 9.71156e-18 1.92764e-16)
(0.782532 -5.09719e-17 2.97537e-16)
(0.782532 9.9687e-18 1.90315e-16)
(0.785946 -5.10584e-17 2.98676e-16)
(0.785946 9.53352e-18 1.87737e-16)
(0.789342 -5.09518e-17 3.00897e-16)
(0.789342 1.03346e-17 1.84421e-16)
(0.792719 -5.05442e-17 3.03942e-16)
(0.792719 1.34641e-17 1.82039e-16)
(0.796079 -5.0129e-17 3.06386e-16)
(0.796079 1.61624e-17 1.78679e-16)
(0.799422 -5.23605e-17 3.06353e-16)
(0.799422 1.76947e-17 1.75985e-16)
(0.802748 -5.41736e-17 3.06981e-16)
(0.802748 1.96313e-17 1.72192e-16)
(0.806058 -5.2116e-17 3.07312e-16)
(0.806058 2.25692e-17 1.69041e-16)
(0.809352 -5.0349e-17 3.0826e-16)
(0.809352 2.20838e-17 1.65723e-16)
(0.81263 -4.89322e-17 3.09962e-16)
(0.81263 2.57706e-17 1.63175e-16)
(0.815893 -4.59251e-17 3.1236e-16)
(0.815893 3.01744e-17 1.58989e-16)
(0.819142 -4.57506e-17 3.13739e-16)
(0.819142 3.18176e-17 1.55536e-16)
(0.822376 -4.91331e-17 3.13545e-16)
(0.822376 3.30812e-17 1.52829e-16)
(0.825596 -5.12858e-17 3.15609e-16)
(0.825596 3.95522e-17 1.50478e-16)
(0.828802 -5.18051e-17 3.17975e-16)
(0.828802 4.25165e-17 1.47974e-16)
(0.831994 -5.47596e-17 3.19998e-16)
(0.831994 3.8135e-17 1.45341e-16)
(0.835174 -5.49688e-17 3.22751e-16)
(0.835174 3.49445e-17 1.45131e-16)
(0.838341 -5.46754e-17 3.25589e-16)
(0.838341 3.6397e-17 1.44118e-16)
(0.841495 -5.4091e-17 3.2807e-16)
(0.841495 3.71502e-17 1.41652e-16)
(0.844637 -5.21715e-17 3.30524e-16)
(0.844637 3.30107e-17 1.3905e-16)
(0.847767 -5.20744e-17 3.33157e-16)
(0.847767 2.79381e-17 1.36899e-16)
(0.850886 -5.66305e-17 3.35038e-16)
(0.850886 1.91822e-17 1.33265e-16)
(0.853992 -6.34018e-17 3.35427e-16)
(0.853992 1.79266e-17 1.27399e-16)
(0.857088 -6.4243e-17 3.37596e-16)
(0.857088 1.59671e-17 1.21587e-16)
(0.860173 -6.09561e-17 3.40973e-16)
(0.860173 8.15883e-18 1.15795e-16)
(0.863246 -5.63442e-17 3.45015e-16)
(0.863246 6.3065e-18 1.11228e-16)
(0.866309 -5.45724e-17 3.48171e-16)
(0.866309 2.74081e-18 1.03259e-16)
(0.869362 -5.26464e-17 3.52053e-16)
(0.869362 -6.16188e-19 9.6427e-17)
(0.872405 -5.65494e-17 3.57748e-16)
(0.872405 -1.71779e-18 9.12606e-17)
(0.875438 -6.5032e-17 3.62862e-16)
(0.875438 -5.31228e-18 8.41457e-17)
(0.878461 -6.72642e-17 3.67037e-16)
(0.878461 -6.71279e-18 7.57639e-17)
(0.881474 -7.18995e-17 3.72095e-16)
(0.881474 -1.7324e-17 6.8535e-17)
(0.884478 -8.12782e-17 3.72541e-16)
(0.884478 -2.38249e-17 5.94232e-17)
(0.887472 -8.03211e-17 3.72483e-16)
(0.887472 -1.40168e-17 5.72732e-17)