/*--------------------------------*- C++ -*----------------------------------*\
| =========                 |                                                 |
| \\      /  F ield         | OpenFOAM: The Open Source CFD Toolbox           |
|  \\    /   O peration     | Version:  2106                                  |
|   \\  /    A nd           | Website:  www.openfoam.com                      |
|    \\/     M anipulation  |                                                 |
\*---------------------------------------------------------------------------*/
FoamFile
{
    version     2.0;
    format      ascii;
    arch        "LSB;label=32;scalar=64";
    class       volVectorField;
    location    "10090";
    object      grad(T);
}
// * * * * * * * * * * * * * * * * * * * * * * * * * * * * * * * * * * * * * //

dimensions      [0 -1 0 1 0 0 0];

internalField   nonuniform List<vector> 
2000
(
(1.14425e-16 455.644 0.843232)
(-1.14425e-16 455.644 0.843232)
(0 455.644 2.54543)
(-4.49311e-16 455.644 2.54543)
(-9.85786e-16 455.642 3.53267)
(8.82156e-16 455.642 3.53267)
(-3.3961e-16 455.641 3.5986)
(1.35844e-15 455.641 3.5986)
(1.70024e-15 455.638 3.66575)
(-1.70024e-15 455.638 3.66575)
(1.66909e-15 455.634 3.73414)
(-4.96855e-15 455.634 3.73414)
(0 455.629 3.80379)
(4.29723e-15 455.629 3.80379)
(0 455.621 3.87471)
(1.06272e-14 455.621 3.87471)
(-1.58725e-15 455.609 3.94692)
(0 455.609 3.94692)
(3.10013e-15 455.591 4.0204)
(0 455.591 4.0204)
(3.04332e-15 455.564 4.09516)
(0 455.564 4.09516)
(2.39313e-15 455.523 4.17116)
(6.58496e-15 455.523 4.17116)
(0 455.464 4.24836)
(0 455.464 4.24836)
(-5.83483e-15 455.377 4.32669)
(0 455.377 4.32669)
(-3.24498e-15 455.254 4.40606)
(-5.65262e-15 455.254 4.40606)
(9.0886e-15 455.081 4.48632)
(-1.41583e-14 455.081 4.48632)
(0 454.842 4.56729)
(0 454.842 4.56729)
(8.2905e-15 454.518 4.64873)
(1.6581e-14 454.518 4.64873)
(-4.4565e-15 454.083 4.73033)
(0 454.083 4.73033)
(4.77343e-15 453.509 4.81172)
(1.90937e-14 453.509 4.81172)
(-5.09611e-15 452.763 4.89243)
(4.07689e-14 452.763 4.89243)
(9.93241e-15 451.805 4.97192)
(1.17658e-14 451.805 4.97192)
(0 450.591 5.04955)
(2.30351e-14 450.591 5.04955)
(0 449.074 5.12459)
(1.48233e-14 449.074 5.12459)
(-6.4444e-15 447.203 5.19623)
(0 447.203 5.19623)
(0 444.923 5.2636)
(2.71825e-14 444.923 5.2636)
(1.9029e-15 442.182 5.32579)
(0 442.182 5.32579)
(-7.51399e-15 438.929 5.38185)
(0 438.929 5.38185)
(0 435.118 5.43088)
(-8.72629e-15 435.118 5.43088)
(-2.53845e-14 430.71 5.47203)
(-3.3007e-14 430.71 5.47203)
(8.62695e-15 425.676 5.50453)
(2.60984e-14 425.676 5.50453)
(0 420.001 5.52777)
(-8.25531e-15 420.001 5.52777)
(-9.38736e-15 413.683 5.54131)
(0 413.683 5.54131)
(-9.77137e-15 406.735 5.54491)
(0 406.735 5.54491)
(0 399.183 5.5385)
(4.06281e-14 399.183 5.5385)
(0 391.072 5.52228)
(0 391.072 5.52228)
(1.09303e-14 382.453 5.49658)
(4.37213e-14 382.453 5.49658)
(-2.6093e-14 373.392 5.46195)
(6.00426e-14 373.392 5.46195)
(-2.62072e-14 363.959 5.41905)
(1.45057e-14 363.959 5.41905)
(0 354.229 5.36867)
(4.8338e-14 354.229 5.36867)
(-2.49299e-14 344.279 5.31166)
(3.58808e-14 344.279 5.31166)
(0 334.182 5.2489)
(1.37228e-14 334.182 5.2489)
(0 324.01 5.18129)
(0 324.01 5.18129)
(-1.35853e-14 313.829 5.1097)
(-5.43411e-14 313.829 5.1097)
(1.39502e-14 303.698 5.03495)
(5.58008e-14 303.698 5.03495)
(1.43103e-14 293.67 4.95782)
(-5.72411e-14 293.67 4.95782)
(1.03562e-14 283.791 4.879)
(5.8661e-14 283.791 4.879)
(-2.45629e-14 274.097 4.79913)
(1.20119e-13 274.097 4.79913)
(3.94718e-14 264.62 4.71877)
(6.14361e-14 264.62 4.71877)
(-1.56976e-14 255.384 4.63839)
(-8.64614e-14 255.384 4.63839)
(0 246.408 4.55842)
(0 246.408 4.55842)
(-1.63579e-14 237.706 4.47921)
(-2.28113e-14 237.706 4.47921)
(0 229.286 4.40103)
(0 229.286 4.40103)
(0 221.154 4.32414)
(-6.79823e-14 221.154 4.32414)
(-4.27406e-15 213.312 4.24872)
(-2.15801e-14 213.312 4.24872)
(-1.76111e-14 205.758 4.17492)
(0 205.758 4.17492)
(-3.58217e-14 198.49 4.10285)
(9.24399e-14 198.49 4.10285)
(-1.82053e-14 191.502 4.0326)
(0 191.502 4.0326)
(-3.69892e-14 184.79 3.96423)
(-7.39783e-14 184.79 3.96423)
(3.84529e-14 178.344 3.89776)
(-9.47896e-14 178.344 3.89776)
(-1.93135e-14 172.159 3.83321)
(-1.93135e-14 172.159 3.83321)
(-3.8666e-14 166.224 3.7706)
(1.54664e-13 166.224 3.7706)
(-1.9603e-14 160.531 3.70989)
(7.84122e-14 160.531 3.70989)
(0 155.072 3.65108)
(0 155.072 3.65108)
(-3.80662e-14 149.836 3.59413)
(8.05195e-14 149.836 3.59413)
(0 144.815 3.53901)
(0 144.815 3.53901)
(-3.3549e-15 139.999 3.48567)
(-1.7285e-14 139.999 3.48567)
(0 135.381 3.43408)
(0 135.381 3.43408)
(0 130.951 3.38418)
(8.45365e-14 130.951 3.38418)
(0 126.7 3.33593)
(0 126.7 3.33593)
(-2.16136e-14 122.622 3.28927)
(8.64544e-14 122.622 3.28927)
(0 118.707 3.24416)
(8.73924e-14 118.707 3.24416)
(-2.20793e-14 114.949 3.20054)
(-8.8317e-14 114.949 3.20054)
(0 111.34 3.15837)
(-8.92288e-14 111.34 3.15837)
(-4.5064e-14 107.874 3.11759)
(9.0128e-14 107.874 3.11759)
(-4.55076e-14 104.544 3.07815)
(0 104.544 3.07815)
(0 101.343 3.04002)
(9.18908e-14 101.343 3.04002)
(-5.1395e-14 98.266 3.00313)
(-9.2755e-14 98.266 3.00313)
(2.34021e-14 95.3069 2.96745)
(0 95.3069 2.96745)
(2.36128e-14 92.4603 2.93294)
(-9.44511e-14 92.4603 2.93294)
(-2.0958e-14 89.7211 2.89954)
(-2.66839e-14 89.7211 2.89954)
(0 87.0844 2.86721)
(0 87.0844 2.86721)
(2.42299e-14 84.5455 2.83593)
(-2.19554e-13 84.5455 2.83593)
(2.44309e-14 82.1001 2.80564)
(0 82.1001 2.80564)
(0 79.744 2.77632)
(9.85186e-14 79.744 2.77632)
(2.48262e-14 77.4731 2.74792)
(9.93049e-14 77.4731 2.74792)
(2.16022e-14 75.2836 2.72041)
(0 75.2836 2.72041)
(-2.69828e-14 73.1721 2.69376)
(1.00853e-13 73.1721 2.69376)
(2.54037e-14 71.1351 2.66794)
(2.0323e-13 71.1351 2.66794)
(-2.55923e-14 69.1693 2.64292)
(0 69.1693 2.64292)
(-5.15581e-14 67.2716 2.61866)
(1.03116e-13 67.2716 2.61866)
(-2.5964e-14 65.4392 2.59514)
(1.03856e-13 65.4392 2.59514)
(-4.27458e-14 63.6693 2.57234)
(-2.13729e-14 63.6693 2.57234)
(2.63288e-14 61.9593 2.55023)
(1.05315e-13 61.9593 2.55023)
(2.65087e-14 60.3065 2.52877)
(1.06035e-13 60.3065 2.52877)
(-2.66871e-14 58.7087 2.50796)
(1.06748e-13 58.7087 2.50796)
(2.68639e-14 57.1636 2.48777)
(0 57.1636 2.48777)
(-2.70393e-14 55.669 2.46816)
(6.91869e-14 55.669 2.46816)
(2.72132e-14 54.2229 2.44914)
(0 54.2229 2.44914)
(-2.73857e-14 52.8233 2.43066)
(7.19877e-14 52.8233 2.43066)
(6.44237e-14 51.4684 2.41273)
(7.33605e-14 51.4684 2.41273)
(0 50.1564 2.39531)
(7.47154e-14 50.1564 2.39531)
(0 48.8855 2.37838)
(-1.47109e-13 48.8855 2.37838)
(0 47.6543 2.36194)
(1.1225e-13 47.6543 2.36194)
(-2.82287e-14 46.4611 2.34597)
(0 46.4611 2.34597)
(-2.83936e-14 45.3046 2.33045)
(1.13574e-13 45.3046 2.33045)
(0 44.1832 2.31536)
(3.29947e-14 44.1832 2.31536)
(0 43.0957 2.30069)
(-3.23901e-14 43.0957 2.30069)
(2.88817e-14 42.0409 2.28643)
(1.15527e-13 42.0409 2.28643)
(2.90423e-14 41.0174 2.27256)
(8.49553e-14 41.0174 2.27256)
(0 40.0242 2.25908)
(1.16807e-13 40.0242 2.25908)
(-5.87208e-14 39.06 2.24596)
(1.17442e-13 39.06 2.24596)
(-2.95403e-14 38.124 2.2332)
(1.7713e-13 38.124 2.2332)
(0 37.215 2.22078)
(-1.18699e-13 37.215 2.22078)
(0 36.3321 2.2087)
(0 36.3321 2.2087)
(-5.99708e-14 35.4744 2.19695)
(0 35.4744 2.19695)
(-3.01394e-14 34.6409 2.1855)
(-2.74235e-14 34.6409 2.1855)
(-5.38419e-14 33.8309 2.17436)
(-1.2117e-13 33.8309 2.17436)
(6.089e-14 33.0435 2.16352)
(-2.64276e-14 33.0435 2.16352)
(6.11932e-14 32.2779 2.15296)
(9.6443e-14 32.2779 2.15296)
(-3.07474e-14 31.5334 2.14267)
(1.2299e-13 31.5334 2.14267)
(6.17949e-14 30.8092 2.13266)
(-5.00025e-14 30.8092 2.13266)
(3.10468e-14 30.1048 2.1229)
(1.24187e-13 30.1048 2.1229)
(-3.11954e-14 29.4193 2.1134)
(0 29.4193 2.1134)
(0 28.7523 2.10414)
(2.50747e-13 28.7523 2.10414)
(-7.79275e-14 28.103 2.09511)
(4.64369e-14 28.103 2.09511)
(0 27.471 2.08632)
(2.53098e-13 27.471 2.08632)
(-3.17832e-14 26.8555 2.07774)
(0 26.8555 2.07774)
(0 26.2562 2.06938)
(1.71645e-13 26.2562 2.06938)
(3.20732e-14 25.6725 2.06123)
(2.56586e-13 25.6725 2.06123)
(-3.22174e-14 25.1038 2.05329)
(1.28869e-13 25.1038 2.05329)
(-9.19861e-15 24.5497 2.04553)
(8.78841e-14 24.5497 2.04553)
(-6.50078e-14 24.0098 2.03797)
(8.92176e-14 24.0098 2.03797)
(-8.01007e-14 23.4836 2.03059)
(2.61171e-13 23.4836 2.03059)
(0 22.9707 2.02339)
(1.31153e-13 22.9707 2.02339)
(-3.29296e-14 22.4706 2.01637)
(0 22.4706 2.01637)
(7.09592e-14 21.983 2.00951)
(-3.78887e-14 21.983 2.00951)
(0 21.5075 2.00281)
(0 21.5075 2.00281)
(-3.33507e-14 21.0437 1.99626)
(-3.65128e-14 21.0437 1.99626)
(-3.34901e-14 20.5912 1.98987)
(-1.69804e-13 20.5912 1.98987)
(-6.8816e-14 20.1498 1.98363)
(2.69033e-13 20.1498 1.98363)
(-3.45421e-14 19.7191 1.97753)
(1.69612e-13 19.7191 1.97753)
(-3.39056e-14 19.2988 1.97156)
(1.01713e-13 19.2988 1.97156)
(6.65756e-14 18.8885 1.96572)
(6.95973e-14 18.8885 1.96572)
(-6.68582e-14 18.488 1.96002)
(1.36722e-13 18.488 1.96002)
(0 18.097 1.95443)
(1.37269e-13 18.097 1.95443)
(-3.44536e-14 17.7152 1.94896)
(0 17.7152 1.94896)
(-3.45895e-14 17.3424 1.94361)
(0 17.3424 1.94361)
(-6.50727e-14 16.9782 1.93836)
(0 16.9782 1.93836)
(-2.47226e-14 16.6225 1.93322)
(-1.39441e-13 16.6225 1.93322)
(0 16.275 1.92819)
(-5.84911e-14 16.275 1.92819)
(2.87097e-14 15.9355 1.92324)
(-2.87097e-14 15.9355 1.92324)
(9.16309e-14 15.6037 1.91839)
(0 15.6037 1.91839)
(-3.53976e-14 15.2794 1.91363)
(1.4159e-13 15.2794 1.91363)
(-8.98512e-14 14.9624 1.90895)
(1.96444e-13 14.9624 1.90895)
(1.76607e-14 14.6526 1.90434)
(-5.33248e-14 14.6526 1.90434)
(0 14.3496 1.89982)
(1.43188e-13 14.3496 1.89982)
(-3.59293e-14 14.0534 1.89536)
(-1.43717e-13 14.0534 1.89536)
(3.60615e-14 13.7637 1.89097)
(1.44246e-13 13.7637 1.89097)
(3.61933e-14 13.4804 1.88664)
(1.44773e-13 13.4804 1.88664)
(3.63248e-14 13.2033 1.88237)
(0 13.2033 1.88237)
(0 12.9321 1.87816)
(1.45824e-13 12.9321 1.87816)
(-3.65869e-14 12.6669 1.87399)
(0 12.6669 1.87399)
(0 12.4073 1.86987)
(1.4687e-13 12.4073 1.86987)
(8.30039e-15 12.1532 1.86579)
(-4.51482e-14 12.1532 1.86579)
(0 11.9046 1.86174)
(0 11.9046 1.86174)
(0 11.6612 1.85773)
(1.4843e-13 11.6612 1.85773)
(0 11.4229 1.85374)
(1.48948e-13 11.4229 1.85374)
(-3.73662e-14 11.1895 1.84978)
(0 11.1895 1.84978)
(-3.74951e-14 10.961 1.84583)
(0 10.961 1.84583)
(-3.76237e-14 10.7372 1.8419)
(0 10.7372 1.8419)
(3.58384e-14 10.518 1.83797)
(1.11343e-13 10.518 1.83797)
(-7.47016e-14 10.3032 1.83405)
(1.51521e-13 10.3032 1.83405)
(-3.82253e-14 10.0928 1.83012)
(1.52032e-13 10.0928 1.83012)
(-3.81355e-14 9.88658 1.82619)
(-3.75249e-14 9.88658 1.82619)
(-3.82628e-14 9.68448 1.82224)
(0 9.68448 1.82224)
(0 9.48639 1.81827)
(0 9.48639 1.81827)
(0 9.2922 1.81428)
(1.54066e-13 9.2922 1.81428)
(-3.86429e-14 9.10179 1.81026)
(-1.54572e-13 9.10179 1.81026)
(0 8.91508 1.8062)
(0 8.91508 1.8062)
(-1.06062e-13 8.73196 1.80209)
(-3.1116e-13 8.73196 1.80209)
(-7.19887e-14 8.55234 1.79794)
(0 8.55234 1.79794)
(0 8.37611 1.79373)
(0 8.37611 1.79373)
(0 8.2032 1.78945)
(1.57084e-13 8.2032 1.78945)
(-7.87916e-14 8.03351 1.78511)
(3.15166e-13 8.03351 1.78511)
(0 7.86695 1.78068)
(1.58081e-13 7.86695 1.78068)
(-3.96445e-14 7.70344 1.77617)
(0 7.70344 1.77617)
(0 7.54289 1.77157)
(-1.00063e-13 7.54289 1.77157)
(-3.98919e-14 7.38523 1.76686)
(-5.79294e-14 7.38523 1.76686)
(0 7.23036 1.76203)
(1.60061e-13 7.23036 1.76203)
(0 7.07822 1.75709)
(1.60553e-13 7.07822 1.75709)
(4.02608e-14 6.92873 1.75201)
(3.22086e-13 6.92873 1.75201)
(4.03831e-14 6.7818 1.74679)
(1.61532e-13 6.7818 1.74679)
(0 6.63738 1.74142)
(1.6202e-13 6.63738 1.74142)
(4.06266e-14 6.49537 1.73588)
(1.62507e-13 6.49537 1.73588)
(-9.16428e-14 6.35571 1.73016)
(3.25983e-13 6.35571 1.73016)
(-4.08688e-14 6.21834 1.72426)
(-1.63475e-13 6.21834 1.72426)
(0 6.08317 1.71815)
(0 6.08317 1.71815)
(-4.11093e-14 5.95014 1.71183)
(0 5.95014 1.71183)
(-8.24581e-14 5.81918 1.70528)
(0 5.81918 1.70528)
(-4.13483e-14 5.69023 1.69848)
(1.65393e-13 5.69023 1.69848)
(0 5.56322 1.69142)
(-4.55493e-14 5.56322 1.69142)
(-4.15855e-14 5.43807 1.68408)
(0 5.43807 1.68408)
(-4.38952e-14 5.31473 1.67644)
(-4.38952e-14 5.31473 1.67644)
(4.18209e-14 5.19313 1.66848)
(3.34567e-13 5.19313 1.66848)
(8.38756e-14 5.0732 1.66018)
(-1.67751e-13 5.0732 1.66018)
(8.41084e-14 4.95488 1.65153)
(0 4.95488 1.65153)
(8.43401e-14 4.8381 1.64249)
(3.3736e-13 4.8381 1.64249)
(4.22853e-14 4.7228 1.63304)
(1.29123e-13 4.7228 1.63304)
(4.24e-14 4.6089 1.62316)
(1.30315e-13 4.6089 1.62316)
(-4.25141e-14 4.49634 1.61281)
(1.70056e-13 4.49634 1.61281)
(-4.26275e-14 4.38506 1.60197)
(0 4.38506 1.60197)
(3.71645e-14 4.27498 1.59061)
(1.70961e-13 4.27498 1.59061)
(-8.57045e-14 4.16604 1.57868)
(1.34926e-13 4.16604 1.57868)
(-4.29635e-14 4.05816 1.56616)
(0 4.05816 1.56616)
(0 3.95127 1.553)
(3.44592e-13 3.95127 1.553)
(0 3.84529 1.53916)
(0 3.84529 1.53916)
(4.32925e-14 3.74016 1.52459)
(-1.7317e-13 3.74016 1.52459)
(-2.31215e-14 3.63578 1.50924)
(6.6522e-14 3.63578 1.50924)
(-2.17119e-14 3.53208 1.49307)
(0 3.53208 1.49307)
(2.31205e-14 3.42896 1.47599)
(0 3.42896 1.47599)
(0 3.32635 1.45797)
(1.74873e-13 3.32635 1.45797)
(0 3.22414 1.43892)
(2.37067e-13 3.22414 1.43892)
(4.39248e-14 3.12224 1.41876)
(1.75699e-13 3.12224 1.41876)
(0 3.02054 1.39742)
(-1.76105e-13 3.02054 1.39742)
(-4.41263e-14 2.91893 1.37481)
(0 2.91893 1.37481)
(-4.4225e-14 2.81729 1.35083)
(1.19527e-13 2.81729 1.35083)
(0 2.7155 1.32536)
(1.77289e-13 2.7155 1.32536)
(1.08717e-14 2.61343 1.29829)
(-1.77672e-13 2.61343 1.29829)
(9.87886e-14 2.51093 1.26949)
(3.0182e-13 2.51093 1.26949)
(0 2.40785 1.23882)
(1.25136e-13 2.40785 1.23882)
(-4.46949e-14 2.30402 1.20611)
(0 2.30402 1.20611)
(4.47835e-14 2.19928 1.1712)
(1.79134e-13 2.19928 1.1712)
(1.06348e-13 2.09343 1.1339)
(1.7948e-13 2.09343 1.1339)
(-4.49541e-14 1.98628 1.09401)
(1.79817e-13 1.98628 1.09401)
(0 1.87762 1.05129)
(9.71514e-14 1.87762 1.05129)
(4.51153e-14 1.76721 1.00551)
(0 1.76721 1.00551)
(-9.03837e-14 1.65484 0.956405)
(1.80767e-13 1.65484 0.956405)
(0 1.54025 0.903691)
(0 1.54025 0.903691)
(4.51119e-14 1.42321 0.847073)
(0 1.42321 0.847073)
(4.54033e-14 1.30346 0.786241)
(1.81613e-13 1.30346 0.786241)
(4.14804e-14 1.18077 0.720874)
(1.81868e-13 1.18077 0.720874)
(-8.82038e-14 1.05493 0.65065)
(0 1.05493 0.65065)
(8.379e-14 0.925729 0.575251)
(-8.379e-14 0.925729 0.575251)
(8.22546e-14 0.793025 0.494379)
(-2.64788e-13 0.793025 0.494379)
(3.50675e-14 0.656715 0.407761)
(-8.07473e-14 0.656715 0.407761)
(-6.08713e-15 0.516766 0.315166)
(1.82884e-13 0.516766 0.315166)
(0 0.373222 0.216413)
(1.83026e-13 0.373222 0.216413)
(-4.57861e-14 0.226207 0.111379)
(0 0.226207 0.111379)
(-4.58093e-14 7.15361e-07 2.64774e-07)
(3.66588e-13 4.63782e-07 1.71658e-07)
(0 455.644 -0.843232)
(-1.14425e-16 455.644 -0.843232)
(0 455.644 -2.54543)
(-4.49311e-16 455.644 -2.54543)
(-2.07261e-16 455.642 -3.53267)
(0 455.642 -3.53267)
(3.3961e-16 455.641 -3.5986)
(0 455.641 -3.5986)
(-1.15999e-15 455.638 -3.66575)
(0 455.638 -3.66575)
(2.49395e-15 455.634 -3.73414)
(-1.66909e-15 455.634 -3.73414)
(-1.6385e-15 455.629 -3.80379)
(-1.6385e-15 455.629 -3.80379)
(2.65681e-15 455.621 -3.87471)
(0 455.621 -3.87471)
(-4.74525e-15 455.609 -3.94692)
(6.34899e-15 455.609 -3.94692)
(1.85092e-15 455.591 -4.0204)
(-1.05038e-14 455.591 -4.0204)
(1.19571e-15 455.564 -4.09516)
(-8.47807e-15 455.564 -4.09516)
(2.39313e-15 455.523 -4.17116)
(0 455.523 -4.17116)
(-2.67185e-15 455.464 -4.24836)
(-1.06874e-14 455.464 -4.24836)
(2.87907e-15 455.377 -4.32669)
(-1.47021e-14 455.377 -4.32669)
(3.24498e-15 455.254 -4.40606)
(-1.29799e-14 455.254 -4.40606)
(-5.54904e-15 455.081 -4.48632)
(0 455.081 -4.48632)
(3.83963e-15 454.842 -4.56729)
(-2.08059e-14 454.842 -4.56729)
(-1.20228e-15 454.518 -4.64873)
(2.19285e-14 454.518 -4.64873)
(4.4565e-15 454.083 -4.73033)
(0 454.083 -4.73033)
(1.47002e-14 453.509 -4.81172)
(-5.15334e-15 453.509 -4.81172)
(1.0155e-14 452.763 -4.89243)
(1.53255e-14 452.763 -4.89243)
(1.5357e-14 451.805 -4.97192)
(1.17658e-14 451.805 -4.97192)
(-5.75879e-15 450.591 -5.04955)
(0 450.591 -5.04955)
(2.17692e-14 449.074 -5.12459)
(-9.57173e-15 449.074 -5.12459)
(6.4444e-15 447.203 -5.19623)
(0 447.203 -5.19623)
(0 444.923 -5.2636)
(0 444.923 -5.2636)
(-9.05512e-15 442.182 -5.32579)
(0 442.182 -5.32579)
(1.5028e-14 438.929 -5.38185)
(0 438.929 -5.38185)
(7.88063e-15 435.118 -5.43088)
(3.15225e-14 435.118 -5.43088)
(1.65035e-14 430.71 -5.47203)
(0 430.71 -5.47203)
(8.62695e-15 425.676 -5.50453)
(0 425.676 -5.50453)
(9.00568e-15 420.001 -5.52777)
(-8.25531e-15 420.001 -5.52777)
(9.38736e-15 413.683 -5.54131)
(-2.13414e-14 413.683 -5.54131)
(0 406.735 -5.54491)
(-3.90855e-14 406.735 -5.54491)
(0 399.183 -5.5385)
(0 399.183 -5.5385)
(2.58769e-14 391.072 -5.52228)
(-5.75076e-14 391.072 -5.52228)
(6.80836e-15 382.453 -5.49658)
(0 382.453 -5.49658)
(-1.13165e-14 373.392 -5.46195)
(-4.52661e-14 373.392 -5.46195)
(-1.17015e-14 363.959 -5.41905)
(-1.08118e-13 363.959 -5.41905)
(-1.20845e-14 354.229 -5.36867)
(0 354.229 -5.36867)
(-1.24649e-14 344.279 -5.31166)
(0 344.279 -5.31166)
(-1.28422e-14 334.182 -5.2489)
(-1.02738e-13 334.182 -5.2489)
(-5.10995e-16 324.01 -5.18129)
(2.69426e-14 324.01 -5.18129)
(1.35853e-14 313.829 -5.1097)
(-5.43411e-14 313.829 -5.1097)
(4.08825e-14 303.698 -5.03495)
(4.28187e-14 303.698 -5.03495)
(3.97987e-14 293.67 -4.95782)
(-8.27296e-14 293.67 -4.95782)
(-2.93305e-14 283.791 -4.879)
(-5.8661e-14 283.791 -4.879)
(3.00297e-14 274.097 -4.79913)
(6.00595e-14 274.097 -4.79913)
(0 264.62 -4.71877)
(0 264.62 -4.71877)
(-1.56976e-14 255.384 -4.63839)
(-1.49252e-13 255.384 -4.63839)
(1.60306e-14 246.408 -4.55842)
(-6.41223e-14 246.408 -4.55842)
(-6.45348e-15 237.706 -4.47921)
(2.28113e-14 237.706 -4.47921)
(0 229.286 -4.40103)
(-1.33436e-13 229.286 -4.40103)
(1.69956e-14 221.154 -4.32414)
(0 221.154 -4.32414)
(3.46122e-14 213.312 -4.24872)
(0 213.312 -4.24872)
(0 205.758 -4.17492)
(-7.04446e-14 205.758 -4.17492)
(-2.88566e-15 198.49 -4.10285)
(0 198.49 -4.10285)
(1.82053e-14 191.502 -4.0326)
(-7.28211e-14 191.502 -4.0326)
(0 184.79 -3.96423)
(-7.39783e-14 184.79 -3.96423)
(1.96741e-14 178.344 -3.89776)
(-9.47896e-14 178.344 -3.89776)
(-2.55227e-16 172.159 -3.83321)
(1.93135e-14 172.159 -3.83321)
(1.89596e-14 166.224 -3.7706)
(-1.89596e-14 166.224 -3.7706)
(3.82152e-14 160.531 -3.70989)
(-1.86122e-14 160.531 -3.70989)
(3.81398e-14 155.072 -3.65108)
(-1.82711e-14 155.072 -3.65108)
(0 149.836 -3.59413)
(-8.05195e-14 149.836 -3.59413)
(0 144.815 -3.53901)
(0 144.815 -3.53901)
(3.79249e-14 139.999 -3.48567)
(-9.98445e-14 139.999 -3.48567)
(0 135.381 -3.43408)
(-8.35557e-14 135.381 -3.43408)
(0 130.951 -3.38418)
(0 130.951 -3.38418)
(-2.13756e-14 126.7 -3.33593)
(1.71005e-13 126.7 -3.33593)
(0 122.622 -3.28927)
(0 122.622 -3.28927)
(2.18481e-14 118.707 -3.24416)
(-8.73924e-14 118.707 -3.24416)
(2.20793e-14 114.949 -3.20054)
(-8.8317e-14 114.949 -3.20054)
(3.0372e-14 111.34 -3.15837)
(-1.78458e-13 111.34 -3.15837)
(-2.2532e-14 107.874 -3.11759)
(-2.98155e-14 107.874 -3.11759)
(2.92691e-14 104.544 -3.07815)
(0 104.544 -3.07815)
(0 101.343 -3.04002)
(9.18908e-14 101.343 -3.04002)
(3.32238e-14 98.266 -3.00313)
(-3.99226e-13 98.266 -3.00313)
(4.68042e-14 95.3069 -2.96745)
(-9.36083e-14 95.3069 -2.96745)
(-2.36128e-14 92.4603 -2.93294)
(0 92.4603 -2.93294)
(2.86295e-15 89.7211 -2.89954)
(-1.21968e-13 89.7211 -2.89954)
(-2.18583e-14 87.0844 -2.86721)
(-1.22301e-13 87.0844 -2.86721)
(-2.42299e-14 84.5455 -2.83593)
(-1.93839e-13 84.5455 -2.83593)
(4.88618e-14 82.1001 -2.80564)
(-9.77236e-14 82.1001 -2.80564)
(-1.51454e-16 79.744 -2.77632)
(1.233e-13 79.744 -2.77632)
(-4.8654e-14 77.4731 -2.74792)
(1.47959e-13 77.4731 -2.74792)
(1.13951e-15 75.2836 -2.72041)
(-1.23964e-13 75.2836 -2.72041)
(-7.387e-14 73.1721 -2.69376)
(5.39656e-14 73.1721 -2.69376)
(7.14317e-14 71.1351 -2.66794)
(-4.6028e-14 71.1351 -2.66794)
(1.95923e-14 69.1693 -2.64292)
(0 69.1693 -2.64292)
(2.21783e-14 67.2716 -2.61866)
(-2.21783e-14 67.2716 -2.61866)
(4.19215e-15 65.4392 -2.59514)
(1.25628e-13 65.4392 -2.59514)
(2.13729e-14 63.6693 -2.57234)
(-1.04589e-13 63.6693 -2.57234)
(0 61.9593 -2.55023)
(0 61.9593 -2.55023)
(6.77023e-14 60.3065 -2.52877)
(6.48414e-14 60.3065 -2.52877)
(4.04387e-14 58.7087 -2.50796)
(-4.04387e-14 58.7087 -2.50796)
(3.96977e-14 57.1636 -2.48777)
(-2.54609e-13 57.1636 -2.48777)
(0 55.669 -2.46816)
(0 55.669 -2.46816)
(2.72132e-14 54.2229 -2.44914)
(-1.08853e-13 54.2229 -2.44914)
(2.73857e-14 52.8233 -2.43066)
(0 52.8233 -2.43066)
(6.44237e-14 51.4684 -2.41273)
(2.20455e-13 51.4684 -2.41273)
(2.77267e-14 50.1564 -2.39531)
(0 50.1564 -2.39531)
(2.78952e-14 48.8855 -2.37838)
(-1.47109e-13 48.8855 -2.37838)
(-6.81454e-15 47.6543 -2.36194)
(1.1225e-13 47.6543 -2.36194)
(0 46.4611 -2.34597)
(3.4238e-14 46.4611 -2.34597)
(-2.83936e-14 45.3046 -2.33045)
(-1.13574e-13 45.3046 -2.33045)
(0 44.1832 -2.31536)
(0 44.1832 -2.31536)
(0 43.0957 -2.30069)
(-3.23901e-14 43.0957 -2.30069)
(3.17965e-14 42.0409 -2.28643)
(0 42.0409 -2.28643)
(6.24277e-14 41.0174 -2.27256)
(-1.47383e-13 41.0174 -2.27256)
(-3.06419e-14 40.0242 -2.25908)
(0 40.0242 -2.25908)
(0 39.06 -2.24596)
(0 39.06 -2.24596)
(2.9518e-14 38.124 -2.2332)
(-5.90583e-14 38.124 -2.2332)
(-2.96747e-14 37.215 -2.22078)
(0 37.215 -2.22078)
(-2.98305e-14 36.3321 -2.2087)
(-2.84568e-14 36.3321 -2.2087)
(2.99854e-14 35.4744 -2.19695)
(-2.79354e-14 35.4744 -2.19695)
(0 34.6409 -2.1855)
(0 34.6409 -2.1855)
(-6.05852e-14 33.8309 -2.17436)
(-2.42341e-13 33.8309 -2.17436)
(0 33.0435 -2.16352)
(0 33.0435 -2.16352)
(5.65399e-14 32.2779 -2.15296)
(-2.59434e-14 32.2779 -2.15296)
(-2.54679e-14 31.5334 -2.14267)
(1.2299e-13 31.5334 -2.14267)
(0 30.8092 -2.13266)
(-1.2359e-13 30.8092 -2.13266)
(0 30.1048 -2.1229)
(-1.73273e-13 30.1048 -2.1229)
(-3.11954e-14 29.4193 -2.1134)
(-1.24782e-13 29.4193 -2.1134)
(0 28.7523 -2.10414)
(7.80697e-14 28.7523 -2.10414)
(3.14906e-14 28.103 -2.09511)
(0 28.103 -2.09511)
(1.76885e-14 27.471 -2.08632)
(1.72135e-13 27.471 -2.08632)
(-3.17832e-14 26.8555 -2.07774)
(8.23821e-14 26.8555 -2.07774)
(-4.39306e-14 26.2562 -2.06938)
(0 26.2562 -2.06938)
(7.51988e-14 25.6725 -2.06123)
(-4.31256e-14 25.6725 -2.06123)
(-1.01179e-14 25.1038 -2.05329)
(1.71205e-13 25.1038 -2.05329)
(3.23609e-14 24.5497 -2.04553)
(8.78841e-14 24.5497 -2.04553)
(3.25039e-14 24.0098 -2.03797)
(0 24.0098 -2.03797)
(4.00503e-14 23.4836 -2.03059)
(-1.30585e-13 23.4836 -2.03059)
(7.21047e-14 22.9707 -2.02339)
(-3.93164e-14 22.9707 -2.02339)
(5.66636e-15 22.4706 -2.01637)
(0 22.4706 -2.01637)
(0 21.983 -2.00951)
(0 21.983 -2.00951)
(-3.98357e-15 21.5075 -2.00281)
(0 21.5075 -2.00281)
(6.67015e-14 21.0437 -1.99626)
(3.65128e-14 21.0437 -1.99626)
(0 20.5912 -1.98987)
(0 20.5912 -1.98987)
(3.36291e-14 20.1498 -1.98363)
(3.0422e-13 20.1498 -1.98363)
(3.45421e-14 19.7191 -1.97753)
(-3.45421e-14 19.7191 -1.97753)
(-1.01724e-13 19.2988 -1.97156)
(0 19.2988 -1.97156)
(-7.55431e-16 18.8885 -1.96572)
(-3.32878e-14 18.8885 -1.96572)
(3.26778e-14 18.488 -1.96002)
(0 18.488 -1.96002)
(3.43172e-14 18.097 -1.95443)
(0 18.097 -1.95443)
(6.29823e-14 17.7152 -1.94896)
(0 17.7152 -1.94896)
(6.91791e-14 17.3424 -1.94361)
(-1.38358e-13 17.3424 -1.94361)
(6.94503e-14 16.9782 -1.93836)
(-1.38901e-13 16.9782 -1.93836)
(2.47226e-14 16.6225 -1.93322)
(-4.18324e-13 16.6225 -1.93322)
(-5.74963e-15 16.275 -1.92819)
(-2.92456e-14 16.275 -1.92819)
(0 15.9355 -1.92324)
(8.30994e-14 15.9355 -1.92324)
(-5.63671e-14 15.6037 -1.91839)
(0 15.6037 -1.91839)
(3.53976e-14 15.2794 -1.91363)
(0 15.2794 -1.91363)
(-3.5531e-14 14.9624 -1.90895)
(-1.96444e-13 14.9624 -1.90895)
(5.33248e-14 14.6526 -1.90434)
(-5.33248e-14 14.6526 -1.90434)
(8.81445e-14 14.3496 -1.89982)
(1.43188e-13 14.3496 -1.89982)
(7.18587e-14 14.0534 -1.89536)
(-1.43717e-13 14.0534 -1.89536)
(0 13.7637 -1.89097)
(-1.44246e-13 13.7637 -1.89097)
(3.61933e-14 13.4804 -1.88664)
(-4.95223e-14 13.4804 -1.88664)
(0 13.2033 -1.88237)
(-1.45299e-13 13.2033 -1.88237)
(0 12.9321 -1.87816)
(-3.39372e-13 12.9321 -1.87816)
(-4.68495e-14 12.6669 -1.87399)
(-4.68495e-14 12.6669 -1.87399)
(7.3435e-14 12.4073 -1.86987)
(1.4687e-13 12.4073 -1.86987)
(3.68478e-14 12.1532 -1.86579)
(0 12.1532 -1.86579)
(0 11.9046 -1.86174)
(1.92232e-13 11.9046 -1.86174)
(3.71076e-14 11.6612 -1.85773)
(-1.4843e-13 11.6612 -1.85773)
(0 11.4229 -1.85374)
(-1.91659e-13 11.4229 -1.85374)
(0 11.1895 -1.84978)
(0 11.1895 -1.84978)
(7.86555e-14 10.961 -1.84583)
(-1.91141e-13 10.961 -1.84583)
(7.52475e-14 10.7372 -1.8419)
(-1.50495e-13 10.7372 -1.8419)
(3.77521e-14 10.518 -1.83797)
(1.51008e-13 10.518 -1.83797)
(3.68215e-14 10.3032 -1.83405)
(1.51521e-13 10.3032 -1.83405)
(7.62333e-14 10.0928 -1.83012)
(-3.82253e-14 10.0928 -1.83012)
(-6.10652e-16 9.88658 -1.82619)
(-3.75249e-14 9.88658 -1.82619)
(3.82628e-14 9.68448 -1.82224)
(-1.53051e-13 9.68448 -1.82224)
(3.83898e-14 9.48639 -1.81827)
(1.17397e-13 9.48639 -1.81827)
(7.7033e-14 9.2922 -1.81428)
(0 9.2922 -1.81428)
(3.4849e-14 9.10179 -1.81026)
(1.54572e-13 9.10179 -1.81026)
(-3.87691e-14 8.91508 -1.8062)
(-1.55076e-13 8.91508 -1.8062)
(1.11374e-13 8.73196 -1.80209)
(-1.89164e-13 8.73196 -1.80209)
(-3.90206e-14 8.55234 -1.79794)
(-3.45133e-13 8.55234 -1.79794)
(7.151e-14 8.37611 -1.79373)
(-1.88948e-13 8.37611 -1.79373)
(-3.17709e-14 8.2032 -1.78945)
(1.25313e-13 8.2032 -1.78945)
(1.64141e-14 8.03351 -1.78511)
(1.57583e-13 8.03351 -1.78511)
(1.00755e-13 7.86695 -1.78068)
(-1.58081e-13 7.86695 -1.78068)
(3.96445e-14 7.70344 -1.77617)
(-6.01123e-14 7.70344 -1.77617)
(0 7.54289 -1.77157)
(-1.59073e-13 7.54289 -1.77157)
(0 7.38523 -1.76686)
(-1.59568e-13 7.38523 -1.76686)
(0 7.23036 -1.76203)
(-1.60061e-13 7.23036 -1.76203)
(0 7.07822 -1.75709)
(0 7.07822 -1.75709)
(4.02608e-14 6.92873 -1.75201)
(0 6.92873 -1.75201)
(4.03831e-14 6.7818 -1.74679)
(1.61532e-13 6.7818 -1.74679)
(4.0505e-14 6.63738 -1.74142)
(-5.28127e-14 6.63738 -1.74142)
(0 6.49537 -1.73588)
(1.62507e-13 6.49537 -1.73588)
(5.08949e-14 6.35571 -1.73016)
(-5.08949e-14 6.35571 -1.73016)
(0 6.21834 -1.72426)
(-1.63475e-13 6.21834 -1.72426)
(-4.90467e-14 6.08317 -1.71815)
(-4.90467e-14 6.08317 -1.71815)
(-4.11093e-14 5.95014 -1.71183)
(0 5.95014 -1.71183)
(-4.1229e-14 5.81918 -1.70528)
(-1.64916e-13 5.81918 -1.70528)
(5.05123e-15 5.69023 -1.69848)
(-2.11793e-13 5.69023 -1.69848)
(4.55493e-14 5.56322 -1.69142)
(-4.55493e-14 5.56322 -1.69142)
(4.47146e-14 5.43807 -1.68408)
(-3.32684e-13 5.43807 -1.68408)
(0 5.31473 -1.67644)
(-1.66814e-13 5.31473 -1.67644)
(0 5.19313 -1.66848)
(0 5.19313 -1.66848)
(0 5.0732 -1.66018)
(-1.67751e-13 5.0732 -1.66018)
(-5.28123e-16 4.95488 -1.65153)
(0 4.95488 -1.65153)
(4.3575e-14 4.8381 -1.64249)
(1.6868e-13 4.8381 -1.64249)
(1.24589e-13 4.7228 -1.63304)
(-4.00181e-14 4.7228 -1.63304)
(1.24085e-13 4.6089 -1.62316)
(-2.08885e-13 4.6089 -1.62316)
(8.1079e-14 4.49634 -1.61281)
(-3.85649e-14 4.49634 -1.61281)
(-4.26275e-14 4.38506 -1.60197)
(-3.78582e-14 4.38506 -1.60197)
(0 4.27498 -1.59061)
(1.70961e-13 4.27498 -1.59061)
(-4.28523e-14 4.16604 -1.57868)
(1.71409e-13 4.16604 -1.57868)
(0 4.05816 -1.56616)
(-2.07669e-13 4.05816 -1.56616)
(0 3.95127 -1.553)
(-1.72296e-13 3.95127 -1.553)
(-1.12212e-13 3.84529 -1.53916)
(-1.72735e-13 3.84529 -1.53916)
(8.65851e-14 3.74016 -1.52459)
(-1.7317e-13 3.74016 -1.52459)
(4.34005e-14 3.63578 -1.50924)
(0 3.63578 -1.50924)
(-6.5303e-14 3.53208 -1.49307)
(1.08727e-13 3.53208 -1.49307)
(0 3.42896 -1.47599)
(0 3.42896 -1.47599)
(6.29316e-14 3.32635 -1.45797)
(-2.37805e-13 3.32635 -1.45797)
(0 3.22414 -1.43892)
(0 3.22414 -1.43892)
(-1.67216e-14 3.12224 -1.41876)
(1.75699e-13 3.12224 -1.41876)
(4.40262e-14 3.02054 -1.39742)
(-3.52209e-13 3.02054 -1.39742)
(5.84441e-14 2.91893 -1.37481)
(-5.84441e-14 2.91893 -1.37481)
(-1.31481e-14 2.81729 -1.35083)
(0 2.81729 -1.35083)
(4.43223e-14 2.7155 -1.32536)
(-1.77289e-13 2.7155 -1.32536)
(-4.4418e-14 2.61343 -1.29829)
(1.22382e-13 2.61343 -1.29829)
(1.43301e-13 2.51093 -1.26949)
(6.94953e-14 2.51093 -1.26949)
(8.92089e-14 2.40785 -1.23882)
(-5.32819e-14 2.40785 -1.23882)
(-7.6106e-15 2.30402 -1.20611)
(-5.23055e-14 2.30402 -1.20611)
(4.47835e-14 2.19928 -1.1712)
(-5.13471e-14 2.19928 -1.1712)
(-5.53622e-15 2.09343 -1.1339)
(-2.29886e-13 2.09343 -1.1339)
(-4.52833e-15 1.98628 -1.09401)
(2.29299e-13 1.98628 -1.09401)
(0 1.87762 -1.05129)
(-1.80144e-13 1.87762 -1.05129)
(4.51153e-14 1.76721 -1.00551)
(-1.80461e-13 1.76721 -1.00551)
(9.20036e-14 1.65484 -0.956405)
(0 1.65484 -0.956405)
(4.59539e-14 1.54025 -0.903691)
(1.81062e-13 1.54025 -0.903691)
(0 1.42321 -0.847073)
(-3.62689e-13 1.42321 -0.847073)
(0 1.30346 -0.786241)
(-1.81613e-13 1.30346 -0.786241)
(4.54669e-14 1.18077 -0.720874)
(-1.81868e-13 1.18077 -0.720874)
(4.55267e-14 1.05493 -0.65065)
(1.3943e-13 1.05493 -0.65065)
(4.55823e-14 0.925729 -0.575251)
(-3.64659e-13 0.925729 -0.575251)
(9.12669e-14 0.793025 -0.494379)
(-1.82534e-13 0.793025 -0.494379)
(0 0.656715 -0.407761)
(0 0.656715 -0.407761)
(-8.53547e-14 0.516766 -0.315166)
(1.4325e-13 0.516766 -0.315166)
(7.78151e-14 0.373222 -0.216413)
(-2.60841e-13 0.373222 -0.216413)
(-4.57861e-14 0.226207 -0.111379)
(1.06755e-13 0.226207 -0.111379)
(4.58093e-14 7.37075e-07 -2.72812e-07)
(2.58454e-13 3.9151e-07 -1.44908e-07)
(4.58662e-14 -7.16117e-07 2.65056e-07)
(1.83237e-13 -4.63091e-07 1.71403e-07)
(-3.81946e-14 -0.226206 0.111379)
(2.899e-13 -0.226206 0.111379)
(-4.57565e-14 -0.373222 0.216413)
(-3.89075e-14 -0.373222 0.216413)
(0 -0.516766 0.315166)
(1.82884e-13 -0.516766 0.315166)
(0 -0.656715 0.407761)
(3.65438e-13 -0.656715 0.407761)
(-4.56335e-14 -0.793025 0.494379)
(-1.82534e-13 -0.793025 0.494379)
(0 -0.925729 0.575251)
(0 -0.925729 0.575251)
(-4.55267e-14 -1.05493 0.650649)
(-1.82107e-13 -1.05493 0.650649)
(0 -1.18077 0.720874)
(0 -1.18077 0.720874)
(4.54033e-14 -1.30346 0.786241)
(4.42852e-14 -1.30346 0.786241)
(0 -1.42321 0.847073)
(1.81344e-13 -1.42321 0.847073)
(0 -1.54025 0.903691)
(1.81062e-13 -1.54025 0.903691)
(0 -1.65484 0.956404)
(0 -1.65484 0.956404)
(-4.51153e-14 -1.76721 1.00551)
(-2.75832e-13 -1.76721 1.00551)
(9.00719e-14 -1.87762 1.05129)
(-9.71514e-14 -1.87762 1.05129)
(0 -1.98628 1.09401)
(0 -1.98628 1.09401)
(8.97398e-14 -2.09343 1.1339)
(1.29074e-13 -2.09343 1.1339)
(-4.47835e-14 -2.19928 1.1712)