/*--------------------------------*- C++ -*----------------------------------*\
| =========                 |                                                 |
| \\      /  F ield         | OpenFOAM: The Open Source CFD Toolbox           |
|  \\    /   O peration     | Version:  2106                                  |
|   \\  /    A nd           | Website:  www.openfoam.com                      |
|    \\/     M anipulation  |                                                 |
\*---------------------------------------------------------------------------*/
FoamFile
{
    version     2.0;
    format      ascii;
    arch        "LSB;label=32;scalar=64";
    class       volTensorField;
    location    "10090";
    object      grad(U);
}
// * * * * * * * * * * * * * * * * * * * * * * * * * * * * * * * * * * * * * //

dimensions      [0 0 -1 0 0 0 0];

internalField   nonuniform List<tensor> 
2000
(
(0 -2.62068e-25 -2.78837e-27 35.0371 -1.69114e-12 -3.10659e-13 0.0648469 -1.56057e-15 -1.4811e-16)
(0 -4.80905e-28 -5.06585e-27 35.0371 3.9443e-31 -1.82779e-13 0.0648469 -1.20226e-28 4.47359e-17)
(-2.8082e-17 0 5.56786e-31 35.0304 0 -7.85781e-14 0.195727 0 -2.96268e-16)
(2.8082e-17 -2.55404e-29 -3.99069e-31 35.0304 -7.06624e-15 -1.90371e-13 0.195727 -1.73426e-17 -3.20712e-16)
(-7.98045e-18 -3.13405e-30 -3.04556e-31 35.0237 2.88501e-12 -3.86214e-14 0.271519 -1.96137e-14 -2.97079e-16)
(0 9.40214e-30 7.83511e-31 35.0237 -5.8827e-15 -1.49944e-14 0.271519 -2.80459e-17 -3.32788e-16)
(8.21237e-17 -5.6369e-28 9.3425e-32 35.0169 7.06906e-28 -3.89685e-14 0.276533 0 -3.12914e-16)
(-3.74859e-18 1.23065e-29 0 35.0169 -7.09402e-15 -1.52882e-14 0.276533 -4.43567e-17 -3.4522e-16)
(0 1.2081e-29 3.7753e-31 35.0099 3.57491e-14 -4.02436e-14 0.281638 -8.11211e-16 -3.2879e-16)
(-1.06265e-16 -6.04048e-30 0 35.0099 -7.24506e-15 -1.5586e-14 0.281638 -6.12081e-17 -3.58017e-16)
(-1.04318e-16 -2.9751e-28 7.41223e-31 35.0028 -8.59995e-15 -4.13611e-14 0.286836 -3.49146e-17 -3.43023e-16)
(-1.49386e-16 -1.48245e-29 -7.41223e-31 35.0028 -7.32366e-15 -1.58895e-14 0.286836 -7.86904e-17 -3.71166e-16)
(1.02406e-16 -5.48802e-30 -3.6382e-31 34.9954 1.32844e-27 -4.23343e-14 0.292128 0 -3.57429e-16)
(2.27973e-16 5.82112e-30 0 34.9954 -7.2964e-15 -1.62013e-14 0.292128 -9.6874e-17 -3.84689e-16)
(0 0 0 34.9878 1.45402e-14 -4.3308e-14 0.297515 -1.20606e-16 -3.72511e-16)
(8.16942e-16 5.71445e-30 7.14307e-31 34.9878 -7.3382e-15 -1.6515e-14 0.297515 -1.15851e-16 -3.98603e-16)
(-1.22001e-16 -2.88949e-30 1.3213e-31 34.9798 1.38486e-14 -4.43047e-14 0.302997 -1.24451e-16 -3.88166e-16)
(0 8.41461e-30 0 34.9798 -7.48846e-15 -1.68277e-14 0.302997 -1.35467e-16 -4.12897e-16)
(3.87517e-16 -1.10139e-29 -6.88368e-31 34.9711 1.28569e-14 -4.5313e-14 0.308573 -1.13169e-16 -4.04344e-16)
(-3.87517e-16 1.10139e-29 6.88368e-31 34.9711 -7.60718e-15 -1.71481e-14 0.308573 -1.55756e-16 -4.2756e-16)
(5.70623e-16 -2.70301e-29 -1.35151e-30 34.9616 1.28727e-14 -4.63275e-14 0.314243 -1.11637e-16 -4.21032e-16)
(0 2.43271e-29 1.01363e-30 34.9616 -7.64343e-15 -1.74757e-14 0.314243 -1.76958e-16 -4.42636e-16)
(1.83882e-16 5.24789e-30 5.03073e-31 34.9508 1.34059e-14 -4.73422e-14 0.320003 -1.17717e-16 -4.38164e-16)
(7.3553e-16 -5.30696e-30 0 34.9508 -7.79262e-15 -1.77981e-14 0.320003 -1.98493e-16 -4.58118e-16)
(0 0 0 34.9381 1.37736e-14 -4.83519e-14 0.325849 -1.2561e-16 -4.55736e-16)
(0 0 0 34.9381 -7.88159e-15 -1.8113e-14 0.325849 -2.21077e-16 -4.73985e-16)
(-5.86947e-16 2.06047e-29 2.09922e-30 34.923 1.38962e-14 -4.93493e-14 0.331774 -1.29013e-16 -4.7363e-16)
(0 -1.53427e-29 -1.27856e-30 34.923 -7.63855e-15 -1.84234e-14 0.331774 -2.43354e-16 -4.9021e-16)
(-6.02542e-16 1.2742e-29 1.92697e-31 34.9045 1.39103e-14 -5.03219e-14 0.337768 -1.32672e-16 -4.91739e-16)
(0 -2.51027e-30 0 34.9045 -7.53749e-15 -1.87193e-14 0.337768 -2.65695e-16 -5.06816e-16)
(9.6548e-16 -1.00901e-29 -1.43669e-30 34.8813 1.36798e-14 -5.1259e-14 0.343819 -1.34149e-16 -5.09957e-16)
(-1.43422e-15 4.92853e-30 6.16067e-31 34.8813 -7.66941e-15 -1.90016e-14 0.343819 -2.89324e-16 -5.23775e-16)
(3.40459e-16 -9.67644e-30 -6.04777e-31 34.8521 1.36265e-14 -5.21455e-14 0.349908 -1.33126e-16 -5.28078e-16)
(0 9.67644e-30 6.04777e-31 34.8521 -7.55598e-15 -1.92697e-14 0.349908 -3.14721e-16 -5.41122e-16)
(1.30503e-15 -2.4378e-29 -2.2412e-30 34.8149 1.39105e-14 -5.29605e-14 0.356015 -1.38132e-16 -5.45852e-16)
(1.27318e-15 1.42487e-29 1.78109e-30 34.8149 -7.56674e-15 -1.94942e-14 0.356015 -3.39515e-16 -5.5884e-16)
(-3.42153e-16 1.20105e-29 8.26578e-31 34.7677 1.43863e-14 -5.36803e-14 0.362109 -1.43954e-16 -5.62982e-16)
(-6.56192e-16 -4.66253e-30 5.82816e-31 34.7677 -7.91046e-15 -1.96779e-14 0.362109 -3.6571e-16 -5.76824e-16)
(3.6644e-16 -7.25734e-30 -2.58146e-31 34.7078 1.50475e-14 -5.42791e-14 0.368157 -1.53256e-16 -5.79137e-16)
(1.46576e-15 9.15417e-30 0 34.7078 -8.28059e-15 -1.98286e-14 0.368157 -3.93092e-16 -5.95093e-16)
(-3.91159e-16 2.67476e-30 2.73255e-31 34.632 1.52425e-14 -5.4727e-14 0.374116 -1.63419e-16 -5.93884e-16)
(3.12927e-15 0 0 34.632 -8.59698e-15 -1.99033e-14 0.374116 -4.1916e-16 -6.13566e-16)
(0 6.61632e-30 0 34.537 1.51595e-14 -5.4991e-14 0.379935 -1.63249e-16 -6.06776e-16)
(1.66524e-15 -2.20544e-30 0 34.537 -8.6574e-15 -1.98859e-14 0.379935 -4.45616e-16 -6.32011e-16)
(6.094e-16 -8.6601e-30 0 34.4187 1.53106e-14 -5.50377e-14 0.385558 -1.67749e-16 -6.17311e-16)
(1.76758e-15 8.6601e-30 0 34.4187 -8.51825e-15 -1.97894e-14 0.385558 -4.74575e-16 -6.50387e-16)
(0 4.2507e-30 1.06268e-30 34.2729 1.52768e-14 -5.48332e-14 0.390918 -1.72792e-16 -6.24964e-16)
(1.27338e-15 0 0 34.2729 -8.55056e-15 -1.95869e-14 0.390918 -5.05377e-16 -6.68636e-16)
(-4.94332e-16 -5.68905e-30 -7.0191e-31 34.095 1.51982e-14 -5.43462e-14 0.395944 -1.73298e-16 -6.2923e-16)
(0 1.25184e-29 1.0432e-30 34.095 -8.77047e-15 -1.92746e-14 0.395944 -5.37285e-16 -6.86564e-16)
(0 -1.63854e-29 -2.04817e-30 33.8805 1.52318e-14 -5.35485e-14 0.400558 -1.77471e-16 -6.29586e-16)
(2.08466e-15 1.63854e-29 2.04817e-30 33.8805 -8.59128e-15 -1.88329e-14 0.400558 -5.71084e-16 -7.04145e-16)
(-5.48388e-16 2.64675e-30 -1.63084e-30 33.6247 1.50419e-14 -5.24185e-14 0.404681 -1.80624e-16 -6.25629e-16)
(0 4.02128e-30 1.00532e-30 33.6247 -8.011e-15 -1.82443e-14 0.404681 -6.03082e-16 -7.20977e-16)
(-5.75975e-16 6.59002e-30 4.00014e-31 33.3233 1.49607e-14 -5.09478e-14 0.408232 -1.79571e-16 -6.17099e-16)
(0 0 9.86898e-31 33.3233 -7.3684e-15 -1.75297e-14 0.408232 -6.34278e-16 -7.36969e-16)
(0 7.75051e-30 9.68813e-31 32.9727 1.55105e-14 -4.91368e-14 0.411136 -1.85431e-16 -6.03783e-16)
(0 -3.87525e-30 0 32.9727 -7.61202e-15 -1.66976e-14 0.411136 -6.6342e-16 -7.52084e-16)
(-1.70292e-15 2.54555e-29 5.19715e-30 32.5698 1.62447e-14 -4.69962e-14 0.413322 -2.00128e-16 -5.8566e-16)
(-2.5285e-15 -1.90212e-29 -2.85318e-30 32.5698 -8.03951e-15 -1.57309e-14 0.413322 -6.97653e-16 -7.66192e-16)
(6.60608e-16 -6.35773e-30 -4.63147e-31 32.1128 1.63753e-14 -4.45581e-14 0.414735 -2.11176e-16 -5.63081e-16)
(2.64243e-15 3.73453e-30 9.33632e-31 32.1128 -7.54685e-15 -1.46618e-14 0.414735 -7.32836e-16 -7.78904e-16)
(0 1.46644e-29 9.16524e-31 31.601 1.60956e-14 -4.18687e-14 0.415329 -2.11068e-16 -5.36428e-16)
(0 -1.09983e-29 0 31.601 -7.72089e-15 -1.35133e-14 0.415329 -7.64489e-16 -7.90252e-16)
(-7.18157e-16 9.81037e-30 5.05567e-31 31.0351 1.59323e-14 -3.89809e-14 0.415079 -2.11717e-16 -5.06309e-16)
(0 -7.19783e-30 0 31.0351 -8.51047e-15 -1.22927e-14 0.415079 -8.00345e-16 -7.99979e-16)
(2.47329e-16 -4.45912e-30 5.26269e-31 30.4172 1.58206e-14 -3.59598e-14 0.413978 -2.14612e-16 -4.73528e-16)
(-9.94441e-16 1.05989e-29 0 30.4172 -8.89234e-15 -1.10528e-14 0.413978 -8.4244e-16 -8.07964e-16)
(0 -1.38729e-29 -1.73411e-30 29.7505 1.54316e-14 -3.28765e-14 0.412038 -2.16622e-16 -4.3898e-16)
(3.10443e-15 1.38729e-29 1.73411e-30 29.7505 -8.63878e-15 -9.77556e-15 0.412038 -8.84245e-16 -8.14344e-16)
(-1.91666e-15 1.0214e-29 0 29.0399 1.46343e-14 -2.98001e-14 0.40929 -2.11798e-16 -4.03548e-16)
(0 -3.40467e-30 0 29.0399 -7.67281e-15 -8.50826e-15 0.40929 -9.23586e-16 -8.18715e-16)
(8.33966e-16 -2.5927e-30 -5.83971e-31 28.2908 1.43554e-14 -2.67987e-14 0.405781 -2.02024e-16 -3.68238e-16)
(3.33586e-15 0 0 28.2908 -6.55644e-15 -7.32402e-15 0.405781 -9.58629e-16 -8.21383e-16)
(-1.78624e-15 -1.3819e-29 -1.03926e-30 27.5097 1.45881e-14 -2.39259e-14 0.401573 -2.11669e-16 -3.33653e-16)
(3.45083e-15 1.64052e-29 4.92155e-30 27.5097 -6.38947e-15 -6.16695e-15 0.401573 -9.87641e-16 -8.22448e-16)
(-8.91243e-16 -1.35245e-29 -9.93078e-31 26.7033 1.41747e-14 -2.12303e-14 0.396738 -2.16527e-16 -3.0077e-16)
(0 1.61046e-29 3.22091e-30 26.7033 -6.53022e-15 -5.1248e-15 0.396738 -1.02544e-15 -8.2129e-16)
(0 1.26476e-29 3.16189e-30 25.8786 1.36174e-14 -1.87581e-14 0.391355 -2.07171e-16 -2.70233e-16)
(3.67808e-15 -1.26476e-29 -3.16189e-30 25.8786 -6.00489e-15 -4.24026e-15 0.391355 -1.05762e-15 -8.19071e-16)
(-3.64234e-15 1.44536e-29 1.29205e-30 25.0425 1.30015e-14 -1.65261e-14 0.385506 -2.07554e-16 -2.42211e-16)
(3.78994e-15 -6.2079e-30 0 25.0425 -6.14095e-15 -3.39999e-15 0.385506 -1.08314e-15 -8.15628e-16)
(1.71535e-15 -1.21883e-29 -1.52353e-30 24.2015 1.2088e-14 -1.45537e-14 0.379275 -1.95692e-16 -2.175e-16)
(0 1.21883e-29 0 24.2015 -6.51874e-15 -2.64937e-15 0.379275 -1.12302e-15 -8.10529e-16)
(0 -8.9737e-30 -1.49562e-30 23.3616 1.18248e-14 -1.28504e-14 0.372743 -1.86237e-16 -1.95991e-16)
(0 8.9737e-30 1.49562e-30 23.3616 -6.48018e-15 -2.03646e-15 0.372743 -1.1618e-15 -8.04273e-16)
(-1.02913e-15 5.49517e-30 2.14853e-30 22.5283 1.22731e-14 -1.14001e-14 0.365984 -1.94515e-16 -1.77694e-16)
(-5.76957e-15 0 0 22.5283 -6.0198e-15 -1.53759e-15 0.365984 -1.20122e-15 -7.97253e-16)
(1.05548e-15 6.09566e-30 2.19282e-30 21.7062 1.30903e-14 -1.01912e-14 0.35907 -2.08092e-16 -1.62615e-16)
(4.22193e-15 -2.88261e-30 -1.44131e-30 21.7062 -5.95125e-15 -1.12706e-15 0.35907 -1.23583e-15 -7.89497e-16)
(-5.11659e-16 1.44354e-29 3.54627e-30 20.8994 1.30412e-14 -9.2065e-15 0.352063 -2.29399e-16 -1.50567e-16)
(-2.73245e-15 -1.69787e-29 -4.24468e-30 20.8994 -6.68298e-15 -8.33494e-16 0.352063 -1.27076e-15 -7.80991e-16)
(-1.10678e-15 -2.37624e-31 -8.65493e-29 20.1111 1.19054e-14 -8.35878e-29 0.345018 -2.14249e-16 0)
(4.42711e-15 2.77793e-30 0 20.1111 -5.85128e-15 -6.75124e-16 0.345018 -1.3153e-15 -7.72193e-16)
(0 -1.36351e-29 -4.09054e-30 19.3439 1.12164e-14 6.05914e-15 0.337985 -1.98303e-16 -5.82396e-17)
(9.05355e-15 1.36351e-29 4.09054e-30 19.3439 -4.7447e-15 -5.18191e-16 0.337985 -1.35079e-15 -7.63705e-16)
(1.15611e-15 -2.12713e-29 -3.37687e-30 18.5998 1.06584e-14 8.67994e-15 0.331004 -1.97764e-16 -1.5663e-16)
(4.62446e-15 1.60623e-29 2.67706e-30 18.5998 -5.75334e-15 -3.18543e-16 0.331004 -1.38263e-15 -7.54556e-16)
(-1.18004e-15 1.04135e-29 2.01018e-30 17.8803 1.05495e-14 1.50457e-14 0.32411 -1.85516e-16 -1.55587e-16)
(-4.72016e-15 -2.628e-30 0 17.8803 -6.65341e-15 -2.62346e-16 0.32411 -1.4238e-15 -7.44226e-16)
(1.45232e-15 -7.73953e-30 -1.28992e-30 17.1862 1.11993e-14 2.42931e-14 0.317329 -2.01191e-16 -3.97968e-16)
(0 7.73953e-30 0 17.1862 -5.98884e-15 -3.5985e-16 0.317329 -1.46722e-15 -7.34083e-16)
(-4.07783e-15 1.26444e-29 3.15155e-30 16.5182 1.14969e-14 2.65896e-14 0.310684 -2.16985e-16 -5.09845e-16)
(0 -5.06514e-30 -1.26628e-30 16.5182 -5.13186e-15 -4.01362e-16 0.310684 -1.50152e-15 -7.24559e-16)
(1.39958e-15 -7.45848e-30 -1.24308e-30 15.8763 1.10454e-14 2.56633e-14 0.304193 -2.20193e-16 -5.01099e-16)
(0 7.45848e-30 0 15.8763 -5.15088e-15 -4.34852e-16 0.304193 -1.53633e-15 -7.1415e-16)
(0 7.3218e-30 1.2203e-30 15.2606 1.02079e-14 2.47409e-14 0.297869 -2.07512e-16 -4.92843e-16)
(-5.08342e-15 -1.2203e-29 -1.2203e-30 15.2606 -5.04768e-15 -5.18254e-16 0.297869 -1.57391e-15 -7.03762e-16)
(-1.40514e-15 9.47936e-30 1.81903e-30 14.6706 8.74391e-15 2.38032e-14 0.291721 -1.95137e-16 -4.83248e-16)
(0 -4.79176e-30 0 14.6706 -3.89181e-15 -6.57572e-16 0.291721 -1.60154e-15 -6.93488e-16)
(1.05962e-17 -6.90643e-30 5.63651e-31 14.1058 6.50419e-15 2.28566e-14 0.285755 -1.55941e-16 -4.73373e-16)
(-1.32404e-15 1.17599e-29 0 14.1058 -2.87703e-15 -8.30919e-16 0.285755 -1.62684e-15 -6.83861e-16)
(-2.66816e-15 -8.84266e-30 -2.36123e-30 13.5657 5.76431e-15 2.18765e-14 0.279975 -1.09934e-16 -4.62338e-16)
(5.33631e-15 1.15444e-29 2.30888e-30 13.5657 -2.44499e-15 -9.72333e-16 0.279975 -1.64677e-15 -6.74164e-16)
(-1.35428e-15 2.49902e-30 5.39031e-31 13.0493 6.02344e-15 2.08985e-14 0.274383 -1.30671e-16 -4.49951e-16)
(0 0 0 13.0493 -2.84646e-15 -1.08024e-15 0.274383 -1.66354e-15 -6.64605e-16)
(-2.74814e-15 2.05714e-29 3.27988e-30 12.5561 6.55486e-15 2.00024e-14 0.268978 -1.25188e-16 -4.37821e-16)
(-5.49628e-15 -1.55752e-29 -2.22503e-30 12.5561 -4.03696e-15 -1.23686e-15 0.268978 -1.68707e-15 -6.54536e-16)
(-1.0658e-15 6.24627e-30 5.76172e-31 12.0849 7.75009e-15 1.91174e-14 0.263758 -1.58809e-16 -4.27763e-16)
(-3.11458e-15 -1.09213e-29 -1.09213e-30 12.0849 -4.96568e-15 -1.44482e-15 0.263758 -1.7226e-15 -6.45357e-16)
(-1.2071e-15 6.4327e-30 1.07212e-30 11.6351 7.3099e-15 1.82283e-14 0.258721 -1.83091e-16 -4.14938e-16)
(0 0 0 11.6351 -4.05412e-15 -1.70931e-15 0.258721 -1.76388e-15 -6.37033e-16)
(-2.86217e-15 -7.66264e-30 -6.2861e-32 11.2055 5.85039e-15 1.72919e-14 0.253863 -1.4484e-16 -4.03582e-16)
(1.14487e-14 8.41976e-30 0 11.2055 -1.41307e-15 -1.87793e-15 0.253863 -1.78936e-15 -6.30647e-16)
(-3.77587e-15 1.48832e-29 2.55188e-30 10.7954 5.30741e-15 1.63858e-14 0.24918 -1.22597e-16 -3.87334e-16)
(8.12393e-15 -1.23982e-29 -2.06637e-30 10.7954 -9.30383e-16 -1.89152e-15 0.24918 -1.79895e-15 -6.22745e-16)
(0 -4.057e-30 -2.0285e-30 10.4039 4.74891e-15 1.56155e-14 0.244667 -1.24758e-16 -3.7617e-16)
(0 8.11401e-30 2.0285e-30 10.4039 -1.8852e-15 -2.09935e-15 0.244667 -1.813e-15 -6.14639e-16)
(-1.48485e-15 2.48374e-30 1.46254e-30 10.03 3.84944e-15 1.47796e-14 0.240319 -1.00456e-16 -3.65019e-16)
(5.93939e-15 3.98266e-30 0 10.03 -9.48404e-16 -2.30968e-15 0.240319 -1.8354e-15 -6.08576e-16)
(0 7.81936e-30 9.7742e-31 9.67284 4.44566e-15 1.38809e-14 0.236131 -8.55566e-17 -3.49547e-16)
(0 -3.90968e-30 9.7742e-31 9.67284 -6.53834e-16 -2.4383e-15 0.236131 -1.83914e-15 -6.02468e-16)
(-1.51905e-15 6.31164e-30 1.41112e-30 9.3317 4.9444e-15 1.30382e-14 0.232097 -1.33886e-16 -3.34091e-16)
(0 0 0 9.3317 -1.61871e-15 -2.59981e-15 0.232097 -1.85067e-15 -5.96853e-16)
(0 7.53541e-30 9.41926e-31 9.00574 3.47228e-15 1.23349e-14 0.228212 -1.14041e-16 -3.20037e-16)
(0 -3.76771e-30 0 9.00574 -3.54929e-16 -2.74493e-15 0.228212 -1.8764e-15 -5.90202e-16)
(0 -1.47947e-29 -1.84933e-30 8.6942 2.22222e-15 1.17354e-14 0.224469 -6.2979e-17 -3.10397e-16)
(6.2082e-15 1.47947e-29 1.84933e-30 8.6942 6.00105e-16 -2.9534e-15 0.224469 -1.88453e-15 -5.84404e-16)
(0 1.45235e-29 1.81544e-30 8.39634 2.18868e-15 1.10681e-14 0.220864 -5.26387e-17 -3.00587e-16)
(0 -1.45235e-29 -1.81544e-30 8.39634 -1.55687e-15 -3.19329e-15 0.220864 -1.89277e-15 -5.81629e-16)
(-1.58393e-15 2.47781e-30 4.24566e-31 8.11146 1.77959e-15 1.0291e-14 0.217391 -6.35563e-17 -2.86366e-16)
(6.33573e-15 3.56435e-30 0 8.11146 -1.37501e-15 -3.26063e-15 0.217391 -1.92356e-15 -5.8055e-16)
(0 -1.39961e-29 -8.74759e-31 7.83892 9.8894e-16 9.64417e-15 0.214045 -3.23113e-17 -2.69534e-16)
(6.39793e-15 1.39961e-29 8.74759e-31 7.83892 -7.86707e-17 -3.33768e-15 0.214045 -1.93755e-15 -5.77239e-16)
(-1.61478e-15 1.62249e-29 2.13109e-30 7.57807 1.23969e-15 9.02632e-15 0.210821 -2.20266e-17 -2.61221e-16)
(-6.45913e-15 -1.37397e-29 -1.71746e-30 7.57807 -1.60105e-15 -3.40515e-15 0.210821 -1.93724e-15 -5.75183e-16)
(1.89825e-15 -6.74395e-30 0 7.32832 1.87455e-15 8.55579e-15 0.207713 -4.77193e-17 -2.44724e-16)
(-8.41762e-15 1.01159e-29 0 7.32832 -1.86404e-15 -3.64118e-15 0.207713 -1.96552e-15 -5.71293e-16)
(-3.28934e-15 8.27321e-30 8.06699e-31 7.08911 2.36576e-15 8.06909e-15 0.204717 -5.94558e-17 -2.43939e-16)
(6.57868e-15 -3.31018e-30 0 7.08911 -1.84083e-15 -4.01667e-15 0.204717 -1.98943e-15 -5.723e-16)
(-3.31855e-15 4.95194e-30 8.00501e-31 6.8599 3.09734e-15 7.27422e-15 0.201829 -7.83638e-17 -2.25364e-16)
(0 0 0 6.8599 -2.63022e-15 -4.04512e-15 0.201829 -2.01778e-15 -5.75462e-16)
(0 -6.37996e-30 0 6.64019 3.63772e-15 6.60016e-15 0.199043 -1.0546e-16 -2.05581e-16)
(6.69467e-15 6.37996e-30 0 6.64019 -2.348e-15 -1.40914e-15 0.199043 -2.02399e-15 -5.78323e-16)
(-3.45074e-15 2.1252e-29 1.96052e-30 6.4295 2.79507e-15 6.14112e-15 0.196355 -1.14246e-16 -1.92781e-16)
(-6.75141e-15 -1.56576e-29 -7.82881e-31 6.4295 -7.41786e-16 1.2657e-15 0.196355 -2.05385e-15 -5.39492e-16)
(1.70184e-15 -8.61894e-30 -1.15995e-30 6.22737 1.83225e-15 5.90523e-15 0.193762 -5.71265e-17 -1.84833e-16)
(0 6.14828e-30 7.68535e-31 6.22737 4.69968e-16 1.26141e-15 0.193762 -2.07551e-15 -4.97322e-16)
(5.11338e-15 -1.15222e-29 -3.86924e-31 6.03339 2.32867e-15 5.65374e-15 0.191259 -5.76681e-17 -1.85129e-16)
(-1.02603e-14 9.05342e-30 0 6.03339 -1.1864e-15 1.22426e-15 0.191259 -2.06278e-15 -4.59654e-16)
(-3.45847e-15 1.38094e-29 2.24926e-30 5.84714 3.33526e-15 5.21175e-15 0.188842 -9.12555e-17 -1.75598e-16)
(-3.33549e-15 -5.92501e-30 7.40627e-31 5.84714 -1.20732e-15 1.26462e-15 0.188842 -2.09021e-15 -4.22473e-16)
(0 8.72466e-30 0 5.66825 4.24183e-15 4.71289e-15 0.186509 -1.2589e-16 -1.63103e-16)
(0 -1.16329e-29 -7.27055e-31 5.66825 -1.23654e-15 1.32019e-15 0.186509 -2.08416e-15 -3.84384e-16)
(1.75592e-15 4.12555e-31 1.04707e-30 5.49636 3.65012e-15 4.27099e-15 0.184254 -1.55291e-16 -1.4887e-16)
(-1.40473e-14 -2.85493e-30 0 5.49636 -2.41953e-15 1.29169e-15 0.184254 -2.10469e-15 -3.41884e-16)
(3.34673e-15 -1.08564e-29 -3.7872e-31 5.33114 1.71666e-15 5.26891e-16 0.182076 -9.03453e-17 -1.3916e-16)
(-1.57773e-15 8.40784e-30 0 5.33114 -3.79625e-16 1.05217e-15 0.182076 -2.1341e-15 -3.02434e-16)
(0 -1.1005e-29 -1.37563e-30 5.17225 -5.51909e-17 -3.11765e-15 0.179971 -3.1441e-17 -1.13102e-16)
(7.12772e-15 1.1005e-29 1.37563e-30 5.17225 1.25993e-15 9.9828e-16 0.179971 -2.1443e-15 -2.67627e-16)
(1.7947e-15 -5.14975e-30 -3.93599e-31 5.0194 -1.24805e-15 -3.14461e-15 0.177936 -5.77996e-17 -1.11117e-16)
(7.17881e-15 2.70084e-30 0 5.0194 7.72423e-16 9.12792e-16 0.177936 -2.13678e-15 -2.34133e-16)
(-6.29491e-16 -1.08603e-29 -1.85379e-30 4.8723 -5.8267e-16 -2.97203e-15 0.175968 -1.05812e-17 -1.04711e-16)
(0 1.06054e-29 0 4.8723 -4.43978e-16 -2.69329e-15 0.175968 -2.144e-15 -2.02009e-16)
(-7.09142e-16 0 -5.15352e-31 4.73069 1.32627e-28 -2.96951e-15 0.174064 -3.15544e-30 -1.15116e-16)
(4.34873e-15 1.0411e-29 0 4.73069 2.04341e-16 -6.07967e-15 0.174064 -2.17522e-15 -2.35445e-16)
(1.83213e-15 -1.52188e-29 -3.8742e-31 4.5943 1.25227e-15 -3.18766e-15 0.172223 -5.02204e-17 -1.25253e-16)
(1.4657e-14 1.27753e-29 0 4.5943 5.7903e-16 -5.87346e-15 0.172223 -2.16119e-15 -2.70097e-16)
(-1.84433e-15 2.44419e-30 3.84069e-31 4.4629 1.24086e-15 -3.22061e-15 0.17044 -4.4115e-17 -1.22008e-16)
(0 2.50825e-30 1.25412e-30 4.4629 -1.89268e-15 -5.75477e-15 0.17044 -2.16993e-15 -3.02535e-16)
(-3.71279e-15 4.88246e-30 7.56219e-31 4.33626 1.76634e-15 -3.30746e-15 0.168714 -5.12289e-17 -1.3683e-16)
(7.42557e-15 0 0 4.33626 -1.78534e-15 -5.81904e-15 0.168714 -2.20366e-15 -3.37286e-16)
(-1.86833e-15 2.43236e-30 3.72239e-31 4.21416 3.72854e-15 -3.66791e-15 0.167043 -8.72627e-17 -1.55592e-16)
(7.47333e-15 4.83433e-30 1.20858e-30 4.21416 -7.86435e-16 -5.76613e-15 0.167043 -2.1956e-15 -3.74018e-16)
(-5.34323e-15 9.49148e-30 1.18643e-30 4.0964 4.7963e-15 -3.79656e-15 0.165425 -2.10961e-16 -1.52525e-16)
(0 -4.74574e-30 0 4.0964 -1.77449e-15 -5.71081e-15 0.165425 -2.20165e-15 -4.08809e-16)
(1.89184e-15 -9.398e-30 -3.66499e-31 3.98279 3.46738e-15 -3.69309e-15 0.163856 -1.78025e-16 -1.52821e-16)
(7.56738e-15 6.98816e-30 0 3.98279 -1.26409e-15 -5.58588e-15 0.163856 -2.21852e-15 -4.45563e-16)
(1.90342e-15 -1.38515e-29 -3.60232e-31 3.87313 2.4107e-15 -3.96903e-15 0.162337 -1.0801e-16 -1.8173e-16)
(7.6137e-15 1.14335e-29 0 3.87313 -7.12416e-16 -5.37339e-15 0.162337 -2.1896e-15 -4.81099e-16)
(-1.91489e-15 2.41643e-30 3.55924e-31 3.76727 2.28445e-15 -4.48153e-15 0.160864 -9.4905e-17 -2.0296e-16)
(7.65957e-15 4.4896e-30 0 3.76727 -2.53857e-15 -5.24579e-15 0.160864 -2.16864e-15 -5.14129e-16)
(1.92625e-15 -9.02016e-30 -1.45461e-30 3.66504 2.80212e-15 -4.85271e-15 0.159435 -1.01147e-16 -2.21321e-16)
(0 6.61099e-30 1.10183e-30 3.66504 -2.5706e-15 -4.93635e-15 0.159435 -2.20898e-15 -5.42007e-16)
(-1.93751e-15 1.10494e-29 1.43412e-30 3.56627 3.34418e-15 -5.01802e-15 0.15805 -1.44147e-16 -2.25462e-16)
(7.75004e-15 -4.32656e-30 0 3.56627 -1.16195e-15 -4.67407e-15 0.15805 -2.21405e-15 -5.62972e-16)
(1.94866e-15 -1.51306e-29 -1.41143e-30 3.47083 4.2321e-15 -5.23362e-15 0.156707 -1.53668e-16 -2.49397e-16)
(0 1.27418e-29 1.06182e-30 3.47083 -2.2108e-15 -4.54223e-15 0.156707 -2.22267e-15 -5.83932e-16)
(-1.95972e-15 1.07099e-29 3.47875e-31 3.37856 4.6499e-15 -5.65963e-15 0.155403 -2.30855e-16 -2.73681e-16)
(7.83887e-15 -8.3389e-30 0 3.37856 -3.23147e-15 -4.54819e-15 0.155403 -2.28132e-15 -5.93255e-16)
(1.97068e-15 5.8145e-30 6.76556e-31 3.28935 4.69112e-15 -6.09863e-15 0.154138 -1.98416e-16 -3.00493e-16)
(7.8827e-15 -4.09305e-30 0 3.28935 -3.05166e-15 -4.45306e-15 0.154138 -2.29818e-15 -6.05734e-16)
(0 8.03609e-30 1.00451e-30 3.20306 4.67031e-15 -6.52692e-15 0.152909 -2.4347e-16 -3.25434e-16)
(7.92617e-15 -4.01804e-30 0 3.20306 -3.03376e-15 -3.9377e-15 0.152909 -2.32354e-15 -6.12886e-16)
(0 3.94441e-30 0 3.11957 1.82511e-15 -6.61409e-15 0.151717 -2.03879e-16 -3.20408e-16)
(-7.96927e-15 -3.94441e-30 9.86104e-31 3.11957 -1.67454e-15 -3.65406e-15 0.151717 -2.39213e-15 -6.16218e-16)
(2.17982e-15 1.16164e-29 9.68033e-31 3.03877 -1.45623e-15 -6.32932e-15 0.150559 -1.17901e-16 -3.09106e-16)
(5.83221e-15 -1.16164e-29 -9.68033e-31 3.03877 9.35584e-16 -3.57836e-15 0.150559 -2.38297e-15 -6.26234e-16)
(1.26264e-16 -1.28354e-29 -5.90611e-31 2.96055 -2.44542e-15 -6.09049e-15 0.149433 -1.30014e-16 -3.08054e-16)
(-2.13987e-15 1.90059e-29 9.50295e-31 2.96055 1.06439e-15 -3.45127e-15 0.149433 -2.33004e-15 -6.33209e-16)
(-2.02413e-15 2.38475e-30 3.63905e-31 2.88481 -1.8997e-15 -5.91995e-15 0.14834 -6.54861e-17 -3.02985e-16)
(8.09652e-15 3.73152e-30 0 2.88481 -2.68896e-16 -3.31561e-15 0.14834 -2.338e-15 -6.46547e-16)
(0 -3.66314e-30 0 2.81144 -1.16565e-15 -5.65506e-15 0.147278 -5.70057e-17 -2.9155e-16)
(0 3.66314e-30 0 2.81144 -1.41274e-15 -2.92544e-15 0.147278 -2.34921e-15 -6.55973e-16)
(0 1.75162e-45 0 2.74036 -4.78966e-30 -5.13716e-15 0.146245 0 -2.58409e-16)
(0 0 0 2.74036 -1.75706e-15 -2.65566e-15 0.146245 -2.35777e-15 -6.64384e-16)
(4.0425e-15 -1.97215e-29 -2.14052e-30 2.67148 1.58076e-15 -4.89842e-15 0.145241 -4.31208e-17 -2.76243e-16)
(8.22088e-15 1.05904e-29 0 2.67148 -1.18063e-15 -2.48551e-15 0.145241 -2.33064e-15 -6.7921e-16)
(-3.78716e-15 8.02592e-30 1.35486e-30 2.60471 2.64907e-15 -4.93172e-15 0.144265 -1.53353e-16 -2.71881e-16)
(8.26174e-15 -3.46543e-30 0 2.60471 -1.96662e-15 -2.49782e-15 0.144265 -2.33347e-15 -6.93329e-16)
(0 0 0 2.53997 2.14406e-15 -4.84756e-15 0.143316 -1.40979e-16 -2.77035e-16)
(8.3023e-15 0 0 2.53997 -3.29846e-15 -2.76254e-15 0.143316 -2.35658e-15 -7.20903e-16)
(-4.1713e-15 4.73544e-30 7.58596e-31 2.47718 1.39839e-15 -4.86496e-15 0.142392 -1.01418e-16 -2.84152e-16)
(8.3426e-15 0 0 2.47718 -3.02136e-15 -2.81988e-15 0.142392 -2.36109e-15 -7.46851e-16)
(3.94123e-15 -1.54791e-29 -3.81856e-31 2.41627 1.42399e-15 -4.77927e-15 0.141493 -5.94839e-17 -2.77313e-16)
(6.53704e-15 1.31136e-29 0 2.41627 -3.07751e-15 -2.66741e-15 0.141493 -2.37556e-15 -7.73127e-16)
(0 1.28733e-29 0 2.35717 1.86084e-15 -4.5029e-15 0.140618 -1.08275e-16 -2.61472e-16)
(-8.42237e-15 -1.28733e-29 0 2.35717 -4.05052e-15 -2.36867e-15 0.140618 -2.43582e-15 -7.96798e-16)
(0 3.15934e-30 0 2.29982 1.9649e-15 -4.08195e-15 0.139767 -1.14497e-16 -2.35961e-16)
(-1.77855e-15 -3.15934e-30 0 2.29982 -3.54032e-15 -2.12483e-15 0.139767 -2.48941e-15 -8.23329e-16)
(-4.25056e-15 1.70793e-29 7.70656e-31 2.24414 1.91988e-15 -3.91395e-15 0.138937 -1.25161e-16 -2.50266e-16)
(0 -1.24058e-29 0 2.24414 -3.03937e-15 -1.84916e-15 0.138937 -2.52283e-15 -8.55401e-16)
(-2.13504e-15 8.41889e-30 3.42972e-30 2.19008 2.52129e-15 -3.95391e-15 0.13813 -1.13168e-16 -2.49954e-16)
(0 -3.04462e-30 0 2.19008 -2.74243e-15 -1.61573e-15 0.13813 -2.52444e-15 -8.82706e-16)
(0 1.19553e-29 1.49441e-30 2.13758 3.75192e-15 -3.604e-15 0.137344 -2.06674e-16 -2.14182e-16)
(-8.57892e-15 -8.96648e-30 0 2.13758 -2.83341e-15 -1.49092e-15 0.137344 -2.53352e-15 -9.04784e-16)
(4.30873e-15 1.28382e-30 6.75021e-31 2.08658 4.31566e-15 -2.94764e-15 0.136577 -2.77511e-16 -1.72401e-16)
(0 -5.86811e-30 0 2.08658 -3.60638e-15 -1.59381e-15 0.136577 -2.60118e-15 -9.27215e-16)
(1.08497e-15 4.09232e-30 6.53994e-31 2.03703 4.00592e-15 -2.65588e-15 0.135831 -2.89161e-16 -1.82872e-16)
(8.65578e-15 -1.15212e-29 0 2.03703 -3.46543e-15 -1.96075e-15 0.135831 -2.6531e-15 -9.66503e-16)
(-2.17347e-15 2.2668e-30 3.88414e-31 1.98888 3.28624e-15 -2.79875e-15 0.135103 -2.4616e-16 -1.98542e-16)
(8.69389e-15 2.82751e-30 0 1.98888 -3.90303e-15 -2.12603e-15 0.135103 -2.68891e-15 -1.01233e-15)
(4.36589e-15 -1.74832e-30 -7.83417e-31 1.94208 3.31925e-15 -2.50982e-15 0.134394 -2.01102e-16 -1.49292e-16)
(0 -2.7757e-30 0 1.94208 -4.44642e-15 -2.20973e-15 0.134394 -2.74592e-15 -1.05964e-15)
(2.19237e-15 -2.24012e-30 -1.74903e-30 1.89658 4.57766e-15 -2.12119e-15 0.133702 -2.60058e-16 -1.50575e-16)
(8.76947e-15 0 0 1.89658 -4.84628e-15 -1.98401e-15 0.133702 -2.77753e-15 -1.11458e-15)
(-2.20174e-15 4.88454e-30 3.78217e-31 1.85234 5.01198e-15 -2.37508e-15 0.133028 -3.88231e-16 -1.91819e-16)
(0 0 0 1.85234 -4.26743e-15 -1.5983e-15 0.133028 -2.81222e-15 -1.15491e-15)
(-2.95648e-15 0 0 1.80931 4.67829e-15 -2.70428e-15 0.13237 -3.32983e-16 -2.04989e-16)
(2.0645e-14 2.62588e-30 0 1.80931 -4.01596e-15 -1.66125e-15 0.13237 -2.78524e-15 -1.19093e-15)
(-5.12264e-15 -5.5418e-30 3.67751e-31 1.76746 6.17838e-15 -3.20199e-15 0.131729 -3.53455e-16 -2.74112e-16)
(2.90231e-15 1.28888e-29 0 1.76746 -6.75814e-15 -1.76467e-15 0.131729 -2.8678e-15 -1.22836e-15)
(0 -7.59159e-30 0 1.72674 4.90236e-15 -4.24813e-15 0.131102 -5.71776e-16 -3.73437e-16)
(1.78365e-14 7.59159e-30 2.53053e-30 1.72674 -5.62343e-15 -1.06663e-15 0.131102 -3.09188e-15 -1.26711e-15)
(5.58171e-16 9.62864e-30 2.85827e-30 1.68712 -8.95864e-17 -4.19785e-15 0.130491 -1.87938e-16 -2.76573e-16)
(-2.79691e-15 -7.45248e-30 -2.48416e-30 1.68712 -7.59718e-16 -6.39869e-17 0.130491 -3.13135e-15 -1.27384e-15)
(2.74566e-15 -7.56617e-30 0 1.64855 -1.08771e-15 -2.91545e-15 0.129894 -4.29515e-17 -1.83062e-16)
(6.24586e-15 4.87727e-30 0 1.64855 1.75241e-15 -4.01369e-17 0.129894 -3.06214e-15 -1.2823e-15)
(2.25697e-15 -1.41719e-29 -2.78001e-30 1.61101 -5.83224e-16 -2.29842e-15 0.129312 -5.09632e-17 -1.86787e-16)
(1.80558e-14 1.19697e-29 2.39395e-30 1.61101 8.97286e-16 -2.44486e-16 0.129312 -2.95953e-15 -1.31096e-15)
(-2.26603e-15 0 3.91041e-31 1.57446 0 -2.20314e-15 0.128743 -3.15544e-30 -1.74198e-16)
(9.06411e-15 4.70016e-30 0 1.57446 -5.84127e-17 4.1499e-16 0.128743 -2.90077e-15 -1.32329e-15)
(2.27504e-15 7.05687e-30 7.47575e-31 1.53887 3.12903e-15 -1.51209e-15 0.128187 -2.33852e-16 -7.737e-17)
(6.50268e-15 -4.61403e-30 0 1.53887 6.00858e-16 9.70003e-16 0.128187 -2.84681e-15 -1.31611e-15)
(-2.01814e-15 8.83828e-30 8.09051e-31 1.50421 3.36682e-15 -8.44334e-16 0.127644 -2.89091e-16 -6.613e-17)
(6.58616e-15 -4.52948e-30 2.26474e-30 1.50421 -6.03228e-16 4.58263e-16 0.127644 -2.81417e-15 -1.33481e-15)
(-5.00629e-15 -6.66972e-30 2.22324e-30 1.47045 4.04584e-15 -1.22292e-15 0.127113 -2.83484e-16 -1.4649e-16)
(2.08466e-14 8.89296e-30 2.22324e-30 1.47045 -2.32415e-15 -1.65738e-16 0.127113 -2.86178e-15 -1.38554e-15)
(0 8.73e-30 0 1.43755 3.67656e-15 -1.50019e-15 0.126594 -4.18726e-16 -1.18013e-16)
(9.20732e-15 -4.365e-30 0 1.43755 -1.94642e-15 2.95533e-16 0.126594 -2.91934e-15 -1.42152e-15)
(-2.31068e-15 6.43061e-30 -1.62008e-30 1.4055 1.99889e-15 -4.44577e-16 0.126086 -2.28385e-16 -1.99818e-17)
(-2.41225e-15 0 0 1.4055 -1.08723e-15 6.68112e-16 0.126086 -2.95682e-15 -1.44205e-15)
(2.3195e-15 4.15215e-30 -8.05844e-31 1.37426 1.24477e-15 1.04124e-29 0.125589 -1.30071e-16 3.9443e-31)
(0 -6.30974e-30 -2.10325e-30 1.37426 -1.46227e-15 5.3733e-16 0.125589 -2.98592e-15 -1.50547e-15)
(0 4.12941e-30 0 1.34381 1.65544e-15 6.81704e-16 0.125104 -9.75942e-17 -3.22575e-17)
(-2.32465e-15 0 2.0647e-30 1.34381 -1.82665e-15 8.47745e-16 0.125104 -3.01737e-15 -1.56042e-15)
(-2.33703e-15 1.02388e-29 2.39706e-30 1.31413 2.65798e-15 1.19251e-15 0.124628 -2.12302e-16 -9.55043e-17)
(-2.28205e-15 -8.10748e-30 -2.02687e-30 1.31413 -3.06616e-15 1.58648e-15 0.124628 -3.03846e-15 -1.60317e-15)
(-2.34574e-15 6.09597e-30 3.56186e-31 1.28518 3.3493e-15 1.97291e-15 0.124163 -2.93572e-16 -1.31452e-16)
(-9.38297e-15 0 1.98973e-30 1.28518 -4.0758e-15 1.45194e-15 0.124163 -3.17319e-15 -1.63977e-15)
(-2.35442e-15 -5.7147e-30 3.26334e-31 1.25696 4.29485e-15 2.08194e-15 0.123707 -3.5538e-16 -2.5159e-16)
(1.88354e-14 7.81307e-30 1.95327e-30 1.25696 -3.44245e-15 5.41171e-16 0.123707 -3.25609e-15 -1.73276e-15)
(0 -1.15048e-29 -1.91747e-30 1.22943 4.37423e-15 1.33255e-15 0.12326 -4.92839e-16 -1.58106e-16)
(9.45227e-15 1.15048e-29 1.91747e-30 1.22943 -4.62135e-15 5.09903e-16 0.12326 -3.31748e-15 -1.82709e-15)
(-2.37168e-15 5.82894e-30 3.2263e-31 1.20258 3.70047e-15 1.33327e-15 0.122823 -3.84866e-16 -1.09127e-16)
(7.3674e-15 -3.76467e-30 0 1.20258 -5.12052e-15 1.0298e-15 0.122823 -3.48795e-15 -1.90077e-15)
(0 3.69569e-30 0 1.17639 3.82464e-15 1.88013e-15 0.122394 -3.72251e-16 -1.64212e-16)
(9.52106e-15 0 0 1.17639 -4.2775e-15 1.11862e-15 0.122394 -3.57147e-15 -1.94648e-15)
(-2.38882e-15 -1.6063e-30 2.81607e-31 1.15083 4.39994e-15 2.00404e-15 0.121973 -4.25493e-16 -2.28297e-16)
(9.55526e-15 3.62796e-30 1.81398e-30 1.15083 -4.40412e-15 9.58462e-16 0.121973 -3.66117e-15 -2.02058e-15)
(0 -7.12297e-30 -1.78074e-30 1.12589 4.33054e-15 1.74268e-15 0.12156 -5.0958e-16 -1.96957e-16)
(9.58934e-15 7.12297e-30 1.78074e-30 1.12589 -4.21983e-15 1.12458e-15 0.12156 -3.78384e-15 -2.09187e-15)
(-2.40583e-15 1.98142e-30 2.64632e-31 1.10154 3.36e-15 1.96206e-15 0.121155 -4.26374e-16 -1.79838e-16)
(0 0 0 1.10154 -4.37819e-15 1.13329e-15 0.121155 -3.94147e-15 -2.1465e-15)