/*--------------------------------*- C++ -*----------------------------------*\
| =========                 |                                                 |
| \\      /  F ield         | OpenFOAM: The Open Source CFD Toolbox           |
|  \\    /   O peration     | Version:  2106                                  |
|   \\  /    A nd           | Website:  www.openfoam.com                      |
|    \\/     M anipulation  |                                                 |
\*---------------------------------------------------------------------------*/
FoamFile
{
    version     2.0;
    format      ascii;
    arch        "LSB;label=32;scalar=64";
    class       volScalarField;
    location    "10090";
    object      p;
}
// * * * * * * * * * * * * * * * * * * * * * * * * * * * * * * * * * * * * * //

dimensions      [0 2 -2 0 0 0 0];

internalField   nonuniform List<scalar> 
2000
(
1.222e-15
1.68241e-14
2.82817e-15
1.68248e-14
3.31478e-15
1.68259e-14
3.50186e-15
1.68278e-14
3.75112e-15
1.68304e-14
4.03296e-15
1.68338e-14
4.30919e-15
1.6838e-14
4.57566e-15
1.6843e-14
4.8351e-15
1.68488e-14
5.08833e-15
1.68553e-14
5.33538e-15
1.68626e-14
5.57633e-15
1.68706e-14
5.81113e-15
1.68794e-14
6.04e-15
1.68889e-14
6.26293e-15
1.68992e-14
6.48e-15
1.69102e-14
6.69153e-15
1.69218e-14
6.8976e-15
1.6934e-14
7.09831e-15
1.6947e-14
7.29371e-15
1.69607e-14
7.48397e-15
1.6975e-14
7.66912e-15
1.69901e-14
7.84942e-15
1.7006e-14
8.02517e-15
1.70226e-14
8.19638e-15
1.704e-14
8.36334e-15
1.70581e-14
8.52624e-15
1.7077e-14
8.68549e-15
1.70967e-14
8.84123e-15
1.71171e-14
8.99373e-15
1.71382e-14
9.14299e-15
1.71602e-14
9.28962e-15
1.71829e-14
9.43383e-15
1.72067e-14
9.57556e-15
1.72314e-14
9.71541e-15
1.72573e-14
9.85346e-15
1.72845e-14
9.98997e-15
1.73128e-14
1.01253e-14
1.73423e-14
1.02593e-14
1.73733e-14
1.03924e-14
1.74053e-14
1.05248e-14
1.74389e-14
1.06561e-14
1.74742e-14
1.07874e-14
1.7511e-14
1.09184e-14
1.75494e-14
1.1049e-14
1.75894e-14
1.11792e-14
1.76311e-14
1.1309e-14
1.76743e-14
1.14387e-14
1.77193e-14
1.15681e-14
1.77669e-14
1.16976e-14
1.78167e-14
1.18269e-14
1.78679e-14
1.19562e-14
1.79212e-14
1.20842e-14
1.79771e-14
1.22123e-14
1.80351e-14
1.23403e-14
1.80952e-14
1.24672e-14
1.81572e-14
1.25943e-14
1.82217e-14
1.27216e-14
1.82885e-14
1.28485e-14
1.83578e-14
1.2975e-14
1.84286e-14
1.31013e-14
1.85015e-14
1.32262e-14
1.85762e-14
1.33505e-14
1.86546e-14
1.34738e-14
1.87352e-14
1.35976e-14
1.8817e-14
1.37202e-14
1.89017e-14
1.38419e-14
1.89882e-14
1.39616e-14
1.90772e-14
1.40807e-14
1.9168e-14
1.41998e-14
1.92602e-14
1.43182e-14
1.9355e-14
1.44352e-14
1.94537e-14
1.45531e-14
1.95539e-14
1.46686e-14
1.96564e-14
1.47854e-14
1.97578e-14
1.49003e-14
1.98629e-14
1.50137e-14
1.99717e-14
1.51275e-14
2.00824e-14
1.52374e-14
2.01949e-14
1.53496e-14
2.0306e-14
1.54625e-14
2.04176e-14
1.55739e-14
2.05314e-14
1.56837e-14
2.06473e-14
1.57924e-14
2.07605e-14
1.59014e-14
2.0873e-14
1.60105e-14
2.0988e-14
1.6121e-14
2.11041e-14
1.62338e-14
2.1216e-14
1.63454e-14
2.13291e-14
1.64575e-14
2.14435e-14
1.65697e-14
2.15563e-14
1.66821e-14
2.16707e-14
1.67927e-14
2.17883e-14
1.68966e-14
2.1903e-14
1.70048e-14
2.20181e-14
1.71107e-14
2.21369e-14
1.72141e-14
2.22598e-14
1.73146e-14
2.23853e-14
1.74138e-14
2.25086e-14
1.75112e-14
2.26349e-14
1.76033e-14
2.27627e-14
1.76949e-14
2.28976e-14
1.77839e-14
2.30329e-14
1.78717e-14
2.31636e-14
1.79614e-14
2.32935e-14
1.80582e-14
2.3421e-14
1.81546e-14
2.35501e-14
1.82574e-14
2.36757e-14
1.83627e-14
2.37962e-14
1.84757e-14
2.39172e-14
1.8585e-14
2.40374e-14
1.86977e-14
2.41588e-14
1.88116e-14
2.42836e-14
1.89298e-14
2.44086e-14
1.90502e-14
2.45303e-14
1.91724e-14
2.46472e-14
1.92997e-14
2.47634e-14
1.94261e-14
2.48793e-14
1.9551e-14
2.49875e-14
1.96855e-14
2.50847e-14
1.98177e-14
2.51864e-14
1.99509e-14
2.52892e-14
2.00848e-14
2.53895e-14
2.02227e-14
2.54877e-14
2.03524e-14
2.55842e-14
2.04773e-14
2.56833e-14
2.05969e-14
2.57893e-14
2.07064e-14
2.59068e-14
2.08208e-14
2.60128e-14
2.09474e-14
2.60997e-14
2.10777e-14
2.61958e-14
2.1215e-14
2.62895e-14
2.13507e-14
2.63655e-14
2.14963e-14
2.6432e-14
2.16271e-14
2.65173e-14
2.17666e-14
2.6602e-14
2.191e-14
2.66702e-14
2.20607e-14
2.67386e-14
2.22224e-14
2.68032e-14
2.23824e-14
2.68603e-14
2.25443e-14
2.68978e-14
2.27036e-14
2.69523e-14
2.28599e-14
2.70198e-14
2.30208e-14
2.70802e-14
2.31816e-14
2.71336e-14
2.33461e-14
2.71923e-14
2.35056e-14
2.72562e-14
2.3672e-14
2.73133e-14
2.38407e-14
2.73716e-14
2.40032e-14
2.74392e-14
2.41589e-14
2.74996e-14
2.43074e-14
2.75447e-14
2.44482e-14
2.76072e-14
2.46298e-14
2.76542e-14
2.48028e-14
2.771e-14
2.49671e-14
2.77739e-14
2.51305e-14
2.78459e-14
2.52927e-14
2.79174e-14
2.54532e-14
2.798e-14
2.56118e-14
2.80495e-14
2.57926e-14
2.81256e-14
2.59708e-14
2.81997e-14
2.61381e-14
2.8271e-14
2.63026e-14
2.83474e-14
2.64723e-14
2.84449e-14
2.66386e-14
2.8514e-14
2.68015e-14
2.85867e-14
2.69855e-14
2.86622e-14
2.71579e-14
2.87556e-14
2.73352e-14
2.88417e-14
2.75093e-14
2.89197e-14
2.76888e-14
2.89965e-14
2.78496e-14
2.90629e-14
2.80327e-14
2.91581e-14
2.81981e-14
2.92566e-14
2.83784e-14
2.93411e-14
2.85257e-14
2.94182e-14
2.86888e-14
2.94948e-14
2.88522e-14
2.95935e-14
2.90326e-14
2.96806e-14
2.9215e-14
2.97861e-14
2.93527e-14
2.98437e-14
2.94948e-14
2.99155e-14
2.9642e-14
3.00001e-14
2.9795e-14
3.008e-14
2.99393e-14
3.02011e-14
3.0076e-14
3.03777e-14
3.02029e-14
3.04846e-14
3.03516e-14
3.05841e-14
3.04762e-14
3.0659e-14
3.05931e-14
3.07387e-14
3.07186e-14
3.08373e-14
3.08372e-14
3.09534e-14
3.0964e-14
3.10712e-14
3.10831e-14
3.11741e-14
3.12254e-14
3.12922e-14
3.1345e-14
3.14544e-14
3.14555e-14
3.15703e-14
3.15708e-14
3.16861e-14
3.16759e-14
3.18017e-14
3.17699e-14
3.18722e-14
3.18681e-14
3.1987e-14
3.19699e-14
3.20716e-14
3.20763e-14
3.21393e-14
3.21293e-14
3.22027e-14
3.22019e-14
3.23075e-14
3.22763e-14
3.23523e-14
3.23536e-14
3.23803e-14
3.245e-14
3.24468e-14
3.25098e-14
3.25343e-14
3.25746e-14
3.25997e-14
3.26441e-14
3.26571e-14
3.26606e-14
3.2707e-14
3.27643e-14
3.27954e-14
3.28117e-14
3.28641e-14
3.28563e-14
3.29132e-14
3.29796e-14
3.30265e-14
3.30416e-14
3.31201e-14
3.30969e-14
3.31691e-14
3.31453e-14
3.32003e-14
3.32674e-14
3.32658e-14
3.32789e-14
3.33316e-14
3.33087e-14
3.34003e-14
3.34037e-14
3.35034e-14
3.3534e-14
3.35884e-14
3.36528e-14
3.36242e-14
3.37171e-14
3.36807e-14
3.37772e-14
3.37814e-14
3.38271e-14
3.38781e-14
3.39342e-14
3.39542e-14
3.40272e-14
3.40619e-14
3.41074e-14
3.41531e-14
3.41236e-14
3.42538e-14
3.41619e-14
3.43014e-14
3.42885e-14
3.43971e-14
3.43158e-14
3.4562e-14
3.43921e-14
3.4671e-14
3.44862e-14
3.47835e-14
3.4552e-14
3.48639e-14
3.46329e-14
3.49206e-14
3.47465e-14
3.495e-14
3.48865e-14
3.49585e-14
3.50373e-14
3.50386e-14
3.51048e-14
3.51515e-14
3.51718e-14
3.52167e-14
3.52377e-14
3.5258e-14
3.52394e-14
3.53176e-14
3.53593e-14
3.53861e-14
3.54585e-14
3.54514e-14
3.55064e-14
3.55103e-14
1.34192e-14
1.46467e-14
1.34196e-14
1.46469e-14
1.34202e-14
1.46471e-14
1.34213e-14
1.46476e-14
1.34228e-14
1.46483e-14
1.34248e-14
1.46492e-14
1.34273e-14
1.46503e-14
1.34302e-14
1.46516e-14
1.34336e-14
1.46531e-14
1.34374e-14
1.4655e-14
1.34416e-14
1.4657e-14
1.34463e-14
1.46593e-14
1.34515e-14
1.46618e-14
1.34572e-14
1.46647e-14
1.34633e-14
1.46676e-14
1.347e-14
1.46709e-14
1.34769e-14
1.46744e-14
1.34844e-14
1.46782e-14
1.34923e-14
1.46824e-14
1.35007e-14
1.46869e-14
1.35096e-14
1.46916e-14
1.35189e-14
1.46965e-14
1.35288e-14
1.47017e-14
1.35391e-14
1.47073e-14
1.355e-14
1.47131e-14
1.35614e-14
1.47193e-14
1.35733e-14
1.47259e-14
1.35857e-14
1.47328e-14
1.35988e-14
1.474e-14
1.36125e-14
1.47477e-14
1.36269e-14
1.47559e-14
1.36419e-14
1.47646e-14
1.36577e-14
1.47737e-14
1.36743e-14
1.47834e-14
1.36917e-14
1.47935e-14
1.37099e-14
1.48044e-14
1.37291e-14
1.4816e-14
1.37492e-14
1.48283e-14
1.37704e-14
1.48414e-14
1.37928e-14
1.48548e-14
1.38163e-14
1.48692e-14
1.38409e-14
1.48847e-14
1.38668e-14
1.49009e-14
1.3894e-14
1.49182e-14
1.39228e-14
1.49368e-14
1.39531e-14
1.49568e-14
1.39853e-14
1.49776e-14
1.40189e-14
1.49993e-14
1.40537e-14
1.50234e-14
1.40906e-14
1.50492e-14
1.41292e-14
1.50755e-14
1.41697e-14
1.51031e-14
1.42119e-14
1.51328e-14
1.42562e-14
1.51632e-14
1.43023e-14
1.51955e-14
1.43506e-14
1.523e-14
1.44011e-14
1.52656e-14
1.44531e-14
1.53034e-14
1.45076e-14
1.53429e-14
1.4565e-14
1.53838e-14
1.46245e-14
1.54265e-14
1.4686e-14
1.5472e-14
1.47493e-14
1.55201e-14
1.48166e-14
1.55698e-14
1.48862e-14
1.56214e-14
1.4958e-14
1.56747e-14
1.50311e-14
1.5731e-14
1.51072e-14
1.57892e-14
1.51863e-14
1.58467e-14
1.52678e-14
1.59079e-14
1.53506e-14
1.5974e-14
1.54358e-14
1.60439e-14
1.55242e-14
1.61144e-14
1.56139e-14
1.61861e-14
1.57087e-14
1.62597e-14
1.58048e-14
1.63345e-14
1.59016e-14
1.64157e-14
1.59982e-14
1.65023e-14
1.61002e-14
1.65852e-14
1.62042e-14
1.667e-14
1.63094e-14
1.67615e-14
1.64167e-14
1.68569e-14
1.65252e-14
1.69534e-14
1.66357e-14
1.7048e-14
1.67496e-14
1.71443e-14
1.68648e-14
1.7249e-14
1.69813e-14
1.73592e-14
1.70983e-14
1.7468e-14
1.7215e-14
1.75799e-14
1.73344e-14
1.76951e-14
1.74582e-14
1.78117e-14
1.75817e-14
1.79284e-14
1.77064e-14
1.80497e-14
1.78355e-14
1.81708e-14
1.79659e-14
1.829e-14
1.80992e-14
1.84155e-14
1.82337e-14
1.85406e-14
1.83679e-14
1.86635e-14
1.85033e-14
1.87892e-14
1.86401e-14
1.89143e-14
1.87799e-14
1.9042e-14
1.89245e-14
1.91792e-14
1.90688e-14
1.93208e-14
1.92181e-14
1.94579e-14
1.93637e-14
1.9601e-14
1.95161e-14
1.975e-14
1.96684e-14
1.98979e-14
1.98205e-14
2.0048e-14
1.99708e-14
2.02004e-14
2.01227e-14
2.03585e-14
2.02838e-14
2.05134e-14
2.04376e-14
2.06685e-14
2.05951e-14
2.08255e-14
2.07471e-14
2.09864e-14
2.09011e-14
2.11529e-14
2.10608e-14
2.13175e-14
2.1217e-14
2.14877e-14
2.13753e-14
2.16521e-14
2.15358e-14
2.18108e-14
2.16946e-14
2.1971e-14
2.18558e-14
2.21368e-14
2.20116e-14
2.23118e-14
2.21698e-14
2.24808e-14
2.23266e-14
2.26398e-14
2.24858e-14
2.27927e-14
2.26437e-14
2.29431e-14
2.28044e-14
2.31028e-14
2.2964e-14
2.32718e-14
2.31226e-14
2.34461e-14
2.32724e-14
2.36101e-14
2.34333e-14
2.37557e-14
2.35934e-14
2.39146e-14
2.37531e-14
2.40789e-14
2.39083e-14
2.42406e-14
2.40632e-14
2.43959e-14
2.42219e-14
2.45486e-14
2.43886e-14
2.4707e-14
2.45434e-14
2.48669e-14
2.46864e-14
2.50244e-14
2.48457e-14
2.51717e-14
2.50056e-14
2.53208e-14
2.51661e-14
2.54882e-14
2.53396e-14
2.56497e-14
2.54897e-14
2.58054e-14
2.56409e-14
2.59554e-14
2.57974e-14
2.61042e-14
2.59431e-14
2.62598e-14
2.60986e-14
2.64268e-14
2.62516e-14
2.65933e-14
2.64022e-14
2.67513e-14
2.65668e-14
2.68849e-14
2.67296e-14
2.70105e-14
2.68911e-14
2.71609e-14
2.70434e-14
2.73199e-14
2.71866e-14
2.74798e-14
2.73372e-14
2.76165e-14
2.7479e-14
2.7755e-14
2.76287e-14
2.79202e-14
2.777e-14
2.80798e-14
2.79193e-14
2.82181e-14
2.80852e-14
2.83602e-14
2.8227e-14
2.8498e-14
2.83696e-14
2.86073e-14
2.84971e-14
2.8721e-14
2.86344e-14
2.88558e-14
2.87819e-14
2.89872e-14
2.89234e-14
2.91404e-14
2.90674e-14
2.92834e-14
2.92057e-14
2.94086e-14
2.93388e-14
2.95492e-14
2.94748e-14
2.96649e-14
2.96142e-14
2.97725e-14
2.97576e-14
2.98882e-14
2.98813e-14
3.00125e-14
3.00016e-14
3.01457e-14
3.01428e-14
3.02564e-14
3.0273e-14
3.03608e-14
3.03933e-14
3.04753e-14
3.05119e-14
3.05925e-14
3.0629e-14
3.07451e-14
3.07278e-14
3.08786e-14
3.08392e-14
3.09785e-14
3.09638e-14
3.10298e-14
3.10875e-14
3.10793e-14
3.11805e-14
3.11732e-14
3.1227e-14
3.13121e-14
3.1367e-14
3.14353e-14
3.14587e-14
3.15582e-14
3.1549e-14
3.16511e-14
3.16533e-14
3.17462e-14
3.17563e-14
3.18129e-14
3.18596e-14
3.19133e-14
3.19635e-14
3.20012e-14
3.20689e-14
3.21231e-14
3.21758e-14
3.2218e-14
3.22848e-14
3.23483e-14
3.23801e-14
3.24538e-14
3.2492e-14
3.25504e-14
3.25455e-14
3.2638e-14
3.26304e-14
3.27184e-14
3.27166e-14
3.27917e-14
3.27597e-14
3.28583e-14
3.28037e-14
3.29644e-14
3.28749e-14
3.30244e-14
3.29433e-14
3.30389e-14
3.30126e-14
3.30799e-14
3.30702e-14
3.31007e-14
3.31479e-14
3.31292e-14
3.31759e-14
3.31928e-14
3.32246e-14
3.32795e-14
3.32627e-14
3.33343e-14
3.33328e-14
3.33303e-14
3.33538e-14
3.33343e-14
3.34574e-14
3.33874e-14
3.35336e-14
3.34851e-14
3.36116e-14
3.35451e-14
3.36956e-14
3.3596e-14
3.37038e-14
3.36615e-14
3.37431e-14
3.37179e-14
3.38403e-14
3.37679e-14
3.38643e-14
3.38366e-14
3.39187e-14
3.3929e-14
3.39756e-14
3.3969e-14
3.40663e-14
3.40368e-14
3.41134e-14
3.41019e-14
3.41929e-14
3.41398e-14
3.43081e-14
3.42004e-14
3.4364e-14
3.42784e-14
3.44655e-14
3.42969e-14
3.44974e-14
3.42945e-14
3.45147e-14
3.43652e-14
3.45594e-14
3.44615e-14
3.45982e-14
3.45394e-14
3.47052e-14
3.46038e-14
3.46919e-14
3.46752e-14
3.4738e-14
3.48151e-14
3.47807e-14
3.48881e-14
3.47641e-14
3.48989e-14
3.48215e-14
3.49432e-14
3.49777e-14
3.50166e-14
3.50378e-14
3.50818e-14
3.50936e-14
3.50965e-14
3.51457e-14
3.51731e-14
3.52267e-14
3.52455e-14
3.5293e-14
3.53086e-14
3.53458e-14
3.53388e-14
3.5436e-14
3.53998e-14
3.54665e-14
3.54617e-14
3.55116e-14
3.54858e-14
3.54788e-14
3.55076e-14
3.55111e-14
3.55705e-14
3.56288e-14
3.56454e-14
3.56909e-14
3.56826e-14
3.57086e-14
3.56721e-14
3.57096e-14
3.57198e-14
3.57791e-14
3.57703e-14
3.57797e-14
3.58395e-14
3.58563e-14
3.58734e-14
3.58632e-14
3.59104e-14
3.58636e-14
3.59569e-14
3.5914e-14
3.5975e-14
3.59503e-14
3.60061e-14
3.604e-14
3.60481e-14
3.61241e-14
3.60933e-14
3.61628e-14
3.61124e-14
3.61327e-14
3.61244e-14
3.62001e-14
3.61597e-14
3.6248e-14
3.62128e-14
3.62745e-14
3.62108e-14
3.62819e-14
3.62543e-14
3.63209e-14
3.62994e-14
3.6366e-14
3.63188e-14
3.63936e-14
3.63333e-14
3.64051e-14
3.64173e-14
3.64187e-14
3.64252e-14
3.64324e-14
3.64608e-14
3.64426e-14
3.65006e-14
3.64178e-14
3.65196e-14
3.64337e-14
3.6494e-14
3.64958e-14
3.64994e-14
3.6529e-14
3.65578e-14
3.65826e-14
3.65908e-14
3.6606e-14
3.66237e-14
3.65717e-14
3.66579e-14
3.65819e-14
3.66998e-14
3.66369e-14
3.66949e-14
3.66587e-14
3.67215e-14
3.66461e-14
3.6722e-14
3.66853e-14
3.67255e-14
3.67228e-14
3.67437e-14
3.67313e-14
3.67181e-14
3.67278e-14
3.67337e-14
3.67844e-14
3.67486e-14
3.6786e-14
3.67751e-14
3.67896e-14
3.68294e-14
3.68067e-14
3.68134e-14
3.68247e-14
3.6843e-14
3.67984e-14
3.68581e-14
3.68153e-14
3.68461e-14
3.68325e-14
3.68652e-14
3.68338e-14
3.68846e-14
3.68336e-14
3.6891e-14
3.6832e-14
3.68849e-14
3.68603e-14
3.68351e-14
3.68609e-14
3.67842e-14
3.68508e-14
3.6821e-14
3.68741e-14
3.68861e-14
3.68522e-14
3.6919e-14
3.68602e-14
3.68755e-14
3.6868e-14
3.68314e-14
3.6877e-14
3.68316e-14
3.6887e-14
3.68762e-14
3.68973e-14
3.69038e-14
3.69074e-14
3.69151e-14
3.69169e-14
3.6926e-14
3.69261e-14
3.69524e-14
3.69346e-14
3.69945e-14
3.69575e-14
3.70213e-14
3.69789e-14
3.70327e-14
3.69994e-14
3.70282e-14
3.69875e-14
3.70392e-14
3.69745e-14
3.70504e-14
3.70003e-14
3.70866e-14
3.70165e-14
3.70999e-14
3.70153e-14
3.7098e-14
3.7021e-14
3.70969e-14
3.70339e-14
3.71127e-14
3.70378e-14
3.7105e-14
3.70492e-14
3.70652e-14
3.70364e-14
3.70822e-14
3.70233e-14
3.71155e-14
3.70254e-14
3.71413e-14
3.70181e-14
3.71436e-14
3.70093e-14
3.71391e-14
3.70154e-14
3.71197e-14
3.70123e-14
3.71179e-14
3.70246e-14
3.71171e-14
3.70197e-14
3.71172e-14
3.70058e-14
3.71099e-14
3.70074e-14
3.71035e-14
3.69999e-14
3.71059e-14
3.69916e-14
3.71255e-14
3.69986e-14
3.71217e-14
3.69963e-14
3.71024e-14
3.6993e-14
3.71004e-14
3.69888e-14
3.71075e-14
3.69836e-14
3.70907e-14
3.69859e-14
3.70829e-14
3.69874e-14
3.70757e-14
3.69883e-14
3.70607e-14
3.69804e-14
3.7046e-14
3.69803e-14
3.70398e-14
3.69797e-14
3.7042e-14
3.69787e-14
3.70444e-14
3.69773e-14
3.70511e-14
3.69877e-14
3.70498e-14
3.69815e-14
3.70486e-14
3.69789e-14
3.70476e-14
3.69719e-14
3.70549e-14
3.69645e-14
3.70623e-14
3.69647e-14
3.7066e-14
3.69643e-14
3.70782e-14
3.69674e-14
3.70866e-14
3.69658e-14
3.70955e-14
3.69717e-14
3.71007e-14
3.6977e-14
3.70943e-14
3.69858e-14
3.70923e-14
3.69941e-14
3.70946e-14
3.6998e-14
3.71051e-14
3.69975e-14
3.71199e-14
3.70005e-14
3.71231e-14
3.70031e-14
3.71268e-14
3.70012e-14
3.71308e-14
3.70145e-14
3.71351e-14
3.70235e-14
3.71477e-14
3.7032e-14
3.71449e-14
3.70323e-14
3.71385e-14
3.70401e-14
3.71403e-14
3.70474e-14
3.71538e-14
3.70467e-14
3.71598e-14
3.70457e-14
3.71623e-14
3.70443e-14
3.71689e-14
3.70464e-14
3.71758e-14
3.70481e-14
3.71753e-14
3.70458e-14
3.71752e-14
3.70468e-14
3.71772e-14
3.70457e-14
3.71851e-14
3.70425e-14
3.71988e-14
3.70463e-14
3.71997e-14
3.70479e-14
3.71955e-14
3.70493e-14
3.71952e-14
3.70485e-14
3.72024e-14
3.7053e-14
3.72061e-14
3.70553e-14
3.72083e-14
3.70575e-14
3.72125e-14
3.70611e-14
3.72133e-14
3.70645e-14
3.72143e-14
3.7066e-14
3.72156e-14
3.70638e-14
3.72187e-14
3.70649e-14
3.72254e-14
3.70675e-14
3.72306e-14
3.70648e-14
3.72308e-14
3.70637e-14
3.72295e-14
3.70624e-14
3.723e-14
3.70625e-14
3.72307e-14
3.70626e-14
3.72349e-14
3.70608e-14
3.72392e-14
3.7059e-14
3.72371e-14
3.70617e-14
3.72336e-14
3.70628e-14
3.7235e-14
3.70621e-14
3.72365e-14
3.70613e-14
3.72381e-14
3.70604e-14
3.72399e-14
3.70609e-14
3.72402e-14
3.70612e-14
3.72406e-14
3.70615e-14
3.72404e-14
3.70617e-14
3.72365e-14
3.70602e-14
3.72365e-14
3.70602e-14
3.7238e-14
3.70629e-14
3.72389e-14
3.70655e-14
3.72391e-14
3.70645e-14
3.7238e-14
3.70648e-14
3.72377e-14
3.70643e-14
3.72382e-14
3.70651e-14
3.72407e-14
3.70665e-14
3.72433e-14
3.70671e-14
3.72446e-14
3.7067e-14
3.72447e-14
3.70663e-14
3.72454e-14
3.70673e-14
3.72456e-14
3.70683e-14
3.72465e-14
3.70685e-14
3.72455e-14
3.70693e-14
3.72429e-14
3.70713e-14
3.72421e-14
3.70725e-14
3.72426e-14
3.70737e-14
3.72413e-14
3.70748e-14
3.72396e-14
3.70764e-14
3.72396e-14
3.70774e-14
3.72402e-14
3.70783e-14
3.72384e-14
3.70787e-14
3.72364e-14
3.70785e-14
3.72361e-14
3.7079e-14
3.72362e-14
3.70795e-14
3.72357e-14
3.708e-14
3.72352e-14
3.70794e-14
3.72352e-14
3.70791e-14
3.72352e-14
3.7079e-14
3.72351e-14
3.70789e-14
3.72347e-14
3.70791e-14
3.72344e-14
3.70794e-14
3.72339e-14
3.70796e-14
3.72326e-14
3.70795e-14
3.72319e-14
3.70799e-14
3.72323e-14
3.70804e-14
3.72323e-14
3.70805e-14
3.72319e-14
3.70806e-14
3.72318e-14
3.70807e-14
3.72315e-14
3.70809e-14
3.72315e-14
3.70812e-14
3.72312e-14
3.70815e-14
3.72306e-14
3.70819e-14
3.72302e-14
3.70823e-14
3.72303e-14
3.70827e-14
3.72301e-14
3.7083e-14
3.72298e-14
3.70832e-14
3.72298e-14
3.70831e-14
3.72297e-14
3.70833e-14
3.72293e-14
3.70837e-14
3.7229e-14
3.70837e-14
3.72288e-14
3.70838e-14
3.72287e-14
3.70839e-14
3.72285e-14
3.7084e-14
3.72282e-14
3.70841e-14
3.72281e-14
3.70842e-14
3.72282e-14
3.70843e-14
3.72281e-14
3.70844e-14
3.72279e-14
3.70845e-14
3.72278e-14
3.70846e-14
3.72278e-14
3.70846e-14
3.72277e-14
3.70846e-14
3.72277e-14
3.70847e-14
3.72275e-14
3.70848e-14
3.72275e-14
3.70848e-14
3.72275e-14
3.70849e-14
3.72274e-14
3.70849e-14
3.72273e-14
3.70849e-14
3.72272e-14
3.7085e-14
3.72272e-14
3.70851e-14
3.72271e-14
3.70851e-14
3.7227e-14
3.70851e-14
3.7227e-14
3.70852e-14
3.7227e-14
3.70853e-14
3.7227e-14
3.70853e-14
3.72269e-14
3.70853e-14
3.72269e-14
3.70853e-14
3.72269e-14
3.70853e-14
3.72269e-14
3.70853e-14
3.72269e-14
3.70853e-14
3.72269e-14
3.70853e-14
3.72269e-14
3.55719e-14
3.55829e-14
3.56703e-14
3.5617e-14
3.56966e-14
3.56792e-14
3.57282e-14
3.56906e-14
3.5702e-14
3.57183e-14
3.57873e-14
3.57965e-14
3.58252e-14
3.58567e-14
3.58142e-14
3.58789e-14
3.58324e-14
3.59157e-14
3.59022e-14
3.59464e-14
3.59434e-14
3.59609e-14
3.60571e-14
3.60018e-14
3.6094e-14
3.60324e-14
3.61467e-14
3.6051e-14
3.61933e-14
3.60994e-14
3.61834e-14
3.61317e-14
3.62107e-14
3.61817e-14
3.62686e-14
3.62041e-14
3.63125e-14
3.61656e-14
3.62519e-14
3.61799e-14
3.62761e-14
3.62568e-14
3.63261e-14
3.6303e-14
3.63506e-14
3.63718e-14
3.63437e-14
3.63933e-14
3.64071e-14
3.64193e-14
3.6442e-14
3.64465e-14
3.64772e-14
3.65005e-14
3.6485e-14
3.65303e-14
3.64916e-14
3.65381e-14
3.65239e-14
3.65526e-14
3.66378e-14
3.65724e-14
3.66246e-14
3.66148e-14
3.66139e-14
3.66298e-14
3.66863e-14
3.66464e-14
3.66542e-14
3.66877e-14
3.66505e-14
3.67312e-14
3.66982e-14
3.67825e-14
3.66556e-14
3.6785e-14
3.66615e-14
3.67988e-14
3.66865e-14
3.67955e-14
3.66742e-14
3.67718e-14
3.66685e-14
3.67704e-14
3.67283e-14
3.67909e-14
3.67389e-14
3.68163e-14
3.67586e-14
3.67734e-14
3.6762e-14
3.6789e-14
3.67628e-14
3.68652e-14
3.67569e-14
3.68574e-14
3.67451e-14
3.68694e-14
3.68015e-14
3.69181e-14
3.68066e-14
3.68823e-14
3.67774e-14
3.688e-14
3.67733e-14
3.68665e-14
3.67489e-14
3.6841e-14
3.67649e-14
3.68806e-14
3.67748e-14
3.69265e-14
3.67625e-14
3.69799e-14
3.68029e-14
3.69648e-14
3.68371e-14
3.69403e-14
3.68678e-14
3.692e-14
3.6897e-14
3.69341e-14
3.6894e-14
3.69508e-14
3.69052e-14
3.69545e-14
3.6931e-14
3.69603e-14
3.69247e-14
3.69833e-14
3.69329e-14
3.70245e-14
3.69548e-14
3.7069e-14
3.69583e-14
3.71012e-14
3.69586e-14
3.71217e-14
3.6971e-14
3.71469e-14
3.69795e-14
3.71289e-14
3.69847e-14
3.71148e-14
3.69876e-14
3.71282e-14
3.69876e-14
3.71609e-14
3.69841e-14
3.7173e-14
3.6977e-14
3.7173e-14
3.69824e-14
3.71689e-14
3.69843e-14
3.71601e-14
3.6983e-14
3.71464e-14
3.69869e-14
3.71767e-14
3.69876e-14
3.72104e-14
3.69849e-14
3.72153e-14
3.69869e-14
3.71912e-14
3.6986e-14
3.71619e-14
3.69745e-14
3.71431e-14
3.69689e-14
3.71429e-14
3.69774e-14
3.71532e-14
3.69672e-14
3.71574e-14
3.69711e-14
3.71639e-14
3.69727e-14
3.71646e-14
3.69722e-14
3.71593e-14
3.69698e-14
3.71479e-14
3.6982e-14
3.71382e-14
3.70009e-14
3.71301e-14
3.6994e-14
3.71232e-14
3.69861e-14
3.71258e-14
3.6977e-14
3.71295e-14
3.69913e-14
3.71264e-14
3.69882e-14
3.71245e-14
3.69841e-14
3.71155e-14
3.69954e-14
3.71077e-14
3.69897e-14
3.71009e-14
3.69914e-14
3.71031e-14
3.69843e-14
3.71063e-14
3.69806e-14
3.71186e-14
3.69761e-14
3.714e-14
3.69828e-14
3.7134e-14
3.69928e-14
3.71332e-14
3.69858e-14
3.71333e-14
3.69863e-14
3.71263e-14
3.69901e-14
3.71282e-14
3.69934e-14
3.71349e-14
3.69961e-14
3.71424e-14
3.70022e-14
3.71507e-14
3.69998e-14
3.71435e-14
3.70048e-14
3.71451e-14
3.70053e-14
3.71474e-14
3.70174e-14
3.71382e-14
3.7021e-14
3.71376e-14
3.70322e-14
3.71374e-14
3.70431e-14
3.71297e-14
3.70537e-14
3.71303e-14
3.70641e-14
3.7135e-14
3.70705e-14
3.71399e-14
3.70767e-14
3.71411e-14
3.70828e-14
3.71385e-14
3.70966e-14
3.71361e-14
3.71064e-14
3.71454e-14
3.71084e-14
3.7151e-14
3.71143e-14
3.71451e-14
3.71201e-14
3.71316e-14
3.71222e-14
3.71296e-14
3.71243e-14
3.7139e-14
3.71188e-14
3.71407e-14
3.71172e-14
3.71425e-14
3.711e-14
3.7148e-14
3.71122e-14
3.71554e-14
3.71162e-14
3.71591e-14
3.71072e-14
3.71647e-14
3.70964e-14
3.71776e-14
3.70965e-14
3.7187e-14
3.70929e-14
3.71892e-14
3.70874e-14
3.71897e-14
3.70782e-14
3.71939e-14
3.7076e-14
3.71946e-14
3.70791e-14
3.71938e-14
3.70766e-14
3.72001e-14
3.70741e-14
3.7203e-14
3.70714e-14
3.72043e-14
3.70704e-14
3.72126e-14
3.70709e-14
3.72194e-14
3.70695e-14
3.72211e-14
3.70663e-14
3.7223e-14
3.7068e-14
3.7225e-14
3.70679e-14
3.72254e-14
3.70676e-14
3.72277e-14
3.70672e-14
3.72317e-14
3.70683e-14
3.72342e-14
3.70692e-14
3.72368e-14
3.70653e-14
3.72443e-14
3.70612e-14
3.72503e-14
3.70586e-14
3.72548e-14
3.70605e-14
3.72578e-14
3.70577e-14
3.7261e-14
3.70548e-14
3.7265e-14
3.70517e-14
3.72677e-14
3.7053e-14
3.72667e-14
3.70512e-14
3.72681e-14
3.70501e-14
3.72711e-14
3.70517e-14
3.72691e-14
3.70532e-14
3.72673e-14
3.70545e-14
3.72649e-14
3.70557e-14
3.72648e-14
3.70547e-14
3.72674e-14
3.70551e-14
3.72682e-14
3.70546e-14
3.7269e-14
3.70547e-14
3.72705e-14
3.70547e-14
3.72702e-14
3.70547e-14
3.727e-14
3.70545e-14
3.72717e-14
3.70549e-14
3.72741e-14
3.70564e-14
3.72736e-14
3.70578e-14
3.72731e-14
3.70598e-14
3.72739e-14
3.70593e-14
3.72753e-14
3.7057e-14
3.72767e-14
3.70569e-14
3.72788e-14
3.70574e-14
3.72787e-14
3.70577e-14
3.72787e-14
3.70575e-14
3.72782e-14
3.70577e-14
3.72785e-14
3.70581e-14
3.72789e-14
3.7058e-14
3.72781e-14
3.7058e-14
3.72771e-14
3.70585e-14
3.72767e-14
3.70585e-14
3.72771e-14
3.70586e-14
3.72772e-14
3.70587e-14
3.72772e-14
3.70588e-14
3.72772e-14
3.7059e-14
3.72777e-14
3.70583e-14
3.72786e-14
3.70583e-14
3.7279e-14
3.70583e-14
3.72783e-14
3.70588e-14
3.72779e-14
3.70592e-14
3.7278e-14
3.70592e-14
3.7278e-14
3.70597e-14
3.72782e-14
3.70599e-14
3.72781e-14
3.70601e-14
3.72777e-14
3.70608e-14
3.72778e-14
3.70615e-14
3.72779e-14
3.70621e-14
3.72777e-14
3.70624e-14
3.72775e-14
3.70627e-14
3.72772e-14
3.70633e-14
3.7277e-14
3.70637e-14
3.72769e-14
3.70641e-14
3.72768e-14
3.70647e-14
3.72766e-14
3.70652e-14
3.72763e-14
3.70653e-14
3.7276e-14
3.70657e-14
3.72757e-14
3.70661e-14
3.72754e-14
3.70664e-14
3.72752e-14
3.70667e-14
3.7275e-14
3.7067e-14
3.72748e-14
3.70672e-14
3.72746e-14
3.70674e-14
3.72742e-14
3.70677e-14
3.7274e-14
3.7068e-14
3.72739e-14
3.70681e-14
3.72738e-14
3.70683e-14
3.72735e-14
3.70685e-14
3.72735e-14
3.70686e-14
3.72736e-14
3.70686e-14
3.72735e-14
3.70688e-14
3.72733e-14
3.70688e-14
3.72733e-14
3.70688e-14
3.72733e-14
3.70688e-14
3.72732e-14
3.70689e-14
3.72732e-14
3.70688e-14
3.72731e-14
3.70688e-14
3.7273e-14
3.70688e-14
3.7273e-14
3.70689e-14
3.7273e-14
3.70689e-14
3.7273e-14
3.70688e-14
3.72729e-14
3.70688e-14
3.72729e-14
3.70688e-14
3.72729e-14
3.70688e-14
3.72729e-14
3.70688e-14
3.72729e-14
3.70688e-14
3.72729e-14
)
;

boundaryField
{
    walls
    {
        type            zeroGradient;
    }
    inlet
    {
        type            cyclic;
    }
    outlet
    {
        type            cyclic;
    }
    sides
    {
        type            empty;
    }
}


// ************************************************************************* //
