/*--------------------------------*- C++ -*----------------------------------*\
| =========                 |                                                 |
| \\      /  F ield         | OpenFOAM: The Open Source CFD Toolbox           |
|  \\    /   O peration     | Version:  2106                                  |
|   \\  /    A nd           | Website:  www.openfoam.com                      |
|    \\/     M anipulation  |                                                 |
\*---------------------------------------------------------------------------*/
FoamFile
{
    version     2.0;
    format      ascii;
    arch        "LSB;label=32;scalar=64";
    class       surfaceScalarField;
    location    "10090";
    object      phi;
}
// * * * * * * * * * * * * * * * * * * * * * * * * * * * * * * * * * * * * * //

dimensions      [0 3 -1 0 0 0 0];

oriented        oriented;

internalField   nonuniform List<scalar> 
3996
(
3.0002e-08
-4.96405e-18
-3.55273e-22
-7.96078e-22
7.31165e-24
9.2245e-08
-4.95834e-18
-1.98865e-21
-4.18413e-21
-3.14752e-22
1.57962e-07
-4.95251e-18
-2.04793e-21
-7.62825e-21
-3.32581e-22
2.27305e-07
-4.94655e-18
-2.11475e-21
-1.11028e-20
-3.51335e-22
3.0043e-07
-4.94035e-18
-2.18225e-21
-1.47681e-20
-3.71057e-22
3.77501e-07
-4.934e-18
-2.25068e-21
-1.847e-20
-3.91787e-22
4.58689e-07
-4.92751e-18
-2.32113e-21
-2.22097e-20
-4.13574e-22
5.44169e-07
-4.9207e-18
-2.39388e-21
-2.61493e-20
-4.36465e-22
6.34126e-07
-4.91366e-18
-2.46891e-21
-3.01462e-20
-4.60508e-22
7.28749e-07
-4.90653e-18
-2.54627e-21
-3.42928e-20
-4.85755e-22
8.28236e-07
-4.89958e-18
-2.62604e-21
-3.85314e-20
-5.12251e-22
9.32791e-07
-4.8917e-18
-2.70827e-21
-4.29461e-20
-5.40047e-22
1.04262e-06
-4.88391e-18
-2.79302e-21
-4.75813e-20
-5.69193e-22
1.15795e-06
-4.87563e-18
-2.88034e-21
-5.19843e-20
-5.99728e-22
1.279e-06
-4.86711e-18
-2.97023e-21
-5.65871e-20
-6.31689e-22
1.40599e-06
-4.85892e-18
-3.0627e-21
-6.12238e-20
-6.65117e-22
1.53916e-06
-4.85038e-18
-3.15766e-21
-6.58502e-20
-7.00042e-22
1.67874e-06
-4.84156e-18
-3.25503e-21
-7.08449e-20
-7.36478e-22
1.82496e-06
-4.83226e-18
-3.35466e-21
-7.56517e-20
-7.74424e-22
1.97807e-06
-4.82222e-18
-3.45631e-21
-8.0979e-20
-8.13874e-22
2.13828e-06
-4.81188e-18
-3.5597e-21
-8.7189e-20
-8.54734e-22
2.30581e-06
-4.8015e-18
-3.66442e-21
-9.28283e-20
-8.96892e-22
2.48087e-06
-4.79077e-18
-3.76994e-21
-9.88257e-20
-9.4026e-22
2.66366e-06
-4.77975e-18
-3.87564e-21
-1.04885e-19
-9.84683e-22
2.85434e-06
-4.76891e-18
-3.98076e-21
-1.10969e-19
-1.02996e-21
3.05305e-06
-4.75736e-18
-4.08442e-21
-1.17748e-19
-1.07585e-21
3.25992e-06
-4.74615e-18
-4.18569e-21
-1.23467e-19
-1.12206e-21
3.47502e-06
-4.73465e-18
-4.28347e-21
-1.29105e-19
-1.16826e-21
3.69839e-06
-4.723e-18
-4.37667e-21
-1.34655e-19
-1.21413e-21
3.93004e-06
-4.70934e-18
-4.46415e-21
-1.41589e-19
-1.25929e-21
4.16992e-06
-4.69646e-18
-4.54489e-21
-1.4725e-19
-1.30334e-21
4.41798e-06
-4.68345e-18
-4.61779e-21
-1.53617e-19
-1.34592e-21
4.67409e-06
-4.66996e-18
-4.68192e-21
-1.60602e-19
-1.38666e-21
4.93811e-06
-4.65662e-18
-4.73658e-21
-1.68172e-19
-1.42521e-21
5.20989e-06
-4.64334e-18
-4.78119e-21
-1.76358e-19
-1.46129e-21
5.48923e-06
-4.63023e-18
-4.81545e-21
-1.82642e-19
-1.49459e-21
5.77595e-06
-4.61839e-18
-4.83923e-21
-1.88279e-19
-1.52503e-21
6.06986e-06
-4.604e-18
-4.85258e-21
-1.94798e-19
-1.55249e-21
6.37075e-06
-4.59096e-18
-4.85595e-21
-2.00275e-19
-1.5769e-21
6.67847e-06
-4.57895e-18
-4.84967e-21
-2.06131e-19
-1.59831e-21
6.99284e-06
-4.56494e-18
-4.83428e-21
-2.12418e-19
-1.61673e-21
7.31374e-06
-4.55417e-18
-4.8105e-21
-2.18803e-19
-1.6323e-21
7.64104e-06
-4.5427e-18
-4.77883e-21
-2.25507e-19
-1.64507e-21
7.97467e-06
-4.52951e-18
-4.74003e-21
-2.31098e-19
-1.65529e-21
8.31457e-06
-4.51654e-18
-4.69499e-21
-2.38051e-19
-1.66316e-21
8.66069e-06
-4.50203e-18
-4.64425e-21
-2.44913e-19
-1.66894e-21
9.01305e-06
-4.48977e-18
-4.58859e-21
-2.50723e-19
-1.67267e-21
9.37166e-06
-4.47665e-18
-4.52832e-21
-2.56607e-19
-1.67448e-21
9.73656e-06
-4.46566e-18
-4.46402e-21
-2.63046e-19
-1.67471e-21
1.01078e-05
-4.45325e-18
-4.3962e-21
-2.70503e-19
-1.67332e-21
1.04855e-05
-4.44098e-18
-4.32527e-21
-2.77084e-19
-1.67008e-21
1.08698e-05
-4.42625e-18
-4.25163e-21
-2.83951e-19
-1.66545e-21
1.12607e-05
-4.41338e-18
-4.17567e-21
-2.89227e-19
-1.65947e-21
1.16585e-05
-4.40102e-18
-4.0977e-21
-2.96599e-19
-1.65181e-21
1.20631e-05
-4.38879e-18
-4.01778e-21
-3.00565e-19
-1.6426e-21
1.2475e-05
-4.38154e-18
-3.9364e-21
-3.04758e-19
-1.6321e-21
1.2894e-05
-4.37459e-18
-3.8533e-21
-3.07827e-19
-1.61985e-21
1.33206e-05
-4.36562e-18
-3.76846e-21
-3.12109e-19
-1.60628e-21
1.37548e-05
-4.35777e-18
-3.68246e-21
-3.16519e-19
-1.59118e-21
1.41968e-05
-4.34569e-18
-3.59559e-21
-3.24627e-19
-1.57452e-21
1.46469e-05
-4.33617e-18
-3.50778e-21
-3.29303e-19
-1.55638e-21
1.51053e-05
-4.3283e-18
-3.41851e-21
-3.32961e-19
-1.53711e-21
1.55721e-05
-4.32057e-18
-3.32794e-21
-3.31696e-19
-1.51661e-21
1.60476e-05
-4.31325e-18
-3.23719e-21
-3.35014e-19
-1.49521e-21
1.6532e-05
-4.30701e-18
-3.14587e-21
-3.38312e-19
-1.4718e-21
1.70256e-05
-4.30091e-18
-3.05419e-21
-3.37361e-19
-1.44581e-21
1.75285e-05
-4.29131e-18
-2.96217e-21
-3.41011e-19
-1.41769e-21
1.80411e-05
-4.28687e-18
-2.87037e-21
-3.42738e-19
-1.38719e-21
1.85636e-05
-4.28376e-18
-2.77767e-21
-3.38636e-19
-1.35365e-21
1.90961e-05
-4.2807e-18
-2.68419e-21
-3.42416e-19
-1.3191e-21
1.96391e-05
-4.27525e-18
-2.58941e-21
-3.46262e-19
-1.28267e-21
2.01926e-05
-4.277e-18
-2.49439e-21
-3.45108e-19
-1.24393e-21
2.07571e-05
-4.27144e-18
-2.39867e-21
-3.4943e-19
-1.20211e-21
2.13327e-05
-4.27088e-18
-2.30324e-21
-3.49117e-19
-1.15652e-21
2.19197e-05
-4.26504e-18
-2.20882e-21
-3.55453e-19
-1.10867e-21
2.25185e-05
-4.25821e-18
-2.11443e-21
-3.60466e-19
-1.05668e-21
2.31292e-05
-4.25423e-18
-2.01981e-21
-3.653e-19
-1.00156e-21
2.37522e-05
-4.24387e-18
-1.92302e-21
-3.67939e-19
-9.4392e-22
2.43878e-05
-4.24548e-18
-1.82812e-21
-3.62029e-19
-8.82172e-22
2.50363e-05
-4.23986e-18
-1.73127e-21
-3.67039e-19
-8.1998e-22
2.56979e-05
-4.23232e-18
-1.63401e-21
-3.69996e-19
-7.56661e-22
2.6373e-05
-4.22269e-18
-1.53694e-21
-3.72527e-19
-6.91238e-22
2.70619e-05
-4.21477e-18
-1.44001e-21
-3.78035e-19
-6.23188e-22
2.77649e-05
-4.21219e-18
-1.34274e-21
-3.76221e-19
-5.51905e-22
2.84823e-05
-4.21181e-18
-1.24533e-21
-3.75603e-19
-4.79302e-22
2.92145e-05
-4.2166e-18
-1.14475e-21
-3.7394e-19
-4.08522e-22
2.99618e-05
-4.21821e-18
-1.04256e-21
-3.73182e-19
-3.36172e-22
3.07245e-05
-4.21428e-18
-9.38925e-22
-3.73898e-19
-2.60762e-22
3.15031e-05
-4.21188e-18
-8.34164e-22
-3.73541e-19
-1.83492e-22
3.22978e-05
-4.21127e-18
-7.30863e-22
-3.76039e-19
-1.02612e-22
3.3109e-05
-4.20509e-18
-6.26582e-22
-3.82105e-19
-1.87266e-23
3.3937e-05
-4.20149e-18
-5.20901e-22
-3.83031e-19
7.06992e-23
3.47824e-05
-4.17951e-18
-4.15586e-22
-3.85704e-19
1.62417e-22
3.56454e-05
-4.17969e-18
-3.19257e-22
-3.91354e-19
2.61658e-22
3.65264e-05
-4.16656e-18
-2.25047e-22
-3.91887e-19
3.73782e-22
3.74258e-05
-4.16401e-18
-1.42408e-22
-4.00378e-19
4.92824e-22
3.83441e-05
-4.15466e-18
-6.28407e-23
-4.0955e-19
6.25409e-22
3.92817e-05
-4.14587e-18
1.1767e-23
-4.08514e-19
7.72786e-22
4.02389e-05
-4.13606e-18
7.81893e-23
-4.16826e-19
9.25198e-22
4.12162e-05
-4.11657e-18
1.35315e-22
-4.22947e-19
1.08586e-21
4.22141e-05
-4.10959e-18
1.73281e-22
-4.3784e-19
1.25469e-21
4.3233e-05
-4.08867e-18
1.97541e-22
-4.4748e-19
1.43125e-21
4.42733e-05
-4.08507e-18
2.08763e-22
-4.47639e-19
1.60934e-21
4.53356e-05
-4.09032e-18
2.08655e-22
-4.47422e-19
1.78859e-21
4.64202e-05
-4.10045e-18
2.04831e-22
-4.39008e-19
1.96684e-21
4.75277e-05
-4.10488e-18
1.92628e-22
-4.44805e-19
2.13626e-21
4.86587e-05
-4.10941e-18
1.77417e-22
-4.48408e-19
2.31403e-21
4.98134e-05
-4.1097e-18
1.64461e-22
-4.53434e-19
2.487e-21
5.09926e-05
-4.1046e-18
1.59276e-22
-4.58312e-19
2.66016e-21
5.21967e-05
-4.09387e-18
1.60397e-22
-4.64121e-19
2.83147e-21
5.34263e-05
-4.08765e-18
1.55778e-22
-4.75815e-19
3.00342e-21
5.46819e-05
-4.08109e-18
1.62507e-22
-4.88213e-19
3.17842e-21
5.5964e-05
-4.07856e-18
1.65198e-22
-4.99491e-19
3.35683e-21
5.72733e-05
-4.07104e-18
1.84294e-22
-5.12939e-19
3.52947e-21
5.86103e-05
-4.06136e-18
1.98681e-22
-5.26119e-19
3.69012e-21
5.99756e-05
-4.05293e-18
1.99084e-22
-5.42439e-19
3.85256e-21
6.13698e-05
-4.04736e-18
1.97799e-22
-5.5401e-19
4.0131e-21
6.27935e-05
-4.0245e-18
1.91526e-22
-5.5962e-19
4.18438e-21
6.42474e-05
-4.01528e-18
1.6912e-22
-5.71825e-19
4.34892e-21
6.5732e-05
-3.99676e-18
1.67716e-22
-5.91443e-19
4.49268e-21
6.72482e-05
-3.97905e-18
1.70503e-22
-6.08043e-19
4.62772e-21
6.87964e-05
-3.97305e-18
1.80918e-22
-6.21638e-19
4.7322e-21
7.03775e-05
-3.95197e-18
2.01249e-22
-6.47852e-19
4.82995e-21
7.1992e-05
-3.91828e-18
2.06122e-22
-6.66015e-19
4.96256e-21
7.36408e-05
-3.90739e-18
1.46117e-22
-6.82106e-19
5.12889e-21
7.53245e-05
-3.87477e-18
6.43162e-23
-7.13726e-19
5.3202e-21
7.70438e-05
-3.83717e-18
-7.58e-23
-7.61509e-19
5.52837e-21
7.87996e-05
-3.85168e-18
-2.8177e-22
-7.48964e-19
5.77674e-21
8.05926e-05
-3.85823e-18
-4.77978e-22
-7.28969e-19
5.98058e-21
8.24236e-05
-3.86283e-18
-6.68858e-22
-7.37094e-19
6.14937e-21
8.42933e-05
-3.85781e-18
-8.86771e-22
-7.40637e-19
6.3736e-21
8.62027e-05
-3.83406e-18
-1.10797e-21
-7.26669e-19
6.58352e-21
8.81524e-05
-3.82764e-18
-1.34907e-21
-7.25075e-19
6.71313e-21
9.01435e-05
-3.79356e-18
-1.56548e-21
-7.52258e-19
6.80315e-21
9.21767e-05
-3.78047e-18
-1.79254e-21
-7.66495e-19
6.95063e-21
9.4253e-05
-3.76483e-18
-1.99202e-21
-7.57379e-19
7.09561e-21
9.63732e-05
-3.7601e-18
-2.19925e-21
-7.73334e-19
7.14872e-21
9.85382e-05
-3.75907e-18
-2.32215e-21
-7.81666e-19
7.18628e-21
0.000100749
-3.73205e-18
-2.36415e-21
-8.06581e-19
7.18612e-21
0.000103007
-3.71852e-18
-2.47799e-21
-8.16793e-19
7.19832e-21
0.000105312
-3.68862e-18
-2.60036e-21
-8.48306e-19
7.14292e-21
0.000107666
-3.65919e-18
-2.74307e-21
-8.78923e-19
7.06395e-21
0.00011007
-3.63857e-18
-2.96581e-21
-9.1125e-19
7.01236e-21
0.000112525
-3.6116e-18
-3.13206e-21
-9.31405e-19
6.96307e-21
0.000115031
-3.58545e-18
-3.28979e-21
-9.68465e-19
6.86376e-21
0.000117591
-3.54878e-18
-3.4665e-21
-9.99906e-19
6.78833e-21
0.000120204
-3.53209e-18
-3.64085e-21
-1.02264e-18
6.65808e-21
0.000122873
-3.50825e-18
-3.77926e-21
-1.05252e-18
6.35602e-21
0.000125598
-3.45638e-18
-3.9434e-21
-1.10298e-18
5.98899e-21
0.000128381
-3.42717e-18
-4.22736e-21
-1.13307e-18
5.66679e-21
0.000131222
-3.35105e-18
-4.56959e-21
-1.1383e-18
5.39365e-21
0.000134123
-3.33586e-18
-5.12709e-21
-1.18993e-18
5.08613e-21
0.000137086
-3.34214e-18
-5.71342e-21
-1.19887e-18
4.74126e-21
0.00014011
-3.31634e-18
-6.11255e-21
-1.22861e-18
4.21701e-21
0.000143199
-3.28809e-18
-6.50247e-21
-1.25821e-18
3.69951e-21
0.000146352
-3.25976e-18
-6.87154e-21
-1.28717e-18
3.20936e-21
0.000149572
-3.2103e-18
-7.19445e-21
-1.31164e-18
2.72276e-21
0.00015286
-3.18368e-18
-7.62686e-21
-1.35773e-18
2.08808e-21
0.000156217
-3.15605e-18
-8.01566e-21
-1.3786e-18
1.4879e-21
0.000159644
-3.12779e-18
-8.43603e-21
-1.39152e-18
9.87426e-22
0.000163144
-3.08942e-18
-9.00427e-21
-1.41201e-18
5.66969e-22
0.000166716
-3.04644e-18
-9.45678e-21
-1.43107e-18
2.34858e-22
0.000170365
-3.01901e-18
-9.85912e-21
-1.43568e-18
1.34393e-22
0.000174089
-2.98092e-18
-1.00733e-20
-1.48896e-18
-1.67312e-22
0.000177892
-2.93288e-18
-1.02863e-20
-1.46536e-18
-3.61066e-22
0.000181774
-2.89633e-18
-1.0783e-20
-1.51468e-18
-8.1764e-22
0.000185738
-2.8936e-18
-1.13779e-20
-1.52665e-18
-1.39906e-21
0.000189785
-2.84407e-18
-1.1856e-20
-1.51813e-18
-1.91045e-21
0.000193917
-2.81817e-18
-1.23754e-20
-1.54078e-18
-2.44177e-21
0.000198135
-2.78237e-18
-1.26959e-20
-1.56878e-18
-3.00095e-21
0.000202442
-2.74758e-18
-1.30544e-20
-1.59332e-18
-3.44084e-21
0.000206838
-2.68966e-18
-1.33966e-20
-1.57149e-18
-3.81582e-21
0.000211327
-2.66807e-18
-1.39183e-20
-1.5922e-18
-4.31705e-21
0.000215909
-2.60571e-18
-1.42683e-20
-1.5891e-18
-4.78675e-21
0.000220587
-2.58684e-18
-1.49165e-20
-1.58351e-18
-5.43818e-21
0.000225362
-2.52037e-18
-1.5667e-20
-1.58818e-18
-6.15767e-21
0.000230237
-2.49928e-18
-1.65189e-20
-1.57814e-18
-7.03812e-21
0.000235214
-2.46993e-18
-1.70309e-20
-1.56672e-18
-8.19041e-21
0.000240294
-2.4604e-18
-1.72121e-20
-1.57982e-18
-9.5435e-21
0.00024548
-2.38552e-18
-1.68353e-20
-1.62913e-18
-1.12517e-20
0.000250773
-2.30537e-18
-1.61892e-20
-1.64227e-18
-1.18678e-20
0.000256177
-2.28038e-18
-1.6525e-20
-1.70971e-18
-1.22625e-20
0.000261693
-2.24461e-18
-1.69682e-20
-1.77015e-18
-1.23561e-20
0.000267324
-2.21169e-18
-1.73552e-20
-1.76721e-18
-1.22363e-20
0.000273071
-2.17243e-18
-1.72977e-20
-1.81315e-18
-1.31391e-20
0.000278937
-2.17048e-18
-1.67173e-20
-1.87508e-18
-1.41168e-20
0.000284925
-2.09777e-18
-1.6944e-20
-1.83138e-18
-1.41573e-20
0.000291036
-2.09699e-18
-1.71105e-20
-1.86146e-18
-1.51713e-20
0.000297274
-2.04582e-18
-1.68785e-20
-1.84894e-18
-1.59235e-20
0.00030364
-2.01739e-18
-1.77014e-20
-1.84124e-18
-1.71592e-20
0.000310138
-2.01071e-18
-1.9213e-20
-1.84265e-18
-1.73894e-20
0.000316769
-1.98078e-18
-2.07098e-20
-1.84857e-18
-1.78516e-20
0.000323538
-1.96571e-18
-2.19077e-20
-1.87108e-18
-1.83731e-20
0.000330445
-1.93522e-18
-2.32061e-20
-1.8963e-18
-1.9423e-20
0.000337494
-1.97713e-18
-2.3598e-20
-1.86491e-18
-2.02147e-20
0.000344688
-1.96152e-18
-2.30741e-20
-1.88164e-18
-2.13646e-20
0.000352029
-1.92951e-18
-2.28037e-20
-1.85885e-18
-2.11357e-20
0.00035952
-1.86458e-18
-2.31336e-20
-1.86891e-18
-2.16382e-20
0.000367164
-1.82781e-18
-2.2902e-20
-1.84553e-18
-2.1183e-20
0.000374964
-1.81055e-18
-2.36814e-20
-1.76105e-18
-2.12666e-20
0.000382923
-1.7724e-18
-2.40793e-20
-1.74254e-18
-2.13201e-20
0.000391045
-1.72843e-18
-2.25708e-20
-1.66699e-18
-1.99408e-20
0.000399331
-1.66569e-18
-2.00299e-20
-1.65218e-18
-2.00407e-20
0.000407785
-1.60568e-18
-1.87989e-20
-1.51073e-18
-2.00374e-20
0.00041641
-1.56794e-18
-1.87754e-20
-1.50224e-18
-1.95603e-20
0.00042521
-1.52372e-18
-1.79382e-20
-1.43539e-18
-1.83584e-20
0.000434187
-1.4588e-18
-1.82901e-20
-1.40365e-18
-1.80824e-20
0.000443345
-1.44779e-18
-2.09773e-20
-1.41089e-18
-1.94249e-20
0.000452687
-1.30229e-18
-2.01462e-20
-1.35444e-18
-2.04549e-20
0.000462216
-1.27241e-18
-2.33399e-20
-1.32385e-18
-2.13115e-20
0.000471936
-1.25181e-18
-2.62956e-20
-1.28212e-18
-2.01153e-20
0.00048185
-1.19222e-18
-2.9816e-20
-1.26804e-18
-1.71735e-20
0.000491961
-1.30582e-18
-3.35171e-20
-1.31493e-18
-1.57968e-20
0.000502273
-1.29718e-18
-3.60769e-20
-1.21841e-18
-1.29639e-20
0.000512789
-1.30038e-18
-3.63114e-20
-1.25982e-18
-1.60514e-20
0.000523513
-1.39427e-18
-3.54244e-20
-1.3498e-18
-1.64997e-20
0.000534448
-1.27245e-18
-3.22246e-20
-1.20856e-18
-1.14902e-20
0.000545597
-1.28242e-18
-3.54467e-20
-1.25426e-18
-1.4848e-20
0.000556964
-1.28781e-18
-3.90421e-20
-1.26235e-18
-2.1272e-20
0.000568552
-1.37055e-18
-4.45853e-20
-1.30259e-18
-3.04784e-20
0.000580366
-1.20308e-18
-4.024e-20
-1.37428e-18
-3.53169e-20
0.000592407
-1.2605e-18
-4.46376e-20
-1.26912e-18
-3.81805e-20
0.00060468
-1.32629e-18
-4.57248e-20
-1.3089e-18
-3.78501e-20
0.000617188
-1.35147e-18
-4.56293e-20
-1.16633e-18
-3.3179e-20
0.000629934
-1.37519e-18
-4.52864e-20
-1.20923e-18
-3.68279e-20
0.000642921
-1.1997e-18
-4.47921e-20
-1.29703e-18
-3.78016e-20
0.000656152
-1.22678e-18
-5.66318e-20
-1.25869e-18
-3.85969e-20
0.000669631
-1.16378e-18
-5.93202e-20
-1.25027e-18
-3.59594e-20
0.00068336
-1.24581e-18
-7.05399e-20
-1.29829e-18
-2.64114e-20
0.000697342
-1.19574e-18
-6.34962e-20
-1.2927e-18
-1.15586e-20
0.000711579
-1.06924e-18
-5.22836e-20
-1.17173e-18
-2.48533e-21
0.000726074
-9.99115e-19
-4.98691e-20
-1.20114e-18
1.02144e-21
0.000740829
-1.15894e-18
-5.39957e-20
-1.06834e-18
5.11292e-22
0.000755846
-1.17281e-18
-5.26217e-20
-1.16983e-18
-1.14686e-20
0.000771126
-1.1178e-18
-3.84602e-20
-1.21179e-18
-1.46209e-20
0.000786671
-1.24705e-18
-3.50189e-20
-1.24048e-18
-2.62766e-20
0.000802481
-1.18727e-18
-2.20757e-20
-1.28742e-18
-2.61871e-20
0.000818557
-1.11524e-18
-4.47169e-21
-1.21337e-18
-1.60868e-20
0.000834898
-1.21721e-18
-7.88048e-21
-1.08937e-18
-5.21143e-21
0.000851505
-1.22082e-18
-2.79854e-20
-1.13399e-18
-3.15769e-21
0.000868374
-1.23978e-18
-2.80906e-20
-1.01457e-18
-1.05443e-20
0.000885505
-1.23448e-18
-2.08541e-20
-1.05504e-18
-2.15363e-20
0.000902895
-1.03405e-18
-6.89623e-21
-1.0059e-18
-2.66207e-20
0.00092054
-9.9623e-19
-1.16078e-20
-9.67104e-19
-2.31843e-20
0.000938435
-9.2801e-19
-9.26548e-21
-9.38557e-19
-2.23997e-20
0.000956576
-8.1821e-19
-7.07723e-21
-1.0374e-18
-1.70765e-20
0.000974955
-1.05162e-18
-2.52955e-20
-8.81667e-19
7.22061e-22
0.000993566
-8.85113e-19
-2.73423e-21
-1.04353e-18
-2.24031e-21
0.0010124
-9.56418e-19
7.27314e-22
-8.66073e-19
2.27784e-20
0.00103145
2.83226e-20
-7.97358e-19
2.03424e-20
-9.18481e-19
3.0002e-08
-2.87619e-22
-5.67382e-23
9.2245e-08
-1.92676e-21
-7.06989e-22
1.57962e-07
-3.64342e-21
-1.37491e-21
2.27305e-07
-5.4147e-21
-2.0653e-21
3.0043e-07
-7.31646e-21
-2.74698e-21
3.77501e-07
-9.14435e-21
-3.47445e-21
4.58689e-07
-1.09682e-20
-4.32889e-21
5.44169e-07
-1.2802e-20
-5.33563e-21
6.34126e-07
-1.4562e-20
-6.35212e-21
7.28749e-07
-1.65407e-20
-7.2904e-21
8.28236e-07
-1.85519e-20
-8.36936e-21
9.32791e-07
-2.06522e-20
-9.55206e-21
1.04262e-06
-2.31668e-20
-1.06259e-20
1.15795e-06
-2.55447e-20
-1.15455e-20
1.279e-06
-2.76109e-20
-1.28396e-20
1.40599e-06
-2.97624e-20
-1.43311e-20
1.53916e-06
-3.21682e-20
-1.57811e-20
1.67874e-06
-3.45529e-20
-1.74571e-20
1.82496e-06
-3.69022e-20
-1.93149e-20
1.97807e-06
-3.98675e-20
-2.02446e-20
2.13828e-06
-4.26808e-20
-2.10111e-20
2.30581e-06
-4.56121e-20
-2.20309e-20
2.48087e-06
-4.86545e-20
-2.3714e-20
2.66366e-06
-5.16636e-20
-2.53678e-20
2.85434e-06
-5.47947e-20
-2.72736e-20
3.05305e-06
-5.82152e-20
-2.94863e-20
3.25992e-06
-6.10626e-20
-3.09187e-20
3.47502e-06
-6.46644e-20
-3.31609e-20
3.69839e-06
-6.78869e-20
-3.48958e-20
3.93004e-06
-7.16783e-20
-3.74513e-20
4.16992e-06
-7.53266e-20
-3.95736e-20
4.41798e-06
-7.88915e-20
-4.17709e-20
4.67409e-06
-8.26903e-20
-4.41977e-20
4.93811e-06
-8.6473e-20
-4.73211e-20
5.20989e-06
-9.04038e-20
-5.00501e-20
5.48923e-06
-9.36588e-20
-5.23786e-20
5.77595e-06
-9.73593e-20
-5.4407e-20
6.06986e-06
-1.01312e-19
-5.72076e-20
6.37075e-06
-1.04799e-19
-5.95235e-20
6.67847e-06
-1.08703e-19
-6.08692e-20
6.99284e-06
-1.11691e-19
-6.37965e-20
7.31374e-06
-1.1526e-19
-6.6499e-20
7.64104e-06
-1.18863e-19
-7.00805e-20
7.97467e-06
-1.23682e-19
-7.24634e-20
8.31457e-06
-1.2753e-19
-7.64712e-20
8.66069e-06
-1.32082e-19
-7.86514e-20
9.01305e-06
-1.3502e-19
-8.09862e-20
9.37166e-06
-1.37088e-19
-8.61728e-20
9.73656e-06
-1.41502e-19
-8.90649e-20
1.01078e-05
-1.45132e-19
-8.98656e-20
1.04855e-05
-1.48793e-19
-9.33408e-20
1.08698e-05
-1.5075e-19
-9.76172e-20
1.12607e-05
-1.5471e-19
-9.81413e-20
1.16585e-05
-1.56393e-19
-1.00902e-19
1.20631e-05
-1.59045e-19
-1.03393e-19
1.2475e-05
-1.61831e-19
-1.03814e-19
1.2894e-05
-1.63103e-19
-1.06538e-19
1.33206e-05
-1.66312e-19
-1.0783e-19
1.37548e-05
-1.7296e-19
-1.08471e-19
1.41968e-05
-1.76028e-19
-1.12002e-19
1.46469e-05
-1.77263e-19
-1.14592e-19
1.51053e-05
-1.79389e-19
-1.17824e-19
1.55721e-05
-1.86953e-19
-1.19321e-19
1.60476e-05
-1.8875e-19
-1.20478e-19
1.6532e-05
-1.90352e-19
-1.22415e-19
1.70256e-05
-1.92175e-19
-1.22559e-19
1.75285e-05
-1.94865e-19
-1.26349e-19
1.80411e-05
-1.96235e-19
-1.27254e-19
1.85636e-05
-2.00135e-19
-1.31567e-19
1.90961e-05
-2.00388e-19
-1.34276e-19
1.96391e-05
-2.02525e-19
-1.39495e-19
2.01926e-05
-2.07362e-19
-1.39544e-19
2.07571e-05
-2.08224e-19
-1.39016e-19
2.13327e-05
-2.17697e-19
-1.42747e-19
2.19197e-05
-2.17473e-19
-1.45427e-19
2.25185e-05
-2.16343e-19
-1.45682e-19
2.31292e-05
-2.12359e-19
-1.48489e-19
2.37522e-05
-2.18442e-19
-1.49356e-19
2.43878e-05
-2.19925e-19
-1.51126e-19
2.50363e-05
-2.20178e-19
-1.53362e-19
2.56979e-05
-2.19744e-19
-1.53587e-19
2.6373e-05
-2.19304e-19
-1.52789e-19
2.70619e-05
-2.19072e-19
-1.52214e-19
2.77649e-05
-2.20687e-19
-1.53052e-19
2.84823e-05
-2.12492e-19
-1.63615e-19
2.92145e-05
-2.12843e-19
-1.63528e-19
2.99618e-05
-2.07247e-19
-1.63482e-19
3.07245e-05
-1.97914e-19
-1.69476e-19
3.15031e-05
-2.01819e-19
-1.69445e-19
3.22978e-05
-2.03747e-19
-1.70179e-19
3.3109e-05
-1.99589e-19
-1.67045e-19
3.3937e-05
-2.0197e-19
-1.69045e-19
3.47824e-05
-2.04828e-19
-1.65143e-19
3.56454e-05
-2.08454e-19
-1.56248e-19
3.65264e-05
-2.13699e-19
-1.53905e-19
3.74258e-05
-2.08586e-19
-1.479e-19
3.83441e-05
-2.02053e-19
-1.43403e-19
3.92817e-05
-2.01251e-19
-1.44467e-19
4.02389e-05
-1.99596e-19
-1.46883e-19
4.12162e-05
-2.04353e-19
-1.43707e-19
4.22141e-05
-2.11607e-19
-1.43591e-19
4.3233e-05
-2.04081e-19
-1.49524e-19
4.42733e-05
-2.06198e-19
-1.46306e-19
4.53356e-05
-2.01551e-19
-1.4223e-19
4.64202e-05
-2.10181e-19
-1.44271e-19
4.75277e-05
-2.09232e-19
-1.392e-19
4.86587e-05
-2.06777e-19
-1.42792e-19
4.98134e-05
-2.0228e-19
-1.3122e-19
5.09926e-05
-2.03404e-19
-1.26473e-19
5.21967e-05
-2.13878e-19
-1.21657e-19
5.34263e-05
-2.03767e-19
-1.12775e-19
5.46819e-05
-2.0637e-19
-1.03099e-19
5.5964e-05
-1.8697e-19
-1.02288e-19
5.72733e-05
-1.86688e-19
-1.05057e-19
5.86103e-05
-1.88117e-19
-9.71925e-20
5.99756e-05
-1.75409e-19
-9.83751e-20
6.13698e-05
-1.75754e-19
-8.21531e-20
6.27935e-05
-1.80982e-19
-7.59483e-20
6.42474e-05
-1.70862e-19
-7.95798e-20
6.5732e-05
-1.63873e-19
-7.37804e-20
6.72482e-05
-1.51733e-19
-7.84885e-20
6.87964e-05
-1.46921e-19
-6.71065e-20
7.03775e-05
-1.38964e-19
-4.95508e-20
7.1992e-05
-1.48655e-19
-2.91127e-20
7.36408e-05
-1.45e-19
-1.56396e-20
7.53245e-05
-1.40464e-19
-2.77547e-20
7.70438e-05
-1.2814e-19
-3.74823e-20
7.87996e-05
-1.19852e-19
-3.07446e-20
8.05926e-05
-1.1425e-19
-1.81444e-20
8.24236e-05
-1.26265e-19
9.98363e-21
8.42933e-05
-1.21445e-19
1.87834e-20
8.62027e-05
-1.23199e-19
2.17747e-20
8.81524e-05
-1.26571e-19
2.1963e-20
9.01435e-05
-1.29764e-19
2.81732e-20
9.21767e-05
-1.38735e-19
2.55699e-20
9.4253e-05
-1.60125e-19
1.79758e-20
9.63732e-05
-1.48146e-19
2.35871e-20
9.85382e-05
-1.37486e-19
2.19767e-20
0.000100749
-1.58082e-19
2.82746e-20
0.000103007
-1.64823e-19
2.65629e-20
0.000105312
-1.60328e-19
1.96131e-20
0.000107666
-1.77509e-19
2.59257e-20
0.00011007
-1.56022e-19
2.91696e-20
0.000112525
-1.48114e-19
3.16655e-20
0.000115031
-1.51012e-19
4.00685e-20
0.000117591
-1.37384e-19
3.24865e-20
0.000120204
-1.30487e-19
1.08334e-20
0.000122873
-1.36739e-19
1.83537e-20
0.000125598
-1.49809e-19
1.94918e-20
0.000128381
-1.75077e-19
2.47172e-20
0.000131222
-1.86424e-19
4.48339e-20
0.000134123
-1.92221e-19
3.27379e-20
0.000137086
-1.698e-19
2.2541e-20
0.00014011
-1.65239e-19
2.6335e-20
0.000143199
-1.63527e-19
2.28171e-20
0.000146352
-1.6493e-19
2.83176e-20
0.000149572
-1.71175e-19
1.9189e-20
0.00015286
-1.58305e-19
1.09865e-20
0.000156217
-1.64308e-19
1.52025e-20
0.000159644
-1.97159e-19
3.64036e-20
0.000163144
-1.73449e-19
4.30823e-20
0.000166716
-1.62016e-19
4.99249e-20
0.000170365
-1.38111e-19
1.99777e-20
0.000174089
-1.25737e-19
1.1482e-20
0.000177892
-1.42221e-19
2.03403e-20
0.000181774
-1.44745e-19
-1.04822e-20
0.000185738
-1.55093e-19
-2.11041e-20
0.000189785
-1.47836e-19
-3.35006e-20
0.000193917
-1.32961e-19
-3.6744e-20
0.000198135
-1.43854e-19
-4.08475e-20
0.000202442
-1.49512e-19
-6.0173e-20
0.000206838
-1.50797e-19
-2.82166e-20
0.000211327
-1.27617e-19
-2.21803e-20
0.000215909
-1.33926e-19
-3.27353e-20
0.000220587
-1.79493e-19
-3.55154e-20
0.000225362
-1.79696e-19
-6.05384e-20
0.000230237
-1.8121e-19
-8.37282e-20
0.000235214
-1.71051e-19
-9.45637e-20
0.000240294
-1.70916e-19
-1.28338e-19
0.00024548
-1.46339e-19
-5.21859e-20
0.000250773
-2.02165e-19
-3.73641e-21
0.000256177
-2.07037e-19
-2.50691e-20
0.000261693
-1.87106e-19
-4.74661e-20
0.000267324
-1.42693e-19
-6.96987e-20
0.000273071
-7.87264e-20
-1.13002e-19
0.000278937
-1.53782e-19
-1.31397e-19
0.000284925
-1.09585e-19
-1.39687e-19
0.000291036
-1.16909e-19
-1.1889e-19
0.000297274
-1.68283e-19
-1.63581e-19
0.00030364
-2.16174e-19
-1.3958e-19
0.000310138
-2.37765e-19
-2.03854e-19
0.000316769
-2.27989e-19
-2.40627e-19
0.000323538
-2.69699e-19
-2.85211e-19
0.000330445
-2.42617e-19
-2.77915e-19
0.000337494
-2.84602e-19
-2.75043e-19
0.000344688
-2.90712e-19
-2.56712e-19
0.000352029
-2.86577e-19
-2.81458e-19
0.00035952
-2.18385e-19
-2.23384e-19
0.000367164
-2.53538e-19
-2.37398e-19
0.000374964
-2.6592e-19
-2.37291e-19
0.000382923
-2.44845e-19
-2.55227e-19
0.000391045
-2.58017e-19
-2.7545e-19
0.000399331
-3.05407e-19
-3.00443e-19
0.000407785
-3.29269e-19
-2.16738e-19
0.00041641
-3.03135e-19
-2.45831e-19
0.00042521
-3.44778e-19
-2.24989e-19
0.000434187
-3.87971e-19
-2.48641e-19
0.000443345
-2.62761e-19
-2.91671e-19
0.000452687
-2.69608e-19
-2.98446e-19
0.000462216
-2.78478e-19
-2.89143e-19
0.000471936
-3.23647e-19
-2.58322e-19
0.00048185
-3.48556e-19
-3.08476e-19
0.000491961
-5.2792e-19
-3.2867e-19
0.000502273
-4.99408e-19
-4.02744e-19
0.000512789
-4.67791e-19
-4.13572e-19
0.000523513
-4.83483e-19
-4.477e-19
0.000534448
-4.79104e-19
-4.94567e-19
0.000545597
-4.25592e-19
-5.29356e-19
0.000556964
-4.37931e-19
-5.48394e-19
0.000568552
-3.67028e-19
-4.39369e-19
0.000580366
-4.74962e-19
-5.0715e-19
0.000592407
-5.07921e-19
-4.72378e-19
0.00060468
-5.51027e-19
-4.85484e-19
0.000617188
-5.5671e-19
-4.99052e-19
0.000629934
-5.99391e-19
-5.05907e-19
0.000642921
-6.85541e-19
-5.78337e-19
0.000656152
-5.77178e-19
-5.59598e-19
0.000669631
-6.51082e-19
-5.09095e-19
0.00068336
-4.53617e-19
-3.77124e-19
0.000697342
-3.7256e-19
-4.44569e-19
0.000711579
-3.92678e-19
-4.4637e-19
0.000726074
-3.71591e-19
-4.86663e-19
0.000740829
-4.52358e-19
-4.97254e-19
0.000755846
-3.06384e-19
-4.64613e-19
0.000771126
-3.06089e-19
-5.36346e-19
0.000786671
-3.13324e-19
-4.09611e-19
0.000802481
-2.61263e-19
-4.38591e-19
0.000818557
-4.12587e-19
-4.10751e-19
0.000834898
-7.04472e-19
-3.35791e-19
0.000851505
-5.69871e-19
-5.20199e-19
0.000868374
-5.95696e-19
-6.09368e-19
0.000885505
-5.87382e-19
-6.73523e-19
0.000902895
-6.21993e-19
-5.51261e-19
0.00092054
-6.20259e-19
-6.51497e-19
0.000938435
-6.00465e-19
-6.46368e-19
0.000956576
-6.29413e-19
-5.5864e-19
0.000974955
-5.27942e-19
-5.62076e-19
0.000993566
-5.34857e-19
-5.39525e-19
0.0010124
-4.37443e-19
-5.23279e-19
0.00103145
-6.18828e-19
-6.18977e-19
0.00103145
-9.41424e-19
9.39397e-21
-7.76716e-19
1.15239e-20
0.0010124
-8.14238e-19
-1.54632e-21
-6.71091e-19
1.48008e-20
0.000993566
-6.4333e-19
1.13158e-20
-6.59815e-19
9.15808e-21
0.000974955
-6.36167e-19
-4.42914e-23
-6.55884e-19
5.6306e-21
0.000956576
-6.63501e-19
4.71885e-21
-6.19998e-19
3.74434e-21
0.000938435
-6.83785e-19
3.01587e-21
-6.922e-19
3.85425e-21
0.00092054
-8.13855e-19
-1.6454e-21
-7.2102e-19
3.78854e-21
0.000902895
-6.78015e-19
1.3136e-20
-7.80523e-19
5.66507e-21
0.000885505
-6.93908e-19
6.70912e-21
-8.5292e-19
7.0192e-21
0.000868374
-8.00518e-19
-1.49578e-20
-7.20134e-19
2.0302e-20
0.000851505
-6.91926e-19
-1.78006e-20
-8.10673e-19
1.8456e-20
0.000834898
-8.66822e-19
-2.52901e-20
-5.93579e-19
2.37106e-20
0.000818557
-8.19045e-19
-1.85795e-20
-6.2054e-19
1.46653e-20
0.000802481
-8.20268e-19
-1.47049e-20
-6.72e-19
1.43889e-20
0.000786671
-6.0867e-19
-2.36197e-21
-5.9778e-19
7.07585e-21
0.000771126
-6.60638e-19
1.22241e-21
-5.72649e-19
-3.03646e-21
0.000755846
-4.56258e-19
6.99047e-21
-5.9325e-19
-7.72384e-21
0.000740829
-4.3087e-19
-3.26168e-22
-4.95567e-19
4.8345e-22
0.000726074
-4.27658e-19
-7.23074e-21
-5.32261e-19
1.35548e-20
0.000711579
-4.95094e-19
1.68241e-21
-5.18587e-19
1.77697e-20
0.000697342
-5.53382e-19
8.7284e-21
-4.90825e-19
1.474e-20
0.00068336
-5.25131e-19
1.35125e-20
-4.89782e-19
9.76502e-21
0.000669631
-3.92049e-19
1.54015e-20
-4.85823e-19
3.92242e-21
0.000656152
-3.32518e-19
1.5831e-20
-3.4432e-19
7.13012e-21
0.000642921
-3.39345e-19
9.21235e-21
-3.89528e-19
4.41835e-21
0.000629934
-3.98738e-19
2.26081e-21
-3.30511e-19
3.63113e-21
0.000617188
-3.69327e-19
-1.02072e-22
-4.29624e-19
-2.23797e-21
0.00060468
-4.28585e-19
-2.07787e-21
-4.52433e-19
-4.27299e-21
0.000592407
-4.87634e-19
-7.33124e-22
-4.79946e-19
-8.34936e-21
0.000580366
-4.68092e-19
2.67227e-21
-4.54706e-19
-1.20725e-20
0.000568552
-4.3987e-19
-1.89565e-21
-4.38422e-19
-1.15608e-20
0.000556964
-4.13854e-19
-2.6026e-22
-4.45103e-19
-1.24437e-20
0.000545597
-3.84005e-19
-2.2872e-21
-4.55495e-19
-1.07669e-20
0.000534448
-3.88949e-19
-1.02122e-20
-4.50735e-19
-7.69558e-21
0.000523513
-4.13512e-19
-7.97661e-21
-3.71741e-19
-6.51406e-21
0.000512789
-3.81361e-19
-5.3895e-21
-4.67453e-19
-8.22732e-21
0.000502273
-3.54352e-19
-6.69688e-21
-3.05419e-19
-3.94659e-21
0.000491961
-4.7315e-19
-6.29042e-21
-3.23062e-19
-4.21652e-21
0.00048185
-4.64926e-19
-3.92327e-21
-3.64264e-19
-2.06023e-21
0.000471936
-4.4942e-19
-7.03351e-22
-3.16185e-19
2.72692e-22
0.000462216
-3.58053e-19
2.16897e-21
-4.13315e-19
-1.54353e-21
0.000452687
-3.70919e-19
7.83065e-22
-4.3585e-19
-1.42145e-21
0.000443345
-3.53293e-19
3.00479e-22
-4.16633e-19
-8.89398e-22
0.000434187
-3.52404e-19
5.41124e-22
-4.30257e-19
-1.11631e-21
0.00042521
-3.21237e-19
1.4632e-21
-3.09783e-19
5.64243e-22
0.00041641
-3.20521e-19
1.31379e-21
-3.41235e-19
-1.68739e-21
0.000407785
-2.64219e-19
4.42684e-22
-3.00032e-19
-2.51405e-21
0.000399331
-2.89585e-19
-4.60732e-22
-3.23467e-19
-1.5838e-21
0.000391045
-2.75515e-19
-1.34971e-22
-3.48584e-19
-1.09769e-21
0.000382923
-2.74896e-19
-7.64544e-22
-3.17118e-19
1.0857e-22
0.000374964
-2.86131e-19
9.96838e-23
-2.46109e-19
3.36578e-21
0.000367164
-2.45718e-19
2.22895e-21
-2.12924e-19
3.27806e-21
0.00035952
-2.54299e-19
2.07697e-21
-1.94743e-19
3.36536e-21
0.000352029
-2.35846e-19
2.90336e-21
-1.77432e-19
2.26377e-21
0.000344688
-1.80282e-19
2.99096e-21
-2.29414e-19
-1.31413e-21
0.000337494
-2.09164e-19
2.35944e-21
-2.01866e-19
-3.07979e-21
0.000330445
-1.31979e-19
2.88146e-21
-1.66021e-19
-4.44308e-21
0.000323538
-1.59815e-19
1.80893e-21
-6.21917e-20
-4.019e-21
0.000316769
-1.52008e-19
9.71248e-22
-8.42784e-20
-3.76267e-21
0.000310138
-1.23552e-19
3.70383e-22
-1.35951e-19
-3.19702e-21
0.00030364
-1.30383e-19
-6.94041e-23
-1.61982e-19
-2.62833e-21
0.000297274
-1.68258e-19
6.08177e-23
-1.54353e-19
-1.54776e-21
0.000291036
-1.19002e-19
5.26892e-22
-1.59839e-19
-6.32108e-22
0.000284925