/*--------------------------------*- C++ -*----------------------------------*\
| =========                 |                                                 |
| \\      /  F ield         | OpenFOAM: The Open Source CFD Toolbox           |
|  \\    /   O peration     | Version:  2106                                  |
|   \\  /    A nd           | Website:  www.openfoam.com                      |
|    \\/     M anipulation  |                                                 |
\*---------------------------------------------------------------------------*/
FoamFile
{
    version     2.0;
    format      ascii;
    arch        "LSB;label=32;scalar=64";
    class       volSymmTensorField;
    location    "10090";
    object      turbulenceProperties:R;
}
// * * * * * * * * * * * * * * * * * * * * * * * * * * * * * * * * * * * * * //

dimensions      [0 2 -2 0 0 0 0];

internalField   nonuniform List<symmTensor> 
2000
(
(2.28114e-07 -1.50954e-11 -2.79387e-14 2.28114e-07 1.34517e-25 2.28114e-07)
(2.28114e-07 -1.50954e-11 -2.79387e-14 2.28114e-07 7.87484e-26 2.28114e-07)
(3.94928e-08 -1.50549e-11 -8.41164e-14 3.94928e-08 3.37701e-26 3.94928e-08)
(3.94928e-08 -1.50549e-11 -8.41164e-14 3.94928e-08 8.18224e-26 3.94928e-08)
(5.41072e-08 -6.10698e-11 -4.73439e-13 5.41072e-08 1.01543e-25 5.41072e-08)
(5.41072e-08 -6.10698e-11 -4.73439e-13 5.41072e-08 2.61942e-26 5.41072e-08)
(1.68252e-07 -4.04346e-10 -3.19317e-12 1.68252e-07 4.49976e-25 1.68252e-07)
(1.68252e-07 -4.04346e-10 -3.19317e-12 1.68252e-07 1.77048e-25 1.68252e-07)
(4.34915e-07 -1.8517e-09 -1.48961e-11 4.34915e-07 2.17142e-24 4.34915e-07)
(4.34915e-07 -1.8517e-09 -1.48961e-11 4.34915e-07 8.27594e-25 4.34915e-07)
(9.34189e-07 -6.28872e-09 -5.1534e-11 9.34189e-07 7.43734e-24 9.34189e-07)
(9.34189e-07 -6.28872e-09 -5.1534e-11 9.34189e-07 2.8689e-24 9.34189e-07)
(1.76357e-06 -1.73922e-08 -1.45184e-10 1.76357e-06 2.10395e-23 1.76357e-06)
(1.76357e-06 -1.73922e-08 -1.45184e-10 1.76357e-06 8.09994e-24 1.76357e-06)
(3.03719e-06 -4.15602e-08 -3.53402e-10 3.03719e-06 5.15866e-23 3.03719e-06)
(3.03719e-06 -4.15602e-08 -3.53402e-10 3.03719e-06 1.97549e-23 3.03719e-06)
(4.88642e-06 -8.9093e-08 -7.71729e-10 4.88642e-06 1.1316e-22 4.88642e-06)
(4.88642e-06 -8.9093e-08 -7.71729e-10 4.88642e-06 4.32049e-23 4.88642e-06)
(7.46091e-06 -1.75663e-07 -1.54999e-09 7.46091e-06 2.2818e-22 7.46091e-06)
(7.46091e-06 -1.75663e-07 -1.54999e-09 7.46091e-06 8.69192e-23 7.46091e-06)
(1.09298e-05 -3.24113e-07 -2.9132e-09 1.09298e-05 4.30516e-22 1.09298e-05)
(1.09298e-05 -3.24113e-07 -2.9132e-09 1.09298e-05 1.6365e-22 1.09298e-05)
(1.54829e-05 -5.66605e-07 -5.18773e-09 1.54829e-05 7.69397e-22 1.54829e-05)
(1.54829e-05 -5.66605e-07 -5.18773e-09 1.54829e-05 2.91752e-22 1.54829e-05)
(2.1332e-05 -9.47166e-07 -8.83369e-09 2.1332e-05 1.31422e-21 2.1332e-05)
(2.1332e-05 -9.47166e-07 -8.83369e-09 2.1332e-05 4.97033e-22 2.1332e-05)
(2.8712e-05 -1.52461e-06 -1.4484e-08 2.8712e-05 2.16004e-21 2.8712e-05)
(2.8712e-05 -1.52461e-06 -1.4484e-08 2.8712e-05 8.14924e-22 2.8712e-05)
(3.78819e-05 -2.37586e-06 -2.2991e-08 3.78819e-05 3.43432e-21 3.78819e-05)
(3.78819e-05 -2.37586e-06 -2.2991e-08 3.78819e-05 1.29226e-21 3.78819e-05)
(4.91252e-05 -3.59953e-06 -3.54799e-08 4.91252e-05 5.30344e-21 4.91252e-05)
(4.91252e-05 -3.59953e-06 -3.54799e-08 4.91252e-05 1.9907e-21 4.91252e-05)
(6.27509e-05 -5.31977e-06 -5.34096e-08 6.27509e-05 7.97974e-21 6.27509e-05)
(6.27509e-05 -5.31977e-06 -5.34096e-08 6.27509e-05 2.98935e-21 6.27509e-05)
(7.90922e-05 -7.69014e-06 -7.86388e-08 7.90922e-05 1.17288e-20 7.90922e-05)
(7.90922e-05 -7.69014e-06 -7.86388e-08 7.90922e-05 4.38099e-21 7.90922e-05)
(9.8506e-05 -1.08971e-05 -1.13495e-07 9.8506e-05 1.68699e-20 9.8506e-05)
(9.8506e-05 -1.08971e-05 -1.13495e-07 9.8506e-05 6.2822e-21 9.8506e-05)
(0.000121371 -1.51631e-05 -1.60841e-07 0.000121371 2.37805e-20 0.000121371)
(0.000121371 -1.51631e-05 -1.60841e-07 0.000121371 8.83447e-21 0.000121371)
(0.000148082 -2.07485e-05 -2.24137e-07 0.000148082 3.28855e-20 0.000148082)
(0.000148082 -2.07485e-05 -2.24137e-07 0.000148082 1.21754e-20 0.000148082)
(0.00017905 -2.79513e-05 -3.07488e-07 0.00017905 4.46372e-20 0.00017905)
(0.00017905 -2.79513e-05 -3.07488e-07 0.00017905 1.64546e-20 0.00017905)
(0.000214688 -3.71059e-05 -4.1566e-07 0.000214688 5.95155e-20 0.000214688)
(0.000214688 -3.71059e-05 -4.1566e-07 0.000214688 2.1846e-20 0.000214688)
(0.000255408 -4.85772e-05 -5.54074e-07 0.000255408 7.79636e-20 0.000255408)
(0.000255408 -4.85772e-05 -5.54074e-07 0.000255408 2.8478e-20 0.000255408)
(0.00030161 -6.2753e-05 -7.28748e-07 0.00030161 1.00345e-19 0.00030161)
(0.00030161 -6.2753e-05 -7.28748e-07 0.00030161 3.64645e-20 0.00030161)
(0.000353665 -8.0031e-05 -9.46181e-07 0.000353665 1.26909e-19 0.000353665)
(0.000353665 -8.0031e-05 -9.46181e-07 0.000353665 4.58351e-20 0.000353665)
(0.000411904 -0.000100804 -1.21319e-06 0.000411904 1.57687e-19 0.000411904)
(0.000411904 -0.000100804 -1.21319e-06 0.000411904 5.65027e-20 0.000411904)
(0.000476604 -0.000125438 -1.5367e-06 0.000476604 1.92457e-19 0.000476604)
(0.000476604 -0.000125438 -1.5367e-06 0.000476604 6.83742e-20 0.000476604)
(0.000547967 -0.000154256 -1.92341e-06 0.000547967 2.30744e-19 0.000547967)
(0.000547967 -0.000154256 -1.92341e-06 0.000547967 8.122e-20 0.000547967)
(0.00062611 -0.000187511 -2.37958e-06 0.00062611 2.71718e-19 0.00062611)
(0.00062611 -0.000187511 -2.37958e-06 0.00062611 9.45824e-20 0.00062611)
(0.00071105 -0.000225368 -2.91061e-06 0.00071105 3.14191e-19 0.00071105)
(0.00071105 -0.000225368 -2.91061e-06 0.00071105 1.0804e-19 0.00071105)
(0.000802695 -0.000267888 -3.52083e-06 0.000802695 3.56719e-19 0.000802695)
(0.000802695 -0.000267888 -3.52083e-06 0.000802695 1.21036e-19 0.000802695)
(0.000900838 -0.000315017 -4.21319e-06 0.000900838 3.97818e-19 0.000900838)
(0.000900838 -0.000315017 -4.21319e-06 0.000900838 1.32899e-19 0.000900838)
(0.00100516 -0.000366578 -4.98914e-06 0.00100516 4.35963e-19 0.00100516)
(0.00100516 -0.000366578 -4.98914e-06 0.00100516 1.43357e-19 0.00100516)
(0.00111521 -0.000422282 -5.84851e-06 0.00111521 4.69727e-19 0.00111521)
(0.00111521 -0.000422282 -5.84851e-06 0.00111521 1.51306e-19 0.00111521)
(0.00123048 -0.000481734 -6.78958e-06 0.00123048 4.97859e-19 0.00123048)
(0.00123048 -0.000481734 -6.78958e-06 0.00123048 1.56462e-19 0.00123048)
(0.00135035 -0.000544452 -7.80919e-06 0.00135035 5.19624e-19 0.00135035)
(0.00135035 -0.000544452 -7.80919e-06 0.00135035 1.59398e-19 0.00135035)
(0.00147412 -0.000609893 -8.90292e-06 0.00147412 5.35133e-19 0.00147412)
(0.00147412 -0.000609893 -8.90292e-06 0.00147412 1.58618e-19 0.00147412)
(0.00160107 -0.000677474 -1.00654e-05 0.00160107 5.44114e-19 0.00160107)
(0.00160107 -0.000677474 -1.00654e-05 0.00160107 1.56034e-19 0.00160107)
(0.00173046 -0.000746598 -1.12906e-05 0.00173046 5.47148e-19 0.00173046)
(0.00173046 -0.000746598 -1.12906e-05 0.00173046 1.52844e-19 0.00173046)
(0.00186153 -0.000816677 -1.2572e-05 0.00186153 5.45711e-19 0.00186153)
(0.00186153 -0.000816677 -1.2572e-05 0.00186153 1.46202e-19 0.00186153)
(0.00199355 -0.000887153 -1.39031e-05 0.00199355 5.40667e-19 0.00199355)
(0.00199355 -0.000887153 -1.39031e-05 0.00199355 1.38284e-19 0.00199355)
(0.00212582 -0.000957509 -1.52774e-05 0.00212582 5.34323e-19 0.00212582)
(0.00212582 -0.000957509 -1.52774e-05 0.00212582 1.31085e-19 0.00212582)
(0.00225768 -0.00102728 -1.66887e-05 0.00225768 5.28712e-19 0.00225768)
(0.00225768 -0.00102728 -1.66887e-05 0.00225768 1.24889e-19 0.00225768)
(0.00238854 -0.00109607 -1.81315e-05 0.00238854 5.25122e-19 0.00238854)
(0.00238854 -0.00109607 -1.81315e-05 0.00238854 1.19316e-19 0.00238854)
(0.00251786 -0.00116353 -1.96004e-05 0.00251786 5.25326e-19 0.00251786)
(0.00251786 -0.00116353 -1.96004e-05 0.00251786 1.1715e-19 0.00251786)
(0.00264518 -0.00122939 -2.1091e-05 0.00264518 1.3097e-20 0.00264518)
(0.00264518 -0.00122939 -2.1091e-05 0.00264518 1.21675e-19 0.00264518)
(0.0027701 -0.00129342 -2.25993e-05 0.0027701 -3.91883e-19 0.0027701)
(0.0027701 -0.00129342 -2.25993e-05 0.0027701 1.24969e-19 0.0027701)
(0.00289227 -0.00135545 -2.41218e-05 0.00289227 -6.18136e-19 0.00289227)
(0.00289227 -0.00135545 -2.41218e-05 0.00289227 1.23973e-19 0.00289227)
(0.00301143 -0.00141537 -2.5656e-05 0.00301143 -1.17631e-18 0.00301143)
(0.00301143 -0.00141537 -2.5656e-05 0.00301143 1.33472e-19 0.00301143)
(0.00312735 -0.00147309 -2.71994e-05 0.00312735 -2.065e-18 0.00312735)
(0.00312735 -0.00147309 -2.71994e-05 0.00312735 1.56604e-19 0.00312735)
(0.00323987 -0.00152857 -2.87503e-05 0.00323987 -2.44049e-18 0.00323987)
(0.00323987 -0.00152857 -2.87503e-05 0.00323987 1.76089e-19 0.00323987)
(0.00334888 -0.00158178 -3.03073e-05 0.00334888 -2.53494e-18 0.00334888)
(0.00334888 -0.00158178 -3.03073e-05 0.00334888 1.96392e-19 0.00334888)
(0.0034543 -0.00163275 -3.18696e-05 0.0034543 -2.62487e-18 0.0034543)
(0.0034543 -0.00163275 -3.18696e-05 0.0034543 2.23844e-19 0.0034543)
(0.00355608 -0.0016815 -3.34364e-05 0.00355608 -2.7059e-18 0.00355608)
(0.00355608 -0.0016815 -3.34364e-05 0.00355608 2.58934e-19 0.00355608)
(0.00365422 -0.00172808 -3.50074e-05 0.00365422 -2.78102e-18 0.00365422)
(0.00365422 -0.00172808 -3.50074e-05 0.00365422 3.01096e-19 0.00365422)
(0.00374874 -0.00177253 -3.65825e-05 0.00374874 -2.84408e-18 0.00374874)
(0.00374874 -0.00177253 -3.65825e-05 0.00374874 3.4222e-19 0.00374874)
(0.00383966 -0.00181493 -3.81617e-05 0.00383966 -2.88842e-18 0.00383966)
(0.00383966 -0.00181493 -3.81617e-05 0.00383966 3.81611e-19 0.00383966)
(0.00392705 -0.00185534 -3.97452e-05 0.00392705 -2.93714e-18 0.00392705)
(0.00392705 -0.00185534 -3.97452e-05 0.00392705 4.32051e-19 0.00392705)
(0.00401098 -0.00189383 -4.13336e-05 0.00401098 -2.971e-18 0.00401098)
(0.00401098 -0.00189383 -4.13336e-05 0.00401098 4.96366e-19 0.00401098)
(0.00409152 -0.0019305 -4.29271e-05 0.00409152 -2.99407e-18 0.00409152)
(0.00409152 -0.0019305 -4.29271e-05 0.00409152 5.76273e-19 0.00409152)
(0.00416877 -0.0019654 -4.45264e-05 0.00416877 -3.00751e-18 0.00416877)
(0.00416877 -0.0019654 -4.45264e-05 0.00416877 6.43226e-19 0.00416877)
(0.00424282 -0.00199862 -4.61322e-05 0.00424282 -3.0109e-18 0.00424282)
(0.00424282 -0.00199862 -4.61322e-05 0.00424282 6.83238e-19 0.00424282)
(0.00431377 -0.00203024 -4.7745e-05 0.00431377 -3.0229e-18 0.00431377)
(0.00431377 -0.00203024 -4.7745e-05 0.00431377 7.63466e-19 0.00431377)
(0.00438172 -0.00206032 -4.93657e-05 0.00438172 -3.01534e-18 0.00438172)
(0.00438172 -0.00206032 -4.93657e-05 0.00438172 8.5147e-19 0.00438172)
(0.00444678 -0.00208895 -5.0995e-05 0.00444678 -2.97925e-18 0.00444678)
(0.00444678 -0.00208895 -5.0995e-05 0.00444678 9.23758e-19 0.00444678)
(0.00450906 -0.00211619 -5.26336e-05 0.00450906 -2.92636e-18 0.00450906)
(0.00450906 -0.00211619 -5.26336e-05 0.00450906 1.00925e-18 0.00450906)
(0.00456865 -0.00214211 -5.42824e-05 0.00456865 -2.90686e-18 0.00456865)
(0.00456865 -0.00214211 -5.42824e-05 0.00456865 1.09923e-18 0.00456865)
(0.00462566 -0.00216677 -5.59422e-05 0.00462566 -2.90901e-18 0.00462566)
(0.00462566 -0.00216677 -5.59422e-05 0.00462566 1.20571e-18 0.00462566)
(0.00468018 -0.00219023 -5.76137e-05 0.00468018 -2.87345e-18 0.00468018)
(0.00468018 -0.00219023 -5.76137e-05 0.00468018 1.32673e-18 0.00468018)
(0.00473233 -0.00221256 -5.92978e-05 0.00473233 -2.78974e-18 0.00473233)
(0.00473233 -0.00221256 -5.92978e-05 0.00473233 1.41409e-18 0.00473233)
(0.00478219 -0.00223381 -6.09953e-05 0.00478219 -2.73904e-18 0.00478219)
(0.00478219 -0.00223381 -6.09953e-05 0.00478219 1.50325e-18 0.00478219)
(0.00482985 -0.00225404 -6.2707e-05 0.00482985 -2.67825e-18 0.00482985)
(0.00482985 -0.00225404 -6.2707e-05 0.00482985 1.58905e-18 0.00482985)
(0.00487541 -0.00227328 -6.44336e-05 0.00487541 -2.63924e-18 0.00487541)
(0.00487541 -0.00227328 -6.44336e-05 0.00487541 1.73922e-18 0.00487541)
(0.00491895 -0.00229159 -6.6176e-05 0.00491895 -2.58916e-18 0.00491895)
(0.00491895 -0.00229159 -6.6176e-05 0.00491895 1.9415e-18 0.00491895)
(0.00496055 -0.00230902 -6.79349e-05 0.00496055 -2.4221e-18 0.00496055)
(0.00496055 -0.00230902 -6.79349e-05 0.00496055 2.04075e-18 0.00496055)
(0.00500029 -0.00232561 -6.97111e-05 0.00500029 -2.27465e-18 0.00500029)
(0.00500029 -0.00232561 -6.97111e-05 0.00500029 1.20239e-18 0.00500029)
(0.00503826 -0.00234139 -7.15054e-05 0.00503826 -2.19477e-18 0.00503826)
(0.00503826 -0.00234139 -7.15054e-05 0.00503826 2.87014e-19 0.00503826)
(0.00507451 -0.0023564 -7.33185e-05 0.00507451 -2.21289e-18 0.00507451)
(0.00507451 -0.0023564 -7.33185e-05 0.00507451 3.08051e-19 0.00507451)
(0.00510913 -0.00237069 -7.51511e-05 0.00510913 -2.19886e-18 0.00510913)
(0.00510913 -0.00237069 -7.51511e-05 0.00510913 3.29481e-19 0.00510913)
(0.00514217 -0.00238428 -7.70039e-05 0.00514217 -2.08798e-18 0.00514217)
(0.00514217 -0.00238428 -7.70039e-05 0.00514217 3.36651e-19 0.00514217)
(0.0051737 -0.0023972 -7.88778e-05 0.0051737 -1.93992e-18 0.0051737)
(0.0051737 -0.0023972 -7.88778e-05 0.0051737 3.23097e-19 0.0051737)
(0.00520378 -0.00240949 -8.07733e-05 0.00520378 -1.80424e-18 0.00520378)
(0.00520378 -0.00240949 -8.07733e-05 0.00520378 3.56402e-19 0.00520378)
(0.00523247 -0.00242117 -8.26913e-05 0.00523247 -1.9826e-19 0.00523247)
(0.00523247 -0.00242117 -8.26913e-05 0.00523247 4.91365e-19 0.00523247)
(0.00525982 -0.00243227 -8.46323e-05 0.00525982 1.48088e-18 0.00525982)
(0.00525982 -0.00243227 -8.46323e-05 0.00525982 5.3892e-19 0.00525982)
(0.00528589 -0.00244282 -8.65971e-05 0.00528589 1.55853e-18 0.00528589)
(0.00528589 -0.00244282 -8.65971e-05 0.00528589 5.95686e-19 0.00528589)
(0.00531072 -0.00245283 -8.85863e-05 0.00531072 1.50152e-18 0.00531072)
(0.00531072 -0.00245283 -8.85863e-05 0.00531072 2.4352e-18 0.00531072)
(0.00533435 -0.00246233 -9.06007e-05 0.00533435 1.54563e-18 0.00533435)
(0.00533435 -0.00246233 -9.06007e-05 0.00533435 4.29667e-18 0.00533435)
(0.00535685 -0.00247134 -9.26409e-05 0.00535685 1.7417e-18 0.00535685)
(0.00535685 -0.00247134 -9.26409e-05 0.00535685 4.32194e-18 0.00535685)
(0.00537824 -0.00247988 -9.47074e-05 0.00537824 1.81409e-18 0.00537824)
(0.00537824 -0.00247988 -9.47074e-05 0.00537824 4.40347e-18 0.00537824)
(0.00539856 -0.00248796 -9.68011e-05 0.00539856 1.92708e-18 0.00539856)
(0.00539856 -0.00248796 -9.68011e-05 0.00539856 4.60309e-18 0.00539856)
(0.00541786 -0.00249561 -9.89224e-05 0.00541786 2.2238e-18 0.00541786)
(0.00541786 -0.00249561 -9.89224e-05 0.00541786 4.71491e-18 0.00541786)
(0.00543617 -0.00250284 -0.000101072 0.00543617 2.44854e-18 0.00543617)
(0.00543617 -0.00250284 -0.000101072 0.00543617 4.83441e-18 0.00543617)
(0.00545352 -0.00250967 -0.000103251 0.00545352 2.4393e-18 0.00545352)
(0.00545352 -0.00250967 -0.000103251 0.00545352 4.91778e-18 0.00545352)
(0.00546996 -0.00251611 -0.000105459 0.00546996 2.64858e-18 0.00546996)
(0.00546996 -0.00251611 -0.000105459 0.00546996 4.91316e-18 0.00546996)
(0.0054855 -0.00252218 -0.000107698 0.0054855 3.06391e-18 0.0054855)
(0.0054855 -0.00252218 -0.000107698 0.0054855 4.96394e-18 0.0054855)
(0.00550017 -0.00252788 -0.000109967 0.00550017 3.41682e-18 0.00550017)
(0.00550017 -0.00252788 -0.000109967 0.00550017 4.92833e-18 0.00550017)
(0.00551401 -0.00253323 -0.000112268 0.00551401 3.66684e-18 0.00551401)
(0.00551401 -0.00253323 -0.000112268 0.00551401 4.89284e-18 0.00551401)
(0.00552704 -0.00253824 -0.000114601 0.00552704 3.93977e-18 0.00552704)
(0.00552704 -0.00253824 -0.000114601 0.00552704 4.94723e-18 0.00552704)
(0.00553929 -0.00254292 -0.000116966 0.00553929 4.43356e-18 0.00553929)
(0.00553929 -0.00254292 -0.000116966 0.00553929 5.14033e-18 0.00553929)
(0.00555077 -0.00254729 -0.000119365 0.00555077 4.87646e-18 0.00555077)
(0.00555077 -0.00254729 -0.000119365 0.00555077 5.2282e-18 0.00555077)
(0.00556152 -0.00255134 -0.000121797 0.00556152 5.39284e-18 0.00556152)
(0.00556152 -0.00255134 -0.000121797 0.00556152 4.98729e-18 0.00556152)
(0.00557154 -0.0025551 -0.000124264 0.00557154 5.58429e-18 0.00557154)
(0.00557154 -0.0025551 -0.000124264 0.00557154 4.95216e-18 0.00557154)
(0.00558087 -0.00255856 -0.000126766 0.00558087 5.42839e-18 0.00558087)
(0.00558087 -0.00255856 -0.000126766 0.00558087 5.01928e-18 0.00558087)
(0.00558952 -0.00256174 -0.000129304 0.00558952 5.38256e-18 0.00558952)
(0.00558952 -0.00256174 -0.000129304 0.00558952 5.00252e-18 0.00558952)
(0.00559751 -0.00256465 -0.000131877 0.00559751 5.32116e-18 0.00559751)
(0.00559751 -0.00256465 -0.000131877 0.00559751 5.02616e-18 0.00559751)
(0.00560485 -0.00256728 -0.000134487 0.00560485 5.216e-18 0.00560485)
(0.00560485 -0.00256728 -0.000134487 0.00560485 4.81657e-18 0.00560485)
(0.00561156 -0.00256965 -0.000137135 0.00561156 4.81713e-18 0.00561156)
(0.00561156 -0.00256965 -0.000137135 0.00561156 4.70111e-18 0.00561156)
(0.00561766 -0.00257176 -0.00013982 0.00561766 4.75709e-18 0.00561766)
(0.00561766 -0.00257176 -0.00013982 0.00561766 4.63638e-18 0.00561766)
(0.00562316 -0.00257362 -0.000142544 0.00562316 5.02439e-18 0.00562316)
(0.00562316 -0.00257362 -0.000142544 0.00562316 4.77363e-18 0.00562316)
(0.00562807 -0.00257524 -0.000145306 0.00562807 5.05782e-18 0.00562807)
(0.00562807 -0.00257524 -0.000145306 0.00562807 5.19021e-18 0.00562807)
(0.00563241 -0.00257661 -0.000148108 0.00563241 5.16573e-18 0.00563241)
(0.00563241 -0.00257661 -0.000148108 0.00563241 5.38893e-18 0.00563241)
(0.00563619 -0.00257775 -0.000150949 0.00563619 5.16214e-18 0.00563619)
(0.00563619 -0.00257775 -0.000150949 0.00563619 5.37999e-18 0.00563619)
(0.00563942 -0.00257866 -0.000153831 0.00563942 5.04445e-18 0.00563942)
(0.00563942 -0.00257866 -0.000153831 0.00563942 5.25593e-18 0.00563942)
(0.0056421 -0.00257934 -0.000156754 0.0056421 4.70648e-18 0.0056421)
(0.0056421 -0.00257934 -0.000156754 0.0056421 5.17505e-18 0.0056421)
(0.00564426 -0.00257979 -0.000159718 0.00564426 4.64324e-18 0.00564426)
(0.00564426 -0.00257979 -0.000159718 0.00564426 5.02591e-18 0.00564426)
(0.00564589 -0.00258002 -0.000162724 0.00564589 4.79122e-18 0.00564589)
(0.00564589 -0.00258002 -0.000162724 0.00564589 4.87734e-18 0.00564589)
(0.00564701 -0.00258004 -0.000165773 0.00564701 4.59946e-18 0.00564701)
(0.00564701 -0.00258004 -0.000165773 0.00564701 4.85747e-18 0.00564701)
(0.00564763 -0.00257984 -0.000168864 0.00564763 3.98757e-18 0.00564763)
(0.00564763 -0.00257984 -0.000168864 0.00564763 5.18668e-18 0.00564763)
(0.00564775 -0.00257943 -0.000171999 0.00564775 3.72922e-18 0.00564775)
(0.00564775 -0.00257943 -0.000171999 0.00564775 5.84237e-18 0.00564775)
(0.00564739 -0.00257881 -0.000175177 0.00564739 3.94808e-18 0.00564739)
(0.00564739 -0.00257881 -0.000175177 0.00564739 6.24312e-18 0.00564739)
(0.00564654 -0.00257798 -0.000178399 0.00564654 3.59856e-18 0.00564654)
(0.00564654 -0.00257798 -0.000178399 0.00564654 6.57829e-18 0.00564654)
(0.00564521 -0.00257695 -0.000181666 0.00564521 3.23549e-18 0.00564521)
(0.00564521 -0.00257695 -0.000181666 0.00564521 6.46967e-18 0.00564521)
(0.00564341 -0.00257571 -0.000184978 0.00564341 3.84244e-18 0.00564341)
(0.00564341 -0.00257571 -0.000184978 0.00564341 6.1329e-18 0.00564341)
(0.00564115 -0.00257427 -0.000188335 0.00564115 4.32139e-18 0.00564115)
(0.00564115 -0.00257427 -0.000188335 0.00564115 6.32643e-18 0.00564115)
(0.00563842 -0.00257263 -0.000191738 0.00563842 5.17515e-18 0.00563842)
(0.00563842 -0.00257263 -0.000191738 0.00563842 6.74281e-18 0.00563842)
(0.00563524 -0.0025708 -0.000195187 0.00563524 7.17595e-18 0.00563524)
(0.00563524 -0.0025708 -0.000195187 0.00563524 6.19125e-18 0.00563524)
(0.00563161 -0.00256876 -0.000198683 0.00563161 6.6777e-18 0.00563161)
(0.00563161 -0.00256876 -0.000198683 0.00563161 4.86514e-18 0.00563161)
(0.00562753 -0.00256653 -0.000202225 0.00562753 4.60576e-18 0.00562753)
(0.00562753 -0.00256653 -0.000202225 0.00562753 4.82975e-18 0.00562753)
(0.00562301 -0.0025641 -0.000205814 0.00562301 3.7393e-18 0.00562301)
(0.00562301 -0.0025641 -0.000205814 0.00562301 5.09954e-18 0.00562301)
(0.00561804 -0.00256148 -0.00020945 0.00561804 3.58427e-18 0.00561804)
(0.00561804 -0.00256148 -0.00020945 0.00561804 4.0441e-18 0.00561804)
(0.00561263 -0.00255866 -0.000213134 0.00561263 2.90296e-18 0.00561263)
(0.00561263 -0.00255866 -0.000213134 0.00561263 3.12054e-18 0.00561263)
(0.00560679 -0.00255565 -0.000216866 0.00560679 1.92569e-18 0.00560679)
(0.00560679 -0.00255565 -0.000216866 0.00560679 4.00267e-18 0.00560679)
(0.00560052 -0.00255244 -0.000220646 0.00560052 2.61486e-18 0.00560052)
(0.00560052 -0.00255244 -0.000220646 0.00560052 5.25525e-18 0.00560052)
(0.00559381 -0.00254904 -0.000224474 0.00559381 3.40259e-18 0.00559381)
(0.00559381 -0.00254904 -0.000224474 0.00559381 4.65249e-18 0.00559381)
(0.00558667 -0.00254544 -0.00022835 0.00558667 1.21878e-18 0.00558667)
(0.00558667 -0.00254544 -0.00022835 0.00558667 4.145e-18 0.00558667)
(0.00557909 -0.00254165 -0.000232274 0.00557909 2.40563e-19 0.00557909)
(0.00557909 -0.00254165 -0.000232274 0.00557909 4.5286e-18 0.00557909)
(0.00557109 -0.00253767 -0.000236247 0.00557109 -1.10304e-18 0.00557109)
(0.00557109 -0.00253767 -0.000236247 0.00557109 4.09715e-18 0.00557109)
(0.00556267 -0.00253349 -0.000240269 0.00556267 -1.88972e-18 0.00556267)
(0.00556267 -0.00253349 -0.000240269 0.00556267 2.79925e-18 0.00556267)
(0.00555381 -0.00252911 -0.000244339 0.00555381 -3.30477e-18 0.00555381)
(0.00555381 -0.00252911 -0.000244339 0.00555381 3.38724e-18 0.00555381)
(0.00554453 -0.00252453 -0.000248458 0.00554453 -3.4677e-18 0.00554453)
(0.00554453 -0.00252453 -0.000248458 0.00554453 5.45275e-18 0.00554453)
(0.00553482 -0.00251976 -0.000252626 0.00553482 -1.72101e-18 0.00553482)
(0.00553482 -0.00251976 -0.000252626 0.00553482 5.75421e-18 0.00553482)
(0.00552468 -0.00251479 -0.000256841 0.00552468 -1.98326e-18 0.00552468)
(0.00552468 -0.00251479 -0.000256841 0.00552468 5.14037e-18 0.00552468)
(0.00551411 -0.00250962 -0.000261106 0.00551411 -3.2168e-18 0.00551411)
(0.00551411 -0.00250962 -0.000261106 0.00551411 5.23273e-18 0.00551411)
(0.00550312 -0.00250425 -0.000265418 0.00550312 -3.43498e-18 0.00550312)
(0.00550312 -0.00250425 -0.000265418 0.00550312 5.88121e-18 0.00550312)
(0.00549169 -0.00249868 -0.000269778 0.00549169 -2.73662e-18 0.00549169)
(0.00549169 -0.00249868 -0.000269778 0.00549169 5.90168e-18 0.00549169)
(0.00547983 -0.0024929 -0.000274185 0.00547983 -3.4754e-18 0.00547983)
(0.00547983 -0.0024929 -0.000274185 0.00547983 6.35519e-18 0.00547983)
(0.00546754 -0.00248692 -0.00027864 0.00546754 -4.66942e-18 0.00546754)
(0.00546754 -0.00248692 -0.00027864 0.00546754 7.97466e-18 0.00546754)
(0.00545482 -0.00248073 -0.000283142 0.00545482 -2.8897e-18 0.00545482)
(0.00545482 -0.00248073 -0.000283142 0.00545482 8.55168e-18 0.00545482)
(0.00544166 -0.00247433 -0.00028769 0.00544166 -2.76044e-18 0.00544166)
(0.00544166 -0.00247433 -0.00028769 0.00544166 8.06392e-18 0.00544166)
(0.00542807 -0.00246772 -0.000292284 0.00542807 -2.9671e-18 0.00542807)
(0.00542807 -0.00246772 -0.000292284 0.00542807 8.64893e-18 0.00542807)
(0.00541403 -0.00246091 -0.000296924 0.00541403 -4.12508e-18 0.00541403)
(0.00541403 -0.00246091 -0.000296924 0.00541403 8.21848e-18 0.00541403)
(0.00539955 -0.00245387 -0.000301608 0.00539955 -7.97602e-18 0.00539955)
(0.00539955 -0.00245387 -0.000301608 0.00539955 6.16637e-18 0.00539955)
(0.00538463 -0.00244662 -0.000306336 0.00538463 -7.90757e-18 0.00538463)
(0.00538463 -0.00244662 -0.000306336 0.00538463 6.01084e-18 0.00538463)
(0.00536926 -0.00243915 -0.000311108 0.00536926 -5.87135e-18 0.00536926)
(0.00536926 -0.00243915 -0.000311108 0.00536926 8.11498e-18 0.00536926)
(0.00535344 -0.00243146 -0.000315921 0.00535344 -4.90334e-18 0.00535344)
(0.00535344 -0.00243146 -0.000315921 0.00535344 9.57147e-18 0.00535344)
(0.00533716 -0.00242355 -0.000320777 0.00533716 -3.95671e-18 0.00533716)
(0.00533716 -0.00242355 -0.000320777 0.00533716 8.80111e-18 0.00533716)
(0.00532043 -0.00241541 -0.000325672 0.00532043 -4.35129e-18 0.00532043)
(0.00532043 -0.00241541 -0.000325672 0.00532043 1.1197e-17 0.00532043)
(0.00530324 -0.00240705 -0.000330607 0.00530324 -6.93219e-18 0.00530324)
(0.00530324 -0.00240705 -0.000330607 0.00530324 1.78455e-17 0.00530324)
(0.00528559 -0.00239845 -0.00033558 0.00528559 -7.56506e-18 0.00528559)
(0.00528559 -0.00239845 -0.00033558 0.00528559 1.95782e-17 0.00528559)
(0.00526747 -0.00238962 -0.000340589 0.00526747 -4.59867e-18 0.00526747)
(0.00526747 -0.00238962 -0.000340589 0.00526747 1.8483e-17 0.00526747)
(0.00524887 -0.00238055 -0.000345634 0.00524887 2.01771e-18 0.00524887)
(0.00524887 -0.00238055 -0.000345634 0.00524887 1.76542e-17 0.00524887)
(0.00522981 -0.00237125 -0.000350713 0.00522981 1.58972e-18 0.00522981)
(0.00522981 -0.00237125 -0.000350713 0.00522981 1.78158e-17 0.00522981)
(0.00521026 -0.0023617 -0.000355824 0.00521026 2.04278e-18 0.00521026)
(0.00521026 -0.0023617 -0.000355824 0.00521026 1.94501e-17 0.00521026)
(0.00519023 -0.00235191 -0.000360965 0.00519023 5.08242e-18 0.00519023)
(0.00519023 -0.00235191 -0.000360965 0.00519023 2.07355e-17 0.00519023)
(0.00516971 -0.00234186 -0.000366135 0.00516971 5.30199e-18 0.00516971)
(0.00516971 -0.00234186 -0.000366135 0.00516971 2.37488e-17 0.00516971)
(0.00514869 -0.00233157 -0.000371332 0.00514869 3.12175e-18 0.00514869)
(0.00514869 -0.00233157 -0.000371332 0.00514869 2.44988e-17 0.00514869)
(0.00512718 -0.00232101 -0.000376553 0.00512718 2.83936e-18 0.00512718)
(0.00512718 -0.00232101 -0.000376553 0.00512718 2.32552e-17 0.00512718)
(0.00510517 -0.0023102 -0.000381796 0.00510517 1.8758e-18 0.00510517)
(0.00510517 -0.0023102 -0.000381796 0.00510517 2.46466e-17 0.00510517)
(0.00508264 -0.00229913 -0.000387059 0.00508264 1.36295e-18 0.00508264)
(0.00508264 -0.00229913 -0.000387059 0.00508264 2.47924e-17 0.00508264)
(0.00505961 -0.00228779 -0.00039234 0.00505961 2.97804e-18 0.00505961)
(0.00505961 -0.00228779 -0.00039234 0.00505961 2.3167e-17 0.00505961)
(0.00503605 -0.00227618 -0.000397634 0.00503605 3.18207e-18 0.00503605)
(0.00503605 -0.00227618 -0.000397634 0.00503605 2.51644e-17 0.00503605)
(0.00501197 -0.00226429 -0.000402941 0.00501197 2.37777e-18 0.00501197)
(0.00501197 -0.00226429 -0.000402941 0.00501197 2.58472e-17 0.00501197)
(0.00498736 -0.00225213 -0.000408255 0.00498736 -1.17238e-18 0.00498736)
(0.00498736 -0.00225213 -0.000408255 0.00498736 2.57612e-17 0.00498736)
(0.00496221 -0.00223968 -0.000413575 0.00496221 3.07979e-18 0.00496221)
(0.00496221 -0.00223968 -0.000413575 0.00496221 2.47456e-17 0.00496221)
(0.00493651 -0.00222695 -0.000418897 0.00493651 5.43559e-18 0.00493651)
(0.00493651 -0.00222695 -0.000418897 0.00493651 2.46441e-17 0.00493651)
(0.00491027 -0.00221393 -0.000424217 0.00491027 2.64897e-18 0.00491027)
(0.00491027 -0.00221393 -0.000424217 0.00491027 2.72355e-17 0.00491027)
(0.00488347 -0.00220061 -0.000429531 0.00488347 -1.00341e-18 0.00488347)
(0.00488347 -0.00220061 -0.000429531 0.00488347 2.7517e-17 0.00488347)
(0.00485611 -0.00218699 -0.000434836 0.00485611 -6.01811e-18 0.00485611)
(0.00485611 -0.00218699 -0.000434836 0.00485611 3.07783e-17 0.00485611)
(0.00482819 -0.00217307 -0.000440126 0.00482819 -3.8595e-18 0.00482819)
(0.00482819 -0.00217307 -0.000440126 0.00482819 2.97415e-17 0.00482819)
(0.00479968 -0.00215883 -0.000445398 0.00479968 3.68728e-18 0.00479968)
(0.00479968 -0.00215883 -0.000445398 0.00479968 2.72733e-17 0.00479968)
(0.00477059 -0.00214429 -0.000450647 0.00477059 4.43505e-18 0.00477059)
(0.00477059 -0.00214429 -0.000450647 0.00477059 2.32201e-17 0.00477059)
(0.00474092 -0.00212942 -0.000455867 0.00474092 3.38503e-18 0.00474092)
(0.00474092 -0.00212942 -0.000455867 0.00474092 1.74011e-17 0.00474092)
(0.00471064 -0.00211423 -0.000461053 0.00471064 2.87819e-18 0.00471064)
(0.00471064 -0.00211423 -0.000461053 0.00471064 2.19688e-17 0.00471064)
(0.00467977 -0.00209871 -0.0004662 0.00467977 -6.88574e-18 0.00467977)
(0.00467977 -0.00209871 -0.0004662 0.00467977 2.95691e-17 0.00467977)
(0.00464828 -0.00208285 -0.000471302 0.00464828 -1.50017e-18 0.00464828)
(0.00464828 -0.00208285 -0.000471302 0.00464828 2.80607e-17 0.00464828)
(0.00461617 -0.00206666 -0.000476353 0.00461617 2.81728e-18 0.00461617)
(0.00461617 -0.00206666 -0.000476353 0.00461617 2.4941e-17 0.00461617)
(0.00458343 -0.00205012 -0.000481346 0.00458343 -2.2746e-18 0.00458343)
(0.00458343 -0.00205012 -0.000481346 0.00458343 1.97109e-17 0.00458343)
(0.00455007 -0.00203323 -0.000486274 0.00455007 1.71898e-18 0.00455007)
(0.00455007 -0.00203323 -0.000486274 0.00455007 1.4392e-17 0.00455007)
(0.00451606 -0.00201598 -0.000491131 0.00451606 5.24124e-18 0.00451606)
(0.00451606 -0.00201598 -0.000491131 0.00451606 1.32412e-17 0.00451606)
(0.0044814 -0.00199837 -0.000495908 0.0044814 2.98256e-18 0.0044814)
(0.0044814 -0.00199837 -0.000495908 0.0044814 1.19946e-17 0.0044814)
(0.00444608 -0.00198038 -0.000500598 0.00444608 2.60154e-18 0.00444608)
(0.00444608 -0.00198038 -0.000500598 0.00444608 1.23095e-17 0.00444608)
(0.0044101 -0.00196203 -0.000505193 0.0044101 3.97728e-18 0.0044101)
(0.0044101 -0.00196203 -0.000505193 0.0044101 1.20735e-17 0.0044101)
(0.00437345 -0.00194329 -0.000509683 0.00437345 3.13467e-18 0.00437345)
(0.00437345 -0.00194329 -0.000509683 0.00437345 8.44808e-18 0.00437345)
(0.00433612 -0.00192417 -0.00051406 0.00433612 2.49429e-18 0.00433612)
(0.00433612 -0.00192417 -0.00051406 0.00433612 8.61881e-18 0.00433612)
(0.0042981 -0.00190465 -0.000518314 0.0042981 1.27811e-32 0.0042981)
(0.0042981 -0.00190465 -0.000518314 0.0042981 1.57633e-17 0.0042981)
(0.00425939 -0.00188474 -0.000522436 0.00425939 3.47733e-19 0.00425939)
(0.00425939 -0.00188474 -0.000522436 0.00425939 1.29094e-17 0.00425939)
(0.00421998 -0.00186441 -0.000526414 0.00421998 -1.19104e-18 0.00421998)
(0.00421998 -0.00186441 -0.000526414 0.00421998 8.48645e-19 0.00421998)
(0.00417986 -0.00184367 -0.000530237 0.00417986 -2.01538e-19 0.00417986)
(0.00417986 -0.00184367 -0.000530237 0.00417986 -1.72741e-18 0.00417986)
(0.00413902 -0.00182251 -0.000533895 0.00413902 4.27947e-18 0.00413902)
(0.00413902 -0.00182251 -0.000533895 0.00413902 -6.75675e-19 0.00413902)
(0.00409746 -0.00180092 -0.000537375 0.00409746 -4.63512e-19 0.00409746)