/*--------------------------------*- C++ -*----------------------------------*\
| =========                 |                                                 |
| \\      /  F ield         | OpenFOAM: The Open Source CFD Toolbox           |
|  \\    /   O peration     | Version:  2106                                  |
|   \\  /    A nd           | Website:  www.openfoam.com                      |
|    \\/     M anipulation  |                                                 |
\*---------------------------------------------------------------------------*/
FoamFile
{
    version     2.0;
    format      ascii;
    arch        "LSB;label=32;scalar=64";
    class       volTensorField;
    location    "10070";
    object      grad(U);
}
// * * * * * * * * * * * * * * * * * * * * * * * * * * * * * * * * * * * * * //

dimensions      [0 0 -1 0 0 0 0];

internalField   nonuniform List<tensor> 
2000
(
(0 -3.44275e-26 8.89258e-32 35.0334 -6.51626e-12 -9.68386e-14 0.0648402 -6.03125e-15 -6.9103e-17)
(0 -5.69125e-30 -8.89258e-32 35.0334 -1.42599e-15 9.18578e-18 0.0648402 -4.33123e-18 1.25504e-16)
(0 -5.60519e-45 2.82327e-31 35.0268 0 -1.60151e-14 0.195706 0 -6.03827e-17)
(0 -2.23478e-29 -2.49418e-31 35.0268 -8.72941e-16 1.84463e-17 0.195706 -9.67322e-19 1.72535e-16)
(-7.97963e-18 -5.51335e-31 -2.8654e-32 35.0201 3.92191e-13 -6.82987e-15 0.271491 -2.41899e-15 -4.43965e-17)
(0 9.40214e-30 1.46908e-31 35.0201 -2.50094e-15 2.50705e-17 0.271491 -7.15105e-18 1.79008e-16)
(-2.61223e-17 -7.85539e-31 -2.73998e-32 35.0132 5.39771e-13 -5.99795e-15 0.276504 -3.61731e-15 -4.95172e-17)
(1.04489e-16 6.15323e-30 1.44216e-31 35.0132 -1.99618e-15 2.54738e-17 0.276504 -1.11776e-17 1.85708e-16)
(-1.06265e-16 3.02024e-30 4.71912e-32 35.0063 1.47872e-13 -6.44412e-15 0.281609 -4.84128e-15 -5.32487e-17)
(0 0 0 35.0063 -2.0511e-15 2.40098e-17 0.281609 -1.5281e-17 1.92635e-16)
(0 -4.48557e-27 1.85306e-31 34.9992 -3.59556e-14 -6.68813e-15 0.286807 -1.45975e-16 -5.53827e-17)
(-2.53678e-16 -1.18596e-29 -1.85306e-31 34.9992 -2.18228e-15 2.39111e-17 0.286807 -1.98059e-17 1.99777e-16)
(1.02406e-16 -4.14807e-28 -4.54775e-32 34.9918 -1.31424e-27 -6.81883e-15 0.292098 -3.15544e-30 -5.74374e-17)
(3.30345e-16 8.73169e-30 4.54775e-32 34.9918 -2.1634e-15 2.59319e-17 0.292098 -2.43695e-17 2.07157e-16)
(0 0 0 34.9842 4.64255e-15 -6.95029e-15 0.297485 -4.68534e-17 -5.97057e-17)
(8.16857e-16 5.71445e-30 8.92883e-32 34.9842 -2.13972e-15 2.78513e-17 0.297485 -2.89178e-17 2.14787e-16)
(-1.21989e-16 2.71237e-30 6.9611e-32 34.9762 3.34024e-15 -7.092e-15 0.302966 -3.12356e-17 -6.2057e-17)
(0 2.80487e-30 0 34.9762 -2.35232e-15 2.66412e-17 0.302966 -3.39864e-17 2.22659e-16)
(3.87517e-16 -2.75347e-30 -1.29069e-31 34.9676 3.04059e-15 -7.23555e-15 0.308542 -2.60549e-17 -6.44891e-17)
(0 2.75347e-30 1.29069e-31 34.9676 -2.51103e-15 2.47518e-17 0.308542 -3.96588e-17 2.30749e-16)
(1.90208e-16 -2.97332e-29 -5.91284e-31 34.9581 3.11952e-15 -7.38098e-15 0.314212 -2.71238e-17 -6.70102e-17)
(0 2.70301e-29 5.06815e-31 34.9581 -2.48597e-15 2.39682e-17 0.314212 -4.54312e-17 2.39114e-16)
(1.83863e-16 7.90346e-30 1.36313e-31 34.9473 3.29829e-15 -7.52892e-15 0.319971 -2.84559e-17 -6.96285e-17)
(7.35453e-16 -7.96045e-30 -8.29213e-32 34.9473 -2.52118e-15 2.65835e-17 0.319971 -5.08442e-17 2.47728e-16)
(0 0 0 34.9347 3.64704e-15 -7.67876e-15 0.325817 -3.142e-17 -7.23308e-17)
(0 0 0 34.9347 -2.65401e-15 3.06846e-17 0.325817 -5.66972e-17 2.56618e-16)
(-5.86924e-16 2.57218e-29 5.11744e-31 34.9197 3.9633e-15 -7.82794e-15 0.331742 -3.60346e-17 -7.50875e-17)
(0 -1.78999e-29 -3.99551e-31 34.9197 -2.77816e-15 3.0322e-17 0.331742 -6.36238e-17 2.65756e-16)
(-9.55805e-16 1.27474e-29 3.47537e-31 34.9012 3.94256e-15 -7.97355e-15 0.337736 -3.86144e-17 -7.78753e-17)
(0 -2.51027e-30 -1.56892e-31 34.9012 -2.90238e-15 2.26809e-17 0.337736 -7.1097e-17 2.75184e-16)
(6.18638e-16 -1.50268e-29 -2.66315e-31 34.8781 3.66931e-15 -8.11412e-15 0.343787 -3.6991e-17 -8.0689e-17)
(-1.08729e-15 9.85707e-30 1.54017e-31 34.8781 -3.03624e-15 1.94949e-17 0.343787 -7.82538e-17 2.84817e-16)
(3.40459e-16 -7.25733e-30 -1.51194e-31 34.8489 3.41141e-15 -8.24704e-15 0.349877 -3.46807e-17 -8.348e-17)
(0 7.25733e-30 2.26792e-31 34.8489 -2.73123e-15 2.69036e-17 0.349877 -8.62148e-17 2.94714e-16)
(1.30497e-15 -2.20318e-29 -5.96664e-31 34.8118 3.49524e-15 -8.36778e-15 0.355983 -3.32039e-17 -8.62004e-17)
(6.04612e-16 1.18739e-29 4.45271e-31 34.8118 -2.63362e-15 2.35373e-17 0.355983 -9.26986e-17 3.04883e-16)
(-3.42119e-16 2.70248e-30 1.1322e-31 34.7647 3.90468e-15 -8.4707e-15 0.362078 -3.77029e-17 -8.87712e-17)
(0 2.33126e-30 0 34.7647 -3.11882e-15 1.5899e-17 0.362078 -1.00376e-16 3.15202e-16)
(3.66404e-16 -7.27756e-30 -1.13747e-31 34.7048 4.17677e-15 -8.55266e-15 0.368126 -4.29903e-17 -9.11891e-17)
(1.46561e-15 9.15417e-30 2.14551e-31 34.7048 -3.07365e-15 1.96577e-17 0.368126 -1.0979e-16 3.25681e-16)
(-3.91121e-16 -1.79429e-30 4.41927e-32 34.6291 4.33179e-15 -8.6102e-15 0.374085 -4.49017e-17 -9.33608e-17)
(3.12896e-15 4.49321e-30 0 34.6291 -2.96487e-15 2.9944e-17 0.374085 -1.16745e-16 3.36357e-16)
(0 8.82175e-30 2.7568e-31 34.5341 4.49636e-15 -8.6368e-15 0.379904 -4.79636e-17 -9.52115e-17)
(1.04431e-15 -4.41088e-30 -1.3784e-31 34.5341 -3.47547e-15 2.6058e-17 0.379904 -1.24331e-16 3.47204e-16)
(0 -1.29901e-29 -4.05942e-31 34.4159 4.79018e-15 -8.62666e-15 0.385527 -5.022e-17 -9.66511e-17)
(1.7674e-15 1.29901e-29 4.05942e-31 34.4159 -3.89773e-15 1.91896e-17 0.385527 -1.34369e-16 3.58062e-16)
(-5.98233e-16 4.2507e-30 3.98503e-31 34.2702 5.03089e-15 -8.57063e-15 0.390888 -5.63662e-17 -9.75182e-17)
(1.87143e-15 -4.2507e-30 -2.65669e-31 34.2702 -3.89004e-15 2.28099e-17 0.390888 -1.46578e-16 3.68943e-16)
(-4.94284e-16 -1.48195e-30 -2.07655e-31 34.0924 4.80331e-15 -8.46471e-15 0.395914 -5.76164e-17 -9.7826e-17)
(0 8.34562e-30 3.91201e-31 34.0924 -3.72294e-15 1.88227e-17 0.395914 -1.59419e-16 3.79791e-16)
(5.76509e-16 -1.2289e-29 -6.40054e-31 33.8779 4.46305e-15 -8.30782e-15 0.400528 -5.31894e-17 -9.74703e-17)
(1.50795e-15 1.2289e-29 6.40054e-31 33.8779 -3.76325e-15 1.94851e-17 0.400528 -1.71359e-16 3.90393e-16)
(5.83554e-16 -5.35418e-30 -6.74064e-32 33.6221 4.42944e-15 -8.09605e-15 0.404651 -5.1714e-17 -9.63936e-17)
(-5.65945e-16 8.04256e-30 1.25665e-31 33.6221 -3.96487e-15 1.66609e-17 0.404651 -1.82627e-16 4.00797e-16)
(-5.75922e-16 2.68623e-30 1.84321e-31 33.3208 4.95815e-15 -7.82692e-15 0.408202 -5.43812e-17 -9.45168e-17)
(0 3.94759e-30 0 33.3208 -3.78758e-15 7.30553e-18 0.408202 -1.95451e-16 4.10887e-16)
(0 7.75051e-30 2.42203e-31 32.9702 5.77101e-15 -7.49953e-15 0.411105 -6.66802e-17 -9.18147e-17)
(0 -3.87525e-30 -1.21102e-31 32.9702 -4.15835e-15 7.14756e-18 0.411105 -2.07811e-16 4.20503e-16)
(-1.70286e-15 2.55037e-29 1.01762e-30 32.5674 6.42895e-15 -7.11644e-15 0.413291 -7.68179e-17 -8.82908e-17)
(-2.52826e-15 -1.5217e-29 -7.13295e-31 32.5674 -4.64193e-15 1.4925e-17 0.413291 -2.24181e-16 4.29452e-16)
(6.60548e-16 1.06013e-30 -6.94049e-32 32.1104 6.11921e-15 -6.68806e-15 0.414703 -8.60027e-17 -8.41254e-17)
(1.59102e-15 -3.73453e-30 0 32.1104 -3.8306e-15 1.46093e-17 0.414703 -2.40179e-16 4.37792e-16)
(0 1.09983e-29 4.58262e-31 31.5986 4.8234e-15 -6.22952e-15 0.415297 -7.16512e-17 -7.94609e-17)
(-1.03191e-15 -7.33219e-30 -2.29131e-31 31.5986 -3.20738e-15 8.01197e-18 0.415297 -2.50289e-16 4.45333e-16)
(-7.18093e-16 1.70712e-29 7.49835e-31 31.0327 4.35338e-15 -5.74498e-15 0.415047 -5.4889e-17 -7.42096e-17)
(0 -1.43957e-29 -6.74796e-31 31.0327 -3.08884e-15 5.28757e-18 0.415047 -2.59607e-16 4.5203e-16)
(2.47396e-16 -8.60037e-31 -3.2607e-32 30.4148 4.63981e-15 -5.23849e-15 0.413945 -6.16575e-17 -6.85211e-17)
(-9.94441e-16 7.06593e-30 4.41621e-31 30.4148 -2.63913e-15 -4.45175e-18 0.413945 -2.68926e-16 4.57738e-16)
(0 -1.38729e-29 -8.67056e-31 29.7481 4.64144e-15 -4.72319e-15 0.412004 -6.48371e-17 -6.2565e-17)
(3.10415e-15 1.38729e-29 8.67056e-31 29.7481 -2.62402e-15 -1.05947e-17 0.412004 -2.77759e-16 4.62503e-16)
(0 6.80934e-30 2.12792e-31 29.0374 4.91978e-15 -4.21153e-15 0.409255 -6.40267e-17 -5.64962e-17)
(0 -3.40467e-30 0 29.0374 -3.03007e-15 -2.18965e-17 0.409255 -2.90451e-16 4.6617e-16)
(8.33893e-16 6.76895e-31 2.27877e-31 28.2883 5.70506e-15 -3.71245e-15 0.405745 -7.52262e-17 -5.04091e-17)
(3.33557e-15 -3.34228e-30 -3.13339e-31 28.2883 -3.20467e-15 -1.85456e-17 0.405745 -3.02828e-16 4.68654e-16)
(-8.62631e-16 -7.18253e-30 -9.37582e-31 27.5072 6.22072e-15 -3.23337e-15 0.401536 -8.92758e-17 -4.44331e-17)
(3.45053e-15 9.8431e-30 1.02532e-30 27.5072 -4.1695e-15 6.19404e-18 0.401536 -3.12759e-16 4.70226e-16)
(-8.91165e-16 -1.66685e-29 -9.16689e-31 26.7007 6.70885e-15 -2.78482e-15 0.396699 -9.33363e-17 -3.87732e-17)
(0 1.93255e-29 1.00653e-30 26.7007 -5.30057e-15 1.34894e-17 0.396699 -3.31865e-16 4.71089e-16)
(0 1.58094e-29 5.92854e-31 25.876 7.02672e-15 -2.37673e-15 0.391315 -1.0737e-16 -3.35627e-17)
(3.67775e-15 -1.58094e-29 -5.92854e-31 25.876 -5.00517e-15 3.21937e-17 0.391315 -3.51855e-16 4.71282e-16)
(-1.89481e-15 8.40169e-30 9.63028e-31 25.0399 5.94379e-15 -2.01285e-15 0.385465 -1.06625e-16 -2.88401e-17)
(3.78961e-15 0 -3.87994e-31 25.0399 -4.17878e-15 3.65439e-17 0.385465 -3.62002e-16 4.71013e-16)
(8.57674e-16 -6.09414e-30 -3.80884e-31 24.1988 4.57024e-15 -1.70026e-15 0.379233 -7.75055e-17 -2.48562e-17)
(0 6.09414e-30 5.71326e-31 24.1988 -3.63572e-15 2.84143e-18 0.379233 -3.78454e-16 4.69871e-16)
(1.68391e-15 -1.19649e-29 -3.73904e-31 23.3589 4.08536e-15 -1.43597e-15 0.372699 -6.6829e-17 -2.13393e-17)
(0 1.19649e-29 5.60856e-31 23.3589 -3.28646e-15 -2.38458e-17 0.372699 -3.95526e-16 4.68041e-16)
(-1.02904e-15 1.43934e-29 4.64786e-31 22.5256 4.36708e-15 -1.21086e-15 0.365939 -6.46706e-17 -1.83417e-17)
(-4.11614e-15 -5.87284e-30 0 22.5256 -3.02854e-15 -5.21974e-17 0.365939 -4.12062e-16 4.65466e-16)
(-5.67378e-16 3.12204e-30 2.6149e-31 21.7035 4.84608e-15 -1.02453e-15 0.359024 -7.86723e-17 -1.58609e-17)
(4.22155e-15 -2.88261e-30 0 21.7035 -3.58722e-15 -2.41345e-17 0.359024 -4.26681e-16 4.61718e-16)
(-5.11756e-16 1.15086e-29 7.84551e-31 20.8966 4.28026e-15 -8.80641e-16 0.352015 -8.32584e-17 -1.40905e-17)
(-2.73206e-15 -1.41489e-29 -8.84309e-31 20.8966 -4.35231e-15 -1.1097e-17 0.352015 -4.42145e-16 4.57865e-16)
(-1.10668e-15 2.64184e-30 -7.29813e-32 20.1083 3.73202e-15 -7.66432e-16 0.34497 -6.22023e-17 -1.24626e-17)
(4.42671e-15 0 1.73621e-31 20.1083 -3.92838e-15 1.15392e-19 0.34497 -4.68981e-16 4.53617e-16)
(0 -1.63622e-29 -8.52196e-31 19.3411 3.85912e-15 -6.69295e-16 0.337936 -6.72137e-17 -1.11594e-17)
(9.05272e-15 1.63622e-29 1.02264e-30 19.3411 -2.92836e-15 7.3398e-17 0.337936 -4.90649e-16 4.49593e-16)
(2.66306e-15 -2.13759e-29 -1.10593e-30 18.597 3.65551e-15 -5.99671e-16 0.330954 -6.90764e-17 -1.04044e-17)
(3.11698e-15 1.33853e-29 8.3658e-31 18.597 -3.28046e-15 2.87768e-17 0.330954 -5.01492e-16 4.45295e-16)
(-2.65936e-15 1.05206e-29 5.9533e-31 17.8775 4.28856e-15 -5.5421e-16 0.324059 -6.23539e-17 -9.89854e-18)
(-4.71972e-15 -2.628e-30 -1.6425e-31 17.8775 -4.65968e-15 -5.42707e-17 0.324059 -5.23144e-16 4.3987e-16)
(0 -1.28992e-29 -1.6124e-31 17.1835 5.41562e-15 -5.21662e-16 0.317277 -9.50926e-17 -9.57025e-18)
(0 1.28992e-29 3.2248e-31 17.1835 -4.23427e-15 -5.9653e-17 0.317277 -5.49428e-16 4.3501e-16)
(-2.652e-15 1.52875e-29 8.95017e-31 16.5154 5.05762e-15 -5.03937e-16 0.310632 -1.07165e-16 -9.59126e-18)
(0 -7.5977e-30 -4.74856e-31 16.5154 -3.46974e-15 -6.53504e-17 0.310632 -5.57329e-16 4.30284e-16)
(1.39958e-15 -7.45848e-30 -3.1077e-31 15.8736 4.63968e-15 -5.06629e-16 0.304141 -8.49362e-17 -1.00361e-17)
(0 7.45848e-30 4.66155e-31 15.8736 -4.43804e-15 -7.25181e-17 0.304141 -5.79546e-16 4.25199e-16)
(-1.37394e-15 1.70842e-29 6.1015e-31 15.2579 5.40178e-15 -5.22109e-16 0.297816 -9.48644e-17 -1.05692e-17)
(-3.70899e-15 -1.95248e-29 -7.62688e-31 15.2579 -4.91322e-15 -4.80231e-17 0.297816 -6.15495e-16 4.20585e-16)
(-5.65098e-17 1.17618e-29 6.43875e-31 14.6679 5.65496e-15 -5.45777e-16 0.291668 -1.18487e-16 -1.13745e-17)
(0 -7.18763e-30 -2.99485e-31 14.6679 -4.04853e-15 -3.4129e-17 0.291668 -6.36043e-16 4.16087e-16)
(-1.31332e-15 2.60074e-31 -1.88762e-31 14.1032 4.53133e-15 -5.84174e-16 0.285701 -1.0871e-16 -1.25542e-17)
(0 7.05592e-30 5.87994e-31 14.1032 -3.59087e-15 -6.14348e-17 0.285701 -6.5771e-16 4.10902e-16)
(-2.66789e-15 -8.62369e-30 -3.65811e-31 13.5631 4.11344e-15 -6.31254e-16 0.279921 -7.65176e-17 -1.3785e-17)
(5.33577e-15 9.2355e-30 2.88609e-31 13.5631 -3.90957e-15 -7.6816e-17 0.279921 -6.7137e-16 4.0602e-16)
(-1.35414e-15 4.87539e-30 2.47933e-31 13.0468 5.29428e-15 -6.7208e-16 0.274328 -9.52148e-17 -1.4778e-17)
(0 -2.26657e-30 -1.4166e-31 13.0468 -5.30806e-15 -1.03538e-16 0.274328 -6.86313e-16 4.01402e-16)
(-2.74786e-15 1.855e-29 1.18719e-30 12.5535 5.82038e-15 -7.05156e-16 0.268923 -1.30038e-16 -1.57493e-17)
(-5.49571e-15 -1.33502e-29 -9.73451e-31 12.5535 -5.91216e-15 -6.72593e-17 0.268923 -7.24761e-16 3.97011e-16)
(-1.06594e-15 1.26913e-29 5.75179e-31 12.0824 5.24091e-15 -7.54578e-16 0.263703 -1.21784e-16 -1.7534e-17)
(-3.11399e-15 -1.96583e-29 -9.55613e-31 12.0824 -4.80078e-15 -2.34325e-17 0.263703 -7.47676e-16 3.93819e-16)
(-1.2071e-15 8.57693e-30 5.36058e-31 11.6326 4.3536e-15 -8.09027e-16 0.258666 -1.09153e-16 -1.88108e-17)
(-1.2071e-15 -4.28847e-30 -1.34015e-31 11.6326 -2.8705e-15 -8.51408e-17 0.258666 -7.64174e-16 3.90599e-16)
(-2.86186e-15 -7.43265e-30 -1.77041e-31 11.2031 4.07921e-15 -8.59385e-16 0.253808 -8.61526e-17 -2.052e-17)
(1.14475e-14 8.41976e-30 2.63118e-31 11.2031 -2.97969e-15 -1.72848e-16 0.253808 -7.64974e-16 3.86184e-16)
(-1.44919e-15 1.49934e-29 6.26286e-31 10.7931 4.25695e-15 -9.03756e-16 0.249125 -1.00596e-16 -2.16067e-17)
(5.79677e-15 -1.23982e-29 -5.16592e-31 10.7931 -6.29212e-15 -1.64402e-16 0.249125 -7.87516e-16 3.82254e-16)
(2.28389e-15 -4.057e-30 -3.80344e-31 10.4015 3.60947e-15 -9.44078e-16 0.244612 -9.77589e-17 -2.32252e-17)
(-2.28389e-15 4.057e-30 5.07126e-31 10.4015 -5.70746e-15 -8.7404e-17 0.244612 -8.36132e-16 3.7981e-16)
(-3.72672e-15 6.57671e-30 2.35871e-31 10.0277 4.04061e-15 -9.82016e-16 0.240264 -7.33632e-17 -2.42726e-17)
(5.93873e-15 3.98266e-30 2.48916e-31 10.0277 -3.28123e-15 -5.35161e-17 0.240264 -8.5984e-16 3.7815e-16)
(0 7.81936e-30 3.66533e-31 9.67061 5.36814e-15 -1.01117e-15 0.236076 -1.22486e-16 -2.55498e-17)
(0 -3.90968e-30 -1.22178e-31 9.67061 -4.10182e-15 -5.52069e-18 0.236076 -8.79086e-16 3.77327e-16)
(-1.51888e-15 1.02505e-29 3.53031e-31 9.32952 4.48572e-15 -1.0496e-15 0.232042 -1.42133e-16 -2.71339e-17)
(-2.16062e-15 -3.83804e-30 0 9.32952 -4.17099e-15 7.79572e-17 0.232042 -9.09093e-16 3.76548e-16)
(0 7.53541e-30 4.70963e-31 9.00361 1.60219e-15 -1.11005e-15 0.228157 -8.24083e-17 -2.96315e-17)
(0 -3.76771e-30 -2.35482e-31 9.00361 -1.45844e-15 1.24616e-16 0.228157 -9.31125e-16 3.77338e-16)
(0 -1.47947e-29 -6.93499e-31 8.69211 -5.44932e-16 -1.1911e-15 0.224415 -2.73324e-17 -3.24161e-17)
(6.20747e-15 1.47947e-29 6.93499e-31 8.69211 9.36453e-16 1.52747e-16 0.224415 -9.37562e-16 3.79967e-16)
(2.04401e-15 2.8026e-45 1.13465e-30 8.39429 -5.19385e-30 -1.27377e-15 0.22081 0 -3.51739e-17)
(-2.04401e-15 -1.45235e-29 -1.13465e-30 8.39429 6.7139e-16 8.98266e-17 0.22081 -9.33824e-16 3.81663e-16)
(-1.58374e-15 2.59327e-30 -1.05373e-31 8.10947 1.2342e-15 -1.33906e-15 0.217338 -2.44251e-17 -3.71986e-17)
(6.33498e-15 3.56435e-30 4.45544e-31 8.10947 8.29996e-17 -1.26073e-17 0.217338 -9.36795e-16 3.79629e-16)
(1.96978e-15 -1.39961e-29 -1.31214e-30 7.83697 1.05921e-15 -1.39711e-15 0.213992 -4.24289e-17 -3.97239e-17)
(4.42737e-15 1.39961e-29 1.31214e-30 7.83697 -6.1212e-17 8.60636e-17 0.213992 -9.47288e-16 3.77166e-16)
(-1.61459e-15 1.63326e-29 7.64113e-31 7.57617 7.80356e-16 -1.45331e-15 0.210768 -1.56239e-17 -4.17811e-17)
(-6.45834e-15 -1.37397e-29 -6.44047e-31 7.57617 -1.23088e-15 2.62151e-16 0.210768 -9.53102e-16 3.77016e-16)
(3.79651e-15 -6.74395e-30 -2.10748e-31 7.32647 1.29016e-15 -1.51789e-15 0.207661 -2.82468e-17 -4.49437e-17)
(-1.03151e-14 6.74395e-30 2.10748e-31 7.32647 -1.48735e-15 2.48341e-16 0.207661 -9.70032e-16 3.77712e-16)
(-3.28893e-15 5.18064e-30 4.5322e-31 7.08731 1.71237e-15 -1.5787e-15 0.204665 -4.56024e-17 -4.69266e-17)
(6.57787e-15 0 -2.06886e-31 7.08731 -1.47032e-15 6.47561e-17 0.204665 -9.59909e-16 3.90444e-16)
(-3.31814e-15 5.17418e-30 2.50328e-31 6.85814 2.14024e-15 -1.61609e-15 0.201777 -5.41051e-17 -4.8874e-17)
(0 0 0 6.85814 -1.53019e-15 4.06541e-17 0.201777 -9.71235e-16 4.04218e-16)
(1.7958e-15 -6.37996e-30 -3.98747e-31 6.63848 3.03725e-15 -1.65647e-15 0.198991 -7.29166e-17 -5.11556e-17)
(4.89803e-15 6.37996e-30 3.98747e-31 6.63848 -1.34024e-15 1.02315e-16 0.198991 -9.63007e-16 4.19352e-16)
(-3.45053e-15 2.13633e-29 1.30327e-30 6.42784 4.0347e-15 -1.69921e-15 0.196304 -1.10806e-16 -5.33688e-17)
(-6.75055e-15 -1.56576e-29 -9.78601e-31 6.42784 -3.04236e-15 5.45894e-17 0.196304 -9.87087e-16 4.33884e-16)
(-2.89684e-17 -1.17888e-29 -8.99574e-31 6.22576 4.44225e-15 -1.7369e-15 0.193712 -1.37581e-16 -5.54664e-17)
(1.73059e-15 9.22242e-30 7.68535e-31 6.22576 -3.8005e-15 1.43045e-16 0.193712 -1.04753e-15 4.48637e-16)
(1.71541e-15 -1.16139e-29 -5.10414e-31 6.03182 3.99441e-15 -1.77294e-15 0.191209 -1.40752e-16 -5.77013e-17)
(-6.86163e-15 9.05342e-30 3.77226e-31 6.03182 -2.59072e-15 2.70799e-16 0.191209 -1.05749e-15 4.66408e-16)
(-3.45802e-15 1.1046e-29 6.40709e-31 5.84562 3.81799e-15 -1.81279e-15 0.188793 -1.13918e-16 -6.01714e-17)
(-3.33549e-15 -2.96251e-30 -1.85157e-31 5.84562 -1.35807e-15 7.68891e-17 0.188793 -1.07486e-15 4.83093e-16)
(0 8.72466e-30 7.27055e-31 5.66678 5.51512e-15 -1.84972e-15 0.18646 -1.3448e-16 -6.23441e-17)
(0 -1.16329e-29 -1.09058e-30 5.66678 -6.26757e-16 6.74094e-17 0.18646 -1.07446e-15 4.95519e-16)
(1.48504e-16 -2.53407e-30 3.90568e-32 5.49494 6.2626e-15 -1.88715e-15 0.184207 -2.31649e-16 -6.49872e-17)
(-1.40455e-14 0 -1.78433e-31 5.49494 -4.30667e-15 2.96154e-16 0.184207 -1.06179e-15 5.11276e-16)
(3.3465e-15 -8.14057e-30 -3.16911e-31 5.32975 3.44996e-15 -1.93806e-15 0.182029 -1.90444e-16 -6.82242e-17)
(-1.57773e-15 5.60522e-30 1.75163e-31 5.32975 -4.48912e-15 1.87905e-16 0.182029 -1.12754e-15 5.28026e-16)
(1.54882e-15 -1.65075e-29 -6.87814e-31 5.17091 1.99599e-15 -1.989e-15 0.179925 -4.52921e-17 -7.10358e-17)
(5.57795e-15 1.65075e-29 6.87814e-31 5.17091 -1.03534e-15 3.29315e-17 0.179925 -1.13751e-15 5.42139e-16)
(4.83533e-15 -2.54234e-30 -1.47252e-31 5.01811 3.2758e-15 -1.99241e-15 0.17789 -9.48895e-17 -7.10401e-17)
(7.17784e-15 0 0 5.01811 -2.9726e-15 1.36751e-16 0.17789 -1.13574e-15 5.55467e-16)
(-6.29e-16 -1.88073e-29 -1.02598e-30 4.87105 2.12632e-15 -1.96895e-15 0.175923 -1.39112e-16 -7.19929e-17)
(0 1.59081e-29 9.94255e-31 4.87105 -4.8379e-15 2.14427e-16 0.175923 -1.19041e-15 5.71623e-16)
(-7.08645e-16 -1.86588e-29 -5.09131e-31 4.72948 7.66967e-16 -1.98233e-15 0.17402 -1.41881e-17 -7.4716e-17)
(7.27819e-15 1.56166e-29 6.5069e-31 4.72948 -3.65277e-15 1.0505e-16 0.17402 -1.22525e-15 5.87527e-16)
(1.83188e-15 -1.27467e-29 -7.93459e-31 4.59314 4.31933e-15 -1.99813e-15 0.172179 -9.7837e-17 -7.59079e-17)
(1.4655e-14 1.02203e-29 6.38767e-31 4.59314 -4.05177e-15 3.24628e-17 0.172179 -1.21344e-15 6.02536e-16)
(-1.84407e-15 -2.51591e-30 -4.69963e-31 4.46178 4.84426e-15 -2.00549e-15 0.170397 -2.28953e-16 -7.81021e-17)
(0 7.52474e-30 7.83827e-31 4.46178 -4.74607e-15 -1.89618e-17 0.170397 -1.26845e-15 6.18447e-16)
(-3.71227e-15 5.02134e-30 6.26802e-31 4.33518 4.03146e-15 -2.03022e-15 0.168672 -1.42206e-16 -8.07203e-17)
(7.42454e-15 0 -3.07785e-31 4.33518 -3.42907e-15 -3.30784e-17 0.168672 -1.3211e-15 6.31917e-16)
(-1.86807e-15 2.49835e-30 1.62193e-31 4.21312 5.33351e-15 -2.02755e-15 0.167002 -1.73412e-16 -8.08301e-17)
(7.47228e-15 0 3.02145e-31 4.21312 -3.12705e-15 -2.95369e-17 0.167002 -1.35924e-15 6.45702e-16)
(-2.67161e-15 4.74574e-30 8.89826e-31 4.0954 5.46673e-15 -2.03668e-15 0.165385 -2.52277e-16 -8.45103e-17)
(0 -2.37287e-30 -2.96609e-31 4.0954 -3.6136e-15 -9.74311e-17 0.165385 -1.41013e-15 6.5656e-16)
(1.89158e-15 -9.47385e-30 -4.57236e-31 3.98183 6.06657e-15 -2.07953e-15 0.163817 -1.9086e-16 -8.74516e-17)
(7.56631e-15 6.98816e-30 2.91173e-31 3.98183 -4.33692e-15 -4.12552e-17 0.163817 -1.48687e-15 6.65277e-16)
(4.47775e-15 -1.61831e-29 -1.02585e-30 3.87222 4.70737e-15 -2.11014e-15 0.162299 -3.1184e-16 -9.02972e-17)
(5.03802e-15 1.37202e-29 8.57513e-31 3.87222 -4.30013e-15 1.08708e-16 0.162299 -1.5183e-15 6.75986e-16)
(-1.91462e-15 2.49625e-30 4.51881e-31 3.76639 2.41758e-15 -2.11204e-15 0.160826 -8.25076e-17 -9.09118e-17)
(7.65848e-15 4.4896e-30 0 3.76639 -2.66198e-15 1.52865e-16 0.160826 -1.51939e-15 6.89771e-16)
(1.92598e-15 -9.0997e-30 -7.25075e-31 3.6642 1.51553e-15 -2.11215e-15 0.159399 -1.25305e-16 -9.37088e-17)
(0 6.61099e-30 5.50916e-31 3.6642 -2.19494e-16 -3.24931e-18 0.159399 -1.53951e-15 7.05663e-16)
(-1.93723e-15 8.42891e-30 9.88374e-31 3.56547 2.71606e-16 -2.13766e-15 0.158015 -6.04514e-18 -9.66306e-17)
(7.74892e-15 -4.32656e-30 -5.40821e-31 3.56547 -1.17192e-16 -6.93478e-17 0.158015 -1.51391e-15 7.17098e-16)
(1.94838e-15 -1.09975e-29 -9.76656e-31 3.47006 2.29718e-15 -2.17118e-15 0.156672 -5.76325e-17 -1.00307e-16)
(0 8.49456e-30 7.96365e-31 3.47006 -9.42461e-16 -2.75517e-17 0.156672 -1.49872e-15 7.30381e-16)
(-1.95943e-15 1.49947e-29 4.44664e-31 3.37783 3.12665e-15 -2.18009e-15 0.15537 -1.51567e-16 -1.01103e-16)
(7.83774e-15 -8.3389e-30 0 3.37783 -6.12881e-16 -9.92394e-17 0.15537 -1.51588e-15 7.42446e-16)
(-3.3379e-16 5.70079e-30 6.83378e-32 3.28866 2.92616e-15 -2.19275e-15 0.154105 -1.37148e-16 -1.0529e-16)
(7.88156e-15 -4.09305e-30 0 3.28866 -7.3992e-16 -3.03623e-17 0.154105 -1.50029e-15 7.52151e-16)
(0 4.01804e-30 5.02255e-31 3.2024 2.80063e-15 -2.21737e-15 0.152878 -1.38235e-16 -1.07294e-16)
(7.92502e-15 0 -2.51128e-31 3.2024 -1.44241e-15 1.27432e-17 0.152878 -1.50341e-15 7.63338e-16)
(0 7.88883e-30 7.39578e-31 3.11895 2.50243e-15 -2.23497e-15 0.151687 -1.3017e-16 -1.10993e-16)
(-7.96811e-15 -3.94441e-30 -2.46526e-31 3.11895 -1.29363e-15 -1.55766e-16 0.151687 -1.53827e-15 7.73802e-16)
(0 1.54885e-29 1.69406e-30 3.03818 2.24741e-15 -2.23057e-15 0.15053 -1.14051e-16 -1.10896e-16)
(8.01085e-15 -1.54885e-29 -1.69406e-30 3.03818 -3.97993e-16 -2.07357e-16 0.15053 -1.5204e-15 7.82374e-16)
(1.26559e-16 -1.65429e-29 -1.93443e-30 2.95999 2.48978e-15 -2.23262e-15 0.149406 -1.09471e-16 -1.15385e-16)
(-2.13987e-15 2.28071e-29 2.37574e-30 2.95999 -1.03066e-15 -1.56332e-16 0.149406 -1.48283e-15 7.90674e-16)
(-2.02383e-15 2.4547e-30 4.41731e-31 2.88428 3.07835e-15 -2.23986e-15 0.148314 -1.43138e-16 -1.15829e-16)
(8.09533e-15 3.73152e-30 2.3322e-31 2.88428 -1.17702e-15 -1.37141e-16 0.148314 -1.50403e-15 7.97534e-16)
(2.06217e-15 -3.66314e-30 -9.15786e-31 2.81095 2.34504e-15 -2.21422e-15 0.147253 -1.74918e-16 -1.17011e-16)
(0 3.66314e-30 1.14473e-30 2.81095 -7.91217e-16 -2.43021e-16 0.147253 -1.49196e-15 8.04528e-16)
(0 7.19204e-30 6.74253e-31 2.7399 1.41239e-15 -2.22759e-15 0.146221 -7.07036e-17 -1.21639e-16)
(-2.02438e-15 -3.59602e-30 0 2.7399 -1.06509e-15 -3.61951e-16 0.146221 -1.48352e-15 8.03661e-16)
(4.0422e-15 -3.16849e-29 -1.98608e-30 2.67105 2.95752e-15 -2.27511e-15 0.145219 -8.06766e-17 -1.26653e-16)
(6.23239e-15 2.11807e-29 1.54443e-30 2.67105 -1.37479e-15 -2.92882e-16 0.145219 -1.478e-15 7.96507e-16)
(-3.78747e-15 7.97985e-30 6.4121e-31 2.60431 6.76002e-15 -2.29869e-15 0.144244 -3.01607e-16 -1.28868e-16)
(8.26052e-15 0 0 2.60431 -2.56102e-15 -1.90558e-16 0.144244 -1.48943e-15 7.87314e-16)
(0 0 0 2.5396 6.39898e-15 -2.2845e-15 0.143295 -4.51158e-16 -1.29804e-16)
(8.30108e-15 3.40193e-30 8.50483e-31 2.5396 -3.4917e-15 -1.52092e-16 0.143295 -1.51401e-15 7.79246e-16)
(-4.17068e-15 4.79226e-30 4.68333e-31 2.47684 4.65017e-15 -2.29622e-15 0.142373 -2.71711e-16 -1.35089e-16)
(8.34137e-15 0 0 2.47684 -3.41093e-15 -6.37842e-17 0.142373 -1.53123e-15 7.69781e-16)
(3.94092e-15 -1.54988e-29 -2.69801e-30 2.41596 5.31805e-15 -2.32198e-15 0.141475 -2.6457e-16 -1.3775e-16)
(6.53581e-15 1.31136e-29 2.4588e-30 2.41596 -3.48299e-15 -1.10751e-18 0.141475 -1.56823e-15 7.6351e-16)
(0 1.60916e-29 1.20687e-30 2.35689 5.65026e-15 -2.32378e-15 0.140602 -3.61153e-16 -1.40397e-16)
(-8.42113e-15 -1.60916e-29 -1.20687e-30 2.35689 -4.06026e-15 -7.90539e-17 0.140602 -1.62971e-15 7.5599e-16)
(0 6.31869e-30 3.94918e-31 2.29956 5.10041e-15 -2.31496e-15 0.139751 -3.14671e-16 -1.41855e-16)
(0 0 -3.94918e-31 2.29956 -3.82481e-15 -5.48094e-17 0.139751 -1.67991e-15 7.44255e-16)
(-4.24994e-15 1.70846e-29 2.44998e-30 2.2439 5.54167e-15 -2.28311e-15 0.138924 -3.07098e-16 -1.41696e-16)
(0 -1.24058e-29 -1.93841e-30 2.2439 -3.26744e-15 5.18949e-17 0.138924 -1.70285e-15 7.37715e-16)
(-2.13472e-15 8.40032e-30 1.78349e-30 2.18987 5.64219e-15 -2.24559e-15 0.138118 -3.81843e-16 -1.42408e-16)
(-3.42793e-15 0 -7.61154e-31 2.18987 -4.03233e-15 2.68289e-18 0.138118 -1.72903e-15 7.32805e-16)
(0 1.49441e-29 2.61522e-30 2.13739 4.45402e-15 -2.25265e-15 0.137332 -3.31506e-16 -1.47954e-16)
(-8.57766e-15 -1.19553e-29 -2.24162e-30 2.13739 -5.32589e-15 -1.18234e-16 0.137332 -1.83332e-15 7.22209e-16)
(4.3081e-15 1.23115e-30 -1.73204e-31 2.08642 5.72943e-15 -2.32956e-15 0.136568 -2.41677e-16 -1.57965e-16)
(0 0 -3.66757e-31 2.08642 -5.41479e-15 -2.58013e-16 0.136568 -1.92425e-15 7.09068e-16)
(-2.15858e-15 6.98766e-30 1.24715e-30 2.03689 7.47704e-15 -2.36843e-15 0.135823 -5.12998e-16 -1.58776e-16)
(1.18974e-14 -1.15212e-29 -1.80018e-30 2.03689 -4.86255e-15 -1.61127e-16 0.135823 -1.98382e-15 6.88252e-16)
(-2.17315e-15 5.08081e-30 -4.24112e-31 1.98877 5.76582e-15 -2.33881e-15 0.135096 -4.86675e-16 -1.59845e-16)
(8.69262e-15 0 1.06032e-30 1.98877 -5.53578e-15 -6.29363e-17 0.135096 -2.03644e-15 6.70065e-16)
(1.2401e-15 1.01415e-30 1.18465e-31 1.94199 4.291e-15 -2.35151e-15 0.134389 -2.97037e-16 -1.66538e-16)
(0 -5.55139e-30 -6.93924e-31 1.94199 -6.57447e-15 -1.15847e-16 0.134389 -2.12682e-15 6.4386e-16)
(2.19205e-15 -2.25578e-30 -6.33897e-31 1.89651 3.88429e-15 -2.38534e-15 0.133698 -2.98442e-16 -1.70695e-16)
(8.76819e-15 2.72483e-30 3.40604e-31 1.89651 -6.80284e-15 -3.93085e-17 0.133698 -2.27208e-15 6.16492e-16)
(-2.20142e-15 7.60298e-30 1.6362e-30 1.85229 5.27282e-15 -2.39426e-15 0.133025 -2.502e-16 -1.74111e-16)
(-3.01167e-15 0 -1.00309e-30 1.85229 -6.25104e-15 -8.20661e-17 0.133025 -2.40851e-15 5.89874e-16)
(0 0 -6.56471e-31 1.80929 7.56521e-15 -2.3698e-15 0.132369 -5.11503e-16 -1.73504e-16)
(1.76859e-14 2.62588e-30 9.84707e-31 1.80929 -6.07879e-15 -4.97985e-17 0.132369 -2.459e-15 5.57697e-16)
(-2.22001e-15 -5.56212e-30 -1.62321e-30 1.76745 6.85005e-15 -2.37976e-15 0.131729 -5.99033e-16 -1.82174e-16)
(0 1.03111e-29 1.93332e-30 1.76745 -6.21098e-15 -4.95337e-17 0.131729 -2.53324e-15 5.34596e-16)
(0 -1.01221e-29 -2.21421e-30 1.72675 5.55075e-15 -2.44393e-15 0.131104 -4.22916e-16 -1.89902e-16)
(1.78339e-14 1.01221e-29 2.21421e-30 1.72675 -5.45119e-15 -1.25779e-16 0.131104 -2.64805e-15 5.04638e-16)
(-2.23842e-15 1.20999e-29 2.18665e-30 1.68715 5.97889e-15 -2.43776e-15 0.130494 -4.21986e-16 -1.88073e-16)
(0 -9.93663e-30 -1.86312e-30 1.68715 -6.51807e-15 -1.28203e-16 0.130494 -2.70695e-15 4.71624e-16)
(0 -2.43864e-30 -6.09659e-31 1.6486 6.78391e-15 -2.35468e-15 0.129899 -5.05857e-16 -1.83813e-16)
(8.99024e-15 2.43864e-30 6.09659e-31 1.6486 -6.7312e-15 -4.4273e-17 0.129899 -2.83966e-15 4.31067e-16)
(2.25665e-15 -1.40747e-29 -2.13241e-30 1.61108 6.34127e-15 -2.27526e-15 0.129318 -5.66229e-16 -1.82262e-16)
(1.80532e-14 1.19697e-29 1.79546e-30 1.61108 -6.0383e-15 2.38331e-16 0.129318 -2.95471e-15 4.00327e-16)
(-2.26571e-15 2.10039e-30 3.45486e-31 1.57455 5.26142e-15 -2.16924e-15 0.12875 -4.53033e-16 -1.73201e-16)
(9.06283e-15 0 5.8752e-31 1.57455 -4.93634e-15 4.19379e-16 0.12875 -3.12172e-15 3.90155e-16)
(-3.22753e-16 4.83391e-30 8.02152e-31 1.53898 3.85183e-15 -2.06008e-15 0.128196 -4.08922e-16 -1.70733e-16)
(6.5014e-15 0 -5.76754e-31 1.53898 -1.42967e-15 -5.97131e-17 0.128196 -3.20887e-15 3.84645e-16)
(-4.56738e-15 8.73182e-30 7.11971e-31 1.50433 2.57276e-15 -2.03744e-15 0.127654 -2.3256e-16 -1.75841e-16)
(6.58488e-15 0 0 1.50433 3.38993e-16 -3.39554e-16 0.127654 -3.22246e-15 3.48764e-16)
(-2.50315e-15 -4.44648e-30 -1.11162e-30 1.47058 3.67396e-15 -2.00726e-15 0.127125 -2.04756e-16 -1.71889e-16)
(1.8341e-14 6.66972e-30 2.22324e-30 1.47058 3.20921e-16 -3.59829e-17 0.127125 -3.23874e-15 3.19289e-16)
(0 4.365e-30 1.63688e-30 1.4377 4.28519e-15 -1.95301e-15 0.126607 -4.33893e-16 -1.72804e-16)
(9.20605e-15 -4.365e-30 -1.09125e-30 1.4377 -8.9578e-16 2.03056e-19 0.126607 -3.21715e-15 3.00883e-16)
(-2.31037e-15 4.20547e-30 1.97957e-30 1.40566 3.41194e-15 -1.89053e-15 0.126101 -3.21352e-16 -1.67028e-16)
(-2.41225e-15 0 -1.07125e-30 1.40566 -2.23183e-15 -1.15246e-16 0.126101 -3.25416e-15 2.77219e-16)
(4.68723e-15 6.35239e-30 1.20169e-30 1.37444 3.67172e-15 -1.82753e-15 0.125606 -2.91782e-16 -1.67669e-16)
(-2.36804e-15 -1.26195e-29 -2.62906e-30 1.37444 -1.75361e-15 -8.03448e-17 0.125606 -3.2736e-15 2.43086e-16)
(2.32465e-15 4.12941e-30 1.03235e-30 1.344 3.36141e-15 -1.75551e-15 0.125122 -3.81482e-16 -1.59762e-16)
(-2.32465e-15 0 -5.16176e-31 1.344 -3.20632e-16 -4.48464e-17 0.125122 -3.27057e-15 2.17038e-16)
(-2.33672e-15 1.42001e-29 2.91476e-30 1.31433 3.01764e-15 -1.72328e-15 0.124648 -2.44345e-16 -1.67804e-16)
(-2.28205e-15 -1.21612e-29 -2.53359e-30 1.31433 -1.07135e-15 -1.72261e-16 0.124648 -3.27788e-15 1.86669e-16)
(-2.34543e-15 9.97817e-30 8.8152e-31 1.2854 3.91297e-15 -1.73145e-15 0.124184 -3.29918e-16 -1.67379e-16)
(-1.1622e-14 -3.97946e-30 0 1.2854 -2.13844e-15 -2.70083e-16 0.124184 -3.42316e-15 1.48529e-16)
(-2.35411e-15 -1.9119e-30 -1.07974e-30 1.25719 4.64342e-15 -1.74816e-15 0.12373 -4.28495e-16 -1.77452e-16)
(1.88329e-14 3.90653e-30 1.95327e-30 1.25719 -1.43544e-15 -7.61211e-17 0.12373 -3.488e-15 1.00445e-16)
(0 -7.6699e-30 -2.87621e-30 1.22967 4.39026e-15 -1.78171e-15 0.123285 -4.8774e-16 -1.80489e-16)
(9.45103e-15 7.6699e-30 2.87621e-30 1.22967 -2.11115e-15 2.30274e-16 0.123285 -3.53139e-15 6.34211e-17)
(-2.5205e-16 5.72432e-30 2.27357e-30 1.20283 3.3966e-15 -1.77197e-15 0.122849 -3.93312e-16 -1.82128e-16)
(7.36617e-15 0 -1.41175e-30 1.20283 -2.3219e-15 4.10499e-17 0.122849 -3.629e-15 4.07045e-17)