/*--------------------------------*- C++ -*----------------------------------*\
| =========                 |                                                 |
| \\      /  F ield         | OpenFOAM: The Open Source CFD Toolbox           |
|  \\    /   O peration     | Version:  2106                                  |
|   \\  /    A nd           | Website:  www.openfoam.com                      |
|    \\/     M anipulation  |                                                 |
\*---------------------------------------------------------------------------*/
FoamFile
{
    version     2.0;
    format      ascii;
    arch        "LSB;label=32;scalar=64";
    class       volVectorField;
    location    "10070";
    object      grad(T);
}
// * * * * * * * * * * * * * * * * * * * * * * * * * * * * * * * * * * * * * //

dimensions      [0 -1 0 1 0 0 0];

internalField   nonuniform List<vector> 
2000
(
(1.14425e-16 455.644 0.843231)
(-1.14425e-16 455.644 0.843231)
(0 455.643 2.54543)
(-4.49311e-16 455.643 2.54543)
(-1.0363e-16 455.642 3.53267)
(0 455.642 3.53267)
(-3.39609e-16 455.64 3.5986)
(1.35844e-15 455.64 3.5986)
(1.70024e-15 455.638 3.66574)
(-1.70024e-15 455.638 3.66574)
(0 455.634 3.73414)
(-3.29946e-15 455.634 3.73414)
(1.6385e-15 455.629 3.80379)
(4.29722e-15 455.629 3.80379)
(0 455.621 3.87471)
(1.06272e-14 455.621 3.87471)
(-1.58725e-15 455.609 3.94691)
(0 455.609 3.94691)
(0 455.591 4.0204)
(3.10013e-15 455.591 4.0204)
(3.04332e-15 455.564 4.09515)
(3.04332e-15 455.564 4.09515)
(5.38068e-15 455.523 4.17115)
(6.58496e-15 455.523 4.17115)
(0 455.464 4.24836)
(0 455.464 4.24836)
(-8.7139e-15 455.377 4.32669)
(0 455.377 4.32669)
(-8.89759e-15 455.254 4.40606)
(0 455.254 4.40606)
(3.53957e-15 455.081 4.48632)
(-1.41583e-14 455.081 4.48632)
(5.44735e-15 454.842 4.56729)
(0 454.842 4.56729)
(8.2905e-15 454.517 4.64872)
(1.6581e-14 454.517 4.64872)
(-4.45649e-15 454.083 4.73033)
(-5.24954e-15 454.083 4.73033)
(4.77343e-15 453.509 4.81171)
(1.90937e-14 453.509 4.81171)
(-5.09611e-15 452.762 4.89242)
(4.07689e-14 452.762 4.89242)
(9.93241e-15 451.804 4.97191)
(1.17658e-14 451.804 4.97191)
(0 450.59 5.04953)
(2.30351e-14 450.59 5.04953)
(0 449.073 5.12457)
(1.48233e-14 449.073 5.12457)
(-6.4444e-15 447.2 5.1962)
(0 447.2 5.1962)
(-9.22415e-15 444.92 5.26357)
(3.64066e-14 444.92 5.26357)
(-1.62073e-14 442.179 5.32574)
(9.05512e-15 442.179 5.32574)
(-7.51398e-15 438.925 5.3818)
(0 438.925 5.3818)
(0 435.113 5.43081)
(-8.72629e-15 435.113 5.43081)
(-2.53845e-14 430.704 5.47194)
(-3.3007e-14 430.704 5.47194)
(8.62693e-15 425.669 5.50442)
(1.76889e-14 425.669 5.50442)
(8.25531e-15 419.993 5.52765)
(-8.25531e-15 419.993 5.52765)
(-9.38734e-15 413.673 5.54116)
(0 413.673 5.54116)
(-9.77134e-15 406.723 5.54473)
(0 406.723 5.54473)
(0 399.17 5.5383)
(4.06279e-14 399.17 5.5383)
(0 391.056 5.52204)
(0 391.056 5.52204)
(2.59826e-14 382.435 5.49631)
(2.86688e-14 382.435 5.49631)
(-4.08694e-14 373.372 5.46164)
(7.48188e-14 373.372 5.46164)
(-1.17014e-14 363.937 5.4187)
(0 363.937 5.4187)
(0 354.205 5.36828)
(4.83376e-14 354.205 5.36828)
(-2.49296e-14 344.252 5.31123)
(3.58803e-14 344.252 5.31123)
(0 334.153 5.24843)
(1.37228e-14 334.153 5.24843)
(0 323.979 5.18078)
(0 323.979 5.18078)
(-3.60607e-16 313.796 5.10914)
(-6.75647e-14 313.796 5.10914)
(1.395e-14 303.664 5.03435)
(4.28177e-14 303.664 5.03435)
(1.431e-14 293.634 4.95718)
(-5.724e-14 293.634 4.95718)
(-1.46649e-14 283.752 4.87832)
(5.86597e-14 283.752 4.87832)
(0 274.057 4.79841)
(1.20116e-13 274.057 4.79841)
(1.53586e-14 264.578 4.718)
(6.14345e-14 264.578 4.718)
(7.97376e-15 255.341 4.63759)
(-8.64596e-14 255.341 4.63759)
(0 246.364 4.55758)
(0 246.364 4.55758)
(-1.63573e-14 237.661 4.47832)
(-2.28113e-14 237.661 4.47832)
(2.23933e-14 229.24 4.40011)
(0 229.24 4.40011)
(0 221.107 4.32318)
(-6.79796e-14 221.107 4.32318)
(-4.2748e-15 213.263 4.24772)
(-2.15801e-14 213.263 4.24772)
(-3.8795e-14 205.709 4.17389)
(2.11847e-14 205.709 4.17389)
(-3.58199e-14 198.439 4.10178)
(7.16399e-14 198.439 4.10178)
(-1.82043e-14 191.451 4.0315)
(0 191.451 4.0315)
(-1.69459e-14 184.738 3.96309)
(-9.40156e-14 184.738 3.96309)
(1.87778e-14 178.292 3.89659)
(-7.51112e-14 178.292 3.89659)
(0 172.106 3.83201)
(-1.93135e-14 172.106 3.83201)
(-5.76231e-14 166.171 3.76936)
(1.73614e-13 166.171 3.76936)
(-9.89533e-16 160.478 3.70862)
(5.97947e-14 160.478 3.70862)
(0 155.018 3.64978)
(0 155.018 3.64978)
(-3.80647e-14 149.781 3.5928)
(8.05135e-14 149.781 3.5928)
(0 144.76 3.53765)
(-1.76076e-14 144.76 3.53765)
(-3.35324e-15 139.945 3.48428)
(-1.7285e-14 139.945 3.48428)
(0 135.326 3.43266)
(-3.39365e-14 135.326 3.43266)
(0 130.896 3.38273)
(8.45291e-14 130.896 3.38273)
(0 126.645 3.33445)
(0 126.645 3.33445)
(-2.16116e-14 122.567 3.28777)
(8.64462e-14 122.567 3.28777)
(0 118.652 3.24263)
(8.73838e-14 118.652 3.24263)
(8.86198e-15 114.894 3.19898)
(-1.19247e-13 114.894 3.19898)
(0 111.285 3.15678)
(-5.88473e-14 111.285 3.15678)
(-4.50591e-14 107.819 3.11598)
(9.01182e-14 107.819 3.11598)
(-4.55025e-14 104.489 3.07652)
(0 104.489 3.07652)
(0 101.288 3.03835)
(9.188e-14 101.288 3.03835)
(-5.13922e-14 98.2115 3.00144)
(-9.27438e-14 98.2115 3.00144)
(2.33992e-14 95.2525 2.96574)
(0 95.2525 2.96574)
(2.36098e-14 92.4061 2.93119)
(-9.44391e-14 92.4061 2.93119)
(-4.76356e-14 89.6671 2.89777)
(-2.66839e-14 89.6671 2.89777)
(0 87.0307 2.86542)
(0 87.0307 2.86542)
(2.42265e-14 84.4921 2.83411)
(-2.19527e-13 84.4921 2.83411)
(2.44274e-14 82.0469 2.8038)
(0 82.0469 2.8038)
(0 79.691 2.77445)
(9.85041e-14 79.691 2.77445)
(7.34765e-14 77.4204 2.74603)
(9.92899e-14 77.4204 2.74603)
(-2.61525e-14 75.2313 2.7185)
(0 75.2313 2.7185)
(-5.04184e-14 73.1201 2.69183)
(1.2428e-13 73.1201 2.69183)
(2.53996e-14 71.0834 2.66598)
(2.03196e-13 71.0834 2.66598)
(-4.81803e-14 69.118 2.64094)
(2.25923e-14 69.118 2.64094)
(-5.15493e-14 67.2207 2.61666)
(1.03099e-13 67.2207 2.61666)
(-2.59595e-14 65.3887 2.59312)
(1.03838e-13 65.3887 2.59312)
(-2.13729e-14 63.6192 2.57029)
(-2.13729e-14 63.6192 2.57029)
(2.6324e-14 61.9095 2.54816)
(1.05296e-13 61.9095 2.54816)
(2.65038e-14 60.2571 2.52668)
(1.06015e-13 60.2571 2.52668)
(-2.6682e-14 58.6597 2.50585)
(1.06728e-13 58.6597 2.50585)
(-1.2839e-14 57.1151 2.48563)
(3.96977e-14 57.1151 2.48563)
(-2.70339e-14 55.6209 2.46601)
(6.91653e-14 55.6209 2.46601)
(-1.10485e-14 54.1752 2.44696)
(3.82561e-14 54.1752 2.44696)
(-2.738e-14 52.7761 2.42847)
(7.19649e-14 52.7761 2.42847)
(2.7551e-14 51.4216 2.41051)
(7.33371e-14 51.4216 2.41051)
(0 50.11 2.39307)
(7.46914e-14 50.11 2.39307)
(0 48.8396 2.37613)
(-1.47084e-13 48.8396 2.37613)
(0 47.6088 2.35967)
(1.12225e-13 47.6088 2.35967)
(-2.82222e-14 46.4161 2.34368)
(0 46.4161 2.34368)
(-2.8387e-14 45.26 2.32814)
(1.13548e-13 45.26 2.32814)
(0 44.1391 2.31303)
(0 44.1391 2.31303)
(0 43.0521 2.29835)
(0 43.0521 2.29835)
(2.88746e-14 41.9977 2.28407)
(1.15499e-13 41.9977 2.28407)
(-2.17881e-15 40.9747 2.27018)
(8.49263e-14 40.9747 2.27018)
(0 39.982 2.25668)
(1.16778e-13 39.982 2.25668)
(-5.87057e-14 39.0183 2.24355)
(1.17411e-13 39.0183 2.24355)
(-1.88448e-17 38.0828 2.23077)
(1.4757e-13 38.0828 2.23077)
(0 37.1743 2.21834)
(-1.18667e-13 37.1743 2.21834)
(0 36.2919 2.20624)
(-2.84568e-14 36.2919 2.20624)
(-5.99543e-14 35.4346 2.19447)
(0 35.4346 2.19447)
(-3.0131e-14 34.6017 2.18301)
(-5.48469e-14 34.6017 2.18301)
(0 33.7921 2.17186)
(-1.74978e-13 33.7921 2.17186)
(8.73001e-14 33.0052 2.161)
(-2.64276e-14 33.0052 2.161)
(6.11753e-14 32.2401 2.15042)
(9.64073e-14 32.2401 2.15042)
(-3.07383e-14 31.496 2.14012)
(1.22953e-13 31.496 2.14012)
(6.17764e-14 30.7724 2.13009)
(-5.00025e-14 30.7724 2.13009)
(3.10374e-14 30.0684 2.12032)
(1.24149e-13 30.0684 2.12032)
(-3.11858e-14 29.3835 2.11081)
(-4.81867e-14 29.3835 2.11081)
(-4.73037e-14 28.7169 2.10153)
(2.97972e-13 28.7169 2.10153)
(-7.79176e-14 28.0681 2.0925)
(0 28.0681 2.0925)
(0 27.4365 2.08369)
(2.53016e-13 27.4365 2.08369)
(-3.17728e-14 26.8216 2.0751)
(0 26.8216 2.0751)
(0 26.2227 2.06673)
(1.71603e-13 26.2227 2.06673)
(3.20625e-14 25.6394 2.05857)
(2.565e-13 25.6394 2.05857)
(-3.22065e-14 25.0712 2.05061)
(1.28826e-13 25.0712 2.05061)
(-9.20968e-15 24.5176 2.04285)
(8.78399e-14 24.5176 2.04285)
(-6.49853e-14 23.9782 2.03528)
(8.91726e-14 23.9782 2.03528)
(-4.00503e-14 23.4524 2.02789)
(3.0113e-13 23.4524 2.02789)
(0 22.94 2.02068)
(1.31106e-13 22.94 2.02068)
(5.67818e-15 22.4403 2.01364)
(-3.8596e-14 22.4403 2.01364)
(3.30585e-14 21.9532 2.00677)
(0 21.9532 2.00677)
(0 21.4781 2.00007)
(0 21.4781 2.00007)
(-3.33383e-14 21.0148 1.99352)
(0 21.0148 1.99352)
(-3.34776e-14 20.5628 1.98712)
(-1.3391e-13 20.5628 1.98712)
(-6.88032e-14 20.1218 1.98086)
(3.04117e-13 20.1218 1.98086)
(0 19.6915 1.97475)
(1.35018e-13 19.6915 1.97475)
(-3.38925e-14 19.2716 1.96878)
(1.01661e-13 19.2716 1.96878)
(0 18.8618 1.96294)
(1.02832e-13 18.8618 1.96294)
(-3.41669e-14 18.4617 1.95722)
(1.36668e-13 18.4617 1.95722)
(0 18.0712 1.95163)
(1.37214e-13 18.0712 1.95163)
(-3.44397e-14 17.6898 1.94616)
(0 17.6898 1.94616)
(-6.54895e-14 17.3174 1.9408)
(3.09141e-14 17.3174 1.9408)
(-6.50584e-14 16.9536 1.93555)
(0 16.9536 1.93555)
(5.05437e-15 16.5983 1.93041)
(-1.39383e-13 16.5983 1.93041)
(0 16.2512 1.92536)
(0 16.2512 1.92536)
(2.87097e-14 15.9121 1.92041)
(-2.87097e-14 15.9121 1.92041)
(9.16158e-14 15.5807 1.91556)
(0 15.5807 1.91556)
(-9.07165e-14 15.2568 1.91079)
(1.96863e-13 15.2568 1.91079)
(-8.98358e-14 14.9402 1.90611)
(1.42062e-13 14.9402 1.90611)
(-3.56484e-14 14.6307 1.9015)
(0 14.6307 1.9015)
(0 14.3282 1.89697)
(1.43124e-13 14.3282 1.89697)
(1.54751e-14 14.0323 1.89252)
(-1.95041e-13 14.0323 1.89252)
(3.60452e-14 13.743 1.88812)
(1.44181e-13 13.743 1.88812)
(8.56991e-14 13.4601 1.88379)
(1.44707e-13 13.4601 1.88379)
(3.63081e-14 13.1833 1.87952)
(0 13.1833 1.87952)
(-4.7724e-14 12.9125 1.87531)
(1.45756e-13 12.9125 1.87531)
(-3.65698e-14 12.6476 1.87114)
(0 12.6476 1.87114)
(4.5991e-14 12.3884 1.86702)
(1.46801e-13 12.3884 1.86702)
(-3.68303e-14 12.1347 1.86294)
(-4.51482e-14 12.1347 1.86294)
(0 11.8863 1.85889)
(0 11.8863 1.85889)
(0 11.6433 1.85488)
(1.48359e-13 11.6433 1.85488)
(0 11.4053 1.85089)
(1.48876e-13 11.4053 1.85089)
(-3.7348e-14 11.1723 1.84693)
(0 11.1723 1.84693)
(-3.74767e-14 10.9441 1.84298)
(0 10.9441 1.84298)
(-3.76051e-14 10.7206 1.83905)
(0 10.7206 1.83905)
(3.58008e-14 10.5017 1.83513)
(1.50933e-13 10.5017 1.83513)
(-7.46445e-14 10.2872 1.8312)
(1.51445e-13 10.2872 1.8312)
(0 10.0771 1.82728)
(1.51955e-13 10.0771 1.82728)
(-3.81161e-14 9.87122 1.82335)
(-3.75249e-14 9.87122 1.82335)
(-7.50804e-14 9.66943 1.8194)
(0 9.66943 1.8194)
(0 9.47163 1.81544)
(0 9.47163 1.81544)
(0 9.27773 1.81145)
(1.53986e-13 9.27773 1.81145)
(-3.77371e-15 9.08761 1.80743)
(-1.8934e-13 9.08761 1.80743)
(0 8.90118 1.80338)
(0 8.90118 1.80338)
(-3.88744e-14 8.71833 1.79928)
(-3.44579e-13 8.71833 1.79928)
(-7.19679e-14 8.53898 1.79513)
(3.29681e-14 8.53898 1.79513)
(0 8.36303 1.79093)
(0 8.36303 1.79093)
(3.17709e-14 8.19038 1.78666)
(1.25228e-13 8.19038 1.78666)
(-7.87488e-14 8.02096 1.78232)
(3.14995e-13 8.02096 1.78232)
(0 7.85466 1.7779)
(1.57995e-13 7.85466 1.7779)
(-3.96227e-14 7.6914 1.7734)
(-6.01123e-14 7.6914 1.7734)
(0 7.5311 1.7688)
(-1.58986e-13 7.5311 1.7688)
(-3.98698e-14 7.37369 1.76409)
(0 7.37369 1.76409)
(0 7.21907 1.75928)
(1.59971e-13 7.21907 1.75928)
(0 7.06717 1.75434)
(1.60462e-13 7.06717 1.75434)
(4.0238e-14 6.91791 1.74927)
(3.21904e-13 6.91791 1.74927)
(4.03601e-14 6.77122 1.74406)
(1.61441e-13 6.77122 1.74406)
(0 6.62702 1.7387)
(1.61928e-13 6.62702 1.7387)
(9.24483e-14 6.48524 1.73317)
(1.62413e-13 6.48524 1.73317)
(-9.16193e-14 6.3458 1.72747)
(3.25795e-13 6.3458 1.72747)
(-4.08451e-14 6.20865 1.72157)
(-1.6338e-13 6.20865 1.72157)
(0 6.0737 1.71548)
(0 6.0737 1.71548)
(-4.10853e-14 5.94088 1.70917)
(-4.8148e-14 5.94088 1.70917)
(-8.24096e-14 5.81014 1.70263)
(0 5.81014 1.70263)
(-4.13239e-14 5.68139 1.69584)
(1.65295e-13 5.68139 1.69584)
(4.55493e-14 5.55458 1.68879)
(-4.55493e-14 5.55458 1.68879)
(-4.15607e-14 5.42964 1.68147)
(0 5.42964 1.68147)
(0 5.3065 1.67384)
(-4.38952e-14 5.3065 1.67384)
(4.17957e-14 5.1851 1.6659)
(3.34366e-13 5.1851 1.6659)
(8.38249e-14 5.06536 1.65762)
(-2.09951e-13 5.06536 1.65762)
(8.40573e-14 4.94723 1.64898)
(0 4.94723 1.64898)
(8.42887e-14 4.83064 1.63996)
(3.37155e-13 4.83064 1.63996)
(4.22594e-14 4.71552 1.63052)
(1.2902e-13 4.71552 1.63052)
(4.2374e-14 4.6018 1.62066)
(1.69496e-13 4.6018 1.62066)
(-4.24878e-14 4.48943 1.61033)
(1.69951e-13 4.48943 1.61033)
(-4.26011e-14 4.37833 1.59951)
(0 4.37833 1.59951)
(0 4.26843 1.58817)
(2.08019e-13 4.26843 1.58817)
(-8.5651e-14 4.15966 1.57627)
(1.34819e-13 4.15966 1.57627)
(-7.87515e-14 4.05195 1.56377)
(3.58149e-14 4.05195 1.56377)
(3.51586e-14 3.94523 1.55063)
(3.44376e-13 3.94523 1.55063)
(0 3.83943 1.53681)
(0 3.83943 1.53681)
(4.32651e-14 3.73446 1.52227)
(-1.7306e-13 3.73446 1.52227)
(4.33729e-14 3.63024 1.50695)
(0 3.63024 1.50695)
(-2.16563e-14 3.52671 1.4908)
(0 3.52671 1.4908)
(2.30646e-14 3.42376 1.47375)
(-6.41064e-14 3.42376 1.47375)
(0 3.3213 1.45576)
(1.74761e-13 3.3213 1.45576)
(0 3.21926 1.43674)
(1.75176e-13 3.21926 1.43674)
(4.38964e-14 3.11751 1.41662)
(1.75586e-13 3.11751 1.41662)
(0 3.01597 1.39531)
(-2.35526e-13 3.01597 1.39531)
(-4.40976e-14 2.91452 1.37274)
(0 2.91452 1.37274)
(-4.41962e-14 2.81304 1.34879)
(1.19412e-13 2.81304 1.34879)
(0 2.71141 1.32336)
(1.77173e-13 2.71141 1.32336)
(1.09008e-14 2.60949 1.29633)
(-1.77555e-13 2.60949 1.29633)
(4.44828e-14 2.50715 1.26758)
(3.55862e-13 2.50715 1.26758)
(1.06564e-13 2.40423 1.23695)
(7.17362e-14 2.40423 1.23695)
(-4.46654e-14 2.30056 1.2043)
(0 2.30056 1.2043)
(-6.59328e-15 2.19598 1.16944)
(2.30362e-13 2.19598 1.16944)
(5.56605e-15 2.09029 1.1322)
(2.29766e-13 2.09029 1.1322)
(-4.49242e-14 1.9833 1.09237)
(1.79697e-13 1.9833 1.09237)
(4.85757e-14 1.8748 1.04971)
(0 1.8748 1.04971)
(4.50851e-14 1.76456 1.004)
(0 1.76456 1.004)
(-9.03231e-14 1.65235 0.954969)
(1.80646e-13 1.65235 0.954969)
(9.19079e-14 1.53794 0.902334)
(0 1.53794 0.902334)
(0 1.42107 0.845801)
(9.02237e-14 1.42107 0.845801)
(-4.31977e-14 1.3015 0.78506)
(2.70061e-13 1.3015 0.78506)
(-4.54362e-14 1.179 0.71979)
(1.81745e-13 1.179 0.71979)
(-8.81729e-14 1.05334 0.649671)
(0 1.05334 0.649671)
(0 0.924336 0.574385)
(-8.379e-14 0.924336 0.574385)
(0 0.791831 0.493634)
(-1.8241e-13 0.791831 0.493634)
(3.50985e-14 0.655726 0.407147)
(-8.07473e-14 0.655726 0.407147)
(-6.05603e-15 0.515987 0.314691)
(1.82759e-13 0.515987 0.314691)
(0 0.372659 0.216087)
(1.82901e-13 0.372659 0.216087)
(-4.57549e-14 0.225865 0.111211)
(0 0.225865 0.111211)
(-1.20767e-13 7.50203e-07 2.77671e-07)
(4.41327e-13 4.86272e-07 1.79982e-07)
(0 455.644 -0.843231)
(0 455.644 -0.843231)
(-4.49311e-16 455.643 -2.54543)
(0 455.643 -2.54543)
(-2.07261e-16 455.642 -3.53267)
(0 455.642 -3.53267)
(3.39609e-16 455.64 -3.5986)
(-8.6599e-16 455.64 -3.5986)
(5.40256e-16 455.638 -3.66574)
(-1.70024e-15 455.638 -3.66574)
(8.24864e-16 455.634 -3.73414)
(-1.66909e-15 455.634 -3.73414)
(-3.277e-15 455.629 -3.80379)
(-1.6385e-15 455.629 -3.80379)
(2.65681e-15 455.621 -3.87471)
(0 455.621 -3.87471)
(-1.58725e-15 455.609 -3.94691)
(6.34898e-15 455.609 -3.94691)
(1.85092e-15 455.591 -4.0204)
(-7.40368e-15 455.591 -4.0204)
(1.19571e-15 455.564 -4.09515)
(-8.47807e-15 455.564 -4.09515)
(2.39313e-15 455.523 -4.17115)
(0 455.523 -4.17115)
(-2.67185e-15 455.464 -4.24836)
(-1.06874e-14 455.464 -4.24836)
(2.87907e-15 455.377 -4.32669)
(-1.18231e-14 455.377 -4.32669)
(3.24497e-15 455.254 -4.40606)
(-1.29799e-14 455.254 -4.40606)
(-5.54904e-15 455.081 -4.48632)
(0 455.081 -4.48632)
(3.83963e-15 454.842 -4.56729)
(-2.08059e-14 454.842 -4.56729)
(4.14525e-15 454.517 -4.64872)
(1.6581e-14 454.517 -4.64872)
(4.45649e-15 454.083 -4.73033)
(0 454.083 -4.73033)
(9.54686e-15 453.509 -4.81171)
(-5.15334e-15 453.509 -4.81171)
(5.09611e-15 452.762 -4.89242)
(2.03844e-14 452.762 -4.89242)
(5.42456e-15 451.804 -4.97191)
(2.16982e-14 451.804 -4.97191)
(-5.75878e-15 450.59 -5.04953)
(0 450.59 -5.04953)
(1.21975e-14 449.073 -5.12457)
(0 449.073 -5.12457)
(-2.95193e-15 447.2 -5.1962)
(9.39633e-15 447.2 -5.1962)
(0 444.92 -5.26357)
(0 444.92 -5.26357)
(-9.05512e-15 442.179 -5.32574)
(0 442.179 -5.32574)
(1.5028e-14 438.925 -5.3818)
(0 438.925 -5.3818)
(7.88062e-15 435.113 -5.43081)
(3.15225e-14 435.113 -5.43081)
(1.65035e-14 430.704 -5.47194)
(0 430.704 -5.47194)
(1.70363e-14 425.669 -5.50442)
(-8.40941e-15 425.669 -5.50442)
(1.7261e-14 419.993 -5.52765)
(-8.25531e-15 419.993 -5.52765)
(9.38734e-15 413.673 -5.54116)
(-3.75493e-14 413.673 -5.54116)
(0 406.723 -5.54473)
(-3.90853e-14 406.723 -5.54473)
(0 399.17 -5.5383)
(1.56195e-14 399.17 -5.5383)
(1.05435e-14 391.056 -5.52204)
(-4.21741e-14 391.056 -5.52204)
(6.80823e-15 382.435 -5.49631)
(0 382.435 -5.49631)
(-1.13165e-14 373.372 -5.46164)
(-4.52658e-14 373.372 -5.46164)
(-1.17014e-14 363.937 -5.4187)
(-1.08117e-13 363.937 -5.4187)
(2.15549e-15 354.205 -5.36828)
(-1.42399e-14 354.205 -5.36828)
(-1.24648e-14 344.252 -5.31123)
(0 344.252 -5.31123)
(-1.28421e-14 334.153 -5.24843)
(-1.02736e-13 334.153 -5.24843)
(2.64313e-14 323.979 -5.18078)
(0 323.979 -5.18078)
(1.35851e-14 313.796 -5.10914)
(-6.75647e-14 313.796 -5.10914)
(4.0882e-14 303.664 -5.03435)
(4.28177e-14 303.664 -5.03435)
(2.70542e-14 293.634 -4.95718)
(-5.724e-14 293.634 -4.95718)
(-2.93298e-14 283.752 -4.87832)
(-5.86597e-14 283.752 -4.87832)
(3.0029e-14 274.057 -4.79841)
(6.0058e-14 274.057 -4.79841)
(0 264.578 -4.718)
(0 264.578 -4.718)
(-1.56972e-14 255.341 -4.63759)
(-1.25577e-13 255.341 -4.63759)
(1.60301e-14 246.364 -4.55758)
(-8.73574e-14 246.364 -4.55758)
(1.63573e-14 237.661 -4.47832)
(0 237.661 -4.47832)
(0 229.24 -4.40011)
(-1.33431e-13 229.24 -4.40011)
(1.69949e-14 221.107 -4.32318)
(0 221.107 -4.32318)
(1.30306e-14 213.263 -4.24772)
(2.15801e-14 213.263 -4.24772)
(0 205.709 -4.17389)
(-9.16261e-14 205.709 -4.17389)
(-2.88652e-15 198.439 -4.10178)
(0 198.439 -4.10178)
(1.82043e-14 191.451 -4.0315)
(-7.28174e-14 191.451 -4.0315)
(0 184.738 -3.96309)
(-7.39743e-14 184.738 -3.96309)
(0 178.292 -3.89659)
(-7.51112e-14 178.292 -3.89659)
(1.90571e-14 172.106 -3.83201)
(0 172.106 -3.83201)
(1.89596e-14 166.171 -3.76936)
(-1.89596e-14 166.171 -3.76936)
(3.82139e-14 160.478 -3.70862)
(-1.86122e-14 160.478 -3.70862)
(1.98672e-14 155.018 -3.64978)
(-1.82711e-14 155.018 -3.64978)
(1.79363e-14 149.781 -3.5928)
(-9.84499e-14 149.781 -3.5928)
(0 144.76 -3.53765)
(0 144.76 -3.53765)
(3.79232e-14 139.945 -3.48428)
(-9.98379e-14 139.945 -3.48428)
(0 135.326 -3.43266)
(-8.35486e-14 135.326 -3.43266)
(0 130.896 -3.38273)
(0 130.896 -3.38273)
(-2.13737e-14 126.645 -3.33445)
(1.7099e-13 126.645 -3.33445)
(3.21048e-14 122.567 -3.28777)
(0 122.567 -3.28777)
(2.18459e-14 118.652 -3.24263)
(-8.73838e-14 118.652 -3.24263)
(5.3016e-14 114.894 -3.19898)
(-1.19247e-13 114.894 -3.19898)
(3.0372e-14 111.285 -3.15678)
(-1.78439e-13 111.285 -3.15678)
(7.28594e-15 107.819 -3.11598)
(-2.98155e-14 107.819 -3.11598)
(0 104.489 -3.07652)
(0 104.489 -3.07652)
(0 101.288 -3.03835)
(9.188e-14 101.288 -3.03835)
(5.0203e-15 98.2115 -3.00144)
(-3.70975e-13 98.2115 -3.00144)
(4.67984e-14 95.2525 -2.96574)
(-9.35967e-14 95.2525 -2.96574)
(-2.36098e-14 92.4061 -2.93119)
(0 92.4061 -2.93119)
(-2.38178e-14 89.6671 -2.89777)
(-9.52712e-14 89.6671 -2.89777)
(-4.80467e-14 87.0307 -2.86542)
(-1.22288e-13 87.0307 -2.86542)
(-2.42265e-14 84.4921 -2.83411)
(-2.45242e-13 84.4921 -2.83411)
(4.88548e-14 82.0469 -2.8038)
(-9.77096e-14 82.0469 -2.8038)
(-2.49362e-14 79.691 -2.77445)
(1.48066e-13 79.691 -2.77445)
(0 77.4204 -2.74603)
(9.92899e-14 77.4204 -2.74603)
(1.13564e-15 75.2313 -2.7185)
(-1.4783e-13 75.2313 -2.7185)
(-2.69748e-14 73.1201 -2.69183)
(5.39495e-14 73.1201 -2.69183)
(7.14275e-14 71.0834 -2.66598)
(-4.6028e-14 71.0834 -2.66598)
(-2.99574e-15 69.118 -2.64094)
(0 69.118 -2.64094)
(0 67.2207 -2.61666)
(-4.43566e-14 67.2207 -2.61666)
(2.59595e-14 65.3887 -2.59312)
(1.03838e-13 65.3887 -2.59312)
(2.13729e-14 63.6192 -2.57029)
(-1.0457e-13 63.6192 -2.57029)
(0 61.9095 -2.54816)
(-4.19625e-14 61.9095 -2.54816)
(2.65038e-14 60.2571 -2.52668)
(6.48216e-14 60.2571 -2.52668)
(0 58.6597 -2.50585)
(0 58.6597 -2.50585)
(0 57.1151 -2.48563)
(-2.1487e-13 57.1151 -2.48563)
(0 55.6209 -2.46601)
(0 55.6209 -2.46601)
(2.72076e-14 54.1752 -2.44696)
(-1.08831e-13 54.1752 -2.44696)
(2.738e-14 52.7761 -2.42847)
(0 52.7761 -2.42847)
(2.7551e-14 51.4216 -2.41051)
(2.57275e-13 51.4216 -2.41051)
(2.77207e-14 50.11 -2.39307)
(0 50.11 -2.39307)
(2.78891e-14 48.8396 -2.37613)
(-1.11556e-13 48.8396 -2.37613)
(-6.82083e-15 47.6088 -2.35967)
(1.12225e-13 47.6088 -2.35967)
(3.4238e-14 46.4161 -2.34368)
(0 46.4161 -2.34368)
(5.22358e-15 45.26 -2.32814)
(-1.47159e-13 45.26 -2.32814)
(0 44.1391 -2.31303)
(-3.29947e-14 44.1391 -2.31303)
(3.23901e-14 43.0521 -2.29835)
(-3.23901e-14 43.0521 -2.29835)
(0 41.9977 -2.28407)
(3.17965e-14 41.9977 -2.28407)
(3.12139e-14 40.9747 -2.27018)
(-1.47354e-13 40.9747 -2.27018)
(-3.06419e-14 39.982 -2.25668)
(-3.06419e-14 39.982 -2.25668)
(0 39.0183 -2.24355)
(0 39.0183 -2.24355)
(-1.88448e-17 38.0828 -2.23077)
(0 38.0828 -2.23077)
(-2.96668e-14 37.1743 -2.21834)
(0 37.1743 -2.21834)
(-2.98224e-14 36.2919 -2.20624)
(-2.84568e-14 36.2919 -2.20624)
(2.99772e-14 35.4346 -2.19447)
(-2.79354e-14 35.4346 -2.19447)
(0 34.6017 -2.18301)
(-2.74235e-14 34.6017 -2.18301)
(-6.05681e-14 33.7921 -2.17186)
(-2.15351e-13 33.7921 -2.17186)
(0 33.0052 -2.161)
(0 33.0052 -2.161)
(3.05877e-14 32.2401 -2.15042)
(0 32.2401 -2.15042)
(-5.09359e-14 31.496 -2.14012)
(1.22953e-13 31.496 -2.14012)
(0 30.7724 -2.13009)
(-1.23553e-13 30.7724 -2.13009)
(0 30.0684 -2.12032)
(-1.73236e-13 30.0684 -2.12032)
(-3.11858e-14 29.3835 -2.11081)
(-1.24743e-13 29.3835 -2.11081)
(0 28.7169 -2.10153)
(7.80305e-14 28.7169 -2.10153)
(3.14806e-14 28.0681 -2.0925)
(0 28.0681 -2.0925)
(6.32541e-14 27.4365 -2.08369)
(1.26508e-13 27.4365 -2.08369)
(-3.17728e-14 26.8216 -2.0751)
(1.27091e-13 26.8216 -2.0751)
(-4.39306e-14 26.2227 -2.06673)
(-4.39306e-14 26.2227 -2.06673)
(3.20625e-14 25.6394 -2.05857)
(-4.31256e-14 25.6394 -2.05857)
(3.22065e-14 25.0712 -2.05061)
(1.28826e-13 25.0712 -2.05061)
(3.23498e-14 24.5176 -2.04285)
(8.78399e-14 24.5176 -2.04285)
(7.32906e-14 23.9782 -2.03528)
(-4.0798e-14 23.9782 -2.03528)
(4.00503e-14 23.4524 -2.02789)
(-1.3054e-13 23.4524 -2.02789)
(1.11409e-13 22.94 -2.02068)
(-3.93164e-14 22.94 -2.02068)
(-3.29178e-14 22.4403 -2.01364)
(0 22.4403 -2.01364)
(0 21.9532 -2.00677)
(0 21.9532 -2.00677)
(3.31987e-14 21.4781 -2.00007)
(0 21.4781 -2.00007)
(1.0319e-13 21.0148 -1.99352)
(0 21.0148 -1.99352)
(0 20.5628 -1.98712)
(0 20.5628 -1.98712)
(6.88032e-14 20.1218 -1.98086)
(2.68931e-13 20.1218 -1.98086)
(3.45421e-14 19.6915 -1.97475)
(-3.45421e-14 19.6915 -1.97475)
(-6.78016e-14 19.2716 -1.96878)
(0 19.2716 -1.96878)
(-3.40299e-14 18.8618 -1.96294)
(0 18.8618 -1.96294)
(0 18.4617 -1.95722)
(3.26778e-14 18.4617 -1.95722)
(3.43035e-14 18.0712 -1.95163)
(0 18.0712 -1.95163)
(0 17.6898 -1.94616)
(6.29823e-14 17.6898 -1.94616)
(6.91509e-14 17.3174 -1.9408)
(-1.38302e-13 17.3174 -1.9408)
(6.94217e-14 16.9536 -1.93555)
(-1.38843e-13 16.9536 -1.93555)
(-5.05437e-15 16.5983 -1.93041)
(-4.1815e-13 16.5983 -1.93041)
(-3.49805e-14 16.2512 -1.92536)
(-2.92456e-14 16.2512 -1.92536)
(5.74193e-14 15.9121 -1.92041)
(8.30399e-14 15.9121 -1.92041)
(-5.63671e-14 15.5807 -1.91556)
(0 15.5807 -1.91556)
(3.53823e-14 15.2568 -1.91079)
(0 15.2568 -1.91079)
(-3.55155e-14 14.9402 -1.90611)
(-1.42062e-13 14.9402 -1.90611)
(0 14.6307 -1.9015)
(0 14.6307 -1.9015)
(3.5781e-14 14.3282 -1.89697)
(1.43124e-13 14.3282 -1.89697)
(7.18265e-14 14.0323 -1.89252)
(-1.43653e-13 14.0323 -1.89252)
(0 13.743 -1.88812)
(-1.44181e-13 13.743 -1.88812)
(3.61768e-14 13.4601 -1.88379)
(0 13.4601 -1.88379)
(-4.86148e-14 13.1833 -1.87952)
(-1.45232e-13 13.1833 -1.87952)
(4.7724e-14 12.9125 -1.87531)
(-3.39237e-13 12.9125 -1.87531)
(-4.68495e-14 12.6476 -1.87114)
(-4.68495e-14 12.6476 -1.87114)
(7.34005e-14 12.3884 -1.86702)
(1.46801e-13 12.3884 -1.86702)
(3.68303e-14 12.1347 -1.86294)
(0 12.1347 -1.86294)
(0 11.8863 -1.85889)
(1.92162e-13 11.8863 -1.85889)
(8.05984e-14 11.6433 -1.85488)
(-1.91868e-13 11.6433 -1.85488)
(0 11.4053 -1.85089)
(-1.91587e-13 11.4053 -1.85089)
(0 11.1723 -1.84693)
(4.19287e-14 11.1723 -1.84693)
(3.74767e-14 10.9441 -1.84298)
(-1.49907e-13 10.9441 -1.84298)
(7.52102e-14 10.7206 -1.83905)
(-1.5042e-13 10.7206 -1.83905)
(7.7399e-14 10.5017 -1.83513)
(1.11267e-13 10.5017 -1.83513)
(3.67834e-14 10.2872 -1.8312)
(1.51445e-13 10.2872 -1.8312)
(3.79887e-14 10.0771 -1.82728)
(0 10.0771 -1.82728)
(-3.81161e-14 9.87122 -1.82335)
(0 9.87122 -1.82335)
(3.82431e-14 9.66943 -1.8194)
(-1.52973e-13 9.66943 -1.8194)
(3.83699e-14 9.47163 -1.81544)
(1.17318e-13 9.47163 -1.81544)
(1.12492e-13 9.27773 -1.81145)
(-3.54995e-14 9.27773 -1.81145)
(0 9.08761 -1.80743)
(1.8934e-13 9.08761 -1.80743)
(-4.53829e-15 8.90118 -1.80338)
(-1.89205e-13 8.90118 -1.80338)
(1.11332e-13 8.71833 -1.79928)
(-1.89081e-13 8.71833 -1.79928)
(-3.89998e-14 8.53898 -1.79513)
(-3.11999e-13 8.53898 -1.79513)
(7.1489e-14 8.36303 -1.79093)
(-1.88864e-13 8.36303 -1.79093)
(-3.17709e-14 8.19038 -1.78666)
(1.25228e-13 8.19038 -1.78666)
(1.63714e-14 8.02096 -1.78232)
(1.57498e-13 8.02096 -1.78232)
(1.00733e-13 7.85466 -1.7779)
(-1.57995e-13 7.85466 -1.7779)
(-2.04896e-14 7.6914 -1.7734)
(0 7.6914 -1.7734)
(5.90108e-14 7.5311 -1.7688)
(-2.17996e-13 7.5311 -1.7688)
(0 7.37369 -1.76409)
(-1.59479e-13 7.37369 -1.76409)
(0 7.21907 -1.75928)
(-1.59971e-13 7.21907 -1.75928)
(0 7.06717 -1.75434)
(0 7.06717 -1.75434)
(4.0238e-14 6.91791 -1.74927)
(0 6.91791 -1.74927)
(4.03601e-14 6.77122 -1.74406)
(1.61441e-13 6.77122 -1.74406)
(4.04819e-14 6.62702 -1.7387)
(0 6.62702 -1.7387)
(0 6.48524 -1.73317)
(1.62413e-13 6.48524 -1.73317)
(0 6.3458 -1.72747)
(0 6.3458 -1.72747)
(4.99623e-14 6.20865 -1.72157)
(-2.13343e-13 6.20865 -1.72157)
(-4.90467e-14 6.0737 -1.71548)
(0 6.0737 -1.71548)
(-4.10853e-14 5.94088 -1.70917)
(0 5.94088 -1.70917)
(6.06088e-15 5.81014 -1.70263)
(-2.12085e-13 5.81014 -1.70263)
(-4.13239e-14 5.68139 -1.69584)
(-2.11695e-13 5.68139 -1.69584)
(4.55493e-14 5.55458 -1.68879)
(-4.55493e-14 5.55458 -1.68879)
(4.47146e-14 5.42964 -1.68147)
(-3.772e-13 5.42964 -1.68147)
(0 5.3065 -1.67384)
(-2.10609e-13 5.3065 -1.67384)
(0 5.1851 -1.6659)
(0 5.1851 -1.6659)
(4.23012e-14 5.06536 -1.65762)
(-2.09951e-13 5.06536 -1.65762)
(-5.02591e-16 4.94723 -1.64898)
(-4.15261e-14 4.94723 -1.64898)
(4.35236e-14 4.83064 -1.63996)
(1.27812e-13 4.83064 -1.63996)
(8.45189e-14 4.71552 -1.63052)
(0 4.71552 -1.63052)
(8.47479e-14 4.6018 -1.62066)
(-2.08781e-13 4.6018 -1.62066)
(8.10528e-14 4.48943 -1.61033)
(0 4.48943 -1.61033)
(-4.26011e-14 4.37833 -1.59951)
(-3.78582e-14 4.37833 -1.59951)
(0 4.26843 -1.58817)
(1.70855e-13 4.26843 -1.58817)
(-4.28255e-14 4.15966 -1.57627)
(1.71302e-13 4.15966 -1.57627)
(0 4.05195 -1.56377)
(-2.07561e-13 4.05195 -1.56377)
(0 3.94523 -1.55063)
(-2.07346e-13 3.94523 -1.55063)
(-4.31565e-14 3.83943 -1.53681)
(-2.41655e-13 3.83943 -1.53681)
(8.65302e-14 3.73446 -1.52227)
(-1.7306e-13 3.73446 -1.52227)
(4.33729e-14 3.63024 -1.50695)
(0 3.63024 -1.50695)
(-6.5303e-14 3.52671 -1.4908)
(1.08616e-13 3.52671 -1.4908)
(0 3.42376 -1.47375)
(0 3.42376 -1.47375)
(0 3.3213 -1.45576)
(-1.74761e-13 3.3213 -1.45576)
(6.17784e-14 3.21926 -1.43674)
(-6.17784e-14 3.21926 -1.43674)
(4.38964e-14 3.11751 -1.41662)
(1.75586e-13 3.11751 -1.41662)
(4.39976e-14 3.01597 -1.39531)
(-3.51981e-13 3.01597 -1.39531)
(0 2.91452 -1.37274)
(0 2.91452 -1.37274)
(-1.31769e-14 2.81304 -1.34879)
(0 2.81304 -1.34879)
(1.00615e-13 2.71141 -1.32336)
(-2.33495e-13 2.71141 -1.32336)
(-9.96785e-14 2.60949 -1.29633)
(1.77555e-13 2.60949 -1.29633)
(3.46891e-14 2.50715 -1.26758)
(1.77931e-13 2.50715 -1.26758)
(3.58681e-14 2.40423 -1.23695)
(0 2.40423 -1.23695)
(-7.64017e-15 2.30056 -1.2043)
(0 2.30056 -1.2043)
(4.47538e-14 2.19598 -1.16944)
(-5.13471e-14 2.19598 -1.16944)
(-5.56605e-15 2.09029 -1.1322)
(-2.80173e-13 2.09029 -1.1322)
(-5.40407e-14 1.9833 -1.09237)
(2.78662e-13 1.9833 -1.09237)
(0 1.8748 -1.04971)
(-1.80024e-13 1.8748 -1.04971)
(4.50851e-14 1.76456 -1.004)
(-2.28026e-13 1.76456 -1.004)
(9.19733e-14 1.65235 -0.954969)
(0 1.65235 -0.954969)
(4.59539e-14 1.53794 -0.902334)
(1.8094e-13 1.53794 -0.902334)
(0 1.42107 -0.845801)
(-3.62445e-13 1.42107 -0.845801)
(0 1.3015 -0.78506)
(-1.81491e-13 1.3015 -0.78506)
(4.54362e-14 1.179 -0.71979)
(-1.81745e-13 1.179 -0.71979)
(4.54959e-14 1.05334 -0.649671)
(1.81984e-13 1.05334 -0.649671)
(4.55514e-14 0.924336 -0.574385)
(-3.64411e-13 0.924336 -0.574385)
(1.7346e-13 0.791831 -0.493634)
(-2.64665e-13 0.791831 -0.493634)
(0 0.655726 -0.407147)
(0 0.655726 -0.407147)
(-8.53236e-14 0.515987 -0.314691)
(1.03492e-13 0.515987 -0.314691)
(0 0.372659 -0.216087)
(-2.60716e-13 0.372659 -0.216087)
(3.06342e-14 0.225865 -0.111211)
(1.0663e-13 0.225865 -0.111211)
(1.20767e-13 7.72999e-07 -2.86108e-07)
(1.8334e-13 4.41291e-07 -1.63334e-07)
(4.58349e-14 -7.50995e-07 2.77966e-07)
(1.83112e-13 -4.85548e-07 1.79714e-07)
(3.81946e-14 -0.225865 0.111211)
(2.8965e-13 -0.225865 0.111211)
(-4.57254e-14 -0.372658 0.216086)
(0 -0.372658 0.216086)
(0 -0.515987 0.314691)
(1.82759e-13 -0.515987 0.314691)
(0 -0.655725 0.407146)
(3.6519e-13 -0.655725 0.407146)
(3.66521e-14 -0.79183 0.493634)
(-2.64665e-13 -0.79183 0.493634)
(0 -0.924336 0.574385)
(8.379e-14 -0.924336 0.574385)
(-4.54959e-14 -1.05334 0.64967)
(-1.81984e-13 -1.05334 0.64967)
(0 -1.179 0.71979)
(0 -1.179 0.71979)
(4.53727e-14 -1.3015 0.78506)
(0 -1.3015 0.78506)
(0 -1.42107 0.845801)
(1.81222e-13 -1.42107 0.845801)
(0 -1.53794 0.902334)
(2.26894e-13 -1.53794 0.902334)
(0 -1.65235 0.954969)
(0 -1.65235 0.954969)
(5.02861e-14 -1.76456 1.004)
(-2.75711e-13 -1.76456 1.004)
(1.87163e-13 -1.8748 1.04971)
(-9.71514e-14 -1.8748 1.04971)
(-4.94825e-14 -1.9833 1.09237)
(4.94825e-14 -1.9833 1.09237)
(8.96802e-14 -2.09029 1.1322)
(1.28954e-13 -2.09029 1.1322)
(6.59328e-15 -2.19598 1.16944)
(-2.30362e-13 -2.19598 1.16944)
(-8.93307e-14 -2.30056 1.2043)