/*--------------------------------*- C++ -*----------------------------------*\
| =========                 |                                                 |
| \\      /  F ield         | OpenFOAM: The Open Source CFD Toolbox           |
|  \\    /   O peration     | Version:  2106                                  |
|   \\  /    A nd           | Website:  www.openfoam.com                      |
|    \\/     M anipulation  |                                                 |
\*---------------------------------------------------------------------------*/
FoamFile
{
    version     2.0;
    format      ascii;
    arch        "LSB;label=32;scalar=64";
    class       volVectorField;
    location    "10070";
    object      U;
}
// * * * * * * * * * * * * * * * * * * * * * * * * * * * * * * * * * * * * * //

dimensions      [0 1 -1 0 0 0 0];

internalField   nonuniform List<vector> 
2000
(
(0.00324201 -6.02961e-16 -9.56572e-18)
(0.00324201 -3.77725e-19 5.36263e-22)
(0.00978532 -2.16322e-15 -2.64329e-17)
(0.00978532 -1.47946e-19 2.88537e-21)
(0.0164495 -2.10274e-15 -2.79424e-17)
(0.0164495 -7.14217e-19 7.51226e-21)
(0.0232368 -2.01231e-15 -2.90523e-17)
(0.0232368 -1.10689e-18 1.25178e-20)
(0.0301494 -1.89128e-15 -3.02903e-17)
(0.0301494 -1.49517e-18 1.74783e-20)
(0.0371896 -1.95509e-15 -3.16215e-17)
(0.0371896 -1.92473e-18 2.20836e-20)
(0.0443598 -1.95873e-15 -3.3006e-17)
(0.0443598 -2.38139e-18 2.71905e-20)
(0.0516622 -1.95756e-15 -3.4442e-17)
(0.0516622 -2.81926e-18 3.28129e-20)
(0.0590993 -1.95678e-15 -3.59346e-17)
(0.0590993 -3.28307e-18 3.89284e-20)
(0.0666735 -1.95613e-15 -3.74861e-17)
(0.0666735 -3.82952e-18 4.42384e-20)
(0.074387 -1.95545e-15 -3.90983e-17)
(0.074387 -4.38083e-18 4.97508e-20)
(0.0822423 -1.95474e-15 -4.07735e-17)
(0.0822423 -4.93661e-18 5.49087e-20)
(0.0902416 -1.95396e-15 -4.25142e-17)
(0.0902416 -5.52482e-18 6.18262e-20)
(0.098387 -1.95306e-15 -4.43225e-17)
(0.098387 -6.1635e-18 6.90913e-20)
(0.106681 -1.95209e-15 -4.61997e-17)
(0.106681 -6.83286e-18 7.60971e-20)
(0.115124 -1.95117e-15 -4.81466e-17)
(0.115124 -7.55572e-18 7.99378e-20)
(0.123719 -1.9503e-15 -5.01638e-17)
(0.123719 -8.31631e-18 8.56369e-20)
(0.132466 -1.94947e-15 -5.22508e-17)
(0.132466 -8.91322e-18 9.33431e-20)
(0.141365 -1.94853e-15 -5.44058e-17)
(0.141365 -9.65252e-18 9.75347e-20)
(0.150417 -1.94745e-15 -5.66251e-17)
(0.150417 -1.05248e-17 1.01551e-19)
(0.15962 -1.94633e-15 -5.89048e-17)
(0.15962 -1.1268e-17 1.07896e-19)
(0.168972 -1.94513e-15 -6.12388e-17)
(0.168972 -1.21143e-17 1.17626e-19)
(0.17847 -1.94387e-15 -6.36191e-17)
(0.17847 -1.31668e-17 1.22069e-19)
(0.188108 -1.94246e-15 -6.60354e-17)
(0.188108 -1.42819e-17 1.28311e-19)
(0.19788 -1.94102e-15 -6.84734e-17)
(0.19788 -1.53697e-17 1.34992e-19)
(0.207778 -1.93969e-15 -7.0919e-17)
(0.207778 -1.64295e-17 1.39147e-19)
(0.217791 -1.9384e-15 -7.33558e-17)
(0.217791 -1.75822e-17 1.46472e-19)
(0.227908 -1.93704e-15 -7.57656e-17)
(0.227908 -1.88038e-17 1.49078e-19)
(0.238113 -1.93538e-15 -7.81285e-17)
(0.238113 -1.98908e-17 1.5092e-19)
(0.24839 -1.93345e-15 -8.04239e-17)
(0.24839 -2.13909e-17 1.53525e-19)
(0.258723 -1.9313e-15 -8.26312e-17)
(0.258723 -2.28277e-17 1.60405e-19)
(0.26909 -1.92951e-15 -8.47343e-17)
(0.26909 -2.38565e-17 1.62902e-19)
(0.279473 -1.92814e-15 -8.67208e-17)
(0.279473 -2.49343e-17 1.65668e-19)
(0.289849 -1.9266e-15 -8.85761e-17)
(0.289849 -2.59219e-17 1.66421e-19)
(0.300197 -1.92498e-15 -9.02891e-17)
(0.300197 -2.6731e-17 1.62593e-19)
(0.310498 -1.92338e-15 -9.18532e-17)
(0.310498 -2.77452e-17 1.59069e-19)
(0.320729 -1.9215e-15 -9.32656e-17)
(0.320729 -2.88746e-17 1.47031e-19)
(0.330873 -1.91927e-15 -9.45259e-17)
(0.330873 -3.00539e-17 1.45811e-19)
(0.340911 -1.91693e-15 -9.56367e-17)
(0.340911 -3.19405e-17 1.51641e-19)
(0.350828 -1.91425e-15 -9.6606e-17)
(0.350828 -3.40175e-17 1.55879e-19)
(0.360611 -1.91158e-15 -9.74451e-17)
(0.360611 -3.57481e-17 1.76302e-19)
(0.370248 -1.90964e-15 -9.81661e-17)
(0.370248 -3.72565e-17 1.84106e-19)
(0.379729 -1.90797e-15 -9.87875e-17)
(0.379729 -3.86193e-17 1.78423e-19)
(0.389046 -1.90636e-15 -9.9321e-17)
(0.389046 -3.99008e-17 1.64841e-19)
(0.398195 -1.90439e-15 -9.97795e-17)
(0.398195 -4.11015e-17 1.35483e-19)
(0.40717 -1.90231e-15 -1.00176e-16)
(0.40717 -4.29022e-17 1.45045e-19)
(0.415971 -1.90075e-15 -1.00528e-16)
(0.415971 -4.48051e-17 1.25776e-19)
(0.424595 -1.89907e-15 -1.0084e-16)
(0.424595 -4.63029e-17 1.45506e-19)
(0.433043 -1.89735e-15 -1.01119e-16)
(0.433043 -4.73864e-17 1.90808e-19)
(0.441317 -1.89579e-15 -1.01379e-16)
(0.441317 -4.92602e-17 1.7078e-19)
(0.449419 -1.89341e-15 -1.01626e-16)
(0.449419 -5.16598e-17 1.41002e-19)
(0.457351 -1.89073e-15 -1.01866e-16)
(0.457351 -5.32036e-17 1.1515e-19)
(0.465116 -1.88861e-15 -1.02105e-16)
(0.465116 -5.49601e-17 7.8784e-20)
(0.47272 -1.88624e-15 -1.02356e-16)
(0.47272 -5.75083e-17 4.49524e-20)
(0.480165 -1.88327e-15 -1.02621e-16)
(0.480165 -5.98042e-17 3.16034e-20)
(0.487457 -1.88056e-15 -1.02905e-16)
(0.487457 -6.15715e-17 1.05882e-20)
(0.4946 -1.87864e-15 -1.03219e-16)
(0.4946 -6.3481e-17 -3.14741e-20)
(0.501598 -1.87626e-15 -1.03563e-16)
(0.501598 -6.56503e-17 -6.94685e-20)
(0.508456 -1.87301e-15 -1.03933e-16)
(0.508456 -6.9131e-17 -1.41763e-19)
(0.515179 -1.86997e-15 -1.04327e-16)
(0.515179 -7.20418e-17 -1.41571e-19)
(0.521771 -1.86724e-15 -1.04765e-16)
(0.521771 -7.44173e-17 -1.67834e-19)
(0.528238 -1.86508e-15 -1.05235e-16)
(0.528238 -7.52503e-17 -2.37563e-19)
(0.534583 -1.86257e-15 -1.05748e-16)
(0.534583 -7.78414e-17 -3.66063e-19)
(0.540811 -1.86013e-15 -1.06288e-16)
(0.540811 -8.2601e-17 -4.28489e-19)
(0.546927 -1.85829e-15 -1.06869e-16)
(0.546927 -8.45894e-17 -4.69596e-19)
(0.552933 -1.85523e-15 -1.07476e-16)
(0.552933 -8.65678e-17 -4.93023e-19)
(0.558835 -1.85168e-15 -1.08115e-16)
(0.558835 -8.96511e-17 -4.76021e-19)
(0.564636 -1.84962e-15 -1.08793e-16)
(0.564636 -9.17915e-17 -3.9463e-19)
(0.57034 -1.84965e-15 -1.09534e-16)
(0.57034 -9.14923e-17 -3.16805e-19)
(0.575951 -1.85033e-15 -1.10344e-16)
(0.575951 -9.05667e-17 -1.95385e-19)
(0.581471 -1.84972e-15 -1.11223e-16)
(0.581471 -9.06109e-17 -1.98843e-19)
(0.586904 -1.84866e-15 -1.12153e-16)
(0.586904 -9.04527e-17 -2.1251e-19)
(0.592254 -1.84827e-15 -1.13147e-16)
(0.592254 -9.06989e-17 -7.90555e-20)
(0.597523 -1.84756e-15 -1.14191e-16)
(0.597523 -9.21896e-17 1.55893e-19)
(0.602715 -1.84642e-15 -1.15315e-16)
(0.602715 -9.28147e-17 2.74473e-19)
(0.607831 -1.84507e-15 -1.16488e-16)
(0.607831 -9.43365e-17 2.48749e-19)
(0.612876 -1.84325e-15 -1.1771e-16)
(0.612876 -9.50747e-17 3.35753e-19)
(0.617851 -1.84048e-15 -1.18989e-16)
(0.617851 -9.63646e-17 4.02996e-19)
(0.622758 -1.83704e-15 -1.20323e-16)
(0.622758 -9.9772e-17 4.19214e-19)
(0.627601 -1.83352e-15 -1.21709e-16)
(0.627601 -1.02309e-16 6.28826e-19)
(0.632381 -1.83067e-15 -1.23152e-16)
(0.632381 -1.03897e-16 8.51385e-19)
(0.637101 -1.82731e-15 -1.24656e-16)
(0.637101 -1.04507e-16 7.50802e-19)
(0.641763 -1.82152e-15 -1.26215e-16)
(0.641763 -1.04933e-16 9.65907e-19)
(0.646368 -1.81676e-15 -1.2784e-16)
(0.646368 -1.1183e-16 1.25091e-18)
(0.650918 -1.81562e-15 -1.29545e-16)
(0.650918 -1.12588e-16 1.28642e-18)
(0.655417 -1.81325e-15 -1.31321e-16)
(0.655417 -1.13645e-16 1.30842e-18)
(0.659864 -1.80977e-15 -1.33097e-16)
(0.659864 -1.17917e-16 1.53207e-18)
(0.664262 -1.80942e-15 -1.34897e-16)
(0.664262 -1.22433e-16 1.69728e-18)
(0.668612 -1.80697e-15 -1.36765e-16)
(0.668612 -1.24653e-16 1.72513e-18)
(0.672917 -1.80125e-15 -1.38662e-16)
(0.672917 -1.30098e-16 1.7585e-18)
(0.677177 -1.7977e-15 -1.40615e-16)
(0.677177 -1.33747e-16 1.68777e-18)
(0.681394 -1.79336e-15 -1.42633e-16)
(0.681394 -1.36798e-16 1.69453e-18)
(0.685569 -1.78705e-15 -1.44654e-16)
(0.685569 -1.39977e-16 1.62826e-18)
(0.689703 -1.78228e-15 -1.46767e-16)
(0.689703 -1.44139e-16 1.49623e-18)
(0.693799 -1.77449e-15 -1.48953e-16)
(0.693799 -1.48947e-16 1.54465e-18)
(0.697856 -1.77242e-15 -1.5121e-16)
(0.697856 -1.53188e-16 1.72635e-18)
(0.701877 -1.76929e-15 -1.53483e-16)
(0.701877 -1.54631e-16 1.8722e-18)
(0.705862 -1.76914e-15 -1.55826e-16)
(0.705862 -1.53645e-16 1.71646e-18)
(0.709812 -1.7677e-15 -1.58242e-16)
(0.709812 -1.54913e-16 1.71932e-18)
(0.713729 -1.76391e-15 -1.60749e-16)
(0.713729 -1.55778e-16 1.65336e-18)
(0.717613 -1.76048e-15 -1.63277e-16)
(0.717613 -1.56325e-16 1.48921e-18)
(0.721466 -1.75702e-15 -1.65909e-16)
(0.721466 -1.57525e-16 1.58433e-18)
(0.725288 -1.75377e-15 -1.68591e-16)
(0.725288 -1.59792e-16 1.51826e-18)
(0.72908 -1.75092e-15 -1.71366e-16)
(0.72908 -1.6067e-16 1.20173e-18)
(0.732843 -1.74818e-15 -1.74139e-16)
(0.732843 -1.60775e-16 1.00368e-18)
(0.736578 -1.7446e-15 -1.77023e-16)
(0.736578 -1.63304e-16 8.05692e-19)
(0.740286 -1.74023e-15 -1.79919e-16)
(0.740286 -1.63793e-16 6.50161e-19)
(0.743968 -1.73846e-15 -1.82844e-16)
(0.743968 -1.65394e-16 1.6378e-19)
(0.747623 -1.73645e-15 -1.85885e-16)
(0.747623 -1.66642e-16 -3.19063e-19)
(0.751254 -1.72891e-15 -1.89052e-16)
(0.751254 -1.69156e-16 -6.33603e-19)
(0.75486 -1.71763e-15 -1.92273e-16)
(0.75486 -1.73778e-16 -8.47652e-19)
(0.758442 -1.71083e-15 -1.95518e-16)
(0.758442 -1.79046e-16 -1.06414e-18)
(0.762001 -1.70422e-15 -1.98896e-16)
(0.762001 -1.83607e-16 -1.02925e-18)
(0.765538 -1.69519e-15 -2.02339e-16)
(0.765538 -1.89287e-16 -1.06808e-18)
(0.769053 -1.68732e-15 -2.05849e-16)
(0.769053 -1.95763e-16 -1.26727e-18)
(0.772547 -1.67965e-15 -2.09396e-16)
(0.772547 -2.00932e-16 -1.23298e-18)
(0.77602 -1.6701e-15 -2.12938e-16)
(0.77602 -2.05907e-16 -1.10528e-18)
(0.779473 -1.66181e-15 -2.16498e-16)
(0.779473 -2.13712e-16 -1.2268e-18)
(0.782906 -1.65577e-15 -2.20197e-16)
(0.782906 -2.2308e-16 -1.4875e-18)
(0.786321 -1.64295e-15 -2.24146e-16)
(0.786321 -2.31475e-16 -2.07664e-18)
(0.789716 -1.63078e-15 -2.28116e-16)
(0.789716 -2.39332e-16 -2.02023e-18)
(0.793094 -1.62335e-15 -2.32112e-16)
(0.793094 -2.50357e-16 -2.29404e-18)
(0.796453 -1.61589e-15 -2.36275e-16)
(0.796453 -2.62148e-16 -2.42077e-18)
(0.799796 -1.60964e-15 -2.40543e-16)
(0.799796 -2.74403e-16 -2.43188e-18)
(0.803121 -1.59685e-15 -2.44895e-16)
(0.803121 -2.84633e-16 -2.71876e-18)
(0.806431 -1.58187e-15 -2.49233e-16)
(0.806431 -2.96712e-16 -2.61086e-18)
(0.809724 -1.5713e-15 -2.53787e-16)
(0.809724 -3.07826e-16 -2.90754e-18)
(0.813001 -1.56075e-15 -2.58535e-16)
(0.813001 -3.17442e-16 -3.08842e-18)
(0.816264 -1.5481e-15 -2.63237e-16)
(0.816264 -3.33149e-16 -3.40577e-18)
(0.819511 -1.53395e-15 -2.67832e-16)
(0.819511 -3.43977e-16 -3.25896e-18)
(0.822744 -1.52262e-15 -2.72389e-16)
(0.822744 -3.57463e-16 -2.44088e-18)
(0.825963 -1.5124e-15 -2.76719e-16)
(0.825963 -3.64141e-16 -1.53975e-18)
(0.829168 -1.50659e-15 -2.80987e-16)
(0.829168 -3.63362e-16 -2.70928e-18)
(0.832359 -1.50147e-15 -2.85383e-16)
(0.832359 -3.62701e-16 -2.97517e-18)
(0.835537 -1.49062e-15 -2.8968e-16)
(0.835537 -3.61971e-16 -2.86162e-18)
(0.838703 -1.48259e-15 -2.94e-16)
(0.838703 -3.66704e-16 -2.97639e-18)
(0.841855 -1.47529e-15 -2.98176e-16)
(0.841855 -3.72007e-16 -3.3823e-18)
(0.844995 -1.46575e-15 -3.02368e-16)
(0.844995 -3.74709e-16 -3.3401e-18)
(0.848123 -1.45965e-15 -3.06362e-16)
(0.848123 -3.73466e-16 -3.5942e-18)
(0.85124 -1.4514e-15 -3.10557e-16)
(0.85124 -3.79869e-16 -4.16141e-18)
(0.854344 -1.44069e-15 -3.14741e-16)
(0.854344 -3.83793e-16 -4.90293e-18)
(0.857437 -1.42849e-15 -3.19178e-16)
(0.857437 -3.86939e-16 -4.52635e-18)
(0.86052 -1.41866e-15 -3.2369e-16)
(0.86052 -3.94435e-16 -3.74271e-18)
(0.863591 -1.41114e-15 -3.28243e-16)
(0.863591 -3.98788e-16 -4.32901e-18)
(0.866651 -1.40185e-15 -3.20455e-16)
(0.866651 -4.07622e-16 -3.95212e-18)
(0.869701 -1.39389e-15 -3.11341e-16)
(0.869701 -4.14313e-16 -3.43407e-18)
(0.872741 -1.38386e-15 -3.02608e-16)
(0.872741 -4.24709e-16 -2.88347e-18)
(0.875771 -1.37478e-15 -2.93859e-16)
(0.875771 -4.33765e-16 -2.47625e-18)
(0.878791 -1.36515e-15 -2.81722e-16)
(0.878791 -4.40771e-16 -3.01927e-18)
(0.881801 -1.34709e-15 -2.70097e-16)
(0.881801 -4.55755e-16 -1.92376e-18)
(0.884801 -1.33118e-15 -2.6084e-16)
(0.884801 -4.62155e-16 -2.04266e-18)
(0.887792 -1.32427e-15 -2.5007e-16)
(0.887792 -4.62036e-16 -2.5198e-18)
(0.890774 -1.31702e-15 -2.36025e-16)
(0.890774 -4.72974e-16 -2.98098e-18)
(0.893747 -1.30983e-15 -2.15393e-16)
(0.893747 -4.82997e-16 -3.02739e-18)
(0.896711 -1.29622e-15 -2.00516e-16)
(0.896711 -4.87682e-16 -4.20255e-19)
(0.899666 -1.28106e-15 -1.88202e-16)
(0.899666 -5.02853e-16 3.15861e-18)
(0.902612 -1.26955e-15 -1.73898e-16)
(0.902612 -5.1007e-16 4.75111e-18)
(0.90555 -1.2618e-15 -1.58767e-16)
(0.90555 -5.15175e-16 5.82416e-18)
(0.908479 -1.24767e-15 -1.45403e-16)
(0.908479 -5.30901e-16 6.02805e-18)
(0.9114 -1.22731e-15 -1.43493e-16)
(0.9114 -5.35461e-16 9.59929e-18)
(0.914312 -1.2153e-15 -1.33853e-16)
(0.914312 -5.46453e-16 1.07947e-17)
(0.917217 -1.19261e-15 -1.31395e-16)
(0.917217 -5.54533e-16 1.11178e-17)
(0.920113 -1.17042e-15 -1.31805e-16)
(0.920113 -5.61461e-16 1.08562e-17)
(0.923001 -1.15386e-15 -1.30682e-16)
(0.923001 -5.67008e-16 1.01703e-17)
(0.925882 -1.14484e-15 -1.30131e-16)
(0.925882 -5.67693e-16 8.03984e-18)
(0.928754 -1.14135e-15 -1.27997e-16)
(0.928754 -5.83188e-16 5.54758e-18)
(0.931619 -1.12868e-15 -1.24689e-16)
(0.931619 -5.92388e-16 1.40841e-18)
(0.934476 -1.11391e-15 -1.21297e-16)
(0.934476 -5.94196e-16 -3.70526e-18)
(0.937325 -1.09297e-15 -1.17005e-16)
(0.937325 -6.04763e-16 -7.12461e-18)
(0.940166 -1.07142e-15 -1.14217e-16)
(0.940166 -6.15699e-16 -1.19834e-17)
(0.943 -1.0633e-15 -1.12189e-16)
(0.943 -6.19571e-16 -1.75833e-17)
(0.945826 -1.04417e-15 -1.10312e-16)
(0.945826 -6.21933e-16 -2.43262e-17)
(0.948644 -1.03181e-15 -1.11006e-16)
(0.948644 -6.27483e-16 -3.15235e-17)
(0.951455 -1.02416e-15 -1.08279e-16)
(0.951455 -6.31218e-16 -3.76259e-17)
(0.954258 -1.00726e-15 -1.0862e-16)
(0.954258 -6.27695e-16 -4.28e-17)
(0.957054 -1.00206e-15 -1.08305e-16)
(0.957054 -6.27995e-16 -4.83768e-17)
(0.959841 -9.95155e-16 -1.0974e-16)
(0.959841 -6.31339e-16 -4.91608e-17)
(0.962622 -9.84879e-16 -1.08669e-16)
(0.962622 -6.26243e-16 -5.33532e-17)
(0.965394 -9.72975e-16 -1.10285e-16)
(0.965394 -6.29657e-16 -5.22552e-17)
(0.968158 -9.48929e-16 -1.09392e-16)
(0.968158 -6.26948e-16 -5.49439e-17)
(0.970915 -9.12798e-16 -1.06038e-16)
(0.970915 -6.20322e-16 -6.08731e-17)
(0.973664 -8.82517e-16 -1.02611e-16)
(0.973664 -6.23288e-16 -7.19312e-17)
(0.976404 -8.61181e-16 -1.02492e-16)
(0.976404 -6.33586e-16 -7.41009e-17)
(0.979137 -8.47957e-16 -1.02562e-16)
(0.979137 -6.67266e-16 -6.98199e-17)
(0.981861 -8.40256e-16 -1.00098e-16)
(0.981861 -6.9073e-16 -6.76971e-17)
(0.984577 -8.31106e-16 -9.49446e-17)
(0.984577 -6.97554e-16 -6.48832e-17)
(0.987285 -8.20929e-16 -9.58369e-17)
(0.987285 -6.92345e-16 -6.18458e-17)
(0.989984 -8.09869e-16 -9.61798e-17)
(0.989984 -7.03535e-16 -6.60627e-17)
(0.992674 -7.98706e-16 -9.69485e-17)
(0.992674 -7.16409e-16 -7.35246e-17)
(0.995356 -7.9239e-16 -9.80623e-17)
(0.995356 -7.10147e-16 -8.64426e-17)
(0.998029 -7.85707e-16 -9.3885e-17)
(0.998029 -7.19044e-16 -9.40336e-17)
(1.00069 -7.75127e-16 -9.46631e-17)
(1.00069 -7.22149e-16 -1.03224e-16)
(1.00335 -7.71819e-16 -1.02182e-16)
(1.00335 -7.20436e-16 -1.06329e-16)
(1.00599 -7.69838e-16 -1.0246e-16)
(1.00599 -7.22647e-16 -1.1499e-16)
(1.00862 -7.58211e-16 -1.08211e-16)
(1.00862 -7.31341e-16 -1.24973e-16)
(1.01125 -7.47227e-16 -1.04476e-16)
(1.01125 -7.23564e-16 -1.36956e-16)
(1.01386 -7.41393e-16 -1.03286e-16)
(1.01386 -7.24429e-16 -1.44955e-16)
(1.01647 -7.31963e-16 -1.06898e-16)
(1.01647 -7.30243e-16 -1.48291e-16)
(1.01906 -7.23257e-16 -1.12049e-16)
(1.01906 -6.94082e-16 -1.4757e-16)
(1.02164 -7.16736e-16 -1.27001e-16)
(1.02164 -6.8333e-16 -1.48793e-16)
(1.02421 -6.96143e-16 -1.32215e-16)
(1.02421 -6.76989e-16 -1.52974e-16)
(1.02677 -6.90843e-16 -1.34749e-16)
(1.02677 -6.62861e-16 -1.53296e-16)
(1.02931 -6.87994e-16 -1.19247e-16)
(1.02931 -6.58749e-16 -1.61049e-16)
(1.03185 -6.72209e-16 -1.15795e-16)
(1.03185 -6.64878e-16 -1.55002e-16)
(1.03437 -6.49705e-16 -1.0697e-16)
(1.03437 -6.0528e-16 -1.43162e-16)
(1.03687 -6.23149e-16 -1.02199e-16)
(1.03687 -6.15798e-16 -1.36708e-16)
(1.03936 -6.14835e-16 -9.72806e-17)
(1.03936 -6.41628e-16 -1.27723e-16)
(1.04184 -5.85854e-16 -1.09252e-16)
(1.04184 -6.13797e-16 -1.24374e-16)
(1.0443 -5.76306e-16 -1.09174e-16)
(1.0443 -5.93715e-16 -1.20051e-16)
(1.04675 -5.65452e-16 -1.07413e-16)
(1.04675 -5.96918e-16 -1.11258e-16)
(1.04918 -5.49184e-16 -1.051e-16)
(1.04918 -5.77011e-16 -1.05476e-16)
(1.05159 -5.39884e-16 -1.09579e-16)
(1.05159 -5.66006e-16 -1.05615e-16)
(1.05398 -5.12674e-16 -1.22816e-16)
(1.05398 -5.59644e-16 -1.13512e-16)
(1.05636 -5.49469e-16 -1.47642e-16)
(1.05636 -5.537e-16 -1.24169e-16)
(1.05872 -5.66839e-16 -1.64228e-16)
(1.05872 -5.76172e-16 -1.25834e-16)
(1.06105 -5.34616e-16 -1.86714e-16)
(1.06105 -5.34776e-16 -1.23935e-16)
(1.06337 -5.70465e-16 -1.74007e-16)
(1.06337 -5.06643e-16 -1.18036e-16)
(1.06566 -5.31839e-16 -1.52962e-16)
(1.06566 -5.43447e-16 -8.84642e-17)
(1.06793 -5.22989e-16 -1.55029e-16)
(1.06793 -5.2216e-16 -7.77771e-17)
(1.07018 -5.12789e-16 -1.59304e-16)
(1.07018 -5.05436e-16 -8.69804e-17)
(1.0724 -5.29357e-16 -1.39889e-16)
(1.0724 -5.28711e-16 -7.90758e-17)
(1.07459 -5.34485e-16 -1.42633e-16)
(1.07459 -5.18834e-16 -8.59771e-17)
(1.07676 -5.10973e-16 -1.53528e-16)
(1.07676 -4.86021e-16 -8.62944e-17)
(1.07889 -5.18938e-16 -1.71692e-16)
(1.07889 -4.62467e-16 -9.85183e-17)
(1.081 -5.00238e-16 -1.86382e-16)
(1.081 -4.92075e-16 -9.97624e-17)
(1.08307 -4.86643e-16 -1.82387e-16)
(1.08307 -5.20643e-16 -1.10753e-16)
(1.0851 -4.78641e-16 -1.88483e-16)
(1.0851 -5.00425e-16 -1.20387e-16)
(1.0871 -4.69352e-16 -1.69716e-16)
(1.0871 -4.50174e-16 -1.30229e-16)
(1.08906 -4.67679e-16 -1.62907e-16)
(1.08906 -4.83901e-16 -1.18957e-16)
(1.09098 -4.77689e-16 -1.48995e-16)
(1.09098 -5.00582e-16 -1.16797e-16)
(1.09286 -4.39301e-16 -1.45018e-16)
(1.09286 -4.47373e-16 -1.09934e-16)
(1.09469 -4.22574e-16 -1.5193e-16)
(1.09469 -4.67025e-16 -1.06173e-16)
(1.09647 -4.19335e-16 -1.19316e-16)
(1.09647 -4.58112e-16 -1.06191e-16)
(1.0982 -3.98199e-16 -1.14548e-16)
(1.0982 -4.60936e-16 -8.8908e-17)
(1.09987 -4.46305e-16 -8.24109e-17)
(1.09987 -4.79485e-16 -5.86348e-17)
(1.10148 -4.6544e-16 -9.57076e-17)
(1.10148 -5.00968e-16 -1.01826e-17)
(1.10303 -3.95572e-16 -1.22077e-16)
(1.10303 -5.0882e-16 2.77115e-17)
(1.10451 -4.28385e-16 -1.16656e-16)
(1.10451 -4.69285e-16 5.41767e-17)
(1.10592 -4.11094e-16 -1.52079e-16)
(1.10592 -4.53814e-16 5.12643e-17)
(1.10725 -4.81959e-16 -1.58885e-16)
(1.10725 -4.88936e-16 3.67535e-17)
(1.10849 -5.06875e-16 -1.41749e-16)
(1.10849 -4.59688e-16 5.01657e-17)
(1.10965 -5.42537e-16 -8.23723e-17)
(1.10965 -3.97101e-16 4.32849e-17)
(1.11071 -4.71564e-16 -5.51271e-17)
(1.11071 -3.95964e-16 4.86168e-17)
(1.11166 -4.14864e-16 -9.55514e-17)
(1.11166 -3.4971e-16 6.40144e-17)
(1.11251 -3.73355e-16 -8.8617e-17)
(1.11251 -3.19744e-16 3.32901e-17)
(1.11323 -3.28864e-16 -4.95498e-17)
(1.11323 -3.28951e-16 -1.63805e-17)
(1.11383 -3.03661e-16 -9.52859e-17)
(1.11383 -3.68488e-16 -2.4458e-17)
(1.1143 -3.30292e-16 -5.54099e-17)
(1.1143 -3.38501e-16 -4.66856e-17)
(1.11461 -3.24395e-16 -5.57236e-17)
(1.11461 -3.32956e-16 5.34244e-17)
(1.11478 -2.95565e-16 6.67636e-17)
(1.11478 -3.16616e-16 3.08413e-17)
(0.00324201 -1.63391e-19 2.65543e-18)
(0.00324201 -5.53982e-20 1.25499e-17)
(0.00978532 3.86798e-20 8.53766e-18)
(0.00978532 5.12139e-20 1.72506e-17)
(0.0164495 -1.95766e-19 8.86396e-18)
(0.0164495 -8.88294e-22 1.78933e-17)
(0.0232368 -3.15262e-19 9.20461e-18)
(0.0232368 -1.08699e-20 1.85583e-17)
(0.0301494 -4.2518e-19 9.56038e-18)
(0.0301494 -3.29261e-20 1.9246e-17)
(0.0371896 -5.33995e-19 9.93231e-18)
(0.0371896 -5.58621e-20 1.99556e-17)
(0.0443598 -6.34576e-19 1.03206e-17)
(0.0443598 -5.55511e-20 2.06885e-17)
(0.0516622 -7.23167e-19 1.07259e-17)
(0.0516622 -7.25166e-20 2.14459e-17)
(0.0590993 -8.08226e-19 1.11489e-17)
(0.0590993 -1.1557e-19 2.2227e-17)
(0.0666735 -9.35689e-19 1.15916e-17)
(0.0666735 -1.3636e-19 2.30307e-17)
(0.074387 -1.06823e-18 1.2052e-17)
(0.074387 -1.6229e-19 2.38616e-17)
(0.0822423 -1.2032e-18 1.25324e-17)
(0.0822423 -1.47807e-19 2.47179e-17)
(0.0902416 -1.41606e-18 1.30317e-17)
(0.0902416 -1.44899e-19 2.56e-17)
(0.098387 -1.65472e-18 1.35514e-17)
(0.098387 -1.98882e-19 2.65065e-17)
(0.106681 -1.86267e-18 1.40901e-17)
(0.106681 -2.7684e-19 2.74423e-17)
(0.115124 -2.04681e-18 1.46487e-17)
(0.115124 -2.69661e-19 2.84017e-17)
(0.123719 -2.22533e-18 1.52267e-17)
(0.123719 -3.05175e-19 2.93858e-17)
(0.132466 -2.40576e-18 1.58234e-17)
(0.132466 -3.56637e-19 3.0395e-17)
(0.141365 -2.5895e-18 1.64405e-17)
(0.141365 -3.85076e-19 3.14227e-17)
(0.150417 -2.74466e-18 1.7076e-17)
(0.150417 -4.54201e-19 3.24666e-17)
(0.15962 -2.94001e-18 1.77245e-17)
(0.15962 -4.06522e-19 3.35278e-17)
(0.168972 -3.19064e-18 1.83843e-17)
(0.168972 -3.18832e-19 3.46028e-17)
(0.17847 -3.47682e-18 1.90505e-17)
(0.17847 -2.7013e-19 3.56842e-17)
(0.188108 -3.64087e-18 1.97215e-17)
(0.188108 -3.75841e-19 3.6766e-17)
(0.19788 -3.7064e-18 2.03954e-17)
(0.19788 -5.72232e-19 3.78441e-17)
(0.207778 -3.82823e-18 2.10697e-17)
(0.207778 -7.06387e-19 3.89001e-17)
(0.217791 -3.95262e-18 2.17367e-17)
(0.217791 -6.80523e-19 3.99332e-17)
(0.227908 -4.02693e-18 2.23887e-17)
(0.227908 -7.41327e-19 4.09396e-17)
(0.238113 -4.07466e-18 2.30206e-17)
(0.238113 -8.90347e-19 4.18994e-17)
(0.24839 -4.13889e-18 2.36307e-17)
(0.24839 -1.02715e-18 4.27917e-17)
(0.258723 -4.40249e-18 2.42071e-17)
(0.258723 -1.19022e-18 4.36188e-17)
(0.26909 -4.89251e-18 2.4743e-17)
(0.26909 -1.17242e-18 4.43704e-17)
(0.279473 -5.28353e-18 2.52288e-17)
(0.279473 -1.02638e-18 4.50374e-17)
(0.289849 -5.61383e-18 2.56645e-17)
(0.289849 -9.70694e-19 4.56073e-17)
(0.300197 -5.92121e-18 2.60427e-17)
(0.300197 -1.04484e-18 4.60877e-17)
(0.310498 -6.2984e-18 2.63738e-17)
(0.310498 -1.29994e-18 4.6458e-17)
(0.320729 -6.63858e-18 2.6643e-17)
(0.320729 -1.40813e-18 4.67184e-17)
(0.330873 -6.80479e-18 2.68583e-17)
(0.330873 -1.22198e-18 4.68768e-17)
(0.340911 -6.91306e-18 2.70184e-17)
(0.340911 -1.24603e-18 4.69572e-17)
(0.350828 -7.24731e-18 2.71224e-17)
(0.350828 -1.16801e-18 4.69723e-17)
(0.360611 -7.79218e-18 2.71726e-17)
(0.360611 -4.52074e-19 4.6925e-17)
(0.370248 -8.25147e-18 2.71741e-17)
(0.370248 -5.88882e-19 4.6803e-17)
(0.379729 -8.2711e-18 2.71316e-17)
(0.379729 -9.33289e-19 4.66256e-17)
(0.389046 -8.00758e-18 2.70621e-17)
(0.389046 -1.30546e-18 4.63817e-17)
(0.398195 -8.0899e-18 2.69744e-17)
(0.398195 -1.56662e-18 4.60364e-17)
(0.40717 -8.56173e-18 2.68843e-17)
(0.40717 -1.31235e-18 4.56415e-17)
(0.415971 -9.11189e-18 2.67636e-17)
(0.415971 -2.09294e-18 4.52359e-17)
(0.424595 -9.13651e-18 2.6645e-17)
(0.424595 -2.76205e-18 4.48138e-17)
(0.433043 -9.38579e-18 2.65538e-17)
(0.433043 -2.76274e-18 4.43387e-17)
(0.441317 -1.0326e-17 2.64722e-17)
(0.441317 -3.05424e-18 4.38162e-17)
(0.449419 -1.09706e-17 2.63681e-17)
(0.449419 -3.28298e-18 4.336e-17)
(0.457351 -1.12764e-17 2.62624e-17)
(0.457351 -2.52935e-18 4.29132e-17)
(0.465116 -1.14827e-17 2.61543e-17)
(0.465116 -2.99452e-18 4.24411e-17)
(0.47272 -1.15695e-17 2.60441e-17)
(0.47272 -4.04117e-18 4.20136e-17)
(0.480165 -1.18084e-17 2.59399e-17)
(0.480165 -3.80016e-18 4.15771e-17)
(0.487457 -1.24941e-17 2.58197e-17)
(0.487457 -4.19952e-18 4.10796e-17)
(0.4946 -1.31575e-17 2.56725e-17)
(0.4946 -3.65602e-18 4.06334e-17)
(0.501598 -1.31176e-17 2.55081e-17)
(0.501598 -2.98097e-18 4.02096e-17)
(0.508456 -1.34096e-17 2.53494e-17)
(0.508456 -3.34511e-18 3.98429e-17)
(0.515179 -1.46034e-17 2.51822e-17)
(0.515179 -2.72582e-18 3.95235e-17)
(0.521771 -1.50793e-17 2.49612e-17)
(0.521771 -2.00012e-18 3.92278e-17)
(0.528238 -1.59457e-17 2.47719e-17)
(0.528238 -1.24702e-18 3.8856e-17)
(0.534583 -1.751e-17 2.45449e-17)
(0.534583 -9.10128e-19 3.85915e-17)
(0.540811 -1.83842e-17 2.43409e-17)
(0.540811 -1.01216e-18 3.84095e-17)
(0.546927 -1.82564e-17 2.41604e-17)
(0.546927 -1.39458e-18 3.82846e-17)
(0.552933 -1.76049e-17 2.40106e-17)
(0.552933 -1.34085e-18 3.82257e-17)
(0.558835 -1.75969e-17 2.38655e-17)
(0.558835 -1.25822e-18 3.81308e-17)
(0.564636 -1.86779e-17 2.36973e-17)
(0.564636 -1.32095e-18 3.81284e-17)
(0.57034 -1.99663e-17 2.34171e-17)
(0.57034 -2.26396e-18 3.83135e-17)
(0.575951 -2.09512e-17 2.31518e-17)
(0.575951 -2.8157e-18 3.83617e-17)
(0.581471 -2.13727e-17 2.29086e-17)
(0.581471 -3.06863e-18 3.81618e-17)
(0.586904 -2.11588e-17 2.26952e-17)
(0.586904 -4.27604e-18 3.79291e-17)
(0.592254 -2.17106e-17 2.24518e-17)
(0.592254 -4.61131e-18 3.77807e-17)
(0.597523 -2.32957e-17 2.22035e-17)
(0.597523 -4.81365e-18 3.76153e-17)
(0.602715 -2.46576e-17 2.1871e-17)
(0.602715 -3.17625e-18 3.87699e-17)
(0.607831 -2.45356e-17 2.14102e-17)
(0.607831 -2.78695e-18 4.01731e-17)
(0.612876 -2.43559e-17 2.1034e-17)
(0.612876 -1.22595e-18 4.15994e-17)
(0.617851 -2.55125e-17 2.07369e-17)
(0.617851 -2.34411e-18 4.29854e-17)
(0.622758 -2.60068e-17 2.03527e-17)
(0.622758 -4.98049e-18 4.44445e-17)
(0.627601 -2.55987e-17 1.9967e-17)
(0.627601 -3.43959e-18 4.6012e-17)
(0.632381 -2.57604e-17 1.97144e-17)
(0.632381 -3.58947e-18 4.74579e-17)
(0.637101 -2.59811e-17 1.9484e-17)
(0.637101 -2.93851e-18 4.88011e-17)
(0.641763 -2.76371e-17 1.92851e-17)
(0.641763 -1.24607e-18 5.01617e-17)
(0.646368 -2.91994e-17 1.88773e-17)
(0.646368 -9.23846e-19 5.15517e-17)
(0.650918 -2.93462e-17 1.84483e-17)
(0.650918 -1.16305e-18 5.29275e-17)
(0.655417 -2.8187e-17 1.81111e-17)
(0.655417 7.10803e-20 5.42382e-17)
(0.659864 -2.53332e-17 1.79228e-17)
(0.659864 -1.12425e-18 5.56302e-17)
(0.664262 -2.43962e-17 1.78142e-17)
(0.664262 -9.23564e-20 5.70554e-17)
(0.668612 -2.32812e-17 1.77065e-17)
(0.668612 3.30907e-18 5.85284e-17)
(0.672917 -2.35027e-17 1.76505e-17)
(0.672917 3.25305e-18 6.00862e-17)
(0.677177 -2.5654e-17 1.76053e-17)
(0.677177 1.63676e-18 6.15039e-17)
(0.681394 -2.4234e-17 1.76778e-17)
(0.681394 8.73187e-19 6.28757e-17)
(0.685569 -2.45347e-17 1.80806e-17)
(0.685569 -1.036e-18 6.40277e-17)
(0.689703 -2.79338e-17 1.83604e-17)
(0.689703 -4.54803e-18 6.50315e-17)
(0.693799 -3.13971e-17 1.86246e-17)
(0.693799 -2.88281e-18 6.60539e-17)
(0.697856 -3.45634e-17 1.8698e-17)
(0.697856 1.249e-18 6.72508e-17)
(0.701877 -3.65461e-17 1.86174e-17)
(0.701877 6.79908e-19 6.86941e-17)
(0.705862 -3.9118e-17 1.85176e-17)
(0.705862 2.2542e-18 6.99933e-17)
(0.709812 -4.16441e-17 1.82979e-17)
(0.709812 5.04119e-18 7.13188e-17)
(0.713729 -4.28578e-17 1.80001e-17)
(0.713729 4.18992e-18 7.25912e-17)
(0.717613 -4.4082e-17 1.76558e-17)
(0.717613 6.29633e-18 7.37259e-17)
(0.721466 -4.38162e-17 1.74412e-17)
(0.721466 7.18363e-18 7.47495e-17)
(0.725288 -4.22103e-17 1.70831e-17)
(0.725288 5.96486e-18 7.58619e-17)
(0.72908 -3.95659e-17 1.63156e-17)
(0.72908 8.63031e-18 7.70357e-17)
(0.732843 -3.75249e-17 1.57987e-17)
(0.732843 1.24914e-17 7.80638e-17)
(0.736578 -3.85081e-17 1.51924e-17)
(0.736578 1.29005e-17 7.89477e-17)
(0.740286 -3.88327e-17 1.45594e-17)
(0.740286 1.45973e-17 7.98026e-17)
(0.743968 -3.94692e-17 1.414e-17)
(0.743968 1.70419e-17 8.02024e-17)
(0.747623 -4.17803e-17 1.39565e-17)
(0.747623 1.88423e-17 7.99698e-17)
(0.751254 -4.24924e-17 1.39283e-17)
(0.751254 2.02131e-17 7.9365e-17)
(0.75486 -4.27995e-17 1.35876e-17)
(0.75486 2.23774e-17 7.87722e-17)
(0.758442 -4.29321e-17 1.32745e-17)
(0.758442 2.59223e-17 7.80422e-17)
(0.762001 -4.09712e-17 1.27497e-17)
(0.762001 2.67839e-17 7.73802e-17)
(0.765538 -4.01438e-17 1.21931e-17)
(0.765538 2.63153e-17 7.66671e-17)
(0.769053 -3.98444e-17 1.16652e-17)
(0.769053 2.77722e-17 7.56927e-17)
(0.772547 -3.67737e-17 1.0912e-17)
(0.772547 3.06478e-17 7.50045e-17)
(0.77602 -3.33987e-17 1.04984e-17)
(0.77602 3.30033e-17 7.43858e-17)
(0.779473 -3.45939e-17 1.02987e-17)
(0.779473 3.03803e-17 7.34477e-17)
(0.782906 -3.904e-17 9.85928e-18)
(0.782906 3.06558e-17 7.23943e-17)
(0.786321 -4.1719e-17 9.01858e-18)
(0.786321 3.30927e-17 7.09019e-17)
(0.789716 -4.15624e-17 8.37677e-18)
(0.789716 3.56881e-17 6.90268e-17)
(0.793094 -4.10646e-17 8.12688e-18)
(0.793094 3.76753e-17 6.668e-17)
(0.796453 -3.94128e-17 7.86599e-18)
(0.796453 3.494e-17 6.407e-17)
(0.799796 -3.89642e-17 7.86349e-18)
(0.799796 3.35518e-17 6.14193e-17)
(0.803121 -4.15845e-17 7.93376e-18)
(0.803121 3.87328e-17 5.84884e-17)
(0.806431 -4.25299e-17 7.55503e-18)
(0.806431 4.33879e-17 5.60704e-17)
(0.809724 -4.16426e-17 6.98813e-18)
(0.809724 4.30212e-17 5.33713e-17)
(0.813001 -4.0232e-17 6.59658e-18)
(0.813001 4.67475e-17 5.02508e-17)
(0.816264 -3.97896e-17 6.85791e-18)
(0.816264 4.91836e-17 4.65125e-17)
(0.819511 -3.94363e-17 6.80823e-18)
(0.819511 4.85063e-17 4.32917e-17)
(0.822744 -3.61689e-17 6.11938e-18)
(0.822744 4.52909e-17 4.14563e-17)
(0.825963 -3.2438e-17 6.46603e-18)
(0.825963 4.32541e-17 4.00042e-17)
(0.829168 -3.07226e-17 6.88817e-18)
(0.829168 4.11159e-17 3.75856e-17)
(0.832359 -3.10677e-17 7.52933e-18)
(0.832359 3.88274e-17 3.4904e-17)
(0.835537 -3.38676e-17 7.97327e-18)
(0.835537 4.02563e-17 3.29499e-17)
(0.838703 -3.60698e-17 8.74393e-18)
(0.838703 4.12878e-17 3.06983e-17)
(0.841855 -3.87028e-17 1.0655e-17)
(0.841855 4.46478e-17 2.76909e-17)
(0.844995 -3.70159e-17 1.23686e-17)
(0.844995 4.76513e-17 2.50439e-17)
(0.848123 -3.39763e-17 1.49159e-17)
(0.848123 4.5678e-17 2.22611e-17)
(0.85124 -3.66232e-17 1.70543e-17)
(0.85124 3.75535e-17 1.90143e-17)
(0.854344 -3.94516e-17 1.94231e-17)
(0.854344 3.49926e-17 1.49475e-17)
(0.857437 -3.84827e-17 2.16255e-17)
(0.857437 3.37998e-17 1.08685e-17)
(0.86052 -3.27448e-17 2.35662e-17)
(0.86052 3.1535e-17 7.81316e-18)
(0.863591 -3.01003e-17 2.51945e-17)
(0.863591 3.39221e-17 5.49279e-18)
(0.866651 -3.39569e-17 2.66295e-17)
(0.866651 3.01431e-17 3.59333e-18)
(0.869701 -3.87976e-17 2.76452e-17)
(0.869701 2.72892e-17 2.07349e-18)
(0.872741 -4.51172e-17 2.87691e-17)
(0.872741 2.58683e-17 1.37199e-18)
(0.875771 -4.99577e-17 2.94746e-17)
(0.875771 1.92686e-17 9.93003e-19)
(0.878791 -4.78571e-17 3.05501e-17)
(0.878791 1.57374e-17 -8.26589e-20)
(0.881801 -5.20779e-17 3.16532e-17)
(0.881801 9.15866e-18 1.29241e-19)
(0.884801 -5.86815e-17 3.07417e-17)
(0.884801 6.54711e-18 1.20513e-18)
(0.887792 -5.80595e-17 2.88587e-17)
(0.887792 1.47167e-17 2.97561e-18)
(0.890774 -5.63443e-17 2.67137e-17)
(0.890774 1.14e-17 3.39283e-18)
(0.893747 -5.42223e-17 2.56115e-17)