/*--------------------------------*- C++ -*----------------------------------*\
| =========                 |                                                 |
| \\      /  F ield         | OpenFOAM: The Open Source CFD Toolbox           |
|  \\    /   O peration     | Version:  2106                                  |
|   \\  /    A nd           | Website:  www.openfoam.com                      |
|    \\/     M anipulation  |                                                 |
\*---------------------------------------------------------------------------*/
FoamFile
{
    version     2.0;
    format      ascii;
    arch        "LSB;label=32;scalar=64";
    class       volVectorField;
    location    "10010";
    object      C;
}
// * * * * * * * * * * * * * * * * * * * * * * * * * * * * * * * * * * * * * //

dimensions      [0 1 0 0 0 0 0];

internalField   nonuniform List<vector> 
800
(
(0.025 0.000229448 0.025)
(0.075 0.000229448 0.025)
(0.025 0.000699269 0.025)
(0.075 0.000699269 0.025)
(0.025 0.00119146 0.025)
(0.075 0.00119146 0.025)
(0.025 0.00170709 0.025)
(0.075 0.00170709 0.025)
(0.025 0.00224727 0.025)
(0.075 0.00224727 0.025)
(0.025 0.00281317 0.025)
(0.075 0.00281317 0.025)
(0.025 0.00340602 0.025)
(0.075 0.00340602 0.025)
(0.025 0.00402709 0.025)
(0.075 0.00402709 0.025)
(0.025 0.00467774 0.025)
(0.075 0.00467774 0.025)
(0.025 0.00535937 0.025)
(0.075 0.00535937 0.025)
(0.025 0.00607346 0.025)
(0.075 0.00607346 0.025)
(0.025 0.00682155 0.025)
(0.075 0.00682155 0.025)
(0.025 0.00760526 0.025)
(0.075 0.00760526 0.025)
(0.025 0.00842628 0.025)
(0.075 0.00842628 0.025)
(0.025 0.0092864 0.025)
(0.075 0.0092864 0.025)
(0.025 0.0101875 0.025)
(0.075 0.0101875 0.025)
(0.025 0.0111315 0.025)
(0.075 0.0111315 0.025)
(0.025 0.0121204 0.025)
(0.075 0.0121204 0.025)
(0.025 0.0131564 0.025)
(0.075 0.0131564 0.025)
(0.025 0.0142417 0.025)
(0.075 0.0142417 0.025)
(0.025 0.0153788 0.025)
(0.075 0.0153788 0.025)
(0.025 0.0165699 0.025)
(0.075 0.0165699 0.025)
(0.025 0.0178178 0.025)
(0.075 0.0178178 0.025)
(0.025 0.0191251 0.025)
(0.075 0.0191251 0.025)
(0.025 0.0204947 0.025)
(0.075 0.0204947 0.025)
(0.025 0.0219295 0.025)
(0.075 0.0219295 0.025)
(0.025 0.0234325 0.025)
(0.075 0.0234325 0.025)
(0.025 0.0250072 0.025)
(0.075 0.0250072 0.025)
(0.025 0.0266568 0.025)
(0.075 0.0266568 0.025)
(0.025 0.028385 0.025)
(0.075 0.028385 0.025)
(0.025 0.0301955 0.025)
(0.075 0.0301955 0.025)
(0.025 0.0320922 0.025)
(0.075 0.0320922 0.025)
(0.025 0.0340791 0.025)
(0.075 0.0340791 0.025)
(0.025 0.0361607 0.025)
(0.075 0.0361607 0.025)
(0.025 0.0383415 0.025)
(0.075 0.0383415 0.025)
(0.025 0.040626 0.025)
(0.075 0.040626 0.025)
(0.025 0.0430193 0.025)
(0.075 0.0430193 0.025)
(0.025 0.0455266 0.025)
(0.075 0.0455266 0.025)
(0.025 0.0481533 0.025)
(0.075 0.0481533 0.025)
(0.025 0.0509051 0.025)
(0.075 0.0509051 0.025)
(0.025 0.0537878 0.025)
(0.075 0.0537878 0.025)
(0.025 0.0568079 0.025)
(0.075 0.0568079 0.025)
(0.025 0.0599717 0.025)
(0.075 0.0599717 0.025)
(0.025 0.0632862 0.025)
(0.075 0.0632862 0.025)
(0.025 0.0667586 0.025)
(0.075 0.0667586 0.025)
(0.025 0.0703962 0.025)
(0.075 0.0703962 0.025)
(0.025 0.0742071 0.025)
(0.075 0.0742071 0.025)
(0.025 0.0781994 0.025)
(0.075 0.0781994 0.025)
(0.025 0.0823818 0.025)
(0.075 0.0823818 0.025)
(0.025 0.0867634 0.025)
(0.075 0.0867634 0.025)
(0.025 0.0913536 0.025)
(0.075 0.0913536 0.025)
(0.025 0.0961623 0.025)
(0.075 0.0961623 0.025)
(0.025 0.1012 0.025)
(0.075 0.1012 0.025)
(0.025 0.106478 0.025)
(0.075 0.106478 0.025)
(0.025 0.112007 0.025)
(0.075 0.112007 0.025)
(0.025 0.117799 0.025)
(0.075 0.117799 0.025)
(0.025 0.123867 0.025)
(0.075 0.123867 0.025)
(0.025 0.130224 0.025)
(0.075 0.130224 0.025)
(0.025 0.136883 0.025)
(0.075 0.136883 0.025)
(0.025 0.14386 0.025)
(0.075 0.14386 0.025)
(0.025 0.151169 0.025)
(0.075 0.151169 0.025)
(0.025 0.158826 0.025)
(0.075 0.158826 0.025)
(0.025 0.166847 0.025)
(0.075 0.166847 0.025)
(0.025 0.175251 0.025)
(0.075 0.175251 0.025)
(0.025 0.184054 0.025)
(0.075 0.184054 0.025)
(0.025 0.193277 0.025)
(0.075 0.193277 0.025)
(0.025 0.202939 0.025)
(0.075 0.202939 0.025)
(0.025 0.213061 0.025)
(0.075 0.213061 0.025)
(0.025 0.223665 0.025)
(0.075 0.223665 0.025)
(0.025 0.234774 0.025)
(0.075 0.234774 0.025)
(0.025 0.246412 0.025)
(0.075 0.246412 0.025)
(0.025 0.258604 0.025)
(0.075 0.258604 0.025)
(0.025 0.271376 0.025)
(0.075 0.271376 0.025)
(0.025 0.284757 0.025)
(0.075 0.284757 0.025)
(0.025 0.298775 0.025)
(0.075 0.298775 0.025)
(0.025 0.31346 0.025)
(0.075 0.31346 0.025)
(0.025 0.328844 0.025)
(0.075 0.328844 0.025)
(0.025 0.344961 0.025)
(0.075 0.344961 0.025)
(0.025 0.361846 0.025)
(0.075 0.361846 0.025)
(0.025 0.379534 0.025)
(0.075 0.379534 0.025)
(0.025 0.398065 0.025)
(0.075 0.398065 0.025)
(0.025 0.417478 0.025)
(0.075 0.417478 0.025)
(0.025 0.437816 0.025)
(0.075 0.437816 0.025)
(0.025 0.459121 0.025)
(0.075 0.459121 0.025)
(0.025 0.481442 0.025)
(0.075 0.481442 0.025)
(0.025 0.504825 0.025)
(0.075 0.504825 0.025)
(0.025 0.529321 0.025)
(0.075 0.529321 0.025)
(0.025 0.554984 0.025)
(0.075 0.554984 0.025)
(0.025 0.581869 0.025)
(0.075 0.581869 0.025)
(0.025 0.610034 0.025)
(0.075 0.610034 0.025)
(0.025 0.63954 0.025)
(0.075 0.63954 0.025)
(0.025 0.670452 0.025)
(0.075 0.670452 0.025)
(0.025 0.702834 0.025)
(0.075 0.702834 0.025)
(0.025 0.736759 0.025)
(0.075 0.736759 0.025)
(0.025 0.7723 0.025)
(0.075 0.7723 0.025)
(0.025 0.809532 0.025)
(0.075 0.809532 0.025)
(0.025 0.848538 0.025)
(0.075 0.848538 0.025)
(0.025 0.8894 0.025)
(0.075 0.8894 0.025)
(0.025 0.932209 0.025)
(0.075 0.932209 0.025)
(0.025 0.977055 0.025)
(0.075 0.977055 0.025)
(0.025 0.000229448 0.075)
(0.075 0.000229448 0.075)
(0.025 0.000699269 0.075)
(0.075 0.000699269 0.075)
(0.025 0.00119146 0.075)
(0.075 0.00119146 0.075)
(0.025 0.00170709 0.075)
(0.075 0.00170709 0.075)
(0.025 0.00224727 0.075)
(0.075 0.00224727 0.075)
(0.025 0.00281317 0.075)
(0.075 0.00281317 0.075)
(0.025 0.00340602 0.075)
(0.075 0.00340602 0.075)
(0.025 0.00402709 0.075)
(0.075 0.00402709 0.075)
(0.025 0.00467774 0.075)
(0.075 0.00467774 0.075)
(0.025 0.00535937 0.075)
(0.075 0.00535937 0.075)
(0.025 0.00607346 0.075)
(0.075 0.00607346 0.075)
(0.025 0.00682155 0.075)
(0.075 0.00682155 0.075)
(0.025 0.00760526 0.075)
(0.075 0.00760526 0.075)
(0.025 0.00842628 0.075)
(0.075 0.00842628 0.075)
(0.025 0.0092864 0.075)
(0.075 0.0092864 0.075)
(0.025 0.0101875 0.075)
(0.075 0.0101875 0.075)
(0.025 0.0111315 0.075)
(0.075 0.0111315 0.075)
(0.025 0.0121204 0.075)
(0.075 0.0121204 0.075)
(0.025 0.0131564 0.075)
(0.075 0.0131564 0.075)
(0.025 0.0142417 0.075)
(0.075 0.0142417 0.075)
(0.025 0.0153788 0.075)
(0.075 0.0153788 0.075)
(0.025 0.0165699 0.075)
(0.075 0.0165699 0.075)
(0.025 0.0178178 0.075)
(0.075 0.0178178 0.075)
(0.025 0.0191251 0.075)
(0.075 0.0191251 0.075)
(0.025 0.0204947 0.075)
(0.075 0.0204947 0.075)
(0.025 0.0219295 0.075)
(0.075 0.0219295 0.075)
(0.025 0.0234325 0.075)
(0.075 0.0234325 0.075)
(0.025 0.0250072 0.075)
(0.075 0.0250072 0.075)
(0.025 0.0266568 0.075)
(0.075 0.0266568 0.075)
(0.025 0.028385 0.075)
(0.075 0.028385 0.075)
(0.025 0.0301955 0.075)
(0.075 0.0301955 0.075)
(0.025 0.0320922 0.075)
(0.075 0.0320922 0.075)
(0.025 0.0340791 0.075)
(0.075 0.0340791 0.075)
(0.025 0.0361607 0.075)
(0.075 0.0361607 0.075)
(0.025 0.0383415 0.075)
(0.075 0.0383415 0.075)
(0.025 0.040626 0.075)
(0.075 0.040626 0.075)
(0.025 0.0430193 0.075)
(0.075 0.0430193 0.075)
(0.025 0.0455266 0.075)
(0.075 0.0455266 0.075)
(0.025 0.0481533 0.075)
(0.075 0.0481533 0.075)
(0.025 0.0509051 0.075)
(0.075 0.0509051 0.075)
(0.025 0.0537878 0.075)
(0.075 0.0537878 0.075)
(0.025 0.0568079 0.075)
(0.075 0.0568079 0.075)
(0.025 0.0599717 0.075)
(0.075 0.0599717 0.075)
(0.025 0.0632862 0.075)
(0.075 0.0632862 0.075)
(0.025 0.0667586 0.075)
(0.075 0.0667586 0.075)
(0.025 0.0703962 0.075)
(0.075 0.0703962 0.075)
(0.025 0.0742071 0.075)
(0.075 0.0742071 0.075)
(0.025 0.0781994 0.075)
(0.075 0.0781994 0.075)
(0.025 0.0823818 0.075)
(0.075 0.0823818 0.075)
(0.025 0.0867634 0.075)
(0.075 0.0867634 0.075)
(0.025 0.0913536 0.075)
(0.075 0.0913536 0.075)
(0.025 0.0961623 0.075)
(0.075 0.0961623 0.075)
(0.025 0.1012 0.075)
(0.075 0.1012 0.075)
(0.025 0.106478 0.075)
(0.075 0.106478 0.075)
(0.025 0.112007 0.075)
(0.075 0.112007 0.075)
(0.025 0.117799 0.075)
(0.075 0.117799 0.075)
(0.025 0.123867 0.075)
(0.075 0.123867 0.075)
(0.025 0.130224 0.075)
(0.075 0.130224 0.075)
(0.025 0.136883 0.075)
(0.075 0.136883 0.075)
(0.025 0.14386 0.075)
(0.075 0.14386 0.075)
(0.025 0.151169 0.075)
(0.075 0.151169 0.075)
(0.025 0.158826 0.075)
(0.075 0.158826 0.075)
(0.025 0.166847 0.075)
(0.075 0.166847 0.075)
(0.025 0.175251 0.075)
(0.075 0.175251 0.075)
(0.025 0.184054 0.075)
(0.075 0.184054 0.075)
(0.025 0.193277 0.075)
(0.075 0.193277 0.075)
(0.025 0.202939 0.075)
(0.075 0.202939 0.075)
(0.025 0.213061 0.075)
(0.075 0.213061 0.075)
(0.025 0.223665 0.075)
(0.075 0.223665 0.075)
(0.025 0.234774 0.075)
(0.075 0.234774 0.075)
(0.025 0.246412 0.075)
(0.075 0.246412 0.075)
(0.025 0.258604 0.075)
(0.075 0.258604 0.075)
(0.025 0.271376 0.075)
(0.075 0.271376 0.075)
(0.025 0.284757 0.075)
(0.075 0.284757 0.075)
(0.025 0.298775 0.075)
(0.075 0.298775 0.075)
(0.025 0.31346 0.075)
(0.075 0.31346 0.075)
(0.025 0.328844 0.075)
(0.075 0.328844 0.075)
(0.025 0.344961 0.075)
(0.075 0.344961 0.075)
(0.025 0.361846 0.075)
(0.075 0.361846 0.075)
(0.025 0.379534 0.075)
(0.075 0.379534 0.075)
(0.025 0.398065 0.075)
(0.075 0.398065 0.075)
(0.025 0.417478 0.075)
(0.075 0.417478 0.075)
(0.025 0.437816 0.075)
(0.075 0.437816 0.075)
(0.025 0.459121 0.075)
(0.075 0.459121 0.075)
(0.025 0.481442 0.075)
(0.075 0.481442 0.075)
(0.025 0.504825 0.075)
(0.075 0.504825 0.075)
(0.025 0.529321 0.075)
(0.075 0.529321 0.075)
(0.025 0.554984 0.075)
(0.075 0.554984 0.075)
(0.025 0.581869 0.075)
(0.075 0.581869 0.075)
(0.025 0.610034 0.075)
(0.075 0.610034 0.075)
(0.025 0.63954 0.075)
(0.075 0.63954 0.075)
(0.025 0.670452 0.075)
(0.075 0.670452 0.075)
(0.025 0.702834 0.075)
(0.075 0.702834 0.075)
(0.025 0.736759 0.075)
(0.075 0.736759 0.075)
(0.025 0.7723 0.075)
(0.075 0.7723 0.075)
(0.025 0.809532 0.075)
(0.075 0.809532 0.075)
(0.025 0.848538 0.075)
(0.075 0.848538 0.075)
(0.025 0.8894 0.075)
(0.075 0.8894 0.075)
(0.025 0.932209 0.075)
(0.075 0.932209 0.075)
(0.025 0.977055 0.075)
(0.075 0.977055 0.075)
(0.025 1.02294 0.025)
(0.075 1.02294 0.025)
(0.025 1.06779 0.025)
(0.075 1.06779 0.025)
(0.025 1.1106 0.025)
(0.075 1.1106 0.025)
(0.025 1.15146 0.025)
(0.075 1.15146 0.025)
(0.025 1.19047 0.025)
(0.075 1.19047 0.025)
(0.025 1.2277 0.025)
(0.075 1.2277 0.025)
(0.025 1.26324 0.025)
(0.075 1.26324 0.025)
(0.025 1.29717 0.025)
(0.075 1.29717 0.025)
(0.025 1.32955 0.025)
(0.075 1.32955 0.025)
(0.025 1.36046 0.025)
(0.075 1.36046 0.025)
(0.025 1.38997 0.025)
(0.075 1.38997 0.025)
(0.025 1.41813 0.025)
(0.075 1.41813 0.025)
(0.025 1.44502 0.025)
(0.075 1.44502 0.025)
(0.025 1.47068 0.025)
(0.075 1.47068 0.025)
(0.025 1.49518 0.025)
(0.075 1.49518 0.025)
(0.025 1.51856 0.025)
(0.075 1.51856 0.025)
(0.025 1.54088 0.025)
(0.075 1.54088 0.025)
(0.025 1.56218 0.025)
(0.075 1.56218 0.025)
(0.025 1.58252 0.025)
(0.075 1.58252 0.025)
(0.025 1.60193 0.025)
(0.075 1.60193 0.025)
(0.025 1.62047 0.025)
(0.075 1.62047 0.025)
(0.025 1.63815 0.025)
(0.075 1.63815 0.025)
(0.025 1.65504 0.025)
(0.075 1.65504 0.025)
(0.025 1.67116 0.025)
(0.075 1.67116 0.025)
(0.025 1.68654 0.025)
(0.075 1.68654 0.025)
(0.025 1.70123 0.025)
(0.075 1.70123 0.025)
(0.025 1.71524 0.025)
(0.075 1.71524 0.025)
(0.025 1.72862 0.025)
(0.075 1.72862 0.025)
(0.025 1.7414 0.025)
(0.075 1.7414 0.025)
(0.025 1.75359 0.025)
(0.075 1.75359 0.025)
(0.025 1.76523 0.025)
(0.075 1.76523 0.025)
(0.025 1.77634 0.025)
(0.075 1.77634 0.025)
(0.025 1.78694 0.025)
(0.075 1.78694 0.025)
(0.025 1.79706 0.025)
(0.075 1.79706 0.025)
(0.025 1.80672 0.025)
(0.075 1.80672 0.025)
(0.025 1.81595 0.025)
(0.075 1.81595 0.025)
(0.025 1.82475 0.025)
(0.075 1.82475 0.025)
(0.025 1.83315 0.025)
(0.075 1.83315 0.025)
(0.025 1.84117 0.025)
(0.075 1.84117 0.025)
(0.025 1.84883 0.025)
(0.075 1.84883 0.025)
(0.025 1.85614 0.025)
(0.075 1.85614 0.025)
(0.025 1.86312 0.025)
(0.075 1.86312 0.025)
(0.025 1.86978 0.025)
(0.075 1.86978 0.025)
(0.025 1.87613 0.025)
(0.075 1.87613 0.025)
(0.025 1.8822 0.025)
(0.075 1.8822 0.025)
(0.025 1.88799 0.025)
(0.075 1.88799 0.025)
(0.025 1.89352 0.025)
(0.075 1.89352 0.025)
(0.025 1.8988 0.025)
(0.075 1.8988 0.025)
(0.025 1.90384 0.025)
(0.075 1.90384 0.025)
(0.025 1.90865 0.025)
(0.075 1.90865 0.025)
(0.025 1.91324 0.025)
(0.075 1.91324 0.025)
(0.025 1.91762 0.025)
(0.075 1.91762 0.025)
(0.025 1.9218 0.025)
(0.075 1.9218 0.025)
(0.025 1.92579 0.025)
(0.075 1.92579 0.025)
(0.025 1.9296 0.025)
(0.075 1.9296 0.025)
(0.025 1.93324 0.025)
(0.075 1.93324 0.025)
(0.025 1.93671 0.025)
(0.075 1.93671 0.025)
(0.025 1.94003 0.025)
(0.075 1.94003 0.025)
(0.025 1.94319 0.025)
(0.075 1.94319 0.025)
(0.025 1.94621 0.025)
(0.075 1.94621 0.025)
(0.025 1.94909 0.025)
(0.075 1.94909 0.025)
(0.025 1.95185 0.025)
(0.075 1.95185 0.025)
(0.025 1.95447 0.025)
(0.075 1.95447 0.025)
(0.025 1.95698 0.025)
(0.075 1.95698 0.025)
(0.025 1.95937 0.025)
(0.075 1.95937 0.025)
(0.025 1.96166 0.025)
(0.075 1.96166 0.025)
(0.025 1.96384 0.025)
(0.075 1.96384 0.025)
(0.025 1.96592 0.025)
(0.075 1.96592 0.025)
(0.025 1.96791 0.025)
(0.075 1.96791 0.025)
(0.025 1.9698 0.025)
(0.075 1.9698 0.025)
(0.025 1.97161 0.025)
(0.075 1.97161 0.025)
(0.025 1.97334 0.025)
(0.075 1.97334 0.025)
(0.025 1.97499 0.025)
(0.075 1.97499 0.025)
(0.025 1.97657 0.025)
(0.075 1.97657 0.025)
(0.025 1.97807 0.025)
(0.075 1.97807 0.025)
(0.025 1.97951 0.025)
(0.075 1.97951 0.025)
(0.025 1.98087 0.025)
(0.075 1.98087 0.025)
(0.025 1.98218 0.025)
(0.075 1.98218 0.025)
(0.025 1.98343 0.025)
(0.075 1.98343 0.025)
(0.025 1.98462 0.025)
(0.075 1.98462 0.025)
(0.025 1.98576 0.025)
(0.075 1.98576 0.025)
(0.025 1.98684 0.025)
(0.075 1.98684 0.025)
(0.025 1.98788 0.025)
(0.075 1.98788 0.025)
(0.025 1.98887 0.025)
(0.075 1.98887 0.025)
(0.025 1.98981 0.025)
(0.075 1.98981 0.025)
(0.025 1.99071 0.025)
(0.075 1.99071 0.025)
(0.025 1.99157 0.025)
(0.075 1.99157 0.025)
(0.025 1.99239 0.025)
(0.075 1.99239 0.025)
(0.025 1.99318 0.025)
(0.075 1.99318 0.025)
(0.025 1.99393 0.025)
(0.075 1.99393 0.025)
(0.025 1.99464 0.025)
(0.075 1.99464 0.025)
(0.025 1.99532 0.025)
(0.075 1.99532 0.025)
(0.025 1.99597 0.025)
(0.075 1.99597 0.025)
(0.025 1.99659 0.025)
(0.075 1.99659 0.025)
(0.025 1.99719 0.025)
(0.075 1.99719 0.025)
(0.025 1.99775 0.025)
(0.075 1.99775 0.025)
(0.025 1.99829 0.025)
(0.075 1.99829 0.025)
(0.025 1.99881 0.025)
(0.075 1.99881 0.025)
(0.025 1.9993 0.025)
(0.075 1.9993 0.025)
(0.025 1.99977 0.025)
(0.075 1.99977 0.025)
(0.025 1.02294 0.075)
(0.075 1.02294 0.075)
(0.025 1.06779 0.075)
(0.075 1.06779 0.075)
(0.025 1.1106 0.075)
(0.075 1.1106 0.075)
(0.025 1.15146 0.075)
(0.075 1.15146 0.075)
(0.025 1.19047 0.075)
(0.075 1.19047 0.075)
(0.025 1.2277 0.075)
(0.075 1.2277 0.075)
(0.025 1.26324 0.075)
(0.075 1.26324 0.075)
(0.025 1.29717 0.075)
(0.075 1.29717 0.075)
(0.025 1.32955 0.075)
(0.075 1.32955 0.075)
(0.025 1.36046 0.075)
(0.075 1.36046 0.075)
(0.025 1.38997 0.075)
(0.075 1.38997 0.075)
(0.025 1.41813 0.075)
(0.075 1.41813 0.075)
(0.025 1.44502 0.075)
(0.075 1.44502 0.075)
(0.025 1.47068 0.075)
(0.075 1.47068 0.075)
(0.025 1.49518 0.075)
(0.075 1.49518 0.075)
(0.025 1.51856 0.075)
(0.075 1.51856 0.075)
(0.025 1.54088 0.075)
(0.075 1.54088 0.075)
(0.025 1.56218 0.075)
(0.075 1.56218 0.075)
(0.025 1.58252 0.075)
(0.075 1.58252 0.075)
(0.025 1.60193 0.075)
(0.075 1.60193 0.075)
(0.025 1.62047 0.075)
(0.075 1.62047 0.075)
(0.025 1.63815 0.075)
(0.075 1.63815 0.075)
(0.025 1.65504 0.075)
(0.075 1.65504 0.075)
(0.025 1.67116 0.075)
(0.075 1.67116 0.075)
(0.025 1.68654 0.075)
(0.075 1.68654 0.075)
(0.025 1.70123 0.075)
(0.075 1.70123 0.075)
(0.025 1.71524 0.075)
(0.075 1.71524 0.075)
(0.025 1.72862 0.075)
(0.075 1.72862 0.075)
(0.025 1.7414 0.075)
(0.075 1.7414 0.075)
(0.025 1.75359 0.075)
(0.075 1.75359 0.075)
(0.025 1.76523 0.075)
(0.075 1.76523 0.075)
(0.025 1.77634 0.075)
(0.075 1.77634 0.075)
(0.025 1.78694 0.075)
(0.075 1.78694 0.075)
(0.025 1.79706 0.075)
(0.075 1.79706 0.075)
(0.025 1.80672 0.075)
(0.075 1.80672 0.075)
(0.025 1.81595 0.075)
(0.075 1.81595 0.075)
(0.025 1.82475 0.075)
(0.075 1.82475 0.075)
(0.025 1.83315 0.075)
(0.075 1.83315 0.075)
(0.025 1.84117 0.075)
(0.075 1.84117 0.075)
(0.025 1.84883 0.075)
(0.075 1.84883 0.075)
(0.025 1.85614 0.075)
(0.075 1.85614 0.075)
(0.025 1.86312 0.075)
(0.075 1.86312 0.075)
(0.025 1.86978 0.075)
(0.075 1.86978 0.075)
(0.025 1.87613 0.075)
(0.075 1.87613 0.075)
(0.025 1.8822 0.075)
(0.075 1.8822 0.075)
(0.025 1.88799 0.075)
(0.075 1.88799 0.075)
(0.025 1.89352 0.075)
(0.075 1.89352 0.075)
(0.025 1.8988 0.075)
(0.075 1.8988 0.075)
(0.025 1.90384 0.075)
(0.075 1.90384 0.075)
(0.025 1.90865 0.075)
(0.075 1.90865 0.075)
(0.025 1.91324 0.075)
(0.075 1.91324 0.075)
(0.025 1.91762 0.075)
(0.075 1.91762 0.075)
(0.025 1.9218 0.075)
(0.075 1.9218 0.075)
(0.025 1.92579 0.075)
(0.075 1.92579 0.075)
(0.025 1.9296 0.075)
(0.075 1.9296 0.075)
(0.025 1.93324 0.075)
(0.075 1.93324 0.075)
(0.025 1.93671 0.075)
(0.075 1.93671 0.075)
(0.025 1.94003 0.075)
(0.075 1.94003 0.075)
(0.025 1.94319 0.075)
(0.075 1.94319 0.075)
(0.025 1.94621 0.075)
(0.075 1.94621 0.075)
(0.025 1.94909 0.075)
(0.075 1.94909 0.075)
(0.025 1.95185 0.075)
(0.075 1.95185 0.075)
(0.025 1.95447 0.075)
(0.075 1.95447 0.075)
(0.025 1.95698 0.075)
(0.075 1.95698 0.075)
(0.025 1.95937 0.075)
(0.075 1.95937 0.075)
(0.025 1.96166 0.075)
(0.075 1.96166 0.075)
(0.025 1.96384 0.075)
(0.075 1.96384 0.075)
(0.025 1.96592 0.075)
(0.075 1.96592 0.075)
(0.025 1.96791 0.075)
(0.075 1.96791 0.075)
(0.025 1.9698 0.075)
(0.075 1.9698 0.075)
(0.025 1.97161 0.075)
(0.075 1.97161 0.075)
(0.025 1.97334 0.075)
(0.075 1.97334 0.075)
(0.025 1.97499 0.075)
(0.075 1.97499 0.075)
(0.025 1.97657 0.075)
(0.075 1.97657 0.075)
(0.025 1.97807 0.075)
(0.075 1.97807 0.075)
(0.025 1.97951 0.075)
(0.075 1.97951 0.075)
(0.025 1.98087 0.075)
(0.075 1.98087 0.075)
(0.025 1.98218 0.075)
(0.075 1.98218 0.075)
(0.025 1.98343 0.075)
(0.075 1.98343 0.075)
(0.025 1.98462 0.075)
(0.075 1.98462 0.075)
(0.025 1.98576 0.075)
(0.075 1.98576 0.075)
(0.025 1.98684 0.075)
(0.075 1.98684 0.075)
(0.025 1.98788 0.075)
(0.075 1.98788 0.075)
(0.025 1.98887 0.075)
(0.075 1.98887 0.075)
(0.025 1.98981 0.075)
(0.075 1.98981 0.075)
(0.025 1.99071 0.075)
(0.075 1.99071 0.075)
(0.025 1.99157 0.075)
(0.075 1.99157 0.075)
(0.025 1.99239 0.075)
(0.075 1.99239 0.075)
(0.025 1.99318 0.075)
(0.075 1.99318 0.075)
(0.025 1.99393 0.075)
(0.075 1.99393 0.075)
(0.025 1.99464 0.075)
(0.075 1.99464 0.075)
(0.025 1.99532 0.075)
(0.075 1.99532 0.075)
(0.025 1.99597 0.075)
(0.075 1.99597 0.075)
(0.025 1.99659 0.075)
(0.075 1.99659 0.075)
(0.025 1.99719 0.075)
(0.075 1.99719 0.075)
(0.025 1.99775 0.075)
(0.075 1.99775 0.075)
(0.025 1.99829 0.075)
(0.075 1.99829 0.075)
(0.025 1.99881 0.075)
(0.075 1.99881 0.075)
(0.025 1.9993 0.075)
(0.075 1.9993 0.075)
(0.025 1.99977 0.075)
(0.075 1.99977 0.075)
)
;

boundaryField
{
    walls
    {
        type            calculated;
        value           nonuniform List<vector> 8((0.025 0 0.025) (0.025 0 0.075) (0.075 0 0.025) (0.075 0 0.075) (0.025 2 0.025) (0.025 2 0.075) (0.075 2 0.025) (0.075 2 0.075));
    }
    inlet
    {
        type            cyclic;
    }
    outlet
    {
        type            cyclic;
    }
    sides
    {
        type            empty;
    }
}


// ************************************************************************* //
