/*--------------------------------*- C++ -*----------------------------------*\
| =========                 |                                                 |
| \\      /  F ield         | OpenFOAM: The Open Source CFD Toolbox           |
|  \\    /   O peration     | Version:  2106                                  |
|   \\  /    A nd           | Website:  www.openfoam.com                      |
|    \\/     M anipulation  |                                                 |
\*---------------------------------------------------------------------------*/
FoamFile
{
    version     2.0;
    format      ascii;
    arch        "LSB;label=32;scalar=64";
    class       volScalarField;
    location    "10010";
    object      Cy;
}
// * * * * * * * * * * * * * * * * * * * * * * * * * * * * * * * * * * * * * //

dimensions      [0 1 0 0 0 0 0];

internalField   nonuniform List<scalar> 
800
(
0.000229448
0.000229448
0.000699269
0.000699269
0.00119146
0.00119146
0.00170709
0.00170709
0.00224727
0.00224727
0.00281317
0.00281317
0.00340602
0.00340602
0.00402709
0.00402709
0.00467774
0.00467774
0.00535937
0.00535937
0.00607346
0.00607346
0.00682155
0.00682155
0.00760526
0.00760526
0.00842628
0.00842628
0.0092864
0.0092864
0.0101875
0.0101875
0.0111315
0.0111315
0.0121204
0.0121204
0.0131564
0.0131564
0.0142417
0.0142417
0.0153788
0.0153788
0.0165699
0.0165699
0.0178178
0.0178178
0.0191251
0.0191251
0.0204947
0.0204947
0.0219295
0.0219295
0.0234325
0.0234325
0.0250072
0.0250072
0.0266568
0.0266568
0.028385
0.028385
0.0301955
0.0301955
0.0320922
0.0320922
0.0340791
0.0340791
0.0361607
0.0361607
0.0383415
0.0383415
0.040626
0.040626
0.0430193
0.0430193
0.0455266
0.0455266
0.0481533
0.0481533
0.0509051
0.0509051
0.0537878
0.0537878
0.0568079
0.0568079
0.0599717
0.0599717
0.0632862
0.0632862
0.0667586
0.0667586
0.0703962
0.0703962
0.0742071
0.0742071
0.0781994
0.0781994
0.0823818
0.0823818
0.0867634
0.0867634
0.0913536
0.0913536
0.0961623
0.0961623
0.1012
0.1012
0.106478
0.106478
0.112007
0.112007
0.117799
0.117799
0.123867
0.123867
0.130224
0.130224
0.136883
0.136883
0.14386
0.14386
0.151169
0.151169
0.158826
0.158826
0.166847
0.166847
0.175251
0.175251
0.184054
0.184054
0.193277
0.193277
0.202939
0.202939
0.213061
0.213061
0.223665
0.223665
0.234774
0.234774
0.246412
0.246412
0.258604
0.258604
0.271376
0.271376
0.284757
0.284757
0.298775
0.298775
0.31346
0.31346
0.328844
0.328844
0.344961
0.344961
0.361846
0.361846
0.379534
0.379534
0.398065
0.398065
0.417478
0.417478
0.437816
0.437816
0.459121
0.459121
0.481442
0.481442
0.504825
0.504825
0.529321
0.529321
0.554984
0.554984
0.581869
0.581869
0.610034
0.610034
0.63954
0.63954
0.670452
0.670452
0.702834
0.702834
0.736759
0.736759
0.7723
0.7723
0.809532
0.809532
0.848538
0.848538
0.8894
0.8894
0.932209
0.932209
0.977055
0.977055
0.000229448
0.000229448
0.000699269
0.000699269
0.00119146
0.00119146
0.00170709
0.00170709
0.00224727
0.00224727
0.00281317
0.00281317
0.00340602
0.00340602
0.00402709
0.00402709
0.00467774
0.00467774
0.00535937
0.00535937
0.00607346
0.00607346
0.00682155
0.00682155
0.00760526
0.00760526
0.00842628
0.00842628
0.0092864
0.0092864
0.0101875
0.0101875
0.0111315
0.0111315
0.0121204
0.0121204
0.0131564
0.0131564
0.0142417
0.0142417
0.0153788
0.0153788
0.0165699
0.0165699
0.0178178
0.0178178
0.0191251
0.0191251
0.0204947
0.0204947
0.0219295
0.0219295
0.0234325
0.0234325
0.0250072
0.0250072
0.0266568
0.0266568
0.028385
0.028385
0.0301955
0.0301955
0.0320922
0.0320922
0.0340791
0.0340791
0.0361607
0.0361607
0.0383415
0.0383415
0.040626
0.040626
0.0430193
0.0430193
0.0455266
0.0455266
0.0481533
0.0481533
0.0509051
0.0509051
0.0537878
0.0537878
0.0568079
0.0568079
0.0599717
0.0599717
0.0632862
0.0632862
0.0667586
0.0667586
0.0703962
0.0703962
0.0742071
0.0742071
0.0781994
0.0781994
0.0823818
0.0823818
0.0867634
0.0867634
0.0913536
0.0913536
0.0961623
0.0961623
0.1012
0.1012
0.106478
0.106478
0.112007
0.112007
0.117799
0.117799
0.123867
0.123867
0.130224
0.130224
0.136883
0.136883
0.14386
0.14386
0.151169
0.151169
0.158826
0.158826
0.166847
0.166847
0.175251
0.175251
0.184054
0.184054
0.193277
0.193277
0.202939
0.202939
0.213061
0.213061
0.223665
0.223665
0.234774
0.234774
0.246412
0.246412
0.258604
0.258604
0.271376
0.271376
0.284757
0.284757
0.298775
0.298775
0.31346
0.31346
0.328844
0.328844
0.344961
0.344961
0.361846
0.361846
0.379534
0.379534
0.398065
0.398065
0.417478
0.417478
0.437816
0.437816
0.459121
0.459121
0.481442
0.481442
0.504825
0.504825
0.529321
0.529321
0.554984
0.554984
0.581869
0.581869
0.610034
0.610034
0.63954
0.63954
0.670452
0.670452
0.702834
0.702834
0.736759
0.736759
0.7723
0.7723
0.809532
0.809532
0.848538
0.848538
0.8894
0.8894
0.932209
0.932209
0.977055
0.977055
1.02294
1.02294
1.06779
1.06779
1.1106
1.1106
1.15146
1.15146
1.19047
1.19047
1.2277
1.2277
1.26324
1.26324
1.29717
1.29717
1.32955
1.32955
1.36046
1.36046
1.38997
1.38997
1.41813
1.41813
1.44502
1.44502
1.47068
1.47068
1.49518
1.49518
1.51856
1.51856
1.54088
1.54088
1.56218
1.56218
1.58252
1.58252
1.60193
1.60193
1.62047
1.62047
1.63815
1.63815
1.65504
1.65504
1.67116
1.67116
1.68654
1.68654
1.70123
1.70123
1.71524
1.71524
1.72862
1.72862
1.7414
1.7414
1.75359
1.75359
1.76523
1.76523
1.77634
1.77634
1.78694
1.78694
1.79706
1.79706
1.80672
1.80672
1.81595
1.81595
1.82475
1.82475
1.83315
1.83315
1.84117
1.84117
1.84883
1.84883
1.85614
1.85614
1.86312
1.86312
1.86978
1.86978
1.87613
1.87613
1.8822
1.8822
1.88799
1.88799
1.89352
1.89352
1.8988
1.8988
1.90384
1.90384
1.90865
1.90865
1.91324
1.91324
1.91762
1.91762
1.9218
1.9218
1.92579
1.92579
1.9296
1.9296
1.93324
1.93324
1.93671
1.93671
1.94003
1.94003
1.94319
1.94319
1.94621
1.94621
1.94909
1.94909
1.95185
1.95185
1.95447
1.95447
1.95698
1.95698
1.95937
1.95937
1.96166
1.96166
1.96384
1.96384
1.96592
1.96592
1.96791
1.96791
1.9698
1.9698
1.97161
1.97161
1.97334
1.97334
1.97499
1.97499
1.97657
1.97657
1.97807
1.97807
1.97951
1.97951
1.98087
1.98087
1.98218
1.98218
1.98343
1.98343
1.98462
1.98462
1.98576
1.98576
1.98684
1.98684
1.98788
1.98788
1.98887
1.98887
1.98981
1.98981
1.99071
1.99071
1.99157
1.99157
1.99239
1.99239
1.99318
1.99318
1.99393
1.99393
1.99464
1.99464
1.99532
1.99532
1.99597
1.99597
1.99659
1.99659
1.99719
1.99719
1.99775
1.99775
1.99829
1.99829
1.99881
1.99881
1.9993
1.9993
1.99977
1.99977
1.02294
1.02294
1.06779
1.06779
1.1106
1.1106
1.15146
1.15146
1.19047
1.19047
1.2277
1.2277
1.26324
1.26324
1.29717
1.29717
1.32955
1.32955
1.36046
1.36046
1.38997
1.38997
1.41813
1.41813
1.44502
1.44502
1.47068
1.47068
1.49518
1.49518
1.51856
1.51856
1.54088
1.54088
1.56218
1.56218
1.58252
1.58252
1.60193
1.60193
1.62047
1.62047
1.63815
1.63815
1.65504
1.65504
1.67116
1.67116
1.68654
1.68654
1.70123
1.70123
1.71524
1.71524
1.72862
1.72862
1.7414
1.7414
1.75359
1.75359
1.76523
1.76523
1.77634
1.77634
1.78694
1.78694
1.79706
1.79706
1.80672
1.80672
1.81595
1.81595
1.82475
1.82475
1.83315
1.83315
1.84117
1.84117
1.84883
1.84883
1.85614
1.85614
1.86312
1.86312
1.86978
1.86978
1.87613
1.87613
1.8822
1.8822
1.88799
1.88799
1.89352
1.89352
1.8988
1.8988
1.90384
1.90384
1.90865
1.90865
1.91324
1.91324
1.91762
1.91762
1.9218
1.9218
1.92579
1.92579
1.9296
1.9296
1.93324
1.93324
1.93671
1.93671
1.94003
1.94003
1.94319
1.94319
1.94621
1.94621
1.94909
1.94909
1.95185
1.95185
1.95447
1.95447
1.95698
1.95698
1.95937
1.95937
1.96166
1.96166
1.96384
1.96384
1.96592
1.96592
1.96791
1.96791
1.9698
1.9698
1.97161
1.97161
1.97334
1.97334
1.97499
1.97499
1.97657
1.97657
1.97807
1.97807
1.97951
1.97951
1.98087
1.98087
1.98218
1.98218
1.98343
1.98343
1.98462
1.98462
1.98576
1.98576
1.98684
1.98684
1.98788
1.98788
1.98887
1.98887
1.98981
1.98981
1.99071
1.99071
1.99157
1.99157
1.99239
1.99239
1.99318
1.99318
1.99393
1.99393
1.99464
1.99464
1.99532
1.99532
1.99597
1.99597
1.99659
1.99659
1.99719
1.99719
1.99775
1.99775
1.99829
1.99829
1.99881
1.99881
1.9993
1.9993
1.99977
1.99977
)
;

boundaryField
{
    walls
    {
        type            calculated;
        value           nonuniform List<scalar> 8(0 0 0 0 2 2 2 2);
    }
    inlet
    {
        type            cyclic;
    }
    outlet
    {
        type            cyclic;
    }
    sides
    {
        type            empty;
    }
}


// ************************************************************************* //
