/*--------------------------------*- C++ -*----------------------------------*\
| =========                 |                                                 |
| \\      /  F ield         | OpenFOAM: The Open Source CFD Toolbox           |
|  \\    /   O peration     | Version:  2106                                  |
|   \\  /    A nd           | Website:  www.openfoam.com                      |
|    \\/     M anipulation  |                                                 |
\*---------------------------------------------------------------------------*/
FoamFile
{
    version     2.0;
    format      ascii;
    arch        "LSB;label=32;scalar=64";
    class       volTensorField;
    location    "10010";
    object      grad(U);
}
// * * * * * * * * * * * * * * * * * * * * * * * * * * * * * * * * * * * * * //

dimensions      [0 0 -1 0 0 0 0];

internalField   nonuniform List<tensor> 
800
(
(0 -2.90438e-26 -3.77973e-28 13.3705 -6.88657e-13 -7.19774e-14 0.0613706 -1.58156e-15 -1.21573e-16)
(-1.15363e-17 6.71364e-29 6.31659e-28 13.3705 -7.96826e-16 -2.74418e-14 0.0613706 -2.48106e-18 1.1364e-17)
(0 -1.37575e-26 -4.56568e-28 13.3642 -2.01849e-28 -4.5081e-14 0.186976 0 -4.33451e-16)
(-2.20239e-17 -5.00765e-30 -1.56489e-31 13.3642 -3.31629e-15 -3.55727e-14 0.186976 -1.65666e-17 -1.72612e-16)
(-5.97673e-18 -9.5601e-30 -1.1265e-31 13.3576 1.06621e-12 -2.26459e-14 0.275433 -9.97248e-15 -4.8006e-16)
(4.78138e-17 9.5601e-30 4.4813e-31 13.3576 -3.94859e-15 -6.78517e-15 0.275433 -3.72454e-17 -1.89278e-16)
(0 -8.6091e-27 0 13.3507 -1.76705e-28 -2.44733e-14 0.288395 0 -5.54682e-16)
(-8.02694e-17 0 0 13.3507 -4.22074e-15 -7.11684e-15 0.288395 -6.1776e-17 -2.069e-16)
(-4.14188e-17 -6.40742e-31 4.74371e-32 13.3435 1.95918e-14 -2.69173e-14 0.30196 -1.15587e-15 -6.37509e-16)
(0 4.3554e-30 2.72213e-31 13.3435 -4.31076e-15 -7.46014e-15 0.30196 -8.76253e-17 -2.25461e-16)
(0 1.03936e-29 5.1968e-31 13.3359 -1.03176e-14 -2.91775e-14 0.316154 -1.49965e-16 -7.1596e-16)
(-2.41607e-16 -1.03936e-29 -5.1968e-31 13.3359 -4.44143e-15 -7.81076e-15 0.316154 -1.1592e-16 -2.44862e-16)
(-8.02782e-17 -1.6837e-29 3.16557e-31 13.328 0 -3.11302e-14 0.331006 0 -7.96688e-16)
(-1.39629e-16 -1.98424e-30 0 13.328 -4.51341e-15 -8.18698e-15 0.331006 -1.45412e-16 -2.6497e-16)
(3.21922e-17 1.70064e-30 8.20048e-32 13.3196 5.43801e-15 -3.3017e-14 0.346544 -1.08188e-16 -8.83977e-16)
(-1.33282e-16 1.89405e-30 4.73513e-31 13.3196 -4.36696e-15 -8.58297e-15 0.346544 -1.76946e-16 -2.85968e-16)
(-1.2288e-16 5.30405e-30 5.85163e-31 13.3108 6.56173e-15 -3.02001e-14 0.362799 -1.69719e-16 -7.20755e-16)
(9.83044e-16 -1.80797e-30 0 13.3108 -4.09042e-15 -8.98011e-15 0.362799 -2.07237e-16 -3.07519e-16)
(4.85767e-16 -5.17737e-30 -8.62896e-31 13.3015 6.58105e-15 -2.43392e-14 0.3798 -1.80013e-16 -6.35348e-16)
(-2.42884e-16 3.45158e-30 8.62896e-31 13.3015 -4.13457e-15 -9.39053e-15 0.3798 -2.37529e-16 -3.29426e-16)
(2.31844e-16 -4.94205e-30 -4.11838e-31 13.2916 6.70883e-15 -2.29218e-14 0.397578 -1.87371e-16 -7.06199e-16)
(-6.78328e-16 4.94205e-30 4.11838e-31 13.2916 -4.20086e-15 -9.84413e-15 0.397578 -2.73975e-16 -3.51657e-16)
(-1.9459e-16 7.95976e-30 9.74611e-31 13.281 7.09783e-15 -2.43691e-14 0.416164 -2.05211e-16 -7.88036e-16)
(5.57055e-16 -4.71743e-30 0 13.281 -4.12264e-15 -1.03324e-14 0.416164 -3.12527e-16 -3.74675e-16)
(0 4.50302e-30 7.50503e-31 13.2694 7.17523e-15 -2.59792e-14 0.435584 -2.30028e-16 -8.80808e-16)
(4.60594e-16 -3.00201e-30 -7.50503e-31 13.2694 -4.15435e-15 -1.08192e-14 0.435584 -3.47613e-16 -3.97892e-16)
(-2.48183e-16 4.52085e-30 2.14183e-31 13.2567 7.00194e-15 -2.77006e-14 0.455862 -2.30303e-16 -9.83319e-16)
(0 0 0 13.2567 -4.21536e-15 -1.1319e-14 0.455862 -3.87072e-16 -4.2086e-16)
(0 2.73532e-30 1.36766e-30 13.2423 7.12203e-15 -2.95257e-14 0.477017 -2.40531e-16 -1.09825e-15)
(0 -1.36766e-30 -6.8383e-31 13.2423 -4.08527e-15 -1.18344e-14 0.477017 -4.34608e-16 -4.43767e-16)
(-7.3493e-16 5.22199e-30 6.52749e-31 13.2258 7.16896e-15 -2.12614e-14 0.499057 -2.61414e-16 -4.55087e-16)
(0 -2.611e-30 0 13.2258 -3.86981e-15 -1.23919e-14 0.499057 -4.79643e-16 -4.65911e-16)
(-7.01526e-16 4.98464e-30 1.24616e-30 13.2062 6.72509e-15 -9.10855e-15 0.521976 -2.67526e-16 -2.4386e-16)
(0 -2.49232e-30 0 13.2062 -3.73148e-15 -1.29426e-14 0.521976 -5.21577e-16 -4.88002e-16)
(-7.42578e-16 5.63423e-30 1.99359e-30 13.1824 6.32805e-15 -6.15366e-15 0.545744 -2.51786e-16 -2.54552e-16)
(-1.48516e-15 -2.37904e-30 -1.18952e-30 13.1824 -3.4818e-15 -1.3445e-14 0.545744 -5.69094e-16 -5.08667e-16)
(-2.33455e-16 2.9219e-30 1.86347e-30 13.1528 6.6234e-15 -6.11004e-15 0.570302 -2.60703e-16 -2.63848e-16)
(-3.8852e-15 0 0 13.1528 -3.29908e-15 -1.40278e-14 0.570302 -6.17147e-16 -5.28455e-16)
(-4.41819e-16 1.02769e-29 2.57958e-30 13.1154 6.7122e-15 -6.16163e-15 0.595548 -3.01979e-16 -2.84064e-16)
(0 -8.67078e-30 -2.16769e-30 13.1154 -3.60386e-15 -1.45883e-14 0.595548 -6.62865e-16 -5.49059e-16)
(4.79566e-16 -7.80724e-30 -1.45264e-30 13.0673 6.022e-15 -6.25823e-15 0.621323 -2.94199e-16 -2.98779e-16)
(-1.91826e-15 6.20751e-30 1.03458e-30 13.0673 -3.83391e-15 -1.5096e-14 0.621323 -7.30026e-16 -5.68088e-16)
(0 -1.97512e-30 -9.87561e-31 13.005 5.16219e-15 -6.31267e-15 0.647395 -2.6565e-16 -3.17194e-16)
(2.07624e-15 1.97512e-30 9.87561e-31 13.005 -2.78837e-15 -1.56794e-14 0.647395 -7.94434e-16 -5.88852e-16)
(-5.60367e-16 1.59579e-30 3.20409e-31 12.9242 4.86687e-15 -1.40696e-14 0.673447 -2.37047e-16 -1.13916e-15)
(6.72441e-15 0 0 12.9242 -2.62349e-15 -1.58853e-14 0.673447 -8.26392e-16 -6.11823e-16)
(2.02623e-15 -1.79966e-30 -8.99829e-31 12.8196 5.01168e-15 -2.2916e-14 0.699062 -2.60664e-16 -1.31737e-15)
(0 1.79966e-30 8.99829e-31 12.8196 -3.34923e-15 -1.51285e-14 0.699062 -8.74751e-16 -6.25709e-16)
(0 0 0 12.6856 4.71878e-15 -2.41099e-14 0.723721 -2.76025e-16 -1.38727e-15)
(0 0 8.5893e-31 12.6856 -2.02205e-15 -1.6342e-14 0.723721 -9.21996e-16 -6.1804e-16)
(6.95641e-16 -3.21415e-30 -3.73236e-31 12.5159 4.31685e-15 -2.39683e-14 0.746815 -2.5246e-16 -1.42878e-15)
(-9.23115e-16 1.63978e-30 1.63978e-30 12.5159 -1.08538e-15 -1.72104e-14 0.746815 -9.47335e-16 -6.6767e-16)
(1.76232e-15 -4.69575e-30 -1.56525e-30 12.3046 4.20553e-15 -2.34412e-14 0.76767 -2.54605e-16 -1.45612e-15)
(-1.76232e-15 4.69575e-30 1.56525e-30 12.3046 -1.59453e-15 -1.60538e-14 0.76767 -9.77595e-16 -6.9586e-16)
(-7.95346e-16 3.05413e-30 3.92245e-31 12.0468 4.38471e-15 -2.26542e-14 0.785603 -2.63052e-16 -1.46423e-15)
(3.18139e-15 0 0 12.0468 -1.76697e-15 -1.56966e-14 0.785603 -1.00772e-15 -7.30248e-16)
(-8.47863e-16 -4.162e-30 4.05302e-31 11.7392 4.48336e-15 -2.15687e-14 0.79998 -3.03075e-16 -1.44802e-15)
(5.98003e-15 5.70479e-30 2.8524e-30 11.7392 -2.29657e-15 -1.50065e-14 0.79998 -1.05541e-15 -7.77591e-16)
(9.01941e-16 -1.72205e-31 -4.24887e-31 11.3808 4.0189e-15 -1.9962e-14 0.810296 -3.02339e-16 -1.37428e-15)
(0 -1.36138e-30 0 11.3808 -2.65615e-15 -1.42298e-14 0.810296 -1.09546e-15 -8.25514e-16)
(0 -5.19799e-30 -1.2995e-30 10.9739 2.98233e-15 -1.80098e-14 0.816233 -2.65353e-16 -1.29298e-15)
(7.65875e-15 5.19799e-30 1.2995e-30 10.9739 -1.92885e-15 -1.33143e-14 0.816233 -1.12923e-15 -8.89515e-16)
(1.01378e-15 -4.02287e-30 -4.71237e-31 10.5235 2.91825e-15 -1.56436e-14 0.817704 -1.74533e-16 -1.13215e-15)
(4.05511e-15 2.48087e-30 0 10.5235 -2.36605e-15 -1.21635e-14 0.817704 -1.16717e-15 -9.60567e-16)
(0 -2.36811e-30 -2.36811e-30 10.0374 3.29087e-15 -1.31278e-14 0.814862 -2.81038e-16 -1.00008e-15)
(0 2.36811e-30 2.36811e-30 10.0374 -3.182e-15 -1.12826e-14 0.814862 -1.25124e-15 -1.04936e-15)
(-1.1284e-15 -7.52551e-30 5.11924e-31 9.52512 3.36098e-15 -1.08761e-14 0.808064 -2.53602e-16 -8.49716e-16)
(4.51359e-15 9.0419e-30 0 9.52512 -2.40475e-15 -1.03967e-14 0.808064 -1.33427e-15 -1.17137e-15)
(-2.37178e-15 5.15559e-30 1.05377e-30 8.99721 3.64022e-15 -8.78564e-15 0.797826 -3.20671e-16 -7.15525e-16)
(4.74355e-15 -2.15773e-30 0 8.99721 -1.71903e-15 -9.21605e-15 0.797826 -1.36892e-15 -1.30787e-15)
(-1.15949e-15 6.17898e-30 4.11932e-30 8.46397 3.41949e-15 -6.62521e-15 0.784752 -3.29362e-16 -5.18912e-16)
(0 0 0 8.46397 -1.71402e-15 -8.59392e-15 0.784752 -1.4065e-15 -1.45067e-15)
(-9.13935e-16 8.36025e-30 7.30139e-30 7.9348 3.22571e-15 -4.48791e-15 0.769471 -3.09674e-16 -3.56582e-16)
(5.19855e-15 -7.86418e-30 -3.93209e-30 7.9348 -4.09314e-15 -8.59e-15 0.769471 -1.45832e-15 -1.65357e-15)
(1.35537e-15 -5.20328e-30 -2.44017e-30 7.41763 3.72759e-15 -2.99869e-15 0.752589 -3.22605e-16 -2.56568e-16)
(5.42149e-15 3.75337e-30 1.87669e-30 7.41763 -6.07355e-15 -8.34498e-15 0.752589 -1.61499e-15 -1.88557e-15)
(1.41008e-15 -4.99809e-30 -2.34616e-30 6.91865 4.27873e-15 -2.17851e-15 0.734649 -4.4533e-16 -2.10792e-16)
(5.64033e-15 1.79139e-30 1.79139e-30 6.91865 -6.29494e-15 -7.82087e-15 0.734649 -1.75071e-15 -2.12559e-15)
(1.46363e-15 3.18499e-31 -2.5659e-30 6.44233 3.74528e-15 -7.29488e-16 0.716116 -4.75386e-16 -4.1081e-17)
(0 0 0 6.44233 -6.23182e-15 -7.66055e-15 0.716116 -1.93711e-15 -2.3842e-15)
(1.83775e-15 -3.26449e-30 -7.12966e-31 5.99157 2.98065e-15 1.12037e-30 0.697371 -3.65725e-16 0)
(0 3.26449e-30 1.63225e-30 5.99157 -4.13577e-15 -6.9017e-15 0.697371 -2.01948e-15 -2.70041e-15)
(-3.13381e-15 7.43521e-30 7.71053e-31 5.56794 2.67714e-15 4.60074e-16 0.678711 -3.36998e-16 -2.84351e-17)
(0 -3.11612e-30 0 5.56794 -3.62184e-15 -1.68709e-15 0.678711 -2.02207e-15 -2.98099e-15)
(1.61654e-15 1.60425e-30 -9.14426e-31 5.17194 2.97875e-15 1.86437e-15 0.660362 -3.2456e-16 -1.20715e-16)
(-8.14066e-15 0 0 5.17194 -4.04306e-15 2.96892e-15 0.660362 -2.17614e-15 -3.04175e-15)
(1.66485e-15 -5.59909e-30 -3.28245e-30 4.80332 3.42733e-15 3.30483e-15 0.642486 -4.49831e-16 -3.92989e-16)
(6.65939e-15 4.25893e-30 2.83929e-30 4.80332 -3.94328e-15 4.03988e-15 0.642486 -2.2018e-15 -3.11059e-15)
(1.71183e-15 -1.31408e-30 -4.05093e-31 4.46123 3.62815e-15 3.87764e-15 0.625196 -4.80812e-16 -5.06332e-16)
(-6.84731e-15 0 2.71024e-30 4.46123 -4.87772e-15 4.84333e-15 0.625196 -2.30708e-15 -3.16357e-15)
(0 5.17411e-30 2.58705e-30 4.14449 3.97123e-15 4.44157e-15 0.608561 -5.5213e-16 -5.97999e-16)
(0 -2.58705e-30 0 4.14449 -5.15806e-15 4.7897e-15 0.608561 -2.50547e-15 -3.22708e-15)
(-1.80196e-15 1.22929e-30 3.2016e-31 3.85165 4.30531e-15 4.95288e-15 0.592623 -6.32287e-16 -7.27626e-16)
(0 2.46947e-30 2.46947e-30 3.85165 -6.90462e-15 4.99713e-15 0.592623 -2.72691e-15 -3.32964e-15)
(0 -2.35723e-30 -2.35723e-30 3.58118 3.87401e-15 4.43945e-15 0.577398 -7.1266e-16 -8.19607e-16)
(0 2.35723e-30 2.35723e-30 3.58118 -6.97431e-15 5.79899e-15 0.577398 -3.11176e-15 -3.42833e-15)
(-3.77454e-15 9.12458e-30 5.56289e-31 3.3315 2.0623e-15 4.31553e-15 0.562883 -5.49624e-16 -6.26778e-16)
(7.54908e-15 -6.75026e-30 0 3.3315 -4.26449e-15 5.49934e-15 0.562883 -3.28305e-15 -3.43418e-15)
(4.83646e-15 -4.63549e-31 0 3.10104 1.6404e-15 6.06205e-15 0.549066 -1.47093e-16 -8.5608e-16)
(-1.01312e-14 0 0 3.10104 -4.36968e-15 4.82447e-15 0.549066 -3.42913e-15 -3.51312e-15)
(3.93634e-15 -2.30696e-30 1.85403e-30 2.88831 3.85873e-15 6.89562e-15 0.535925 -5.03277e-16 -1.32924e-15)
(7.87268e-15 0 -2.0502e-30 2.88831 -4.15647e-15 5.82785e-15 0.535925 -3.59779e-15 -3.63133e-15)
(0 0 0 2.69186 5.45095e-15 5.86994e-15 0.523429 -9.57218e-16 -1.26022e-15)
(8.02836e-15 1.95701e-30 0 2.69186 -3.51953e-15 6.28972e-15 0.523429 -3.76148e-15 -3.63395e-15)
(0 5.60419e-30 1.86806e-30 2.51037 5.33902e-15 5.00412e-15 0.511549 -1.19404e-15 -1.04547e-15)
(0 -5.60419e-30 -1.86806e-30 2.51037 -4.5425e-15 5.11186e-15 0.511549 -3.90857e-15 -3.59997e-15)
(0 5.34947e-30 1.78316e-30 2.34258 4.46727e-15 4.97462e-15 0.500249 -1.00329e-15 -1.01754e-15)
(0 -5.34947e-30 -1.78316e-30 2.34258 -3.30871e-15 3.89417e-15 0.500249 -4.13649e-15 -3.44024e-15)
(0 1.70211e-30 0 2.18735 4.72117e-15 5.3022e-15 0.489494 -9.24871e-16 -9.48014e-16)
(8.47331e-15 0 0 2.18735 -2.06072e-15 1.33871e-15 0.489494 -4.3362e-15 -3.03273e-15)
(4.30743e-15 -1.74138e-30 0 2.04362 4.91398e-15 2.76708e-15 0.47925 -1.21876e-15 -6.30494e-16)
(0 0 0 2.04362 -2.51242e-15 -5.6212e-16 0.47925 -4.43053e-15 -2.83311e-15)
(-2.18833e-15 -7.01744e-31 -9.67612e-32 1.91043 3.50395e-15 1.1521e-16 0.469482 -1.10864e-15 -1.43069e-17)
(1.75066e-14 3.1018e-30 0 1.91043 -3.0272e-16 -8.79514e-16 0.469482 -4.59377e-15 -2.56957e-15)
(5.55578e-15 -9.04016e-31 -6.64849e-32 1.78688 1.37499e-15 4.75245e-16 0.460155 -6.20513e-16 -1.28019e-16)
(8.88879e-15 0 0 1.78688 1.32084e-15 -9.71517e-16 0.460155 -4.46396e-15 -2.44128e-15)
(9.26701e-16 -2.63598e-30 -1.33227e-30 1.67218 6.05256e-16 5.56744e-16 0.451239 -8.24898e-17 -1.1908e-16)
(-3.18206e-15 2.82624e-30 1.41312e-30 1.67218 1.79956e-16 -6.79029e-16 0.451239 -4.56512e-15 -2.36216e-15)
(0 0 -2.69778e-30 1.5656 3.01851e-15 1.20725e-15 0.4427 -6.801e-16 -1.85989e-16)
(1.83029e-14 0 2.69778e-30 1.5656 -6.64426e-16 -4.0556e-16 0.4427 -4.58841e-15 -2.26474e-15)
(2.31971e-15 -7.72905e-31 -1.34171e-30 1.46647 2.21239e-15 2.27957e-15 0.43451 -1.05247e-15 -5.11051e-16)
(9.27886e-15 0 0 1.46647 3.15918e-16 -1.42894e-17 0.43451 -4.40264e-15 -2.01405e-15)
(2.7676e-15 -2.45812e-30 -1.22906e-30 1.37418 1.51698e-15 1.36693e-15 0.42664 -2.52622e-16 -7.68661e-16)
(6.63623e-15 0 0 1.37418 1.49742e-16 1.40169e-16 0.42664 -4.4699e-15 -1.96138e-15)
(-2.64181e-15 0 5.11317e-46 1.28819 2.0943e-15 1.94014e-30 0.419062 -7.08828e-16 0)
(-9.52645e-15 0 0 1.28819 7.36202e-17 2.06977e-16 0.419062 -4.80246e-15 -1.91806e-15)
(2.41171e-15 -8.62163e-31 -1.07111e-31 1.20798 1.88902e-15 1.16383e-15 0.41175 -6.65366e-16 -2.67071e-16)
(9.64682e-15 0 0 1.20798 1.14666e-15 3.87237e-16 0.41175 -4.86645e-15 -1.74568e-15)
(2.44126e-15 -8.58815e-31 -5.624e-32 1.13311 2.92967e-15 7.30244e-16 0.404681 -6.33361e-16 -5.39879e-16)
(0 0 0 1.13311 7.52071e-16 -3.14364e-16 0.404681 -4.76444e-15 -1.21699e-15)
(-1.72581e-16 -1.35464e-30 -1.97344e-30 1.06317 3.04624e-15 -6.38596e-16 0.39783 -1.49806e-15 -4.65533e-16)
(1.97623e-14 2.04077e-30 0 1.06317 1.0292e-15 -2.20599e-15 0.39783 -4.67947e-15 -1.08195e-15)
(-2.49882e-15 7.22431e-31 -4.39888e-31 0.997762 2.33243e-15 -7.73475e-31 0.391174 -7.85209e-16 -1.97215e-31)
(-9.99527e-15 0 3.28807e-31 0.997762 -1.12934e-15 -1.65477e-15 0.391174 -4.67361e-15 -9.47545e-16)
(0 0 0 0.936551 3.4898e-15 2.84123e-15 0.384692 -1.06611e-15 -1.38366e-15)
(2.09359e-15 0 0 0.936551 -1.42906e-15 9.86076e-31 0.384692 -2.54286e-15 0)
(-5.10886e-15 -8.09783e-31 6.36606e-32 0.87922 3.2635e-15 6.59816e-16 0.378362 -1.84358e-15 -9.38688e-16)
(0 1.77496e-30 0 0.87922 6.34581e-16 1.22681e-15 0.378362 -1.06852e-15 -1.00855e-15)
(-6.39674e-15 2.26701e-30 3.01503e-32 0.825478 2.13088e-15 -1.51611e-15 0.372164 -9.68938e-16 -9.95632e-16)
(-6.51099e-15 8.39923e-31 7.35442e-31 0.825478 -2.70232e-16 -1.19107e-16 0.372164 -4.37162e-16 -1.46197e-16)
(0 0 2.27711e-45 0.77506 7.4234e-16 2.06381e-30 0.366076 -1.12928e-15 0)
(0 0 0 0.77506 -7.60186e-16 4.0286e-16 0.366076 -2.83476e-16 -8.31099e-16)
(-8.74516e-15 1.03755e-30 3.62518e-31 0.727722 -1.32213e-15 1.26573e-15 0.360079 -1.12184e-15 -4.96642e-16)
(3.47626e-15 0 0 0.727722 -7.08908e-16 8.57024e-16 0.360079 -4.27389e-16 -8.80549e-16)
(2.66026e-15 -6.23414e-31 -1.56441e-30 0.68324 -1.89673e-15 1.14633e-15 0.354152 -9.34362e-16 -7.73036e-16)
(0 -2.94721e-30 0 0.68324 -7.28395e-16 -5.18042e-16 0.354152 -3.31975e-16 -8.72611e-16)
(-2.20385e-15 1.45264e-31 -1.35717e-30 0.641406 -1.15711e-15 -3.23117e-16 0.348273 -3.18762e-16 -8.78731e-16)
(1.07426e-14 -3.2234e-30 -2.97776e-45 0.641406 2.81252e-16 -6.90253e-31 0.348273 -9.93449e-17 -2.22009e-46)
(2.71063e-15 -8.8305e-31 5.458e-31 0.60203 -9.79907e-30 1.30074e-16 0.342422 0 -3.73152e-17)
(2.1685e-14 -5.25985e-30 -4.85116e-30 0.60203 1.24092e-15 1.46234e-16 0.342422 -1.08129e-15 -4.19509e-17)
(0 -1.28167e-30 -1.28167e-30 0.564935 -4.74516e-16 2.15241e-15 0.336574 -1.06152e-15 -1.61719e-15)
(1.09408e-14 -4.67915e-31 -9.20973e-32 0.564935 -1.43491e-15 8.71933e-16 0.336574 -2.56546e-15 -1.26875e-15)
(-2.75937e-15 4.15751e-31 2.22704e-32 0.529956 -3.6639e-16 4.3734e-15 0.330707 -1.15356e-16 -1.59557e-15)
(0 0 0 0.529956 -2.0541e-15 -4.28656e-17 0.330707 -6.46726e-16 -1.3496e-17)
(0 -1.16781e-30 0 0.496941 5.72242e-16 6.36598e-15 0.324794 -7.54837e-16 2.30071e-16)
(2.48947e-14 -2.10195e-44 1.75162e-46 0.496941 -9.58392e-30 -1.52869e-32 0.324794 -1.35605e-45 -7.70372e-34)
(-2.8065e-15 7.63185e-31 0 0.465747 8.8229e-16 2.5473e-15 0.318808 -7.80552e-16 2.44684e-15)
(1.1226e-14 -1.99833e-30 -1.266e-30 0.465747 1.86183e-15 7.45656e-16 0.318808 -2.29971e-15 -7.49544e-16)
(-2.82947e-15 6.69984e-31 -1.06406e-30 0.436241 1.19004e-15 1.08284e-17 0.31272 -4.3079e-16 2.02775e-15)
(-1.37139e-14 3.37786e-30 4.8205e-30 0.436241 1.16941e-15 7.45662e-16 0.31272 -5.5895e-16 -2.69927e-16)
(-4.5743e-15 0 -1.52355e-30 0.408298 2.99405e-15 -6.65812e-16 0.306494 -2.19478e-15 1.6122e-15)
(1.14081e-14 -1.5072e-30 2.0314e-30 0.408298 2.79811e-15 4.83059e-15 0.306494 -1.49745e-15 -6.01225e-16)
(0 0 0 0.381797 6.06242e-16 -2.25717e-15 0.300094 -2.35062e-15 4.35168e-16)
(0 0 0 0.381797 2.47538e-15 3.84802e-15 0.300094 -2.77684e-15 -1.79018e-16)
(-2.89593e-15 8.25354e-31 0 0.356627 -5.30832e-16 9.86076e-32 0.293475 -2.20936e-16 2.93614e-47)
(-1.57516e-14 1.84089e-30 0 0.356627 2.27419e-16 -8.00934e-16 0.293475 -2.8824e-15 3.08079e-16)
(0 -2.88373e-31 -8.83403e-31 0.332676 2.36658e-30 1.00452e-15 0.286585 0 9.03219e-17)
(-1.1669e-14 6.26698e-31 8.83403e-31 0.332676 -2.52161e-15 -3.50978e-15 0.286585 -3.68133e-15 -4.07336e-16)
(2.93814e-15 -1.83105e-30 -8.43251e-31 0.309837 2.87008e-15 -1.61923e-15 0.279365 -4.88041e-15 -1.1394e-16)
(-1.17525e-14 3.12067e-30 2.41529e-31 0.309837 1.60432e-29 1.16333e-30 0.279365 0 0)
(6.58363e-15 -1.03024e-31 -6.67173e-31 0.288005 -7.34047e-17 -2.95823e-31 0.271742 -4.31741e-15 0)
(8.20927e-15 -2.27912e-30 1.60985e-30 0.288005 3.17198e-15 2.16894e-15 0.271742 -2.24595e-15 1.99784e-16)
(9.41741e-15 -2.78677e-30 -1.53668e-30 0.267074 -1.67633e-30 1.93588e-15 0.263631 0 -3.12206e-16)
(0 0 7.68339e-31 0.267074 7.89329e-16 -2.55935e-16 0.263631 -3.8633e-15 2.19232e-16)
(2.99806e-15 -6.19873e-31 -7.33416e-31 0.246939 8.60448e-16 -1.9102e-16 0.25493 -1.1199e-15 7.24121e-17)
(0 0 7.33416e-31 0.246939 -2.57824e-29 1.0334e-17 0.25493 0 2.47393e-16)
(3.15289e-15 0 -1.49927e-31 0.227489 2.77945e-16 -1.79681e-30 0.245511 -6.77421e-16 0)
(0 0 0 0.227489 8.02296e-16 4.37652e-16 0.245511 -6.22996e-16 7.53143e-19)
(0 0 0 0.208609 -3.93819e-16 1.68918e-15 0.235218 -8.42224e-16 -9.82318e-17)
(0 0 0 0.208609 3.78902e-16 -2.24113e-15 0.235218 -1.15507e-15 3.28439e-16)
(0 -6.37888e-31 6.37888e-31 0.19017 -9.74739e-16 -3.00826e-15 0.223851 -1.52809e-15 1.10281e-15)
(2.87279e-15 -6.92459e-31 -1.81293e-44 0.19017 -2.37472e-30 -4.09269e-30 0.223851 -4.98969e-15 -8.85248e-47)
(0 0 -4.20118e-31 0.172029 1.15287e-15 -3.96792e-15 0.211154 -1.3696e-15 -1.26977e-15)
(0 2.43941e-45 0 0.172029 1.44992e-30 1.46334e-16 0.211154 7.88861e-31 8.37944e-16)
(6.17472e-15 5.78449e-31 -2.10195e-45 0.154019 9.47443e-16 -7.05349e-30 0.196797 -4.58752e-15 1.97215e-31)
(1.23494e-14 0 0 0.154019 2.09008e-16 -8.15765e-16 0.196797 -4.47416e-15 1.20883e-15)
(0 2.8146e-31 0 0.135948 8.16752e-30 1.2541e-15 0.180361 -2.65953e-15 -5.67674e-16)
(-4.99722e-15 0 0 0.135948 -1.35111e-16 -5.00151e-16 0.180361 -2.03114e-15 -6.81828e-17)
(-3.11846e-15 5.98014e-31 0 0.11759 -1.36957e-15 -4.31866e-16 0.161306 -1.29325e-15 -4.80784e-16)
(1.24738e-14 -1.78425e-30 0 0.11759 -1.19977e-15 -6.2586e-16 0.161306 -1.75163e-15 -3.68585e-16)
(-3.13275e-15 0 0 0.0986841 -1.05695e-30 1.84889e-31 0.13895 -7.88861e-31 0)
(4.55328e-15 0 0 0.0986841 -4.83164e-16 -7.08259e-16 0.13895 -3.68155e-16 -2.25663e-16)
(0 0 -9.65078e-31 0.0789357 8.538e-16 -1.44737e-15 0.112475 -1.32857e-15 3.34165e-16)
(2.51685e-14 -6.30052e-30 0 0.0789357 3.76435e-16 -1.27196e-15 0.112475 -3.00488e-16 -1.71286e-16)
(-3.15824e-15 4.55919e-31 2.18953e-47 0.0580536 1.67323e-15 9.1258e-31 0.0809838 -1.39925e-15 0)
(1.2633e-14 -8.47792e-31 0 0.0580536 5.66628e-17 7.63974e-16 0.0809838 -2.89132e-15 -2.07421e-16)
(-3.96021e-15 -1.4013e-45 8.79343e-31 0.0358188 -3.9443e-31 3.94302e-15 0.0436686 -3.51506e-15 1.64682e-15)
(0 -8.24139e-44 0 0.0358188 -1.85729e-29 4.16879e-15 0.0436686 8.35408e-47 1.69576e-16)
(1.84045e-18 -4.19688e-31 0 4.68316e-10 3.07277e-16 1.4985e-15 4.29818e-10 -6.65957e-16 3.68636e-16)
(-3.78021e-15 4.19688e-31 0 4.69158e-10 2.35144e-15 4.46476e-17 4.30585e-10 -2.80223e-15 1.6197e-15)
(0 -6.40393e-34 -1.02463e-32 13.3705 -6.31204e-16 1.45356e-14 -0.0613706 1.58156e-15 1.21573e-16)
(0 6.40393e-34 1.02463e-32 13.3705 -1.5997e-16 2.07807e-14 -0.0613706 2.48106e-18 -1.1364e-17)
(0 3.66772e-33 0 13.3642 -1.52325e-15 1.08912e-14 -0.186976 2.287e-14 6.47203e-16)
(0 1.23621e-29 4.42958e-28 13.3642 -6.92879e-17 6.6273e-15 -0.186976 1.65666e-17 1.72612e-16)
(1.19535e-17 2.33401e-33 7.46883e-32 13.3576 -1.95978e-15 2.23177e-15 -0.275433 9.97248e-15 7.447e-16)
(0 -2.33401e-33 -7.46883e-32 13.3576 -5.3081e-16 3.38336e-15 -0.275433 3.72454e-17 1.89278e-16)
(0 0 0 13.3507 -2.0106e-15 2.27796e-15 -0.288395 1.25089e-14 8.53083e-16)
(0 0 -7.12936e-32 13.3507 -5.5062e-16 3.68997e-15 -0.288395 6.1776e-17 2.069e-16)
(4.14188e-17 0 0 13.3435 -2.10479e-15 2.31842e-15 -0.30196 1.22308e-14 9.79329e-16)
(-1.65675e-16 0 -6.80532e-32 13.3435 -5.81898e-16 4.02788e-15 -0.30196 8.76253e-17 2.25461e-16)
(1.46277e-16 3.248e-32 6.496e-32 13.3359 -2.25537e-15 2.34888e-15 -0.316154 1.23243e-14 1.12548e-15)
(-3.87884e-16 -3.248e-32 -6.496e-32 13.3359 -5.45875e-16 4.40075e-15 -0.316154 1.1592e-16 2.44862e-16)
(0 0 0 13.328 -2.29835e-15 2.36902e-15 -0.331006 1.23755e-14 1.29048e-15)
(-1.39629e-16 0 -6.20075e-32 13.328 -5.12503e-16 4.80062e-15 -0.331006 1.45412e-16 2.6497e-16)
(1.33282e-16 1.47973e-32 5.91892e-32 13.3196 -2.19604e-15 2.38119e-15 -0.346544 1.23626e-14 1.47488e-15)
(-5.37642e-16 -1.47973e-32 -5.91892e-32 13.3196 -4.99462e-16 5.23643e-15 -0.346544 1.76946e-16 2.85968e-16)
(-8.68764e-18 1.12998e-31 0 13.3108 -2.10872e-15 2.38347e-15 -0.362799 1.23339e-14 1.68036e-15)
(0 -8.47484e-32 -1.12998e-31 13.3108 -4.59364e-16 5.71707e-15 -0.362799 2.07237e-16 3.07519e-16)
(1.45695e-16 5.3931e-32 0 13.3015 -2.17426e-15 2.37074e-15 -0.3798 1.23033e-14 1.84431e-15)
(-5.82781e-16 -8.08965e-32 -1.07862e-31 13.3015 -6.39334e-16 6.22696e-15 -0.3798 2.37529e-16 3.29426e-16)
(0 -2.57399e-32 0 13.2916 -2.23314e-15 2.34599e-15 -0.397578 1.22724e-14 1.9863e-15)
(-6.78328e-16 2.57399e-32 1.02959e-31 13.2916 -9.27818e-16 6.74905e-15 -0.397578 2.73975e-16 3.51657e-16)
(4.42613e-16 4.91399e-32 1.9656e-31 13.281 -2.2217e-15 2.30545e-15 -0.416164 1.22378e-14 2.1454e-15)
(-1.22097e-15 -4.91399e-32 -1.9656e-31 13.281 -6.92552e-16 7.31265e-15 -0.416164 3.12527e-16 3.74675e-16)
(-2.20772e-16 4.69064e-32 1.87626e-31 13.2694 -2.19411e-15 2.24073e-15 -0.435584 1.21976e-14 2.32455e-15)
(4.60594e-16 -2.34532e-32 -1.87626e-31 13.2694 -4.87138e-16 7.93925e-15 -0.435584 3.47613e-16 3.97892e-16)
(1.55109e-16 1.34323e-31 1.79098e-31 13.2567 -2.20539e-15 2.16042e-15 -0.455862 1.21579e-14 2.52667e-15)
(-1.39602e-15 -1.34323e-31 -1.79098e-31 13.2567 -9.50993e-16 8.58868e-15 -0.455862 3.87072e-16 4.2086e-16)
(3.84962e-16 1.28218e-31 3.41915e-31 13.2423 -2.13397e-15 2.05472e-15 -0.477017 1.2117e-14 2.75428e-15)
(-1.49248e-15 -1.28218e-31 -3.41915e-31 13.2423 -1.17699e-15 9.27406e-15 -0.477017 4.34608e-16 4.43767e-16)
(6.1384e-16 0 0 13.2258 -1.99882e-15 1.92246e-15 -0.499057 1.207e-14 3.0109e-15)
(0 0 0 13.2258 -8.5028e-16 9.99308e-15 -0.499057 4.79643e-16 4.65911e-16)
(-3.38368e-16 0 0 13.2062 -2.05258e-15 1.76718e-15 -0.521976 1.20216e-14 3.10717e-15)
(1.35347e-15 3.89425e-32 1.5577e-31 13.2062 -8.92092e-16 1.07277e-14 -0.521976 5.21577e-16 4.88002e-16)
(-7.29376e-17 7.43451e-32 5.9476e-31 13.1824 -1.97714e-15 1.58202e-15 -0.545744 1.19798e-14 3.15152e-15)
(-1.48516e-15 -7.43451e-32 -4.4607e-31 13.1824 -1.2398e-15 1.14451e-14 -0.545744 5.69094e-16 5.08667e-16)
(4.0575e-16 -7.0966e-32 -2.83864e-31 13.1528 -1.69872e-15 1.37492e-15 -0.570302 1.19335e-14 3.19979e-15)
(0 1.41932e-31 2.83864e-31 13.1528 -1.12621e-15 1.21236e-14 -0.570302 6.17147e-16 5.28455e-16)
(4.41819e-16 6.77404e-32 2.70962e-31 13.1154 -1.66571e-15 1.15517e-15 -0.595548 1.18751e-14 3.252e-15)
(0 -1.35481e-31 -5.41924e-31 13.1154 -1.45565e-15 1.28023e-14 -0.595548 6.62865e-16 5.49059e-16)
(1.06199e-15 -1.29323e-31 -2.58646e-31 13.0673 -1.73995e-15 9.37072e-16 -0.621323 1.18215e-14 3.31115e-15)
(-1.91826e-15 6.46615e-32 5.17292e-31 13.0673 -1.823e-15 1.33877e-14 -0.621323 7.30026e-16 5.68088e-16)
(5.19061e-16 0 0 13.005 -1.64538e-15 7.07856e-16 -0.647395 1.17757e-14 3.37595e-15)
(-5.55947e-16 0 -2.4689e-31 13.005 -1.19567e-15 1.38874e-14 -0.647395 7.94434e-16 5.88852e-16)
(1.12073e-15 -5.89172e-32 -9.42675e-31 12.9242 -1.65978e-15 4.4965e-16 -0.673447 1.17359e-14 3.44795e-15)
(0 5.89172e-32 9.42675e-31 12.9242 -5.06562e-16 1.44338e-14 -0.673447 8.26392e-16 6.11823e-16)
(1.01312e-15 -1.12479e-31 0 12.8196 -1.69609e-15 1.36469e-15 -0.699062 1.16937e-14 3.72863e-15)
(0 1.12479e-31 0 12.8196 -2.25163e-16 1.48774e-14 -0.699062 8.74751e-16 6.25709e-16)
(0 0 0 12.6856 -1.27051e-15 1.00413e-14 -0.723721 1.16471e-14 4.0249e-15)
(-9.6707e-16 9.8847e-30 0 12.6856 -3.38993e-16 1.48924e-14 -0.723721 9.21996e-16 6.1804e-16)
(-9.23115e-16 2.04973e-31 4.09945e-31 12.5159 -1.13932e-15 1.78287e-14 -0.746815 1.1597e-14 4.11823e-15)
(0 -1.02486e-31 -8.19891e-31 12.5159 -8.04259e-16 1.45431e-14 -0.746815 9.47335e-16 6.6767e-16)
(1.62572e-15 -9.78282e-32 -3.91313e-31 12.3046 -1.19458e-15 1.7835e-14 -0.76767 1.1554e-14 4.20502e-15)
(-8.81158e-16 9.78282e-32 3.91313e-31 12.3046 -3.68662e-16 1.40241e-14 -0.76767 9.77595e-16 6.9586e-16)
(0 9.33817e-32 7.47054e-31 12.0468 -2.55172e-16 1.75746e-14 -0.785603 1.15042e-14 4.29065e-15)
(3.18139e-15 6.66023e-30 -7.47054e-31 12.0468 -2.48267e-16 1.31697e-14 -0.785603 1.00772e-15 7.30248e-16)
(-8.47863e-16 8.91374e-32 7.13099e-31 11.7392 9.32056e-18 1.72587e-14 -0.79998 1.14201e-14 4.36853e-15)
(0 0 -2.1393e-30 11.7392 -3.07565e-16 1.21851e-14 -0.79998 1.05541e-15 7.77591e-16)
(3.33666e-15 -2.55258e-31 -1.36138e-30 11.3808 -7.03897e-16 1.65474e-14 -0.810296 1.13529e-14 4.43592e-15)
(2.07499e-15 2.55258e-31 1.36138e-30 11.3808 5.64745e-16 1.10757e-14 -0.810296 1.09546e-15 8.25514e-16)
(1.91469e-15 0 0 10.9739 -1.14965e-15 1.55217e-14 -0.816233 1.13032e-14 4.48897e-15)
(0 5.92624e-32 0 10.9739 0 9.67364e-15 -0.816233 1.12923e-15 8.89515e-16)
(1.3966e-15 2.32581e-31 1.24043e-30 10.5235 -1.24668e-15 1.42702e-14 -0.817704 1.12858e-14 4.52777e-15)
(-1.3966e-15 -2.32581e-31 -1.24043e-30 10.5235 -7.49825e-16 8.056e-15 -0.817704 1.16717e-15 9.60567e-16)
(0 -1.48007e-31 0 10.0374 -7.03328e-16 1.28538e-14 -0.814862 1.12376e-14 4.5417e-15)
(1.33313e-15 1.48007e-31 1.18405e-30 10.0374 -9.27973e-16 6.11759e-15 -0.814862 1.25124e-15 1.04936e-15)
(1.1284e-15 0 -1.13024e-30 9.52512 -6.37546e-16 1.15575e-14 -0.808064 1.11804e-14 4.53852e-15)
(0 0 1.13024e-30 9.52512 -3.83994e-16 4.33626e-15 -0.808064 1.33427e-15 1.17137e-15)
(0 2.69717e-31 1.07887e-30 8.99721 -4.13291e-16 1.00575e-14 -0.797826 1.11216e-14 4.51214e-15)
(0 8.40332e-31 -1.07887e-30 8.99721 1.29372e-17 2.96096e-15 -0.797826 1.36892e-15 1.30787e-15)
(1.24306e-15 0 0 8.46397 1.25311e-15 8.74849e-15 -0.784752 1.10357e-14 4.48166e-15)
(0 7.80763e-31 2.22134e-29 8.46397 -1.66893e-29 2.94331e-16 -0.784752 1.4065e-15 1.45067e-15)
(-9.13935e-16 4.91511e-31 -1.96605e-30 7.9348 2.19363e-15 7.84e-15 -0.769471 1.0902e-14 4.41195e-15)
(5.19855e-15 -2.45756e-31 0 7.9348 -1.13814e-16 0 -0.769471 1.45832e-15 1.65357e-15)
(-7.57589e-16 1.17293e-31 -2.81503e-30 7.41763 1.30809e-15 6.96076e-15 -0.752589 1.07703e-14 4.31689e-15)
(5.42149e-15 0 9.38343e-31 7.41763 3.6572e-16 -8.50406e-16 -0.752589 1.61499e-15 1.88557e-15)
(2.82017e-15 0 -8.95694e-31 6.91865 7.06949e-16 6.1216e-15 -0.734649 1.06438e-14 4.20834e-15)
(-2.01692e-15 3.39439e-30 0 6.91865 1.60115e-16 -1.44698e-15 -0.734649 1.75071e-15 2.12559e-15)
(2.92726e-15 0 0 6.44233 6.94796e-16 4.97068e-15 -0.716116 1.0502e-14 4.10505e-15)
(0 0 0 6.44233 1.41633e-15 -2.52291e-15 -0.716116 1.93711e-15 2.3842e-15)
(-2.15957e-15 2.04031e-31 -1.63225e-30 5.99157 7.0147e-16 3.62805e-15 -0.697371 1.03945e-14 3.99215e-15)
(4.22595e-15 -1.02015e-31 0 5.99157 2.66434e-15 -3.22803e-15 -0.697371 2.01948e-15 2.70041e-15)
(1.5669e-15 0 0 5.56794 5.09413e-16 2.7321e-15 -0.678711 1.02847e-14 3.89493e-15)
(0 1.12247e-30 0 5.56794 1.85382e-29 -3.91842e-15 -0.678711 2.02207e-15 2.98099e-15)
(-3.23309e-15 0 0 5.17194 -2.31685e-16 2.77463e-15 -0.660362 1.01981e-14 3.78627e-15)
(-1.67449e-15 0 0 5.17194 1.22111e-15 -4.96768e-15 -0.660362 2.17614e-15 3.04175e-15)
(3.26322e-15 -1.33092e-31 1.41964e-30 4.80332 2.11319e-16 2.02852e-15 -0.642486 1.01067e-14 3.58632e-15)
(5.06101e-15 1.33092e-31 0 4.80332 2.04032e-15 -5.84119e-15 -0.642486 2.2018e-15 3.11059e-15)
(-1.52573e-15 1.27042e-31 -1.35512e-30 4.46123 1.77257e-15 6.82462e-16 -0.625196 9.94976e-15 3.42533e-15)
(-6.84731e-15 -7.00649e-46 0 4.46123 0 -6.47916e-15 -0.625196 2.30708e-15 3.16357e-15)
(-1.15525e-15 -1.4148e-31 0 4.14449 2.2003e-15 7.8666e-16 -0.608561 9.72125e-15 3.26222e-15)
(9.94284e-15 4.80819e-30 0 4.14449 -1.61314e-16 -7.00832e-15 -0.608561 2.50547e-15 3.22708e-15)
(1.80196e-15 9.64636e-32 -1.23473e-30 3.85165 1.27229e-15 1.23401e-15 -0.592623 9.49027e-15 3.03462e-15)
(-7.20783e-15 -9.64636e-32 1.23473e-30 3.85165 -8.20552e-16 -7.57876e-15 -0.592623 2.72691e-15 3.32964e-15)
(1.84519e-15 -7.36633e-32 9.01857e-31 3.58118 8.59644e-16 9.86076e-32 -0.577398 9.2869e-15 2.77906e-15)
(0 7.36633e-32 -2.35723e-30 3.58118 1.06635e-16 -7.10494e-15 -0.577398 3.11176e-15 3.42833e-15)
(-3.77454e-15 1.31841e-31 -2.25009e-30 3.3315 1.56398e-15 1.71893e-16 -0.562883 9.10399e-15 2.63102e-15)
(-2.53337e-15 -1.23052e-31 1.12504e-30 3.3315 2.27296e-16 -6.47012e-15 -0.562883 3.28305e-15 3.43418e-15)
(-2.41823e-15 2.51697e-32 -3.22173e-30 3.10104 1.4233e-15 5.42876e-16 -0.549066 8.97783e-15 2.39287e-15)
(0 -3.35597e-32 3.22173e-30 3.10104 8.65583e-16 -7.01291e-15 -0.549066 3.42913e-15 3.51312e-15)
(-1.96817e-15 0 2.00756e-30 2.88831 1.32783e-16 3.15696e-16 -0.535925 8.81499e-15 2.036e-15)