/*--------------------------------*- C++ -*----------------------------------*\
| =========                 |                                                 |
| \\      /  F ield         | OpenFOAM: The Open Source CFD Toolbox           |
|  \\    /   O peration     | Version:  2106                                  |
|   \\  /    A nd           | Website:  www.openfoam.com                      |
|    \\/     M anipulation  |                                                 |
\*---------------------------------------------------------------------------*/
FoamFile
{
    version     2.0;
    format      ascii;
    arch        "LSB;label=32;scalar=64";
    class       volScalarField;
    location    "10010";
    object      p;
}
// * * * * * * * * * * * * * * * * * * * * * * * * * * * * * * * * * * * * * //

dimensions      [0 2 -2 0 0 0 0];

internalField   nonuniform List<scalar> 
2000
(
7.21527e-15
2.21571e-14
1.49438e-14
2.21559e-14
1.59263e-14
2.21543e-14
1.51768e-14
2.21521e-14
1.46997e-14
2.21491e-14
1.45234e-14
2.21453e-14
1.44168e-14
2.21406e-14
1.43196e-14
2.21352e-14
1.4231e-14
2.21291e-14
1.41505e-14
2.21222e-14
1.40752e-14
2.21144e-14
1.40036e-14
2.21059e-14
1.39352e-14
2.20967e-14
1.38699e-14
2.20868e-14
1.38074e-14
2.20763e-14
1.37475e-14
2.20651e-14
1.36905e-14
2.20531e-14
1.3636e-14
2.20405e-14
1.3584e-14
2.20274e-14
1.35343e-14
2.20137e-14
1.34871e-14
2.19993e-14
1.34423e-14
2.19845e-14
1.33996e-14
2.19691e-14
1.33593e-14
2.19531e-14
1.33212e-14
2.19367e-14
1.32852e-14
2.19196e-14
1.32512e-14
2.19022e-14
1.32196e-14
2.18843e-14
1.319e-14
2.1866e-14
1.31624e-14
2.18472e-14
1.31361e-14
2.18282e-14
1.3112e-14
2.18087e-14
1.30899e-14
2.17888e-14
1.30695e-14
2.17685e-14
1.30509e-14
2.17477e-14
1.30341e-14
2.17267e-14
1.30185e-14
2.17057e-14
1.30044e-14
2.16844e-14
1.29922e-14
2.16628e-14
1.29817e-14
2.16405e-14
1.29726e-14
2.16183e-14
1.29646e-14
2.15962e-14
1.29582e-14
2.15739e-14
1.29533e-14
2.15513e-14
1.29495e-14
2.15287e-14
1.29471e-14
2.1506e-14
1.29458e-14
2.14831e-14
1.29454e-14
2.14604e-14
1.29462e-14
2.14383e-14
1.29488e-14
2.14164e-14
1.29521e-14
2.1394e-14
1.29564e-14
2.13714e-14
1.2961e-14
2.13488e-14
1.29669e-14
2.13265e-14
1.29739e-14
2.13042e-14
1.2981e-14
2.12811e-14
1.29887e-14
2.12588e-14
1.29973e-14
2.1237e-14
1.30065e-14
2.12157e-14
1.3016e-14
2.1194e-14
1.30263e-14
2.1172e-14
1.30365e-14
2.11502e-14
1.30475e-14
2.11292e-14
1.30591e-14
2.11086e-14
1.30722e-14
2.10879e-14
1.3085e-14
2.10676e-14
1.3098e-14
2.10479e-14
1.31112e-14
2.10282e-14
1.31242e-14
2.10082e-14
1.31388e-14
2.0988e-14
1.31529e-14
2.09683e-14
1.31668e-14
2.09491e-14
1.31804e-14
2.09306e-14
1.31931e-14
2.09121e-14
1.32059e-14
2.08934e-14
1.32191e-14
2.08754e-14
1.32324e-14
2.08579e-14
1.32464e-14
2.08407e-14
1.32582e-14
2.08242e-14
1.32707e-14
2.08076e-14
1.32837e-14
2.07913e-14
1.32954e-14
2.07763e-14
1.33069e-14
2.07624e-14
1.33192e-14
2.07467e-14
1.33308e-14
2.07304e-14
1.33414e-14
2.07164e-14
1.33508e-14
2.07035e-14
1.33609e-14
2.06905e-14
1.33686e-14
2.06782e-14
1.33766e-14
2.06669e-14
1.33852e-14
2.06532e-14
1.3395e-14
2.06396e-14
1.3405e-14
2.06261e-14
1.3412e-14
2.06117e-14
1.34201e-14
2.05972e-14
1.34282e-14
2.05837e-14
1.34347e-14
2.05712e-14
1.34415e-14
2.05573e-14
1.34475e-14
2.05429e-14
1.34523e-14
2.05275e-14
1.3458e-14
2.05114e-14
1.34641e-14
2.04976e-14
1.34682e-14
2.04829e-14
1.347e-14
2.04661e-14
1.34705e-14
2.04503e-14
1.34708e-14
2.04358e-14
1.34677e-14
2.0423e-14
1.34651e-14
2.04106e-14
1.34643e-14
2.0393e-14
1.34679e-14
2.0375e-14
1.34694e-14
2.03538e-14
1.34716e-14
2.03327e-14
1.3477e-14
2.03121e-14
1.3487e-14
2.02877e-14
1.34964e-14
2.02628e-14
1.35096e-14
2.02299e-14
1.35246e-14
2.01986e-14
1.35427e-14
2.0163e-14
1.35571e-14
2.01232e-14
1.3577e-14
2.00779e-14
1.35923e-14
2.00355e-14
1.3609e-14
1.9993e-14
1.36252e-14
1.99457e-14
1.36488e-14
1.98921e-14
1.36726e-14
1.98341e-14
1.36981e-14
1.9777e-14
1.37248e-14
1.97177e-14
1.37489e-14
1.96562e-14
1.37663e-14
1.95964e-14
1.37942e-14
1.95313e-14
1.38216e-14
1.94719e-14
1.38554e-14
1.94149e-14
1.38806e-14
1.93495e-14
1.39112e-14
1.92833e-14
1.3936e-14
1.92237e-14
1.39654e-14
1.91674e-14
1.39954e-14
1.91033e-14
1.40254e-14
1.90392e-14
1.40589e-14
1.8979e-14
1.40954e-14
1.89114e-14
1.41308e-14
1.88289e-14
1.41647e-14
1.87583e-14
1.42044e-14
1.86997e-14
1.42458e-14
1.86379e-14
1.42883e-14
1.85728e-14
1.43279e-14
1.85123e-14
1.4368e-14
1.84605e-14
1.44083e-14
1.84057e-14
1.44523e-14
1.8348e-14
1.45038e-14
1.82832e-14
1.45382e-14
1.82153e-14
1.45674e-14
1.81483e-14
1.45906e-14
1.80822e-14
1.46486e-14
1.80089e-14
1.47003e-14
1.79444e-14
1.47457e-14
1.78802e-14
1.47845e-14
1.78246e-14
1.4825e-14
1.77691e-14
1.48584e-14
1.76885e-14
1.4893e-14
1.76157e-14
1.49457e-14
1.75588e-14
1.49998e-14
1.75004e-14
1.503e-14
1.744e-14
1.50618e-14
1.73773e-14
1.51036e-14
1.73204e-14
1.513e-14
1.72519e-14
1.51669e-14
1.71711e-14
1.5206e-14
1.71025e-14
1.52477e-14
1.70539e-14
1.52752e-14
1.69989e-14
1.52971e-14
1.69367e-14
1.53309e-14
1.68668e-14
1.53509e-14
1.68053e-14
1.53923e-14
1.67602e-14
1.54209e-14
1.67217e-14
1.54719e-14
1.66541e-14
1.54942e-14
1.65994e-14
1.55321e-14
1.65479e-14
1.55603e-14
1.65245e-14
1.55965e-14
1.65027e-14
1.5659e-14
1.6455e-14
1.56884e-14
1.6379e-14
1.5669e-14
1.63072e-14
1.5671e-14
1.62383e-14
1.56949e-14
1.61358e-14
1.57084e-14
1.61011e-14
1.56951e-14
1.60976e-14
1.57061e-14
1.60906e-14
1.57062e-14
1.60446e-14
1.56959e-14
1.59581e-14
1.5677e-14
1.58979e-14
1.56675e-14
1.58446e-14
1.56506e-14
1.58477e-14
1.56253e-14
1.58212e-14
1.56084e-14
1.57646e-14
1.56006e-14
1.5746e-14
1.55495e-14
1.57992e-14
1.55368e-14
1.57555e-14
1.55279e-14
1.57347e-14
1.54885e-14
1.56673e-14
1.54881e-14
1.55688e-14
1.54619e-14
1.55365e-14
1.54448e-14
1.54846e-14
1.54389e-14
1.54269e-14
1.53957e-14
1.53429e-14
1.53338e-14
1.5366e-14
1.53159e-14
1.528e-14
1.5262e-14
1.52157e-14
1.52215e-14
1.52225e-14
1.52078e-14
1.51856e-14
1.51883e-14
1.51349e-14
1.51481e-14
1.50847e-14
1.50525e-14
1.5068e-14
1.50933e-14
1.50575e-14
1.50422e-14
1.50485e-14
1.49903e-14
1.50418e-14
1.50277e-14
1.50729e-14
1.50226e-14
1.51438e-14
1.50038e-14
1.51016e-14
1.49733e-14
1.50731e-14
1.50549e-14
1.50906e-14
1.5005e-14
1.50522e-14
1.49474e-14
1.50195e-14
1.50031e-14
1.5026e-14
1.50518e-14
1.50669e-14
1.50673e-14
1.50489e-14
1.50542e-14
1.50321e-14
1.50119e-14
1.50458e-14
1.49929e-14
1.50669e-14
1.50486e-14
1.50428e-14
1.50414e-14
1.5084e-14
1.50233e-14
1.51361e-14
1.49507e-14
1.51789e-14
1.49209e-14
1.51696e-14
1.49545e-14
1.5173e-14
1.48593e-14
1.53044e-14
1.48496e-14
1.52904e-14
1.48939e-14
1.52468e-14
1.48733e-14
1.52267e-14
1.48967e-14
1.5207e-14
1.49077e-14
1.51502e-14
1.49741e-14
1.50689e-14
1.50787e-14
1.50463e-14
1.50414e-14
1.50546e-14
1.49881e-14
1.50008e-14
1.49161e-14
1.49441e-14
1.48191e-14
1.48881e-14
1.48364e-14
1.48375e-14
1.4828e-14
1.47717e-14
1.47122e-14
1.47292e-14
1.90474e-14
1.90646e-14
1.90469e-14
1.90645e-14
1.90461e-14
1.90644e-14
1.9045e-14
1.90641e-14
1.90435e-14
1.90638e-14
1.90416e-14
1.90634e-14
1.90394e-14
1.90628e-14
1.90367e-14
1.9062e-14
1.90336e-14
1.90612e-14
1.90301e-14
1.90603e-14
1.90263e-14
1.90592e-14
1.9022e-14
1.9058e-14
1.90173e-14
1.90568e-14
1.90122e-14
1.90555e-14
1.9007e-14
1.9054e-14
1.90014e-14
1.90522e-14
1.89953e-14
1.90503e-14
1.89891e-14
1.90481e-14
1.89825e-14
1.90458e-14
1.89755e-14
1.90435e-14
1.89682e-14
1.90409e-14
1.89605e-14
1.90383e-14
1.89526e-14
1.90356e-14
1.89442e-14
1.90328e-14
1.89355e-14
1.90297e-14
1.89264e-14
1.90266e-14
1.8917e-14
1.90236e-14
1.89072e-14
1.90201e-14
1.88972e-14
1.90164e-14
1.88868e-14
1.90129e-14
1.8876e-14
1.90093e-14
1.88651e-14
1.90056e-14
1.8854e-14
1.90015e-14
1.88428e-14
1.89975e-14
1.88313e-14
1.8993e-14
1.88196e-14
1.89885e-14
1.8808e-14
1.89837e-14
1.87959e-14
1.89791e-14
1.87836e-14
1.89743e-14
1.87712e-14
1.89688e-14
1.87589e-14
1.89633e-14
1.87463e-14
1.89579e-14
1.87335e-14
1.89522e-14
1.87205e-14
1.89463e-14
1.87075e-14
1.89403e-14
1.86942e-14
1.89343e-14
1.86816e-14
1.89274e-14
1.86686e-14
1.89201e-14
1.86553e-14
1.89135e-14
1.86421e-14
1.89072e-14
1.86287e-14
1.89001e-14
1.86153e-14
1.88924e-14
1.86018e-14
1.88855e-14
1.85883e-14
1.88778e-14
1.85751e-14
1.887e-14
1.85617e-14
1.88627e-14
1.85483e-14
1.88548e-14
1.85346e-14
1.88472e-14
1.85211e-14
1.88392e-14
1.85077e-14
1.88303e-14
1.84941e-14
1.88214e-14
1.84803e-14
1.88127e-14
1.84661e-14
1.8804e-14
1.84526e-14
1.87949e-14
1.8439e-14
1.87855e-14
1.84254e-14
1.8776e-14
1.84113e-14
1.87669e-14
1.83973e-14
1.87572e-14
1.83838e-14
1.87461e-14
1.83708e-14
1.87358e-14
1.83575e-14
1.87267e-14
1.83448e-14
1.87178e-14
1.83323e-14
1.87084e-14
1.832e-14
1.8698e-14
1.83095e-14
1.86867e-14
1.82985e-14
1.86755e-14
1.82882e-14
1.86658e-14
1.82778e-14
1.86567e-14
1.82677e-14
1.86446e-14
1.8258e-14
1.86323e-14
1.82484e-14
1.86216e-14
1.82385e-14
1.86122e-14
1.82282e-14
1.86017e-14
1.82178e-14
1.85895e-14
1.82087e-14
1.85769e-14
1.82002e-14
1.85661e-14
1.81923e-14
1.85564e-14
1.81836e-14
1.85456e-14
1.81735e-14
1.8535e-14
1.81649e-14
1.85247e-14
1.81585e-14
1.85146e-14
1.81509e-14
1.85054e-14
1.81434e-14
1.84978e-14
1.8139e-14
1.84889e-14
1.81335e-14
1.84793e-14
1.81277e-14
1.84727e-14
1.81215e-14
1.84669e-14
1.81151e-14
1.84604e-14
1.81085e-14
1.84545e-14
1.81025e-14
1.84465e-14
1.80965e-14
1.84399e-14
1.80948e-14
1.84376e-14
1.80939e-14
1.84374e-14
1.80938e-14
1.84319e-14
1.80889e-14
1.84315e-14
1.80909e-14
1.84302e-14
1.80911e-14
1.84295e-14
1.80896e-14
1.84279e-14
1.80864e-14
1.84268e-14
1.80891e-14
1.84248e-14
1.80964e-14
1.84202e-14
1.80978e-14
1.8413e-14
1.81009e-14
1.84078e-14
1.81029e-14
1.84046e-14
1.81084e-14
1.84002e-14
1.8113e-14
1.83961e-14
1.81104e-14
1.83988e-14
1.81101e-14
1.83987e-14
1.81141e-14
1.83908e-14
1.8119e-14
1.83816e-14
1.81253e-14
1.83793e-14
1.81263e-14
1.83856e-14
1.81287e-14
1.83889e-14
1.81311e-14
1.83876e-14
1.81301e-14
1.83918e-14
1.8131e-14
1.83949e-14
1.8134e-14
1.84036e-14
1.81355e-14
1.84184e-14
1.81394e-14
1.84286e-14
1.81385e-14
1.8431e-14
1.81438e-14
1.84254e-14
1.81446e-14
1.84297e-14
1.81447e-14
1.84369e-14
1.81405e-14
1.84437e-14
1.81357e-14
1.84463e-14
1.81268e-14
1.84413e-14
1.81212e-14
1.84397e-14
1.81117e-14
1.84381e-14
1.80907e-14
1.84328e-14
1.80809e-14
1.84202e-14
1.80712e-14
1.84117e-14
1.80656e-14
1.84154e-14
1.8068e-14
1.84162e-14
1.80475e-14
1.84063e-14
1.80275e-14
1.83977e-14
1.80119e-14
1.83868e-14
1.79929e-14
1.83776e-14
1.79904e-14
1.83664e-14
1.79809e-14
1.83614e-14
1.79643e-14
1.83469e-14
1.79689e-14
1.83068e-14
1.7967e-14
1.82692e-14
1.79589e-14
1.82505e-14
1.79286e-14
1.82345e-14
1.79087e-14
1.82052e-14
1.78911e-14
1.81628e-14
1.78595e-14
1.8132e-14
1.7839e-14
1.81216e-14
1.78212e-14
1.80985e-14
1.7798e-14
1.80715e-14
1.77778e-14
1.80578e-14
1.77353e-14
1.8041e-14
1.77039e-14
1.79963e-14
1.76584e-14
1.79493e-14
1.76243e-14
1.79172e-14
1.75929e-14
1.7892e-14
1.75729e-14
1.78657e-14
1.75473e-14
1.78476e-14
1.75072e-14
1.78125e-14
1.7487e-14
1.7778e-14
1.74697e-14
1.77358e-14
1.74558e-14
1.76774e-14
1.74287e-14
1.76458e-14
1.73798e-14
1.7633e-14
1.73431e-14
1.76142e-14
1.73268e-14
1.7564e-14
1.72966e-14
1.75085e-14
1.72616e-14
1.74565e-14
1.72306e-14
1.74169e-14
1.72037e-14
1.74161e-14
1.71626e-14
1.74115e-14
1.71323e-14
1.73874e-14
1.71123e-14
1.73275e-14
1.71039e-14
1.72492e-14
1.70741e-14
1.7204e-14
1.70055e-14
1.71927e-14
1.7019e-14
1.71652e-14
1.69936e-14
1.71382e-14
1.69645e-14
1.71123e-14
1.69317e-14
1.7071e-14
1.68957e-14
1.70328e-14
1.68568e-14
1.7034e-14
1.68139e-14
1.69726e-14
1.67677e-14
1.69527e-14
1.67349e-14
1.68717e-14
1.67e-14
1.68503e-14
1.66626e-14
1.68203e-14
1.66407e-14
1.67814e-14
1.65833e-14
1.67342e-14
1.65245e-14
1.66796e-14
1.64814e-14
1.66191e-14
1.64029e-14
1.65368e-14
1.63231e-14
1.65183e-14
1.62723e-14
1.64658e-14
1.62328e-14
1.63638e-14
1.61573e-14
1.63293e-14
1.60779e-14
1.62623e-14
1.60604e-14
1.61655e-14
1.60095e-14
1.61194e-14
1.59759e-14
1.61238e-14
1.59403e-14
1.60496e-14
1.59388e-14
1.59457e-14
1.58637e-14
1.58715e-14
1.58827e-14
1.58591e-14
1.59319e-14
1.58741e-14
1.5953e-14
1.585e-14
1.59868e-14
1.57842e-14
1.58806e-14
1.57636e-14
1.58206e-14
1.57268e-14
1.58367e-14
1.56772e-14
1.57462e-14
1.56725e-14
1.5727e-14
1.56883e-14
1.56836e-14
1.56361e-14
1.56822e-14
1.56105e-14
1.56299e-14
1.56081e-14
1.56117e-14
1.55394e-14
1.56013e-14
1.55215e-14
1.5571e-14
1.54922e-14
1.55842e-14
1.54501e-14
1.55604e-14
1.54155e-14
1.55589e-14
1.54467e-14
1.55777e-14
1.54871e-14
1.55294e-14
1.5539e-14
1.55222e-14
1.55005e-14
1.54177e-14
1.54548e-14
1.54025e-14
1.54952e-14
1.53589e-14
1.55085e-14
1.52478e-14
1.53654e-14
1.52329e-14
1.5311e-14
1.52928e-14
1.53351e-14
1.527e-14
1.53234e-14
1.52171e-14
1.52283e-14
1.51869e-14
1.52074e-14
1.5164e-14
1.51533e-14
1.51299e-14
1.50538e-14
1.50755e-14
1.49976e-14
1.50586e-14
1.49832e-14
1.50362e-14
1.49621e-14
1.4952e-14
1.4885e-14
1.47963e-14
1.48053e-14
1.46331e-14
1.46281e-14
1.46445e-14
1.46162e-14
1.46052e-14
1.4588e-14
1.45154e-14
1.44429e-14
1.44394e-14
1.43806e-14
1.43833e-14
1.43565e-14
1.42795e-14
1.43273e-14
1.4242e-14
1.42785e-14
1.41453e-14
1.42064e-14
1.40408e-14
1.41433e-14
1.39976e-14
1.40442e-14
1.39478e-14
1.3977e-14
1.39409e-14
1.39659e-14
1.3928e-14
1.3957e-14
1.38826e-14
1.38961e-14
1.38056e-14
1.38355e-14
1.3778e-14
1.38336e-14
1.37954e-14
1.38379e-14
1.37736e-14
1.37905e-14
1.37462e-14
1.37806e-14
1.37176e-14
1.37549e-14
1.36901e-14
1.3709e-14
1.36327e-14
1.36386e-14
1.36059e-14
1.36295e-14
1.36098e-14
1.36218e-14
1.3581e-14
1.36146e-14
1.35785e-14
1.36417e-14
1.35374e-14
1.36456e-14
1.35147e-14
1.3569e-14
1.35479e-14
1.35308e-14
1.3581e-14
1.35553e-14
1.36135e-14
1.36094e-14
1.3615e-14
1.36345e-14
1.35837e-14
1.36674e-14
1.36398e-14
1.36485e-14
1.36614e-14
1.36992e-14
1.3679e-14
1.37222e-14
1.36909e-14
1.37158e-14
1.36994e-14
1.37774e-14
1.37011e-14
1.38443e-14
1.3709e-14
1.37866e-14
1.37444e-14
1.37666e-14
1.37952e-14
1.38153e-14
1.38112e-14
1.38141e-14
1.38101e-14
1.38793e-14
1.38217e-14
1.38817e-14
1.38471e-14
1.39222e-14
1.38174e-14
1.39489e-14
1.38489e-14
1.39304e-14
1.38934e-14
1.3932e-14
1.39179e-14
1.39498e-14
1.39227e-14
1.39675e-14
1.39248e-14
1.40029e-14
1.39751e-14
1.39713e-14
1.39915e-14
1.39556e-14
1.40092e-14
1.40056e-14
1.40444e-14
1.41403e-14
1.40424e-14
1.42077e-14
1.40351e-14
1.42104e-14
1.40396e-14
1.41658e-14
1.40747e-14
1.4194e-14
1.41056e-14
1.42423e-14
1.41496e-14
1.42937e-14
1.41897e-14
1.43314e-14
1.42257e-14
1.43377e-14
1.42415e-14
1.43817e-14
1.4254e-14
1.44112e-14
1.42804e-14
1.44261e-14
1.43038e-14
1.4426e-14
1.43249e-14
1.44102e-14
1.42921e-14
1.4395e-14
1.42571e-14
1.43986e-14
1.42801e-14
1.44218e-14
1.42739e-14
1.44386e-14
1.42644e-14
1.4423e-14
1.4278e-14
1.44096e-14
1.42806e-14
1.44241e-14
1.42807e-14
1.44145e-14
1.42787e-14
1.43721e-14
1.42753e-14
1.43742e-14
1.42617e-14
1.43945e-14
1.4272e-14
1.44074e-14
1.42716e-14
1.44131e-14
1.42693e-14
1.44032e-14
1.42737e-14
1.44034e-14
1.42851e-14
1.43966e-14
1.42953e-14
1.43994e-14
1.43046e-14
1.4403e-14
1.43044e-14
1.43989e-14
1.4312e-14
1.43952e-14
1.43104e-14
1.44004e-14
1.43164e-14
1.44227e-14
1.43214e-14
1.44287e-14
1.43338e-14
1.44187e-14
1.43372e-14
1.44172e-14
1.43399e-14
1.44243e-14
1.43419e-14
1.44317e-14
1.43515e-14
1.44394e-14
1.43521e-14
1.44474e-14
1.43519e-14
1.44478e-14
1.4351e-14
1.44488e-14
1.43532e-14
1.44542e-14
1.43585e-14
1.44603e-14
1.43589e-14
1.44668e-14
1.43624e-14
1.44778e-14
1.43728e-14
1.44854e-14
1.43783e-14
1.44817e-14
1.43751e-14
1.44823e-14
1.43749e-14
1.44833e-14
1.43815e-14
1.44808e-14
1.43873e-14
1.44824e-14
1.43961e-14
1.44918e-14
1.44041e-14
1.44901e-14
1.44114e-14
1.44922e-14
1.44181e-14
1.44946e-14
1.44242e-14
1.44821e-14
1.44335e-14
1.44772e-14
1.44423e-14
1.44795e-14
1.44472e-14
1.44854e-14
1.44445e-14
1.44984e-14
1.44486e-14
1.45006e-14
1.44488e-14
1.45028e-14
1.44452e-14
1.45016e-14
1.44517e-14
1.45039e-14
1.44544e-14
1.45166e-14
1.44534e-14
1.45121e-14
1.44487e-14
1.45077e-14
1.44488e-14
1.45085e-14
1.44503e-14
1.45161e-14
1.44465e-14
1.45203e-14
1.44442e-14
1.4518e-14
1.44384e-14
1.45191e-14
1.44388e-14
1.45219e-14
1.4439e-14
1.45215e-14
1.44373e-14
1.45213e-14
1.44369e-14
1.45211e-14
1.44348e-14
1.45241e-14
1.44309e-14
1.45288e-14
1.44314e-14
1.45288e-14
1.44301e-14
1.45259e-14
1.44255e-14
1.45277e-14
1.44238e-14
1.45296e-14
1.44203e-14
1.45315e-14
1.44166e-14
1.4535e-14
1.44157e-14
1.45372e-14
1.4416e-14
1.45364e-14
1.4419e-14
1.45373e-14
1.44174e-14
1.45382e-14
1.44142e-14
1.45422e-14
1.44151e-14
1.45448e-14
1.44201e-14
1.45468e-14
1.44191e-14
1.45481e-14
1.4418e-14
1.45482e-14
1.44188e-14
1.4549e-14
1.44195e-14
1.45507e-14
1.442e-14
1.45531e-14
1.44189e-14
1.45564e-14
1.44176e-14
1.45562e-14
1.44184e-14
1.45561e-14
1.44175e-14
1.45583e-14
1.44165e-14
1.45598e-14
1.44154e-14
1.45614e-14
1.44134e-14
1.45632e-14
1.44119e-14
1.45643e-14
1.44103e-14
1.45662e-14
1.44086e-14
1.45675e-14
1.44067e-14
1.45675e-14
1.44032e-14
1.45705e-14
1.44011e-14
1.45729e-14
1.44003e-14
1.4575e-14
1.43986e-14
1.45776e-14
1.43952e-14
1.45788e-14
1.43924e-14
1.45804e-14
1.43903e-14
1.45822e-14
1.43889e-14
1.45857e-14
1.43881e-14
1.45881e-14
1.43863e-14
1.45899e-14
1.43849e-14
1.45901e-14
1.43829e-14
1.45903e-14
1.43825e-14
1.45911e-14
1.43819e-14
1.4592e-14
1.43813e-14
1.45921e-14
1.4381e-14
1.45909e-14
1.43815e-14
1.45907e-14
1.43819e-14
1.45915e-14
1.43825e-14
1.45912e-14
1.43828e-14
1.45907e-14
1.43837e-14
1.45915e-14
1.43841e-14
1.45923e-14
1.43851e-14
1.45917e-14
1.43856e-14
1.45909e-14
1.43856e-14
1.45912e-14
1.43862e-14
1.45916e-14
1.43871e-14
1.4592e-14
1.4388e-14
1.45919e-14
1.43879e-14
1.45918e-14
1.43879e-14
1.45918e-14
1.43883e-14
1.45916e-14
1.43884e-14
1.45911e-14
1.43888e-14
1.45909e-14
1.43891e-14
1.45904e-14
1.43892e-14
1.45888e-14
1.4389e-14
1.45879e-14
1.43889e-14
1.45887e-14
1.43891e-14
1.45891e-14
1.43887e-14
1.4589e-14
1.43885e-14
1.45888e-14
1.43882e-14
1.45889e-14
1.43881e-14
1.45894e-14
1.43881e-14
1.45895e-14
1.43881e-14
1.45891e-14
1.43881e-14
1.45891e-14
1.43882e-14
1.45897e-14
1.43885e-14
1.45899e-14
1.43883e-14
1.45901e-14
1.43882e-14
1.45903e-14
1.43879e-14
1.45904e-14
1.4388e-14
1.45903e-14
1.4388e-14
1.45902e-14
1.43878e-14
1.45904e-14
1.43876e-14
1.45906e-14
1.43875e-14
1.45906e-14
1.43875e-14
1.45904e-14
1.43875e-14
1.45906e-14
1.43874e-14
1.45908e-14
1.43875e-14
1.45909e-14
1.43876e-14
1.45907e-14
1.43877e-14
1.45906e-14
1.43878e-14
1.45906e-14
1.43878e-14
1.45906e-14
1.43879e-14
1.45904e-14
1.43881e-14
1.45902e-14
1.43882e-14
1.45902e-14
1.43883e-14
1.45902e-14
1.43884e-14
1.459e-14
1.43885e-14
1.45899e-14
1.43886e-14
1.45898e-14
1.43888e-14
1.45897e-14
1.43889e-14
1.45895e-14
1.43889e-14
1.45895e-14
1.4389e-14
1.45895e-14
1.43891e-14
1.45894e-14
1.43892e-14
1.45894e-14
1.43893e-14
1.45894e-14
1.43893e-14
1.45894e-14
1.43893e-14
1.45894e-14
1.43894e-14
1.45894e-14
1.43894e-14
1.45894e-14
1.43894e-14
1.45894e-14
1.43894e-14
1.45894e-14
1.47555e-14
1.47385e-14
1.46832e-14
1.46822e-14
1.46161e-14
1.46343e-14
1.45454e-14
1.449e-14
1.43845e-14
1.43908e-14
1.43763e-14
1.43476e-14
1.43197e-14
1.43508e-14
1.42056e-14
1.43088e-14
1.40924e-14
1.42367e-14
1.40543e-14
1.41412e-14
1.39721e-14
1.40899e-14
1.40332e-14
1.40368e-14
1.39602e-14
1.39895e-14
1.39118e-14
1.3949e-14
1.38841e-14
1.39138e-14
1.38514e-14
1.38847e-14
1.38461e-14
1.38645e-14
1.38431e-14
1.38198e-14
1.38174e-14
1.37108e-14
1.36902e-14
1.364e-14
1.36252e-14
1.36726e-14
1.36384e-14
1.36457e-14
1.3617e-14
1.36461e-14
1.35602e-14
1.36504e-14
1.36133e-14
1.36357e-14
1.36023e-14
1.36243e-14
1.35899e-14
1.36157e-14
1.35754e-14
1.3577e-14
1.35625e-14
1.35347e-14
1.35864e-14
1.35196e-14
1.36505e-14
1.35616e-14
1.35976e-14
1.35317e-14
1.35818e-14
1.34926e-14
1.36694e-14
1.35047e-14
1.36764e-14
1.35621e-14
1.36937e-14
1.36403e-14
1.37493e-14
1.37126e-14
1.37442e-14
1.37161e-14
1.37429e-14
1.37841e-14
1.37404e-14
1.38553e-14
1.37483e-14
1.38008e-14
1.37542e-14
1.37666e-14
1.37934e-14
1.38341e-14
1.38134e-14
1.3871e-14
1.38303e-14
1.3828e-14
1.38309e-14
1.38514e-14
1.38477e-14
1.39434e-14
1.38598e-14
1.39554e-14
1.38683e-14
1.39722e-14
1.39412e-14
1.40464e-14
1.39762e-14
1.40248e-14
1.39587e-14
1.40413e-14
1.39557e-14
1.40455e-14
1.39497e-14
1.40369e-14
1.3992e-14
1.40849e-14
1.40135e-14
1.41389e-14
1.39957e-14
1.41998e-14
1.40224e-14
1.42341e-14
1.40417e-14
1.42409e-14
1.40722e-14
1.42372e-14
1.41156e-14
1.42572e-14
1.4138e-14
1.42998e-14
1.41562e-14
1.43129e-14
1.42052e-14
1.43307e-14
1.4216e-14
1.43693e-14
1.42228e-14
1.44122e-14
1.42422e-14
1.44778e-14
1.42558e-14
1.44971e-14
1.42636e-14
1.45053e-14
1.42831e-14
1.45197e-14
1.42972e-14
1.44878e-14
1.43073e-14
1.44607e-14
1.43061e-14
1.44636e-14
1.43022e-14
1.44873e-14
1.42952e-14
1.44887e-14
1.4285e-14
1.44767e-14
1.4289e-14
1.44598e-14
1.42815e-14
1.44461e-14
1.42802e-14
1.44179e-14
1.42854e-14
1.44441e-14
1.42884e-14
1.44732e-14
1.42889e-14
1.44795e-14
1.42869e-14
1.44545e-14
1.42914e-14
1.44233e-14
1.42686e-14
1.44198e-14
1.42526e-14
1.44354e-14
1.42599e-14
1.44618e-14
1.42646e-14
1.44738e-14
1.42668e-14
1.44884e-14
1.4275e-14
1.44974e-14
1.4289e-14
1.45091e-14
1.43092e-14
1.45066e-14
1.4319e-14
1.45148e-14
1.4327e-14
1.45251e-14
1.43249e-14
1.4521e-14
1.43294e-14
1.4519e-14
1.43323e-14
1.45189e-14
1.43664e-14
1.45042e-14
1.4375e-14
1.44991e-14
1.43908e-14
1.44951e-14
1.4414e-14
1.44838e-14
1.44207e-14
1.44854e-14
1.44272e-14
1.44914e-14
1.44454e-14
1.44979e-14
1.44596e-14
1.45127e-14
1.44775e-14
1.45318e-14
1.44914e-14
1.45395e-14
1.45092e-14
1.45475e-14
1.45077e-14
1.45597e-14
1.45101e-14
1.45685e-14
1.45163e-14
1.45739e-14
1.45225e-14
1.45835e-14
1.45287e-14
1.4586e-14
1.45349e-14
1.45927e-14
1.45336e-14
1.45923e-14
1.4536e-14
1.45924e-14
1.45383e-14
1.45929e-14
1.45444e-14
1.45865e-14
1.45467e-14
1.45878e-14
1.45491e-14
1.45857e-14
1.45551e-14
1.45768e-14
1.4554e-14
1.45753e-14
1.45531e-14
1.4581e-14
1.45522e-14
1.45834e-14
1.4548e-14
1.4579e-14
1.45438e-14
1.45748e-14
1.45431e-14
1.45742e-14
1.4539e-14
1.45806e-14
1.4535e-14
1.45871e-14
1.45293e-14
1.45921e-14
1.45303e-14
1.45891e-14
1.45246e-14
1.45928e-14
1.45271e-14
1.46e-14
1.45279e-14
1.46009e-14
1.45302e-14
1.4602e-14
1.45213e-14
1.46065e-14
1.45266e-14
1.46081e-14
1.45318e-14
1.46083e-14
1.4526e-14
1.46087e-14
1.45264e-14
1.46108e-14
1.45298e-14
1.46131e-14
1.45331e-14
1.46111e-14
1.45319e-14
1.46093e-14
1.45276e-14
1.46106e-14
1.45278e-14
1.46091e-14
1.45308e-14
1.46063e-14
1.4531e-14
1.46051e-14
1.45296e-14
1.46055e-14
1.45253e-14
1.46061e-14
1.45239e-14
1.46082e-14
1.45239e-14
1.46075e-14
1.45224e-14
1.46056e-14
1.45202e-14
1.46031e-14
1.45201e-14
1.46006e-14
1.452e-14
1.45976e-14
1.45199e-14
1.45954e-14
1.45197e-14
1.45947e-14
1.45202e-14
1.45933e-14
1.45222e-14
1.45906e-14
1.45212e-14
1.45902e-14
1.4521e-14
1.45883e-14
1.45208e-14
1.45865e-14
1.45219e-14
1.45848e-14
1.45217e-14
1.45816e-14
1.45214e-14
1.458e-14
1.45197e-14
1.45791e-14
1.45194e-14
1.45775e-14
1.45184e-14
1.45759e-14
1.45174e-14
1.45758e-14
1.45164e-14
1.45751e-14
1.45149e-14
1.45743e-14
1.45139e-14
1.45732e-14
1.4514e-14
1.45721e-14
1.45121e-14
1.4573e-14
1.45103e-14
1.45739e-14
1.45088e-14
1.45732e-14
1.45072e-14
1.45734e-14
1.45057e-14
1.45732e-14
1.45041e-14
1.45717e-14
1.45025e-14
1.4572e-14
1.45009e-14
1.45727e-14
1.45001e-14
1.45721e-14
1.44998e-14
1.45707e-14
1.44999e-14
1.45706e-14
1.44986e-14
1.4571e-14
1.44968e-14
1.45711e-14
1.44962e-14
1.45713e-14
1.44956e-14
1.45711e-14
1.44952e-14
1.45711e-14
1.4495e-14
1.45703e-14
1.44948e-14
1.45701e-14
1.44946e-14
1.45699e-14
1.44939e-14
1.45692e-14
1.44934e-14
1.45682e-14
1.44929e-14
1.45675e-14
1.44924e-14
1.45673e-14
1.44919e-14
1.45669e-14
1.44917e-14
1.45662e-14
1.44914e-14
1.4566e-14
1.44912e-14
1.45665e-14
1.44903e-14
1.45674e-14
1.44899e-14
1.4568e-14
1.44898e-14
1.45675e-14
1.449e-14
1.45671e-14
1.44901e-14
1.45674e-14
1.44897e-14
1.45675e-14
1.44898e-14
1.45676e-14
1.44899e-14
1.45674e-14
1.44899e-14
1.4567e-14
1.44902e-14
1.45667e-14
1.44906e-14
1.45667e-14
1.4491e-14
1.45665e-14
1.44912e-14
1.45659e-14
1.44914e-14
1.45653e-14
1.44916e-14
1.45649e-14
1.44919e-14
1.45647e-14
1.4492e-14
1.45645e-14
1.44925e-14
1.4564e-14
1.44929e-14
1.45634e-14
1.44928e-14
1.45629e-14
1.4493e-14
1.45624e-14
1.44933e-14
1.4562e-14
1.44937e-14
1.45617e-14
1.44938e-14
1.45613e-14
1.44937e-14
1.45611e-14
1.44936e-14
1.45609e-14
1.44936e-14
1.45606e-14
1.44936e-14
1.45604e-14
1.44936e-14
1.45602e-14
1.44936e-14
1.45601e-14
1.44936e-14
1.45598e-14
1.44937e-14
1.45597e-14
1.44936e-14
1.45597e-14
1.44935e-14
1.45595e-14
1.44937e-14
1.45594e-14
1.44937e-14
1.45593e-14
1.44937e-14
1.45593e-14
1.44936e-14
1.45593e-14
1.44937e-14
1.45592e-14
1.44936e-14
1.45591e-14
1.44936e-14
1.45591e-14
1.44936e-14
1.45591e-14
1.44936e-14
1.4559e-14
1.44936e-14
1.4559e-14
1.44936e-14
1.4559e-14
1.44936e-14
1.45589e-14
1.44936e-14
1.45589e-14
1.44936e-14
1.45589e-14
1.44936e-14
1.45589e-14
1.44936e-14
1.45589e-14
)
;

boundaryField
{
    walls
    {
        type            zeroGradient;
    }
    inlet
    {
        type            cyclic;
    }
    outlet
    {
        type            cyclic;
    }
    sides
    {
        type            empty;
    }
}


// ************************************************************************* //
