/*--------------------------------*- C++ -*----------------------------------*\
| =========                 |                                                 |
| \\      /  F ield         | OpenFOAM: The Open Source CFD Toolbox           |
|  \\    /   O peration     | Version:  2106                                  |
|   \\  /    A nd           | Website:  www.openfoam.com                      |
|    \\/     M anipulation  |                                                 |
\*---------------------------------------------------------------------------*/
FoamFile
{
    version     2.0;
    format      ascii;
    arch        "LSB;label=32;scalar=64";
    class       volScalarField;
    location    "10010";
    object      p;
}
// * * * * * * * * * * * * * * * * * * * * * * * * * * * * * * * * * * * * * //

dimensions      [0 2 -2 0 0 0 0];

internalField   nonuniform List<scalar> 
800
(
1.25289e-15
6.66453e-15
3.00266e-15
6.66596e-15
3.4128e-15
6.66828e-15
3.43332e-15
6.67248e-15
3.5078e-15
6.67861e-15
3.66315e-15
6.68669e-15
3.83153e-15
6.69669e-15
3.99189e-15
6.7084e-15
4.1423e-15
6.72197e-15
4.28254e-15
6.73727e-15
4.41333e-15
6.75405e-15
4.53441e-15
6.77206e-15
4.64588e-15
6.79152e-15
4.74807e-15
6.81246e-15
4.84171e-15
6.83473e-15
4.92701e-15
6.8582e-15
5.00438e-15
6.88256e-15
5.07433e-15
6.9081e-15
5.13738e-15
6.93427e-15
5.19366e-15
6.96047e-15
5.24361e-15
6.98726e-15
5.28817e-15
7.01399e-15
5.3278e-15
7.04078e-15
5.36258e-15
7.06847e-15
5.39347e-15
7.09628e-15
5.42073e-15
7.12226e-15
5.44451e-15
7.14673e-15
5.4669e-15
7.16975e-15
5.48649e-15
7.19143e-15
5.50404e-15
7.21217e-15
5.52052e-15
7.2305e-15
5.53654e-15
7.24767e-15
5.55266e-15
7.26225e-15
5.56997e-15
7.27383e-15
5.58633e-15
7.28356e-15
5.60387e-15
7.29095e-15
5.62205e-15
7.2932e-15
5.64081e-15
7.29301e-15
5.66189e-15
7.29318e-15
5.68471e-15
7.29433e-15
5.70863e-15
7.29339e-15
5.73927e-15
7.29083e-15
5.7671e-15
7.28452e-15
5.79786e-15
7.27477e-15
5.83638e-15
7.2646e-15
5.87948e-15
7.25156e-15
5.92085e-15
7.23576e-15
5.96563e-15
7.22026e-15
6.01328e-15
7.21442e-15
6.06309e-15
7.20634e-15
6.1241e-15
7.1895e-15
6.19325e-15
7.17628e-15
6.25389e-15
7.17636e-15
6.31894e-15
7.17619e-15
6.38463e-15
7.17882e-15
6.45059e-15
7.17651e-15
6.51687e-15
7.18285e-15
6.57562e-15
7.20111e-15
6.64897e-15
7.21572e-15
6.72959e-15
7.20926e-15
6.7951e-15
7.21807e-15
6.87022e-15
7.24885e-15
6.95597e-15
7.27564e-15
7.01984e-15
7.28693e-15
7.11416e-15
7.27883e-15
7.19234e-15
7.29629e-15
7.2745e-15
7.3343e-15
7.34457e-15
7.36142e-15
7.40621e-15
7.41036e-15
7.45095e-15
7.4615e-15
7.49567e-15
7.49607e-15
7.5202e-15
7.53134e-15
7.54334e-15
7.58814e-15
7.58047e-15
7.61075e-15
7.65268e-15
7.63582e-15
7.70341e-15
7.69585e-15
7.77609e-15
7.77315e-15
7.82897e-15
7.80526e-15
7.91518e-15
7.91459e-15
7.99661e-15
8.03726e-15
8.067e-15
8.05408e-15
8.09422e-15
8.09652e-15
8.17807e-15
8.1811e-15
8.26263e-15
8.21412e-15
8.31828e-15
8.27819e-15
8.28319e-15
8.37676e-15
8.33746e-15
8.41163e-15
8.43846e-15
8.48014e-15
8.45774e-15
8.51892e-15
8.53383e-15
8.53527e-15
8.54707e-15
8.49323e-15
8.54682e-15
8.65111e-15
8.54999e-15
8.71022e-15
8.594e-15
8.66527e-15
8.68109e-15
8.7002e-15
8.74374e-15
8.74531e-15
8.81044e-15
8.81176e-15
8.88217e-15
8.89294e-15
9.08253e-15
9.01954e-15
9.04424e-15
9.07393e-15
5.89761e-15
6.15867e-15
5.89842e-15
6.15878e-15
5.89964e-15
6.15903e-15
5.90177e-15
6.1595e-15
5.90488e-15
6.16021e-15
5.909e-15
6.16118e-15
5.91415e-15
6.1624e-15
5.92035e-15
6.16389e-15
5.92756e-15
6.16565e-15
5.93557e-15
6.16762e-15
5.94457e-15
6.1699e-15
5.95456e-15
6.17253e-15
5.96536e-15
6.17553e-15
5.97702e-15
6.17896e-15
5.98945e-15
6.18276e-15
6.0028e-15
6.18677e-15
6.01699e-15
6.19148e-15
6.03182e-15
6.19688e-15
6.04725e-15
6.20269e-15
6.06342e-15
6.20902e-15
6.08009e-15
6.2163e-15
6.09741e-15
6.22441e-15
6.11504e-15
6.23306e-15
6.13315e-15
6.24261e-15
6.15255e-15
6.25295e-15
6.17233e-15
6.26394e-15
6.19172e-15
6.27607e-15
6.21256e-15
6.28949e-15
6.23385e-15
6.3041e-15
6.25492e-15
6.31979e-15
6.27762e-15
6.33652e-15
6.3016e-15
6.35477e-15
6.3271e-15
6.37398e-15
6.35332e-15
6.39572e-15
6.38053e-15
6.4195e-15
6.41012e-15
6.44424e-15
6.44243e-15
6.46883e-15
6.47269e-15
6.49779e-15
6.50223e-15
6.5313e-15
6.53601e-15
6.5648e-15
6.57323e-15
6.59951e-15
6.60928e-15
6.63417e-15
6.64691e-15
6.67268e-15
6.68376e-15
6.71257e-15
6.7269e-15
6.75262e-15
6.76705e-15
6.79002e-15
6.8043e-15
6.83487e-15
6.84464e-15
6.87884e-15
6.88847e-15
6.92215e-15
6.92682e-15
6.96808e-15
6.96282e-15
7.01391e-15
6.99966e-15
7.06023e-15
7.04073e-15
7.10433e-15
7.08986e-15
7.1466e-15
7.13721e-15
7.18728e-15
7.17226e-15
7.23028e-15
7.2204e-15
7.27293e-15
7.26371e-15
7.32713e-15
7.31753e-15
7.37904e-15
7.36688e-15
7.42157e-15
7.40386e-15
7.46351e-15
7.43617e-15
7.51453e-15
7.49606e-15
7.56023e-15
7.55119e-15
7.60093e-15
7.60282e-15
7.63731e-15
7.66918e-15
7.69728e-15
7.73381e-15
7.74765e-15
7.75212e-15
7.77026e-15
7.77746e-15
7.79379e-15
7.81936e-15
7.8184e-15
7.86188e-15
7.8425e-15
7.84898e-15
7.86482e-15
7.85452e-15
7.89029e-15
7.89729e-15
7.92143e-15
7.96121e-15
7.95934e-15
7.96674e-15
7.98179e-15
7.99366e-15
8.0117e-15
7.99484e-15
8.09191e-15
7.97027e-15
8.20388e-15
8.01105e-15
8.22447e-15
8.06876e-15
8.18533e-15
8.0459e-15
8.15025e-15
8.17799e-15
8.20543e-15
8.25308e-15
8.22549e-15
8.33852e-15
8.28876e-15
8.39876e-15
8.38688e-15
8.43916e-15
8.43056e-15
8.45609e-15
8.47561e-15
8.52316e-15
8.53125e-15
8.54982e-15
8.53989e-15
8.53091e-15
8.48543e-15
8.47978e-15
8.51222e-15
8.5562e-15
8.5703e-15
8.62446e-15
8.64193e-15
8.69195e-15
8.72069e-15
8.7359e-15
8.71372e-15
8.80221e-15
8.79372e-15
8.87555e-15
8.85289e-15
8.97794e-15
8.99051e-15
8.98198e-15
8.98756e-15
9.00785e-15
8.96576e-15
8.82919e-15
8.8261e-15
8.67976e-15
8.69469e-15
8.53514e-15
8.57206e-15
8.49201e-15
8.48388e-15
8.51276e-15
8.52929e-15
8.43981e-15
8.46759e-15
8.36209e-15
8.32298e-15
8.21792e-15
8.24157e-15
8.21035e-15
8.21838e-15
8.23558e-15
8.21484e-15
8.20592e-15
8.19347e-15
8.16976e-15
8.20378e-15
8.10705e-15
8.17044e-15
8.07223e-15
8.11324e-15
7.96409e-15
8.07248e-15
7.99663e-15
8.07201e-15
8.03826e-15
8.04699e-15
8.07331e-15
8.06748e-15
8.01856e-15
7.94258e-15
7.98735e-15
7.9334e-15
7.99309e-15
7.92315e-15
8.03797e-15
7.97186e-15
8.02871e-15
8.06819e-15
8.01073e-15
8.06343e-15
7.97955e-15
8.02526e-15
7.97919e-15
8.01496e-15
7.99018e-15
8.02885e-15
8.03317e-15
8.04668e-15
8.05101e-15
8.06566e-15
8.04631e-15
8.04775e-15
8.04066e-15
8.0483e-15
8.05146e-15
8.06638e-15
8.06912e-15
8.09264e-15
8.09241e-15
8.10098e-15
8.09618e-15
8.11812e-15
8.10633e-15
8.14501e-15
8.10412e-15
8.14835e-15
8.12313e-15
8.15415e-15
8.13079e-15
8.16141e-15
8.13593e-15
8.16168e-15
8.13921e-15
8.17855e-15
8.14806e-15
8.19633e-15
8.15459e-15
8.19242e-15
8.15195e-15
8.18953e-15
8.15523e-15
8.19101e-15
8.16089e-15
8.19656e-15
8.17575e-15
8.19213e-15
8.18633e-15
8.19462e-15
8.18303e-15
8.19364e-15
8.18267e-15
8.19585e-15
8.18825e-15
8.19159e-15
8.19348e-15
8.1902e-15
8.19849e-15
8.19143e-15
8.1975e-15
8.19223e-15
8.19648e-15
8.19548e-15
8.19815e-15
8.19836e-15
8.19834e-15
8.19824e-15
8.19714e-15
8.19923e-15
8.1984e-15
8.19875e-15
8.19832e-15
8.19812e-15
8.19818e-15
8.19614e-15
8.19681e-15
8.19873e-15
8.19426e-15
8.20228e-15
8.19277e-15
8.20568e-15
8.19229e-15
8.20456e-15
8.19172e-15
8.20341e-15
8.19106e-15
8.20383e-15
8.19191e-15
8.20422e-15
8.19108e-15
8.20403e-15
8.19016e-15
8.2038e-15
8.1897e-15
8.20409e-15
8.18999e-15
8.2049e-15
8.19023e-15
8.20458e-15
8.19041e-15
8.2048e-15
8.19024e-15
8.20531e-15
8.19033e-15
8.2055e-15
8.19133e-15
8.20537e-15
8.19134e-15
8.20538e-15
8.19166e-15
8.20555e-15
8.19196e-15
8.20589e-15
8.19224e-15
8.20605e-15
8.19251e-15
8.2062e-15
8.19277e-15
8.20676e-15
8.19281e-15
8.20668e-15
8.19294e-15
8.2066e-15
8.19293e-15
8.20674e-15
8.19304e-15
8.20675e-15
8.19313e-15
8.20663e-15
8.19315e-15
8.20656e-15
8.19309e-15
8.20656e-15
8.19316e-15
8.20677e-15
8.19314e-15
8.20699e-15
8.19308e-15
8.20697e-15
8.193e-15
8.20695e-15
8.193e-15
8.20701e-15
8.19302e-15
8.20704e-15
8.19301e-15
8.20706e-15
8.193e-15
8.20705e-15
8.19298e-15
8.20705e-15
8.92422e-15
8.9212e-15
8.80277e-15
8.81369e-15
8.64775e-15
8.71604e-15
8.51398e-15
8.59535e-15
8.3987e-15
8.46283e-15
8.41642e-15
8.52369e-15
8.39736e-15
8.43992e-15
8.31778e-15
8.38526e-15
8.28323e-15
8.29615e-15
8.26503e-15
8.18134e-15
8.2692e-15
8.22781e-15
8.25462e-15
8.25033e-15
8.20177e-15
8.23113e-15
8.08818e-15
8.18127e-15
8.0862e-15
8.12806e-15
8.06845e-15
8.09832e-15
8.06028e-15
8.08688e-15
8.05425e-15
8.08848e-15
8.03933e-15
8.05982e-15
8.01301e-15
7.98882e-15
7.99331e-15
8.01324e-15
7.99271e-15
8.05271e-15
8.04587e-15
8.00764e-15
8.04042e-15
8.04794e-15
8.05655e-15
8.06516e-15
8.03216e-15
8.04098e-15
8.03207e-15
8.04096e-15
8.03459e-15
8.04419e-15
8.07921e-15
8.04971e-15
8.06995e-15
8.05167e-15
8.06397e-15
8.07024e-15
8.07749e-15
8.09028e-15
8.07251e-15
8.1131e-15
8.10196e-15
8.1225e-15
8.11243e-15
8.11637e-15
8.12314e-15
8.12007e-15
8.15217e-15
8.13229e-15
8.16604e-15
8.14274e-15
8.17414e-15
8.1516e-15
8.17619e-15
8.16736e-15
8.17152e-15
8.17449e-15
8.17546e-15
8.18977e-15
8.17945e-15
8.20547e-15
8.18302e-15
8.20669e-15
8.17879e-15
8.21625e-15
8.17034e-15
8.21975e-15
8.18592e-15
8.21767e-15
8.19375e-15
8.22357e-15
8.20775e-15
8.2201e-15
8.20481e-15
8.22383e-15
8.20503e-15
8.23453e-15
8.2081e-15
8.24259e-15
8.21382e-15
8.24517e-15
8.21911e-15
8.24545e-15
8.21824e-15
8.24637e-15
8.21719e-15
8.25071e-15
8.21732e-15
8.25002e-15
8.21992e-15
8.24854e-15
8.21969e-15
8.24755e-15
8.21935e-15
8.24824e-15
8.22012e-15
8.25052e-15
8.22074e-15
8.24949e-15
8.22243e-15
8.25114e-15
8.2217e-15
8.25305e-15
8.2209e-15
8.25406e-15
8.22003e-15
8.2542e-15
8.22073e-15
8.25294e-15
8.22135e-15
8.25298e-15
8.22246e-15
8.25428e-15
8.22244e-15
8.25521e-15
8.22291e-15
8.25684e-15
8.22334e-15
8.25756e-15
8.22291e-15
8.25843e-15
8.22215e-15
8.25917e-15
8.22248e-15
8.25888e-15
8.2231e-15
8.2587e-15
8.22246e-15
8.25924e-15
8.22209e-15
8.25956e-15
8.22201e-15
8.25948e-15
8.2219e-15
8.25966e-15
8.22176e-15
8.26027e-15
8.22159e-15
8.26041e-15
8.22159e-15
8.26061e-15
8.22177e-15
8.26047e-15
8.22205e-15
8.26026e-15
8.22222e-15
8.26009e-15
8.22214e-15
8.2603e-15
8.22217e-15
8.26032e-15
8.22219e-15
8.26011e-15
8.2222e-15
8.25992e-15
8.22248e-15
8.25982e-15
8.22239e-15
8.25997e-15
8.22237e-15
8.26007e-15
8.22234e-15
8.26007e-15
8.22226e-15
8.26005e-15
8.22235e-15
8.26e-15
8.22239e-15
8.25994e-15
8.22238e-15
8.25992e-15
8.22237e-15
8.25993e-15
8.22236e-15
8.25995e-15
)
;

boundaryField
{
    walls
    {
        type            zeroGradient;
    }
    inlet
    {
        type            cyclic;
    }
    outlet
    {
        type            cyclic;
    }
    sides
    {
        type            empty;
    }
}


// ************************************************************************* //
