/*--------------------------------*- C++ -*----------------------------------*\
| =========                 |                                                 |
| \\      /  F ield         | OpenFOAM: The Open Source CFD Toolbox           |
|  \\    /   O peration     | Version:  2106                                  |
|   \\  /    A nd           | Website:  www.openfoam.com                      |
|    \\/     M anipulation  |                                                 |
\*---------------------------------------------------------------------------*/
FoamFile
{
    version     2.0;
    format      ascii;
    arch        "LSB;label=32;scalar=64";
    class       surfaceScalarField;
    location    "10010";
    object      phi;
}
// * * * * * * * * * * * * * * * * * * * * * * * * * * * * * * * * * * * * * //

dimensions      [0 3 -1 0 0 0 0];

oriented        oriented;

internalField   nonuniform List<scalar> 
3996
(
9.03472e-09
-5.19158e-18
-2.33767e-23
-7.99872e-23
1.19262e-23
2.77785e-08
-5.19191e-18
1.28251e-22
6.88815e-23
4.40294e-23
4.75686e-08
-5.19223e-18
1.2812e-22
2.15565e-22
4.65142e-23
6.84506e-08
-5.19252e-18
1.19892e-22
3.49006e-22
4.91197e-23
9.0472e-08
-5.19279e-18
1.14833e-22
4.71161e-22
5.18497e-23
1.13682e-07
-5.19305e-18
1.12451e-22
5.66772e-22
5.47077e-23
1.38133e-07
-5.19329e-18
1.10906e-22
6.39862e-22
5.76983e-23
1.63876e-07
-5.19353e-18
1.09487e-22
6.83494e-22
6.0827e-23
1.90969e-07
-5.19379e-18
1.08005e-22
7.73236e-22
6.40987e-23
2.19469e-07
-5.19404e-18
1.06363e-22
8.4615e-22
6.75161e-23
2.49435e-07
-5.19433e-18
1.04489e-22
8.67729e-22
7.10846e-23
2.80931e-07
-5.1945e-18
1.0234e-22
8.21042e-22
7.48084e-23
3.14021e-07
-5.1947e-18
9.98795e-23
7.91463e-22
7.86931e-23
3.48772e-07
-5.19482e-18
9.70782e-23
8.14336e-22
8.2743e-23
3.85254e-07
-5.19499e-18
9.39029e-23
7.69557e-22
8.69646e-23
4.23541e-07
-5.19517e-18
9.03278e-23
7.23862e-22
9.13655e-23
4.63708e-07
-5.19525e-18
8.63289e-23
6.10547e-22
9.59493e-23
5.05834e-07
-5.19539e-18
8.18754e-23
4.78672e-22
1.00725e-22
5.5e-07
-5.19538e-18
7.69452e-23
2.55344e-22
1.0569e-22
5.96292e-07
-5.1955e-18
7.15064e-23
1.66089e-22
1.10853e-22
6.44798e-07
-5.1956e-18
6.55393e-23
7.87938e-23
1.16219e-22
6.95609e-07
-5.19548e-18
5.90154e-23
-8.23361e-23
1.21785e-22
7.48822e-07
-5.1956e-18
5.18971e-23
-3.172e-22
1.27554e-22
8.04534e-07
-5.19542e-18
4.417e-23
-5.94543e-22
1.3353e-22
8.62849e-07
-5.19534e-18
3.57904e-23
-7.40831e-22
1.39723e-22
9.23874e-07
-5.19524e-18
2.67343e-23
-1.17607e-21
1.46119e-22
9.87719e-07
-5.19537e-18
1.69664e-23
-1.54553e-21
1.52726e-22
1.0545e-06
-5.19497e-18
6.46514e-24
-2.05608e-21
1.59559e-22
1.12434e-06
-5.19464e-18
-4.82596e-24
-2.58915e-21
1.66624e-22
1.19736e-06
-5.19359e-18
-1.69187e-23
-3.51245e-21
1.73899e-22
1.27368e-06
-5.1934e-18
-2.98933e-23
-3.59907e-21
1.8142e-22
1.35346e-06
-5.19313e-18
-4.37507e-23
-4.09736e-21
1.89149e-22
1.43681e-06
-5.19245e-18
-5.8543e-23
-4.75422e-21
1.97113e-22
1.52389e-06
-5.19199e-18
-7.43173e-23
-5.41238e-21
2.05287e-22
1.61485e-06
-5.19143e-18
-9.10989e-23
-6.1871e-21
2.13699e-22
1.70985e-06
-5.19002e-18
-1.0893e-22
-7.27549e-21
2.22333e-22
1.80903e-06
-5.18905e-18
-1.27897e-22
-8.09436e-21
2.31201e-22
1.91259e-06
-5.18873e-18
-1.4801e-22
-8.68687e-21
2.40284e-22
2.02068e-06
-5.18818e-18
-1.69275e-22
-9.08723e-21
2.49568e-22
2.13348e-06
-5.18719e-18
-1.91752e-22
-9.95214e-21
2.59058e-22
2.2512e-06
-5.18602e-18
-2.15506e-22
-1.11655e-20
2.68752e-22
2.37401e-06
-5.18519e-18
-2.40579e-22
-1.21804e-20
2.78651e-22
2.50213e-06
-5.18383e-18
-2.6697e-22
-1.36022e-20
2.88731e-22
2.63576e-06
-5.18262e-18
-2.94755e-22
-1.53703e-20
2.9898e-22
2.77511e-06
-5.18123e-18
-3.23939e-22
-1.71301e-20
3.09382e-22
2.92042e-06
-5.17919e-18
-3.54521e-22
-1.91548e-20
3.19895e-22
3.07192e-06
-5.1771e-18
-3.86663e-22
-2.16399e-20
3.3058e-22
3.22984e-06
-5.17567e-18
-4.20317e-22
-2.3017e-20
3.41433e-22
3.39444e-06
-5.17496e-18
-4.55504e-22
-2.49695e-20
3.52358e-22
3.56597e-06
-5.17296e-18
-4.92156e-22
-2.64562e-20
3.63331e-22
3.7447e-06
-5.17074e-18
-5.30432e-22
-2.8098e-20
3.74325e-22
3.93091e-06
-5.16875e-18
-5.70365e-22
-2.92435e-20
3.85332e-22
4.12489e-06
-5.16628e-18
-6.11972e-22
-3.1731e-20
3.96234e-22
4.32692e-06
-5.16456e-18
-6.55342e-22
-3.39419e-20
4.0732e-22
4.53732e-06
-5.16085e-18
-7.00408e-22
-3.48057e-20
4.1843e-22
4.75639e-06
-5.15767e-18
-7.47326e-22
-3.82843e-20
4.29348e-22
4.98446e-06
-5.15513e-18
-7.96028e-22
-4.10016e-20
4.40349e-22
5.22187e-06
-5.15176e-18
-8.4633e-22
-4.43934e-20
4.51174e-22
5.46895e-06
-5.14744e-18
-8.98257e-22
-4.7743e-20
4.61818e-22
5.72607e-06
-5.14316e-18
-9.51857e-22
-5.08665e-20
4.7221e-22
5.99357e-06
-5.13804e-18
-1.00696e-21
-5.47219e-20
4.82104e-22
6.27183e-06
-5.13523e-18
-1.06365e-21
-5.70861e-20
4.91694e-22
6.56123e-06
-5.13108e-18
-1.12161e-21
-6.00918e-20
5.00961e-22
6.86217e-06
-5.12868e-18
-1.18113e-21
-6.31703e-20
5.09994e-22
7.17502e-06
-5.12286e-18
-1.2417e-21
-6.65209e-20
5.18656e-22
7.5002e-06
-5.11703e-18
-1.3036e-21
-7.08502e-20
5.26758e-22
7.83811e-06
-5.11132e-18
-1.36635e-21
-7.4899e-20
5.34253e-22
8.18917e-06
-5.10714e-18
-1.42991e-21
-7.68387e-20
5.41311e-22
8.55381e-06
-5.10339e-18
-1.49403e-21
-7.97079e-20
5.47578e-22
8.93243e-06
-5.09707e-18
-1.5588e-21
-8.37201e-20
5.52734e-22
9.32548e-06
-5.09087e-18
-1.62468e-21
-8.7428e-20
5.57101e-22
9.73337e-06
-5.08275e-18
-1.69145e-21
-9.26621e-20
5.60581e-22
1.01565e-05
-5.07467e-18
-1.75935e-21
-9.80188e-20
5.63542e-22
1.05954e-05
-5.06757e-18
-1.82814e-21
-1.04952e-19
5.65862e-22
1.10504e-05
-5.06387e-18
-1.8978e-21
-1.09384e-19
5.67662e-22
1.1522e-05
-5.05772e-18
-1.9669e-21
-1.1363e-19
5.68824e-22
1.20105e-05
-5.05326e-18
-2.0363e-21
-1.16266e-19
5.69414e-22
1.25164e-05
-5.04205e-18
-2.10421e-21
-1.22849e-19
5.68425e-22
1.30401e-05
-5.03438e-18
-2.1721e-21
-1.29786e-19
5.68165e-22
1.35819e-05
-5.0249e-18
-2.23938e-21
-1.365e-19
5.68116e-22
1.41423e-05
-5.01556e-18
-2.30595e-21
-1.44437e-19
5.67859e-22
1.47216e-05
-5.00715e-18
-2.37169e-21
-1.49532e-19
5.68199e-22
1.53202e-05
-5.00092e-18
-2.43591e-21
-1.56677e-19
5.69357e-22
1.59385e-05
-4.99046e-18
-2.49739e-21
-1.60402e-19
5.71321e-22
1.65767e-05
-4.97931e-18
-2.55767e-21
-1.69571e-19
5.73242e-22
1.72352e-05
-4.96772e-18
-2.61626e-21
-1.75843e-19
5.77037e-22
1.79143e-05
-4.96122e-18
-2.67373e-21
-1.87165e-19
5.81123e-22
1.86144e-05
-4.94668e-18
-2.7282e-21
-1.95156e-19
5.8922e-22
1.93356e-05
-4.93933e-18
-2.78299e-21
-2.00732e-19
5.99e-22
2.00783e-05
-4.93613e-18
-2.83648e-21
-2.0121e-19
6.10728e-22
2.08427e-05
-4.92998e-18
-2.88679e-21
-2.09876e-19
6.20037e-22
2.16292e-05
-4.92078e-18
-2.93315e-21
-2.1652e-19
6.30341e-22
2.24379e-05
-4.90661e-18
-2.97652e-21
-2.2549e-19
6.39463e-22
2.32692e-05
-4.89226e-18
-3.01923e-21
-2.35737e-19
6.49221e-22
2.41233e-05
-4.87949e-18
-3.05916e-21
-2.47408e-19
6.6083e-22
2.50004e-05
-4.86603e-18
-3.09718e-21
-2.58576e-19
6.73797e-22
2.59008e-05
-4.85721e-18
-3.1343e-21
-2.67541e-19
6.87555e-22
2.68248e-05
-4.84215e-18
-3.16922e-21
-2.74729e-19
7.0243e-22
2.77727e-05
-4.82922e-18
-3.20492e-21
-2.84557e-19
7.16895e-22
2.87447e-05
-4.81666e-18
-3.24108e-21
-2.88415e-19
7.36389e-22
2.97411e-05
-4.80725e-18
-3.27844e-21
-3.02246e-19
7.57445e-22
3.07622e-05
-4.78173e-18
-3.31823e-21
-3.10245e-19
7.84384e-22
3.18084e-05
-4.76724e-18
-3.36969e-21
-3.18672e-19
8.12505e-22
3.288e-05
-4.74307e-18
-3.42275e-21
-3.3543e-19
8.47036e-22
3.39772e-05
-4.7274e-18
-3.48047e-21
-3.4542e-19
8.88351e-22
3.51005e-05
-4.70656e-18
-3.54998e-21
-3.60994e-19
9.39531e-22
3.62503e-05
-4.69506e-18
-3.62731e-21
-3.78185e-19
1.00364e-21
3.74269e-05
-4.69262e-18
-3.70589e-21
-3.71721e-19
1.08221e-21
3.86308e-05
-4.68183e-18
-3.77766e-21
-3.79758e-19
1.15884e-21
3.98623e-05
-4.66199e-18
-3.85791e-21
-3.85061e-19
1.24335e-21
4.1122e-05
-4.64945e-18
-3.95283e-21
-3.92771e-19
1.33891e-21
4.24103e-05
-4.63726e-18
-4.04533e-21
-4.06478e-19
1.44636e-21
4.37276e-05
-4.62538e-18
-4.14085e-21
-4.14849e-19
1.55787e-21
4.50746e-05
-4.6082e-18
-4.22629e-21
-4.30509e-19
1.66868e-21
4.64516e-05
-4.58804e-18
-4.30794e-21
-4.39099e-19
1.78211e-21
4.78594e-05
-4.56665e-18
-4.37877e-21
-4.56242e-19
1.89611e-21
4.92983e-05
-4.55045e-18
-4.44148e-21
-4.71654e-19
2.01979e-21
5.07691e-05
-4.51264e-18
-4.49648e-21
-4.92991e-19
2.15381e-21
5.22723e-05
-4.48303e-18
-4.56459e-21
-5.1291e-19
2.30106e-21
5.38086e-05
-4.44413e-18
-4.6298e-21
-5.31183e-19
2.44675e-21
5.53785e-05
-4.41849e-18
-4.70652e-21
-5.51314e-19
2.5802e-21
5.69828e-05
-4.38607e-18
-4.78286e-21
-5.71612e-19
2.69323e-21
5.86221e-05
-4.37798e-18
-4.86617e-21
-5.82974e-19
2.79422e-21
6.02972e-05
-4.36255e-18
-4.94208e-21
-5.88004e-19
2.88238e-21
6.20088e-05
-4.33854e-18
-5.00949e-21
-6.02245e-19
2.92414e-21
6.37576e-05
-4.31358e-18
-5.1066e-21
-6.245e-19
2.95442e-21
6.55443e-05
-4.29359e-18
-5.22347e-21
-6.46409e-19
2.96857e-21
6.73698e-05
-4.25034e-18
-5.36282e-21
-6.71293e-19
2.97953e-21
6.92349e-05
-4.2433e-18
-5.55508e-21
-6.97921e-19
2.99809e-21
7.11404e-05
-4.21868e-18
-5.74571e-21
-7.20367e-19
3.03461e-21
7.30872e-05
-4.20656e-18
-5.96041e-21
-7.4724e-19
3.09646e-21
7.5076e-05
-4.15318e-18
-6.16772e-21
-7.69972e-19
3.14514e-21
7.71078e-05
-4.1324e-18
-6.42171e-21
-7.98593e-19
3.15583e-21
7.91835e-05
-4.09853e-18
-6.6553e-21
-8.20835e-19
3.14831e-21
8.13041e-05
-4.06909e-18
-6.8806e-21
-8.54577e-19
3.14524e-21
8.34705e-05
-4.03619e-18
-7.10345e-21
-8.75584e-19
3.18631e-21
8.56836e-05
-4.00536e-18
-7.33073e-21
-9.03398e-19
3.1672e-21
8.79444e-05
-3.96428e-18
-7.54667e-21
-9.40642e-19
3.1293e-21
9.0254e-05
-3.94205e-18
-7.76652e-21
-9.63909e-19
3.11108e-21
9.26135e-05
-3.90671e-18
-7.98271e-21
-9.79579e-19
3.07459e-21
9.50238e-05
-3.87757e-18
-8.22252e-21
-1.00758e-18
2.92353e-21
9.7486e-05
-3.84289e-18
-8.47603e-21
-1.04764e-18
2.74439e-21
0.000100001
-3.80608e-18
-8.76001e-21
-1.0791e-18
2.60146e-21
0.000102571
-3.77125e-18
-9.00234e-21
-1.10671e-18
2.50301e-21
0.000105196
-3.73083e-18
-9.26859e-21
-1.12885e-18
2.36708e-21
0.000107877
-3.68298e-18
-9.53146e-21
-1.16506e-18
2.22562e-21
0.000110616
-3.64727e-18
-9.87022e-21
-1.19316e-18
2.10719e-21
0.000113414
-3.61504e-18
-1.02406e-20
-1.20865e-18
1.96015e-21
0.000116273
-3.57864e-18
-1.05873e-20
-1.21408e-18
1.75593e-21
0.000119193
-3.50066e-18
-1.08961e-20
-1.24785e-18
1.4656e-21
0.000122175
-3.46399e-18
-1.14166e-20
-1.25647e-18
1.24999e-21
0.000125222
-3.41375e-18
-1.18907e-20
-1.29862e-18
9.60969e-22
0.000128334
-3.4253e-18
-1.23885e-20
-1.29705e-18
6.72611e-22
0.000131514
-3.36464e-18
-1.25448e-20
-1.34053e-18
2.68475e-22
0.000134761
-3.34151e-18
-1.28498e-20
-1.33834e-18
1.86397e-23
0.000138079
-3.28766e-18
-1.3128e-20
-1.36424e-18
-2.5491e-22
0.000141467
-3.23565e-18
-1.33903e-20
-1.38434e-18
-6.27494e-22
0.000144929
-3.19769e-18
-1.37096e-20
-1.39306e-18
-1.10099e-21
0.000148465
-3.16562e-18
-1.40037e-20
-1.40054e-18
-1.65261e-21
0.000152076
-3.12787e-18
-1.41899e-20
-1.42907e-18
-2.27057e-21
0.000155766
-3.08157e-18
-1.42118e-20
-1.44865e-18
-2.81921e-21
0.000159534
-3.01923e-18
-1.4003e-20
-1.46083e-18
-3.40016e-21
0.000163383
-2.96324e-18
-1.40472e-20
-1.4896e-18
-3.89644e-21
0.000167315
-2.94119e-18
-1.40916e-20
-1.48136e-18
-4.2304e-21
0.000171331
-2.90111e-18
-1.41177e-20
-1.46432e-18
-4.66152e-21
0.000175433
-2.87462e-18
-1.42188e-20
-1.48503e-18
-5.37554e-21
0.000179622
-2.83372e-18
-1.44144e-20
-1.48498e-18
-6.00598e-21
0.000183901
-2.79831e-18
-1.46582e-20
-1.50914e-18
-6.69804e-21
0.000188272
-2.73092e-18
-1.48971e-20
-1.50555e-18
-7.11972e-21
0.000192737
-2.68708e-18
-1.56119e-20
-1.52651e-18
-7.53575e-21
0.000197296
-2.66485e-18
-1.65506e-20
-1.51881e-18
-7.88599e-21
0.000201953
-2.59021e-18
-1.72e-20
-1.52509e-18
-8.24105e-21
0.000206709
-2.57159e-18
-1.76043e-20
-1.50569e-18
-8.79488e-21
0.000211567
-2.53944e-18
-1.75599e-20
-1.48165e-18
-9.44633e-21
0.000216529
-2.52678e-18
-1.7559e-20
-1.46221e-18
-9.9265e-21
0.000221595
-2.46369e-18
-1.72143e-20
-1.49594e-18
-1.03032e-20
0.00022677
-2.42583e-18
-1.6967e-20
-1.50362e-18
-1.02592e-20
0.000232055
-2.39091e-18
-1.66922e-20
-1.50526e-18
-1.0086e-20
0.000237452
-2.35074e-18
-1.63272e-20
-1.517e-18
-9.60688e-21
0.000242964
-2.34526e-18
-1.60816e-20
-1.49334e-18
-9.27806e-21
0.000248593
-2.2565e-18
-1.54179e-20
-1.51896e-18
-9.34138e-21
0.000254341
-2.141e-18
-1.51601e-20
-1.521e-18
-9.89029e-21
0.000260211
-2.12686e-18
-1.552e-20
-1.50217e-18
-1.04503e-20
0.000266205
-2.09686e-18
-1.53444e-20
-1.46806e-18
-1.1233e-20
0.000272326
-2.05915e-18
-1.55503e-20
-1.53574e-18
-1.28414e-20
0.000278576
-2.01107e-18
-1.53858e-20
-1.556e-18
-1.37034e-20
0.000284959
-2.01091e-18
-1.65106e-20
-1.628e-18
-1.40676e-20
0.000291475
-1.94894e-18
-1.68758e-20
-1.64078e-18
-1.40136e-20
0.000298129
-1.9261e-18
-1.78918e-20
-1.62143e-18
-1.44908e-20
0.000304923
-1.89423e-18
-1.9113e-20
-1.6511e-18
-1.53164e-20
0.00031186
-1.87389e-18
-2.06096e-20
-1.66301e-18
-1.63746e-20
0.000318943
-1.87149e-18
-2.16013e-20
-1.71637e-18
-1.78832e-20
0.000326173
-1.82709e-18
-2.23116e-20
-1.69492e-18
-1.68892e-20
0.000333556
-1.79759e-18
-2.34442e-20
-1.74811e-18
-1.7409e-20
0.000341092
-1.7958e-18
-2.44278e-20
-1.71171e-18
-1.58273e-20
0.000348786
-1.74673e-18
-2.50713e-20
-1.80785e-18
-1.61848e-20
0.00035664
-1.81178e-18
-2.55777e-20
-1.69866e-18
-1.53655e-20
0.000364658
-1.76557e-18
-2.54601e-20
-1.72589e-18
-1.64053e-20
0.000372843
-1.70493e-18
-2.42546e-20
-1.63712e-18
-1.72472e-20
0.000381197
-1.73987e-18
-2.39192e-20
-1.59002e-18
-1.77553e-20
0.000389724
-1.71399e-18
-2.25658e-20
-1.59332e-18
-1.92842e-20
0.000398428
-1.65917e-18
-2.02601e-20
-1.55234e-18
-1.86287e-20
0.000407311
-1.67281e-18
-1.8538e-20
-1.5447e-18
-2.04148e-20
0.000416377
-1.60333e-18
-1.61307e-20
-1.46787e-18
-2.32951e-20
0.00042563
-1.46915e-18
-1.53827e-20
-1.51697e-18
-2.48581e-20
0.000435072
-1.46834e-18
-1.56028e-20
-1.40989e-18
-2.36872e-20
0.000444707
-1.36933e-18
-1.39653e-20
-1.4541e-18
-2.46216e-20
0.000454539
-1.35405e-18
-1.75612e-20
-1.41342e-18
-2.32393e-20
0.000464571
-1.30236e-18
-1.85454e-20
-1.30754e-18
-2.32924e-20
0.000474807
-1.27771e-18
-1.89206e-20
-1.24844e-18
-2.60865e-20
0.00048525
-1.2759e-18
-1.90071e-20
-1.21474e-18
-2.57758e-20
0.000495904
-1.1541e-18
-2.0445e-20
-1.33391e-18
-2.55877e-20
0.000506772
-1.35921e-18
-2.34187e-20
-1.33478e-18
-2.25716e-20
0.000517858
-1.30662e-18
-2.48228e-20
-1.34079e-18
-2.08537e-20
0.000529166
-1.29709e-18
-3.37745e-20
-1.41909e-18
-2.47238e-20
0.000540699
-1.3824e-18
-4.29424e-20
-1.31524e-18
-2.33254e-20
0.000552461
-1.35858e-18
-4.51284e-20
-1.36678e-18
-1.9884e-20
0.000564455
-1.35992e-18
-4.19503e-20
-1.2774e-18
-1.75052e-20
0.000576685
-1.27781e-18
-3.95143e-20
-1.32716e-18
-2.04503e-20
0.000589154
-1.35463e-18
-4.2126e-20
-1.39896e-18
-2.07881e-20
0.000601867
-1.29322e-18
-3.55728e-20
-1.29323e-18
-1.95435e-20
0.000614825
-1.28012e-18
-3.61027e-20
-1.21189e-18
-2.37978e-20
0.000628034
-1.42727e-18
-3.65855e-20
-1.22666e-18
-2.67897e-20
0.000641495
-1.32116e-18
-2.93997e-20
-1.26229e-18
-2.83593e-20
0.000655212
-1.30825e-18
-2.60739e-20
-1.27009e-18
-2.94503e-20
0.000669188
-1.21058e-18
-2.50002e-20
-1.36659e-18
-2.633e-20
0.000683427
-1.22193e-18
-2.91244e-20
-1.24987e-18
-2.61572e-20
0.00069793
-1.21046e-18
-3.34976e-20
-1.27195e-18
-2.28124e-20
0.0007127
-1.24434e-18
-3.96614e-20
-1.31577e-18
-1.6574e-20
0.000727739
-1.17546e-18
-3.95806e-20
-1.34311e-18
-1.60443e-20
0.00074305
-1.10729e-18
-4.28597e-20
-1.25557e-18
-1.73782e-20
0.000758635
-1.01662e-18
-5.14107e-20
-1.34286e-18
-2.07174e-20
0.000774493
-1.12539e-18
-5.75415e-20
-1.21326e-18
-2.28439e-20
0.000790628
-1.19983e-18
-5.66894e-20
-1.18215e-18
-2.41361e-20
0.000807038
-1.05482e-18
-4.4087e-20
-1.36034e-18
-2.16023e-20
0.000823725
-1.18837e-18
-5.8131e-20
-1.12525e-18
-1.33436e-20
0.000840687
-1.26332e-18
-5.94329e-20
-1.09636e-18
-2.57475e-20
0.000857924
-1.18174e-18
-5.13504e-20
-1.12757e-18
-1.95873e-20
0.000875433
-1.29495e-18
-5.6718e-20
-1.13007e-18
-1.9573e-20
0.000893211
-1.22757e-18
-5.65861e-20
-1.09334e-18
-2.85442e-20
0.000911255
-1.28884e-18
-5.80639e-20
-9.86103e-19
-3.40496e-20
0.000929561
-1.20845e-18
-3.75345e-20
-9.65395e-19
-2.75943e-20
0.000948121
-9.68287e-19
-2.29703e-20
-9.36904e-19
-2.42861e-20
0.000966931
-8.17832e-19
-2.98068e-20
-8.38624e-19
-1.19626e-20
0.00098598
-7.02529e-19
-4.43279e-20
-9.16527e-19
2.76556e-21
0.00100526
-7.78281e-19
-5.59382e-20
-8.62147e-19
4.83736e-21
0.00102476
-9.64534e-19
-7.8426e-20
-7.10553e-19
-3.4562e-21
0.00104447
-8.53033e-19
-6.98102e-20
-6.45686e-19
-1.35433e-20
0.00106437
-6.25801e-19
-3.63108e-20
-7.40585e-19
-2.45943e-20
0.00108445
-1.31308e-20
-5.97915e-19
-3.10136e-20
-6.6772e-19
9.03472e-09
-2.59925e-23
1.46966e-23
2.77785e-08
8.019e-23
8.39569e-23
4.75686e-08
1.83856e-22
1.53086e-22
6.84506e-08
2.77044e-22
2.30956e-22
9.0472e-08
3.70728e-22
3.1505e-22
1.13682e-07
4.53095e-22
4.14844e-22
1.38133e-07
5.3293e-22
5.42834e-22
1.63876e-07
6.09054e-22
6.6094e-22
1.90969e-07
6.6446e-22
7.65042e-22
2.19469e-07
7.28508e-22
8.99195e-22
2.49435e-07
8.55311e-22
9.53715e-22
2.80931e-07
9.59542e-22
1.01111e-21
3.14021e-07
1.03583e-21
1.08274e-21
3.48772e-07
9.75542e-22
1.27226e-21
3.85254e-07
9.58823e-22
1.53796e-21
4.23541e-07
1.02755e-21
1.76898e-21
4.63708e-07
1.04005e-21
2.04926e-21
5.05834e-07
1.13017e-21
2.13704e-21
5.5e-07
1.14699e-21
2.25183e-21
5.96292e-07
1.27498e-21
2.51352e-21
6.44798e-07
1.35873e-21
2.58079e-21
6.95609e-07
1.31017e-21
2.71419e-21
7.48822e-07
1.45327e-21
2.79184e-21
8.04534e-07
1.48963e-21
3.0782e-21
8.62849e-07
1.61296e-21
3.10111e-21
9.23874e-07
1.63573e-21
3.04049e-21
9.87719e-07
1.74577e-21
3.37217e-21
1.0545e-06
1.69732e-21
3.70646e-21
1.12434e-06
2.08806e-21
3.56778e-21
1.19736e-06
2.04973e-21
3.84178e-21
1.27368e-06
2.00322e-21
3.91969e-21
1.35346e-06
1.68283e-21
4.27425e-21
1.43681e-06
1.63327e-21
3.94144e-21
1.52389e-06
1.54327e-21
4.37927e-21
1.61485e-06
1.43638e-21
4.50468e-21
1.70985e-06
1.34483e-21
4.71807e-21
1.80903e-06
1.43904e-21
4.83388e-21
1.91259e-06
1.47812e-21
4.89772e-21
2.02068e-06
1.18387e-21
5.37326e-21
2.13348e-06
8.01992e-22
5.73785e-21
2.2512e-06
4.94086e-22
5.88141e-21
2.37401e-06
3.05705e-22
6.05193e-21
2.50213e-06
-3.21198e-23
6.38421e-21
2.63576e-06
-2.85414e-22
6.8309e-21
2.77511e-06
-2.94424e-22
7.39786e-21
2.92042e-06
-1.71268e-21
8.55375e-21
3.07192e-06
-1.81676e-21
8.66143e-21
3.22984e-06
-2.2512e-21
9.02224e-21
3.39444e-06
-2.3817e-21
8.97931e-21
3.56597e-06
-2.88374e-21
8.98618e-21
3.7447e-06
-3.07932e-21
9.111e-21
3.93091e-06
-3.30254e-21
8.50069e-21
4.12489e-06
-3.96962e-21
9.10815e-21
4.32692e-06
-4.49207e-21
9.15618e-21
4.53732e-06
-4.67519e-21
9.37728e-21
4.75639e-06
-5.28005e-21
9.81857e-21
4.98446e-06
-5.40865e-21
9.57226e-21
5.22187e-06
-5.57983e-21
9.8735e-21
5.46895e-06
-6.33877e-21
1.07604e-20
5.72607e-06
-6.8636e-21
1.08221e-20
5.99357e-06
-7.29126e-21
1.1392e-20
6.27183e-06
-7.4079e-21
1.20471e-20
6.56123e-06
-8.94048e-21
1.33954e-20
6.86217e-06
-9.88792e-21
1.44819e-20
7.17502e-06
-1.08397e-20
1.40248e-20
7.5002e-06
-1.04844e-20
1.34066e-20
7.83811e-06
-1.13502e-20
1.39969e-20
8.18917e-06
-1.24375e-20
1.30574e-20
8.55381e-06
-1.41651e-20
1.04896e-20
8.93243e-06
-1.58424e-20
1.10158e-20
9.32548e-06
-1.69096e-20
9.90595e-21
9.73337e-06
-1.85547e-20
8.6355e-21
1.01565e-05
-2.03955e-20
8.93995e-21
1.05954e-05
-2.45934e-20
7.93276e-21
1.10504e-05
-2.68876e-20
8.3732e-21
1.1522e-05
-3.20884e-20
1.12968e-20
1.20105e-05
-3.24961e-20
1.00368e-20
1.25164e-05
-3.33458e-20
1.1096e-20
1.30401e-05
-3.57736e-20
1.03448e-20
1.35819e-05
-3.63929e-20
9.93315e-21
1.41423e-05
-3.6686e-20
8.22751e-21
1.47216e-05
-3.75936e-20
8.17733e-21
1.53202e-05
-3.85993e-20
7.50648e-21
1.59385e-05
-4.07584e-20
6.70472e-21
1.65767e-05
-4.04295e-20
6.77757e-21
1.72352e-05
-4.10171e-20
4.48902e-21
1.79143e-05
-3.9196e-20
7.21522e-21
1.86144e-05
-3.8657e-20
4.99155e-21
1.93356e-05
-4.20303e-20
5.84294e-21
2.00783e-05
-4.6796e-20
2.91375e-21
2.08427e-05
-4.97862e-20
3.36421e-21
2.16292e-05
-5.4084e-20
1.46524e-21
2.24379e-05
-5.96558e-20
6.44502e-22
2.32692e-05
-5.9397e-20
1.52604e-21
2.41233e-05
-5.88379e-20
2.45605e-21
2.50004e-05
-5.72523e-20
-6.02415e-22
2.59008e-05
-5.81318e-20
-3.75005e-21
2.68248e-05
-5.87352e-20
-7.6993e-21
2.77727e-05
-6.06744e-20
-7.17923e-21
2.87447e-05
-6.4015e-20
-7.92713e-21
2.97411e-05
-7.23236e-20
-8.09881e-21
3.07622e-05
-7.98202e-20
-1.30908e-20
3.18084e-05
-7.89479e-20
-1.00576e-20
3.288e-05
-7.10508e-20
-1.26486e-20
3.39772e-05
-8.02289e-20
-7.5386e-21
3.51005e-05
-7.94561e-20
-8.21149e-21
3.62503e-05
-7.92398e-20
-3.10786e-21
3.74269e-05
-7.76717e-20
7.54821e-21
3.86308e-05
-8.94495e-20
1.31389e-20
3.98623e-05
-9.81368e-20
2.35897e-20
4.1122e-05
-9.12481e-20
3.63646e-20
4.24103e-05
-9.25397e-20
3.35063e-20
4.37276e-05
-8.66197e-20
3.1713e-20
4.50746e-05
-8.95296e-20
2.97774e-20
4.64516e-05
-8.20946e-20
2.87974e-20
4.78594e-05
-7.55925e-20
2.76016e-20
4.92983e-05
-7.96899e-20
3.051e-20
5.07691e-05
-9.0985e-20
3.57778e-20
5.22723e-05
-9.59585e-20
3.76398e-20
5.38086e-05
-9.69982e-20
3.6341e-20
5.53785e-05
-9.45218e-20
3.22098e-20
5.69828e-05
-8.83692e-20
3.14457e-20
5.86221e-05
-8.97609e-20
3.14681e-20
6.02972e-05
-7.98627e-20
1.41518e-20
6.20088e-05
-8.82111e-20
1.68488e-20
6.37576e-05
-8.37116e-20
7.1837e-21
6.55443e-05
-8.50568e-20
1.13117e-20
6.73698e-05
-8.56148e-20
2.8353e-20
6.92349e-05
-8.7466e-20
3.81805e-20
7.11404e-05
-8.67879e-20
4.8114e-20
7.30872e-05
-8.3839e-20
4.80019e-20
7.5076e-05
-7.947e-20
4.79436e-20
7.71078e-05
-7.64323e-20
4.23472e-20
7.91835e-05
-7.12833e-20
4.41294e-20
8.13041e-05
-7.27336e-20
6.40983e-20
8.34705e-05
-7.64774e-20
5.567e-20
8.56836e-05
-8.03366e-20
5.83028e-20
8.79444e-05
-7.76061e-20
6.2237e-20
9.0254e-05
-8.54408e-20
6.29529e-20
9.26135e-05
-9.30452e-20
3.90026e-20
9.50238e-05
-1.00317e-19
3.70875e-20
9.7486e-05
-1.07333e-19
3.85734e-20
0.000100001
-8.69544e-20
5.14657e-20
0.000102571
-9.40473e-20
3.91573e-20
0.000105196
-9.05508e-20
4.06357e-20
0.000107877
-1.16252e-19
4.3178e-20
0.000110616
-1.39035e-19
4.42027e-20
0.000113414
-1.45098e-19
4.50808e-20
0.000116273
-1.48387e-19
3.48335e-20
0.000119193
-1.92211e-19
3.27315e-20
0.000122175
-1.95966e-19
3.03359e-20
0.000125222
-1.92557e-19
3.35919e-20
0.000128334
-1.50771e-19
3.86697e-20
0.000131514
-1.60118e-19
4.36726e-20
0.000134761
-1.69641e-19
3.97773e-20
0.000138079
-1.66126e-19
1.20025e-20
0.000141467
-1.78735e-19
3.76896e-21
0.000144929
-1.81127e-19
-6.04845e-21
0.000148465
-1.79387e-19
-3.16861e-20
0.000152076
-1.67443e-19
-3.1739e-20
0.000155766
-1.27792e-19
-4.80864e-20
0.000159534
-1.55346e-19
-6.15157e-20
0.000163383
-1.37095e-19
-5.50624e-20
0.000167315
-1.42499e-19
-5.17159e-20
0.000171331
-1.4731e-19
-6.75659e-20
0.000175433
-1.763e-19
-5.51909e-20
0.000179622
-1.78803e-19
-9.14179e-20
0.000183901
-1.7342e-19
-1.05084e-19
0.000188272
-2.06539e-19
-9.72546e-20
0.000192737
-2.30383e-19
-1.18784e-19
0.000197296
-2.19373e-19
-1.30534e-19
0.000201953
-1.75649e-19
-1.56773e-19
0.000206709
-1.57817e-19
-1.48451e-19
0.000211567
-1.94465e-19
-1.20768e-19
0.000216529
-2.17171e-19
-1.15811e-19
0.000221595
-2.26578e-19
-1.21399e-19
0.00022677
-2.31713e-19
-1.34788e-19
0.000232055
-2.2135e-19
-1.32057e-19
0.000237452
-2.43145e-19
-1.6319e-19
0.000242964
-2.65735e-19
-1.5507e-19
0.000248593
-2.72229e-19
-1.91104e-19
0.000254341
-2.68246e-19
-1.92062e-19
0.000260211
-2.58807e-19
-1.7895e-19
0.000266205
-2.94369e-19
-1.57728e-19
0.000272326
-2.26353e-19
-1.59514e-19
0.000278576
-2.69344e-19
-1.74337e-19
0.000284959
-2.34473e-19
-2.01673e-19
0.000291475
-2.42457e-19
-2.29706e-19
0.000298129
-2.50088e-19
-2.64128e-19
0.000304923
-2.69137e-19
-3.40595e-19
0.00031186
-2.50519e-19
-3.907e-19
0.000318943
-2.64442e-19
-2.92216e-19
0.000326173
-2.85638e-19
-3.32547e-19
0.000333556
-2.94329e-19
-2.17555e-19
0.000341092
-3.286e-19
-2.69419e-19
0.000348786
-3.08601e-19
-3.11356e-19
0.00035664
-3.66487e-19
-3.02959e-19
0.000364658
-3.05804e-19
-3.31878e-19
0.000372843
-3.102e-19
-2.37882e-19
0.000381197
-3.0714e-19
-2.90068e-19
0.000389724
-2.71666e-19
-2.63472e-19
0.000398428
-2.90715e-19
-3.26844e-19
0.000407311
-3.24546e-19
-3.92929e-19
0.000416377
-3.77728e-19
-3.54155e-19
0.00042563
-3.51051e-19
-3.87951e-19
0.000435072
-3.59698e-19
-3.68522e-19
0.000444707
-5.06665e-19
-3.25919e-19
0.000454539
-4.50164e-19
-3.80441e-19
0.000464571
-4.46739e-19
-4.24063e-19
0.000474807
-4.53161e-19
-3.64822e-19
0.00048525
-4.95041e-19
-3.97146e-19
0.000495904
-4.5305e-19
-4.20646e-19
0.000506772
-6.41243e-19
-4.13654e-19
0.000517858
-7.53815e-19
-4.99885e-19
0.000529166
-7.2003e-19
-4.64395e-19
0.000540699
-6.62871e-19
-4.60114e-19
0.000552461
-5.35903e-19
-6.02483e-19
0.000564455
-5.44249e-19
-6.22056e-19
0.000576685
-6.0245e-19
-6.01876e-19
0.000589154
-5.20897e-19
-5.79332e-19
0.000601867
-5.86621e-19
-5.91628e-19
0.000614825
-5.55955e-19
-5.74242e-19
0.000628034
-6.14053e-19
-5.63754e-19
0.000641495
-6.04844e-19
-5.46063e-19
0.000655212
-5.78723e-19
-4.70115e-19
0.000669188
-5.42653e-19
-6.01697e-19
0.000683427
-5.47986e-19
-4.96982e-19
0.00069793
-5.61781e-19
-5.33943e-19
0.0007127
-5.32216e-19
-5.64473e-19
0.000727739
-5.46551e-19
-5.81519e-19
0.00074305
-5.43061e-19
-5.46846e-19
0.000758635
-3.89096e-19
-5.62928e-19
0.000774493
-4.07768e-19
-4.47221e-19
0.000790628
-3.01916e-19
-3.98092e-19
0.000807038
-3.95675e-19
-4.40754e-19
0.000823725
-3.59223e-19
-4.64188e-19
0.000840687
-3.87501e-19
-3.27104e-19
0.000857924
-4.80777e-19
-4.67195e-19
0.000875433
-6.06162e-19
-5.33406e-19
0.000893211
-6.80032e-19
-5.75784e-19
0.000911255
-6.08682e-19
-5.59492e-19
0.000929561
-6.29809e-19
-6.05037e-19
0.000948121
-6.16626e-19
-4.54343e-19
0.000966931
-6.16835e-19
-4.4417e-19
0.00098598
-5.27542e-19
-7.01782e-19
0.00100526
-6.80445e-19
-6.75277e-19
0.00102476
-6.59157e-19
-5.68727e-19
0.00104447
-4.27878e-19
-5.6227e-19
0.00106437
-2.77158e-19
-5.546e-19
0.00108445
-4.21502e-19
-3.50254e-19
0.00108445
-6.76106e-19
-1.69688e-20
-6.58998e-19
-1.72027e-20
0.00106437
-5.66237e-19
1.30032e-21
-5.64141e-19
-1.07258e-20
0.00104447
-5.06306e-19
1.33435e-20
-3.01084e-19
8.82007e-21
0.00102476
-4.133e-19
2.08628e-20
-4.78199e-19
9.35542e-21
0.00100526
-3.51945e-19
3.2838e-20
-4.01053e-19
1.69882e-20
0.00098598
-4.30483e-19
-1.73664e-21
-4.08475e-19
2.42595e-20
0.000966931
-4.35254e-19
-6.50167e-21
-4.66336e-19
1.59491e-21
0.000948121
-3.36354e-19
3.17631e-21
-4.26278e-19
-5.8467e-21
0.000929561
-3.835e-19
4.66464e-21
-5.25685e-19
-4.7086e-21
0.000911255
-4.93395e-19
-3.95389e-21
-3.77986e-19
1.48103e-20
0.000893211
-4.16152e-19
1.04029e-20
-3.97691e-19
8.43993e-21
0.000875433
-5.03386e-19
1.2382e-21
-4.13634e-19
2.74598e-21
0.000857924
-4.70142e-19
6.03168e-21
-4.42336e-19
3.93443e-21
0.000840687
-4.93694e-19
2.66316e-21
-4.52441e-19
5.33344e-21
0.000823725
-4.20865e-19
4.35667e-22
-4.77528e-19
2.62674e-21
0.000807038
-4.33407e-19
-4.44174e-21
-4.49713e-19
8.833e-22
0.000790628
-4.21219e-19
-7.94951e-21
-4.48858e-19
-6.06472e-22
0.000774494
-4.04419e-19
-8.66291e-21
-4.05895e-19
6.89305e-21
0.000758635
-3.7038e-19
-2.05818e-21
-4.05645e-19
1.16225e-20
0.00074305
-3.31096e-19
5.57061e-21
-3.86289e-19
1.7189e-20
0.000727739
-3.2703e-19
1.25165e-20
-3.81081e-19
1.54564e-20
0.0007127
-2.8484e-19
4.44955e-21
-2.44135e-19
2.29549e-20
0.00069793
-3.53482e-19
-1.06237e-22
-2.45382e-19
1.71424e-20
0.000683427
-3.49826e-19
1.88674e-21
-3.14613e-19
1.07084e-20
0.000669188
-2.87241e-19
1.72515e-21
-2.97821e-19
8.78036e-21
0.000655212
-3.67626e-19
-1.35355e-21
-3.49096e-19
4.59298e-21
0.000641495
-3.25783e-19
7.04928e-22
-3.8819e-19
3.52013e-21
0.000628034
-3.43981e-19
-3.06367e-21
-3.70975e-19
3.16244e-21
0.000614825
-3.97474e-19
-5.86319e-21
-4.25757e-19
-9.93454e-22
0.000601867
-4.50405e-19
-7.92396e-21
-4.18425e-19
-9.20575e-22
0.000589154
-4.41042e-19
-5.78907e-21
-4.36339e-19
-3.03998e-22
0.000576685
-4.44117e-19
8.60137e-22
-3.6068e-19
8.24691e-21
0.000564455
-3.99278e-19
3.73517e-21
-4.79657e-19
9.73337e-21
0.000552461
-4.59508e-19
-2.10195e-21
-4.51012e-19
9.73984e-21
0.000540699
-4.54462e-19
-3.94397e-21
-5.12885e-19
3.40474e-21
0.000529166
-4.74588e-19
-7.7058e-21
-4.71633e-19
-4.32659e-22
0.000517858
-4.58285e-19
-1.06897e-20
-4.88962e-19
-4.66043e-21
0.000506772
-4.20314e-19
-9.6948e-21
-5.02986e-19
-4.69679e-21
0.000495904
-4.02898e-19
-7.20244e-21
-4.99745e-19
-4.70405e-21
0.00048525
-4.39187e-19
-5.5144e-21
-3.83517e-19
-4.84717e-21
0.000474807
-4.31737e-19
-3.14864e-21
-4.0179e-19
-5.23362e-21
0.000464571
-4.15663e-19
-4.30779e-23
-4.2524e-19
-4.39664e-21
0.000454539
-3.79212e-19
4.14617e-22
-3.64981e-19
-3.96565e-21
0.000444707
-3.17422e-19
6.5172e-22
-4.50581e-19
-3.42236e-21
0.000435072
-3.10567e-19
-3.322e-22
-3.55513e-19
1.6341e-21
0.00042563
-3.12775e-19
-5.19624e-22
-3.42278e-19
2.14879e-21
0.000416377
-2.42955e-19
-8.51637e-22
-3.31881e-19
1.1044e-21
0.000407311
-3.33762e-19
-2.46646e-21
-2.67286e-19
1.84742e-21
0.000398428
-2.8543e-19
-1.00642e-21
-2.64649e-19
-9.50757e-22
0.000389724
-2.76934e-19
-1.63757e-21
-2.56732e-19
-4.30839e-21
0.000381197
-2.63867e-19
-1.00868e-21
-2.90431e-19
-4.44665e-21
0.000372843
-2.65694e-19
-4.36363e-22
-2.77476e-19
-3.99642e-21
0.000364658
-2.41588e-19
-1.05655e-22
-2.57169e-19
-3.22596e-21
0.00035664
-2.09629e-19
5.26086e-22
-3.03237e-19
-2.96124e-21
0.000348786
-2.04784e-19
-2.50047e-22
-2.57634e-19
-2.14609e-21
0.000341092
-2.05612e-19
5.99635e-23
-3.35218e-19
-1.72653e-21
0.000333556
-1.83034e-19
5.98043e-22
-2.12845e-19
-5.38131e-23
0.000326173
-1.16153e-19
1.04792e-21
-1.81061e-19
-9.59441e-22
0.000318943
-1.12841e-19
9.53762e-22
-1.05949e-19
-1.19839e-21
0.00031186
-1.72092e-19
-2.10896e-22
-1.57951e-19
-2.02434e-21
0.000304923
-1.7855e-19
-4.36726e-22
-1.43994e-19
-1.61158e-21
0.000298129
-1.98038e-19
-9.35649e-22
-1.8201e-19
-1.30654e-21
0.000291475
-1.83233e-19
-6.63785e-22
-1.72884e-19
-9.40281e-23
0.000284959
-1.81407e-19
-8.76811e-22
-1.1477e-19
3.22004e-22
0.000278577
-1.43378e-19
-2.21973e-22
-1.40877e-19
-3.66757e-22
0.000272326
-1.47201e-19
1.8315e-22
-8.37737e-20
-1.46424e-22
0.000266205
-1.53152e-19
3.77423e-22
-6.1963e-20
-7.93445e-22
0.000260211
-1.05096e-19