/*--------------------------------*- C++ -*----------------------------------*\
| =========                 |                                                 |
| \\      /  F ield         | OpenFOAM: The Open Source CFD Toolbox           |
|  \\    /   O peration     | Version:  2106                                  |
|   \\  /    A nd           | Website:  www.openfoam.com                      |
|    \\/     M anipulation  |                                                 |
\*---------------------------------------------------------------------------*/
FoamFile
{
    version     2.0;
    format      ascii;
    arch        "LSB;label=32;scalar=64";
    class       surfaceScalarField;
    location    "10010";
    object      phi;
}
// * * * * * * * * * * * * * * * * * * * * * * * * * * * * * * * * * * * * * //

dimensions      [0 3 -1 0 0 0 0];

oriented        oriented;

internalField   nonuniform List<scalar> 
1596
(
7.04068e-08
-3.13299e-18
-4.80656e-22
-1.06051e-21
1.0182e-23
2.24721e-07
-3.1253e-18
-2.6421e-21
-5.85348e-21
-2.47035e-22
4.01021e-07
-3.11695e-18
-2.86575e-21
-1.11066e-20
-2.83353e-22
6.0177e-07
-3.1079e-18
-3.10969e-21
-1.67748e-20
-3.24192e-22
8.29684e-07
-3.09828e-18
-3.34378e-21
-2.27105e-20
-3.69933e-22
1.08776e-06
-3.08764e-18
-3.56138e-21
-2.92144e-20
-4.20981e-22
1.37929e-06
-3.0764e-18
-3.77475e-21
-3.59641e-20
-4.77701e-22
1.70791e-06
-3.06477e-18
-3.98913e-21
-4.30655e-20
-5.40494e-22
2.07764e-06
-3.05288e-18
-4.20479e-21
-4.96957e-20
-6.09657e-22
2.49287e-06
-3.04128e-18
-4.42057e-21
-5.73106e-20
-6.85449e-22
2.95847e-06
-3.02909e-18
-4.6348e-21
-6.42867e-20
-7.67998e-22
3.47977e-06
-3.01507e-18
-4.84539e-21
-7.25451e-20
-8.57721e-22
4.06263e-06
-3.00051e-18
-5.05022e-21
-8.10106e-20
-9.54036e-22
4.7135e-06
-2.98637e-18
-5.24653e-21
-8.94587e-20
-1.05631e-21
5.43945e-06
-2.97046e-18
-5.43118e-21
-9.89323e-20
-1.16415e-21
6.24824e-06
-2.95358e-18
-5.60148e-21
-1.07142e-19
-1.27556e-21
7.14832e-06
-2.93679e-18
-5.75454e-21
-1.17442e-19
-1.38916e-21
8.14894e-06
-2.92177e-18
-5.88684e-21
-1.26149e-19
-1.50113e-21
9.26015e-06
-2.90435e-18
-5.99407e-21
-1.33017e-19
-1.60923e-21
1.04928e-05
-2.88397e-18
-6.07241e-21
-1.44842e-19
-1.70972e-21
1.18585e-05
-2.86695e-18
-6.12016e-21
-1.56005e-19
-1.79542e-21
1.33698e-05
-2.85103e-18
-6.13191e-21
-1.63345e-19
-1.86099e-21
1.50398e-05
-2.83581e-18
-6.10294e-21
-1.71822e-19
-1.89846e-21
1.6882e-05
-2.81825e-18
-6.02952e-21
-1.86827e-19
-1.89634e-21
1.89104e-05
-2.8017e-18
-5.91176e-21
-1.90039e-19
-1.83959e-21
2.1139e-05
-2.78473e-18
-5.74629e-21
-1.95256e-19
-1.72834e-21
2.35813e-05
-2.77164e-18
-5.53109e-21
-2.00011e-19
-1.55293e-21
2.62503e-05
-2.7514e-18
-5.27337e-21
-2.0618e-19
-1.30105e-21
2.91579e-05
-2.73141e-18
-4.97513e-21
-2.20353e-19
-9.69482e-22
3.23146e-05
-2.7149e-18
-4.63232e-21
-2.27505e-19
-5.42148e-22
3.57297e-05
-2.70037e-18
-4.26858e-21
-2.40029e-19
-2.05038e-23
3.94111e-05
-2.69077e-18
-3.88571e-21
-2.49127e-19
5.90755e-22
4.33659e-05
-2.67147e-18
-3.50408e-21
-2.67255e-19
1.28776e-21
4.76004e-05
-2.65349e-18
-3.1387e-21
-2.75683e-19
2.03943e-21
5.21208e-05
-2.6315e-18
-2.82927e-21
-2.94283e-19
2.83112e-21
5.69339e-05
-2.61497e-18
-2.59895e-21
-2.99715e-19
3.66748e-21
6.20472e-05
-2.59403e-18
-2.44242e-21
-3.28957e-19
4.50525e-21
6.74693e-05
-2.57243e-18
-2.34166e-21
-3.58859e-19
5.33768e-21
7.32104e-05
-2.54162e-18
-2.33976e-21
-4.07266e-19
6.1793e-21
7.92821e-05
-2.51067e-18
-2.49588e-21
-4.54915e-19
7.07988e-21
8.56977e-05
-2.50333e-18
-2.8168e-21
-4.7945e-19
7.99932e-21
9.24721e-05
-2.4659e-18
-3.21875e-21
-5.05413e-19
8.88915e-21
9.96218e-05
-2.45258e-18
-3.8445e-21
-5.38617e-19
9.62295e-21
0.000107165
-2.42021e-18
-4.50601e-21
-5.73771e-19
1.02036e-20
0.000115121
-2.39461e-18
-5.33536e-21
-6.17452e-19
1.06611e-20
0.000123512
-2.34946e-18
-6.06952e-21
-6.56618e-19
1.09772e-20
0.000132359
-2.31167e-18
-6.84456e-21
-7.2053e-19
1.09002e-20
0.000141688
-2.26769e-18
-7.67813e-21
-8.15206e-19
1.0674e-20
0.000151523
-2.23989e-18
-8.73072e-21
-8.56201e-19
1.07241e-20
0.000161893
-2.23247e-18
-9.58528e-21
-8.79584e-19
1.0529e-20
0.000172825
-2.19923e-18
-1.0055e-20
-9.4539e-19
9.80023e-21
0.00018435
-2.11371e-18
-1.01829e-20
-9.97549e-19
9.24279e-21
0.000196501
-2.04123e-18
-1.05779e-20
-1.04577e-18
8.84666e-21
0.000209311
-1.99754e-18
-1.12609e-20
-1.09674e-18
8.28847e-21
0.000222815
-1.91626e-18
-1.16397e-20
-1.11396e-18
7.87088e-21
0.000237051
-1.86155e-18
-1.18206e-20
-1.15755e-18
7.0336e-21
0.000252058
-1.77315e-18
-1.23124e-20
-1.18073e-18
6.25251e-21
0.000267877
-1.7766e-18
-1.43891e-20
-1.15888e-18
5.5761e-21
0.000284552
-1.76845e-18
-1.69078e-20
-1.09242e-18
3.6855e-21
0.000302128
-1.67274e-18
-1.89794e-20
-1.16729e-18
-8.74387e-22
0.000320653
-1.64426e-18
-2.19751e-20
-1.15774e-18
-3.4455e-21
0.000340176
-1.6571e-18
-2.36359e-20
-1.12915e-18
-6.2513e-21
0.000360751
-1.53725e-18
-2.53038e-20
-1.16913e-18
-9.94013e-21
0.000382433
-1.57054e-18
-2.80462e-20
-1.06748e-18
-1.3274e-20
0.000405279
-1.46383e-18
-2.79087e-20
-1.12148e-18
-1.87656e-20
0.000429351
-1.39927e-18
-2.95837e-20
-1.08002e-18
-2.33109e-20
0.000454711
-1.35924e-18
-3.24438e-20
-1.08072e-18
-2.75221e-20
0.000481427
-1.26546e-18
-3.00001e-20
-1.17627e-18
-3.07603e-20
0.000509568
-1.13828e-18
-2.98685e-20
-1.10974e-18
-3.09749e-20
0.000539208
-1.11324e-18
-3.24349e-20
-1.12165e-18
-3.09494e-20
0.000570422
-1.05729e-18
-3.53808e-20
-1.14327e-18
-3.2169e-20
0.000603292
-1.13747e-18
-3.5329e-20
-1.21519e-18
-3.29258e-20
0.000637901
-1.17708e-18
-3.79059e-20
-1.16647e-18
-3.10946e-20
0.000674336
-1.2457e-18
-4.4892e-20
-1.17943e-18
-3.79419e-20
0.00071269
-1.18533e-18
-4.71133e-20
-1.13648e-18
-4.5495e-20
0.000753057
-1.27119e-18
-4.64546e-20
-1.22442e-18
-4.73701e-20
0.000795538
-1.28765e-18
-4.04198e-20
-1.28728e-18
-4.1667e-20
0.000840235
-1.22739e-18
-2.62299e-20
-1.32019e-18
-4.26911e-20
0.000887258
-1.21359e-18
-3.39335e-23
-1.19044e-18
-5.24371e-20
0.000936718
-1.14291e-18
3.68473e-21
-1.08645e-18
-3.86885e-20
0.000988733
-9.55759e-19
7.26908e-21
-9.77717e-19
-2.51757e-20
0.00104342
-9.46668e-19
2.38608e-20
-9.2658e-19
-6.70918e-21
0.00110091
-1.07174e-18
2.41892e-21
-7.37711e-19
2.34503e-21
0.00116133
-9.64914e-19
1.88597e-20
-1.02199e-18
-1.47082e-20
0.00122481
-6.32211e-19
1.4978e-20
-1.13919e-18
8.05263e-21
0.00129149
-8.24051e-19
-2.89382e-20
-7.7795e-19
3.53473e-20
0.0013615
-8.15389e-19
-2.43969e-20
-7.2695e-19
2.51368e-20
0.00143498
-6.7456e-19
-5.95036e-21
-7.61682e-19
1.22452e-20
0.00151207
-8.06145e-19
-3.76139e-20
-6.90416e-19
-4.29266e-21
0.00159291
-7.68428e-19
-7.23299e-21
-6.1786e-19
-4.66724e-21
0.00167764
-7.61448e-19
2.15671e-20
-1.06037e-18
-6.59269e-21
0.00176637
-7.62173e-19
3.46443e-20
-7.60366e-19
7.53265e-20
0.00185923
-5.32956e-19
-1.20023e-20
-5.57746e-19
6.48691e-20
0.00195629
-6.82202e-19
-5.86427e-20
-6.18552e-19
1.08247e-21
0.00205764
-7.12824e-19
-1.00841e-20
-6.95738e-19
-1.04836e-20
0.0021633
-7.71662e-19
3.61626e-20
-7.52478e-19
3.82364e-20
0.00227324
-5.68332e-19
1.33477e-19
-6.21897e-19
6.42137e-20
0.00238736
-7.56877e-19
1.07557e-19
-6.55215e-19
8.73322e-20
0.00250547
-4.11985e-19
1.38376e-19
-5.06432e-19
1.16903e-19
0.00262728
1.14218e-19
-2.71491e-19
1.64672e-19
-4.52594e-20
7.04068e-08
-4.4277e-22
-3.09015e-23
2.24721e-07
-2.77595e-21
-5.60425e-22
4.01021e-07
-5.3375e-21
-1.16965e-21
6.0177e-07
-7.9905e-21
-1.91962e-21
8.29684e-07
-1.08584e-20
-2.74938e-21
1.08776e-06
-1.41859e-20
-3.49184e-21
1.37929e-06
-1.76819e-20
-4.27346e-21
1.70791e-06
-2.12389e-20
-5.16566e-21
2.07764e-06
-2.45237e-20
-5.77777e-21
2.49287e-06
-2.85053e-20
-6.85956e-21
2.95847e-06
-3.25228e-20
-8.77987e-21
3.47977e-06
-3.68421e-20
-1.0057e-20
4.06263e-06
-4.11129e-20
-1.0672e-20
4.7135e-06
-4.57942e-20
-1.31814e-20
5.43945e-06
-5.05053e-20
-1.52546e-20
6.24824e-06
-5.51956e-20
-1.76309e-20
7.14832e-06
-5.99784e-20
-1.94053e-20
8.14894e-06
-6.55885e-20
-2.30364e-20
9.26015e-06
-6.94578e-20
-2.52139e-20
1.04928e-05
-7.4425e-20
-2.94199e-20
1.18585e-05
-7.95518e-20
-3.54741e-20
1.33698e-05
-8.41619e-20
-3.86111e-20
1.50398e-05
-8.89882e-20
-4.06289e-20
1.6882e-05
-9.57298e-20
-4.02497e-20
1.89104e-05
-1.00081e-19
-4.25054e-20
2.1139e-05
-1.0143e-19
-4.74539e-20
2.35813e-05
-1.11422e-19
-4.56087e-20
2.62503e-05
-1.11232e-19
-5.06056e-20
2.91579e-05
-1.04817e-19
-5.29622e-20
3.23146e-05
-1.14176e-19
-4.64245e-20
3.57297e-05
-1.15394e-19
-5.1032e-20
3.94111e-05
-1.27103e-19
-4.91297e-20
4.33659e-05
-1.24858e-19
-5.94917e-20
4.76004e-05
-1.30878e-19
-5.95776e-20
5.21208e-05
-1.34151e-19
-6.01724e-20
5.69339e-05
-1.30033e-19
-5.51776e-20
6.20472e-05
-1.08688e-19
-6.35778e-20
6.74693e-05
-1.0223e-19
-6.04118e-20
7.32104e-05
-1.00227e-19
-5.55489e-20
7.92821e-05
-9.59459e-20
-4.99321e-20
8.56977e-05
-8.93722e-20
-2.15731e-20
9.24721e-05
-8.93766e-20
-2.02511e-20
9.96218e-05
-8.18704e-20
-1.1481e-20
0.000107165
-9.67796e-20
7.3453e-21
0.000115121
-6.66161e-20
2.20547e-20
0.000123512
-4.48143e-20
4.62085e-21
0.000132359
-3.20601e-20
-1.61006e-21
0.000141688
-3.85424e-20
1.07715e-20
0.000151523
-4.2705e-21
7.89507e-21
0.000161893
6.48559e-21
1.52941e-20
0.000172825
7.88625e-21
2.99495e-20
0.00018435
1.8317e-21
3.14584e-20
0.000196501
-1.04967e-20
3.87155e-20
0.000209311
-1.38615e-20
4.11935e-20
0.000222815
1.30657e-20
2.46549e-20
0.000237051
1.07663e-20
3.3141e-20
0.000252058
-3.2384e-21
3.24299e-20
0.000267877
-2.34778e-20
9.96212e-21
0.000284552
-8.12714e-21
-1.81814e-20
0.000302128
-4.71336e-21
4.12073e-20
0.000320653
4.8668e-21
2.96802e-20
0.000340176
-1.0724e-19
-1.4674e-20
0.000360751
-1.28151e-19
-7.53561e-20
0.000382433
-1.64569e-19
-6.5112e-20
0.000405279
-1.83992e-19
-9.68205e-20
0.000429351
-2.05916e-19
-1.0155e-19
0.000454711
-1.01737e-19
-8.84167e-20
0.000481427
-1.41066e-19
-1.15104e-19
0.000509568
-1.24993e-19
-9.81173e-20
0.000539208
-1.45935e-19
-1.29634e-19
0.000570422
-6.56993e-20
-1.27728e-19
0.000603292
-1.71616e-19
-1.6537e-19
0.000637901
-2.52897e-19
-2.3093e-19
0.000674336
-2.9021e-19
-2.84268e-19
0.00071269
-2.74141e-19
-2.88643e-19
0.000753057
-3.4221e-19
-3.24534e-19
0.000795538
-2.80896e-19
-3.69325e-19
0.000840235
-1.90518e-19
-5.27736e-19
0.000887258
-4.88815e-19
-3.8762e-19
0.000936718
-5.43696e-19
-4.27774e-19
0.000988733
-4.57957e-19
-4.46335e-19
0.00104342
-8.44261e-19
-6.63366e-19
0.00110091
-8.11672e-19
-7.02253e-19
0.00116133
-7.9895e-19
-6.91728e-19
0.00122481
-5.91833e-19
-7.1845e-19
0.00129149
-6.315e-19
-6.34293e-19
0.0013615
-6.60541e-19
-6.86533e-19
0.00143498
-6.9706e-19
-7.24565e-19
0.00151207
-6.52042e-19
-6.64481e-19
0.00159291
-6.02772e-19
-5.7366e-19
0.00167764
-5.41654e-19
-6.87801e-19
0.00176637
-7.16817e-19
-6.24261e-19
0.00185923
-6.48771e-19
-6.49589e-19
0.00195629
-6.93485e-19
-7.16742e-19
0.00205764
-6.89174e-19
-6.827e-19
0.0021633
-6.19728e-19
-7.14618e-19
0.00227324
-6.18024e-19
-5.88377e-19
0.00238736
-7.41279e-19
-6.43648e-19
0.00250547
-4.80682e-19
-5.00403e-19
0.00262728
-2.52219e-19
-2.32826e-19
0.00262728
1.25863e-19
1.87721e-19
2.55189e-20
9.26432e-20
0.00250547
9.75254e-20
8.8684e-21
7.06055e-20
1.64302e-20
0.00238736
1.0268e-19
7.31669e-20
1.34682e-19
-1.46873e-20
0.00227324
-5.19574e-20
5.52602e-20
-3.00207e-20
-8.93108e-20
0.0021633
-2.45569e-19
9.60849e-20
-1.97924e-19
6.20481e-21
0.00205764
-1.64414e-19
1.89792e-19
-2.2297e-19
-2.37437e-21
0.00195629
-2.96325e-19
6.97151e-20
-2.35821e-19
1.21e-20
0.00185923
-6.28719e-20
8.06005e-20
-3.05332e-19
-7.38818e-20
0.00176637
-4.16292e-19
-7.1347e-20
-3.43027e-19
-4.1598e-20
0.00167764
-4.09723e-19
-9.04167e-20
-3.52069e-19
2.52491e-20
0.00159291
-3.79664e-19
-4.78239e-20
-3.13015e-19
-1.29401e-20
0.00151207
-2.57672e-19
-1.55834e-20
-2.63901e-19
-3.18154e-20
0.00143498
-2.29484e-19
-1.19747e-20
-3.45205e-19
-3.81443e-20
0.0013615
-2.39922e-19
1.49081e-20
-1.96879e-19
-3.73908e-20
0.00129149
-1.13837e-19
-3.16835e-20
-3.67626e-19
-4.29081e-20
0.00122481
-4.61217e-19
-9.3353e-20
-4.40056e-19
-3.81351e-20
0.00116133
-4.9929e-19
-6.46221e-20
-2.96417e-19
-2.72796e-20
0.00110091
-4.12265e-19
-3.75929e-20
-3.31576e-19
-2.57707e-20
0.00104342
-2.55993e-19
-5.99361e-21
1.4037e-20
-8.01967e-21
0.000988733
-1.43157e-19
7.55969e-22
-2.54095e-19
-3.68219e-20
0.000936718
-2.41252e-19
-3.479e-21
-1.65058e-19
-3.18722e-20
0.000887258
-3.0137e-19
8.12497e-21
-2.67371e-19
-3.80909e-20
0.000840235
-1.1843e-19
-2.33289e-21
-3.80011e-19
-4.4396e-21
0.000795538
-1.36793e-19
-3.6159e-21
-1.82512e-19
1.1908e-20
0.000753057
-1.00672e-19
-4.21393e-21
-1.33971e-19
1.18775e-20
0.00071269
-1.50034e-19
-2.66093e-21
-1.69726e-19
1.01154e-20
0.000674336
-1.84394e-19
-1.20465e-21
-1.33115e-19
6.27847e-21
0.000637901
-2.55e-19
1.08035e-21
-1.64582e-19
1.89882e-21
0.000603292
-2.60001e-19
3.03887e-21
-2.25481e-19
3.29505e-21
0.000570422
-1.86191e-19
8.72028e-21
-2.08934e-19
4.86136e-21
0.000539208
-1.85736e-19
5.16244e-21
-2.36942e-19
1.16677e-21
0.000509568
-2.09459e-19
1.44514e-21
-2.29724e-19
-6.87175e-22
0.000481427
-2.48795e-19
1.42115e-21
-2.17586e-19
-1.08553e-21
0.000454711
-2.64193e-19
-2.24184e-22
-1.97169e-19
1.72516e-21
0.000429351
-1.60217e-19
1.34964e-21
-2.1466e-19
2.99047e-21
0.000405279
-1.88244e-19
-9.00812e-22
-2.37329e-19
4.34554e-21
0.000382433
-1.2595e-19
-3.65184e-21
-1.88015e-19
6.0378e-21
0.000360751
-1.6447e-19
-5.20758e-21
-1.29439e-19
5.92762e-21
0.000340176
-1.349e-19
-3.80697e-21
-1.46086e-19
4.76216e-21
0.000320653
-1.68603e-19
-2.30016e-21
-1.14025e-19
3.12419e-21
0.000302128
-1.17284e-19
5.6957e-22
-1.29495e-19
2.07078e-21
0.000284552
-1.17513e-19
1.23187e-21
-1.23332e-19
1.60569e-21
0.000267877
-1.07295e-19
1.44424e-21
-9.51512e-20
1.26995e-21
0.000252058
-9.52533e-20
1.66639e-21
-9.70691e-20
7.586e-22
0.000237051
-7.52171e-20
1.91843e-21
-1.02622e-19
8.52659e-23
0.000222815
-7.69814e-20
2.04312e-21
-9.95435e-20
2.98502e-23
0.000209311
-1.18569e-19
1.65749e-21
-3.50152e-20
2.23758e-22
0.000196501
-1.19609e-19
2.02883e-21
-3.64479e-20
-4.84419e-22
0.00018435
-6.36255e-20
1.99727e-21
-2.18827e-20
-7.43809e-22
0.000172825
-3.76792e-20
1.94752e-21
-2.27754e-20
-1.2407e-21
0.000161893
-5.49161e-20
1.82396e-21
2.06858e-20
-1.79531e-21
0.000151523
-4.59693e-20
1.70949e-21
1.37595e-20
-2.25799e-21
0.000141688
-5.3556e-20
1.36806e-21
-5.09305e-21
-2.17439e-21
0.000132359
-2.26475e-20
1.13043e-21
-5.24342e-21
-1.94499e-21
0.000123512
-2.34441e-20
9.69134e-22
-1.4188e-20
-1.7956e-21
0.000115121
-1.34263e-20
7.67457e-22
-1.74513e-20
-1.60818e-21
0.000107165
-1.43822e-20
5.95244e-22
-7.94754e-21
-1.44515e-21
9.96218e-05
-1.98809e-20
4.15496e-22
-1.03719e-20
-1.30463e-21
9.24721e-05
-1.80961e-20
3.2875e-22
-4.67645e-21
-1.14817e-21
8.56977e-05
-9.44491e-21
2.60718e-22
-1.05397e-20
-1.08852e-21
7.92821e-05
-1.15198e-20
1.24233e-22
-5.84691e-21
-1.09005e-21
7.32104e-05
2.98177e-21
1.49048e-23
-2.23345e-20
-1.07368e-21
6.74693e-05
6.08649e-21
-1.19355e-22
-1.79162e-20
-9.91182e-22
6.20472e-05
-1.30719e-22
-1.95941e-22
-2.19906e-20
-9.12399e-22
5.69339e-05
-1.10633e-20
-2.47877e-22
-1.23427e-20
-8.35914e-22
5.21208e-05
-1.3185e-20
-2.70346e-22
-9.34362e-21
-8.12608e-22
4.76004e-05
-1.13954e-20
-3.0527e-22
-1.01258e-20
-7.78358e-22
4.33659e-05
-1.6935e-20
-3.30554e-22
-1.01103e-20
-7.41656e-22
3.94111e-05
-8.07033e-21
-3.34115e-22
-1.05667e-20
-7.11683e-22
3.57297e-05
-6.30145e-21
-3.28952e-22
-1.03283e-20
-6.80674e-22
3.23146e-05
-9.54121e-21
-3.16853e-22
-1.32782e-20
-6.51071e-22
2.91579e-05
-9.39634e-21
-2.94843e-22
-1.37549e-20
-6.02384e-22
2.62503e-05
-9.81588e-21
-2.64008e-22
-8.13658e-21
-5.4911e-22
2.35813e-05
-8.78305e-21
-2.32052e-22
-9.49122e-21
-5.00337e-22
2.1139e-05
-8.69559e-21
-2.08401e-22
-8.57931e-21
-4.48052e-22
1.89104e-05
-7.2054e-21
-1.88028e-22
-7.48271e-21
-3.98263e-22
1.6882e-05
-1.04789e-20
-1.67219e-22
-4.75394e-21
-3.54297e-22
1.50398e-05
-6.05509e-21
-1.45529e-22
-4.91099e-21
-3.12126e-22
1.33698e-05
-5.78066e-21
-1.2938e-22
-3.07996e-21
-2.71751e-22
1.18585e-05
-3.83503e-21
-1.13701e-22
-3.54113e-21
-2.37226e-22
1.04928e-05
-3.6599e-21
-1.00382e-22
-2.67827e-21
-2.06841e-22
9.26015e-06
-4.28731e-21
-8.90887e-23
-3.15878e-21
-1.79996e-22
8.14894e-06
-3.18303e-21
-7.87741e-23
-2.07615e-21
-1.55775e-22
7.14832e-06
-1.02743e-21
-6.94018e-23
-7.95414e-22
-1.34553e-22
6.24823e-06
-1.20821e-21
-6.15977e-23
-8.49752e-22
-1.1648e-22
5.43945e-06
-5.28375e-22
-5.43538e-23
-1.36616e-21
-1.00878e-22
4.7135e-06
-3.92527e-22
-4.77431e-23
-9.24699e-22
-8.74758e-23
4.06263e-06
-2.12711e-22
-4.19482e-23
-4.27411e-22
-7.58276e-23
3.47976e-06
-1.8016e-22
-3.6733e-23
-2.74536e-22
-6.58372e-23
2.95847e-06
-1.20059e-22
-3.20776e-23
-1.95369e-22
-5.72269e-23
2.49288e-06
-6.90007e-23
-2.81382e-23
-4.39843e-22
-4.97683e-23
2.07764e-06
-7.61724e-24
-2.44857e-23
-3.61538e-22
-4.32519e-23
1.70792e-06
1.74743e-22
-2.13488e-23
-2.09132e-22
-3.75849e-23
1.37929e-06
2.40581e-22
-1.86468e-23
-1.77629e-22
-3.27217e-23
1.08776e-06
2.26002e-23
-1.62627e-23
-1.48584e-22
-2.84727e-23
8.29683e-07
-1.19002e-22
-1.41831e-23
-5.59577e-23
-2.47443e-23
6.01771e-07
-4.79661e-23
-1.2337e-23
-1.0499e-24
-2.15025e-23
4.01021e-07
-2.57115e-23
-1.07284e-23
-2.65333e-26
-1.86966e-23
2.2472e-07
5.53029e-24
-9.32973e-24
-4.25391e-24
-1.62654e-23
7.04069e-08
-2.36048e-24
-4.21073e-24
0.00262728
-1.74569e-19
-1.47172e-19
0.00250547
1.19704e-19
-4.33311e-20
0.00238736
6.6084e-20
-3.89149e-20
0.00227324
7.33971e-20
1.76786e-19
0.0021633
1.33009e-20
-1.28766e-19
0.00205764
-2.60429e-19
-7.3887e-20
0.00195629
-9.50664e-20
-2.50315e-19
0.00185923
-3.21744e-19
-1.30343e-19
0.00176637
-4.55613e-19
-1.44832e-19
0.00167764
-2.82498e-19
-4.40802e-19
0.00159291
-2.96535e-19
-3.8658e-19
0.00151207
-3.28151e-19
-4.15987e-19
0.00143498
-2.18551e-19
-4.95375e-19
0.0013615
-4.68411e-19
-2.57779e-19
0.00129149
-3.78986e-19
-2.80432e-19
0.00122481
-3.39159e-19
-3.52916e-19
0.00116133
-4.4612e-19
-4.10072e-19
0.00110091
-3.34946e-19
-3.98799e-19
0.00104342
-3.12189e-19
-2.72576e-19
0.000988733
-2.96616e-19
-3.00702e-19
0.000936718
-2.80959e-19
-3.8288e-19
0.000887258
-5.18955e-19
-1.77364e-19
0.000840235
-2.87866e-19
-3.54856e-19
0.000795538
-2.90542e-19
-2.8325e-19
0.000753057
-1.75277e-19
-2.39726e-19
0.00071269
-1.9198e-19
-2.69304e-19
0.000674336
-2.02257e-19
-2.61678e-19
0.000637901
-2.53873e-19
-2.06087e-19
0.000603292
-1.44948e-19
-2.02861e-19
0.000570422
-1.85696e-19
-2.31607e-19
0.000539208
-1.72705e-19
-2.21691e-19
0.000509568
-1.2976e-19
-1.96518e-19
0.000481427
-2.3292e-19
-1.17958e-19
0.000454711
-1.70042e-19
-1.31936e-19
0.000429351
-1.66243e-19
-1.22897e-19
0.000405279
-2.32273e-19
-1.07498e-19
0.000382433
-1.77909e-19
-1.54546e-19
0.000360751
-1.37584e-19
-1.97438e-19
0.000340176
-9.67745e-20
-2.33391e-19
0.000320653
-5.29755e-20
-1.48341e-19
0.000302128
-9.63034e-20
-1.2812e-19
0.000284552
-1.01741e-19
-1.31298e-19
0.000267877
-7.34229e-20
-1.12155e-19
0.000252058
-5.4562e-20
-1.25539e-19
0.000237051
-5.21467e-20
-1.24688e-19
0.000222815
-1.16949e-19
-9.93077e-20
0.000209311
-1.10039e-19
-9.91242e-20
0.000196501
-1.41455e-19
-8.01131e-20
0.00018435
-7.20926e-20
-8.68695e-20
0.000172825
-4.95159e-20
-9.91045e-20
0.000161893
-6.73187e-20
-8.21302e-20
0.000151523
-8.95089e-20
-4.6023e-20
0.000141688
-8.08719e-20
-5.60904e-20
0.000132359
-3.72297e-20
-5.67619e-20
0.000123512
-5.08112e-20
-4.23326e-20
0.000115121
-3.60762e-20
-3.72431e-20
0.000107165
-3.46469e-20
-2.36191e-20
9.96218e-05
-2.18864e-20
-2.51252e-20
9.24721e-05
-1.81455e-20
-3.96001e-20
8.56977e-05
-2.78112e-20
-5.74889e-20
7.92821e-05
-2.25677e-20
-4.26282e-20
7.32104e-05
-2.28615e-20
-2.64354e-20
6.74693e-05
-4.47031e-21
-1.82279e-20
6.20472e-05
-3.28916e-21
-1.39465e-20
5.69339e-05
-3.74107e-21
-1.7584e-20
5.21208e-05
-1.53857e-20
-9.22438e-21
4.76004e-05
-1.54643e-20
-9.28008e-21
4.33659e-05
-1.82826e-20
-1.14743e-20
3.94111e-05
-1.18339e-20
-9.6535e-21
3.57297e-05
-1.12651e-20
-1.14004e-20
3.23146e-05
-1.18082e-20
-6.14463e-21
2.91579e-05
-6.58945e-21
-6.41714e-21
2.62503e-05
-4.22744e-21
-5.01262e-21
2.35813e-05
-7.3595e-21
-4.72336e-21
2.1139e-05
-7.81049e-21
-4.75958e-21
1.89104e-05
-3.66368e-21
-4.54229e-21
1.6882e-05
-1.51096e-21
-7.19421e-22
1.50398e-05
-1.16554e-21
-1.23716e-21
1.33698e-05
1.20416e-21
-3.7023e-21
1.18585e-05
1.48293e-21
-4.78744e-21
1.04928e-05
2.11367e-22
-3.75358e-21
9.26015e-06
-7.98122e-22
-2.6528e-21
8.14894e-06
-1.06824e-21
-1.48371e-21
7.14832e-06
-1.86491e-21
-4.17076e-22
6.24823e-06
-1.53611e-21
-1.74412e-22
5.43945e-06
-2.35764e-22
-1.10566e-21
4.7135e-06
-5.52692e-22
1.99876e-23
4.06263e-06
-4.2697e-22
3.04059e-22
3.47976e-06
-2.87034e-22
2.34453e-22
2.95847e-06
-9.78864e-22
4.86543e-22
2.49288e-06
1.64076e-22
3.47101e-22
2.07764e-06
7.529e-23
3.36915e-22
1.70792e-06
8.67047e-23
1.37645e-22
1.37929e-06
1.96015e-22
2.09942e-22
1.08776e-06
-1.40854e-22
3.0947e-22
8.29683e-07
-7.96467e-23
3.00788e-22
6.01771e-07
-4.60752e-23
1.91736e-22
4.01021e-07
-2.81846e-23
5.66074e-23
2.2472e-07
-8.86681e-24
1.10638e-23
7.04069e-08
)
;

boundaryField
{
    walls
    {
        type            calculated;
        value           uniform 0;
    }
    inlet
    {
        type            cyclic;
        value           nonuniform List<scalar> 
400
(
-7.04068e-08
-2.24721e-07
-4.01021e-07
-6.0177e-07
-8.29684e-07
-1.08776e-06
-1.37929e-06
-1.70791e-06
-2.07764e-06
-2.49287e-06
-2.95847e-06
-3.47977e-06
-4.06263e-06
-4.7135e-06
-5.43945e-06
-6.24824e-06
-7.14832e-06
-8.14894e-06
-9.26015e-06
-1.04928e-05
-1.18585e-05
-1.33698e-05
-1.50398e-05
-1.6882e-05
-1.89104e-05
-2.1139e-05
-2.35813e-05
-2.62503e-05
-2.91579e-05
-3.23146e-05
-3.57297e-05
-3.94111e-05
-4.33659e-05
-4.76004e-05
-5.21208e-05
-5.69339e-05
-6.20472e-05
-6.74693e-05
-7.32104e-05
-7.92821e-05
-8.56977e-05
-9.24721e-05
-9.96218e-05
-0.000107165
-0.000115121
-0.000123512
-0.000132359
-0.000141688
-0.000151523
-0.000161893
-0.000172825
-0.00018435
-0.000196501
-0.000209311
-0.000222815
-0.000237051
-0.000252058
-0.000267877
-0.000284552
-0.000302128
-0.000320653
-0.000340176
-0.000360751
-0.000382433
-0.000405279
-0.000429351
-0.000454711
-0.000481427
-0.000509568
-0.000539208
-0.000570422
-0.000603292
-0.000637901
-0.000674336
-0.00071269
-0.000753057
-0.000795538
-0.000840235
-0.000887258
-0.000936718
-0.000988733
-0.00104342
-0.00110091
-0.00116133
-0.00122481
-0.00129149
-0.0013615
-0.00143498
-0.00151207
-0.00159291
-0.00167764
-0.00176637
-0.00185923
-0.00195629
-0.00205764
-0.0021633
-0.00227324
-0.00238736
-0.00250547
-0.00262728
-7.04068e-08
-2.24721e-07
-4.01021e-07
-6.0177e-07
-8.29684e-07
-1.08776e-06
-1.37929e-06
-1.70791e-06
-2.07764e-06
-2.49287e-06
-2.95847e-06
-3.47977e-06
-4.06263e-06
-4.7135e-06
-5.43945e-06
-6.24824e-06
-7.14832e-06
-8.14894e-06
-9.26015e-06
-1.04928e-05
-1.18585e-05
-1.33698e-05
-1.50398e-05
-1.6882e-05
-1.89104e-05
-2.1139e-05
-2.35813e-05
-2.62503e-05
-2.91579e-05
-3.23146e-05
-3.57297e-05
-3.94111e-05
-4.33659e-05
-4.76004e-05
-5.21208e-05
-5.69339e-05
-6.20472e-05
-6.74693e-05
-7.32104e-05
-7.92821e-05
-8.56977e-05
-9.24721e-05
-9.96218e-05
-0.000107165
-0.000115121
-0.000123512
-0.000132359
-0.000141688
-0.000151523
-0.000161893
-0.000172825
-0.00018435
-0.000196501
-0.000209311
-0.000222815
-0.000237051
-0.000252058
-0.000267877
-0.000284552
-0.000302128
-0.000320653
-0.000340176
-0.000360751
-0.000382433
-0.000405279
-0.000429351
-0.000454711
-0.000481427
-0.000509568
-0.000539208
-0.000570422
-0.000603292
-0.000637901
-0.000674336
-0.00071269
-0.000753057
-0.000795538
-0.000840235
-0.000887258
-0.000936718
-0.000988733
-0.00104342
-0.00110091
-0.00116133
-0.00122481
-0.00129149
-0.0013615
-0.00143498
-0.00151207
-0.00159291
-0.00167764
-0.00176637
-0.00185923
-0.00195629
-0.00205764
-0.0021633
-0.00227324
-0.00238736
-0.00250547
-0.00262728
-0.00262728
-0.00250547
-0.00238736
-0.00227324
-0.0021633
-0.00205764
-0.00195629
-0.00185923
-0.00176637
-0.00167764
-0.00159291
-0.00151207
-0.00143498
-0.0013615
-0.00129149
-0.00122481
-0.00116133
-0.00110091
-0.00104342
-0.000988733
-0.000936718
-0.000887258
-0.000840235
-0.000795538
-0.000753057
-0.00071269
-0.000674336
-0.000637901
-0.000603292
-0.000570422
-0.000539208
-0.000509568
-0.000481427
-0.000454711
-0.000429351
-0.000405279
-0.000382433
-0.000360751
-0.000340176
-0.000320653
-0.000302128
-0.000284552
-0.000267877
-0.000252058
-0.000237051
-0.000222815
-0.000209311
-0.000196501
-0.00018435
-0.000172825
-0.000161893
-0.000151523
-0.000141688
-0.000132359
-0.000123512
-0.000115121
-0.000107165
-9.96218e-05
-9.24721e-05
-8.56977e-05
-7.92821e-05
-7.32104e-05
-6.74693e-05
-6.20472e-05
-5.69339e-05
-5.21208e-05
-4.76004e-05
-4.33659e-05
-3.94111e-05
-3.57297e-05
-3.23146e-05
-2.91579e-05
-2.62503e-05
-2.35813e-05
-2.1139e-05
-1.89104e-05
-1.6882e-05
-1.50398e-05
-1.33698e-05
-1.18585e-05
-1.04928e-05
-9.26015e-06
-8.14894e-06
-7.14832e-06
-6.24823e-06
-5.43945e-06
-4.7135e-06
-4.06263e-06
-3.47976e-06
-2.95847e-06
-2.49288e-06
-2.07764e-06
-1.70792e-06
-1.37929e-06
-1.08776e-06
-8.29683e-07
-6.01771e-07
-4.01021e-07
-2.2472e-07
-7.04069e-08
-0.00262728
-0.00250547
-0.00238736
-0.00227324
-0.0021633
-0.00205764
-0.00195629
-0.00185923
-0.00176637
-0.00167764
-0.00159291
-0.00151207
-0.00143498
-0.0013615
-0.00129149
-0.00122481
-0.00116133
-0.00110091
-0.00104342
-0.000988733
-0.000936718
-0.000887258
-0.000840235
-0.000795538
-0.000753057
-0.00071269
-0.000674336
-0.000637901
-0.000603292
-0.000570422
-0.000539208
-0.000509568
-0.000481427
-0.000454711
-0.000429351
-0.000405279
-0.000382433
-0.000360751
-0.000340176
-0.000320653
-0.000302128
-0.000284552
-0.000267877
-0.000252058
-0.000237051
-0.000222815
-0.000209311
-0.000196501
-0.00018435
-0.000172825
-0.000161893
-0.000151523
-0.000141688
-0.000132359
-0.000123512
-0.000115121
-0.000107165
-9.96218e-05
-9.24721e-05
-8.56977e-05
-7.92821e-05
-7.32104e-05
-6.74693e-05
-6.20472e-05
-5.69339e-05
-5.21208e-05
-4.76004e-05
-4.33659e-05
-3.94111e-05
-3.57297e-05
-3.23146e-05
-2.91579e-05
-2.62503e-05
-2.35813e-05
-2.1139e-05
-1.89104e-05
-1.6882e-05
-1.50398e-05
-1.33698e-05
-1.18585e-05
-1.04928e-05
-9.26015e-06
-8.14894e-06
-7.14832e-06
-6.24823e-06
-5.43945e-06
-4.7135e-06
-4.06263e-06
-3.47976e-06
-2.95847e-06
-2.49288e-06
-2.07764e-06
-1.70792e-06
-1.37929e-06
-1.08776e-06
-8.29683e-07
-6.01771e-07
-4.01021e-07
-2.2472e-07
-7.04069e-08
)
;
    }
    outlet
    {
        type            cyclic;
        value           nonuniform List<scalar> 
400
(
7.04068e-08
2.24721e-07
4.01021e-07
6.0177e-07
8.29684e-07
1.08776e-06
1.37929e-06
1.70791e-06
2.07764e-06
2.49287e-06
2.95847e-06
3.47977e-06
4.06263e-06
4.7135e-06
5.43945e-06
6.24824e-06
7.14832e-06
8.14894e-06
9.26015e-06
1.04928e-05
1.18585e-05
1.33698e-05
1.50398e-05
1.6882e-05
1.89104e-05
2.1139e-05
2.35813e-05
2.62503e-05
2.91579e-05
3.23146e-05
3.57297e-05
3.94111e-05
4.33659e-05
4.76004e-05
5.21208e-05
5.69339e-05
6.20472e-05
6.74693e-05
7.32104e-05
7.92821e-05
8.56977e-05
9.24721e-05
9.96218e-05
0.000107165
0.000115121
0.000123512
0.000132359
0.000141688
0.000151523
0.000161893
0.000172825
0.00018435
0.000196501
0.000209311
0.000222815
0.000237051
0.000252058
0.000267877
0.000284552
0.000302128
0.000320653
0.000340176
0.000360751
0.000382433
0.000405279
0.000429351
0.000454711
0.000481427
0.000509568
0.000539208
0.000570422
0.000603292
0.000637901
0.000674336
0.00071269
0.000753057
0.000795538
0.000840235
0.000887258
0.000936718
0.000988733
0.00104342
0.00110091
0.00116133
0.00122481
0.00129149
0.0013615
0.00143498
0.00151207
0.00159291
0.00167764
0.00176637
0.00185923
0.00195629
0.00205764
0.0021633
0.00227324
0.00238736
0.00250547
0.00262728
7.04068e-08
2.24721e-07
4.01021e-07
6.0177e-07
8.29684e-07
1.08776e-06
1.37929e-06
1.70791e-06
2.07764e-06
2.49287e-06
2.95847e-06
3.47977e-06
4.06263e-06
4.7135e-06
5.43945e-06
6.24824e-06
7.14832e-06
8.14894e-06
9.26015e-06
1.04928e-05
1.18585e-05
1.33698e-05
1.50398e-05
1.6882e-05
1.89104e-05
2.1139e-05
2.35813e-05
2.62503e-05
2.91579e-05
3.23146e-05
3.57297e-05
3.94111e-05
4.33659e-05
4.76004e-05
5.21208e-05
5.69339e-05
6.20472e-05
6.74693e-05
7.32104e-05
7.92821e-05
8.56977e-05
9.24721e-05
9.96218e-05
0.000107165
0.000115121
0.000123512
0.000132359
0.000141688
0.000151523
0.000161893
0.000172825
0.00018435
0.000196501
0.000209311
0.000222815
0.000237051
0.000252058
0.000267877
0.000284552
0.000302128
0.000320653
0.000340176
0.000360751
0.000382433
0.000405279
0.000429351
0.000454711
0.000481427
0.000509568
0.000539208
0.000570422
0.000603292
0.000637901
0.000674336
0.00071269
0.000753057
0.000795538
0.000840235
0.000887258
0.000936718
0.000988733
0.00104342
0.00110091
0.00116133
0.00122481
0.00129149
0.0013615
0.00143498
0.00151207
0.00159291
0.00167764
0.00176637
0.00185923
0.00195629
0.00205764
0.0021633
0.00227324
0.00238736
0.00250547
0.00262728
0.00262728
0.00250547
0.00238736
0.00227324
0.0021633
0.00205764
0.00195629
0.00185923
0.00176637
0.00167764
0.00159291
0.00151207
0.00143498
0.0013615
0.00129149
0.00122481
0.00116133
0.00110091
0.00104342
0.000988733
0.000936718
0.000887258
0.000840235
0.000795538
0.000753057
0.00071269
0.000674336
0.000637901
0.000603292
0.000570422
0.000539208
0.000509568
0.000481427
0.000454711
0.000429351
0.000405279
0.000382433
0.000360751
0.000340176
0.000320653
0.000302128
0.000284552
0.000267877
0.000252058
0.000237051
0.000222815
0.000209311
0.000196501
0.00018435
0.000172825
0.000161893
0.000151523
0.000141688
0.000132359
0.000123512
0.000115121
0.000107165
9.96218e-05
9.24721e-05
8.56977e-05
7.92821e-05
7.32104e-05
6.74693e-05
6.20472e-05
5.69339e-05
5.21208e-05
4.76004e-05
4.33659e-05
3.94111e-05
3.57297e-05
3.23146e-05
2.91579e-05
2.62503e-05
2.35813e-05
2.1139e-05
1.89104e-05
1.6882e-05
1.50398e-05
1.33698e-05
1.18585e-05
1.04928e-05
9.26015e-06
8.14894e-06
7.14832e-06
6.24823e-06
5.43945e-06
4.7135e-06
4.06263e-06
3.47976e-06
2.95847e-06
2.49288e-06
2.07764e-06
1.70792e-06
1.37929e-06
1.08776e-06
8.29683e-07
6.01771e-07
4.01021e-07
2.2472e-07
7.04069e-08
0.00262728
0.00250547
0.00238736
0.00227324
0.0021633
0.00205764
0.00195629
0.00185923
0.00176637
0.00167764
0.00159291
0.00151207
0.00143498
0.0013615
0.00129149
0.00122481
0.00116133
0.00110091
0.00104342