/*--------------------------------*- C++ -*----------------------------------*\
| =========                 |                                                 |
| \\      /  F ield         | OpenFOAM: The Open Source CFD Toolbox           |
|  \\    /   O peration     | Version:  2106                                  |
|   \\  /    A nd           | Website:  www.openfoam.com                      |
|    \\/     M anipulation  |                                                 |
\*---------------------------------------------------------------------------*/
FoamFile
{
    version     2.0;
    format      ascii;
    arch        "LSB;label=32;scalar=64";
    class       volScalarField;
    location    "10010";
    object      T;
}
// * * * * * * * * * * * * * * * * * * * * * * * * * * * * * * * * * * * * * //

dimensions      [0 0 0 1 0 0 0];

internalField   nonuniform List<scalar> 
800
(
0.0303693
0.0303693
0.0925539
0.092554
0.157699
0.157699
0.225946
0.225946
0.297441
0.297441
0.37234
0.37234
0.450803
0.450803
0.533
0.533
0.619107
0.619107
0.70931
0.70931
0.803801
0.803801
0.902784
0.902784
1.00647
1.00647
1.11507
1.11507
1.22881
1.22881
1.34794
1.34794
1.47267
1.47267
1.60326
1.60326
1.73993
1.73993
1.88291
1.88291
2.03241
2.03241
2.18861
2.18861
2.35162
2.35162
2.52153
2.52153
2.6983
2.6983
2.8818
2.8818
3.07177
3.07177
3.2678
3.2678
3.46931
3.46931
3.67556
3.67556
3.88571
3.88571
4.09878
4.09878
4.31376
4.31376
4.52962
4.52962
4.74539
4.74539
4.96017
4.96017
5.17318
5.17319
5.38378
5.38378
5.59142
5.59143
5.79573
5.79573
5.9964
5.99641
6.19327
6.19327
6.38621
6.38621
6.5752
6.5752
6.76025
6.76025
6.9414
6.94141
7.11876
7.11876
7.29241
7.29242
7.46249
7.46249
7.62911
7.62911
7.7924
7.7924
7.9525
7.95251
8.10955
8.10955
8.26366
8.26366
8.41497
8.41497
8.56358
8.56359
8.70962
8.70963
8.8532
8.8532
8.9944
8.99441
9.13333
9.13334
9.27008
9.27008
9.40472
9.40473
9.53733
9.53734
9.66798
9.66798
9.79673
9.79673
9.92363
9.92364
10.0487
10.0487
10.1721
10.1721
10.2938
10.2938
10.4137
10.4137
10.5321
10.5321
10.6488
10.6488
10.7639
10.7639
10.8773
10.8774
10.9892
10.9892
11.0995
11.0995
11.2082
11.2082
11.3152
11.3152
11.4206
11.4206
11.5243
11.5243
11.6263
11.6263
11.7265
11.7265
11.8248
11.8248
11.9211
11.9211
12.0154
12.0154
12.1076
12.1076
12.1974
12.1974
12.2847
12.2847
12.3693
12.3693
12.4509
12.4509
12.5293
12.5293
12.604
12.604
12.6746
12.6746
12.7405
12.7405
12.801
12.801
12.8551
12.8551
12.9019
12.9019
12.9397
12.9397
12.967
12.967
12.9817
12.9817
0.0303693
0.0303693
0.0925539
0.0925539
0.157699
0.157699
0.225946
0.225946
0.297441
0.297441
0.37234
0.37234
0.450803
0.450803
0.533
0.533
0.619107
0.619107
0.70931
0.70931
0.803801
0.803801
0.902783
0.902784
1.00647
1.00647
1.11507
1.11507
1.22881
1.22881
1.34794
1.34794
1.47267
1.47267
1.60326
1.60326
1.73993
1.73993
1.88291
1.88291
2.03241
2.03241
2.18861
2.18861
2.35162
2.35162
2.52153
2.52153
2.6983
2.6983
2.8818
2.8818
3.07177
3.07177
3.2678
3.2678
3.46931
3.46931
3.67556
3.67556
3.88571
3.88571
4.09878
4.09878
4.31376
4.31376
4.52962
4.52962
4.74539
4.74539
4.96017
4.96017
5.17318
5.17319
5.38378
5.38378
5.59142
5.59143
5.79573
5.79573
5.9964
5.99641
6.19327
6.19327
6.38621
6.38621
6.5752
6.5752
6.76025
6.76025
6.9414
6.94141
7.11876
7.11876
7.29241
7.29242
7.46249
7.46249
7.62911
7.62911
7.7924
7.7924
7.9525
7.95251
8.10955
8.10955
8.26366
8.26366
8.41497
8.41497
8.56358
8.56359
8.70962
8.70963
8.8532
8.8532
8.9944
8.99441
9.13334
9.13334
9.27008
9.27009
9.40472
9.40473
9.53733
9.53734
9.66798
9.66798
9.79673
9.79673
9.92363
9.92364
10.0487
10.0488
10.1721
10.1721
10.2938
10.2938
10.4137
10.4137
10.5321
10.5321
10.6488
10.6488
10.7639
10.7639
10.8773
10.8774
10.9892
10.9892
11.0995
11.0995
11.2082
11.2082
11.3152
11.3152
11.4206
11.4206
11.5243
11.5243
11.6263
11.6263
11.7265
11.7265
11.8248
11.8248
11.9211
11.9211
12.0154
12.0154
12.1076
12.1076
12.1974
12.1974
12.2847
12.2847
12.3693
12.3693
12.4509
12.4509
12.5293
12.5293
12.604
12.604
12.6746
12.6746
12.7405
12.7405
12.801
12.801
12.8551
12.8552
12.9019
12.9019
12.9397
12.9397
12.967
12.967
12.9817
12.9817
12.9817
12.9817
12.967
12.967
12.9397
12.9397
12.9019
12.9019
12.8552
12.8552
12.801
12.801
12.7405
12.7405
12.6746
12.6746
12.604
12.604
12.5293
12.5293
12.451
12.451
12.3693
12.3694
12.2848
12.2848
12.1974
12.1975
12.1076
12.1076
12.0155
12.0155
11.9212
11.9212
11.8249
11.8249
11.7266
11.7266
11.6264
11.6264
11.5244
11.5244
11.4207
11.4208
11.3154
11.3154
11.2083
11.2083
11.0996
11.0997
10.9894
10.9894
10.8775
10.8775
10.764
10.764
10.6489
10.6489
10.5322
10.5322
10.4139
10.4139
10.2939
10.2939
10.1723
10.1723
10.0489
10.0489
9.92378
9.92379
9.79688
9.79688
9.66813
9.66814
9.53748
9.53749
9.40487
9.40488
9.27023
9.27024
9.13349
9.13349
8.99456
8.99456
8.85335
8.85336
8.70978
8.70978
8.56373
8.56374
8.41512
8.41512
8.26381
8.26381
8.1097
8.1097
7.95265
7.95265
7.79255
7.79255
7.62925
7.62925
7.46263
7.46263
7.29255
7.29256
7.1189
7.1189
6.94154
6.94154
6.76038
6.76038
6.57533
6.57533
6.38634
6.38634
6.19339
6.19339
5.99652
5.99653
5.79584
5.79585
5.59154
5.59154
5.38389
5.38389
5.17329
5.17329
4.96027
4.96027
4.74549
4.74549
4.52971
4.52971
4.31385
4.31385
4.09886
4.09887
3.88579
3.88579
3.67564
3.67564
3.46938
3.46938
3.26787
3.26787
3.07184
3.07184
2.88186
2.88186
2.69835
2.69835
2.52158
2.52158
2.35167
2.35167
2.18865
2.18865
2.03246
2.03246
1.88295
1.88295
1.73997
1.73997
1.60329
1.60329
1.4727
1.4727
1.34797
1.34797
1.22884
1.22884
1.11509
1.11509
1.00649
1.00649
0.902802
0.902803
0.803818
0.803818
0.709324
0.709325
0.61912
0.61912
0.533011
0.533011
0.450812
0.450812
0.372348
0.372348
0.297448
0.297448
0.225951
0.225951
0.157703
0.157703
0.0925559
0.0925559
0.03037
0.03037
12.9817
12.9817
12.967
12.967
12.9397
12.9397
12.9019
12.9019
12.8552
12.8552
12.801
12.801
12.7405
12.7405
12.6746
12.6746
12.604
12.6041
12.5293
12.5294
12.451
12.451
12.3694
12.3694
12.2848
12.2848
12.1975
12.1975
12.1076
12.1077
12.0155
12.0155
11.9212
11.9212
11.8249
11.8249
11.7266
11.7266
11.6264
11.6264
11.5244
11.5245
11.4208
11.4208
11.3154
11.3154
11.2083
11.2083
11.0997
11.0997
10.9894
10.9894
10.8775
10.8775
10.764
10.764
10.6489
10.6489
10.5322
10.5322
10.4139
10.4139
10.2939
10.2939
10.1723
10.1723
10.0489
10.0489
9.92379
9.92379
9.79688
9.79689
9.66813
9.66814
9.53749
9.53749
9.40488
9.40488
9.27024
9.27024
9.13349
9.1335
8.99456
8.99456
8.85335
8.85336
8.70978
8.70978
8.56374
8.56374
8.41512
8.41512
8.26381
8.26382
8.1097
8.1097
7.95265
7.95266
7.79255
7.79255
7.62925
7.62925
7.46263
7.46263
7.29256
7.29256
7.1189
7.1189
6.94154
6.94155
6.76038
6.76038
6.57533
6.57533
6.38634
6.38634
6.19339
6.19339
5.99653
5.99653
5.79585
5.79585
5.59154
5.59154
5.38389
5.38389
5.17329
5.17329
4.96027
4.96028
4.74549
4.74549
4.52971
4.52972
4.31385
4.31385
4.09887
4.09887
3.88579
3.88579
3.67564
3.67564
3.46938
3.46938
3.26787
3.26787
3.07184
3.07184
2.88186
2.88186
2.69835
2.69835
2.52158
2.52158
2.35167
2.35167
2.18865
2.18865
2.03246
2.03246
1.88295
1.88296
1.73997
1.73997
1.60329
1.60329
1.4727
1.47271
1.34797
1.34797
1.22884
1.22884
1.11509
1.11509
1.00649
1.00649
0.902803
0.902803
0.803818
0.803819
0.709325
0.709325
0.61912
0.61912
0.533011
0.533011
0.450812
0.450813
0.372348
0.372348
0.297448
0.297448
0.225951
0.225951
0.157703
0.157703
0.0925559
0.0925559
0.03037
0.03037
)
;

boundaryField
{
    walls
    {
        type            fixedValue;
        value           uniform 0;
    }
    inlet
    {
        type            cyclic;
    }
    outlet
    {
        type            cyclic;
    }
    sides
    {
        type            empty;
    }
}


// ************************************************************************* //
