/*--------------------------------*- C++ -*----------------------------------*\
| =========                 |                                                 |
| \\      /  F ield         | OpenFOAM: The Open Source CFD Toolbox           |
|  \\    /   O peration     | Version:  2106                                  |
|   \\  /    A nd           | Website:  www.openfoam.com                      |
|    \\/     M anipulation  |                                                 |
\*---------------------------------------------------------------------------*/
FoamFile
{
    version     2.0;
    format      ascii;
    arch        "LSB;label=32;scalar=64";
    class       volSymmTensorField;
    location    "10010";
    object      turbulenceProperties:R;
}
// * * * * * * * * * * * * * * * * * * * * * * * * * * * * * * * * * * * * * //

dimensions      [0 2 -2 0 0 0 0];

internalField   nonuniform List<symmTensor> 
2000
(
(2.0654e-08 -7.28852e-14 -1.34896e-16 2.0654e-08 5.28085e-29 2.0654e-08)
(2.0654e-08 -7.28852e-14 -1.34896e-16 2.0654e-08 7.35099e-32 2.0654e-08)
(3.0989e-09 -6.29958e-14 -3.51977e-16 3.0989e-09 -2.17568e-28 3.0989e-09)
(3.0989e-09 -6.29958e-14 -3.51977e-16 3.0989e-09 1.11977e-32 3.0989e-09)
(1.43983e-09 -8.66629e-14 -6.71851e-16 1.43983e-09 2.06247e-29 1.43983e-09)
(1.43983e-09 -8.66629e-14 -6.71851e-16 1.43983e-09 1.89481e-32 1.43983e-09)
(2.39107e-09 -3.0644e-13 -2.42001e-15 2.39107e-09 4.43092e-28 2.39107e-09)
(2.39107e-09 -3.0644e-13 -2.42001e-15 2.39107e-09 1.32998e-31 2.39107e-09)
(5.49718e-09 -1.2482e-12 -1.00412e-14 5.49718e-09 5.87706e-28 5.49718e-09)
(5.49718e-09 -1.2482e-12 -1.00412e-14 5.49718e-09 7.63838e-31 5.49718e-09)
(1.15383e-08 -4.14264e-12 -3.39479e-14 1.15383e-08 1.94634e-28 1.15383e-08)
(1.15383e-08 -4.14264e-12 -3.39479e-14 1.15383e-08 3.13688e-30 1.15383e-08)
(2.16543e-08 -1.13911e-11 -9.50899e-14 2.16543e-08 -4.50141e-28 2.16543e-08)
(2.16543e-08 -1.13911e-11 -9.50899e-14 2.16543e-08 8.16961e-30 2.16543e-08)
(3.7224e-08 -2.71754e-11 -2.31087e-13 3.7224e-08 -1.46453e-27 3.7224e-08)
(3.7224e-08 -2.71754e-11 -2.31087e-13 3.7224e-08 1.85127e-29 3.7224e-08)
(5.98499e-08 -5.82368e-11 -5.04463e-13 5.98499e-08 -3.94267e-27 5.98499e-08)
(5.98499e-08 -5.82368e-11 -5.04463e-13 5.98499e-08 4.87609e-29 5.98499e-08)
(9.13645e-08 -1.14855e-10 -1.01347e-12 9.13645e-08 -9.2267e-27 9.13645e-08)
(9.13645e-08 -1.14855e-10 -1.01347e-12 9.13645e-08 1.15389e-28 9.13645e-08)
(1.33846e-07 -2.1206e-10 -1.90614e-12 1.33846e-07 -1.89403e-26 1.33846e-07)
(1.33846e-07 -2.1206e-10 -1.90614e-12 1.33846e-07 1.87871e-28 1.33846e-07)
(1.89635e-07 -3.71123e-10 -3.39817e-12 1.89635e-07 -3.58558e-26 1.89635e-07)
(1.89635e-07 -3.71123e-10 -3.39817e-12 1.89635e-07 2.3685e-28 1.89635e-07)
(2.61355e-07 -6.21364e-10 -5.79569e-12 2.61355e-07 1.73479e-28 2.61355e-07)
(2.61355e-07 -6.21364e-10 -5.79569e-12 2.61355e-07 1.86583e-28 2.61355e-07)
(3.51939e-07 -1.00234e-09 -9.52372e-12 3.51939e-07 2.81283e-25 3.51939e-07)
(3.51939e-07 -1.00234e-09 -9.52372e-12 3.51939e-07 1.93044e-28 3.51939e-07)
(4.6465e-07 -1.56647e-09 -1.51616e-11 4.6465e-07 4.98198e-25 4.6465e-07)
(4.6465e-07 -1.56647e-09 -1.51616e-11 4.6465e-07 4.63946e-28 4.6465e-07)
(6.03107e-07 -2.38216e-09 -2.34869e-11 6.03107e-07 7.74901e-25 6.03107e-07)
(6.03107e-07 -2.38216e-09 -2.34869e-11 6.03107e-07 5.0498e-28 6.03107e-07)
(7.7132e-07 -3.53754e-09 -3.55294e-11 7.7132e-07 1.19056e-24 7.7132e-07)
(7.7132e-07 -3.53754e-09 -3.55294e-11 7.7132e-07 -5.74954e-28 7.7132e-07)
(9.73717e-07 -5.14483e-09 -5.26367e-11 9.73717e-07 1.78753e-24 9.73717e-07)
(9.73717e-07 -5.14483e-09 -5.26367e-11 9.73717e-07 -1.21011e-27 9.73717e-07)
(1.21518e-06 -7.34554e-09 -7.65549e-11 1.21518e-06 2.63312e-24 1.21518e-06)
(1.21518e-06 -7.34554e-09 -7.65549e-11 1.21518e-06 -1.0061e-27 1.21518e-06)
(1.50107e-06 -1.03166e-08 -1.09526e-10 1.50107e-06 3.81204e-24 1.50107e-06)
(1.50107e-06 -1.03166e-08 -1.09526e-10 1.50107e-06 -2.89902e-27 1.50107e-06)
(1.8373e-06 -1.42772e-08 -1.54403e-10 1.8373e-06 5.42911e-24 1.8373e-06)
(1.8373e-06 -1.42772e-08 -1.54403e-10 1.8373e-06 -6.97984e-27 1.8373e-06)
(2.23033e-06 -1.94977e-08 -2.14796e-10 2.23033e-06 7.62334e-24 2.23033e-06)
(2.23033e-06 -1.94977e-08 -2.14796e-10 2.23033e-06 -8.36686e-27 2.23033e-06)
(2.68724e-06 -2.63084e-08 -2.95236e-10 2.68724e-06 1.05738e-23 2.68724e-06)
(2.68724e-06 -2.63084e-08 -2.95236e-10 2.68724e-06 -8.50086e-27 2.68724e-06)
(3.21578e-06 -3.51115e-08 -4.01379e-10 3.21578e-06 1.44967e-23 3.21578e-06)
(3.21578e-06 -3.51115e-08 -4.01379e-10 3.21578e-06 -1.44377e-26 3.21578e-06)
(3.82441e-06 -4.63936e-08 -5.40251e-10 3.82441e-06 1.96556e-23 3.82441e-06)
(3.82441e-06 -4.63936e-08 -5.40251e-10 3.82441e-06 -1.74729e-26 3.82441e-06)
(4.52235e-06 -6.07409e-08 -7.20525e-10 4.52235e-06 2.63646e-23 4.52235e-06)
(4.52235e-06 -6.07409e-08 -7.20525e-10 4.52235e-06 -2.37577e-26 4.52235e-06)
(5.31968e-06 -7.88559e-08 -9.52868e-10 5.31968e-06 3.50629e-23 5.31968e-06)
(5.31968e-06 -7.88559e-08 -9.52868e-10 5.31968e-06 -3.09195e-26 5.31968e-06)
(6.22734e-06 -1.01578e-07 -1.25034e-09 6.22734e-06 4.62898e-23 6.22734e-06)
(6.22734e-06 -1.01578e-07 -1.25034e-09 6.22734e-06 -3.33907e-26 6.22734e-06)
(7.25724e-06 -1.29905e-07 -1.62887e-09 7.25724e-06 6.06275e-23 7.25724e-06)
(7.25724e-06 -1.29905e-07 -1.62887e-09 7.25724e-06 -2.94353e-26 7.25724e-06)
(8.42232e-06 -1.6502e-07 -2.10779e-09 8.42232e-06 7.86915e-23 8.42232e-06)
(8.42232e-06 -1.6502e-07 -2.10779e-09 8.42232e-06 -7.94838e-26 8.42232e-06)
(9.73662e-06 -2.0832e-07 -2.71052e-09 9.73662e-06 1.01337e-22 9.73662e-06)
(9.73662e-06 -2.0832e-07 -2.71052e-09 9.73662e-06 -3.03749e-26 9.73662e-06)
(1.12154e-05 -2.61453e-07 -3.46533e-09 1.12154e-05 1.29792e-22 1.12154e-05)
(1.12154e-05 -2.61453e-07 -3.46533e-09 1.12154e-05 7.48131e-26 1.12154e-05)
(1.28751e-05 -3.26348e-07 -4.40619e-09 1.28751e-05 1.65309e-22 1.28751e-05)
(1.28751e-05 -3.26348e-07 -4.40619e-09 1.28751e-05 6.93659e-26 1.28751e-05)
(1.47337e-05 -4.05271e-07 -5.57387e-09 1.47337e-05 2.09362e-22 1.47337e-05)
(1.47337e-05 -4.05271e-07 -5.57387e-09 1.47337e-05 2.41525e-25 1.47337e-05)
(1.68105e-05 -5.00861e-07 -7.01712e-09 1.68105e-05 2.63745e-22 1.68105e-05)
(1.68105e-05 -5.00861e-07 -7.01712e-09 1.68105e-05 3.81024e-26 1.68105e-05)
(1.91264e-05 -6.16197e-07 -8.79408e-09 1.91264e-05 3.30347e-22 1.91264e-05)
(1.91264e-05 -6.16197e-07 -8.79408e-09 1.91264e-05 -2.05778e-25 1.91264e-05)
(2.1704e-05 -7.54853e-07 -1.09739e-08 2.1704e-05 4.11382e-22 2.1704e-05)
(2.1704e-05 -7.54853e-07 -1.09739e-08 2.1704e-05 2.11944e-25 2.1704e-05)
(2.45677e-05 -9.20973e-07 -1.36388e-08 2.45677e-05 5.09519e-22 2.45677e-05)
(2.45677e-05 -9.20973e-07 -1.36388e-08 2.45677e-05 1.1143e-24 2.45677e-05)
(2.77437e-05 -1.11935e-06 -1.68859e-08 2.77437e-05 6.29803e-22 2.77437e-05)
(2.77437e-05 -1.11935e-06 -1.68859e-08 2.77437e-05 2.06582e-24 2.77437e-05)
(3.12605e-05 -1.35551e-06 -2.083e-08 3.12605e-05 7.76057e-22 3.12605e-05)
(3.12605e-05 -1.35551e-06 -2.083e-08 3.12605e-05 1.18318e-24 3.12605e-05)
(3.51485e-05 -1.63582e-06 -2.56066e-08 3.51485e-05 9.49623e-22 3.51485e-05)
(3.51485e-05 -1.63582e-06 -2.56066e-08 3.51485e-05 -2.24868e-25 3.51485e-05)
(3.94406e-05 -1.9676e-06 -3.13747e-08 3.94406e-05 1.15722e-21 3.94406e-05)
(3.94406e-05 -1.9676e-06 -3.13747e-08 3.94406e-05 1.15145e-24 3.94406e-05)
(4.41722e-05 -2.35923e-06 -3.83213e-08 4.41722e-05 1.4077e-21 4.41722e-05)
(4.41722e-05 -2.35923e-06 -3.83213e-08 4.41722e-05 3.39677e-24 4.41722e-05)
(4.9381e-05 -2.8203e-06 -4.66651e-08 4.9381e-05 1.70268e-21 4.9381e-05)
(4.9381e-05 -2.8203e-06 -4.66651e-08 4.9381e-05 4.6769e-24 4.9381e-05)
(5.5108e-05 -3.36177e-06 -5.66618e-08 5.5108e-05 2.05159e-21 5.5108e-05)
(5.5108e-05 -3.36177e-06 -5.66618e-08 5.5108e-05 6.23222e-24 5.5108e-05)
(6.13967e-05 -3.9961e-06 -6.86095e-08 6.13967e-05 2.46951e-21 6.13967e-05)
(6.13967e-05 -3.9961e-06 -6.86095e-08 6.13967e-05 9.22424e-24 6.13967e-05)
(6.82939e-05 -4.73748e-06 -8.28553e-08 6.82939e-05 2.95412e-21 6.82939e-05)
(6.82939e-05 -4.73748e-06 -8.28553e-08 6.82939e-05 4.01523e-24 6.82939e-05)
(7.58497e-05 -5.60199e-06 -9.9802e-08 7.58497e-05 3.52191e-21 7.58497e-05)
(7.58497e-05 -5.60199e-06 -9.9802e-08 7.58497e-05 -3.18052e-24 7.58497e-05)
(8.41176e-05 -6.60784e-06 -1.19917e-07 8.41176e-05 4.16584e-21 8.41176e-05)
(8.41176e-05 -6.60784e-06 -1.19917e-07 8.41176e-05 1.34264e-23 8.41176e-05)
(9.31548e-05 -7.77559e-06 -1.43739e-07 9.31548e-05 4.94319e-21 9.31548e-05)
(9.31548e-05 -7.77559e-06 -1.43739e-07 9.31548e-05 4.64488e-23 9.31548e-05)
(0.000103022 -9.1284e-06 -1.71893e-07 0.000103022 5.87089e-21 0.000103022)
(0.000103022 -9.1284e-06 -1.71893e-07 0.000103022 5.92437e-23 0.000103022)
(0.000113785 -1.06923e-05 -2.05094e-07 0.000113785 6.91205e-21 0.000113785)
(0.000113785 -1.06923e-05 -2.05094e-07 0.000113785 6.05928e-23 0.000113785)
(0.000125512 -1.24965e-05 -2.44168e-07 0.000125512 8.13231e-21 0.000125512)
(0.000125512 -1.24965e-05 -2.44168e-07 0.000125512 7.86979e-23 0.000125512)
(0.000138276 -1.45735e-05 -2.90056e-07 0.000138276 9.58801e-21 0.000138276)
(0.000138276 -1.45735e-05 -2.90056e-07 0.000138276 1.11149e-22 0.000138276)
(0.000152156 -1.69599e-05 -3.43838e-07 0.000152156 1.12416e-20 0.000152156)
(0.000152156 -1.69599e-05 -3.43838e-07 0.000152156 1.53209e-22 0.000152156)
(0.000167234 -1.96959e-05 -4.06744e-07 0.000167234 1.31171e-20 0.000167234)
(0.000167234 -1.96959e-05 -4.06744e-07 0.000167234 1.27642e-22 0.000167234)
(0.000183596 -2.28265e-05 -4.80169e-07 0.000183596 1.51851e-20 0.000183596)
(0.000183596 -2.28265e-05 -4.80169e-07 0.000183596 1.03887e-22 0.000183596)
(0.000201335 -2.64011e-05 -5.65699e-07 0.000201335 1.75736e-20 0.000201335)
(0.000201335 -2.64011e-05 -5.65699e-07 0.000201335 1.90723e-22 0.000201335)
(0.000220547 -3.04742e-05 -6.65123e-07 0.000220547 2.03112e-20 0.000220547)
(0.000220547 -3.04742e-05 -6.65123e-07 0.000220547 3.35916e-22 0.000220547)
(0.000241333 -3.51057e-05 -7.80458e-07 0.000241333 2.34322e-20 0.000241333)
(0.000241333 -3.51057e-05 -7.80458e-07 0.000241333 4.90203e-22 0.000241333)
(0.000263798 -4.03608e-05 -9.13968e-07 0.000263798 2.68655e-20 0.000263798)
(0.000263798 -4.03608e-05 -9.13968e-07 0.000263798 4.99024e-22 0.000263798)
(0.000288053 -4.63105e-05 -1.06819e-06 0.000288053 3.04879e-20 0.000288053)
(0.000288053 -4.63105e-05 -1.06819e-06 0.000288053 4.34289e-22 0.000288053)
(0.000314213 -5.30317e-05 -1.24593e-06 0.000314213 3.46439e-20 0.000314213)
(0.000314213 -5.30317e-05 -1.24593e-06 0.000314213 6.04643e-22 0.000314213)
(0.000342396 -6.06072e-05 -1.45035e-06 0.000342396 3.95745e-20 0.000342396)
(0.000342396 -6.06072e-05 -1.45035e-06 0.000342396 8.99995e-22 0.000342396)
(0.000372725 -6.91258e-05 -1.68489e-06 0.000372725 4.49206e-20 0.000372725)
(0.000372725 -6.91258e-05 -1.68489e-06 0.000372725 1.04033e-21 0.000372725)
(0.000405324 -7.86819e-05 -1.95337e-06 0.000405324 5.06815e-20 0.000405324)
(0.000405324 -7.86819e-05 -1.95337e-06 0.000405324 1.24429e-21 0.000405324)
(0.000440322 -8.93755e-05 -2.25997e-06 0.000440322 5.69533e-20 0.000440322)
(0.000440322 -8.93755e-05 -2.25997e-06 0.000440322 1.7315e-21 0.000440322)
(0.000477848 -0.000101312 -2.60922e-06 0.000477848 6.34838e-20 0.000477848)
(0.000477848 -0.000101312 -2.60922e-06 0.000477848 2.41283e-21 0.000477848)
(0.000518034 -0.0001146 -3.00607e-06 0.000518034 6.10168e-20 0.000518034)
(0.000518034 -0.0001146 -3.00607e-06 0.000518034 2.92694e-21 0.000518034)
(0.000561009 -0.000129354 -3.45581e-06 0.000561009 5.39469e-20 0.000561009)
(0.000561009 -0.000129354 -3.45581e-06 0.000561009 3.00558e-21 0.000561009)
(0.000606904 -0.000145689 -3.96413e-06 0.000606904 5.5434e-20 0.000606904)
(0.000606904 -0.000145689 -3.96413e-06 0.000606904 3.31232e-21 0.000606904)
(0.000655846 -0.000163723 -4.53706e-06 0.000655846 6.0019e-20 0.000655846)
(0.000655846 -0.000163723 -4.53706e-06 0.000655846 4.12134e-21 0.000655846)
(0.000707957 -0.000183573 -5.18097e-06 0.000707957 6.43482e-20 0.000707957)
(0.000707957 -0.000183573 -5.18097e-06 0.000707957 5.89317e-21 0.000707957)
(0.000763355 -0.000205356 -5.90255e-06 0.000763355 6.78521e-20 0.000763355)
(0.000763355 -0.000205356 -5.90255e-06 0.000763355 7.77902e-21 0.000763355)
(0.000822152 -0.000229183 -6.70872e-06 0.000822152 6.97897e-20 0.000822152)
(0.000822152 -0.000229183 -6.70872e-06 0.000822152 8.28876e-21 0.000822152)
(0.000884448 -0.000255163 -7.60661e-06 0.000884448 7.10531e-20 0.000884448)
(0.000884448 -0.000255163 -7.60661e-06 0.000884448 9.10432e-21 0.000884448)
(0.000950334 -0.000283396 -8.60351e-06 0.000950334 7.26106e-20 0.000950334)
(0.000950334 -0.000283396 -8.60351e-06 0.000950334 1.06279e-20 0.000950334)
(0.00101989 -0.00031397 -9.70675e-06 0.00101989 7.49685e-20 0.00101989)
(0.00101989 -0.00031397 -9.70675e-06 0.00101989 1.36617e-20 0.00101989)
(0.00109318 -0.000346965 -1.09236e-05 0.00109318 7.84239e-20 0.00109318)
(0.00109318 -0.000346965 -1.09236e-05 0.00109318 1.82304e-20 0.00109318)
(0.00117024 -0.000382444 -1.22614e-05 0.00117024 8.06056e-20 0.00117024)
(0.00117024 -0.000382444 -1.22614e-05 0.00117024 2.03892e-20 0.00117024)
(0.00125112 -0.000420455 -1.3727e-05 0.00125112 8.36038e-20 0.00125112)
(0.00125112 -0.000420455 -1.3727e-05 0.00125112 2.00115e-20 0.00125112)
(0.00133581 -0.000461027 -1.53272e-05 0.00133581 8.48097e-20 0.00133581)
(0.00133581 -0.000461027 -1.53272e-05 0.00133581 2.49838e-20 0.00133581)
(0.00142431 -0.000504171 -1.70683e-05 0.00142431 7.97725e-20 0.00142431)
(0.00142431 -0.000504171 -1.70683e-05 0.00142431 3.78437e-20 0.00142431)
(0.00151658 -0.000549874 -1.89559e-05 0.00151658 7.24051e-20 0.00151658)
(0.00151658 -0.000549874 -1.89559e-05 0.00151658 4.28735e-20 0.00151658)
(0.00161256 -0.000598102 -2.09954e-05 0.00161256 7.1309e-20 0.00161256)
(0.00161256 -0.000598102 -2.09954e-05 0.00161256 3.63191e-20 0.00161256)
(0.00171218 -0.000648798 -2.31913e-05 0.00171218 7.30982e-20 0.00171218)
(0.00171218 -0.000648798 -2.31913e-05 0.00171218 4.23022e-20 0.00171218)
(0.00181532 -0.000701885 -2.55473e-05 0.00181532 7.01894e-20 0.00181532)
(0.00181532 -0.000701885 -2.55473e-05 0.00181532 5.92778e-20 0.00181532)
(0.00192185 -0.00075726 -2.80664e-05 0.00192185 7.55499e-20 0.00192185)
(0.00192185 -0.00075726 -2.80664e-05 0.00192185 6.38099e-20 0.00192185)
(0.00203163 -0.000814802 -3.07508e-05 0.00203163 7.97985e-20 0.00203163)
(0.00203163 -0.000814802 -3.07508e-05 0.00203163 6.90524e-20 0.00203163)
(0.00214447 -0.000874368 -3.36017e-05 0.00214447 5.2744e-20 0.00214447)
(0.00214447 -0.000874368 -3.36017e-05 0.00214447 9.23505e-20 0.00214447)
(0.00226019 -0.000935799 -3.66198e-05 0.00226019 9.74036e-21 0.00226019)
(0.00226019 -0.000935799 -3.66198e-05 0.00226019 1.03044e-19 0.00226019)
(0.00237856 -0.00099892 -3.98045e-05 0.00237856 1.56981e-20 0.00237856)
(0.00237856 -0.00099892 -3.98045e-05 0.00237856 1.04874e-19 0.00237856)
(0.00249935 -0.00106354 -4.31547e-05 0.00249935 -1.37232e-20 0.00249935)
(0.00249935 -0.00106354 -4.31547e-05 0.00249935 1.29897e-19 0.00249935)
(0.00262232 -0.00112947 -4.66684e-05 0.00262232 -3.20926e-20 0.00262232)
(0.00262232 -0.00112947 -4.66684e-05 0.00262232 1.47758e-19 0.00262232)
(0.00274721 -0.0011965 -5.03432e-05 0.00274721 -2.34244e-20 0.00274721)
(0.00274721 -0.0011965 -5.03432e-05 0.00274721 1.47236e-19 0.00274721)
(0.00287375 -0.00126442 -5.41757e-05 0.00287375 -3.57392e-20 0.00287375)
(0.00287375 -0.00126442 -5.41757e-05 0.00287375 1.63771e-19 0.00287375)
(0.00300165 -0.00133302 -5.81623e-05 0.00300165 -4.87607e-20 0.00300165)
(0.00300165 -0.00133302 -5.81623e-05 0.00300165 2.09541e-19 0.00300165)
(0.00313065 -0.00140209 -6.22986e-05 0.00313065 -6.33189e-20 0.00313065)
(0.00313065 -0.00140209 -6.22986e-05 0.00313065 2.47458e-19 0.00313065)
(0.00326045 -0.00147142 -6.65802e-05 0.00326045 -6.35941e-20 0.00326045)
(0.00326045 -0.00147142 -6.65802e-05 0.00326045 2.74212e-19 0.00326045)
(0.00339079 -0.00154082 -7.10023e-05 0.00339079 -7.51321e-20 0.00339079)
(0.00339079 -0.00154082 -7.10023e-05 0.00339079 2.99035e-19 0.00339079)
(0.00352138 -0.0016101 -7.55597e-05 0.00352138 -7.7432e-20 0.00352138)
(0.00352138 -0.0016101 -7.55597e-05 0.00352138 3.04036e-19 0.00352138)
(0.00365195 -0.00167907 -8.02475e-05 0.00365195 -4.62098e-21 0.00365195)
(0.00365195 -0.00167907 -8.02475e-05 0.00365195 3.54868e-19 0.00365195)
(0.00378225 -0.00174755 -8.50605e-05 0.00378225 4.40951e-20 0.00378225)
(0.00378225 -0.00174755 -8.50605e-05 0.00378225 4.52095e-19 0.00378225)
(0.003912 -0.00181541 -8.99935e-05 0.003912 1.19545e-19 0.003912)
(0.003912 -0.00181541 -8.99935e-05 0.003912 4.59385e-19 0.003912)
(0.00404099 -0.00188247 -9.50415e-05 0.00404099 2.55356e-19 0.00404099)
(0.00404099 -0.00188247 -9.50415e-05 0.00404099 4.50495e-19 0.00404099)
(0.00416897 -0.00194862 -0.0001002 0.00416897 3.90322e-19 0.00416897)
(0.00416897 -0.00194862 -0.0001002 0.00416897 5.10163e-19 0.00416897)
(0.00429573 -0.00201373 -0.000105463 0.00429573 5.51055e-19 0.00429573)
(0.00429573 -0.00201373 -0.000105463 0.00429573 5.65751e-19 0.00429573)
(0.00442107 -0.0020777 -0.000110828 0.00442107 5.1001e-19 0.00442107)
(0.00442107 -0.0020777 -0.000110828 0.00442107 6.38733e-19 0.00442107)
(0.0045448 -0.00214042 -0.00011629 0.0045448 5.43615e-19 0.0045448)
(0.0045448 -0.00214042 -0.00011629 0.0045448 6.26576e-19 0.0045448)
(0.00466675 -0.00220182 -0.000121844 0.00466675 5.74734e-19 0.00466675)
(0.00466675 -0.00220182 -0.000121844 0.00466675 5.93237e-19 0.00466675)
(0.00478677 -0.00226182 -0.000127487 0.00478677 6.84208e-19 0.00478677)
(0.00478677 -0.00226182 -0.000127487 0.00478677 6.32251e-19 0.00478677)
(0.0049047 -0.00232038 -0.000133217 0.0049047 6.8758e-19 0.0049047)
(0.0049047 -0.00232038 -0.000133217 0.0049047 6.56088e-19 0.0049047)
(0.00502043 -0.00237743 -0.000139029 0.00502043 6.73683e-19 0.00502043)
(0.00502043 -0.00237743 -0.000139029 0.00502043 7.31774e-19 0.00502043)
(0.00513384 -0.00243294 -0.000144921 0.00513384 6.24468e-19 0.00513384)
(0.00513384 -0.00243294 -0.000144921 0.00513384 8.44802e-19 0.00513384)
(0.00524483 -0.00248688 -0.00015089 0.00524483 5.60652e-19 0.00524483)
(0.00524483 -0.00248688 -0.00015089 0.00524483 9.50934e-19 0.00524483)
(0.00535332 -0.00253922 -0.000156934 0.00535332 5.32075e-19 0.00535332)
(0.00535332 -0.00253922 -0.000156934 0.00535332 9.92792e-19 0.00535332)
(0.00545923 -0.00258996 -0.000163052 0.00545923 4.73176e-19 0.00545923)
(0.00545923 -0.00258996 -0.000163052 0.00545923 1.03856e-18 0.00545923)
(0.0055625 -0.00263909 -0.00016924 0.0055625 5.11792e-19 0.0055625)
(0.0055625 -0.00263909 -0.00016924 0.0055625 1.19618e-18 0.0055625)
(0.00566308 -0.0026866 -0.000175499 0.00566308 5.48429e-19 0.00566308)
(0.00566308 -0.0026866 -0.000175499 0.00566308 1.34714e-18 0.00566308)
(0.00576093 -0.00273249 -0.000181826 0.00576093 5.61118e-19 0.00576093)
(0.00576093 -0.00273249 -0.000181826 0.00576093 1.43284e-18 0.00576093)
(0.00585602 -0.00277678 -0.000188221 0.00585602 5.32132e-19 0.00585602)
(0.00585602 -0.00277678 -0.000188221 0.00585602 1.50444e-18 0.00585602)
(0.00594833 -0.00281948 -0.000194683 0.00594833 5.53293e-19 0.00594833)
(0.00594833 -0.00281948 -0.000194683 0.00594833 1.64116e-18 0.00594833)
(0.00603784 -0.0028606 -0.00020121 0.00603784 2.92259e-19 0.00603784)
(0.00603784 -0.0028606 -0.00020121 0.00603784 1.81294e-18 0.00603784)
(0.00612455 -0.00290016 -0.000207802 0.00612455 1.16556e-19 0.00612455)
(0.00612455 -0.00290016 -0.000207802 0.00612455 2.01892e-18 0.00612455)
(0.00620846 -0.00293818 -0.00021446 0.00620846 1.91828e-19 0.00620846)
(0.00620846 -0.00293818 -0.00021446 0.00620846 2.08049e-18 0.00620846)
(0.00628958 -0.00297469 -0.000221182 0.00628958 4.61808e-19 0.00628958)
(0.00628958 -0.00297469 -0.000221182 0.00628958 2.13021e-18 0.00628958)
(0.00636791 -0.0030097 -0.000227968 0.00636791 6.32598e-19 0.00636791)
(0.00636791 -0.0030097 -0.000227968 0.00636791 2.2778e-18 0.00636791)
(0.00644347 -0.00304325 -0.000234818 0.00644347 1.12748e-18 0.00644347)
(0.00644347 -0.00304325 -0.000234818 0.00644347 2.41183e-18 0.00644347)
(0.00651629 -0.00307537 -0.000241733 0.00651629 1.21839e-18 0.00651629)
(0.00651629 -0.00307537 -0.000241733 0.00651629 2.61453e-18 0.00651629)
(0.00658639 -0.00310607 -0.000248712 0.00658639 1.1827e-18 0.00658639)
(0.00658639 -0.00310607 -0.000248712 0.00658639 2.73472e-18 0.00658639)
(0.00665379 -0.0031354 -0.000255756 0.00665379 1.23786e-18 0.00665379)
(0.00665379 -0.0031354 -0.000255756 0.00665379 2.91009e-18 0.00665379)
(0.00671853 -0.00316337 -0.000262864 0.00671853 1.58066e-18 0.00671853)
(0.00671853 -0.00316337 -0.000262864 0.00671853 3.25772e-18 0.00671853)
(0.00678063 -0.00319001 -0.000270038 0.00678063 1.76224e-18 0.00678063)
(0.00678063 -0.00319001 -0.000270038 0.00678063 3.54025e-18 0.00678063)
(0.00684014 -0.00321536 -0.000277276 0.00684014 1.48454e-18 0.00684014)
(0.00684014 -0.00321536 -0.000277276 0.00684014 3.73559e-18 0.00684014)
(0.00689708 -0.00323945 -0.00028458 0.00689708 1.72211e-18 0.00689708)
(0.00689708 -0.00323945 -0.00028458 0.00689708 3.88971e-18 0.00689708)
(0.0069515 -0.00326229 -0.000291949 0.0069515 1.60267e-18 0.0069515)
(0.0069515 -0.00326229 -0.000291949 0.0069515 4.29075e-18 0.0069515)
(0.00700342 -0.00328392 -0.000299384 0.00700342 1.44971e-18 0.00700342)
(0.00700342 -0.00328392 -0.000299384 0.00700342 4.7291e-18 0.00700342)
(0.0070529 -0.00330436 -0.000306886 0.0070529 1.6383e-18 0.0070529)
(0.0070529 -0.00330436 -0.000306886 0.0070529 4.79788e-18 0.0070529)
(0.00709997 -0.00332364 -0.000314454 0.00709997 1.14244e-18 0.00709997)
(0.00709997 -0.00332364 -0.000314454 0.00709997 5.15755e-18 0.00709997)
(0.00714466 -0.00334179 -0.000322089 0.00714466 6.8345e-19 0.00714466)
(0.00714466 -0.00334179 -0.000322089 0.00714466 5.9503e-18 0.00714466)
(0.00718703 -0.00335884 -0.00032979 0.00718703 2.86973e-19 0.00718703)
(0.00718703 -0.00335884 -0.00032979 0.00718703 6.06303e-18 0.00718703)
(0.00722709 -0.00337479 -0.000337559 0.00722709 4.18719e-19 0.00722709)
(0.00722709 -0.00337479 -0.000337559 0.00722709 5.90715e-18 0.00722709)
(0.0072649 -0.00338969 -0.000345395 0.0072649 5.20044e-19 0.0072649)
(0.0072649 -0.00338969 -0.000345395 0.0072649 5.56702e-18 0.0072649)
(0.0073005 -0.00340354 -0.000353298 0.0073005 3.70697e-19 0.0073005)
(0.0073005 -0.00340354 -0.000353298 0.0073005 4.65157e-18 0.0073005)
(0.00733391 -0.00341638 -0.000361269 0.00733391 3.74596e-19 0.00733391)
(0.00733391 -0.00341638 -0.000361269 0.00733391 4.36133e-18 0.00733391)
(0.00736517 -0.00342822 -0.000369307 0.00736517 8.69846e-19 0.00736517)
(0.00736517 -0.00342822 -0.000369307 0.00736517 4.56583e-18 0.00736517)
(0.00739433 -0.00343909 -0.000377412 0.00739433 1.13204e-18 0.00739433)
(0.00739433 -0.00343909 -0.000377412 0.00739433 5.47795e-18 0.00739433)
(0.00742142 -0.003449 -0.000385583 0.00742142 6.08964e-19 0.00742142)
(0.00742142 -0.003449 -0.000385583 0.00742142 6.16786e-18 0.00742142)
(0.00744647 -0.00345797 -0.000393822 0.00744647 5.40374e-21 0.00744647)
(0.00744647 -0.00345797 -0.000393822 0.00744647 6.73715e-18 0.00744647)
(0.00746951 -0.00346602 -0.000402126 0.00746951 6.8356e-19 0.00746951)
(0.00746951 -0.00346602 -0.000402126 0.00746951 9.48956e-18 0.00746951)
(0.00749058 -0.00347316 -0.000410497 0.00749058 8.07308e-19 0.00749058)
(0.00749058 -0.00347316 -0.000410497 0.00749058 1.24937e-17 0.00749058)
(0.0075097 -0.00347942 -0.000418933 0.0075097 -3.73248e-19 0.0075097)
(0.0075097 -0.00347942 -0.000418933 0.0075097 1.31114e-17 0.0075097)
(0.00752692 -0.0034848 -0.000427433 0.00752692 -2.94492e-18 0.00752692)
(0.00752692 -0.0034848 -0.000427433 0.00752692 1.39866e-17 0.00752692)
(0.00754225 -0.00348932 -0.000435997 0.00754225 -4.06983e-18 0.00754225)
(0.00754225 -0.00348932 -0.000435997 0.00754225 1.42382e-17 0.00754225)
(0.00755573 -0.003493 -0.000444623 0.00755573 -2.85682e-18 0.00755573)
(0.00755573 -0.003493 -0.000444623 0.00755573 1.39511e-17 0.00755573)
(0.00756738 -0.00349584 -0.000453312 0.00756738 -5.25268e-19 0.00756738)
(0.00756738 -0.00349584 -0.000453312 0.00756738 1.51685e-17 0.00756738)
(0.00757723 -0.00349787 -0.000462061 0.00757723 2.53359e-18 0.00757723)
(0.00757723 -0.00349787 -0.000462061 0.00757723 1.6436e-17 0.00757723)
(0.0075853 -0.00349908 -0.000470869 0.0075853 2.24203e-18 0.0075853)
(0.0075853 -0.00349908 -0.000470869 0.0075853 1.76812e-17 0.0075853)
(0.00759162 -0.00349949 -0.000479735 0.00759162 1.25585e-18 0.00759162)
(0.00759162 -0.00349949 -0.000479735 0.00759162 1.90502e-17 0.00759162)
(0.00759621 -0.00349911 -0.000488657 0.00759621 3.02914e-19 0.00759621)
(0.00759621 -0.00349911 -0.000488657 0.00759621 1.93324e-17 0.00759621)
(0.00759909 -0.00349795 -0.000497633 0.00759909 -1.06389e-18 0.00759909)
(0.00759909 -0.00349795 -0.000497633 0.00759909 1.96892e-17 0.00759909)
(0.00760028 -0.00349602 -0.000506662 0.00760028 -5.60042e-19 0.00760028)
(0.00760028 -0.00349602 -0.000506662 0.00760028 2.02234e-17 0.00760028)
(0.0075998 -0.00349332 -0.00051574 0.0075998 8.09135e-19 0.0075998)
(0.0075998 -0.00349332 -0.00051574 0.0075998 1.98398e-17 0.0075998)
(0.00759767 -0.00348986 -0.000524867 0.00759767 1.92319e-19 0.00759767)
(0.00759767 -0.00348986 -0.000524867 0.00759767 1.97577e-17 0.00759767)
(0.00759391 -0.00348565 -0.000534038 0.00759391 -3.64727e-19 0.00759391)
(0.00759391 -0.00348565 -0.000534038 0.00759391 2.14475e-17 0.00759391)
(0.00758852 -0.0034807 -0.000543252 0.00758852 5.24128e-19 0.00758852)
(0.00758852 -0.0034807 -0.000543252 0.00758852 2.26883e-17 0.00758852)
(0.00758154 -0.00347501 -0.000552505 0.00758154 1.54972e-18 0.00758154)
(0.00758154 -0.00347501 -0.000552505 0.00758154 2.30142e-17 0.00758154)
(0.00757296 -0.00346858 -0.000561794 0.00757296 1.67193e-18 0.00757296)
(0.00757296 -0.00346858 -0.000561794 0.00757296 2.30981e-17 0.00757296)
(0.00756281 -0.00346141 -0.000571116 0.00756281 3.98666e-18 0.00756281)
(0.00756281 -0.00346141 -0.000571116 0.00756281 2.24741e-17 0.00756281)
(0.00755109 -0.00345352 -0.000580467 0.00755109 6.68868e-18 0.00755109)
(0.00755109 -0.00345352 -0.000580467 0.00755109 2.27e-17 0.00755109)
(0.00753781 -0.00344491 -0.000589843 0.00753781 5.14465e-18 0.00753781)
(0.00753781 -0.00344491 -0.000589843 0.00753781 2.34782e-17 0.00753781)
(0.007523 -0.00343557 -0.000599239 0.007523 4.02747e-18 0.007523)
(0.007523 -0.00343557 -0.000599239 0.007523 2.48815e-17 0.007523)
(0.00750665 -0.00342551 -0.000608651 0.00750665 2.70753e-18 0.00750665)
(0.00750665 -0.00342551 -0.000608651 0.00750665 2.60191e-17 0.00750665)
(0.00748877 -0.00341473 -0.000618075 0.00748877 -1.23038e-18 0.00748877)
(0.00748877 -0.00341473 -0.000618075 0.00748877 2.55806e-17 0.00748877)
(0.00746938 -0.00340323 -0.000627505 0.00746938 -1.58294e-18 0.00746938)
(0.00746938 -0.00340323 -0.000627505 0.00746938 2.46037e-17 0.00746938)
(0.00744847 -0.00339101 -0.000636935 0.00744847 -2.04308e-18 0.00744847)
(0.00744847 -0.00339101 -0.000636935 0.00744847 2.34852e-17 0.00744847)
(0.00742606 -0.00337808 -0.00064636 0.00742606 -9.28946e-19 0.00742606)
(0.00742606 -0.00337808 -0.00064636 0.00742606 2.26742e-17 0.00742606)
(0.00740215 -0.00336442 -0.000655774 0.00740215 -1.41364e-18 0.00740215)
(0.00740215 -0.00336442 -0.000655774 0.00740215 2.17715e-17 0.00740215)
(0.00737674 -0.00335005 -0.000665169 0.00737674 -2.22062e-18 0.00737674)
(0.00737674 -0.00335005 -0.000665169 0.00737674 2.22382e-17 0.00737674)
(0.00734983 -0.00333496 -0.00067454 0.00734983 -2.91705e-18 0.00734983)
(0.00734983 -0.00333496 -0.00067454 0.00734983 2.44272e-17 0.00734983)
(0.00732143 -0.00331914 -0.000683878 0.00732143 -1.44806e-18 0.00732143)
(0.00732143 -0.00331914 -0.000683878 0.00732143 2.84381e-17 0.00732143)
(0.00729155 -0.0033026 -0.000693176 0.00729155 5.16503e-18 0.00729155)
(0.00729155 -0.0033026 -0.000693176 0.00729155 3.04611e-17 0.00729155)
(0.00726018 -0.00328534 -0.000702426 0.00726018 3.08051e-18 0.00726018)
(0.00726018 -0.00328534 -0.000702426 0.00726018 3.16427e-17 0.00726018)
(0.00722732 -0.00326734 -0.000711619 0.00722732 3.89325e-18 0.00722732)
(0.00722732 -0.00326734 -0.000711619 0.00722732 3.44509e-17 0.00722732)
(0.00719297 -0.00324861 -0.000720746 0.00719297 -6.36478e-19 0.00719297)
(0.00719297 -0.00324861 -0.000720746 0.00719297 3.43655e-17 0.00719297)
(0.00715713 -0.00322914 -0.000729797 0.00715713 3.58553e-18 0.00715713)
(0.00715713 -0.00322914 -0.000729797 0.00715713 3.25067e-17 0.00715713)
(0.00711981 -0.00320893 -0.000738763 0.00711981 2.04696e-18 0.00711981)
(0.00711981 -0.00320893 -0.000738763 0.00711981 3.10006e-17 0.00711981)
(0.00708099 -0.00318797 -0.000747631 0.00708099 4.90358e-18 0.00708099)
(0.00708099 -0.00318797 -0.000747631 0.00708099 2.47144e-17 0.00708099)
(0.00704068 -0.00316627 -0.000756393 0.00704068 7.05224e-18 0.00704068)
(0.00704068 -0.00316627 -0.000756393 0.00704068 2.41404e-17 0.00704068)
(0.00699888 -0.00314381 -0.000765034 0.00699888 7.0848e-18 0.00699888)
(0.00699888 -0.00314381 -0.000765034 0.00699888 2.48743e-17 0.00699888)
(0.00695558 -0.00312059 -0.000773544 0.00695558 6.79221e-18 0.00695558)
(0.00695558 -0.00312059 -0.000773544 0.00695558 2.19361e-17 0.00695558)
(0.00691077 -0.0030966 -0.000781908 0.00691077 2.79095e-18 0.00691077)
(0.00691077 -0.0030966 -0.000781908 0.00691077 1.46201e-17 0.00691077)
(0.00686446 -0.00307183 -0.000790114 0.00686446 4.69842e-18 0.00686446)
(0.00686446 -0.00307183 -0.000790114 0.00686446 1.00063e-17 0.00686446)
(0.00681663 -0.00304629 -0.000798147 0.00681663 5.64824e-18 0.00681663)
(0.00681663 -0.00304629 -0.000798147 0.00681663 3.50522e-18 0.00681663)
(0.00676729 -0.00301996 -0.000805991 0.00676729 2.97358e-18 0.00676729)
(0.00676729 -0.00301996 -0.000805991 0.00676729 3.03084e-19 0.00676729)
(0.00671644 -0.00299284 -0.000813632 0.00671644 2.85602e-18 0.00671644)
(0.00671644 -0.00299284 -0.000813632 0.00671644 -2.79794e-19 0.00671644)
(0.00666405 -0.00296491 -0.000821052 0.00666405 8.53584e-19 0.00666405)
(0.00666405 -0.00296491 -0.000821052 0.00666405 2.04575e-18 0.00666405)
(0.00661014 -0.00293618 -0.000828234 0.00661014 -4.83867e-18 0.00661014)
(0.00661014 -0.00293618 -0.000828234 0.00661014 8.42248e-18 0.00661014)
(0.0065547 -0.00290663 -0.00083516 0.0065547 1.11248e-18 0.0065547)