/*--------------------------------*- C++ -*----------------------------------*\
| =========                 |                                                 |
| \\      /  F ield         | OpenFOAM: The Open Source CFD Toolbox           |
|  \\    /   O peration     | Version:  2106                                  |
|   \\  /    A nd           | Website:  www.openfoam.com                      |
|    \\/     M anipulation  |                                                 |
\*---------------------------------------------------------------------------*/
FoamFile
{
    version     2.0;
    format      ascii;
    arch        "LSB;label=32;scalar=64";
    class       volVectorField;
    location    "10010";
    object      U;
}
// * * * * * * * * * * * * * * * * * * * * * * * * * * * * * * * * * * * * * //

dimensions      [0 1 -1 0 0 0 0];

internalField   nonuniform List<vector> 
2000
(
(0.000976391 -7.64416e-16 -3.65692e-18)
(0.000976391 -1.66217e-19 2.48279e-33)
(0.00294704 -2.28853e-15 5.05738e-18)
(0.00294704 1.1043e-19 -3.37755e-21)
(0.0049541 -2.22578e-15 1.00452e-17)
(0.0049541 5.99806e-20 -3.5543e-21)
(0.00699826 -2.08171e-15 7.74213e-18)
(0.00699826 1.19934e-19 -4.68752e-21)
(0.00908019 -2.0577e-15 6.34264e-18)
(0.00908019 1.66056e-19 -6.06899e-21)
(0.0112006 -2.06913e-15 6.1577e-18)
(0.0112006 2.05262e-19 -7.88801e-21)
(0.0133602 -2.07531e-15 6.24438e-18)
(0.0133602 2.3378e-19 -9.77334e-21)
(0.0155597 -2.0766e-15 6.35147e-18)
(0.0155597 2.62187e-19 -1.14823e-20)
(0.0177998 -2.07693e-15 6.48959e-18)
(0.0177998 2.91004e-19 -1.3284e-20)
(0.0200814 -2.07727e-15 6.66366e-18)
(0.0200814 3.20236e-19 -1.57761e-20)
(0.0224051 -2.07752e-15 6.86404e-18)
(0.0224051 3.38664e-19 -1.82321e-20)
(0.0247717 -2.07767e-15 7.08541e-18)
(0.0247717 3.3703e-19 -2.04413e-20)
(0.027182 -2.07776e-15 7.32747e-18)
(0.027182 3.20665e-19 -2.23129e-20)
(0.0296369 -2.07784e-15 6.72735e-18)
(0.0296369 3.14548e-19 -2.37708e-20)
(0.0321371 -2.07791e-15 5.93673e-18)
(0.0321371 3.15226e-19 -2.62328e-20)
(0.0346835 -2.07799e-15 5.12372e-18)
(0.0346835 2.94022e-19 -2.9451e-20)
(0.0372769 -2.07805e-15 4.26564e-18)
(0.0372769 2.56307e-19 -3.19949e-20)
(0.0399182 -2.07809e-15 3.36263e-18)
(0.0399182 2.21183e-19 -3.36456e-20)
(0.0426083 -2.07812e-15 2.41361e-18)
(0.0426083 1.50273e-19 -3.60892e-20)
(0.045348 -2.07814e-15 1.41646e-18)
(0.045348 7.14563e-20 -3.82874e-20)
(0.0481382 -2.07818e-15 3.70748e-19)
(0.0481382 4.98661e-20 -3.98906e-20)
(0.05098 -2.07819e-15 -7.25398e-19)
(0.05098 5.50629e-21 -4.12001e-20)
(0.0538742 -2.07818e-15 -1.87221e-18)
(0.0538742 -8.69608e-20 -4.3273e-20)
(0.0568217 -2.07817e-15 -3.07357e-18)
(0.0568217 -1.74132e-19 -4.49895e-20)
(0.0598236 -2.07812e-15 -4.32863e-18)
(0.0598236 -2.77284e-19 -4.6482e-20)
(0.0628809 -2.07808e-15 -5.63974e-18)
(0.0628809 -3.94661e-19 -4.81965e-20)
(0.0659944 -2.07809e-15 -7.00648e-18)
(0.0659944 -5.38504e-19 -4.89863e-20)
(0.0691654 -2.07805e-15 -8.43445e-18)
(0.0691654 -7.27315e-19 -5.0255e-20)
(0.0723947 -2.07789e-15 -9.92243e-18)
(0.0723947 -9.11782e-19 -5.10201e-20)
(0.0756835 -2.07762e-15 -1.14729e-17)
(0.0756835 -1.23298e-18 -5.22233e-20)
(0.0790328 -2.07737e-15 -1.30814e-17)
(0.0790328 -1.44291e-18 -4.94609e-20)
(0.0824436 -2.07725e-15 -1.47552e-17)
(0.0824436 -1.53473e-18 -5.19351e-20)
(0.0859172 -2.07708e-15 -1.64962e-17)
(0.0859172 -1.7626e-18 -5.21262e-20)
(0.0894547 -2.07687e-15 -1.83024e-17)
(0.0894547 -2.04292e-18 -5.27658e-20)
(0.0930571 -2.07665e-15 -2.01791e-17)
(0.0930571 -2.32124e-18 -5.3624e-20)
(0.0967256 -2.07626e-15 -2.21254e-17)
(0.0967256 -2.69459e-18 -4.95221e-20)
(0.100461 -2.07577e-15 -2.41379e-17)
(0.100461 -3.11378e-18 -4.51377e-20)
(0.104266 -2.0755e-15 -2.6221e-17)
(0.104266 -3.34455e-18 -4.28351e-20)
(0.10814 -2.07535e-15 -2.8378e-17)
(0.10814 -3.57128e-18 -4.4514e-20)
(0.112085 -2.07504e-15 -3.06162e-17)
(0.112085 -3.84452e-18 -4.57075e-20)
(0.116101 -2.07462e-15 -3.29271e-17)
(0.116101 -4.18894e-18 -3.86063e-20)
(0.120192 -2.07424e-15 -3.53098e-17)
(0.120192 -4.64355e-18 -3.06999e-20)
(0.124357 -2.07376e-15 -3.77707e-17)
(0.124357 -5.12078e-18 -2.55639e-20)
(0.128598 -2.07327e-15 -4.03102e-17)
(0.128598 -5.81125e-18 -2.14486e-20)
(0.132916 -2.07276e-15 -4.29222e-17)
(0.132916 -6.4735e-18 -1.34099e-20)
(0.137312 -2.07203e-15 -4.56117e-17)
(0.137312 -7.23363e-18 -7.23631e-21)
(0.141788 -2.07141e-15 -4.83809e-17)
(0.141788 -8.27601e-18 -6.11206e-22)
(0.146346 -2.07031e-15 -5.12234e-17)
(0.146346 -8.95771e-18 2.78048e-20)
(0.150985 -2.06987e-15 -5.4124e-17)
(0.150985 -9.51948e-18 5.31401e-20)
(0.155708 -2.06953e-15 -5.71104e-17)
(0.155708 -1.03254e-17 6.0717e-20)
(0.160517 -2.06867e-15 -6.01711e-17)
(0.160517 -1.10018e-17 5.75497e-20)
(0.165411 -2.06783e-15 -6.33186e-17)
(0.165411 -1.14932e-17 6.80381e-20)
(0.170392 -2.06699e-15 -6.65235e-17)
(0.170392 -1.21809e-17 7.62748e-20)
(0.175463 -2.06613e-15 -6.98278e-17)
(0.175463 -1.3079e-17 8.80606e-20)
(0.180623 -2.0651e-15 -7.32207e-17)
(0.180623 -1.37378e-17 9.23134e-20)
(0.185874 -2.06366e-15 -7.66875e-17)
(0.185874 -1.46527e-17 9.39026e-20)
(0.191218 -2.06254e-15 -8.02177e-17)
(0.191218 -1.58488e-17 1.35362e-19)
(0.196654 -2.06136e-15 -8.38125e-17)
(0.196654 -1.69523e-17 1.70441e-19)
(0.202185 -2.05989e-15 -8.74678e-17)
(0.202185 -1.83482e-17 1.94059e-19)
(0.207812 -2.05812e-15 -9.11853e-17)
(0.207812 -1.97472e-17 2.00944e-19)
(0.213534 -2.05609e-15 -9.49647e-17)
(0.213534 -2.13466e-17 2.05935e-19)
(0.219353 -2.05456e-15 -9.87757e-17)
(0.219353 -2.24641e-17 2.48639e-19)
(0.22527 -2.05329e-15 -1.02621e-16)
(0.22527 -2.3263e-17 2.98792e-19)
(0.231284 -2.05189e-15 -1.06511e-16)
(0.231284 -2.47104e-17 3.24487e-19)
(0.237397 -2.05029e-15 -1.10473e-16)
(0.237397 -2.59732e-17 3.45029e-19)
(0.243609 -2.04799e-15 -1.14442e-16)
(0.243609 -2.74048e-17 3.84993e-19)
(0.249919 -2.04558e-15 -1.18426e-16)
(0.249919 -2.91631e-17 4.17112e-19)
(0.256328 -2.04355e-15 -1.22425e-16)
(0.256328 -3.04673e-17 4.32998e-19)
(0.262835 -2.04193e-15 -1.26415e-16)
(0.262835 -3.12818e-17 4.29036e-19)
(0.26944 -2.03999e-15 -1.29312e-16)
(0.26944 -3.26237e-17 4.47446e-19)
(0.276141 -2.03763e-15 -1.31858e-16)
(0.276141 -3.43841e-17 4.95901e-19)
(0.282938 -2.0347e-15 -1.34319e-16)
(0.282938 -3.58192e-17 5.44623e-19)
(0.289829 -2.03151e-15 -1.36713e-16)
(0.289829 -3.7898e-17 5.94361e-19)
(0.296812 -2.0284e-15 -1.39002e-16)
(0.296812 -4.09293e-17 5.79608e-19)
(0.303886 -2.02608e-15 -1.41179e-16)
(0.303886 -4.30135e-17 5.99661e-19)
(0.311047 -2.0244e-15 -1.432e-16)
(0.311047 -4.46388e-17 6.47685e-19)
(0.318294 -2.02207e-15 -1.4509e-16)
(0.318294 -4.59301e-17 6.92774e-19)
(0.325622 -2.019e-15 -1.46792e-16)
(0.325622 -4.7662e-17 7.20611e-19)
(0.33303 -2.01535e-15 -1.48419e-16)
(0.33303 -5.07791e-17 7.14704e-19)
(0.340512 -2.01158e-15 -1.49927e-16)
(0.340512 -5.31328e-17 6.76948e-19)
(0.348064 -2.00808e-15 -1.51346e-16)
(0.348064 -5.64812e-17 6.95023e-19)
(0.355683 -2.00482e-15 -1.52716e-16)
(0.355683 -5.82259e-17 8.10647e-19)
(0.363363 -2.00166e-15 -1.53943e-16)
(0.363363 -6.10631e-17 7.70193e-19)
(0.371099 -1.99808e-15 -1.5494e-16)
(0.371099 -6.40261e-17 6.28836e-19)
(0.378886 -1.99372e-15 -1.55739e-16)
(0.378886 -6.60288e-17 6.20124e-19)
(0.386719 -1.98919e-15 -1.56496e-16)
(0.386719 -6.87099e-17 7.96267e-19)
(0.394591 -1.98553e-15 -1.57185e-16)
(0.394591 -7.2485e-17 7.69198e-19)
(0.402496 -1.98165e-15 -1.57807e-16)
(0.402496 -7.6961e-17 7.37828e-19)
(0.41043 -1.97742e-15 -1.58479e-16)
(0.41043 -7.86627e-17 8.20914e-19)
(0.418385 -1.97512e-15 -1.59043e-16)
(0.418385 -7.99804e-17 8.2775e-19)
(0.426356 -1.97342e-15 -1.5926e-16)
(0.426356 -8.25808e-17 6.37761e-19)
(0.434336 -1.97027e-15 -1.59268e-16)
(0.434336 -8.48575e-17 6.726e-19)
(0.442319 -1.96545e-15 -1.59047e-16)
(0.442319 -8.84529e-17 6.267e-19)
(0.450301 -1.96091e-15 -1.5867e-16)
(0.450301 -9.26375e-17 5.01381e-19)
(0.458274 -1.95398e-15 -1.58217e-16)
(0.458274 -9.66216e-17 4.64472e-19)
(0.466234 -1.94916e-15 -1.57775e-16)
(0.466234 -1.00827e-16 5.618e-19)
(0.474175 -1.9447e-15 -1.57354e-16)
(0.474175 -1.0524e-16 5.3517e-19)
(0.482092 -1.93987e-15 -1.56803e-16)
(0.482092 -1.08553e-16 3.90483e-19)
(0.48998 -1.93427e-15 -1.5621e-16)
(0.48998 -1.11997e-16 2.13501e-19)
(0.497836 -1.92919e-15 -1.55615e-16)
(0.497836 -1.15195e-16 5.32266e-20)
(0.505654 -1.92503e-15 -1.54976e-16)
(0.505654 -1.18229e-16 -6.9516e-20)
(0.513431 -1.91773e-15 -1.54475e-16)
(0.513431 -1.21583e-16 -3.0102e-20)
(0.521164 -1.90949e-15 -1.54236e-16)
(0.521164 -1.26239e-16 -3.6664e-19)
(0.528848 -1.90182e-15 -1.5406e-16)
(0.528848 -1.31417e-16 -8.03438e-19)
(0.536482 -1.89395e-15 -1.54487e-16)
(0.536482 -1.35961e-16 -8.38051e-19)
(0.544063 -1.88711e-15 -1.5533e-16)
(0.544063 -1.41328e-16 -9.23049e-19)
(0.551589 -1.88023e-15 -1.56813e-16)
(0.551589 -1.4707e-16 -1.06024e-18)
(0.559056 -1.87811e-15 -1.58713e-16)
(0.559056 -1.50819e-16 -1.19595e-18)
(0.566465 -1.87243e-15 -1.60234e-16)
(0.566465 -1.50438e-16 -1.6216e-18)
(0.573812 -1.86886e-15 -1.61843e-16)
(0.573812 -1.5263e-16 -1.53408e-18)
(0.581098 -1.86237e-15 -1.63658e-16)
(0.581098 -1.55381e-16 -1.52534e-18)
(0.58832 -1.85786e-15 -1.65497e-16)
(0.58832 -1.59891e-16 -1.52152e-18)
(0.595479 -1.85313e-15 -1.67401e-16)
(0.595479 -1.63235e-16 -1.39517e-18)
(0.602574 -1.8467e-15 -1.68978e-16)
(0.602574 -1.6867e-16 -1.511e-18)
(0.609603 -1.83899e-15 -1.70254e-16)
(0.609603 -1.74831e-16 -1.63587e-18)
(0.616568 -1.83087e-15 -1.71189e-16)
(0.616568 -1.79024e-16 -1.88809e-18)
(0.623468 -1.82363e-15 -1.72151e-16)
(0.623468 -1.8448e-16 -1.83081e-18)
(0.630303 -1.81304e-15 -1.72781e-16)
(0.630303 -1.92086e-16 -1.96815e-18)
(0.637074 -1.79933e-15 -1.73424e-16)
(0.637074 -2.02133e-16 -2.22245e-18)
(0.64378 -1.78447e-15 -1.73729e-16)
(0.64378 -2.09472e-16 -2.52759e-18)
(0.650421 -1.7723e-15 -1.7418e-16)
(0.650421 -2.15772e-16 -2.6843e-18)
(0.657 -1.76098e-15 -1.74604e-16)
(0.657 -2.25197e-16 -2.81514e-18)
(0.663516 -1.75163e-15 -1.75179e-16)
(0.663516 -2.30913e-16 -2.97596e-18)
(0.669969 -1.74805e-15 -1.7518e-16)
(0.669969 -2.35101e-16 -3.32388e-18)
(0.676361 -1.7404e-15 -1.749e-16)
(0.676361 -2.37592e-16 -3.75186e-18)
(0.682692 -1.73033e-15 -1.74892e-16)
(0.682692 -2.45416e-16 -3.86281e-18)
(0.688963 -1.7215e-15 -1.75356e-16)
(0.688963 -2.54309e-16 -3.80212e-18)
(0.695175 -1.70864e-15 -1.76176e-16)
(0.695175 -2.6187e-16 -3.72671e-18)
(0.701329 -1.69933e-15 -1.77953e-16)
(0.701329 -2.75659e-16 -3.80505e-18)
(0.707426 -1.69266e-15 -1.79557e-16)
(0.707426 -2.83375e-16 -3.82521e-18)
(0.713466 -1.68557e-15 -1.81505e-16)
(0.713466 -2.92286e-16 -3.73903e-18)
(0.719451 -1.6724e-15 -1.83138e-16)
(0.719451 -3.03306e-16 -3.76376e-18)
(0.725382 -1.65692e-15 -1.85266e-16)
(0.725382 -3.14553e-16 -4.18224e-18)
(0.731259 -1.64628e-15 -1.87024e-16)
(0.731259 -3.2426e-16 -4.3139e-18)
(0.737083 -1.63281e-15 -1.88825e-16)
(0.737083 -3.33688e-16 -4.47728e-18)
(0.742856 -1.62139e-15 -1.90815e-16)
(0.742856 -3.45921e-16 -4.43052e-18)
(0.748578 -1.60918e-15 -1.92416e-16)
(0.748578 -3.56459e-16 -5.14812e-18)
(0.754251 -1.59372e-15 -1.93606e-16)
(0.754251 -3.69198e-16 -5.56774e-18)
(0.759875 -1.58118e-15 -1.95135e-16)
(0.759875 -3.79217e-16 -5.46834e-18)
(0.765451 -1.56945e-15 -1.95501e-16)
(0.765451 -3.90594e-16 -6.17769e-18)
(0.77098 -1.55755e-15 -1.94906e-16)
(0.77098 -3.98934e-16 -7.21404e-18)
(0.776464 -1.54393e-15 -1.94094e-16)
(0.776464 -4.09087e-16 -7.13845e-18)
(0.781903 -1.52926e-15 -1.93528e-16)
(0.781903 -4.25929e-16 -6.66347e-18)
(0.787297 -1.51533e-15 -1.92752e-16)
(0.787297 -4.37516e-16 -3.97694e-18)
(0.792648 -1.5006e-15 -1.91793e-16)
(0.792648 -4.47724e-16 5.21446e-19)
(0.797957 -1.48273e-15 -1.90792e-16)
(0.797957 -4.58167e-16 5.34301e-18)
(0.803225 -1.46526e-15 -1.90619e-16)
(0.803225 -4.7159e-16 1.03589e-17)
(0.808452 -1.45308e-15 -1.90396e-16)
(0.808452 -4.81221e-16 1.3614e-17)
(0.813639 -1.43946e-15 -1.89553e-16)
(0.813639 -4.83136e-16 1.77385e-17)
(0.818787 -1.41643e-15 -1.87283e-16)
(0.818787 -4.92874e-16 1.99662e-17)
(0.823897 -1.39187e-15 -1.86225e-16)
(0.823897 -5.02586e-16 1.68587e-17)
(0.82897 -1.37522e-15 -1.83811e-16)
(0.82897 -5.10188e-16 1.27232e-17)
(0.834005 -1.36731e-15 -1.81114e-16)
(0.834005 -5.1959e-16 8.74217e-18)
(0.839005 -1.35705e-15 -1.73333e-16)
(0.839005 -5.28817e-16 3.42552e-18)
(0.843969 -1.34206e-15 -1.66933e-16)
(0.843969 -5.34373e-16 2.3347e-19)
(0.848899 -1.32715e-15 -1.61421e-16)
(0.848899 -5.41738e-16 -3.13434e-18)
(0.853795 -1.30435e-15 -1.61628e-16)
(0.853795 -5.47976e-16 -7.57419e-18)
(0.858658 -1.28605e-15 -1.6245e-16)
(0.858658 -5.54662e-16 -1.3046e-17)
(0.863488 -1.27349e-15 -1.62894e-16)
(0.863488 -5.62516e-16 -1.92235e-17)
(0.868286 -1.25827e-15 -1.62035e-16)
(0.868286 -5.63081e-16 -2.59278e-17)
(0.873052 -1.24066e-15 -1.59312e-16)
(0.873052 -5.76769e-16 -3.16029e-17)
(0.877788 -1.21977e-15 -1.54095e-16)
(0.877788 -5.81959e-16 -3.74167e-17)
(0.882494 -1.19671e-15 -1.51748e-16)
(0.882494 -5.90329e-16 -4.20923e-17)
(0.887169 -1.17918e-15 -1.49438e-16)
(0.887169 -5.95329e-16 -4.48625e-17)
(0.891816 -1.16889e-15 -1.46972e-16)
(0.891816 -5.86404e-16 -4.85286e-17)
(0.896433 -1.15689e-15 -1.45312e-16)
(0.896433 -5.92503e-16 -5.49364e-17)
(0.901023 -1.14111e-15 -1.44611e-16)
(0.901023 -5.96295e-16 -6.02546e-17)
(0.905584 -1.12582e-15 -1.44362e-16)
(0.905584 -5.96656e-16 -6.59662e-17)
(0.910118 -1.10574e-15 -1.44027e-16)
(0.910118 -6.0176e-16 -6.88342e-17)
(0.914626 -1.08423e-15 -1.48171e-16)
(0.914626 -6.06395e-16 -7.15214e-17)
(0.919107 -1.07208e-15 -1.54202e-16)
(0.919107 -6.10992e-16 -7.3474e-17)
(0.923561 -1.05086e-15 -1.57316e-16)
(0.923561 -6.10862e-16 -7.53751e-17)
(0.92799 -1.03127e-15 -1.58063e-16)
(0.92799 -6.06752e-16 -7.89665e-17)
(0.932394 -1.02309e-15 -1.54776e-16)
(0.932394 -5.95801e-16 -8.32615e-17)
(0.936772 -1.011e-15 -1.51932e-16)
(0.936772 -5.86492e-16 -8.58904e-17)
(0.941126 -9.97118e-16 -1.46219e-16)
(0.941126 -5.90969e-16 -8.75159e-17)
(0.945455 -9.78335e-16 -1.41478e-16)
(0.945455 -6.0395e-16 -8.55461e-17)
(0.94976 -9.61285e-16 -1.36636e-16)
(0.94976 -5.99784e-16 -8.25602e-17)
(0.95404 -9.50917e-16 -1.31199e-16)
(0.95404 -6.03347e-16 -7.71974e-17)
(0.958298 -9.40194e-16 -1.26858e-16)
(0.958298 -5.98052e-16 -7.31889e-17)
(0.962531 -9.20936e-16 -1.19393e-16)
(0.962531 -6.00491e-16 -7.23381e-17)
(0.966742 -8.81142e-16 -1.15246e-16)
(0.966742 -6.1365e-16 -7.51853e-17)
(0.970929 -8.62879e-16 -1.1582e-16)
(0.970929 -6.03092e-16 -7.79868e-17)
(0.975094 -8.31033e-16 -1.12411e-16)
(0.975094 -5.99262e-16 -8.22915e-17)
(0.979235 -8.29466e-16 -1.11832e-16)
(0.979235 -6.00949e-16 -9.23507e-17)
(0.983354 -8.14881e-16 -1.08621e-16)
(0.983354 -6.12742e-16 -9.67439e-17)
(0.98745 -8.06952e-16 -1.14427e-16)
(0.98745 -6.33033e-16 -9.74955e-17)
(0.991523 -7.91074e-16 -1.14814e-16)
(0.991523 -6.55569e-16 -9.53414e-17)
(0.995575 -7.75404e-16 -1.19496e-16)
(0.995575 -6.5739e-16 -9.67811e-17)
(0.999603 -7.65226e-16 -1.25313e-16)
(0.999603 -6.52589e-16 -1.00421e-16)
(1.00361 -7.52781e-16 -1.32649e-16)
(1.00361 -6.65051e-16 -1.05392e-16)
(1.00759 -7.50011e-16 -1.36484e-16)
(1.00759 -6.74983e-16 -1.12992e-16)
(1.01155 -7.38691e-16 -1.38389e-16)
(1.01155 -6.75094e-16 -1.04756e-16)
(1.01549 -7.25507e-16 -1.42749e-16)
(1.01549 -6.89216e-16 -1.06001e-16)
(1.01941 -7.19334e-16 -1.46013e-16)
(1.01941 -6.9706e-16 -9.46045e-17)
(1.0233 -7.07371e-16 -1.47113e-16)
(1.0233 -6.97641e-16 -9.49689e-17)
(1.02717 -7.15887e-16 -1.47334e-16)
(1.02717 -7.02161e-16 -8.85093e-17)
(1.03102 -7.19886e-16 -1.43969e-16)
(1.03102 -6.93807e-16 -9.27674e-17)
(1.03484 -6.91108e-16 -1.34639e-16)
(1.03484 -6.65293e-16 -9.57408e-17)
(1.03864 -7.19185e-16 -1.30344e-16)
(1.03864 -6.54378e-16 -9.67553e-17)
(1.04242 -6.93827e-16 -1.20716e-16)
(1.04242 -6.34934e-16 -1.03161e-16)
(1.04617 -6.83217e-16 -1.06395e-16)
(1.04617 -6.22468e-16 -9.78283e-17)
(1.04989 -6.65818e-16 -9.55679e-17)
(1.04989 -6.21589e-16 -1.05243e-16)
(1.0536 -6.5683e-16 -8.16339e-17)
(1.0536 -6.164e-16 -1.17891e-16)
(1.05727 -6.15386e-16 -7.6422e-17)
(1.05727 -6.28379e-16 -1.23496e-16)
(1.06092 -5.93565e-16 -7.60947e-17)
(1.06092 -5.68155e-16 -1.15522e-16)
(1.06455 -5.64948e-16 -6.68607e-17)
(1.06455 -5.92898e-16 -1.17879e-16)
(1.06814 -5.46767e-16 -8.25357e-17)
(1.06814 -6.09934e-16 -1.09222e-16)
(1.07171 -5.44193e-16 -8.55642e-17)
(1.07171 -5.3576e-16 -1.07466e-16)
(1.07525 -5.11625e-16 -8.56956e-17)
(1.07525 -5.16386e-16 -1.18152e-16)
(1.07877 -5.07529e-16 -8.45098e-17)
(1.07877 -4.85185e-16 -1.14605e-16)
(1.08225 -4.91873e-16 -8.92376e-17)
(1.08225 -5.08034e-16 -1.11684e-16)
(1.0857 -5.47501e-16 -1.00344e-16)
(1.0857 -5.40756e-16 -9.67141e-17)
(1.08912 -5.2908e-16 -1.04411e-16)
(1.08912 -5.2712e-16 -8.7716e-17)
(1.09251 -5.32952e-16 -1.39461e-16)
(1.09251 -5.61238e-16 -1.02089e-16)
(1.09586 -5.4416e-16 -1.74068e-16)
(1.09586 -5.40164e-16 -9.45499e-17)
(1.09919 -5.44169e-16 -1.79576e-16)
(1.09919 -5.1515e-16 -7.91233e-17)
(1.10247 -5.4777e-16 -1.63871e-16)
(1.10247 -5.33521e-16 -6.8381e-17)
(1.10572 -5.26466e-16 -1.51527e-16)
(1.10572 -5.28275e-16 -7.84216e-17)
(1.10892 -4.9155e-16 -1.58582e-16)
(1.10892 -5.38097e-16 -7.8256e-17)
(1.11209 -5.275e-16 -1.31459e-16)
(1.11209 -5.4507e-16 -7.22227e-17)
(1.11522 -5.1866e-16 -1.30972e-16)
(1.11522 -5.0143e-16 -8.63327e-17)
(1.1183 -5.10762e-16 -1.30291e-16)
(1.1183 -4.8592e-16 -9.54058e-17)
(1.12134 -5.49503e-16 -1.02782e-16)
(1.12134 -5.00665e-16 -9.91449e-17)
(1.12433 -5.24556e-16 -8.94847e-17)
(1.12433 -5.00436e-16 -1.01072e-16)
(1.12727 -5.089e-16 -8.42274e-17)
(1.12727 -5.43343e-16 -8.87075e-17)
(1.13016 -4.86535e-16 -9.63241e-17)
(1.13016 -5.07577e-16 -8.65104e-17)
(1.13299 -4.86447e-16 -1.08758e-16)
(1.13299 -4.81738e-16 -7.40657e-17)
(1.13577 -4.69421e-16 -1.2641e-16)
(1.13577 -5.26147e-16 -5.28251e-17)
(1.13849 -4.86709e-16 -1.23841e-16)
(1.13849 -5.19699e-16 -5.01998e-17)
(1.14114 -4.48007e-16 -1.31643e-16)
(1.14114 -5.02566e-16 -5.33771e-17)
(1.14372 -4.26477e-16 -1.55014e-16)
(1.14372 -5.20299e-16 -6.24672e-17)
(1.14623 -4.33956e-16 -1.7032e-16)
(1.14623 -5.18659e-16 -6.76168e-17)
(1.14867 -4.28643e-16 -1.64723e-16)
(1.14867 -4.80431e-16 -7.01327e-17)
(1.15103 -4.47844e-16 -1.25757e-16)
(1.15103 -5.03725e-16 -6.16198e-17)
(1.1533 -5.04656e-16 -1.62778e-16)
(1.1533 -4.94109e-16 -3.73647e-17)
(1.15548 -4.45752e-16 -1.63374e-16)
(1.15548 -4.58354e-16 -7.0777e-17)
(1.15756 -4.82853e-16 -1.16734e-16)
(1.15756 -4.41231e-16 -5.28566e-17)
(1.15954 -5.0007e-16 -1.26038e-16)
(1.15954 -4.39594e-16 -4.64516e-17)
(1.16141 -5.07881e-16 -1.47153e-16)
(1.16141 -4.54294e-16 -7.42297e-17)
(1.16316 -4.75876e-16 -1.48229e-16)
(1.16316 -4.23154e-16 -8.6924e-17)
(1.16478 -5.1511e-16 -9.40647e-17)
(1.16478 -3.83605e-16 -6.91536e-17)
(1.16627 -4.42978e-16 -5.65107e-17)
(1.16627 -3.9357e-16 -5.97478e-17)
(1.16761 -3.59708e-16 -7.19858e-17)
(1.16761 -3.45731e-16 -2.88905e-17)
(1.16879 -2.89119e-16 -1.05094e-16)
(1.16879 -3.43631e-16 5.69603e-18)
(1.16981 -2.94284e-16 -1.26724e-16)
(1.16981 -3.66949e-16 8.84696e-18)
(1.17065 -4.03812e-16 -1.79182e-16)
(1.17065 -3.19168e-16 -7.89649e-18)
(1.1713 -3.56284e-16 -1.56575e-16)
(1.1713 -2.59767e-16 -3.03757e-17)
(1.17175 -2.91139e-16 -7.9948e-17)
(1.17175 -2.8366e-16 -5.4151e-17)
(1.17197 -2.4978e-16 -4.46829e-17)
(1.17197 -2.79201e-16 -6.1964e-17)
(0.000976391 -4.83703e-20 -2.32222e-19)
(0.000976391 6.17424e-21 2.57776e-18)
(0.00294704 6.98936e-20 -2.90319e-18)
(0.00294704 2.02005e-20 9.34222e-18)
(0.0049541 5.14895e-20 -3.00985e-18)
(0.0049541 4.81866e-20 9.68859e-18)
(0.00699826 9.62345e-20 -3.11856e-18)
(0.00699826 7.70885e-20 1.00438e-17)
(0.00908019 1.29441e-19 -3.22926e-18)
(0.00908019 1.07874e-19 1.04077e-17)
(0.0112006 1.6427e-19 -3.34178e-18)
(0.0112006 1.45327e-19 1.07802e-17)
(0.0133602 1.94963e-19 -3.45604e-18)
(0.0133602 1.90691e-19 1.11612e-17)
(0.0155597 2.2774e-19 -3.57201e-18)
(0.0155597 2.3496e-19 1.15508e-17)
(0.0177998 2.53315e-19 -3.68946e-18)
(0.0177998 2.85895e-19 1.1949e-17)
(0.0200814 2.763e-19 -3.80816e-18)
(0.0200814 3.37045e-19 1.23554e-17)
(0.0224051 3.15013e-19 -3.92812e-18)
(0.0224051 3.67434e-19 1.27701e-17)
(0.0247717 3.62629e-19 -4.0487e-18)
(0.0247717 3.94097e-19 1.31928e-17)
(0.027182 3.9754e-19 -4.16969e-18)
(0.027182 4.21969e-19 1.36235e-17)
(0.0296369 3.97094e-19 -4.29108e-18)
(0.0296369 4.71557e-19 1.40622e-17)
(0.0321371 3.86078e-19 -4.41375e-18)
(0.0321371 5.56224e-19 1.45088e-17)
(0.0346835 3.94118e-19 -4.53766e-18)
(0.0346835 6.6387e-19 1.49637e-17)
(0.0372769 4.11607e-19 -4.66211e-18)
(0.0372769 7.59318e-19 1.54265e-17)
(0.0399182 4.35965e-19 -4.78731e-18)
(0.0399182 8.32499e-19 1.58975e-17)
(0.0426083 4.56078e-19 -4.91166e-18)
(0.0426083 8.93185e-19 1.63755e-17)
(0.045348 4.84028e-19 -5.03532e-18)
(0.045348 9.47758e-19 1.68607e-17)
(0.0481382 5.30671e-19 -5.15824e-18)
(0.0481382 1.00811e-18 1.7353e-17)
(0.05098 5.41501e-19 -5.27889e-18)
(0.05098 1.06386e-18 1.78508e-17)
(0.0538742 5.46171e-19 -5.39717e-18)
(0.0538742 1.10862e-18 1.83538e-17)
(0.0568217 5.80611e-19 -5.51158e-18)
(0.0568217 1.17303e-18 1.88617e-17)
(0.0598236 6.22635e-19 -5.62336e-18)
(0.0598236 1.22832e-18 1.93748e-17)
(0.0628809 6.44069e-19 -5.73019e-18)
(0.0628809 1.23289e-18 1.98904e-17)
(0.0659944 6.66931e-19 -5.83129e-18)
(0.0659944 1.29318e-18 2.04088e-17)
(0.0691654 6.87202e-19 -5.92808e-18)
(0.0691654 1.40653e-18 2.09311e-17)
(0.0723947 7.50465e-19 -6.02098e-18)
(0.0723947 1.4657e-18 2.14573e-17)
(0.0756835 8.16748e-19 -6.10485e-18)
(0.0756835 1.49759e-18 2.19839e-17)
(0.0790328 8.0726e-19 -6.18415e-18)
(0.0790328 1.54357e-18 2.25144e-17)
(0.0824436 7.37145e-19 -6.25781e-18)
(0.0824436 1.64386e-18 2.30434e-17)
(0.0859172 6.6558e-19 -6.32813e-18)
(0.0859172 1.6634e-18 2.35736e-17)
(0.0894547 6.35577e-19 -6.38995e-18)
(0.0894547 1.63804e-18 2.41013e-17)
(0.0930571 5.81464e-19 -6.44668e-18)
(0.0930571 1.78087e-18 2.46292e-17)
(0.0967256 5.41317e-19 -6.49579e-18)
(0.0967256 1.84446e-18 2.51546e-17)
(0.100461 5.64006e-19 -6.53786e-18)
(0.100461 1.88884e-18 2.56787e-17)
(0.104266 6.01256e-19 -6.57004e-18)
(0.104266 1.98852e-18 2.61985e-17)
(0.10814 5.36049e-19 -6.59118e-18)
(0.10814 2.02572e-18 2.67121e-17)
(0.112085 3.90646e-19 -6.60459e-18)
(0.112085 2.16599e-18 2.72197e-17)
(0.116101 2.56615e-19 -6.60678e-18)
(0.116101 2.39861e-18 2.77208e-17)
(0.120192 1.42554e-19 -6.59559e-18)
(0.120192 2.37811e-18 2.82151e-17)
(0.124357 5.66185e-20 -6.57201e-18)
(0.124357 2.4665e-18 2.87e-17)
(0.128598 -4.45497e-20 -6.53658e-18)
(0.128598 2.60214e-18 2.91743e-17)
(0.132916 -1.23059e-19 -6.48567e-18)
(0.132916 2.8354e-18 2.9636e-17)
(0.137312 -3.79717e-19 -6.41478e-18)
(0.137312 3.32248e-18 3.00816e-17)
(0.141788 -7.41357e-19 -6.34006e-18)
(0.141788 3.37244e-18 3.05167e-17)
(0.146346 -8.54888e-19 -6.24725e-18)
(0.146346 3.45715e-18 3.0941e-17)
(0.150985 -8.99177e-19 -6.13645e-18)
(0.150985 3.72605e-18 3.1346e-17)
(0.155708 -1.06314e-18 -6.00312e-18)
(0.155708 3.61838e-18 3.17298e-17)
(0.160517 -1.20688e-18 -5.85387e-18)
(0.160517 3.48349e-18 3.20908e-17)
(0.165411 -1.25495e-18 -5.68297e-18)
(0.165411 3.63403e-18 3.24291e-17)
(0.170392 -1.46115e-18 -5.48188e-18)
(0.170392 3.57965e-18 3.27356e-17)
(0.175463 -1.73697e-18 -5.268e-18)
(0.175463 3.53639e-18 3.30348e-17)
(0.180623 -1.82676e-18 -5.03501e-18)
(0.180623 3.79445e-18 3.3314e-17)
(0.185874 -1.93557e-18 -4.78092e-18)
(0.185874 3.77555e-18 3.35569e-17)
(0.191218 -2.14559e-18 -4.50864e-18)
(0.191218 3.79752e-18 3.3786e-17)
(0.196654 -2.19382e-18 -4.19888e-18)
(0.196654 3.95697e-18 3.39823e-17)
(0.202185 -2.36563e-18 -3.85356e-18)
(0.202185 4.14874e-18 3.41465e-17)
(0.207812 -2.68234e-18 -3.4839e-18)
(0.207812 4.29155e-18 3.42751e-17)
(0.213534 -2.83485e-18 -3.08003e-18)
(0.213534 4.42068e-18 3.4352e-17)
(0.219353 -2.97367e-18 -2.64376e-18)
(0.219353 4.72916e-18 3.43933e-17)
(0.22527 -3.29396e-18 -2.17394e-18)
(0.22527 5.05776e-18 3.43994e-17)
(0.231284 -3.72052e-18 -1.69297e-18)
(0.231284 5.63693e-18 3.4378e-17)
(0.237397 -4.09145e-18 -1.194e-18)
(0.237397 5.6416e-18 3.43212e-17)
(0.243609 -4.27029e-18 -6.56961e-19)
(0.243609 5.46691e-18 3.42186e-17)
(0.249919 -4.367e-18 -5.83014e-20)
(0.249919 5.68356e-18 3.40695e-17)
(0.256328 -4.83693e-18 5.70846e-19)
(0.256328 5.45085e-18 3.3887e-17)
(0.262835 -5.36277e-18 1.22744e-18)
(0.262835 4.46487e-18 3.36512e-17)
(0.26944 -6.00739e-18 1.92617e-18)
(0.26944 4.28958e-18 3.33456e-17)
(0.276141 -6.63591e-18 2.64613e-18)
(0.276141 4.47353e-18 3.29932e-17)
(0.282938 -7.02356e-18 3.39067e-18)
(0.282938 3.62647e-18 3.25909e-17)
(0.289829 -7.81631e-18 4.14042e-18)
(0.289829 3.5867e-18 3.21627e-17)
(0.296812 -8.8933e-18 4.87425e-18)
(0.296812 3.29147e-18 3.17033e-17)
(0.303886 -1.01651e-17 5.57906e-18)
(0.303886 2.95852e-18 3.12213e-17)
(0.311047 -1.18844e-17 6.29121e-18)
(0.311047 3.65912e-18 3.07119e-17)
(0.318294 -1.2871e-17 6.98041e-18)
(0.318294 4.87599e-18 3.01804e-17)
(0.325622 -1.32376e-17 7.73115e-18)
(0.325622 4.51469e-18 2.95759e-17)
(0.33303 -1.39123e-17 8.45175e-18)
(0.33303 3.60187e-18 2.90207e-17)
(0.340512 -1.43582e-17 9.15343e-18)
(0.340512 4.16311e-18 2.84864e-17)
(0.348064 -1.46535e-17 9.88837e-18)
(0.348064 3.88384e-18 2.79518e-17)
(0.355683 -1.49246e-17 1.06569e-17)
(0.355683 3.524e-18 2.7456e-17)
(0.363363 -1.53709e-17 1.1386e-17)
(0.363363 3.17707e-18 2.70078e-17)
(0.371099 -1.58825e-17 1.2041e-17)
(0.371099 2.38253e-18 2.66043e-17)
(0.378886 -1.60182e-17 1.26155e-17)
(0.378886 2.36295e-18 2.62046e-17)
(0.386719 -1.63107e-17 1.31952e-17)
(0.386719 2.80594e-18 2.58948e-17)
(0.394591 -1.60859e-17 1.37992e-17)
(0.394591 2.32524e-18 2.56003e-17)
(0.402496 -1.55284e-17 1.43423e-17)
(0.402496 2.07465e-18 2.54813e-17)
(0.41043 -1.61872e-17 1.49019e-17)
(0.41043 2.39939e-18 2.54295e-17)
(0.418385 -1.76027e-17 1.53792e-17)
(0.418385 1.80164e-18 2.54523e-17)
(0.426356 -1.92662e-17 1.579e-17)
(0.426356 8.00505e-19 2.53668e-17)
(0.434336 -2.09453e-17 1.61516e-17)
(0.434336 1.23661e-18 2.53157e-17)
(0.442319 -2.26256e-17 1.64831e-17)
(0.442319 7.59209e-19 2.52115e-17)
(0.450301 -2.38567e-17 1.66877e-17)
(0.450301 -4.51844e-19 2.51272e-17)
(0.458274 -2.38515e-17 1.68784e-17)
(0.458274 6.93417e-19 2.51078e-17)
(0.466234 -2.31937e-17 1.71246e-17)
(0.466234 1.45685e-18 2.51314e-17)
(0.474175 -2.30561e-17 1.74182e-17)
(0.474175 -1.06e-18 2.51746e-17)
(0.482092 -2.34185e-17 1.76418e-17)
(0.482092 -2.344e-18 2.52479e-17)
(0.48998 -2.37424e-17 1.78293e-17)
(0.48998 -2.53217e-18 2.52957e-17)
(0.497836 -2.50402e-17 1.78418e-17)
(0.497836 -4.24633e-18 2.55074e-17)
(0.505654 -2.73541e-17 1.77409e-17)
(0.505654 -3.3403e-18 2.57559e-17)
(0.513431 -3.03898e-17 1.75276e-17)
(0.513431 -2.94394e-18 2.61832e-17)
(0.521164 -3.1544e-17 1.71898e-17)
(0.521164 -5.50049e-18 2.66249e-17)
(0.528848 -2.99952e-17 1.67075e-17)
(0.528848 -5.35537e-18 2.72478e-17)
(0.536482 -3.00949e-17 1.65247e-17)
(0.536482 -3.06737e-18 2.80532e-17)
(0.544063 -3.16493e-17 1.6154e-17)
(0.544063 -3.33871e-18 2.91257e-17)
(0.551589 -3.19449e-17 1.58829e-17)
(0.551589 -2.78679e-18 3.05431e-17)
(0.559056 -3.14665e-17 1.56711e-17)
(0.559056 8.96873e-19 3.23305e-17)
(0.566465 -3.36528e-17 1.54606e-17)
(0.566465 4.65108e-18 3.39855e-17)
(0.573812 -3.74816e-17 1.4979e-17)
(0.573812 7.25021e-18 3.57957e-17)
(0.581098 -3.81938e-17 1.41027e-17)
(0.581098 1.16583e-17 3.78405e-17)
(0.58832 -3.68422e-17 1.31345e-17)
(0.58832 1.43877e-17 4.0128e-17)
(0.595479 -3.54298e-17 1.21913e-17)
(0.595479 1.34329e-17 4.24298e-17)
(0.602574 -3.51005e-17 1.13652e-17)
(0.602574 1.27928e-17 4.46151e-17)
(0.609603 -3.43826e-17 1.04093e-17)
(0.609603 1.15882e-17 4.67747e-17)
(0.616568 -3.15958e-17 9.51209e-18)
(0.616568 1.07945e-17 4.88547e-17)
(0.623468 -3.03877e-17 8.72119e-18)
(0.623468 1.2812e-17 5.1088e-17)
(0.630303 -3.38065e-17 7.6527e-18)
(0.630303 1.27994e-17 5.34795e-17)
(0.637074 -3.82318e-17 6.07278e-18)
(0.637074 1.32644e-17 5.60887e-17)
(0.64378 -3.85722e-17 4.39722e-18)
(0.64378 1.39665e-17 5.85472e-17)
(0.650421 -3.83898e-17 3.01447e-18)
(0.650421 1.38972e-17 6.06091e-17)
(0.657 -3.69886e-17 2.20885e-18)
(0.657 1.38927e-17 6.21048e-17)
(0.663516 -3.52046e-17 1.77104e-18)
(0.663516 1.26746e-17 6.32529e-17)
(0.669969 -3.39204e-17 1.3037e-18)
(0.669969 8.22995e-18 6.40529e-17)
(0.676361 -3.40372e-17 1.82836e-18)
(0.676361 6.69178e-18 6.37901e-17)
(0.682692 -3.46147e-17 2.26308e-18)
(0.682692 5.21028e-18 6.32697e-17)
(0.688963 -3.3411e-17 3.13632e-18)
(0.688963 2.45483e-18 6.24077e-17)
(0.695175 -3.35373e-17 4.00974e-18)
(0.695175 9.07794e-18 6.14903e-17)
(0.701329 -3.52543e-17 4.67057e-18)
(0.701329 1.44064e-17 6.07396e-17)
(0.707426 -3.52669e-17 4.93213e-18)
(0.707426 1.60933e-17 6.03529e-17)
(0.713466 -3.36275e-17 4.68105e-18)
(0.713466 1.83672e-17 6.04545e-17)
(0.719451 -3.23853e-17 4.64848e-18)
(0.719451 1.98482e-17 6.02795e-17)
(0.725382 -3.04244e-17 5.06667e-18)
(0.725382 1.93607e-17 5.93761e-17)
(0.731259 -2.97075e-17 5.95225e-18)
(0.731259 1.71874e-17 5.81491e-17)
(0.737083 -2.84621e-17 7.0414e-18)
(0.737083 2.07542e-17 5.70279e-17)
(0.742856 -2.95292e-17 7.66522e-18)
(0.742856 2.42898e-17 5.6714e-17)
(0.748578 -3.19969e-17 8.98421e-18)
(0.748578 2.29358e-17 5.53408e-17)
(0.754251 -3.25825e-17 1.04826e-17)
(0.754251 2.44645e-17 5.36766e-17)
(0.759875 -3.24667e-17 1.19712e-17)
(0.759875 2.60626e-17 5.23862e-17)
(0.765451 -3.53321e-17 1.27241e-17)
(0.765451 1.79978e-17 5.08231e-17)
(0.77098 -3.99069e-17 1.40381e-17)
(0.77098 1.53817e-17 4.74404e-17)
(0.776464 -4.10935e-17 1.53555e-17)
(0.776464 1.75055e-17 4.37174e-17)
(0.781903 -3.82783e-17 1.58594e-17)
(0.781903 1.67382e-17 3.78598e-17)
(0.787297 -3.62017e-17 1.61303e-17)
(0.787297 1.81396e-17 3.10008e-17)
(0.792648 -3.6083e-17 1.64433e-17)
(0.792648 1.58491e-17 2.32755e-17)
(0.797957 -4.04717e-17 1.68602e-17)
(0.797957 1.57868e-17 1.59568e-17)
(0.803225 -5.09995e-17 1.66746e-17)
(0.803225 1.76813e-17 1.02929e-17)
(0.808452 -5.73827e-17 1.64541e-17)
(0.808452 1.79565e-17 3.02293e-18)
(0.813639 -5.88101e-17 1.68061e-17)
(0.813639 1.94263e-17 -8.80752e-19)
(0.818787 -6.7531e-17 1.74471e-17)
(0.818787 1.05314e-17 2.27149e-18)
(0.823897 -7.88333e-17 1.53886e-17)
(0.823897 7.00419e-18 5.30953e-18)
(0.82897 -7.81138e-17 1.36544e-17)
(0.82897 1.4126e-17 4.51702e-18)
(0.834005 -6.90642e-17 1.30308e-17)
(0.834005 1.60343e-17 1.10613e-18)
(0.839005 -6.18612e-17 1.45097e-17)