/*--------------------------------*- C++ -*----------------------------------*\
| =========                 |                                                 |
| \\      /  F ield         | OpenFOAM: The Open Source CFD Toolbox           |
|  \\    /   O peration     | Version:  2106                                  |
|   \\  /    A nd           | Website:  www.openfoam.com                      |
|    \\/     M anipulation  |                                                 |
\*---------------------------------------------------------------------------*/
FoamFile
{
    version     2.0;
    format      ascii;
    arch        "LSB;label=32;scalar=64";
    class       volVectorField;
    location    "10010";
    object      U;
}
// * * * * * * * * * * * * * * * * * * * * * * * * * * * * * * * * * * * * * //

dimensions      [0 1 -1 0 0 0 0];

internalField   nonuniform List<vector> 
800
(
(0.00306853 -1.58011e-16 -1.43362e-17)
(0.00306853 -1.8283e-19 -2.58003e-18)
(0.00934882 -2.28632e-15 -7.60959e-17)
(0.00934882 -1.57473e-18 -3.28942e-17)
(0.015925 -9.95629e-16 -8.69322e-17)
(0.015925 -3.38105e-18 -3.61538e-17)
(0.0228108 -1.24824e-15 -9.89337e-17)
(0.0228108 -5.56073e-18 -3.97362e-17)
(0.0300207 -1.21934e-15 -1.12801e-16)
(0.0300207 -7.83719e-18 -4.3672e-17)
(0.0375697 -1.22744e-15 -1.28738e-16)
(0.0375697 -1.03313e-17 -4.79922e-17)
(0.0454735 -1.23119e-15 -1.46637e-16)
(0.0454735 -1.29846e-17 -5.27275e-17)
(0.0537487 -1.22849e-15 -1.66555e-16)
(0.0537487 -1.58113e-17 -5.79362e-17)
(0.0624123 -1.22424e-15 -1.88654e-16)
(0.0624123 -1.85327e-17 -6.36484e-17)
(0.0714822 -1.21974e-15 -2.06673e-16)
(0.0714822 -2.1258e-17 -6.99064e-17)
(0.0809772 -1.21506e-15 -2.22557e-16)
(0.0809772 -2.43079e-17 -7.67618e-17)
(0.0909167 -1.20993e-15 -2.40212e-16)
(0.0909167 -2.7398e-17 -8.43086e-17)
(0.101321 -1.20418e-15 -2.59913e-16)
(0.101321 -3.06226e-17 -9.25976e-17)
(0.11221 -1.19842e-15 -2.81933e-16)
(0.11221 -3.40661e-17 -1.0168e-16)
(0.123607 -1.19241e-15 -3.06516e-16)
(0.123607 -3.77101e-17 -1.11637e-16)
(0.135532 -1.18587e-15 -3.33972e-16)
(0.135532 -4.12549e-17 -1.22533e-16)
(0.148009 -1.17918e-15 -3.45349e-16)
(0.148009 -4.48473e-17 -1.34513e-16)
(0.161058 -1.17289e-15 -3.51446e-16)
(0.161058 -4.84641e-17 -1.47561e-16)
(0.174702 -1.16637e-15 -3.57809e-16)
(0.174702 -5.18895e-17 -1.6175e-16)
(0.188959 -1.15882e-15 -3.64406e-16)
(0.188959 -5.54623e-17 -1.77336e-16)
(0.203848 -1.15147e-15 -3.71507e-16)
(0.203848 -5.99148e-17 -1.94183e-16)
(0.219381 -1.14482e-15 -3.78977e-16)
(0.219381 -6.4384e-17 -2.12497e-16)
(0.235566 -1.1389e-15 -3.86906e-16)
(0.235566 -6.66611e-17 -2.32443e-16)
(0.252402 -1.13238e-15 -4.15385e-16)
(0.252402 -7.1135e-17 -2.53081e-16)
(0.269879 -1.12548e-15 -4.4832e-16)
(0.269879 -7.5622e-17 -2.72899e-16)
(0.287972 -1.11917e-15 -4.83001e-16)
(0.287972 -7.67236e-17 -2.99031e-16)
(0.306642 -1.1128e-15 -5.18721e-16)
(0.306642 -7.88324e-17 -3.23392e-16)
(0.325834 -1.10623e-15 -5.55124e-16)
(0.325834 -8.16449e-17 -3.4843e-16)
(0.345474 -1.09865e-15 -5.9173e-16)
(0.345474 -8.45282e-17 -3.73987e-16)
(0.365473 -1.09109e-15 -6.27931e-16)
(0.365473 -8.94454e-17 -3.99081e-16)
(0.385731 -1.08446e-15 -6.62288e-16)
(0.385731 -9.39118e-17 -4.24317e-16)
(0.406137 -1.0801e-15 -6.94612e-16)
(0.406137 -9.65495e-17 -4.48385e-16)
(0.426579 -1.07307e-15 -7.22916e-16)
(0.426579 -1.03189e-16 -4.71509e-16)
(0.446951 -1.06673e-15 -7.47918e-16)
(0.446951 -1.09481e-16 -4.94256e-16)
(0.467152 -1.05871e-15 -7.69161e-16)
(0.467152 -1.13377e-16 -5.1577e-16)
(0.487098 -1.05048e-15 -7.87049e-16)
(0.487098 -1.1715e-16 -5.3534e-16)
(0.506717 -1.04274e-15 -8.00022e-16)
(0.506717 -1.21402e-16 -5.55974e-16)
(0.525954 -1.03467e-15 -8.08936e-16)
(0.525954 -1.37473e-16 -5.77433e-16)
(0.544768 -1.02354e-15 -8.1535e-16)
(0.544768 -1.52544e-16 -5.98792e-16)
(0.563135 -1.01165e-15 -8.2062e-16)
(0.563135 -1.71399e-16 -6.19458e-16)
(0.581038 -1.00251e-15 -8.21647e-16)
(0.581038 -1.87576e-16 -6.41975e-16)
(0.598472 -9.94086e-16 -8.20936e-16)
(0.598472 -1.95609e-16 -6.60073e-16)
(0.61544 -9.85972e-16 -8.17918e-16)
(0.61544 -2.10111e-16 -6.51789e-16)
(0.631949 -9.74726e-16 -8.08094e-16)
(0.631949 -2.2172e-16 -6.40787e-16)
(0.648011 -9.62706e-16 -7.95435e-16)
(0.648011 -2.36943e-16 -6.24257e-16)
(0.663641 -9.48902e-16 -7.80485e-16)
(0.663641 -2.56482e-16 -6.06337e-16)
(0.678855 -9.33095e-16 -7.62295e-16)
(0.678855 -2.75326e-16 -5.88604e-16)
(0.69367 -9.15279e-16 -7.41805e-16)
(0.69367 -3.10716e-16 -5.67281e-16)
(0.708105 -9.01538e-16 -7.26135e-16)
(0.708105 -3.3198e-16 -5.41112e-16)
(0.722177 -8.97861e-16 -7.04733e-16)
(0.722177 -3.47074e-16 -5.20336e-16)
(0.735904 -8.85279e-16 -6.71502e-16)
(0.735904 -3.71376e-16 -4.97811e-16)
(0.749302 -8.61348e-16 -6.39997e-16)
(0.749302 -3.85892e-16 -4.65359e-16)
(0.762388 -8.31497e-16 -6.1386e-16)
(0.762388 -4.06146e-16 -4.35984e-16)
(0.775176 -8.06415e-16 -5.88422e-16)
(0.775176 -4.32874e-16 -4.12801e-16)
(0.787683 -7.83293e-16 -5.60063e-16)
(0.787683 -4.41461e-16 -3.94027e-16)
(0.79992 -7.52825e-16 -5.28349e-16)
(0.79992 -4.56338e-16 -3.98186e-16)
(0.811901 -7.25109e-16 -5.27992e-16)
(0.811901 -4.71243e-16 -4.00651e-16)
(0.823638 -7.09596e-16 -5.24791e-16)
(0.823638 -4.59477e-16 -4.09251e-16)
(0.835142 -7.07533e-16 -5.21814e-16)
(0.835142 -4.54211e-16 -4.13181e-16)
(0.846423 -6.90531e-16 -5.17165e-16)
(0.846423 -4.57216e-16 -4.18539e-16)
(0.857491 -6.64219e-16 -5.04388e-16)
(0.857491 -4.6378e-16 -4.18854e-16)
(0.868353 -6.57904e-16 -4.82864e-16)
(0.868353 -4.52066e-16 -4.18742e-16)
(0.879019 -6.40183e-16 -4.83483e-16)
(0.879019 -4.61935e-16 -4.16611e-16)
(0.889496 -6.23549e-16 -4.76807e-16)
(0.889496 -4.50359e-16 -4.15365e-16)
(0.89979 -6.07715e-16 -4.6331e-16)
(0.89979 -4.42297e-16 -4.09852e-16)
(0.909907 -5.70263e-16 -4.6398e-16)
(0.909907 -4.3687e-16 -4.21426e-16)
(0.919853 -5.50633e-16 -4.75618e-16)
(0.919853 -4.22667e-16 -4.51929e-16)
(0.929632 -5.2398e-16 -4.40501e-16)
(0.929632 -4.60409e-16 -4.53473e-16)
(0.939249 -4.77891e-16 -4.17033e-16)
(0.939249 -4.51178e-16 -4.28259e-16)
(0.948708 -4.53667e-16 -4.26958e-16)
(0.948708 -4.46749e-16 -4.27417e-16)
(0.958012 -4.29446e-16 -4.51849e-16)
(0.958012 -4.57678e-16 -4.31072e-16)
(0.967164 -4.36719e-16 -4.39433e-16)
(0.967164 -4.64765e-16 -4.17419e-16)
(0.976166 -4.62874e-16 -4.20107e-16)
(0.976166 -4.7545e-16 -4.09829e-16)
(0.98502 -4.86233e-16 -4.09676e-16)
(0.98502 -4.83749e-16 -4.31644e-16)
(0.993727 -4.94202e-16 -4.29663e-16)
(0.993727 -4.6717e-16 -4.30596e-16)
(1.00229 -4.82807e-16 -3.88645e-16)
(1.00229 -4.48092e-16 -3.98877e-16)
(1.0107 -5.09345e-16 -3.65388e-16)
(1.0107 -5.12229e-16 -4.05277e-16)
(1.01897 -5.09526e-16 -2.4878e-16)
(1.01897 -5.28397e-16 -4.05615e-16)
(1.02709 -4.90012e-16 -1.55968e-16)
(1.02709 -4.70904e-16 -3.86876e-16)
(1.03506 -4.79243e-16 -1.63083e-16)
(1.03506 -4.65269e-16 -3.80128e-16)
(1.04288 -4.24373e-16 -1.55228e-16)
(1.04288 -4.27833e-16 -2.90894e-16)
(1.05054 -3.65608e-16 -1.89308e-16)
(1.05054 -3.58411e-16 -1.96824e-16)
(1.05804 -4.02512e-16 -2.45415e-16)
(1.05804 -3.30452e-16 -1.38855e-16)
(1.06538 -4.08036e-16 -2.23891e-16)
(1.06538 -3.50052e-16 -2.33713e-16)
(1.07254 -3.20075e-16 -2.01598e-16)
(1.07254 -4.42085e-16 -2.91017e-16)
(1.07953 -2.78001e-16 -3.00677e-16)
(1.07953 -3.85937e-16 -1.91858e-16)
(1.08632 -3.25675e-16 -2.18213e-16)
(1.08632 -2.89354e-16 -1.89476e-16)
(1.09291 -2.97677e-16 -2.05243e-16)
(1.09291 -3.01494e-16 -2.05107e-16)
(1.09929 -2.80742e-16 -2.29101e-16)
(1.09929 -2.8592e-16 -1.7229e-16)
(1.10542 -2.82827e-16 -1.87366e-16)
(1.10542 -2.57043e-16 -1.82017e-16)
(1.1113 -3.03883e-16 -1.31406e-16)
(1.1113 -2.51583e-16 -3.0408e-16)
(1.1169 -3.42085e-16 -3.76007e-16)
(1.1169 -3.76325e-16 -2.66812e-16)
(1.12218 -2.27397e-16 -4.3876e-16)
(1.12218 -2.17508e-16 -2.96378e-16)
(1.1271 -2.117e-16 -3.63008e-16)
(1.1271 -2.14045e-16 -3.20754e-16)
(1.13161 -2.78188e-16 -3.53225e-16)
(1.13161 -2.57525e-16 -3.30768e-16)
(1.13564 -3.10519e-16 -3.95632e-16)
(1.13564 -3.01315e-16 -3.66882e-16)
(1.13911 -2.77305e-16 -3.46483e-16)
(1.13911 -2.93803e-16 -3.843e-16)
(1.14193 -2.42324e-16 -5.16259e-16)
(1.14193 -2.2152e-16 -4.70003e-16)
(1.14395 -1.16825e-16 -2.95589e-16)
(1.14395 -2.29108e-16 -3.1481e-16)
(1.14504 -1.29244e-16 -1.73104e-16)
(1.14504 -1.45893e-16 -1.0348e-16)
(0.00306853 -1.44828e-19 2.17888e-18)
(0.00306853 -6.52758e-20 3.71643e-18)
(0.00934882 -6.79477e-19 1.13756e-17)
(0.00934882 -8.19307e-20 1.5633e-17)
(0.015925 -1.61884e-18 1.24621e-17)
(0.015925 -3.43487e-19 1.7226e-17)
(0.0228108 -2.65579e-18 1.36254e-17)
(0.0228108 -6.16878e-19 1.90463e-17)
(0.0300207 -3.74163e-18 1.48678e-17)
(0.0300207 -9.25337e-19 2.11259e-17)
(0.0375697 -4.98629e-18 1.61902e-17)
(0.0375697 -1.26078e-18 2.3506e-17)
(0.0454735 -6.35655e-18 1.75899e-17)
(0.0454735 -1.55661e-18 2.62305e-17)
(0.0537487 -7.77594e-18 1.90663e-17)
(0.0537487 -1.8833e-18 2.93394e-17)
(0.0624123 -9.14667e-18 2.06182e-17)
(0.0624123 -2.191e-18 3.28966e-17)
(0.0714822 -1.05854e-17 2.22417e-17)
(0.0714822 -2.49489e-18 3.69639e-17)
(0.0809772 -1.21834e-17 2.39267e-17)
(0.0809772 -3.08961e-18 4.15961e-17)
(0.0909167 -1.38505e-17 2.56714e-17)
(0.0909167 -3.85475e-18 4.68411e-17)
(0.101321 -1.55863e-17 2.74573e-17)
(0.101321 -4.13869e-18 5.28083e-17)
(0.11221 -1.73707e-17 2.92658e-17)
(0.11221 -4.64113e-18 5.95936e-17)
(0.123607 -1.92952e-17 3.10876e-17)
(0.123607 -5.75071e-18 6.72598e-17)
(0.135532 -2.11248e-17 3.2882e-17)
(0.135532 -6.70942e-18 7.59418e-17)
(0.148009 -2.29817e-17 3.46317e-17)
(0.148009 -7.31035e-18 8.5713e-17)
(0.161058 -2.50961e-17 3.62939e-17)
(0.161058 -8.44523e-18 9.66945e-17)
(0.174702 -2.69778e-17 3.78305e-17)
(0.174702 -9.82522e-18 1.08905e-16)
(0.188959 -2.86939e-17 3.92053e-17)
(0.188959 -1.08242e-17 1.2243e-16)
(0.203848 -3.0684e-17 4.0392e-17)
(0.203848 -1.30879e-17 1.37374e-16)
(0.219381 -3.27443e-17 4.13812e-17)
(0.219381 -1.50594e-17 1.53612e-16)
(0.235566 -3.46924e-17 4.21115e-17)
(0.235566 -1.59781e-17 1.71261e-16)
(0.252402 -3.69912e-17 4.25221e-17)
(0.252402 -1.63401e-17 1.9051e-16)
(0.269879 -3.92287e-17 4.583e-17)
(0.269879 -1.65776e-17 2.11095e-16)
(0.287972 -4.05304e-17 7.11784e-17)
(0.287972 -1.80098e-17 2.32264e-16)
(0.306642 -4.25917e-17 9.8219e-17)
(0.306642 -1.89272e-17 2.53806e-16)
(0.325834 -4.41943e-17 1.26059e-16)
(0.325834 -1.91272e-17 2.75405e-16)
(0.345474 -4.33573e-17 1.54877e-16)
(0.345474 -2.10124e-17 2.96228e-16)
(0.365473 -4.4202e-17 1.84339e-16)
(0.365473 -2.01005e-17 3.1653e-16)
(0.385731 -4.58658e-17 2.13391e-16)
(0.385731 -1.90109e-17 3.35366e-16)
(0.406137 -4.84838e-17 2.41835e-16)
(0.406137 -2.01674e-17 3.52328e-16)
(0.426579 -5.06955e-17 2.68746e-16)
(0.426579 -2.19356e-17 3.66572e-16)
(0.446951 -5.13066e-17 2.94066e-16)
(0.446951 -2.39465e-17 3.77119e-16)
(0.467152 -5.3447e-17 3.17947e-16)
(0.467152 -2.35146e-17 3.84982e-16)
(0.487098 -5.3093e-17 3.38883e-16)
(0.487098 -2.35002e-17 3.90273e-16)
(0.506717 -4.74656e-17 3.58826e-16)
(0.506717 -2.44296e-17 3.90617e-16)
(0.525954 -4.23608e-17 3.77248e-16)
(0.525954 -2.40267e-17 3.88876e-16)
(0.544768 -4.08368e-17 3.94517e-16)
(0.544768 -2.25275e-17 3.86233e-16)
(0.563135 -3.85427e-17 4.10116e-16)
(0.563135 -2.23123e-17 3.81039e-16)
(0.581038 -3.69402e-17 4.22433e-16)
(0.581038 -1.43719e-17 3.71934e-16)
(0.598472 -3.43821e-17 4.31443e-16)
(0.598472 -6.59756e-18 3.61975e-16)
(0.61544 -3.38386e-17 4.39291e-16)
(0.61544 -7.50341e-18 3.47613e-16)
(0.631949 -3.59438e-17 4.49462e-16)
(0.631949 1.5403e-18 3.29728e-16)
(0.648011 -3.22708e-17 4.52902e-16)
(0.648011 6.23527e-18 3.079e-16)
(0.663641 -2.32227e-17 4.54264e-16)
(0.663641 5.93505e-18 2.83629e-16)
(0.678855 -1.59315e-17 4.58833e-16)
(0.678855 2.63507e-18 2.5564e-16)
(0.69367 -1.34111e-17 4.63899e-16)
(0.69367 -4.59637e-19 2.24448e-16)
(0.708105 -8.86078e-18 4.63033e-16)
(0.708105 3.67441e-18 1.97694e-16)
(0.722177 7.76225e-20 4.65447e-16)
(0.722177 4.16079e-18 1.69024e-16)
(0.735904 3.7801e-18 4.67902e-16)
(0.735904 1.15976e-17 1.34678e-16)
(0.749302 1.17837e-18 4.68643e-16)
(0.749302 9.74311e-18 1.01963e-16)
(0.762388 -1.03154e-18 4.71285e-16)
(0.762388 1.5289e-17 7.59869e-17)
(0.775176 -2.40943e-18 4.67859e-16)
(0.775176 1.92248e-17 6.87765e-17)
(0.787683 -4.06748e-18 4.65261e-16)
(0.787683 7.84018e-18 9.07542e-17)
(0.79992 3.54978e-18 4.653e-16)
(0.79992 1.32848e-17 1.14875e-16)
(0.811901 2.36443e-18 4.62613e-16)
(0.811901 1.18661e-17 1.43694e-16)
(0.823638 -3.8677e-18 4.64082e-16)
(0.823638 1.30809e-17 1.65123e-16)
(0.835142 -1.39229e-18 4.51645e-16)
(0.835142 -2.30128e-18 1.76966e-16)
(0.846423 -2.84413e-18 4.29729e-16)
(0.846423 -1.62423e-18 1.92065e-16)
(0.857491 2.0351e-18 4.14277e-16)
(0.857491 2.35154e-17 2.1745e-16)
(0.868353 -1.92773e-17 4.05998e-16)
(0.868353 5.07557e-18 2.22605e-16)
(0.879019 -4.72321e-17 3.84274e-16)
(0.879019 -1.83111e-17 2.24805e-16)
(0.889496 -6.4242e-17 3.72918e-16)
(0.889496 -3.62867e-17 2.40797e-16)
(0.89979 -7.44625e-17 3.68797e-16)
(0.89979 -3.41471e-17 2.88153e-16)
(0.909907 -7.39574e-17 3.68906e-16)
(0.909907 -3.10772e-17 3.13232e-16)
(0.919853 -4.84541e-17 3.17132e-16)
(0.919853 -4.46934e-17 2.97942e-16)
(0.929632 -4.71829e-17 3.02135e-16)
(0.929632 -3.70263e-17 2.98702e-16)
(0.939249 -5.42102e-17 3.00229e-16)
(0.939249 -4.07939e-17 2.91075e-16)
(0.948708 -5.59161e-17 3.0567e-16)
(0.948708 -5.34896e-17 2.80312e-16)
(0.958012 -8.75076e-18 2.65958e-16)
(0.958012 -5.01352e-17 2.79411e-16)
(0.967164 -4.92808e-17 2.59158e-16)
(0.967164 -5.4238e-17 2.82354e-16)
(0.976166 -7.97792e-17 2.77368e-16)
(0.976166 -7.79735e-17 2.7525e-16)
(0.98502 -1.04771e-16 3.03984e-16)
(0.98502 -1.0686e-16 2.87552e-16)
(0.993727 -6.97886e-17 2.37651e-16)
(0.993727 -1.14724e-16 2.79645e-16)
(1.00229 -1.25997e-16 2.26926e-16)
(1.00229 -1.23631e-16 2.55411e-16)
(1.0107 -1.20478e-16 1.89784e-16)
(1.0107 -1.46204e-16 2.89829e-16)
(1.01897 -9.01776e-17 2.71787e-16)
(1.01897 -1.69678e-16 4.04926e-16)
(1.02709 -1.37975e-16 4.00652e-16)
(1.02709 -1.19055e-16 2.84671e-16)
(1.03506 -2.10946e-16 3.65858e-16)
(1.03506 -1.99127e-16 1.88272e-16)
(1.04288 -1.97809e-16 3.16448e-16)
(1.04288 -1.76398e-16 2.30771e-16)
(1.05054 -1.48558e-16 2.32825e-16)
(1.05054 -2.04431e-16 1.78922e-16)
(1.05804 -3.35909e-16 2.16341e-16)
(1.05804 -2.89412e-16 1.69663e-16)
(1.06538 -3.3399e-16 2.32923e-16)
(1.06538 -2.90116e-16 1.9298e-16)
(1.07254 -2.72127e-16 1.90204e-16)
(1.07254 -2.75997e-16 2.47507e-16)
(1.07953 -2.27977e-16 1.96787e-16)
(1.07953 -2.49228e-16 2.11836e-16)
(1.08632 -2.73606e-16 1.86992e-16)
(1.08632 -2.79461e-16 2.11399e-16)
(1.09291 -2.60978e-16 2.12484e-16)
(1.09291 -2.79073e-16 2.29847e-16)
(1.09929 -2.62173e-16 1.842e-16)
(1.09929 -2.42927e-16 1.72365e-16)
(1.10542 -2.50704e-16 1.77542e-16)
(1.10542 -2.6821e-16 2.14861e-16)
(1.1113 -2.3209e-16 2.41687e-16)
(1.1113 -2.73678e-16 2.16362e-16)
(1.1169 -2.48396e-16 2.49031e-16)
(1.1169 -2.846e-16 3.50606e-16)
(1.12218 -2.61672e-16 2.72069e-16)
(1.12218 -2.29908e-16 4.1726e-16)
(1.1271 -2.60374e-16 3.0624e-16)
(1.1271 -2.64823e-16 3.13935e-16)
(1.13161 -2.82051e-16 3.05146e-16)
(1.13161 -2.3906e-16 2.93909e-16)
(1.13564 -2.69504e-16 3.03246e-16)
(1.13564 -2.42948e-16 3.44315e-16)
(1.13911 -2.50097e-16 3.79899e-16)
(1.13911 -2.65893e-16 3.67171e-16)
(1.14193 -2.52509e-16 4.9571e-16)
(1.14193 -2.20336e-16 4.49261e-16)
(1.14395 -2.34681e-16 4.60271e-16)
(1.14395 -2.04661e-16 3.31768e-16)
(1.14504 -1.41456e-16 2.09968e-16)
(1.14504 -1.3433e-16 2.6545e-16)
(1.14504 -8.83345e-17 -1.60906e-16)
(1.14504 -1.52301e-17 -3.15627e-16)
(1.14395 4.54524e-17 -4.47505e-16)
(1.14395 1.37645e-17 -3.49281e-16)
(1.14193 3.09624e-17 -4.08527e-16)
(1.14193 3.75119e-17 -3.10624e-16)
(1.13911 3.68075e-17 -3.05088e-16)
(1.13911 2.99385e-17 -3.46871e-16)
(1.13564 -4.86144e-17 -1.7595e-16)
(1.13564 -3.54052e-17 -2.15098e-16)
(1.13161 -8.04567e-17 -8.47685e-17)
(1.13161 -1.1117e-16 -1.074e-16)
(1.1271 -1.04332e-16 -1.96883e-16)
(1.1271 -8.97611e-17 -2.30031e-16)
(1.12218 -7.15708e-17 -2.00926e-16)
(1.12218 -1.1013e-16 -3.14715e-16)
(1.1169 -1.68445e-16 -2.63644e-16)
(1.1169 -1.3846e-16 -1.5479e-16)
(1.1113 -1.42473e-16 -1.19788e-16)
(1.1113 -1.30125e-16 -7.39289e-17)
(1.10542 -1.76976e-16 -1.30467e-16)
(1.10542 -1.37243e-16 -7.99929e-17)
(1.09929 -1.43753e-16 -9.25045e-17)
(1.09929 -1.27946e-16 -1.30653e-16)
(1.09291 -9.31213e-17 -1.07601e-16)
(1.09291 -1.4573e-16 -1.36424e-16)
(1.08632 -1.06471e-16 -1.08806e-16)
(1.08632 -1.23617e-16 -1.02807e-16)
(1.07953 -6.83315e-17 -1.06385e-16)
(1.07953 -1.12323e-16 -1.3834e-16)
(1.07254 -1.91196e-16 -1.69672e-16)
(1.07254 -1.81291e-16 -1.28294e-16)
(1.06538 -1.9426e-16 -1.68937e-16)
(1.06538 -1.68812e-16 -6.43234e-17)
(1.05804 -1.80557e-16 -1.00019e-16)
(1.05804 -1.25794e-16 -6.25809e-17)
(1.05054 -1.5525e-16 -6.02739e-17)
(1.05054 -1.59501e-16 -5.75012e-17)
(1.04288 -8.39497e-17 -8.17437e-17)
(1.04288 -1.4011e-16 -1.86383e-16)
(1.03506 -7.3923e-17 -5.19542e-17)
(1.03506 -8.18827e-17 -1.13275e-16)
(1.02709 -1.08088e-16 -7.73846e-17)
(1.02709 -6.57427e-17 -1.69782e-16)
(1.01897 -9.37464e-17 -4.31262e-17)
(1.01897 -1.18935e-16 -1.48881e-16)
(1.0107 -4.52985e-17 -7.70503e-17)
(1.0107 -4.23938e-17 -5.45125e-17)
(1.00229 -4.85313e-17 -1.02029e-16)
(1.00229 -8.77542e-17 -5.2986e-17)
(0.993727 -7.50061e-17 -7.37477e-17)
(0.993727 -6.33577e-17 -7.78213e-17)
(0.98502 -5.11417e-17 -6.22731e-17)
(0.98502 -5.70392e-17 -4.78435e-17)
(0.976166 -9.6643e-17 -4.93584e-17)
(0.976166 -5.62922e-17 -4.60577e-17)
(0.967164 -9.90452e-17 -7.17288e-17)
(0.967164 -7.35331e-17 -3.25308e-17)
(0.958012 -9.48198e-17 -2.34793e-17)
(0.958012 -8.86232e-17 -1.90208e-17)
(0.948708 -7.4806e-17 -2.37525e-17)
(0.948708 -1.01728e-16 -2.75014e-17)
(0.939249 -7.26569e-17 -3.65866e-17)
(0.939249 -9.6905e-17 -4.71131e-17)
(0.929632 -9.25763e-17 -2.53299e-17)
(0.929632 -8.47067e-17 -5.26017e-17)
(0.919853 -9.90152e-17 -3.39151e-17)
(0.919853 -8.0098e-17 -4.41122e-17)
(0.909907 -8.79833e-17 -2.46681e-17)
(0.909907 -8.67465e-17 -2.45476e-17)
(0.89979 -7.11845e-17 -2.85963e-17)
(0.89979 -8.66563e-17 -3.27619e-17)
(0.889496 -6.44685e-17 -4.30951e-17)
(0.889496 -7.0525e-17 -1.81066e-17)
(0.879019 -3.74342e-17 -5.20096e-17)
(0.879019 -6.22614e-17 -1.77706e-17)
(0.868353 -5.55283e-17 -4.66772e-17)
(0.868353 -4.83261e-17 -1.32697e-17)
(0.857491 -6.35265e-17 -4.2177e-17)
(0.857491 -5.67933e-17 -1.21806e-17)
(0.846423 -5.75633e-17 -3.01868e-17)
(0.846423 -5.09101e-17 -2.56866e-17)
(0.835142 -4.30432e-17 -2.96907e-17)
(0.835142 -4.64453e-17 -3.61764e-17)
(0.823638 -4.37668e-17 -3.69136e-17)
(0.823638 -4.20737e-17 -3.68415e-17)
(0.811901 -3.9256e-17 -3.35265e-17)
(0.811901 -4.29719e-17 -3.79901e-17)
(0.79992 -2.38657e-17 -2.65696e-17)
(0.79992 -3.99832e-17 -4.97659e-17)
(0.787683 -3.04102e-17 -2.4409e-17)
(0.787683 -3.85978e-17 -4.86666e-17)
(0.775176 -4.222e-17 -2.41101e-17)
(0.775176 -2.68531e-17 -4.27193e-17)
(0.762388 -4.66699e-17 -1.42426e-17)
(0.762388 -1.61581e-17 -4.54142e-17)
(0.749302 -3.66678e-17 -1.72704e-17)
(0.749302 -1.17401e-17 -4.33775e-17)
(0.735904 -1.6826e-17 -1.35926e-17)
(0.735904 -9.11126e-18 -4.92006e-17)
(0.722177 -1.34611e-17 -1.36073e-17)
(0.722177 -6.10438e-19 -5.40882e-17)
(0.708105 -1.97181e-17 -1.37178e-17)
(0.708105 8.42892e-18 -5.68949e-17)
(0.69367 -2.06678e-17 -1.43591e-17)
(0.69367 2.20368e-18 -5.44309e-17)
(0.678855 -1.49708e-17 -1.37223e-17)
(0.678855 -1.17651e-18 -5.00226e-17)
(0.663641 -9.98375e-18 -1.19676e-17)
(0.663641 -2.93697e-18 -4.81341e-17)
(0.648011 -1.31514e-17 -1.14166e-17)
(0.648011 -5.1499e-18 -4.84038e-17)
(0.631949 -5.41859e-18 -1.21851e-17)
(0.631949 -7.16195e-18 -4.44283e-17)
(0.61544 -7.86723e-18 -1.24669e-17)
(0.61544 -1.86315e-18 -4.16133e-17)
(0.598472 -1.00505e-17 -1.17574e-17)
(0.598472 -1.24608e-18 -3.98164e-17)
(0.581038 -5.25243e-18 -1.1736e-17)
(0.581038 -3.25568e-18 -3.80896e-17)
(0.563135 -4.87362e-18 -1.17718e-17)
(0.563135 -4.32674e-18 -3.74872e-17)
(0.544768 -1.56707e-18 -1.17794e-17)
(0.544768 -4.78451e-18 -3.56541e-17)
(0.525954 2.18638e-18 -1.28836e-17)
(0.525954 -7.35428e-18 -3.42492e-17)
(0.506717 6.83312e-19 -1.29682e-17)
(0.506717 -6.29125e-18 -3.3336e-17)
(0.487098 -2.25639e-18 -1.32249e-17)
(0.487098 -6.98359e-18 -3.17413e-17)
(0.467152 -4.88192e-18 -1.27598e-17)
(0.467152 -5.98001e-18 -3.0432e-17)
(0.446951 -5.60642e-18 -1.28165e-17)
(0.446951 -3.72655e-18 -2.87134e-17)
(0.426579 -5.14708e-18 -1.28133e-17)
(0.426579 -3.21701e-18 -2.736e-17)
(0.406137 -4.46969e-18 -1.26193e-17)
(0.406137 -4.4076e-18 -2.61989e-17)
(0.385731 -3.14955e-18 -1.18685e-17)
(0.385731 -4.42158e-18 -2.53494e-17)
(0.365473 -3.28574e-18 -1.17049e-17)
(0.365473 -5.23641e-18 -2.46805e-17)
(0.345474 -4.28299e-18 -1.12975e-17)
(0.345474 -5.03221e-18 -2.34307e-17)
(0.325834 -3.75206e-18 -1.05191e-17)
(0.325834 -4.29694e-18 -2.19123e-17)
(0.306642 -3.649e-18 -9.44533e-18)
(0.306642 -3.92037e-18 -2.0533e-17)
(0.287972 -3.65771e-18 -8.79866e-18)
(0.287972 -3.0812e-18 -1.88004e-17)
(0.269879 -3.58738e-18 -8.21747e-18)
(0.269879 -3.37161e-18 -1.72694e-17)
(0.252402 -1.80297e-18 -7.448e-18)
(0.252402 -2.60725e-18 -1.59627e-17)
(0.235566 -3.26561e-18 -6.64467e-18)
(0.235566 -1.76601e-18 -1.46093e-17)
(0.219381 -2.10842e-18 -5.94742e-18)
(0.219381 -1.7034e-18 -1.33752e-17)
(0.203848 -1.8082e-18 -5.40391e-18)
(0.203848 -1.25976e-18 -1.22479e-17)
(0.188959 -1.48846e-18 -4.88948e-18)
(0.188959 -1.15184e-18 -1.123e-17)
(0.174702 -1.68816e-18 -4.39953e-18)
(0.174702 -1.33618e-18 -1.02284e-17)
(0.161058 -1.52469e-18 -3.96107e-18)
(0.161058 -9.44087e-19 -9.32154e-18)
(0.148009 -8.03164e-19 -3.60477e-18)
(0.148009 -4.35051e-19 -8.4523e-18)
(0.135532 -3.67549e-19 -3.30742e-18)
(0.135532 -4.84409e-19 -7.68599e-18)
(0.123607 -3.41781e-19 -3.01941e-18)
(0.123607 -4.3206e-19 -6.99359e-18)
(0.11221 -5.77027e-20 -2.74051e-18)
(0.11221 -4.02176e-19 -6.39446e-18)
(0.101321 -8.28352e-20 -2.49565e-18)
(0.101321 -3.32244e-19 -5.82613e-18)
(0.0909167 -6.09771e-20 -2.26838e-18)
(0.0909167 -8.97276e-20 -5.29459e-18)
(0.0809772 -7.93737e-20 -2.06957e-18)
(0.0809772 -1.32262e-19 -4.81587e-18)
(0.0714822 -2.08348e-20 -1.90388e-18)
(0.0714822 -1.45197e-19 -4.38909e-18)
(0.0624123 -4.04824e-21 -1.7301e-18)
(0.0624123 -8.22568e-20 -3.99927e-18)
(0.0537487 1.92889e-20 -1.5733e-18)
(0.0537487 -1.24736e-19 -3.64464e-18)
(0.0454735 7.99879e-20 -1.4353e-18)
(0.0454735 -1.13964e-19 -3.32061e-18)
(0.0375697 -3.55677e-20 -1.30762e-18)
(0.0375697 -5.67455e-20 -3.02476e-18)
(0.0300207 -8.30341e-21 -1.19628e-18)
(0.0300207 -3.22995e-20 -2.75209e-18)
(0.0228108 -3.28976e-20 -1.09025e-18)
(0.0228108 -1.21063e-20 -2.50473e-18)
(0.015925 -1.51967e-20 -9.93188e-19)
(0.015925 5.04941e-22 -2.28189e-18)
(0.00934882 4.15081e-23 -9.05287e-19)
(0.00934882 -3.73085e-21 -2.07983e-18)
(0.00306853 -6.5917e-21 -2.15835e-19)
(0.00306853 4.17672e-21 -4.23933e-19)
(1.14504 -1.07025e-16 2.94092e-16)
(1.14504 -1.02946e-16 2.16442e-16)
(1.14395 1.47439e-17 2.71162e-16)
(1.14395 -2.70941e-17 2.84501e-16)
(1.14193 2.06633e-17 4.1051e-16)
(1.14193 -5.22922e-18 3.12138e-16)
(1.13911 4.39438e-17 3.84582e-16)
(1.13911 3.23752e-17 3.38968e-16)
(1.13564 -5.05547e-17 2.33906e-16)
(1.13564 3.77925e-17 3.15526e-16)
(1.13161 -7.69364e-17 3.68624e-16)
(1.13161 -5.53362e-17 1.40048e-16)
(1.1271 -7.09919e-17 1.22415e-16)
(1.1271 -8.01226e-17 2.0481e-16)
(1.12218 -7.452e-17 1.88605e-16)
(1.12218 -6.52575e-17 1.30212e-16)
(1.1169 -1.65477e-16 1.08093e-16)
(1.1169 -6.54582e-17 2.22952e-16)
(1.1113 -1.65462e-16 3.24459e-17)
(1.1113 -1.63715e-16 2.13277e-16)
(1.10542 -1.13521e-16 8.58503e-17)
(1.10542 -1.58032e-16 1.5224e-16)
(1.09929 -1.44927e-16 1.02307e-16)
(1.09929 -1.59068e-16 8.71864e-17)
(1.09291 -1.11685e-16 1.23074e-16)
(1.09291 -1.87543e-16 6.39634e-17)
(1.08632 -2.23548e-16 1.83094e-16)
(1.08632 -1.71432e-16 9.38416e-17)
(1.07953 -1.62464e-16 8.31813e-17)
(1.07953 -8.7602e-17 1.08697e-16)
(1.07254 -1.52695e-16 4.63113e-17)
(1.07254 -1.25897e-16 8.7786e-17)
(1.06538 -1.62896e-16 7.60584e-17)
(1.06538 -1.53709e-16 5.4843e-17)
(1.05804 -1.60592e-16 6.63572e-17)
(1.05804 -1.84651e-16 6.04568e-17)
(1.05054 -1.3026e-16 8.43298e-17)
(1.05054 -1.57682e-16 7.50614e-17)
(1.04288 -1.21827e-16 5.12066e-17)
(1.04288 -1.23919e-16 9.81153e-17)
(1.03506 -1.19467e-16 4.30182e-17)
(1.03506 -1.30024e-16 1.09387e-16)
(1.02709 -1.05626e-16 1.07767e-16)
(1.02709 -1.45435e-16 8.15944e-17)
(1.01897 -1.16171e-16 1.96337e-17)
(1.01897 -1.04617e-16 9.23687e-17)
(1.0107 -1.20492e-16 2.53723e-17)
(1.0107 -1.19411e-16 5.72453e-17)
(1.00229 -9.29635e-17 5.4527e-17)
(1.00229 -1.05911e-16 3.37144e-17)
(0.993727 -6.59527e-17 8.30552e-17)
(0.993727 -9.80858e-17 7.50978e-17)
(0.98502 -7.863e-17 6.70771e-17)
(0.98502 -9.92968e-17 5.17482e-17)
(0.976166 -9.40603e-17 1.02258e-16)
(0.976166 -9.70012e-17 2.89976e-17)
(0.967164 -6.27728e-17 5.95056e-17)
(0.967164 -8.09905e-17 4.57266e-17)
(0.958012 -7.07163e-17 5.89298e-17)
(0.958012 -7.40289e-17 2.11473e-17)
(0.948708 -7.03576e-17 5.00191e-17)
(0.948708 -9.14486e-17 4.75486e-17)
(0.939249 -5.59256e-17 5.46092e-17)
(0.939249 -8.63185e-17 6.18246e-17)
(0.929632 -7.43582e-17 6.50119e-17)
(0.929632 -5.77764e-17 4.9996e-17)
(0.919853 -7.95816e-17 4.92136e-17)
(0.919853 -4.42125e-17 3.50128e-17)
(0.909907 -7.05389e-17 3.37786e-17)
(0.909907 -5.77027e-17 3.23216e-17)
(0.89979 -7.78298e-17 4.56999e-17)
(0.89979 -3.8842e-17 3.18757e-17)
(0.889496 -8.16072e-17 3.45644e-17)
(0.889496 -4.837e-17 3.42706e-17)
(0.879019 -6.4176e-17 3.34397e-17)
(0.879019 -7.56577e-17 4.37416e-17)
(0.868353 -4.26832e-17 2.39369e-17)
(0.868353 -8.72145e-17 4.06528e-17)
(0.857491 -3.43387e-17 2.38242e-17)
(0.857491 -7.92849e-17 2.84703e-17)
(0.846423 -3.20357e-17 3.43843e-17)
(0.846423 -5.47531e-17 3.33643e-17)
(0.835142 -4.16462e-17 4.53833e-17)
(0.835142 -4.53135e-17 2.97377e-17)
(0.823638 -3.24648e-17 5.10952e-17)
(0.823638 -4.20076e-17 1.54227e-17)
(0.811901 -2.31269e-17 4.80787e-17)
(0.811901 -4.65605e-17 2.19706e-17)
(0.79992 -2.17817e-17 5.79004e-17)
(0.79992 -5.11095e-17 2.17044e-17)
(0.787683 -3.2856e-17 5.84613e-17)
(0.787683 -4.66739e-17 2.41256e-17)
(0.775176 -4.62988e-17 5.00946e-17)
(0.775176 -3.41833e-17 1.96489e-17)
(0.762388 -5.19587e-17 4.68594e-17)
(0.762388 -2.71665e-17 1.66976e-17)
(0.749302 -4.25037e-17 3.77159e-17)
(0.749302 -3.88832e-17 1.25336e-17)
(0.735904 -2.46996e-17 4.19649e-17)
(0.735904 -3.15291e-17 1.51639e-17)
(0.722177 -2.23666e-17 4.78456e-17)
(0.722177 -3.56821e-17 1.30965e-17)
(0.708105 -3.15078e-17 4.83776e-17)
(0.708105 -2.41994e-17 1.08338e-17)
(0.69367 -3.49109e-17 4.35855e-17)
(0.69367 -1.8139e-17 1.09845e-17)
(0.678855 -2.28904e-17 3.84889e-17)
(0.678855 -2.51938e-17 1.15117e-17)
(0.663641 -1.774e-17 3.78675e-17)
(0.663641 -1.81639e-17 1.35553e-17)
(0.648011 -1.8161e-17 3.85309e-17)
(0.648011 -1.44373e-17 1.23373e-17)
(0.631949 -1.35765e-17 3.50822e-17)
(0.631949 -1.19786e-17 1.12776e-17)
(0.61544 -1.10202e-17 3.17912e-17)
(0.61544 -9.54363e-18 1.13768e-17)
(0.598472 -8.16317e-18 3.05307e-17)
(0.598472 -1.32349e-17 1.08425e-17)
(0.581038 -9.13605e-18 2.90249e-17)
(0.581038 -1.85135e-17 1.17169e-17)
(0.563135 -1.04801e-17 2.79403e-17)
(0.563135 -1.46022e-17 1.07932e-17)
(0.544768 -8.49218e-18 2.54229e-17)
(0.544768 -1.41104e-17 1.10394e-17)
(0.525954 -5.47465e-18 2.42353e-17)
(0.525954 -7.45652e-18 1.06368e-17)
(0.506717 -1.59898e-18 2.43575e-17)
(0.506717 -6.71743e-18 9.36668e-18)
(0.487098 -1.04782e-18 2.37189e-17)
(0.487098 -3.00094e-18 8.91026e-18)
(0.467152 -4.12697e-18 2.25476e-17)
(0.467152 -8.78058e-18 8.43677e-18)
(0.446951 -6.07748e-18 2.04404e-17)
(0.446951 -4.43133e-18 7.96587e-18)
(0.426579 -6.72743e-18 1.89563e-17)
(0.426579 -3.11907e-18 7.34898e-18)
(0.406137 -5.70588e-18 1.76487e-17)
(0.406137 -4.85319e-18 6.76779e-18)
(0.385731 -4.89609e-18 1.69099e-17)
(0.385731 -3.75583e-18 6.62664e-18)
(0.365473 -4.63321e-18 1.64663e-17)
(0.365473 -2.77163e-18 5.76878e-18)
(0.345474 -3.68494e-18 1.56521e-17)
(0.345474 -2.9425e-18 5.2105e-18)
(0.325834 -2.41219e-18 1.48249e-17)
(0.325834 -1.9757e-18 4.78207e-18)
(0.306642 -2.51e-18 1.40334e-17)
(0.306642 3.84729e-19 4.26389e-18)
(0.287972 -2.8736e-18 1.28167e-17)
(0.287972 -2.20692e-18 3.68384e-18)
(0.269879 -2.39096e-18 1.17254e-17)
(0.269879 -1.99012e-18 3.19912e-18)
(0.252402 -1.10503e-18 1.08522e-17)
(0.252402 -5.22836e-19 3.05146e-18)
(0.235566 -4.02045e-19 9.86647e-18)
(0.235566 1.84519e-19 2.88804e-18)
(0.219381 1.17461e-19 8.96877e-18)
(0.219381 -1.48951e-18 2.78877e-18)
(0.203848 6.09068e-19 8.16595e-18)
(0.203848 -1.5908e-18 2.74001e-18)
(0.188959 3.27011e-19 7.47928e-18)
(0.188959 -1.3785e-18 2.57823e-18)
(0.174702 -4.10547e-20 6.75467e-18)
(0.174702 -1.32183e-18 2.47371e-18)
(0.161058 -3.54818e-19 6.11445e-18)
(0.161058 -8.32811e-19 2.3381e-18)
(0.148009 -6.77022e-19 5.49817e-18)
(0.148009 -3.88673e-19 2.18591e-18)
(0.135532 -7.16141e-19 4.93818e-18)
(0.135532 -1.06317e-19 2.02882e-18)
(0.123607 -3.36486e-19 4.4396e-18)
(0.123607 -3.15946e-19 1.88803e-18)
(0.11221 -1.1906e-19 4.04793e-18)
(0.11221 2.26466e-20 1.76362e-18)
(0.101321 -1.5009e-19 3.66279e-18)
(0.101321 -2.84322e-19 1.64432e-18)
(0.0909167 -1.7588e-19 3.30297e-18)
(0.0909167 9.15001e-20 1.52461e-18)
(0.0809772 -2.71874e-19 2.9895e-18)
(0.0809772 1.2387e-19 1.38832e-18)
(0.0714822 -1.57096e-19 2.70933e-18)
(0.0714822 2.05772e-19 1.25425e-18)
(0.0624123 2.77468e-20 2.47333e-18)
(0.0624123 1.70807e-19 1.15174e-18)
(0.0537487 5.54015e-20 2.25713e-18)
(0.0537487 1.6663e-19 1.05028e-18)
(0.0454735 5.91382e-20 2.05528e-18)
(0.0454735 4.17191e-20 9.57683e-19)
(0.0375697 5.03664e-21 1.87252e-18)
(0.0375697 1.10618e-19 8.74859e-19)
(0.0300207 -3.99454e-20 1.70161e-18)
(0.0300207 1.20031e-19 7.94841e-19)
(0.0228108 -3.59389e-20 1.54774e-18)
(0.0228108 9.47639e-20 7.22283e-19)
(0.015925 -1.65819e-20 1.41021e-18)
(0.015925 5.08734e-20 6.56732e-19)
(0.00934882 -4.77572e-21 1.28583e-18)
(0.00934882 1.16792e-20 5.98463e-19)
(0.00306853 -4.79724e-21 2.86272e-19)
(0.00306853 8.20933e-21 4.68199e-20)
)
;

boundaryField
{
    walls
    {
        type            fixedValue;
        value           uniform (0 0 0);
    }
    inlet
    {
        type            cyclic;
    }
    outlet
    {
        type            cyclic;
    }
    sides
    {
        type            empty;
    }
}

