/*--------------------------------*- C++ -*----------------------------------*\
| =========                 |                                                 |
| \\      /  F ield         | OpenFOAM: The Open Source CFD Toolbox           |
|  \\    /   O peration     | Version:  2106                                  |
|   \\  /    A nd           | Website:  www.openfoam.com                      |
|    \\/     M anipulation  |                                                 |
\*---------------------------------------------------------------------------*/
FoamFile
{
    version     2.0;
    format      ascii;
    arch        "LSB;label=32;scalar=64";
    class       volTensorField;
    location    "10020";
    object      grad(U);
}
// * * * * * * * * * * * * * * * * * * * * * * * * * * * * * * * * * * * * * //

dimensions      [0 0 -1 0 0 0 0];

internalField   nonuniform List<tensor> 
2000
(
(-7.15154e-18 8.13036e-30 6.35184e-33 23.8214 -7.65131e-12 -1.76151e-14 0.0440888 -8.15594e-15 -2.27772e-19)
(7.15154e-18 -7.86726e-29 -6.35184e-33 23.8214 0 -2.70009e-14 0.0440888 -1.96683e-29 2.36549e-17)
(0 0 -4.98836e-32 23.8169 0 4.18279e-15 0.133073 0 7.45908e-17)
(0 -1.91553e-29 4.98836e-32 23.8169 -1.23592e-15 -3.52767e-14 0.133073 -4.12591e-18 3.18806e-17)
(-5.4259e-18 -6.26809e-30 2.44847e-32 23.8123 6.41706e-13 1.95388e-15 0.184603 -1.48872e-14 1.39196e-16)
(0 9.40214e-30 5.47382e-48 23.8123 -2.45183e-17 2.35205e-35 0.184603 -2.64702e-18 0)
(-1.77623e-17 -2.39726e-26 0 23.8076 6.05923e-28 -1.19595e-14 0.188011 0 1.06943e-16)
(7.10491e-17 9.22985e-30 -2.40361e-32 23.8076 -6.25549e-16 9.31729e-15 0.188011 -3.80506e-18 1.91811e-17)
(0 6.04048e-30 -4.71912e-32 23.8028 8.49978e-14 -3.22131e-15 0.191482 -1.54568e-15 1.13309e-16)
(-5.31326e-17 -3.02024e-30 0 23.8028 -5.97754e-16 1.84108e-15 0.191482 -4.94831e-18 3.55232e-17)
(0 1.48245e-29 -4.63264e-32 23.7979 -2.45049e-14 -8.13154e-15 0.195016 -1.90938e-16 1.16258e-16)
(-1.72491e-16 -1.48245e-29 4.63264e-32 23.7979 -5.75628e-16 -2.02385e-15 0.195016 -5.7314e-18 3.68382e-17)
(0 -7.04432e-28 0 23.7929 -1.58993e-15 -1.23128e-14 0.198614 -6.5754e-18 1.04251e-16)
(2.24622e-16 5.82112e-30 -2.27388e-32 23.7929 -5.84215e-16 -2.07298e-15 0.198614 -6.63068e-18 3.81962e-17)
(0 -3.81944e-41 0 23.7878 5.79969e-28 -1.29795e-14 0.202277 0 9.06091e-17)
(5.55429e-16 5.71445e-30 0 23.7878 -6.22014e-16 -2.12032e-15 0.202277 -7.99467e-18 3.95999e-17)
(-8.29468e-17 2.44026e-30 0 23.7826 8.50279e-16 -1.34763e-14 0.206007 -1.36895e-17 6.63855e-17)
(0 5.60974e-30 0 23.7826 -6.88591e-16 -2.16418e-15 0.206007 -9.57901e-18 4.10633e-17)
(1.93758e-16 -2.75347e-30 -8.6046e-32 23.7772 1.48604e-16 -1.39686e-14 0.209805 -7.87027e-19 4.05399e-17)
(0 5.50694e-30 0 23.7772 -6.99759e-16 -2.21404e-15 0.209805 -1.10436e-17 4.26101e-17)
(1.90208e-16 -2.43271e-29 -1.68938e-31 23.7717 2.64068e-16 -1.4508e-14 0.213671 -1.82108e-18 1.30468e-17)
(-1.90208e-16 2.43271e-29 8.44692e-32 23.7717 -6.35687e-16 -2.26628e-15 0.213671 -1.22719e-17 4.4195e-17)
(1.25016e-16 5.51896e-30 4.14607e-32 23.766 3.05388e-16 -1.5075e-14 0.217607 -2.89263e-18 -1.62798e-17)
(5.00065e-16 -2.65348e-30 0 23.766 -5.35481e-16 -2.31634e-15 0.217607 -1.28856e-17 4.58415e-17)
(0 0 0 23.7601 4.44461e-16 -1.24807e-14 0.221613 -2.64646e-18 -4.75258e-17)
(0 0 0 23.7601 -5.04863e-16 -2.36925e-15 0.221613 -1.34067e-17 4.75602e-17)
(-5.14255e-16 2.03408e-29 1.5982e-31 23.754 6.58579e-16 -8.41132e-15 0.22569 -5.59625e-18 -6.59847e-17)
(0 -1.53427e-29 -7.99102e-32 23.754 -4.33122e-16 -2.42138e-15 0.22569 -1.38009e-17 4.93547e-17)
(-5.22745e-16 1.49919e-29 7.95169e-32 23.7475 5.38622e-16 -7.30238e-15 0.229839 -6.81545e-18 -7.1465e-17)
(0 -5.02053e-30 0 23.7475 -4.01916e-16 -2.47298e-15 0.229839 -1.38753e-17 5.12226e-17)
(5.31633e-16 -1.2298e-29 -1.56606e-31 23.7407 1.72664e-16 -7.46525e-15 0.234059 -3.4848e-18 -7.44226e-17)
(-7.39274e-16 9.85707e-30 0 23.7407 -5.7699e-16 -2.53614e-15 0.234059 -1.40883e-17 5.31709e-17)
(3.40459e-16 -4.83822e-30 -7.55972e-32 23.7334 -6.85997e-17 -7.62953e-15 0.238352 -1.23065e-18 -7.74581e-17)
(0 7.25733e-30 0 23.7334 -5.37654e-16 -2.59762e-15 0.238352 -1.50791e-17 5.51399e-17)
(4.32794e-16 -2.15049e-29 -2.34426e-31 23.7255 -3.18279e-16 -7.79468e-15 0.242717 -5.25966e-18 -8.06067e-17)
(8.65589e-16 1.42487e-29 2.22636e-31 23.7255 -2.57729e-16 -2.64796e-15 0.242717 -1.57518e-17 5.72045e-17)
(-2.32623e-16 9.4345e-30 7.68813e-33 23.7168 -5.64267e-16 -7.96117e-15 0.247153 -6.4049e-18 -8.38475e-17)
(0 -2.33126e-30 1.45704e-31 23.7168 -1.274e-16 -2.71002e-15 0.247153 -1.55418e-17 5.93624e-17)
(5.71232e-16 -7.01822e-30 -9.58217e-33 23.7072 -5.15325e-16 -8.12824e-15 0.25166 -4.41856e-18 -8.71919e-17)
(6.74507e-16 9.15417e-30 1.43034e-31 23.7072 -5.40693e-17 -2.77819e-15 0.25166 -1.57697e-17 6.15811e-17)
(-2.65975e-16 4.68811e-30 1.15816e-32 23.6965 -3.11927e-16 -8.29529e-15 0.256234 -2.24644e-18 -9.06206e-17)
(2.1278e-15 -2.24661e-30 0 23.6965 -6.49362e-17 -2.8402e-15 0.256234 -1.48993e-17 6.38527e-17)
(0 2.20544e-30 1.3784e-31 23.6843 -3.98543e-16 -8.46063e-15 0.260875 -6.49368e-18 -9.4121e-17)
(1.13244e-15 0 0 23.6843 -1.15063e-17 -2.896e-15 0.260875 -1.40421e-17 6.62181e-17)
(3.047e-16 -6.49507e-30 -1.54294e-28 23.6704 -7.49522e-16 -7.88861e-31 0.265577 -1.02094e-17 -2.46519e-32)
(8.97542e-16 8.6601e-30 1.35314e-31 23.6704 2.63163e-16 -2.95623e-15 0.265577 -1.30748e-17 6.86928e-17)
(0 6.37605e-30 -6.22409e-29 23.6543 -1.0202e-15 4.67934e-15 0.270337 -1.29275e-17 -2.65018e-17)
(6.75079e-16 -2.12535e-30 0 23.6543 3.58684e-16 -3.02186e-15 0.270337 -1.15658e-17 7.12521e-17)
(2.50852e-16 3.53599e-31 3.541e-33 23.6356 -1.24776e-15 1.23226e-14 0.275149 -1.58945e-17 -1.38204e-16)
(-5.87271e-16 6.25921e-30 0 23.6356 5.50336e-16 -3.08172e-15 0.275149 -1.09562e-17 7.38537e-17)
(0 -1.63854e-29 -1.28011e-31 23.6137 -1.1841e-15 1.27916e-14 0.280005 -1.19043e-17 -1.23488e-16)
(1.41935e-15 1.63854e-29 1.28011e-31 23.6137 5.83554e-16 -3.14986e-15 0.280005 -8.33188e-18 7.65505e-17)
(1.92357e-16 -1.57986e-30 -1.25665e-31 23.588 -8.57415e-16 1.32585e-14 0.284896 -8.59742e-18 -8.12689e-17)
(0 6.03192e-30 0 23.588 -1.46273e-16 -3.22364e-15 0.284896 -5.75252e-18 7.93376e-17)
(-3.92674e-16 2.44143e-30 0 23.5577 -7.05054e-16 1.37205e-14 0.289811 -8.60152e-18 -3.70144e-17)
(0 3.94759e-30 0 23.5577 -2.78635e-16 -3.27703e-15 0.289811 -7.26112e-18 8.21143e-17)
(0 3.87525e-30 0 23.5221 -8.11651e-16 1.41804e-14 0.294737 -1.1595e-17 9.33316e-18)
(0 0 0 23.5221 2.07848e-16 -3.33188e-15 0.294737 -6.70276e-18 8.49837e-17)
(-9.67268e-16 2.14621e-29 5.94412e-32 23.4801 -9.43389e-16 7.10082e-15 0.299659 -1.22914e-17 5.77221e-17)
(-1.72747e-15 -1.90212e-29 5.94412e-32 23.4801 3.52135e-16 -3.3852e-15 0.299659 -5.14446e-18 8.78955e-17)
(4.51982e-16 -2.4414e-30 0 23.4307 -8.21457e-16 -2.07385e-16 0.304558 -8.85847e-18 6.00483e-17)
(1.28234e-15 0 1.75056e-31 23.4307 2.94296e-16 -3.43972e-15 0.304558 -2.97433e-18 9.09003e-17)
(-5.15957e-16 1.09983e-29 0 23.3727 -7.13613e-16 -1.81505e-16 0.309413 -9.89545e-18 6.21638e-17)
(0 -3.66609e-30 0 23.3727 -2.03677e-16 -3.49857e-15 0.309413 -8.75112e-19 9.39e-17)
(-4.93246e-16 9.63813e-30 0 23.3048 -1.02561e-15 -1.13553e-16 0.3142 -1.76182e-17 6.41998e-17)
(0 -7.19783e-30 0 23.3048 -2.59255e-16 -3.53015e-15 0.3142 -1.26133e-18 9.69018e-17)
(4.80044e-16 -1.09269e-30 0 23.2256 -1.38324e-15 -1.98279e-17 0.318894 -2.01072e-17 1.02695e-16)
(-9.94441e-16 7.06593e-30 0 23.2256 4.43576e-16 -3.55111e-15 0.318894 -7.67468e-19 1.0001e-16)
(0 -1.38729e-29 1.08382e-31 23.1337 -1.57488e-15 5.22338e-17 0.323463 -2.36526e-17 1.58681e-16)
(2.14356e-15 1.38729e-29 -1.08382e-31 23.1337 6.87791e-16 -3.58064e-15 0.323463 3.61906e-18 1.03036e-16)
(0 6.80934e-30 -1.06396e-31 23.0274 -1.80186e-15 1.29963e-16 0.327877 -2.73448e-17 2.16622e-16)
(0 -3.40467e-30 1.06396e-31 23.0274 4.61415e-16 -3.5992e-15 0.327877 8.53132e-18 1.06038e-16)
(5.79888e-16 9.00518e-31 0 22.9053 -1.69291e-15 2.1908e-16 0.332101 -2.13756e-17 2.76834e-16)
(2.31955e-15 -3.34228e-30 0 22.9053 8.46442e-16 -3.59574e-15 0.332101 1.44806e-17 1.09043e-16)
(-6.02377e-16 -1.06831e-29 3.07597e-31 22.7658 -1.69063e-15 3.09392e-16 0.3361 -2.83075e-17 3.38877e-16)
(2.40951e-15 1.64052e-29 -2.05065e-31 22.7658 9.15403e-16 -3.58452e-15 0.3361 2.54477e-17 1.12046e-16)
(-6.2518e-16 -1.04409e-29 3.0196e-31 22.6074 -1.63204e-15 4.00148e-16 0.339835 -2.04132e-17 4.02931e-16)
(0 1.61046e-29 -2.01307e-31 22.6074 -7.45768e-17 -3.60695e-15 0.339835 2.82673e-17 1.15006e-16)
(-8.89993e-16 1.58094e-29 -2.96427e-31 22.4287 -1.23514e-15 4.62637e-16 0.343271 -1.71734e-17 4.68635e-16)
(3.48313e-15 -1.58094e-29 2.96427e-31 22.4287 -3.05743e-16 -3.59134e-15 0.343271 3.02027e-17 1.17406e-16)
(-1.34335e-15 1.1091e-29 0 22.2285 -1.55023e-15 6.09186e-16 0.346371 -3.1049e-17 5.35769e-16)
(2.68669e-15 -3.10395e-30 0 22.2285 -3.79192e-17 -3.52569e-15 0.346371 3.99396e-17 1.1998e-16)
(0 -6.09414e-30 0 22.0057 -2.09744e-15 7.56473e-16 0.349099 -3.52755e-17 6.05057e-16)
(0 9.14121e-30 -9.52209e-32 22.0057 2.48366e-16 -3.4541e-15 0.349099 4.22655e-17 1.22416e-16)
(8.41957e-16 -2.99123e-30 0 21.7595 -2.39883e-15 8.11655e-16 0.351425 -4.20122e-17 6.7525e-16)
(0 5.98247e-30 -9.3476e-32 21.7595 6.69012e-16 -3.37918e-15 0.351425 4.7099e-17 1.2481e-16)
(-2.39641e-15 1.12511e-29 -9.17631e-32 21.4897 -2.58044e-15 8.95866e-16 0.353321 -4.2616e-17 7.46087e-16)
(-2.97341e-15 -2.93642e-30 9.17631e-32 21.4897 9.31674e-16 -3.31871e-15 0.353321 5.34978e-17 1.26881e-16)
(7.67668e-16 3.32133e-30 -9.00816e-32 21.1959 -2.26952e-15 1.00814e-15 0.354764 -3.31116e-17 8.17844e-16)
(3.07067e-15 0 9.00816e-32 21.1959 6.07095e-16 -3.23334e-15 0.354764 6.73349e-17 1.28689e-16)
(7.9215e-16 1.17052e-29 -2.65293e-31 20.8786 -2.02129e-15 1.12395e-15 0.355736 -3.56958e-17 8.90264e-16)
(-3.1686e-15 -1.41489e-29 2.65293e-31 20.8786 -6.76036e-16 -3.15184e-15 0.355736 8.07835e-17 1.30335e-16)
(7.47072e-16 -3.36606e-31 0 20.5384 -2.65186e-15 1.20765e-15 0.356227 -5.64222e-17 9.63207e-16)
(3.26706e-15 5.55587e-30 0 20.5384 1.70571e-16 -3.07612e-15 0.356227 7.70426e-17 1.31605e-16)
(0 -1.36351e-29 4.26098e-31 20.1762 -3.17091e-15 1.29518e-15 0.356234 -5.55404e-17 1.03587e-15)
(5.96427e-15 1.63622e-29 -2.55659e-31 20.1762 2.02816e-15 -2.97064e-15 0.356234 8.5157e-17 1.32062e-16)
(8.66267e-16 -2.38565e-29 1.67316e-31 19.7936 -3.60251e-15 1.38975e-15 0.355759 -7.42185e-17 1.10849e-15)
(3.46507e-15 1.87394e-29 -1.67316e-31 19.7936 8.17992e-16 -2.80746e-15 0.355759 1.00302e-16 1.32516e-16)
(-8.91085e-16 1.29544e-29 -8.2125e-32 19.3922 -4.02158e-15 1.4651e-15 0.354812 -7.31321e-17 1.16158e-15)
(-5.04377e-15 -7.884e-30 8.2125e-32 19.3922 -2.51885e-16 -2.65566e-15 0.354812 9.99993e-17 1.33616e-16)
(1.45232e-15 -7.73953e-30 0 18.974 -3.25224e-15 1.4959e-15 0.35341 -4.80303e-17 1.19695e-15)
(0 7.73953e-30 -1.6124e-31 18.974 8.77709e-16 -2.5865e-15 0.35341 1.0184e-16 1.34055e-16)
(-9.40677e-16 2.01765e-29 0 18.5413 -2.41858e-15 1.5802e-15 0.351574 -4.38937e-17 1.23099e-15)
(0 -1.01303e-29 1.58285e-31 18.5413 9.03404e-16 -2.51391e-15 0.351574 1.12698e-16 1.33354e-16)
(1.39958e-15 -7.45848e-30 0 18.0963 -1.99843e-15 1.68204e-15 0.349332 -3.34145e-17 1.2647e-15)
(0 7.45848e-30 -1.55385e-31 18.0963 -7.54464e-16 -2.40143e-15 0.349332 1.11241e-16 1.32819e-16)
(0 7.3218e-30 -1.52538e-31 17.6416 -1.20884e-15 1.67648e-15 0.346713 -1.41029e-17 1.29726e-15)
(-3.95995e-15 -1.2203e-29 3.05075e-31 17.6416 -1.54182e-15 -2.28904e-15 0.346713 1.04061e-16 1.31769e-16)
(-3.34304e-16 1.19267e-29 -1.49742e-31 17.1796 -1.34278e-15 1.72771e-15 0.343752 -4.01073e-17 1.32854e-15)
(-1.34876e-15 -7.18763e-30 1.49742e-31 17.1796 -8.11428e-16 -2.19337e-15 0.343752 1.05303e-16 1.30373e-16)
(-1.03876e-15 9.02614e-32 1.46998e-31 16.7127 -3.07319e-15 1.82226e-15 0.340484 -8.61436e-17 1.35171e-15)
(0 7.05592e-30 -2.93997e-31 16.7127 3.36819e-16 -2.13652e-15 0.340484 1.06036e-16 1.29018e-16)
(-8.25976e-16 -8.96274e-30 2.88609e-31 16.2433 -4.03271e-15 1.84549e-15 0.336945 -8.2011e-17 1.34028e-15)
(2.95173e-15 6.92663e-30 -2.88609e-31 16.2433 1.14233e-15 -2.06894e-15 0.336945 1.17561e-16 1.26627e-16)
(-1.08678e-15 2.44942e-30 0 15.7736 -3.44802e-15 1.84951e-15 0.333173 -6.43168e-17 1.37199e-15)
(0 0 0 15.7736 6.17197e-16 -1.97278e-15 0.333173 1.3996e-16 1.24549e-16)
(-2.2209e-15 2.04778e-29 -2.78129e-31 15.3057 -2.75077e-15 1.89909e-15 0.329202 -5.46433e-17 1.41006e-15)
(-4.44181e-15 -1.55752e-29 2.78129e-31 15.3057 -1.29703e-17 -1.89405e-15 0.329202 1.50361e-16 1.22212e-16)
(1.13387e-15 1.50217e-29 -2.73032e-31 14.8414 -2.3386e-15 1.91117e-15 0.325067 -4.83997e-17 1.44813e-15)
(-4.53547e-15 -1.96583e-29 4.09548e-31 14.8414 3.73305e-17 -1.88713e-15 0.325067 1.54075e-16 1.1942e-16)
(0 1.50096e-29 -1.34015e-31 14.3824 -2.34385e-15 1.8925e-15 0.3208 -5.69404e-17 1.48516e-15)
(0 -8.57693e-30 2.68029e-31 14.3824 5.34181e-16 -1.96381e-15 0.3208 1.56754e-16 1.15337e-16)
(-3.54474e-15 -7.72742e-30 1.31559e-31 13.9301 -2.58022e-15 1.91445e-15 0.316434 -6.11379e-17 1.52193e-15)
(9.43906e-15 8.41976e-30 0 13.9301 1.17429e-15 -1.99187e-15 0.316434 1.71297e-16 1.10426e-16)
(-1.20246e-15 1.07202e-29 -3.87444e-31 13.4859 -2.17936e-15 1.97648e-15 0.311994 -4.02307e-17 1.55259e-15)
(4.80982e-15 -8.26547e-30 3.87444e-31 13.4859 -2.28417e-17 -1.91307e-15 0.311994 1.86929e-16 1.05412e-16)
(0 -8.11401e-30 1.26781e-31 13.0508 -2.40247e-15 1.9383e-15 0.307507 -7.41323e-17 1.5785e-15)
(0 8.11401e-30 -2.53563e-31 13.0508 -3.91205e-16 -1.88393e-15 0.307507 1.91874e-16 1.00969e-16)
(-2.36771e-15 2.44758e-30 1.24458e-31 12.6256 -3.5798e-15 1.90367e-15 0.302997 -9.92111e-17 1.60316e-15)
(4.98676e-15 3.98266e-30 -1.24458e-31 12.6256 1.60989e-15 -1.86269e-15 0.302997 2.00838e-16 9.54619e-17)
(0 7.81936e-30 -2.44355e-31 12.211 -3.18933e-15 1.9466e-15 0.298483 -5.75112e-17 1.62818e-15)
(0 -3.90968e-30 2.44355e-31 12.211 1.66596e-15 -1.86256e-15 0.298483 2.25009e-16 8.98613e-17)
(-1.28968e-15 1.0134e-29 -2.39877e-31 11.8076 -2.05106e-15 1.59858e-15 0.293983 -4.52985e-17 1.65314e-15)
(0 -3.83804e-30 2.39877e-31 11.8076 6.71506e-16 -1.98634e-15 0.293983 2.39675e-16 8.40297e-17)
(0 7.53541e-30 -2.35482e-31 11.4158 -2.29265e-15 6.82098e-16 0.289513 -7.21428e-17 1.67362e-15)
(0 -3.76771e-30 2.35482e-31 11.4158 1.28154e-15 -2.10232e-15 0.289513 2.49065e-16 7.74133e-17)
(0 -1.1096e-29 6.93499e-31 11.0357 -2.5601e-15 1.4565e-16 0.285087 -6.10616e-17 1.68662e-15)
(5.3256e-15 1.1096e-29 -6.93499e-31 11.0357 1.21105e-15 -2.22203e-15 0.285087 2.54262e-16 6.87265e-17)
(0 1.81544e-29 -6.80791e-31 10.6676 -2.16345e-15 1.57351e-16 0.280716 -5.36253e-17 1.70001e-15)
(0 -1.81544e-29 6.80791e-31 10.6676 -1.2542e-16 -2.24387e-15 0.280716 2.63872e-16 5.79581e-17)
(-1.37187e-15 -1.1092e-30 0 10.3115 -2.5041e-15 1.17039e-16 0.276409 -8.19407e-17 1.71291e-15)
(5.48746e-15 1.06931e-29 -1.11386e-31 10.3115 4.08245e-16 -2.15338e-15 0.276409 2.77486e-16 4.79141e-17)
(1.96978e-15 -1.04971e-29 7.65414e-31 9.9674 -2.38492e-15 1.56045e-16 0.272175 -4.90251e-17 1.72556e-15)
(3.59675e-15 1.04971e-29 -7.65414e-31 9.9674 9.98814e-16 -2.20025e-15 0.272175 3.08646e-16 3.99389e-17)
(-1.4111e-15 1.96419e-29 -7.51388e-31 9.6351 -1.45296e-15 1.71131e-16 0.268019 -3.22863e-17 1.73927e-15)
(-5.64438e-15 -1.71746e-29 7.51388e-31 9.6351 -5.79447e-16 -2.37324e-15 0.268019 3.35775e-16 2.98624e-17)
(3.79651e-15 -6.74395e-30 2.10748e-31 9.31448 -1.22057e-15 1.67358e-16 0.263947 -3.74754e-17 1.7524e-15)
(-5.72103e-15 6.74395e-30 -3.16123e-31 9.31448 -7.96846e-16 -2.51271e-15 0.263947 3.25355e-16 1.70292e-17)
(-2.89825e-15 1.63238e-30 0 9.00533 -1.23574e-15 1.80229e-16 0.259964 -3.43938e-17 1.76637e-15)
(5.7965e-15 3.31018e-30 0 9.00533 -9.56213e-16 -2.47733e-15 0.259964 3.33814e-16 3.7667e-18)
(-2.93541e-15 -1.4013e-45 0 8.70739 2.47698e-30 1.3018e-16 0.25607 0 1.78002e-15)
(0 -3.24953e-30 0 8.70739 -2.14702e-15 -2.36615e-15 0.25607 3.33878e-16 -1.16624e-17)
(1.7958e-15 -1.27599e-29 4.98434e-31 8.42039 3.68419e-17 1.40027e-16 0.25227 -7.71713e-18 1.79354e-15)
(4.1482e-15 1.27599e-29 -4.98434e-31 8.42039 -2.09225e-15 -2.36481e-15 0.25227 3.40962e-16 -2.48309e-17)
(-3.26691e-15 2.12544e-29 -5.87161e-31 8.14402 -1.32311e-15 5.66183e-17 0.248564 -7.64117e-17 1.80792e-15)
(-6.01608e-15 -1.56576e-29 7.82881e-31 8.14402 -1.0195e-15 -2.47615e-15 0.248564 3.39902e-16 -3.48991e-17)
(1.52177e-15 -1.16877e-29 5.76401e-31 7.87796 -2.50904e-15 -3.64444e-17 0.244952 -8.08187e-17 1.82076e-15)
(0 9.22242e-30 -5.76401e-31 7.87796 -2.26812e-16 -2.7027e-15 0.244952 3.33421e-16 -4.97883e-17)
(1.53925e-15 -8.4965e-30 5.65839e-31 7.62189 -3.06339e-15 6.61765e-18 0.241435 -1.14999e-16 1.83464e-15)
(-6.15701e-15 6.03561e-30 -5.65839e-31 7.62189 1.24573e-17 -2.78797e-15 0.241435 3.59567e-16 -6.37028e-17)
(-3.11296e-15 1.38113e-29 -5.5547e-31 7.37546 -3.74583e-15 -9.97913e-18 0.238013 -1.28644e-16 1.84945e-15)
(-1.66774e-15 -5.92501e-30 3.70313e-31 7.37546 1.22728e-15 -2.73153e-15 0.238013 3.72949e-16 -7.34198e-17)
(0 8.72466e-30 -5.45291e-31 7.13834 -3.23537e-15 -2.39883e-17 0.234684 -8.5212e-17 1.86434e-15)
(0 -1.16329e-29 7.27055e-31 7.13834 1.08948e-15 -2.72853e-15 0.234684 4.11808e-16 -8.21123e-17)
(1.59019e-15 6.08735e-30 -1.78433e-31 6.91019 -2.50249e-15 -1.06021e-17 0.231447 -8.35904e-17 1.88055e-15)
(-1.59359e-14 -8.56478e-30 3.56866e-31 6.91019 -2.29908e-16 -2.98522e-15 0.231447 4.41235e-16 -9.16036e-17)
(1.60669e-15 -1.36902e-29 5.2549e-31 6.69067 -2.31589e-15 3.89094e-17 0.228301 -7.54808e-17 1.8974e-15)
(0 1.12104e-29 -5.2549e-31 6.69067 -1.31143e-16 -3.16708e-15 0.228301 4.50457e-16 -1.07114e-16)
(0 -1.49971e-29 1.03172e-30 6.47945 -1.34253e-15 1.36304e-16 0.225244 -2.34949e-17 1.91596e-15)
(6.49182e-15 1.37563e-29 -1.04733e-30 6.47945 -4.52032e-16 -2.93761e-15 0.225244 4.52704e-16 -9.84435e-17)
(1.639e-15 -1.05839e-29 0 6.2762 -8.23297e-16 1.64222e-16 0.222275 -3.53227e-17 1.93555e-15)
(6.55599e-15 8.10252e-30 -3.56844e-31 6.2762 -1.59002e-15 -2.84588e-15 0.222275 4.5186e-16 -1.04549e-16)
(1.16809e-15 -1.36247e-29 9.94255e-31 6.08062 -2.27114e-15 8.01593e-17 0.219392 -1.30533e-16 1.95536e-15)
(0 1.32567e-29 -1.15996e-30 6.08062 -1.68687e-15 -3.08559e-15 0.219392 4.40044e-16 -1.19728e-16)
(-4.10414e-16 -1.84736e-29 8.13363e-31 5.89238 -2.84182e-15 6.35984e-17 0.216592 -7.92754e-17 1.97429e-15)
(6.68173e-15 2.08221e-29 -1.00181e-30 5.89238 -1.25926e-16 -3.29612e-15 0.216592 4.62939e-16 -1.24212e-16)
(1.68584e-15 -4.97258e-30 9.5815e-31 5.71119 -3.66226e-44 2.03872e-16 0.213874 -3.15544e-30 1.99482e-15)
(1.34867e-14 1.78855e-29 -1.04167e-30 5.71119 -1.92542e-15 -3.16872e-15 0.213874 5.11283e-16 -1.14547e-16)
(-4.52508e-15 -5.05548e-30 3.13531e-31 5.53676 1.5663e-15 1.51913e-16 0.211235 -9.60146e-17 2.01749e-15)
(2.82403e-15 1.0033e-29 -6.27062e-31 5.53676 -4.77405e-15 -3.09538e-15 0.211235 4.76663e-16 -1.23209e-16)
(-3.43212e-15 4.94481e-30 0 5.3688 -5.60531e-16 3.34164e-17 0.208674 -6.82745e-17 2.03788e-15)
(6.86423e-15 0 -4.90141e-32 5.3688 -2.72585e-15 -3.31004e-15 0.208674 4.5101e-16 -1.35809e-16)
(-1.73088e-15 3.64338e-44 0 5.20706 1.29655e-28 1.44167e-16 0.206187 3.15544e-30 2.05936e-15)
(6.92353e-15 4.83433e-30 -2.13888e-31 5.20706 -1.82366e-15 -3.39742e-15 0.206187 4.81784e-16 -1.3488e-16)
(0 9.49148e-30 -2.96609e-31 5.05126 1.81214e-16 4.84701e-17 0.203774 -4.01489e-17 2.08349e-15)
(0 -2.37287e-30 5.93217e-31 5.05126 -2.41994e-15 -3.50104e-15 0.203774 4.4669e-16 -1.49415e-16)
(4.38265e-15 -9.4697e-30 2.91173e-31 4.90116 -6.50522e-16 -3.21305e-17 0.201431 -2.77478e-17 2.10444e-15)
(4.4173e-15 6.98816e-30 -3.66898e-31 4.90116 -1.75011e-15 -3.70554e-15 0.201431 4.11517e-16 -1.57028e-16)
(1.77428e-15 -2.48348e-30 8.57513e-31 4.75652 1.12981e-28 7.85695e-17 0.199156 0 2.12855e-15)
(7.09713e-15 1.14335e-29 -9.53319e-31 4.75652 -1.89664e-15 -3.65468e-15 0.199156 4.32016e-16 -1.50722e-16)
(-1.78841e-15 4.71805e-30 0 4.61711 5.36473e-16 1.57082e-17 0.196949 -3.89204e-17 2.15309e-15)
(7.15363e-15 0 -3.8582e-31 4.61711 -2.54598e-15 -3.61623e-15 0.196949 4.59259e-16 -1.59615e-16)
(1.80237e-15 -1.81937e-29 5.50916e-31 4.4827 3.11661e-16 2.34913e-17 0.194805 -6.80953e-18 2.17667e-15)
(0 8.81465e-30 -5.50916e-31 4.4827 -3.63128e-15 -3.71166e-15 0.194805 4.42782e-16 -1.6482e-16)
(-1.81618e-15 1.11223e-29 -5.40821e-31 4.3531 1.49785e-15 3.18822e-17 0.192724 -5.25103e-17 2.20308e-15)
(4.82907e-15 -4.32656e-30 4.10238e-31 4.3531 -4.29545e-15 -3.82483e-15 0.192724 4.12377e-16 -1.75799e-16)
(1.82983e-15 -1.0957e-29 5.3091e-31 4.22809 2.10115e-15 4.09103e-17 0.190703 -8.11046e-17 2.22882e-15)
(0 8.49456e-30 -5.3091e-31 4.22809 -4.43593e-15 -3.95589e-15 0.190703 3.7777e-16 -1.83028e-16)
(-4.19053e-15 1.07935e-29 -7.81772e-31 4.10749 2.61221e-15 5.06506e-17 0.188741 -1.09713e-16 2.25736e-15)
(7.37334e-15 -4.16945e-30 6.12989e-31 4.10749 -4.12611e-15 -3.90361e-15 0.188741 2.97531e-16 -1.77548e-16)
(-4.47484e-16 5.73791e-30 -5.11631e-31 3.99111 2.56819e-15 -2.6762e-17 0.186835 -1.31815e-16 2.28506e-15)
(7.42679e-15 -4.09305e-30 3.22439e-31 3.99111 -2.66367e-15 -3.77073e-15 0.186835 2.80066e-16 -1.77303e-16)
(0 8.03609e-30 -7.53383e-31 3.87878 2.02627e-15 -5.56061e-17 0.184984 -1.09666e-16 2.31355e-15)
(5.21771e-15 -4.01804e-30 3.08344e-31 3.87878 -3.17867e-15 -3.93353e-15 0.184984 3.06913e-16 -1.99992e-16)
(0 3.94441e-30 -7.39578e-31 3.77033 1.90833e-15 -8.45616e-17 0.183185 -8.43463e-17 2.34312e-15)
(-7.53201e-15 0 6.9927e-31 3.77033 -5.43723e-15 -4.26554e-15 0.183185 2.51399e-16 -2.16708e-16)
(0 1.54885e-29 -1.45205e-30 3.66559 2.17049e-15 -9.17225e-17 0.181438 -1.02174e-16 2.37348e-15)
(7.58383e-15 -1.54885e-29 1.20777e-30 3.66559 -5.74876e-15 -4.17114e-15 0.181438 1.8166e-16 -1.9805e-16)
(-1.90878e-15 -1.65731e-29 1.42544e-30 3.56442 1.8988e-15 -1.20558e-16 0.179741 -1.13846e-16 2.40461e-15)
(0 1.90059e-29 -1.90059e-30 3.56442 -5.61013e-15 -4.04031e-15 0.179741 1.32856e-16 -2.11492e-16)
(-1.92148e-15 2.43621e-30 0 3.46667 1.83802e-15 -1.27543e-16 0.178091 -7.8236e-17 2.43683e-15)
(7.68593e-15 3.73152e-30 -7.48069e-31 3.46667 -4.82216e-15 -4.10598e-15 0.178091 4.84633e-17 -2.12355e-16)
(2.06217e-15 -7.32629e-30 4.57893e-31 3.3722 2.83691e-15 -7.95397e-17 0.176487 -1.11804e-16 2.47094e-15)
(-2.06217e-15 7.32629e-30 -1.14473e-30 3.3722 -4.65155e-15 -4.26249e-15 0.176487 2.21159e-17 -2.36073e-16)
(-2.02438e-15 3.59602e-30 -6.74253e-31 3.28088 3.47566e-15 -1.40255e-16 0.174929 -1.87199e-16 2.50694e-15)
(0 0 4.49502e-31 3.28088 -6.119e-15 -4.54667e-15 0.174929 -1.2105e-18 -2.51081e-16)
(1.95887e-15 -2.00597e-29 1.76506e-30 3.19259 3.81992e-15 -1.52277e-16 0.173413 -1.85075e-16 2.54226e-15)
(7.8355e-15 1.41205e-29 -2.12626e-30 3.19259 -6.35661e-15 -4.33984e-15 0.173413 -5.126e-17 -2.2219e-16)
(-1.93062e-15 7.99826e-30 -4.33179e-31 3.10719 5.20056e-15 -5.43037e-17 0.17194 -2.32167e-16 2.58179e-15)
(7.88445e-15 -3.46543e-30 6.04015e-32 3.10719 -6.27623e-15 -4.22589e-15 0.17194 -1.29882e-16 -2.47758e-16)
(0 0 0 3.02458 5.38241e-15 -7.49275e-17 0.170507 -3.46941e-16 2.6238e-15)
(7.93297e-15 3.40193e-30 -8.31112e-31 3.02458 -6.58109e-15 -4.38202e-15 0.170507 -2.11427e-16 -2.48406e-16)
(-3.99053e-15 4.73479e-30 0 2.94464 4.02644e-15 -1.66768e-16 0.169113 -2.61698e-16 2.66484e-15)
(7.98106e-15 0 -4.42685e-31 2.94464 -5.49566e-15 -4.22658e-15 0.169113 -2.67497e-16 -2.38998e-16)
(2.00719e-15 -1.8757e-29 2.049e-30 2.86727 3.35937e-15 -1.94107e-16 0.167757 -2.02158e-16 2.7067e-15)
(8.02876e-15 1.6392e-29 -2.50102e-30 2.86727 -4.35639e-15 -4.40111e-15 0.167757 -3.1341e-16 -2.78464e-16)
(0 1.60916e-29 -2.01145e-30 2.79237 2.74092e-15 -1.83501e-16 0.166437 -1.92452e-16 2.75047e-15)
(-8.07605e-15 -1.60916e-29 2.49918e-30 2.79237 -4.31585e-15 -4.64939e-15 0.166437 -3.59274e-16 -2.77996e-16)
(0 0 -7.89836e-31 2.71985 2.3409e-15 -1.28674e-16 0.165154 -1.35066e-16 2.79595e-15)
(-1.77855e-15 0 1.18475e-30 2.71985 -3.50767e-15 -4.83821e-15 0.165154 -3.98803e-16 -3.12193e-16)
(-5.83071e-15 2.02096e-29 -1.93841e-30 2.64961 2.99158e-15 -4.50484e-17 0.163904 -1.50477e-16 2.84595e-15)
(1.74596e-15 -1.55073e-29 1.93841e-30 2.64961 -3.02558e-15 -4.7359e-15 0.163904 -4.23281e-16 -2.75647e-16)
(-3.76788e-15 1.14623e-29 -1.14173e-30 2.58156 4.73036e-15 5.72562e-17 0.162688 -2.21722e-16 2.89765e-15)
(0 -3.04462e-30 1.14173e-30 2.58156 -3.42031e-15 -4.66431e-15 0.162688 -4.30617e-16 -3.14814e-16)
(-3.36512e-15 1.7933e-29 -1.49441e-30 2.51562 7.15302e-15 6.35785e-17 0.161503 -3.78181e-16 2.9236e-15)
(-8.26147e-15 -1.49441e-29 2.47181e-30 2.51562 -5.63373e-15 -5.1841e-15 0.161503 -4.95164e-16 -3.53648e-16)
(4.15347e-15 -1.5904e-30 -7.33514e-31 2.45172 1.0077e-14 5.47668e-17 0.16035 -5.45212e-16 2.90805e-15)
(0 -2.93406e-30 1.10027e-30 2.45172 -7.71856e-15 -5.18125e-15 0.16035 -6.28679e-16 -3.26299e-16)
(9.33114e-16 7.11803e-30 -1.80018e-30 2.38977 1.07194e-14 -4.60157e-17 0.159227 -7.79872e-16 2.88431e-15)
(8.35207e-15 -1.44015e-29 2.50225e-30 2.38977 -7.0182e-15 -4.64097e-15 0.159227 -7.37914e-16 -2.94048e-16)
(-2.09922e-15 2.19197e-30 0 2.3297 8.16362e-15 -2.35536e-16 0.158133 -6.52471e-16 2.86314e-15)
(8.39687e-15 5.65502e-30 -1.11405e-30 2.3297 -8.20482e-15 -4.55894e-15 0.158133 -8.15445e-16 -3.27315e-16)
(1.09552e-15 -1.6283e-30 -6.93924e-31 2.27144 6.88298e-15 -2.85514e-16 0.157067 -4.57842e-16 2.83302e-15)
(0 -2.7757e-30 1.04089e-30 2.27144 -8.98115e-15 -4.78493e-15 0.157067 -9.46359e-16 -3.36781e-16)
(5.18927e-15 -2.1794e-30 0 2.21493 7.16758e-15 -1.60876e-16 0.156028 -4.97683e-16 2.80645e-15)
(8.48552e-15 2.72483e-30 -1.49137e-30 2.21493 -8.07408e-15 -5.12615e-15 0.156028 -1.08801e-15 -3.88335e-16)
(-2.13235e-15 1.01844e-29 -6.68725e-31 2.1601 8.1177e-15 3.22372e-17 0.155016 -5.15702e-16 2.78456e-15)
(0 -5.3498e-30 6.68725e-31 2.1601 -8.70803e-15 -5.2331e-15 0.155016 -1.24228e-15 -3.65016e-16)
(0 0 6.56471e-31 2.10688 8.28334e-15 -1.64399e-16 0.15403 -6.54532e-16 2.7571e-15)
(1.41894e-14 7.87765e-30 -2.53925e-30 2.10688 -6.56927e-15 -4.91586e-15 0.15403 -1.35e-15 -3.55998e-16)
(-2.15406e-15 -1.07701e-29 3.22221e-30 2.05523 4.49707e-15 -5.07616e-16 0.153068 -5.59658e-16 2.72293e-15)
(0 1.28888e-29 -3.22221e-30 2.05523 -2.72185e-15 -5.35204e-15 0.153068 -1.37936e-15 -4.44555e-16)
(0 -1.03802e-29 3.16316e-30 2.00509 2.84197e-15 -5.39425e-16 0.15213 -1.08148e-16 2.69028e-15)
(1.73185e-14 1.26526e-29 -5.22127e-30 2.00509 -2.05548e-15 -5.68444e-15 0.15213 -1.41261e-15 -4.20482e-16)
(-2.1755e-15 1.20452e-29 -2.48416e-30 1.9564 6.99828e-15 -2.08412e-16 0.151215 -4.43941e-16 2.66328e-15)
(0 -9.93663e-30 2.48416e-30 1.9564 -4.57294e-15 -5.69559e-15 0.151215 -1.45529e-15 -4.63053e-16)
(0 -2.43864e-30 6.09659e-31 1.9091 4.74763e-15 2.10125e-16 0.150323 -6.43031e-16 2.64959e-15)
(8.74445e-15 7.31591e-30 -2.38868e-30 1.9091 -4.38314e-15 -5.52673e-15 0.150323 -1.60619e-15 -4.09405e-16)
(2.19666e-15 -1.40947e-29 2.99244e-30 1.86316 2.32796e-15 5.0431e-16 0.149452 -1.01858e-16 2.6349e-15)
(1.75733e-14 1.19697e-29 -5.40461e-30 1.86316 -1.65659e-15 -5.39126e-15 0.149452 -1.65767e-15 -4.58501e-16)
(-2.20715e-15 2.09149e-30 0 1.81853 5.42799e-15 3.94863e-16 0.148602 -2.74304e-16 2.6352e-15)
(8.82861e-15 4.70016e-30 -1.88257e-30 1.81853 -2.86251e-15 -5.50162e-15 0.148602 -1.62753e-15 -4.43089e-16)
(-2.97736e-15 2.58993e-30 -5.76754e-31 1.77515 7.47597e-15 -1.5087e-16 0.147773 -6.18545e-16 2.62096e-15)
(8.87032e-15 0 -7.56709e-31 1.77515 -3.76118e-15 -5.67024e-15 0.147773 -1.67321e-15 -5.04194e-16)
(-4.45589e-15 8.5357e-30 -1.13237e-30 1.73298 5.36503e-15 -2.2472e-16 0.146964 -6.29768e-16 2.59134e-15)
(6.36191e-15 0 -2.84728e-31 1.73298 -1.92191e-15 -5.8975e-15 0.146964 -1.72448e-15 -4.988e-16)
(-2.50315e-15 -2.22324e-30 3.89067e-30 1.69199 3.76792e-15 5.93396e-17 0.146173 -2.79473e-16 2.56893e-15)
(1.7906e-14 4.44648e-30 -7.39373e-30 1.69199 -2.08701e-15 -3.79259e-15 0.146173 -1.77336e-15 -1.6427e-16)
(0 4.365e-30 -1.63688e-30 1.65213 3.69041e-15 9.69252e-17 0.145401 -3.74211e-16 2.55018e-15)
(8.99401e-15 0 0 1.65213 -4.17788e-15 9.86076e-32 0.145401 -1.8526e-15 -1.9209e-46)
(-2.2587e-15 4.1783e-30 -1.07125e-30 1.61337 3.67614e-15 2.43482e-16 0.144647 -2.76197e-16 2.53006e-15)
(0 0 5.35627e-31 1.61337 -5.15705e-15 8.28652e-16 0.144647 -1.96353e-15 -7.21197e-17)
(-9.92087e-17 2.19327e-30 -2.62906e-30 1.57566 5.01334e-15 2.06911e-16 0.143911 -3.85723e-16 2.53141e-15)
(2.36804e-15 -8.41298e-30 3.68068e-30 1.57566 -4.10587e-15 9.62103e-16 0.143911 -2.0825e-15 -7.69019e-17)
(0 4.12941e-30 -1.54853e-30 1.53898 4.93106e-15 1.72799e-17 0.14319 -5.33783e-16 2.50998e-15)
(-2.32465e-15 0 1.03235e-30 1.53898 -1.61844e-15 8.52819e-16 0.14319 -2.1624e-15 -9.95055e-17)
(-2.28896e-15 1.00869e-29 -4.56046e-30 1.50328 4.2035e-15 -1.29737e-16 0.142487 -3.84764e-16 2.47525e-15)
(-2.28205e-15 -8.10748e-30 5.06717e-30 1.50328 -1.48257e-15 4.63505e-16 0.142487 -2.19032e-15 -5.92216e-17)
(-2.29894e-15 5.94725e-30 -1.4923e-30 1.46854 4.32768e-15 -1.2381e-16 0.141798 -4.14341e-16 2.44948e-15)
(-1.1436e-14 -3.97946e-30 2.96598e-30 1.46854 -2.86651e-15 3.77049e-16 0.141798 -2.30309e-15 -2.85795e-17)
(-2.30887e-15 -5.8547e-30 2.9299e-30 1.43473 4.73896e-15 1.79004e-16 0.141125 -4.23527e-16 2.43717e-15)
(1.8471e-14 7.81307e-30 -8.18524e-30 1.43473 -2.52948e-15 9.03853e-16 0.141125 -2.34017e-15 -4.45602e-17)
(-2.15888e-15 -7.6699e-30 3.83495e-30 1.40181 4.50743e-15 1.79261e-16 0.140467 -5.11817e-16 2.43426e-15)
(1.14339e-14 7.6699e-30 -5.80286e-30 1.40181 -2.73074e-15 1.51686e-15 0.140467 -2.37599e-15 -1.5643e-16)
(-2.09268e-16 5.69255e-30 -1.41175e-30 1.36975 3.49734e-15 6.79078e-17 0.139823 -3.92541e-16 2.42673e-15)
(7.19504e-15 0 -1.01467e-30 1.36975 -2.55792e-15 8.90855e-16 0.139823 -2.5106e-15 -1.48203e-16)
(0 3.69569e-30 -1.84784e-30 1.33854 3.60468e-15 1.12748e-16 0.139192 -3.22478e-16 2.38962e-15)
(9.35352e-15 0 -6.23236e-31 1.33854 -2.44261e-15 2.46537e-16 0.139192 -2.5999e-15 -3.30292e-17)
(-2.34812e-15 -5.36738e-30 3.62796e-30 1.30813 5.21792e-15 1.63599e-16 0.138574 -4.29916e-16 2.34905e-15)
(9.3925e-15 1.08839e-29 -5.62263e-30 1.30813 -3.83798e-15 -1.68509e-16 0.138574 -2.72053e-15 -5.4681e-17)
(-2.00494e-15 -7.12297e-30 3.56148e-30 1.27851 6.01315e-15 1.06889e-16 0.13797 -6.80388e-16 2.3223e-15)
(1.14362e-14 7.12297e-30 0 1.27851 -4.59467e-15 2.8399e-29 0.13797 -2.88917e-15 -7.26706e-45)