/*--------------------------------*- C++ -*----------------------------------*\
| =========                 |                                                 |
| \\      /  F ield         | OpenFOAM: The Open Source CFD Toolbox           |
|  \\    /   O peration     | Version:  2106                                  |
|   \\  /    A nd           | Website:  www.openfoam.com                      |
|    \\/     M anipulation  |                                                 |
\*---------------------------------------------------------------------------*/
FoamFile
{
    version     2.0;
    format      ascii;
    arch        "LSB;label=32;scalar=64";
    class       volVectorField;
    location    "10020";
    object      grad(T);
}
// * * * * * * * * * * * * * * * * * * * * * * * * * * * * * * * * * * * * * //

dimensions      [0 -1 0 1 0 0 0];

internalField   nonuniform List<vector> 
2000
(
(0 281.193 0.520385)
(0 281.193 0.520385)
(0 281.193 1.57087)
(0 281.193 1.57087)
(-6.39533e-17 281.192 2.18013)
(0 281.192 2.18013)
(-2.09583e-16 281.191 2.22082)
(8.38334e-16 281.191 2.22082)
(0 281.19 2.26226)
(0 281.19 2.26226)
(0 281.189 2.30448)
(-2.0362e-15 281.189 2.30448)
(0 281.187 2.34748)
(2.65195e-15 281.187 2.34748)
(0 281.185 2.39128)
(6.55838e-15 281.185 2.39128)
(-9.79535e-16 281.183 2.4359)
(0 281.183 2.4359)
(0 281.179 2.48133)
(3.10013e-15 281.179 2.48133)
(4.56499e-15 281.175 2.52761)
(0 281.175 2.52761)
(2.97063e-15 281.17 2.57474)
(4.41365e-15 281.17 2.57474)
(0 281.164 2.62274)
(0 281.164 2.62274)
(-4.70313e-15 281.155 2.67161)
(0 281.155 2.67161)
(-2.00254e-15 281.145 2.72136)
(-2.82631e-15 281.145 2.72136)
(4.95886e-15 281.131 2.77201)
(-8.73736e-15 281.131 2.77201)
(0 281.113 2.82355)
(0 281.113 2.82355)
(5.11636e-15 281.09 2.87599)
(1.02327e-14 281.09 2.87599)
(-2.75034e-15 281.06 2.92932)
(-5.24954e-15 281.06 2.92932)
(2.94608e-15 281.022 2.98354)
(1.17843e-14 281.022 2.98354)
(-3.14546e-15 280.973 3.03864)
(2.51636e-14 280.973 3.03864)
(0 280.91 3.09459)
(8.42795e-15 280.91 3.09459)
(0 280.83 3.15136)
(1.42216e-14 280.83 3.15136)
(0 280.73 3.2089)
(1.02784e-14 280.73 3.2089)
(-3.98065e-15 280.604 3.26718)
(0 280.604 3.26718)
(0 280.448 3.32611)
(1.67967e-14 280.448 3.32611)
(1.05842e-16 280.254 3.3856)
(0 280.254 3.3856)
(-4.64832e-15 280.015 3.44556)
(0 280.015 3.44556)
(0 279.723 3.50586)
(-4.36315e-15 279.723 3.50586)
(-1.36803e-14 279.368 3.56633)
(-2.04556e-14 279.368 3.56633)
(5.35298e-15 278.94 3.62681)
(2.14119e-14 278.94 3.62681)
(0 278.426 3.68709)
(-8.25531e-15 278.426 3.68709)
(-5.84382e-15 277.813 3.74693)
(0 277.813 3.74693)
(-6.09561e-15 277.087 3.80605)
(0 277.087 3.80605)
(0 276.232 3.86418)
(2.54065e-14 276.232 3.86418)
(0 275.234 3.92097)
(0 275.234 3.92097)
(6.87631e-15 274.075 3.97608)
(1.24529e-14 274.075 3.97608)
(-1.45331e-14 272.738 4.02913)
(2.85794e-14 272.738 4.02913)
(-1.46702e-14 271.208 4.07973)
(0 271.208 4.07973)
(0 269.469 4.1275)
(3.07754e-14 269.469 4.1275)
(-1.59482e-14 267.507 4.17203)
(3.18963e-14 267.507 4.17203)
(0 265.309 4.21292)
(1.37228e-14 265.309 4.21292)
(0 262.866 4.24983)
(0 262.866 4.24983)
(-8.83548e-15 260.169 4.28241)
(-3.53419e-14 260.169 4.28241)
(9.12875e-15 257.215 4.31038)
(3.6515e-14 257.215 4.31038)
(9.42463e-15 254.004 4.33348)
(-3.76985e-14 254.004 4.33348)
(-9.72282e-15 250.538 4.35154)
(3.88913e-14 250.538 4.35154)
(0 246.825 4.36443)
(8.01839e-14 246.825 4.36443)
(1.03248e-14 242.875 4.37212)
(4.1299e-14 242.875 4.37212)
(-1.06278e-14 238.704 4.3746)
(-6.61821e-14 238.704 4.3746)
(0 234.327 4.37198)
(0 234.327 4.37198)
(-2.26418e-14 229.766 4.36439)
(-2.28113e-14 229.766 4.36439)
(0 225.042 4.35204)
(0 225.042 4.35204)
(0 220.179 4.33518)
(-4.738e-14 220.179 4.33518)
(-9.43141e-15 215.201 4.3141)
(-1.07901e-14 215.201 4.3141)
(-1.24516e-14 210.133 4.28912)
(0 210.133 4.28912)
(-4.70978e-15 205 4.26057)
(5.10125e-14 205 4.26057)
(-1.30532e-14 199.825 4.22883)
(0 199.825 4.22883)
(-2.67028e-14 194.631 4.19423)
(-5.34057e-14 194.631 4.19423)
(3.33216e-14 189.439 4.15714)
(-7.42644e-14 189.439 4.15714)
(-1.93135e-14 184.268 4.11791)
(-1.93135e-14 184.268 4.11791)
(-4.74255e-14 179.137 4.07686)
(1.32823e-13 179.137 4.07686)
(-1.45217e-14 174.061 4.03431)
(5.80869e-14 174.061 4.03431)
(0 169.053 3.99055)
(0 169.053 3.99055)
(-3.30272e-14 164.127 3.94586)
(6.03634e-14 164.127 3.94586)
(0 159.291 3.90048)
(-1.76076e-14 159.291 3.90048)
(1.63704e-15 154.554 3.85464)
(-1.7285e-14 154.554 3.85464)
(1.69682e-14 149.924 3.80855)
(-1.69682e-14 149.924 3.80855)
(-1.66573e-14 145.405 3.76239)
(8.14273e-14 145.405 3.76239)
(1.63521e-14 141.001 3.71631)
(-1.63521e-14 141.001 3.71631)
(-1.67242e-14 136.716 3.67046)
(6.68967e-14 136.716 3.67046)
(0 132.551 3.62496)
(6.79408e-14 132.551 3.62496)
(-1.7243e-14 128.507 3.57991)
(-6.89719e-14 128.507 3.57991)
(0 124.584 3.53541)
(-6.99902e-14 124.584 3.53541)
(-3.54979e-14 120.782 3.49152)
(7.09959e-14 120.782 3.49152)
(-3.59945e-14 117.099 3.44832)
(0 117.099 3.44832)
(-2.87328e-14 113.534 3.40585)
(1.01702e-13 113.534 3.40585)
(-1.84845e-14 110.085 3.36416)
(-7.39381e-14 110.085 3.36416)
(1.87236e-14 106.75 3.32327)
(0 106.75 3.32327)
(1.89598e-14 103.525 3.28322)
(-7.58391e-14 103.525 3.28322)
(-3.83861e-14 100.409 3.24403)
(0 100.409 3.24403)
(2.61949e-14 97.3983 3.20569)
(-2.61949e-14 97.3983 3.20569)
(4.5366e-14 94.4898 3.16823)
(-1.82924e-13 94.4898 3.16823)
(1.9876e-14 91.6807 3.13164)
(0 91.6807 3.13164)
(0 88.9677 3.09593)
(8.03931e-14 88.9677 3.09593)
(4.46449e-14 86.3477 3.06108)
(8.12717e-14 86.3477 3.06108)
(-1.71889e-14 83.8178 3.0271)
(2.38812e-14 83.8178 3.0271)
(-4.14994e-14 81.3747 2.99397)
(8.29988e-14 81.3747 2.99397)
(2.09619e-14 79.0154 2.96167)
(1.67695e-13 79.0154 2.96167)
(-2.11718e-14 76.737 2.93021)
(0 76.737 2.93021)
(-4.27588e-14 74.5366 2.89956)
(8.55175e-14 74.5366 2.89956)
(-2.15847e-14 72.4113 2.8697)
(8.63389e-14 72.4113 2.8697)
(0 70.3583 2.84063)
(-2.13729e-14 70.3583 2.84063)
(2.19889e-14 68.3749 2.81233)
(8.79557e-14 68.3749 2.81233)
(2.21879e-14 66.4586 2.78477)
(8.87515e-14 66.4586 2.78477)
(-2.23848e-14 64.6068 2.75794)
(8.95394e-14 64.6068 2.75794)
(2.25798e-14 62.8171 2.73182)
(0 62.8171 2.73182)
(-2.27729e-14 61.087 2.7064)
(5.21215e-14 61.087 2.7064)
(2.29642e-14 59.4144 2.68166)
(0 59.4144 2.68166)
(-2.31536e-14 57.7971 2.65758)
(9.26143e-14 57.7971 2.65758)
(2.33412e-14 56.2329 2.63414)
(5.6498e-14 56.2329 2.63414)
(0 54.7199 2.61132)
(5.79174e-14 54.7199 2.61132)
(0 53.2561 2.58912)
(-1.30374e-13 53.2561 2.58912)
(0 51.8396 2.5675)
(9.55764e-14 51.8396 2.5675)
(1.01628e-14 50.4686 2.54646)
(0 50.4686 2.54646)
(-2.42547e-14 49.1414 2.52597)
(9.70189e-14 49.1414 2.52597)
(0 47.8564 2.50603)
(6.59893e-14 47.8564 2.50603)
(0 46.612 2.48662)
(-3.23901e-14 46.612 2.48662)
(2.47845e-14 45.4067 2.46771)
(9.91381e-14 45.4067 2.46771)
(2.49583e-14 44.2389 2.44931)
(6.86194e-14 44.2389 2.44931)
(0 43.1074 2.43139)
(1.00523e-13 43.1074 2.43139)
(-5.06038e-14 42.0107 2.41393)
(1.01208e-13 42.0107 2.41393)
(2.54717e-14 40.9476 2.39694)
(1.01887e-13 40.9476 2.39694)
(0 39.9169 2.38038)
(-1.02561e-13 39.9169 2.38038)
(0 38.9173 2.36426)
(-2.84568e-14 38.9173 2.36426)
(-5.1948e-14 37.9478 2.34855)
(0 37.9478 2.34855)
(-2.61391e-14 37.0073 2.33324)
(0 37.0073 2.33324)
(0 36.0947 2.31833)
(-1.32133e-13 36.0947 2.31833)
(7.93595e-14 35.209 2.3038)
(-2.64276e-14 35.209 2.3038)
(2.73122e-14 34.3492 2.28964)
(1.06511e-13 34.3492 2.28964)
(-2.67886e-14 33.5145 2.27584)
(1.07154e-13 33.5145 2.27584)
(5.38967e-14 32.704 2.26239)
(-2.50013e-14 32.704 2.26239)
(5.16503e-14 31.9168 2.24928)
(1.08429e-13 31.9168 2.24928)
(-2.7265e-14 31.1521 2.2365)
(-2.40934e-14 31.1521 2.2365)
(-2.36519e-14 30.4091 2.22404)
(2.19375e-13 30.4091 2.22404)
(-7.40148e-14 29.6872 2.21189)
(0 29.6872 2.21189)
(-4.5586e-14 28.9854 2.20004)
(2.6745e-13 28.9854 2.20004)
(-2.78873e-14 28.3033 2.18848)
(0 28.3033 2.18848)
(4.39306e-14 27.6401 2.17721)
(1.12163e-13 27.6401 2.17721)
(2.81933e-14 26.9952 2.16621)
(2.25547e-13 26.9952 2.16621)
(-2.83451e-14 26.3679 2.15548)
(1.13381e-13 26.3679 2.15548)
(2.84962e-14 25.7577 2.145)
(7.24251e-14 25.7577 2.145)
(-5.72928e-14 25.164 2.13479)
(1.14586e-13 25.164 2.13479)
(-8.01007e-14 24.5863 2.12481)
(2.70418e-13 24.5863 2.12481)
(0 24.0241 2.11507)
(7.64624e-14 24.0241 2.11507)
(9.50318e-15 23.4768 2.10557)
(-3.8596e-14 23.4768 2.10557)
(2.92402e-14 22.944 2.09628)
(0 22.944 2.09628)
(0 22.4252 2.08722)
(-3.71944e-14 22.4252 2.08722)
(-2.9533e-14 21.9199 2.07836)
(0 21.9199 2.07836)
(-2.96784e-14 21.4278 2.06971)
(-1.54557e-13 21.4278 2.06971)
(-6.50101e-14 20.9484 2.06125)
(2.38585e-13 20.9484 2.06125)
(-6.90843e-14 20.4812 2.05298)
(1.88954e-13 20.4812 2.05298)
(3.79825e-15 20.026 2.0449)
(8.65345e-14 20.026 2.0449)
(0 19.5824 2.037)
(1.21016e-13 19.5824 2.037)
(-6.30741e-14 19.1499 2.02928)
(1.54263e-13 19.1499 2.02928)
(0 18.7284 2.02172)
(1.22153e-13 18.7284 2.02172)
(-3.06795e-14 18.3173 2.01432)
(0 18.3173 2.01432)
(-3.08203e-14 17.9164 2.00708)
(0 17.9164 2.00708)
(-3.09605e-14 17.5254 1.99999)
(0 17.5254 1.99999)
(-2.84827e-14 17.144 1.99305)
(-1.24401e-13 17.144 1.99305)
(2.92456e-14 16.7719 1.98624)
(-2.92456e-14 16.7719 1.98624)
(0 16.4088 1.97957)
(0 16.4088 1.97957)
(8.78836e-14 16.0545 1.97304)
(2.81836e-14 16.0545 1.97304)
(-5.93214e-14 15.7086 1.96662)
(1.54284e-13 15.7086 1.96662)
(-5.89518e-14 15.371 1.96033)
(1.27167e-13 15.371 1.96033)
(-3.19285e-14 15.0415 1.95415)
(0 15.0415 1.95415)
(0 14.7196 1.94808)
(1.2826e-13 14.7196 1.94808)
(-3.2201e-14 14.4053 1.94212)
(-1.80192e-13 14.4053 1.94212)
(3.23366e-14 14.0984 1.93626)
(1.29346e-13 14.0984 1.93626)
(3.24717e-14 13.7985 1.93049)
(1.79409e-13 13.7985 1.93049)
(3.26065e-14 13.5056 1.92481)
(0 13.5056 1.92481)
(-4.7724e-14 13.2193 1.91922)
(1.78687e-13 13.2193 1.91922)
(-3.28747e-14 12.9396 1.9137)
(0 12.9396 1.9137)
(4.5991e-14 12.6661 1.90826)
(1.32033e-13 12.6661 1.90826)
(1.20068e-14 12.3989 1.90289)
(-4.51482e-14 12.3989 1.90289)
(0 12.1376 1.89759)
(0 12.1376 1.89759)
(0 11.8821 1.89235)
(1.33626e-13 11.8821 1.89235)
(-4.27114e-14 11.6323 1.88716)
(1.76866e-13 11.6323 1.88716)
(-3.36703e-14 11.3879 1.88202)
(0 11.3879 1.88202)
(-3.38016e-14 11.1488 1.87692)
(0 11.1488 1.87692)
(-3.39325e-14 10.915 1.87186)
(0 10.915 1.87186)
(2.84605e-14 10.6861 1.86684)
(1.36252e-13 10.6861 1.86684)
(-6.36412e-14 10.4622 1.86184)
(1.36773e-13 10.4622 1.86184)
(0 10.243 1.85686)
(1.37293e-13 10.243 1.85686)
(-3.44528e-14 10.0285 1.8519)
(-3.75249e-14 10.0285 1.8519)
(-7.14192e-14 9.81838 1.84696)
(0 9.81838 1.84696)
(0 9.61268 1.84201)
(0 9.61268 1.84201)
(0 9.41122 1.83706)
(1.39357e-13 9.41122 1.83706)
(-3.49675e-14 9.2139 1.83211)
(-1.3987e-13 9.2139 1.83211)
(0 9.02058 1.82713)
(0 9.02058 1.82713)
(-1.0239e-13 8.83117 1.82214)
(-3.15366e-13 8.83117 1.82214)
(-6.8318e-14 8.64555 1.81712)
(0 8.64555 1.81712)
(0 8.46361 1.81206)
(0 8.46361 1.81206)
(0 8.28526 1.80696)
(1.42412e-13 8.28526 1.80696)
(-7.14584e-14 8.11038 1.8018)
(2.85834e-13 8.11038 1.8018)
(0 7.93889 1.79659)
(1.4342e-13 7.93889 1.79659)
(-3.59804e-14 7.77069 1.79131)
(-3.00562e-14 7.77069 1.79131)
(0 7.60568 1.78595)
(-1.44422e-13 7.60568 1.78595)
(-3.62301e-14 7.44377 1.78051)
(-5.79294e-14 7.44377 1.78051)
(0 7.28487 1.77497)
(1.45418e-13 7.28487 1.77497)
(0 7.1289 1.76933)
(1.45913e-13 7.1289 1.76933)
(3.66019e-14 6.97577 1.76358)
(2.92815e-13 6.97577 1.76358)
(3.67251e-14 6.82539 1.7577)
(1.469e-13 6.82539 1.7577)
(0 6.67768 1.75168)
(1.47392e-13 6.67768 1.75168)
(8.88153e-14 6.53256 1.74552)
(1.47881e-13 6.53256 1.74552)
(-3.70923e-14 6.38995 1.73919)
(2.96738e-13 6.38995 1.73919)
(-3.72139e-14 6.24978 1.73269)
(-1.48856e-13 6.24978 1.73269)
(4.90467e-14 6.11197 1.72601)
(0 6.11197 1.72601)
(-3.74558e-14 5.97644 1.71913)
(-4.8148e-14 5.97644 1.71913)
(-7.51521e-14 5.84311 1.71203)
(0 5.84311 1.71203)
(-3.76959e-14 5.71192 1.7047)
(1.50783e-13 5.71192 1.7047)
(0 5.58279 1.69712)
(0 5.58279 1.69712)
(-3.7934e-14 5.45565 1.68928)
(0 5.45565 1.68928)
(0 5.33043 1.68115)
(-4.38952e-14 5.33043 1.68115)
(3.81702e-14 5.20705 1.67272)
(3.05362e-13 5.20705 1.67272)
(1.18876e-13 5.08545 1.66397)
(-1.95451e-13 5.08545 1.66397)
(7.68084e-14 4.96556 1.65487)
(0 4.96556 1.65487)
(3.62756e-14 4.8473 1.6454)
(3.48928e-13 4.8473 1.6454)
(3.86359e-14 4.73061 1.63554)
(1.14525e-13 4.73061 1.63554)
(3.87508e-14 4.61541 1.62526)
(1.55003e-13 4.61541 1.62526)
(-3.88651e-14 4.50164 1.61452)
(1.5546e-13 4.50164 1.61452)
(-3.89787e-14 4.38922 1.60331)
(0 4.38922 1.60331)
(0 4.27808 1.59158)
(1.93531e-13 4.27808 1.59158)
(-7.84074e-14 4.16815 1.57931)
(1.20331e-13 4.16815 1.57931)
(-3.93151e-14 4.05935 1.56645)
(0 4.05935 1.56645)
(0 3.95161 1.55297)
(3.15405e-13 3.95161 1.55297)
(3.45143e-14 3.84484 1.53882)
(-3.45143e-14 3.84484 1.53882)
(3.96442e-14 3.73898 1.52396)
(-1.92459e-13 3.73898 1.52396)
(3.97521e-14 3.63393 1.50833)
(0 3.63393 1.50833)
(-1.44151e-14 3.52961 1.49188)
(0 3.52961 1.49188)
(1.58236e-14 3.42594 1.47456)
(0 3.42594 1.47456)
(0 3.32282 1.45629)
(1.60279e-13 3.32282 1.45629)
(0 3.22015 1.43701)
(1.60694e-13 3.22015 1.43701)
(4.02761e-14 3.11783 1.41664)
(1.61104e-13 3.11783 1.41664)
(0 3.01577 1.3951)
(-1.6151e-13 3.01577 1.3951)
(1.79667e-14 2.91384 1.3723)
(-5.84441e-14 2.91384 1.3723)
(-4.05759e-14 2.81192 1.34814)
(1.62304e-13 2.81192 1.34814)
(0 2.7099 1.32252)
(1.62692e-13 2.7099 1.32252)
(1.45211e-14 2.60763 1.29531)
(-1.63074e-13 2.60763 1.29531)
(4.08625e-14 2.50498 1.26638)
(3.269e-13 2.50498 1.26638)
(0 2.40178 1.2356)
(1.10537e-13 2.40178 1.2356)
(-4.10449e-14 2.29789 1.20281)
(0 2.29789 1.20281)
(4.11332e-14 2.19311 1.16783)
(1.64533e-13 2.19311 1.16783)
(5.95928e-14 2.08727 1.13048)
(1.64878e-13 2.08727 1.13048)
(-4.13034e-14 1.98016 1.09056)
(1.65214e-13 1.98016 1.09056)
(4.85757e-14 1.87158 1.04784)
(0 1.87158 1.04784)
(4.14641e-14 1.7613 1.00208)
(4.76856e-14 1.7613 1.00208)
(-8.30808e-14 1.6491 0.953026)
(1.66162e-13 1.6491 0.953026)
(0 1.53472 0.900391)
(0 1.53472 0.900391)
(0 1.41793 0.843883)
(0 1.41793 0.843883)
(4.17511e-14 1.29848 0.783194)
(1.67005e-13 1.29848 0.783194)
(-4.18145e-14 1.17614 0.718005)
(2.10732e-13 1.17614 0.718005)
(-8.45511e-14 1.05068 0.647998)
(0 1.05068 0.647998)
(0 0.92192 0.572857)
(0 0.92192 0.572857)
(0 0.789697 0.492284)
(-1.67922e-13 0.789697 0.492284)
(-4.20265e-14 0.653913 0.406007)
(0 0.653913 0.406007)
(-4.20675e-14 0.514531 0.313793)
(1.6827e-13 0.514531 0.313793)
(0 0.371589 0.215461)
(1.68412e-13 0.371589 0.215461)
(-4.21324e-14 0.225209 0.110886)
(0 0.225209 0.110886)
(-4.21555e-14 1.62489e-06 6.01416e-07)
(3.37357e-13 1.048e-06 3.87894e-07)
(0 281.193 -0.520385)
(0 281.193 -0.520385)
(-2.24656e-16 281.193 -1.57087)
(0 281.193 -1.57087)
(-1.27907e-16 281.192 -2.18013)
(0 281.192 -2.18013)
(2.09583e-16 281.191 -2.22082)
(-8.6599e-16 281.191 -2.22082)
(-7.15864e-16 281.19 -2.26226)
(0 281.19 -2.26226)
(1.34359e-15 281.189 -2.30448)
(-8.34543e-16 281.189 -2.30448)
(-1.6385e-15 281.187 -2.34748)
(0 281.187 -2.34748)
(1.6396e-15 281.185 -2.39128)
(0 281.185 -2.39128)
(-9.79535e-16 281.183 -2.4359)
(3.91814e-15 281.183 -2.4359)
(1.14225e-15 281.179 -2.48133)
(-4.56901e-15 281.179 -2.48133)
(1.09436e-15 281.175 -2.52761)
(-5.23203e-15 281.175 -2.52761)
(1.47686e-15 281.17 -2.57474)
(0 281.17 -2.57474)
(-1.64885e-15 281.164 -2.62274)
(-6.59542e-15 281.164 -2.62274)
(2.87907e-15 281.155 -2.67161)
(-1.01753e-14 281.155 -2.67161)
(2.00254e-15 281.145 -2.72136)
(-8.01015e-15 281.145 -2.72136)
(-2.77452e-15 281.131 -2.77201)
(0 281.131 -2.77201)
(2.36953e-15 281.113 -2.82355)
(-9.47814e-15 281.113 -2.82355)
(-2.78935e-15 281.09 -2.87599)
(1.55802e-14 281.09 -2.87599)
(2.75034e-15 281.06 -2.92932)
(0 281.06 -2.92932)
(5.89215e-15 281.022 -2.98354)
(0 281.022 -2.98354)
(3.14546e-15 280.973 -3.03864)
(7.52292e-15 280.973 -3.03864)
(3.34854e-15 280.91 -3.09459)
(8.42795e-15 280.91 -3.09459)
(-3.55539e-15 280.83 -3.15136)
(0 280.83 -3.15136)
(7.53215e-15 280.73 -3.2089)
(0 280.73 -3.2089)
(3.98065e-15 280.604 -3.26718)
(0 280.604 -3.26718)
(4.61207e-15 280.448 -3.32611)
(0 280.448 -3.32611)
(-4.52756e-15 280.254 -3.3856)
(0 280.254 -3.3856)
(9.29664e-15 280.015 -3.44556)
(0 280.015 -3.44556)
(4.87903e-15 279.723 -3.50586)
(1.95161e-14 279.723 -3.50586)
(1.02278e-14 279.368 -3.56633)
(0 279.368 -3.56633)
(1.37624e-14 278.94 -3.62681)
(-8.40941e-15 278.94 -3.62681)
(5.59628e-15 278.426 -3.68709)
(-8.25531e-15 278.426 -3.68709)
(1.39479e-14 277.813 -3.74693)
(-2.33753e-14 277.813 -3.74693)
(0 277.087 -3.80605)
(-3.2338e-14 277.087 -3.80605)
(0 276.232 -3.86418)
(0 276.232 -3.86418)
(6.61189e-15 275.234 -3.92097)
(-2.64475e-14 275.234 -3.92097)
(1.37526e-14 274.075 -3.97608)
(-7.52615e-15 274.075 -3.97608)
(-7.14484e-15 272.738 -4.02913)
(-2.85794e-14 272.738 -4.02913)
(-7.4174e-15 271.208 -4.07973)
(-6.6592e-14 271.208 -4.07973)
(-7.69386e-15 269.469 -4.1275)
(0 269.469 -4.1275)
(-7.97408e-15 267.507 -4.17203)
(0 267.507 -4.17203)
(-8.2579e-15 265.309 -4.21292)
(-6.60632e-14 265.309 -4.21292)
(1.70902e-14 262.866 -4.24983)
(0 262.866 -4.24983)
(8.83548e-15 260.169 -4.28241)
(-3.53419e-14 260.169 -4.28241)
(1.82575e-14 257.215 -4.31038)
(3.6515e-14 257.215 -4.31038)
(2.21689e-14 254.004 -4.33348)
(-3.76985e-14 254.004 -4.33348)
(-1.94456e-14 250.538 -4.35154)
(-3.88913e-14 250.538 -4.35154)
(7.76452e-15 246.825 -4.36443)
(5.23734e-14 246.825 -4.36443)
(1.20564e-14 242.875 -4.37212)
(0 242.875 -4.37212)
(1.30431e-14 238.704 -4.3746)
(-1.08693e-13 238.704 -4.3746)
(1.09317e-14 234.327 -4.37198)
(-5.53454e-14 234.327 -4.37198)
(1.12361e-14 229.766 -4.36439)
(0 229.766 -4.36439)
(0 225.042 -4.35204)
(-9.23254e-14 225.042 -4.35204)
(1.1845e-14 220.179 -4.33518)
(0 220.179 -4.33518)
(2.42975e-14 215.201 -4.3141)
(0 215.201 -4.3141)
(2.11847e-14 210.133 -4.28912)
(-7.09909e-14 210.133 -4.28912)
(1.27531e-14 205 -4.26057)
(0 205 -4.26057)
(1.30532e-14 199.825 -4.22883)
(-5.22127e-14 199.825 -4.22883)
(0 194.631 -4.19423)
(-5.34057e-14 194.631 -4.19423)
(0 189.439 -4.15714)
(-5.45904e-14 189.439 -4.15714)
(1.39415e-14 184.268 -4.11791)
(0 184.268 -4.11791)
(0 179.137 -4.07686)
(-1.89596e-14 179.137 -4.07686)
(5.17461e-14 174.061 -4.03431)
(-1.86122e-14 174.061 -4.03431)
(1.48077e-14 169.053 -3.99055)
(-1.82711e-14 169.053 -3.99055)
(0 164.127 -3.94586)
(-6.03634e-14 164.127 -3.94586)
(0 159.291 -3.90048)
(0 159.291 -3.90048)
(1.56479e-14 154.554 -3.85464)
(-6.25918e-14 154.554 -3.85464)
(0 149.924 -3.80855)
(-6.36872e-14 149.924 -3.80855)
(1.66573e-14 145.405 -3.76239)
(0 145.405 -3.76239)
(-1.646e-14 141.001 -3.71631)
(1.3168e-13 141.001 -3.71631)
(0 136.716 -3.67046)
(0 136.716 -3.67046)
(1.69852e-14 132.551 -3.62496)
(-6.79408e-14 132.551 -3.62496)
(1.7243e-14 128.507 -3.57991)
(-6.89719e-14 128.507 -3.57991)
(3.0372e-14 124.584 -3.53541)
(-1.24794e-13 124.584 -3.53541)
(-1.7749e-14 120.782 -3.49152)
(0 120.782 -3.49152)
(0 117.099 -3.44832)
(0 117.099 -3.44832)
(0 113.534 -3.40585)
(7.29696e-14 113.534 -3.40585)
(-1.84845e-14 110.085 -3.36416)
(-2.95752e-13 110.085 -3.36416)
(3.74473e-14 106.75 -3.32327)
(-7.48945e-14 106.75 -3.32327)
(-1.89598e-14 103.525 -3.28322)
(0 103.525 -3.28322)
(-1.9193e-14 100.409 -3.24403)
(-7.67722e-14 100.409 -3.24403)
(-3.88469e-14 97.3983 -3.20569)
(-7.76938e-14 97.3983 -3.20569)
(-1.96511e-14 94.4898 -3.16823)
(-1.82924e-13 94.4898 -3.16823)
(3.9752e-14 91.6807 -3.13164)
(-7.95041e-14 91.6807 -3.13164)
(2.00983e-14 88.9677 -3.09593)
(8.03931e-14 88.9677 -3.09593)
(-2.4327e-14 86.3477 -3.06108)
(8.12717e-14 86.3477 -3.06108)
(-3.34615e-15 83.8178 -3.0271)
(-1.06021e-13 83.8178 -3.0271)
(-4.14994e-14 81.3747 -2.99397)
(5.95552e-14 81.3747 -2.99397)
(2.09619e-14 79.0154 -2.96167)
(-2.3014e-14 79.0154 -2.96167)
(1.42047e-15 76.737 -2.93021)
(0 76.737 -2.93021)
(0 74.5366 -2.89956)
(-2.21783e-14 74.5366 -2.89956)
(2.15847e-14 72.4113 -2.8697)
(8.63389e-14 72.4113 -2.8697)
(2.13729e-14 70.3583 -2.84063)
(-8.71515e-14 70.3583 -2.84063)
(0 68.3749 -2.81233)
(-4.19625e-14 68.3749 -2.81233)
(2.21879e-14 66.4586 -2.78477)
(4.7558e-14 66.4586 -2.78477)
(4.04387e-14 64.6068 -2.75794)
(-4.04387e-14 64.6068 -2.75794)
(0 62.8171 -2.73182)
(-1.80639e-13 62.8171 -2.73182)
(0 61.087 -2.7064)
(0 61.087 -2.7064)
(2.29642e-14 59.4144 -2.68166)
(-1.30113e-13 59.4144 -2.68166)
(6.07086e-14 57.7971 -2.65758)
(-3.75551e-14 57.7971 -2.65758)
(2.33412e-14 56.2329 -2.63414)
(1.8673e-13 56.2329 -2.63414)
(2.35272e-14 54.7199 -2.61132)
(0 54.7199 -2.61132)
(2.37115e-14 53.2561 -2.58912)
(-9.48458e-14 53.2561 -2.58912)
(-1.0983e-14 51.8396 -2.5675)
(9.55764e-14 51.8396 -2.5675)
(0 50.4686 -2.54646)
(0 50.4686 -2.54646)
(-2.42547e-14 49.1414 -2.52597)
(-9.70189e-14 49.1414 -2.52597)
(0 47.8564 -2.50603)
(-3.29947e-14 47.8564 -2.50603)
(0 46.612 -2.48662)
(0 46.612 -2.48662)
(0 45.4067 -2.46771)
(0 45.4067 -2.46771)
(6.24277e-14 44.2389 -2.44931)
(-1.31047e-13 44.2389 -2.44931)
(0 43.1074 -2.43139)
(-3.06419e-14 43.1074 -2.43139)
(3.00804e-14 42.0107 -2.41393)
(-3.00804e-14 42.0107 -2.41393)
(-4.05741e-15 40.9476 -2.39694)
(0 40.9476 -2.39694)
(-2.56404e-14 39.9169 -2.38038)
(0 39.9169 -2.38038)
(-2.58078e-14 38.9173 -2.36426)
(0 38.9173 -2.36426)
(-1.96138e-15 37.9478 -2.34855)
(0 37.9478 -2.34855)
(0 37.0073 -2.33324)
(0 37.0073 -2.33324)
(-7.95271e-14 36.0947 -2.31833)
(-1.56583e-13 36.0947 -2.31833)
(0 35.209 -2.3038)
(0 35.209 -2.3038)
(2.66278e-14 34.3492 -2.28964)
(0 34.3492 -2.28964)
(0 33.5145 -2.27584)
(8.16863e-14 33.5145 -2.27584)
(0 32.704 -2.26239)
(-1.57796e-13 32.704 -2.26239)
(0 31.9168 -2.24928)
(-1.08429e-13 31.9168 -2.24928)
(-2.7265e-14 31.1521 -2.2365)
(-1.0906e-13 31.1521 -2.2365)
(2.36519e-14 30.4091 -2.22404)
(8.60358e-14 30.4091 -2.22404)
(2.75779e-14 29.6872 -2.21189)
(0 29.6872 -2.21189)
(5.54661e-14 28.9854 -2.20004)
(1.10932e-13 28.9854 -2.20004)
(-2.78873e-14 28.3033 -2.18848)
(6.67986e-14 28.3033 -2.18848)
(0 27.6401 -2.17721)
(-4.39306e-14 27.6401 -2.17721)
(7.13189e-14 26.9952 -2.16621)
(-4.31256e-14 26.9952 -2.16621)
(-1.39902e-14 26.3679 -2.15548)
(1.55716e-13 26.3679 -2.15548)
(2.84962e-14 25.7577 -2.145)
(1.13985e-13 25.7577 -2.145)
(2.86464e-14 25.164 -2.13479)
(0 25.164 -2.13479)
(4.00503e-14 24.5863 -2.12481)
(-1.15184e-13 24.5863 -2.12481)
(6.82612e-14 24.0241 -2.11507)
(-3.93164e-14 24.0241 -2.11507)
(9.50318e-15 23.4768 -2.10557)
(-3.8596e-14 23.4768 -2.10557)
(0 22.944 -2.09628)
(0 22.944 -2.09628)
(-7.80751e-15 22.4252 -2.08722)
(0 22.4252 -2.08722)
(5.90659e-14 21.9199 -2.07836)
(0 21.9199 -2.07836)
(3.58438e-14 21.4278 -2.06971)
(0 21.4278 -2.06971)
(2.98232e-14 20.9484 -2.06125)
(2.38585e-13 20.9484 -2.06125)
(0 20.4812 -2.05298)
(0 20.4812 -2.05298)
(-6.40201e-14 20.026 -2.0449)
(0 20.026 -2.0449)
(-3.02539e-14 19.5824 -2.037)
(0 19.5824 -2.037)
(3.26778e-14 19.1499 -2.02928)
(0 19.1499 -2.02928)
(-1.54081e-15 18.7284 -2.02172)
(3.2079e-14 18.7284 -2.02172)
(3.14912e-14 18.3173 -2.01432)
(0 18.3173 -2.01432)
(6.16406e-14 17.9164 -2.00708)
(-1.23281e-13 17.9164 -2.00708)
(6.19211e-14 17.5254 -1.99999)
(-1.23842e-13 17.5254 -1.99999)
(2.84827e-14 17.144 -1.99305)
(-3.73203e-13 17.144 -1.99305)
(-3.12395e-14 16.7719 -1.98624)
(-2.92456e-14 16.7719 -1.98624)
(0 16.4088 -1.97957)
(9.68034e-14 16.4088 -1.97957)
(-5.63671e-14 16.0545 -1.97304)
(-2.81836e-14 16.0545 -1.97304)
(3.16543e-14 15.7086 -1.96662)
(0 15.7086 -1.96662)
(-3.17917e-14 15.371 -1.96033)
(-1.27167e-13 15.371 -1.96033)
(0 15.0415 -1.95415)
(0 15.0415 -1.95415)
(5.82388e-14 14.7196 -1.94808)
(1.2826e-13 14.7196 -1.94808)
(6.4402e-14 14.4053 -1.94212)
(-1.28804e-13 14.4053 -1.94212)
(0 14.0984 -1.93626)
(-1.79793e-13 14.0984 -1.93626)
(3.24717e-14 13.7985 -1.93049)
(0 13.7985 -1.93049)
(-4.86148e-14 13.5056 -1.92481)
(-1.30426e-13 13.5056 -1.92481)
(4.7724e-14 13.2193 -1.91922)
(-3.0965e-13 13.2193 -1.91922)
(0 12.9396 -1.9137)
(-4.68495e-14 12.9396 -1.9137)
(6.60165e-14 12.6661 -1.90826)
(1.32033e-13 12.6661 -1.90826)
(3.31414e-14 12.3989 -1.90289)
(0 12.3989 -1.90289)
(0 12.1376 -1.89759)
(1.33097e-13 12.1376 -1.89759)
(3.34066e-14 11.8821 -1.89235)
(-1.33626e-13 11.8821 -1.89235)
(0 11.6323 -1.88716)
(-1.76866e-13 11.6323 -1.88716)
(0 11.3879 -1.88202)
(0 11.3879 -1.88202)
(3.38016e-14 11.1488 -1.87692)
(-1.35206e-13 11.1488 -1.87692)
(6.78651e-14 10.915 -1.87186)
(-1.3573e-13 10.915 -1.87186)
(3.40631e-14 10.6861 -1.86684)
(1.36252e-13 10.6861 -1.86684)
(2.94478e-14 10.4622 -1.86184)
(9.78345e-14 10.4622 -1.86184)
(7.25485e-14 10.243 -1.85686)
(-3.82253e-14 10.243 -1.85686)
(-3.44528e-14 10.0285 -1.8519)
(0 10.0285 -1.8519)
(3.4582e-14 9.81838 -1.84696)
(-1.38328e-13 9.81838 -1.84696)
(3.47108e-14 9.61268 -1.84201)
(1.02681e-13 9.61268 -1.84201)
(1.05178e-13 9.41122 -1.83706)
(-3.54995e-14 9.41122 -1.83706)
(3.4849e-14 9.2139 -1.83211)
(1.3987e-13 9.2139 -1.83211)
(3.33256e-14 9.02058 -1.82713)
(-2.08802e-13 9.02058 -1.82713)
(7.04455e-14 8.83117 -1.82214)
(-1.74475e-13 8.83117 -1.82214)
(-3.53499e-14 8.64555 -1.81712)
(-3.15767e-13 8.64555 -1.81712)
(3.54767e-14 8.46361 -1.81206)
(-1.74271e-13 8.46361 -1.81206)
(-6.35418e-14 8.28526 -1.80696)
(1.10642e-13 8.28526 -1.80696)
(9.08097e-15 8.11038 -1.8018)
(1.42917e-13 8.11038 -1.8018)
(9.70894e-14 7.93889 -1.79659)
(-1.74037e-13 7.93889 -1.79659)
(-2.4132e-14 7.77069 -1.79131)
(0 7.77069 -1.79131)
(5.90108e-14 7.60568 -1.78595)
(-2.03432e-13 7.60568 -1.78595)
(0 7.44377 -1.78051)
(-1.4492e-13 7.44377 -1.78051)
(5.68679e-14 7.28487 -1.77497)
(-2.02285e-13 7.28487 -1.77497)
(0 7.1289 -1.76933)
(0 7.1289 -1.76933)
(3.66019e-14 6.97577 -1.76358)
(-5.48028e-14 6.97577 -1.76358)
(3.67251e-14 6.82539 -1.7577)
(1.469e-13 6.82539 -1.7577)
(8.96606e-14 6.67768 -1.75168)
(-5.28127e-14 6.67768 -1.75168)
(0 6.53256 -1.74552)
(1.47881e-13 6.53256 -1.74552)
(0 6.38995 -1.73919)
(0 6.38995 -1.73919)
(0 6.24978 -1.73269)
(-1.48856e-13 6.24978 -1.73269)
(0 6.11197 -1.72601)
(0 6.11197 -1.72601)
(1.06922e-14 5.97644 -1.71913)
(-4.8148e-14 5.97644 -1.71913)
(9.68962e-15 5.84311 -1.71203)
(-1.9757e-13 5.84311 -1.71203)
(-3.76959e-14 5.71192 -1.7047)
(-1.97183e-13 5.71192 -1.7047)
(4.55493e-14 5.58279 -1.69712)
(-4.55493e-14 5.58279 -1.69712)
(4.47146e-14 5.45565 -1.68928)
(-3.03472e-13 5.45565 -1.68928)
(4.38952e-14 5.33043 -1.68115)
(-1.96105e-13 5.33043 -1.68115)
(0 5.20705 -1.67272)
(0 5.20705 -1.67272)
(4.23012e-14 5.08545 -1.66397)
(-1.95451e-13 5.08545 -1.66397)
(3.12186e-15 4.96556 -1.65487)
(-4.15261e-14 4.96556 -1.65487)
(7.70407e-14 4.8473 -1.6454)
(1.54081e-13 4.8473 -1.6454)
(7.72718e-14 4.73061 -1.63554)
(0 4.73061 -1.63554)
(7.75016e-14 4.61541 -1.62526)
(-1.55003e-13 4.61541 -1.62526)
(7.743e-14 4.50164 -1.61452)
(-3.85649e-14 4.50164 -1.61452)
(-3.89787e-14 4.38922 -1.60331)
(0 4.38922 -1.60331)
(0 4.27808 -1.59158)
(1.93531e-13 4.27808 -1.59158)
(-3.92037e-14 4.16815 -1.57931)
(1.20331e-13 4.16815 -1.57931)
(0 4.05935 -1.56645)
(-1.5726e-13 4.05935 -1.56645)
(0 3.95161 -1.55297)
(-1.92861e-13 3.95161 -1.55297)
(-1.08564e-13 3.84484 -1.53882)
(-1.58141e-13 3.84484 -1.53882)
(7.92884e-14 3.73898 -1.52396)
(-1.58577e-13 3.73898 -1.52396)
(3.97521e-14 3.63393 -1.50833)
(0 3.63393 -1.50833)
(-3.26515e-14 3.52961 -1.49188)
(9.41332e-14 3.52961 -1.49188)
(0 3.42594 -1.47456)
(0 3.42594 -1.47456)
(0 3.32282 -1.45629)
(-1.60279e-13 3.32282 -1.45629)
(0 3.22015 -1.43701)
(-6.17784e-14 3.22015 -1.43701)
(-2.03703e-14 3.11783 -1.41664)
(1.61104e-13 3.11783 -1.41664)
(4.03774e-14 3.01577 -1.3951)
(-3.23019e-13 3.01577 -1.3951)
(0 2.91384 -1.3723)
(0 2.91384 -1.3723)
(4.05759e-14 2.81192 -1.34814)
(-5.73731e-14 2.81192 -1.34814)
(4.0673e-14 2.7099 -1.32252)
(-1.62692e-13 2.7099 -1.32252)
(-9.60582e-14 2.60763 -1.29531)
(1.63074e-13 2.60763 -1.29531)
(2.74484e-14 2.50498 -1.26638)
(1.6345e-13 2.50498 -1.26638)
(2.86273e-14 2.40178 -1.2356)
(0 2.40178 -1.2356)
(4.10449e-14 2.29789 -1.20281)
(0 2.29789 -1.20281)
(4.11332e-14 2.19311 -1.16783)
(0 2.19311 -1.16783)
(-9.18671e-15 2.08727 -1.13048)
(-2.15284e-13 2.08727 -1.13048)
(4.13034e-14 1.98016 -1.09056)
(1.65214e-13 1.98016 -1.09056)
(0 1.87158 -1.04784)
(-1.6554e-13 1.87158 -1.04784)
(4.14641e-14 1.7613 -1.00208)
(-1.65856e-13 1.7613 -1.00208)
(8.83522e-14 1.6491 -0.953026)
(0 1.6491 -0.953026)
(4.59539e-14 1.53472 -0.900391)
(1.66455e-13 1.53472 -0.900391)
(0 1.41793 -0.843883)
(-3.33473e-13 1.41793 -0.843883)
(0 1.29848 -0.783194)
(-1.67005e-13 1.29848 -0.783194)
(4.18145e-14 1.17614 -0.718005)
(-1.67258e-13 1.17614 -0.718005)
(4.18741e-14 1.05068 -0.647998)
(1.67496e-13 1.05068 -0.647998)
(4.19295e-14 0.92192 -0.572857)
(-3.35436e-13 0.92192 -0.572857)
(8.39608e-14 0.789697 -0.492284)
(-1.67922e-13 0.789697 -0.492284)
(0 0.653913 -0.406007)
(0 0.653913 -0.406007)
(-8.17013e-14 0.514531 -0.313793)
(1.28636e-13 0.514531 -0.313793)
(0 0.371589 -0.215461)
(-2.07319e-13 0.371589 -0.215461)
(-4.21324e-14 0.225209 -0.110886)
(1.6853e-13 0.225209 -0.110886)
(4.21555e-14 1.67625e-06 -6.20426e-07)
(1.68849e-13 5.04343e-07 -1.86671e-07)
(4.22122e-14 -1.62657e-06 6.02041e-07)
(2.06117e-13 -1.0465e-06 3.8734e-07)
(-3.81946e-14 -0.225209 0.110886)
(2.98865e-13 -0.225209 0.110886)
(-4.21029e-14 -0.371589 0.215461)
(-3.89075e-14 -0.371589 0.215461)
(0 -0.51453 0.313793)
(1.6827e-13 -0.51453 0.313793)
(0 -0.653912 0.406006)
(3.36212e-13 -0.653912 0.406006)
(-4.19804e-14 -0.789697 0.492283)
(-1.67922e-13 -0.789697 0.492283)
(0 -0.92192 0.572857)
(0 -0.92192 0.572857)
(-4.18741e-14 -1.05068 0.647998)
(-1.67496e-13 -1.05068 0.647998)
(0 -1.17614 0.718005)
(0 -1.17614 0.718005)
(4.17511e-14 -1.29848 0.783193)
(0 -1.29848 0.783193)
(0 -1.41793 0.843883)
(1.66737e-13 -1.41793 0.843883)
(4.59539e-14 -1.53472 0.90039)
(1.66455e-13 -1.53472 0.90039)
(0 -1.6491 0.953025)
(0 -1.6491 0.953025)
(-4.14641e-14 -1.7613 1.00208)
(-2.13542e-13 -1.7613 1.00208)
(8.277e-14 -1.87158 1.04784)
(0 -1.87158 1.04784)
(0 -1.98016 1.09056)
(0 -1.98016 1.09056)
(8.24389e-14 -2.08727 1.13048)
(1.64878e-13 -2.08727 1.13048)
(-4.11332e-14 -2.19311 1.16783)
(-1.64533e-13 -2.19311 1.16783)
(-8.20898e-14 -2.29789 1.20281)
(0 -2.29789 1.20281)
(-4.09546e-14 -2.40178 1.2356)
(1.63818e-13 -2.40178 1.2356)
(-8.17249e-14 -2.50498 1.26638)
(-1.6345e-13 -2.50498 1.26638)