/*--------------------------------*- C++ -*----------------------------------*\
| =========                 |                                                 |
| \\      /  F ield         | OpenFOAM: The Open Source CFD Toolbox           |
|  \\    /   O peration     | Version:  2106                                  |
|   \\  /    A nd           | Website:  www.openfoam.com                      |
|    \\/     M anipulation  |                                                 |
\*---------------------------------------------------------------------------*/
FoamFile
{
    version     2.0;
    format      ascii;
    arch        "LSB;label=32;scalar=64";
    class       volScalarField;
    location    "10020";
    object      p;
}
// * * * * * * * * * * * * * * * * * * * * * * * * * * * * * * * * * * * * * //

dimensions      [0 2 -2 0 0 0 0];

internalField   nonuniform List<scalar> 
2000
(
1.84804e-15
4.42534e-15
4.37851e-15
4.42593e-15
4.79739e-15
4.42654e-15
4.55132e-15
4.4275e-15
4.36895e-15
4.42884e-15
4.26421e-15
4.43057e-15
4.17038e-15
4.43265e-15
4.07366e-15
4.43511e-15
3.97774e-15
4.43801e-15
3.88341e-15
4.4413e-15
3.79017e-15
4.44489e-15
3.6977e-15
4.44886e-15
3.60605e-15
4.45316e-15
3.51526e-15
4.45778e-15
3.42522e-15
4.46272e-15
3.33587e-15
4.46792e-15
3.24758e-15
4.47331e-15
3.16012e-15
4.47907e-15
3.07365e-15
4.48507e-15
2.98803e-15
4.4912e-15
2.90326e-15
4.49758e-15
2.81938e-15
4.50422e-15
2.73623e-15
4.51109e-15
2.6541e-15
4.51805e-15
2.57274e-15
4.52515e-15
2.49227e-15
4.53233e-15
2.41266e-15
4.53954e-15
2.3338e-15
4.54694e-15
2.25575e-15
4.55454e-15
2.17845e-15
4.56209e-15
2.10155e-15
4.56976e-15
2.02564e-15
4.57736e-15
1.95037e-15
4.58513e-15
1.87554e-15
4.59303e-15
1.80129e-15
4.6009e-15
1.72779e-15
4.60866e-15
1.65474e-15
4.61646e-15
1.58241e-15
4.62422e-15
1.51036e-15
4.63187e-15
1.43898e-15
4.63933e-15
1.36768e-15
4.64724e-15
1.29615e-15
4.65517e-15
1.2252e-15
4.66318e-15
1.1546e-15
4.67085e-15
1.08376e-15
4.67837e-15
1.01292e-15
4.68578e-15
9.41817e-16
4.69304e-15
8.70784e-16
4.7003e-15
7.99347e-16
4.70763e-15
7.27818e-16
4.71508e-15
6.56172e-16
4.72205e-15
5.845e-16
4.72836e-15
5.11543e-16
4.73453e-15
4.38518e-16
4.74061e-15
3.64842e-16
4.74642e-15
2.89692e-16
4.7518e-15
2.14087e-16
4.7568e-15
1.38373e-16
4.76171e-15
6.17302e-17
4.76635e-15
-1.59674e-17
4.7703e-15
-9.41133e-17
4.77312e-15
-1.73306e-16
4.77533e-15
-2.53661e-16
4.77799e-15
-3.35046e-16
4.78093e-15
-4.16545e-16
4.78319e-15
-4.99025e-16
4.78508e-15
-5.818e-16
4.78563e-15
-6.6576e-16
4.78513e-15
-7.50744e-16
4.78391e-15
-8.35206e-16
4.78092e-15
-9.21446e-16
4.77732e-15
-1.00789e-15
4.77375e-15
-1.09463e-15
4.76916e-15
-1.18291e-15
4.76243e-15
-1.2711e-15
4.75302e-15
-1.36049e-15
4.74336e-15
-1.45059e-15
4.73357e-15
-1.5409e-15
4.72314e-15
-1.63404e-15
4.71154e-15
-1.72384e-15
4.69633e-15
-1.81224e-15
4.67883e-15
-1.90065e-15
4.65912e-15
-1.98787e-15
4.63795e-15
-2.07399e-15
4.61071e-15
-2.15845e-15
4.58014e-15
-2.24274e-15
4.54976e-15
-2.32699e-15
4.51834e-15
-2.40997e-15
4.4832e-15
-2.49037e-15
4.44442e-15
-2.57122e-15
4.40645e-15
-2.65491e-15
4.36804e-15
-2.73579e-15
4.32713e-15
-2.81549e-15
4.28539e-15
-2.89877e-15
4.23996e-15
-2.9752e-15
4.19099e-15
-3.05109e-15
4.14172e-15
-3.12666e-15
4.0908e-15
-3.19902e-15
4.03843e-15
-3.27157e-15
3.98322e-15
-3.34137e-15
3.92537e-15
-3.41192e-15
3.86832e-15
-3.48027e-15
3.81235e-15
-3.54503e-15
3.75277e-15
-3.60816e-15
3.68812e-15
-3.66829e-15
3.62531e-15
-3.72572e-15
3.56127e-15
-3.78077e-15
3.49796e-15
-3.83206e-15
3.43049e-15
-3.88166e-15
3.35735e-15
-3.92467e-15
3.28752e-15
-3.96848e-15
3.21603e-15
-4.01174e-15
3.14493e-15
-4.05309e-15
3.07813e-15
-4.08754e-15
3.007e-15
-4.12092e-15
2.93359e-15
-4.14818e-15
2.8527e-15
-4.17155e-15
2.77559e-15
-4.1933e-15
2.6952e-15
-4.21761e-15
2.60619e-15
-4.23564e-15
2.51814e-15
-4.26289e-15
2.43889e-15
-4.28864e-15
2.36132e-15
-4.30962e-15
2.28578e-15
-4.32252e-15
2.20497e-15
-4.33554e-15
2.12692e-15
-4.35314e-15
2.05586e-15
-4.36431e-15
1.97282e-15
-4.3657e-15
1.88587e-15
-4.36562e-15
1.78743e-15
-4.35671e-15
1.69341e-15
-4.33939e-15
1.59617e-15
-4.31406e-15
1.49989e-15
-4.29705e-15
1.39675e-15
-4.27686e-15
1.29086e-15
-4.25388e-15
1.19841e-15
-4.22855e-15
1.10757e-15
-4.19726e-15
1.01852e-15
-4.16448e-15
9.3548e-16
-4.12657e-15
8.50513e-16
-4.09206e-15
7.5555e-16
-4.05723e-15
6.46504e-16
-4.02238e-15
5.52048e-16
-3.98376e-15
4.72269e-16
-3.94589e-15
3.82529e-16
-3.90495e-15
2.91079e-16
-3.86529e-15
2.06176e-16
-3.82722e-15
1.32007e-16
-3.78689e-15
5.61706e-17
-3.74879e-15
-2.13469e-17
-3.70486e-15
-1.00589e-16
-3.68045e-15
-1.81639e-16
-3.6592e-15
-2.64423e-16
-3.64149e-15
-3.48863e-16
-3.59401e-15
-4.34974e-16
-3.55875e-15
-5.14666e-16
-3.53581e-15
-5.96598e-16
-3.50847e-15
-6.72438e-16
-3.48524e-15
-7.50796e-16
-3.47472e-15
-8.40483e-16
-3.46013e-15
-9.33427e-16
-3.43305e-15
-1.00464e-15
-3.40202e-15
-1.07986e-15
-3.38382e-15
-1.15114e-15
-3.37004e-15
-1.21867e-15
-3.36075e-15
-1.27408e-15
-3.35629e-15
-1.35135e-15
-3.34828e-15
-1.43393e-15
-3.32815e-15
-1.5141e-15
-3.31256e-15
-1.57569e-15
-3.30146e-15
-1.64433e-15
-3.29465e-15
-1.72901e-15
-3.28324e-15
-1.8135e-15
-3.29204e-15
-1.90701e-15
-3.26997e-15
-1.97644e-15
-3.27534e-15
-2.03128e-15
-3.26585e-15
-2.12255e-15
-3.28276e-15
-2.21788e-15
-3.29189e-15
-2.30145e-15
-3.29274e-15
-2.36583e-15
-3.26817e-15
-2.43703e-15
-3.22531e-15
-2.50025e-15
-3.22921e-15
-2.60789e-15
-3.26167e-15
-2.69526e-15
-3.27256e-15
-2.78012e-15
-3.26145e-15
-2.86391e-15
-3.27628e-15
-2.8996e-15
-3.29989e-15
-2.88853e-15
-3.30148e-15
-2.91259e-15
-3.31429e-15
-2.9723e-15
-3.32104e-15
-3.0529e-15
-3.33641e-15
-3.12462e-15
-3.35899e-15
-3.15703e-15
-3.38902e-15
-3.18377e-15
-3.41144e-15
-3.205e-15
-3.44365e-15
-3.25374e-15
-3.46997e-15
-3.26585e-15
-3.50796e-15
-3.24143e-15
-3.52873e-15
-3.27489e-15
-3.54938e-15
-3.28652e-15
-3.58704e-15
-3.3398e-15
-3.61016e-15
-3.40432e-15
-3.64953e-15
-3.4038e-15
-3.62831e-15
-3.46301e-15
-3.62186e-15
-3.53889e-15
-3.6738e-15
-3.58908e-15
-3.69095e-15
-3.58208e-15
-3.72189e-15
-3.60961e-15
-3.73673e-15
-3.67063e-15
-3.71867e-15
-3.67464e-15
-3.7272e-15
-3.69991e-15
-3.71536e-15
-3.7028e-15
-3.71257e-15
-3.71481e-15
-3.77946e-15
-3.73697e-15
-3.75351e-15
-3.72064e-15
-3.75603e-15
-3.72623e-15
-3.78839e-15
-3.75576e-15
-3.76322e-15
-3.75106e-15
-3.76908e-15
-3.71332e-15
-3.80791e-15
-3.75433e-15
-3.85136e-15
-3.78583e-15
-3.78877e-15
-3.80741e-15
-3.87019e-15
-3.8292e-15
-3.93066e-15
-3.8203e-15
-3.92327e-15
-3.77196e-15
-3.85505e-15
-3.73524e-15
-3.80433e-15
-3.76785e-15
-3.76026e-15
-3.79614e-15
-3.798e-15
-3.74728e-15
-3.79238e-15
-3.75111e-15
-3.74811e-15
-3.77806e-15
-3.71033e-15
-3.75496e-15
-3.67662e-15
-3.71211e-15
-3.72515e-15
-3.6538e-15
-3.76672e-15
-3.6432e-15
-3.7117e-15
-3.59e-15
-3.76454e-15
-3.46394e-15
-3.75123e-15
-3.38796e-15
-3.66135e-15
-3.29392e-15
-3.56772e-15
-3.22056e-15
-3.49179e-15
-3.16645e-15
-3.41362e-15
-3.13409e-15
-3.30007e-15
-3.13137e-15
-3.07673e-15
-3.12677e-15
-3.02875e-15
-3.07189e-15
-3.00862e-15
-3.06369e-15
-2.98705e-15
-3.08193e-15
-3.02744e-15
-3.06039e-15
-2.98013e-15
-3.01184e-15
-2.93592e-15
-2.9896e-15
-2.93083e-15
-2.95063e-15
-9.47082e-17
-6.0113e-17
-9.43612e-17
-6.00031e-17
-9.40296e-17
-5.9876e-17
-9.3522e-17
-5.96734e-17
-9.28154e-17
-5.93951e-17
-9.18987e-17
-5.90215e-17
-9.075e-17
-5.85986e-17
-8.94309e-17
-5.80821e-17
-8.78761e-17
-5.74427e-17
-8.61578e-17
-5.66407e-17
-8.41894e-17
-5.57945e-17
-8.20299e-17
-5.49106e-17
-7.96662e-17
-5.39038e-17
-7.71088e-17
-5.28066e-17
-7.42128e-17
-5.17168e-17
-7.11023e-17
-5.0553e-17
-6.78312e-17
-4.93456e-17
-6.43246e-17
-4.80606e-17
-6.05942e-17
-4.66254e-17
-5.66917e-17
-4.50522e-17
-5.2587e-17
-4.3433e-17
-4.82903e-17
-4.16989e-17
-4.385e-17
-3.98239e-17
-3.93116e-17
-3.7821e-17
-3.45709e-17
-3.57772e-17
-2.97825e-17
-3.3485e-17
-2.48083e-17
-3.10335e-17
-1.97968e-17
-2.87177e-17
-1.45448e-17
-2.62671e-17
-9.19729e-18
-2.34931e-17
-3.69217e-18
-2.06161e-17
1.96493e-18
-1.75841e-17
7.7688e-18
-1.44769e-17
1.38424e-17
-1.1307e-17
1.99913e-17
-8.08706e-18
2.63387e-17
-4.5825e-18
3.30033e-17
-9.94112e-19
3.97411e-17
2.66576e-18
4.66735e-17
6.3848e-18
5.38024e-17
1.00346e-17
6.10148e-17
1.38381e-17
6.84326e-17
1.77827e-17
7.60618e-17
2.1742e-17
8.36844e-17
2.59329e-17
9.14245e-17
3.03429e-17
9.92942e-17
3.48495e-17
1.07418e-16
3.92197e-17
1.15475e-16
4.35572e-17
1.23259e-16
4.90788e-17
1.31454e-16
5.52208e-17
1.39854e-16
6.09719e-17
1.48477e-16
6.6772e-17
1.5689e-16
7.37412e-17
1.65791e-16
8.05251e-17
1.74744e-16
8.7799e-17
1.83769e-16
9.57945e-17
1.93116e-16
1.03819e-16
2.02339e-16
1.1257e-16
2.11927e-16
1.21105e-16
2.21424e-16
1.29651e-16
2.31088e-16
1.38683e-16
2.40447e-16
1.48697e-16
2.49509e-16
1.59207e-16
2.59295e-16
1.70217e-16
2.69326e-16
1.81215e-16
2.78848e-16
1.92707e-16
2.8786e-16
2.05486e-16
2.97168e-16
2.18237e-16
3.06798e-16
2.29855e-16
3.16778e-16
2.4305e-16
3.25456e-16
2.58412e-16
3.33948e-16
2.75423e-16
3.42844e-16
2.90074e-16
3.52178e-16
3.04036e-16
3.63171e-16
3.18456e-16
3.73487e-16
3.30918e-16
3.83742e-16
3.47459e-16
3.9272e-16
3.65698e-16
4.03555e-16
3.78737e-16
4.13782e-16
3.91515e-16
4.23413e-16
4.07238e-16
4.33123e-16
4.25311e-16
4.42945e-16
4.41123e-16
4.52921e-16
4.53247e-16
4.63092e-16
4.64975e-16
4.72126e-16
4.81807e-16
4.81435e-16
5.01754e-16
4.90359e-16
5.17794e-16
4.96066e-16
5.33398e-16
5.0143e-16
5.49995e-16
5.09425e-16
5.67592e-16
5.15714e-16
5.8249e-16
5.20311e-16
6.00617e-16
5.27792e-16
6.22041e-16
5.33673e-16
6.40685e-16
5.36431e-16
6.62692e-16
5.39192e-16
6.83432e-16
5.40435e-16
7.01302e-16
5.40193e-16
7.19445e-16
5.40118e-16
7.36262e-16
5.40283e-16
7.53367e-16
5.40765e-16
7.77355e-16
5.43298e-16
7.98421e-16
5.46321e-16
8.13189e-16
5.4149e-16
8.31692e-16
5.42362e-16
8.54032e-16
5.40529e-16
8.73444e-16
5.36027e-16
8.88193e-16
5.34127e-16
9.01732e-16
5.33206e-16
9.17604e-16
5.38675e-16
9.30582e-16
5.32917e-16
9.40664e-16
5.32024e-16
9.49658e-16
5.25334e-16
9.59402e-16
5.20142e-16
9.69971e-16
5.18404e-16
9.75954e-16
5.09222e-16
9.84731e-16
5.01871e-16
9.8901e-16
5.00216e-16
9.85089e-16
4.95093e-16
9.80441e-16
4.94155e-16
9.78905e-16
4.82433e-16
9.80588e-16
4.75202e-16
9.77998e-16
4.68831e-16
9.63506e-16
4.55798e-16
9.48613e-16
4.43958e-16
9.29513e-16
4.33519e-16
9.10103e-16
4.20789e-16
8.94356e-16
4.01997e-16
8.8633e-16
3.73277e-16
8.70483e-16
3.50492e-16
8.42958e-16
3.25892e-16
8.2367e-16
2.99568e-16
8.04863e-16
2.71622e-16
7.86745e-16
2.42139e-16
7.615e-16
2.15256e-16
7.33302e-16
1.99231e-16
7.02297e-16
1.74012e-16
6.72639e-16
1.35605e-16
6.40411e-16
1.08527e-16
6.01714e-16
8.48085e-17
5.56656e-16
6.4697e-17
5.25891e-16
5.25252e-17
4.89062e-16
1.14065e-17
4.46205e-16
-2.9702e-17
4.01639e-16
-6.65565e-17
3.55566e-16
-1.07327e-16
3.12303e-16
-1.35258e-16
2.76221e-16
-1.66862e-16
2.39179e-16
-1.97835e-16
1.88835e-16
-2.27969e-16
1.16856e-16
-2.65218e-16
3.98465e-17
-3.00761e-16
-1.7112e-17
-3.59525e-16
-6.23157e-17
-4.16408e-16
-1.0377e-16
-4.71521e-16
-1.66367e-16
-5.41647e-16
-2.16169e-16
-5.932e-16
-2.35776e-16
-6.51794e-16
-2.6672e-16
-7.00715e-16
-3.16735e-16
-7.39885e-16
-3.59981e-16
-8.03141e-16
-3.96092e-16
-8.56984e-16
-4.66708e-16
-9.18231e-16
-5.37791e-16
-9.69864e-16
-5.83708e-16
-1.02043e-15
-6.29474e-16
-1.07843e-15
-6.49052e-16
-1.12746e-15
-7.00597e-16
-1.17607e-15
-7.83537e-16
-1.24084e-15
-8.38692e-16
-1.30513e-15
-9.16284e-16
-1.36893e-15
-1.00752e-15
-1.42357e-15
-1.09546e-15
-1.50238e-15
-1.15478e-15
-1.57229e-15
-1.20155e-15
-1.62547e-15
-1.26862e-15
-1.67882e-15
-1.35545e-15
-1.73171e-15
-1.43672e-15
-1.77528e-15
-1.51242e-15
-1.81737e-15
-1.54074e-15
-1.86695e-15
-1.58768e-15
-1.89117e-15
-1.66911e-15
-1.90546e-15
-1.76855e-15
-1.90729e-15
-1.87073e-15
-1.96038e-15
-1.91102e-15
-2.04839e-15
-1.90496e-15
-2.04116e-15
-1.91568e-15
-2.07022e-15
-1.9432e-15
-2.11876e-15
-1.97028e-15
-2.17079e-15
-1.99516e-15
-2.22725e-15
-2.04836e-15
-2.27198e-15
-2.0793e-15
-2.28899e-15
-2.11944e-15
-2.30963e-15
-2.13616e-15
-2.33346e-15
-2.19348e-15
-2.3748e-15
-2.21045e-15
-2.41796e-15
-2.21784e-15
-2.43158e-15
-2.24613e-15
-2.47884e-15
-2.29455e-15
-2.52738e-15
-2.31459e-15
-2.57807e-15
-2.33526e-15
-2.64817e-15
-2.38473e-15
-2.69119e-15
-2.42987e-15
-2.7083e-15
-2.50056e-15
-2.76006e-15
-2.59758e-15
-2.81204e-15
-2.66013e-15
-2.84835e-15
-2.73628e-15
-2.86642e-15
-2.82809e-15
-2.92328e-15
-2.87747e-15
-2.95878e-15
-2.88458e-15
-2.99013e-15
-2.92291e-15
-2.987e-15
-2.96203e-15
-3.05227e-15
-3.01956e-15
-3.03382e-15
-3.04958e-15
-3.0184e-15
-3.02634e-15
-3.03462e-15
-3.03737e-15
-3.02124e-15
-3.0801e-15
-3.09155e-15
-3.12986e-15
-3.12992e-15
-3.18755e-15
-3.10441e-15
-3.22532e-15
-3.15079e-15
-3.21944e-15
-3.18956e-15
-3.19255e-15
-3.22351e-15
-3.25011e-15
-3.21901e-15
-3.25277e-15
-3.25933e-15
-3.26019e-15
-3.26703e-15
-3.27011e-15
-3.24414e-15
-3.28032e-15
-3.24269e-15
-3.23681e-15
-3.18074e-15
-3.30006e-15
-3.17554e-15
-3.34953e-15
-3.16485e-15
-3.33895e-15
-3.20196e-15
-3.24277e-15
-3.22661e-15
-3.22744e-15
-3.18804e-15
-3.26122e-15
-3.25364e-15
-3.27695e-15
-3.25296e-15
-3.2192e-15
-3.24221e-15
-3.18858e-15
-3.27518e-15
-3.20985e-15
-3.23422e-15
-3.16085e-15
-3.10023e-15
-3.09347e-15
-3.05792e-15
-3.04369e-15
-3.009e-15
-3.05791e-15
-2.97074e-15
-2.99975e-15
-2.91546e-15
-2.95946e-15
-2.91229e-15
-2.94135e-15
-2.89159e-15
-2.9894e-15
-2.88535e-15
-2.95206e-15
-2.89384e-15
-2.86955e-15
-2.89752e-15
-2.85957e-15
-2.95426e-15
-2.87055e-15
-2.91709e-15
-2.92806e-15
-2.80743e-15
-2.87138e-15
-2.82095e-15
-2.83441e-15
-2.83507e-15
-2.8532e-15
-2.80292e-15
-2.83407e-15
-2.73831e-15
-2.80144e-15
-2.78205e-15
-2.73979e-15
-2.74399e-15
-2.72312e-15
-2.73599e-15
-2.70434e-15
-2.76179e-15
-2.6796e-15
-2.73493e-15
-2.66751e-15
-2.7008e-15
-2.64448e-15
-2.63629e-15
-2.58998e-15
-2.58463e-15
-2.55513e-15
-2.59091e-15
-2.54342e-15
-2.58271e-15
-2.5573e-15
-2.55653e-15
-2.54801e-15
-2.51011e-15
-2.49273e-15
-2.47027e-15
-2.52088e-15
-2.48098e-15
-2.47967e-15
-2.46681e-15
-2.46328e-15
-2.45424e-15
-2.44664e-15
-2.44493e-15
-2.45891e-15
-2.43595e-15
-2.42361e-15
-2.40032e-15
-2.41916e-15
-2.39109e-15
-2.39422e-15
-2.41052e-15
-2.34419e-15
-2.43914e-15
-2.34527e-15
-2.45244e-15
-2.39548e-15
-2.41801e-15
-2.41385e-15
-2.38812e-15
-2.37719e-15
-2.36509e-15
-2.31205e-15
-2.34998e-15
-2.2705e-15
-2.37265e-15
-2.27854e-15
-2.34761e-15
-2.27655e-15
-2.29931e-15
-2.26719e-15
-2.28102e-15
-2.25491e-15
-2.32362e-15
-2.27175e-15
-2.30868e-15
-2.25604e-15
-2.29587e-15
-2.23762e-15
-2.31623e-15
-2.27685e-15
-2.30716e-15
-2.29816e-15
-2.29723e-15
-2.25697e-15
-2.28931e-15
-2.25967e-15
-2.28284e-15
-2.21431e-15
-2.2799e-15
-2.22561e-15
-2.27897e-15
-2.21753e-15
-2.31162e-15
-2.20732e-15
-2.30198e-15
-2.22465e-15
-2.27926e-15
-2.20765e-15
-2.27542e-15
-2.18891e-15
-2.27552e-15
-2.19915e-15
-2.26301e-15
-2.22344e-15
-2.25201e-15
-2.24777e-15
-2.24077e-15
-2.2896e-15
-2.22782e-15
-2.27112e-15
-2.2135e-15
-2.1753e-15
-2.21647e-15
-2.14421e-15
-2.2057e-15
-2.16013e-15
-2.19681e-15
-2.19138e-15
-2.18873e-15
-2.19046e-15
-2.16497e-15
-2.15761e-15
-2.14179e-15
-2.14172e-15
-2.11874e-15
-2.12633e-15
-2.09587e-15
-2.12826e-15
-2.08898e-15
-2.11524e-15
-2.08167e-15
-2.07085e-15
-2.05813e-15
-2.06096e-15
-2.01797e-15
-2.03601e-15
-1.9771e-15
-2.02965e-15
-1.98507e-15
-2.02598e-15
-1.99229e-15
-2.00758e-15
-1.95741e-15
-1.95676e-15
-1.94772e-15
-1.92335e-15
-1.92996e-15
-1.91545e-15
-1.91229e-15
-1.89961e-15
-1.89456e-15
-1.85881e-15
-1.87709e-15
-1.8431e-15
-1.85985e-15
-1.8609e-15
-1.84229e-15
-1.83681e-15
-1.84149e-15
-1.78776e-15
-1.82439e-15
-1.7469e-15
-1.79976e-15
-1.73073e-15
-1.78443e-15
-1.73077e-15
-1.76125e-15
-1.72172e-15
-1.73841e-15
-1.71224e-15
-1.70713e-15
-1.6941e-15
-1.69272e-15
-1.6675e-15
-1.68679e-15
-1.64932e-15
-1.66404e-15
-1.63103e-15
-1.65831e-15
-1.59576e-15
-1.653e-15
-1.54318e-15
-1.64016e-15
-1.52345e-15
-1.63676e-15
-1.51953e-15
-1.63438e-15
-1.50613e-15
-1.63309e-15
-1.48316e-15
-1.64145e-15
-1.46729e-15
-1.63434e-15
-1.45837e-15
-1.62865e-15
-1.43957e-15
-1.62441e-15
-1.44444e-15
-1.62154e-15
-1.44789e-15
-1.61996e-15
-1.44167e-15
-1.6113e-15
-1.4425e-15
-1.60798e-15
-1.43381e-15
-1.6058e-15
-1.41982e-15
-1.59234e-15
-1.41298e-15
-1.58824e-15
-1.41754e-15
-1.58926e-15
-1.417e-15
-1.58715e-15
-1.41556e-15
-1.59007e-15
-1.40914e-15
-1.58982e-15
-1.40596e-15
-1.58639e-15
-1.39374e-15
-1.58796e-15
-1.38883e-15
-1.59449e-15
-1.38305e-15
-1.59789e-15
-1.38043e-15
-1.59818e-15
-1.39306e-15
-1.58727e-15
-1.40483e-15
-1.58513e-15
-1.40384e-15
-1.58771e-15
-1.39818e-15
-1.59099e-15
-1.38387e-15
-1.59105e-15
-1.38469e-15
-1.59183e-15
-1.38078e-15
-1.60119e-15
-1.37611e-15
-1.59561e-15
-1.36675e-15
-1.59466e-15
-1.34886e-15
-1.59832e-15
-1.34574e-15
-1.60268e-15
-1.35722e-15
-1.5962e-15
-1.36021e-15
-1.59036e-15
-1.35103e-15
-1.59275e-15
-1.35259e-15
-1.5957e-15
-1.35723e-15
-1.59543e-15
-1.35742e-15
-1.59569e-15
-1.35697e-15
-1.59833e-15
-1.36146e-15
-1.60144e-15
-1.36718e-15
-1.60501e-15
-1.37046e-15
-1.61266e-15
-1.36771e-15
-1.62073e-15
-1.36263e-15
-1.62385e-15
-1.36779e-15
-1.62741e-15
-1.37773e-15
-1.63138e-15
-1.38711e-15
-1.63398e-15
-1.38894e-15
-1.63522e-15
-1.39553e-15
-1.63856e-15
-1.40167e-15
-1.63881e-15
-1.40564e-15
-1.63599e-15
-1.4109e-15
-1.63351e-15
-1.41578e-15
-1.6347e-15
-1.41694e-15
-1.63616e-15
-1.41778e-15
-1.6346e-15
-1.41502e-15
-1.63331e-15
-1.412e-15
-1.63552e-15
-1.41356e-15
-1.63477e-15
-1.41644e-15
-1.63425e-15
-1.41903e-15
-1.63397e-15
-1.41822e-15
-1.63235e-15
-1.41563e-15
-1.63404e-15
-1.41283e-15
-1.63592e-15
-1.4159e-15
-1.63497e-15
-1.42023e-15
-1.63275e-15
-1.4243e-15
-1.6322e-15
-1.42666e-15
-1.63182e-15
-1.42809e-15
-1.63305e-15
-1.42933e-15
-1.63159e-15
-1.4318e-15
-1.62959e-15
-1.43339e-15
-1.62844e-15
-1.43551e-15
-1.62743e-15
-1.43882e-15
-1.62858e-15
-1.4386e-15
-1.62784e-15
-1.43825e-15
-1.62591e-15
-1.43778e-15
-1.62476e-15
-1.4385e-15
-1.62564e-15
-1.44038e-15
-1.62534e-15
-1.44212e-15
-1.62576e-15
-1.44188e-15
-1.62688e-15
-1.44032e-15
-1.62746e-15
-1.43869e-15
-1.62812e-15
-1.43818e-15
-1.62943e-15
-1.43876e-15
-1.63138e-15
-1.43809e-15
-1.63167e-15
-1.43849e-15
-1.63203e-15
-1.43824e-15
-1.63301e-15
-1.43902e-15
-1.6335e-15
-1.4408e-15
-1.63404e-15
-1.44088e-15
-1.63438e-15
-1.43983e-15
-1.63503e-15
-1.43977e-15
-1.63522e-15
-1.44042e-15
-1.63572e-15
-1.43973e-15
-1.63626e-15
-1.43899e-15
-1.63661e-15
-1.43943e-15
-1.637e-15
-1.44054e-15
-1.63744e-15
-1.44087e-15
-1.6372e-15
-1.44113e-15
-1.63725e-15
-1.44135e-15
-1.63735e-15
-1.44151e-15
-1.63772e-15
-1.4414e-15
-1.63812e-15
-1.44146e-15
-1.63789e-15
-1.44172e-15
-1.63792e-15
-1.44192e-15
-1.63798e-15
-1.44187e-15
-1.63786e-15
-1.44222e-15
-1.63777e-15
-1.4432e-15
-1.63783e-15
-1.4437e-15
-1.63781e-15
-1.44327e-15
-1.63748e-15
-1.44315e-15
-1.63752e-15
-1.44355e-15
-1.63759e-15
-1.4437e-15
-1.63746e-15
-1.44382e-15
-1.63747e-15
-1.44345e-15
-1.63739e-15
-1.44351e-15
-1.63745e-15
-1.44378e-15
-1.6373e-15
-1.44391e-15
-1.63717e-15
-1.44366e-15
-1.63694e-15
-1.44351e-15
-1.63698e-15
-1.44345e-15
-1.63703e-15
-1.44324e-15
-1.63711e-15
-1.44313e-15
-1.63689e-15
-1.4432e-15
-1.63668e-15
-1.44317e-15
-1.63676e-15
-1.44313e-15
-1.63671e-15
-1.44301e-15
-1.63662e-15
-1.44299e-15
-1.63654e-15
-1.44303e-15
-1.63654e-15
-1.44285e-15
-1.63635e-15
-1.44271e-15
-1.63623e-15
-1.44263e-15
-1.63613e-15
-1.44268e-15
-1.63608e-15
-1.44265e-15
-1.63608e-15
-1.44256e-15
-1.63609e-15
-1.44241e-15
-1.63604e-15
-1.44233e-15
-1.63595e-15
-1.44232e-15
-1.63592e-15
-1.44217e-15
-1.63585e-15
-1.44201e-15
-1.63583e-15
-1.44196e-15
-1.63583e-15
-1.4419e-15
-1.63581e-15
-1.44183e-15
-1.63576e-15
-1.44177e-15
-1.63573e-15
-1.44177e-15
-1.63576e-15
-1.44176e-15
-1.63576e-15
-1.44173e-15
-1.63576e-15
-1.44171e-15
-1.63573e-15
-1.44169e-15
-1.63573e-15
-1.44167e-15
-1.63578e-15
-1.44167e-15
-1.63581e-15
-1.44165e-15
-1.63583e-15
-1.44163e-15
-1.63586e-15
-1.44161e-15
-1.63586e-15
-1.4416e-15
-1.63587e-15
-1.4416e-15
-2.89278e-15
-2.84763e-15
-2.84033e-15
-2.84943e-15
-2.78973e-15
-2.80252e-15
-2.78009e-15
-2.80302e-15
-2.80666e-15
-2.80301e-15
-2.73686e-15
-2.74954e-15
-2.71279e-15
-2.69272e-15
-2.73487e-15
-2.7002e-15
-2.71365e-15
-2.69794e-15
-2.6932e-15
-2.64161e-15
-2.67602e-15
-2.64677e-15
-2.5823e-15
-2.59353e-15
-2.57757e-15
-2.56293e-15
-2.57021e-15
-2.52713e-15
-2.54285e-15
-2.4553e-15
-2.5257e-15
-2.46632e-15
-2.48685e-15
-2.43443e-15
-2.45039e-15
-2.41231e-15
-2.41486e-15
-2.45906e-15
-2.45e-15
-2.50802e-15
-2.44816e-15
-2.45826e-15
-2.41634e-15
-2.40914e-15
-2.41043e-15
-2.35639e-15
-2.43676e-15
-2.34606e-15
-2.38999e-15
-2.32046e-15
-2.37836e-15
-2.33759e-15
-2.37042e-15
-2.31894e-15
-2.36573e-15
-2.32197e-15
-2.36172e-15
-2.34814e-15
-2.32569e-15
-2.34193e-15
-2.25452e-15
-2.33383e-15
-2.28664e-15
-2.33091e-15
-2.31165e-15
-2.33266e-15
-2.27429e-15
-2.3388e-15
-2.31668e-15
-2.32293e-15
-2.35761e-15
-2.27938e-15
-2.31671e-15
-2.23018e-15
-2.34356e-15
-2.23393e-15
-2.34856e-15
-2.22873e-15
-2.33251e-15
-2.22975e-15
-2.35488e-15
-2.28511e-15
-2.35215e-15
-2.30584e-15
-2.30719e-15
-2.2623e-15
-2.29597e-15
-2.24715e-15
-2.28763e-15
-2.29121e-15
-2.31049e-15
-2.25945e-15
-2.32118e-15
-2.17865e-15
-2.30854e-15
-2.16831e-15
-2.33423e-15
-2.18189e-15
-2.28837e-15
-2.13976e-15
-2.26515e-15
-2.1531e-15
-2.26248e-15
-2.14488e-15
-2.26443e-15
-2.14666e-15
-2.27113e-15
-2.17443e-15
-2.23346e-15
-2.14862e-15
-2.21491e-15
-2.13317e-15
-2.23154e-15
-2.11226e-15
-2.20372e-15
-2.11871e-15
-2.17844e-15
-2.13827e-15
-2.15395e-15
-2.13984e-15
-2.12917e-15
-2.12374e-15
-2.13656e-15
-2.10644e-15
-2.12791e-15
-2.10403e-15
-2.08659e-15
-2.08386e-15
-2.07802e-15
-2.06301e-15
-2.06958e-15
-2.00763e-15
-2.06242e-15
-1.94928e-15
-2.04103e-15
-1.92005e-15
-2.03891e-15
-1.90309e-15
-2.00652e-15
-1.88162e-15
-1.97707e-15
-1.9062e-15
-1.96575e-15
-1.91132e-15
-1.96365e-15
-1.88918e-15
-1.95461e-15
-1.84809e-15
-1.94758e-15
-1.82959e-15
-1.94279e-15
-1.8251e-15
-1.93182e-15
-1.81796e-15
-1.91457e-15
-1.81706e-15
-1.89916e-15
-1.80593e-15
-1.87699e-15
-1.75907e-15
-1.85681e-15
-1.71834e-15
-1.83869e-15
-1.70057e-15
-1.81407e-15
-1.70603e-15
-1.79097e-15
-1.71839e-15
-1.78581e-15
-1.71277e-15
-1.78169e-15
-1.68923e-15
-1.75346e-15
-1.66446e-15
-1.74348e-15
-1.63003e-15
-1.73503e-15
-1.59416e-15
-1.71984e-15
-1.57348e-15
-1.69797e-15
-1.55102e-15
-1.67774e-15
-1.54385e-15
-1.65891e-15
-1.53542e-15
-1.64131e-15
-1.51747e-15
-1.63328e-15
-1.52379e-15
-1.63463e-15
-1.51237e-15
-1.63698e-15
-1.50008e-15
-1.61512e-15
-1.49528e-15
-1.61095e-15
-1.48971e-15
-1.5992e-15
-1.48346e-15
-1.5882e-15
-1.48492e-15
-1.58618e-15
-1.4858e-15
-1.58471e-15
-1.47781e-15
-1.57966e-15
-1.46927e-15
-1.57936e-15
-1.45186e-15
-1.57974e-15
-1.42553e-15
-1.56852e-15
-1.42744e-15
-1.55804e-15
-1.42033e-15
-1.56471e-15
-1.41252e-15
-1.56797e-15
-1.41219e-15
-1.56783e-15
-1.40701e-15
-1.56838e-15
-1.40109e-15
-1.56965e-15
-1.39852e-15
-1.56755e-15
-1.39118e-15
-1.5702e-15
-1.39934e-15
-1.56136e-15
-1.40279e-15
-1.56516e-15
-1.40563e-15
-1.55748e-15
-1.41988e-15
-1.55827e-15
-1.42563e-15
-1.55549e-15
-1.43492e-15
-1.55306e-15
-1.45574e-15
-1.55089e-15
-1.46048e-15
-1.55682e-15
-1.45326e-15
-1.55905e-15
-1.44979e-15
-1.56153e-15
-1.45003e-15
-1.56814e-15
-1.45785e-15
-1.56727e-15
-1.45777e-15
-1.57047e-15
-1.45371e-15
-1.57392e-15
-1.4533e-15
-1.57761e-15
-1.46032e-15
-1.574e-15
-1.47849e-15
-1.57809e-15
-1.48145e-15
-1.5749e-15
-1.48059e-15
-1.5756e-15
-1.48338e-15
-1.57462e-15
-1.48608e-15
-1.57929e-15
-1.49055e-15
-1.57315e-15
-1.49129e-15
-1.56535e-15
-1.49561e-15
-1.57563e-15
-1.49809e-15
-1.58415e-15
-1.49341e-15
-1.58032e-15
-1.49224e-15
-1.58014e-15
-1.4963e-15
-1.58353e-15
-1.49854e-15
-1.58871e-15
-1.49899e-15
-1.58879e-15
-1.5028e-15
-1.58724e-15
-1.50654e-15
-1.58747e-15
-1.50682e-15
-1.58945e-15
-1.50539e-15
-1.59313e-15
-1.50724e-15
-1.59522e-15
-1.5008e-15
-1.59411e-15
-1.49762e-15
-1.59471e-15
-1.49764e-15
-1.59538e-15
-1.50081e-15
-1.58979e-15
-1.50389e-15
-1.58744e-15
-1.50846e-15
-1.58518e-15
-1.50986e-15
-1.58298e-15
-1.50968e-15
-1.57933e-15
-1.51099e-15
-1.57575e-15
-1.51228e-15
-1.5767e-15
-1.51057e-15
-1.57913e-15
-1.50886e-15
-1.58084e-15
-1.5086e-15
-1.58041e-15
-1.50832e-15
-1.58356e-15
-1.50802e-15
-1.58811e-15
-1.50559e-15
-1.59264e-15
-1.50317e-15
-1.59306e-15
-1.50348e-15
-1.59554e-15
-1.50307e-15
-1.59737e-15
-1.49998e-15
-1.5979e-15
-1.50083e-15
-1.59847e-15
-1.50163e-15
-1.59971e-15
-1.50239e-15
-1.60098e-15
-1.50121e-15
-1.60476e-15
-1.49816e-15
-1.60669e-15
-1.49695e-15
-1.60863e-15
-1.49511e-15
-1.61059e-15
-1.49446e-15
-1.61257e-15
-1.49378e-15
-1.61398e-15
-1.49481e-15
-1.61598e-15
-1.49294e-15
-1.61688e-15
-1.49219e-15
-1.6178e-15
-1.49307e-15
-1.6182e-15
-1.49391e-15
-1.61811e-15
-1.49362e-15
-1.61884e-15
-1.49305e-15
-1.62037e-15
-1.49246e-15
-1.62038e-15
-1.4921e-15
-1.62018e-15
-1.49222e-15
-1.6195e-15
-1.49256e-15
-1.61912e-15
-1.49337e-15
-1.61877e-15
-1.49341e-15
-1.61821e-15
-1.49367e-15
-1.61839e-15
-1.49437e-15
-1.61837e-15
-1.49528e-15
-1.6179e-15
-1.49593e-15
-1.61793e-15
-1.49609e-15
-1.61797e-15
-1.49624e-15
-1.61804e-15
-1.49659e-15
-1.61768e-15
-1.49691e-15
-1.61711e-15
-1.49678e-15
-1.61746e-15
-1.49617e-15
-1.61716e-15
-1.49623e-15
-1.61676e-15
-1.49671e-15
-1.61616e-15
-1.49718e-15
-1.61558e-15
-1.4973e-15
-1.61568e-15
-1.4973e-15
-1.61501e-15
-1.4974e-15
-1.6148e-15
-1.49759e-15
-1.61449e-15
-1.49789e-15
-1.61396e-15
-1.49784e-15
-1.61333e-15
-1.49766e-15
-1.61316e-15
-1.49759e-15
-1.61325e-15
-1.49762e-15
-1.61322e-15
-1.49764e-15
-1.61309e-15
-1.49754e-15
-1.61309e-15
-1.49742e-15
-1.61316e-15
-1.49729e-15
-1.61299e-15
-1.49722e-15
-1.61295e-15
-1.49726e-15
-1.61312e-15
-1.49736e-15
-1.6131e-15
-1.4974e-15
-1.61308e-15
-1.49742e-15
-1.61308e-15
-1.49737e-15
-1.61301e-15
-1.49731e-15
-1.61309e-15
-1.49717e-15
-1.61311e-15
-1.49717e-15
-1.61299e-15
-1.49739e-15
-1.61287e-15
-1.49752e-15
-1.6128e-15
-1.49758e-15
-1.61273e-15
-1.49764e-15
-1.61258e-15
-1.49785e-15
-1.6124e-15
-1.49793e-15
-1.61235e-15
-1.49789e-15
-1.61225e-15
-1.49801e-15
-1.61208e-15
-1.49818e-15
-1.6119e-15
-1.49816e-15
-1.61177e-15
-1.49815e-15
-1.61165e-15
-1.49822e-15
-1.61152e-15
-1.49828e-15
-1.6115e-15
-1.49833e-15
-1.61142e-15
-1.49837e-15
-1.61138e-15
-1.49838e-15
-1.61134e-15
-1.49844e-15
-1.6113e-15
-1.49848e-15
-1.61131e-15
-1.49848e-15
-1.61131e-15
-1.4985e-15
-1.6113e-15
-1.4985e-15
-1.61127e-15
-1.49852e-15
-1.61128e-15
-1.49852e-15
-1.61128e-15
-1.49852e-15
)
;

boundaryField
{
    walls
    {
        type            zeroGradient;
    }
    inlet
    {
        type            cyclic;
    }
    outlet
    {
        type            cyclic;
    }
    sides
    {
        type            empty;
    }
}


// ************************************************************************* //
