/*--------------------------------*- C++ -*----------------------------------*\
| =========                 |                                                 |
| \\      /  F ield         | OpenFOAM: The Open Source CFD Toolbox           |
|  \\    /   O peration     | Version:  2106                                  |
|   \\  /    A nd           | Website:  www.openfoam.com                      |
|    \\/     M anipulation  |                                                 |
\*---------------------------------------------------------------------------*/
FoamFile
{
    version     2.0;
    format      ascii;
    arch        "LSB;label=32;scalar=64";
    class       volSymmTensorField;
    location    "10020";
    object      turbulenceProperties:R;
}
// * * * * * * * * * * * * * * * * * * * * * * * * * * * * * * * * * * * * * //

dimensions      [0 2 -2 0 0 0 0];

internalField   nonuniform List<symmTensor> 
2000
(
(1.0536e-07 -2.77881e-12 -5.14304e-15 1.0536e-07 3.00623e-27 1.0536e-07)
(1.0536e-07 -2.77881e-12 -5.14304e-15 1.0536e-07 3.1497e-27 1.0536e-07)
(1.69471e-08 -2.5748e-12 -1.43863e-14 1.69471e-08 -4.52195e-28 1.69471e-08)
(1.69471e-08 -2.5748e-12 -1.43863e-14 1.69471e-08 3.81416e-27 1.69471e-08)
(1.56068e-08 -7.02061e-12 -5.44267e-14 1.56068e-08 3.81315e-27 1.56068e-08)
(1.56068e-08 -7.02061e-12 -5.44267e-14 1.56068e-08 7.80424e-31 1.56068e-08)
(4.28713e-08 -4.10632e-11 -3.24281e-13 4.28713e-08 2.06276e-26 4.28713e-08)
(4.28713e-08 -4.10632e-11 -3.24281e-13 4.28713e-08 -1.60639e-26 4.28713e-08)
(1.08964e-07 -1.84906e-10 -1.48748e-12 1.08964e-07 3.70312e-26 1.08964e-07)
(1.08964e-07 -1.84906e-10 -1.48748e-12 1.08964e-07 -1.42635e-26 1.08964e-07)
(2.33325e-07 -6.26046e-10 -5.13023e-12 2.33325e-07 2.18937e-25 2.33325e-07)
(2.33325e-07 -6.26046e-10 -5.13023e-12 2.33325e-07 5.33919e-26 2.33325e-07)
(4.40135e-07 -1.73022e-09 -1.44432e-11 4.40135e-07 8.95866e-25 4.40135e-07)
(4.40135e-07 -1.73022e-09 -1.44432e-11 4.40135e-07 1.51229e-25 4.40135e-07)
(7.57834e-07 -4.13423e-09 -3.5155e-11 7.57834e-07 2.2558e-24 7.57834e-07)
(7.57834e-07 -4.13423e-09 -3.5155e-11 7.57834e-07 3.69892e-25 7.57834e-07)
(1.21922e-06 -8.86443e-09 -7.67847e-11 1.21922e-06 5.02811e-24 1.21922e-06)
(1.21922e-06 -8.86443e-09 -7.67847e-11 1.21922e-06 8.10221e-25 1.21922e-06)
(1.86172e-06 -1.74853e-08 -1.54287e-10 1.86172e-06 1.02728e-23 1.86172e-06)
(1.86172e-06 -1.74853e-08 -1.54287e-10 1.86172e-06 1.63629e-24 1.86172e-06)
(2.7277e-06 -3.22834e-08 -2.90179e-10 2.7277e-06 1.97052e-23 2.7277e-06)
(2.7277e-06 -3.22834e-08 -2.90179e-10 2.7277e-06 3.09442e-24 2.7277e-06)
(3.8649e-06 -5.6492e-08 -5.17253e-10 3.8649e-06 3.58403e-23 3.8649e-06)
(3.8649e-06 -5.6492e-08 -5.17253e-10 3.8649e-06 5.53659e-24 3.8649e-06)
(5.32677e-06 -9.45633e-08 -8.82001e-10 5.32677e-06 4.96829e-23 5.32677e-06)
(5.32677e-06 -9.45633e-08 -8.82001e-10 5.32677e-06 9.48277e-24 5.32677e-06)
(7.17296e-06 -1.52495e-07 -1.44888e-09 7.17296e-06 5.40346e-23 7.17296e-06)
(7.17296e-06 -1.52495e-07 -1.44888e-09 7.17296e-06 1.56333e-23 7.17296e-06)
(9.46979e-06 -2.38218e-07 -2.30558e-09 9.46979e-06 7.33206e-23 9.46979e-06)
(9.46979e-06 -2.38218e-07 -2.30558e-09 9.46979e-06 2.49464e-23 9.46979e-06)
(1.22908e-05 -3.62056e-07 -3.56951e-09 1.22908e-05 1.13902e-22 1.22908e-05)
(1.22908e-05 -3.62056e-07 -3.56951e-09 1.22908e-05 3.88921e-23 1.22908e-05)
(1.57171e-05 -5.37259e-07 -5.39565e-09 1.57171e-05 1.7274e-22 1.57171e-05)
(1.57171e-05 -5.37259e-07 -5.39565e-09 1.57171e-05 5.91445e-23 1.57171e-05)
(1.98381e-05 -7.80627e-07 -7.986e-09 1.98381e-05 2.56637e-22 1.98381e-05)
(1.98381e-05 -7.80627e-07 -7.986e-09 1.98381e-05 8.76427e-23 1.98381e-05)
(2.4752e-05 -1.11322e-06 -1.16009e-08 2.4752e-05 3.73982e-22 2.4752e-05)
(2.4752e-05 -1.11322e-06 -1.16009e-08 2.4752e-05 1.27933e-22 2.4752e-05)
(3.05663e-05 -1.56117e-06 -1.65724e-08 3.05663e-05 5.35554e-22 3.05663e-05)
(3.05663e-05 -1.56117e-06 -1.65724e-08 3.05663e-05 1.83989e-22 3.05663e-05)
(3.73985e-05 -2.15661e-06 -2.33199e-08 3.73985e-05 7.55158e-22 3.73985e-05)
(3.73985e-05 -2.15661e-06 -2.33199e-08 3.73985e-05 2.59843e-22 3.73985e-05)
(4.53762e-05 -2.93866e-06 -3.23684e-08 4.53762e-05 1.05057e-21 4.53762e-05)
(4.53762e-05 -2.93866e-06 -3.23684e-08 4.53762e-05 3.61067e-22 4.53762e-05)
(5.46381e-05 -3.95455e-06 -4.43693e-08 5.46381e-05 1.70566e-24 5.46381e-05)
(5.46381e-05 -3.95455e-06 -4.43693e-08 5.46381e-05 4.96075e-22 5.46381e-05)
(6.5334e-05 -5.26083e-06 -6.01244e-08 6.5334e-05 -1.03784e-21 6.5334e-05)
(6.5334e-05 -5.26083e-06 -6.01244e-08 6.5334e-05 6.74649e-22 6.5334e-05)
(7.76254e-05 -6.92462e-06 -8.06115e-08 7.76254e-05 -3.60555e-21 7.76254e-05)
(7.76254e-05 -6.92462e-06 -8.06115e-08 7.76254e-05 9.06074e-22 7.76254e-05)
(9.16854e-05 -9.02486e-06 -1.07014e-07 9.16854e-05 -4.88424e-21 9.16854e-05)
(9.16854e-05 -9.02486e-06 -1.07014e-07 9.16854e-05 1.20702e-21 9.16854e-05)
(0.000107699 -1.16537e-05 -1.40753e-07 0.000107699 -6.54612e-21 0.000107699)
(0.000107699 -1.16537e-05 -1.40753e-07 0.000107699 1.59548e-21 0.000107699)
(0.000125862 -1.49175e-05 -1.83517e-07 0.000125862 -8.68282e-21 0.000125862)
(0.000125862 -1.49175e-05 -1.83517e-07 0.000125862 2.07972e-21 0.000125862)
(0.000146383 -1.89382e-05 -2.373e-07 0.000146383 -1.14076e-20 0.000146383)
(0.000146383 -1.89382e-05 -2.373e-07 0.000146383 2.68797e-21 0.000146383)
(0.000169478 -2.38537e-05 -3.04427e-07 0.000169478 -7.20132e-21 0.000169478)
(0.000169478 -2.38537e-05 -3.04427e-07 0.000169478 3.44429e-21 0.000169478)
(0.000195374 -2.98189e-05 -3.87593e-07 0.000195374 2.75201e-22 0.000195374)
(0.000195374 -2.98189e-05 -3.87593e-07 0.000195374 4.38131e-21 0.000195374)
(0.000224306 -3.70049e-05 -4.89879e-07 0.000224306 3.03035e-22 0.000224306)
(0.000224306 -3.70049e-05 -4.89879e-07 0.000224306 5.5405e-21 0.000224306)
(0.00025651 -4.55991e-05 -6.14776e-07 0.00025651 2.56655e-22 0.00025651)
(0.00025651 -4.55991e-05 -6.14776e-07 0.00025651 6.90969e-21 0.00025651)
(0.000292228 -5.58031e-05 -7.6619e-07 0.000292228 9.59503e-23 0.000292228)
(0.000292228 -5.58031e-05 -7.6619e-07 0.000292228 8.53391e-21 0.000292228)
(0.000331701 -6.78308e-05 -9.48434e-07 0.000331701 -8.38035e-23 0.000331701)
(0.000331701 -6.78308e-05 -9.48434e-07 0.000331701 1.04883e-20 0.000331701)
(0.000375161 -8.19048e-05 -1.16621e-06 0.000375161 -3.64997e-22 0.000375161)
(0.000375161 -8.19048e-05 -1.16621e-06 0.000375161 1.27714e-20 0.000375161)
(0.000422833 -9.82522e-05 -1.42455e-06 0.000422833 -8.48051e-22 0.000422833)
(0.000422833 -9.82522e-05 -1.42455e-06 0.000422833 1.53618e-20 0.000422833)
(0.000474927 -0.000117099 -1.72877e-06 0.000474927 -1.44579e-21 0.000474927)
(0.000474927 -0.000117099 -1.72877e-06 0.000474927 1.83065e-20 0.000474927)
(0.000531631 -0.000138663 -2.08438e-06 0.000531631 -2.32911e-21 0.000531631)
(0.000531631 -0.000138663 -2.08438e-06 0.000531631 2.19499e-20 0.000531631)
(0.000593107 -0.000163147 -2.49696e-06 0.000593107 -3.24031e-21 0.000593107)
(0.000593107 -0.000163147 -2.49696e-06 0.000593107 2.59038e-20 0.000593107)
(0.000659483 -0.000190732 -2.97204e-06 0.000659483 -4.96072e-21 0.000659483)
(0.000659483 -0.000190732 -2.97204e-06 0.000659483 2.99096e-20 0.000659483)
(0.000730851 -0.000221567 -3.51496e-06 0.000730851 -7.26149e-21 0.000730851)
(0.000730851 -0.000221567 -3.51496e-06 0.000730851 3.43526e-20 0.000730851)
(0.000807255 -0.000255764 -4.1307e-06 0.000807255 -9.04647e-21 0.000807255)
(0.000807255 -0.000255764 -4.1307e-06 0.000807255 3.91657e-20 0.000807255)
(0.000888694 -0.000293389 -4.82373e-06 0.000888694 -1.1649e-20 0.000888694)
(0.000888694 -0.000293389 -4.82373e-06 0.000888694 4.45785e-20 0.000888694)
(0.000975112 -0.000334455 -5.5979e-06 0.000975112 -1.53852e-20 0.000975112)
(0.000975112 -0.000334455 -5.5979e-06 0.000975112 4.99571e-20 0.000975112)
(0.0010664 -0.000378925 -6.45623e-06 0.0010664 -1.97506e-20 0.0010664)
(0.0010664 -0.000378925 -6.45623e-06 0.0010664 5.57365e-20 0.0010664)
(0.00116239 -0.000426702 -7.40092e-06 0.00116239 -2.39177e-20 0.00116239)
(0.00116239 -0.000426702 -7.40092e-06 0.00116239 6.23084e-20 0.00116239)
(0.00126286 -0.000477636 -8.43319e-06 0.00126286 -2.93463e-20 0.00126286)
(0.00126286 -0.000477636 -8.43319e-06 0.00126286 6.83086e-20 0.00126286)
(0.00136753 -0.000531522 -9.55327e-06 0.00136753 -3.53263e-20 0.00136753)
(0.00136753 -0.000531522 -9.55327e-06 0.00136753 7.26959e-20 0.00136753)
(0.0014761 -0.000588112 -1.07605e-05 0.0014761 -4.22147e-20 0.0014761)
(0.0014761 -0.000588112 -1.07605e-05 0.0014761 7.75061e-20 0.0014761)
(0.00158819 -0.000647115 -1.20531e-05 0.00158819 -4.93798e-20 0.00158819)
(0.00158819 -0.000647115 -1.20531e-05 0.00158819 8.47399e-20 0.00158819)
(0.0017034 -0.000708208 -1.34288e-05 0.0017034 -5.86811e-20 0.0017034)
(0.0017034 -0.000708208 -1.34288e-05 0.0017034 9.17174e-20 0.0017034)
(0.0018213 -0.000771049 -1.48843e-05 0.0018213 -7.02445e-20 0.0018213)
(0.0018213 -0.000771049 -1.48843e-05 0.0018213 9.75803e-20 0.0018213)
(0.00194146 -0.00083528 -1.64159e-05 0.00194146 -7.87085e-20 0.00194146)
(0.00194146 -0.00083528 -1.64159e-05 0.00194146 1.03452e-19 0.00194146)
(0.00206341 -0.000900541 -1.80192e-05 0.00206341 -8.84629e-20 0.00206341)
(0.00206341 -0.000900541 -1.80192e-05 0.00206341 1.09455e-19 0.00206341)
(0.00218668 -0.000966477 -1.96898e-05 0.00218668 -1.00397e-19 0.00218668)
(0.00218668 -0.000966477 -1.96898e-05 0.00218668 1.1742e-19 0.00218668)
(0.00231084 -0.00103275 -2.14229e-05 0.00231084 -1.12122e-19 0.00231084)
(0.00231084 -0.00103275 -2.14229e-05 0.00231084 1.24068e-19 0.00231084)
(0.00243542 -0.00109903 -2.32138e-05 0.00243542 -1.24383e-19 0.00243542)
(0.00243542 -0.00109903 -2.32138e-05 0.00243542 1.27702e-19 0.00243542)
(0.00256001 -0.00116502 -2.50577e-05 0.00256001 -1.40393e-19 0.00256001)
(0.00256001 -0.00116502 -2.50577e-05 0.00256001 1.32723e-19 0.00256001)
(0.00268421 -0.00123044 -2.695e-05 0.00268421 -1.54435e-19 0.00268421)
(0.00268421 -0.00123044 -2.695e-05 0.00268421 1.43681e-19 0.00268421)
(0.00280763 -0.00129507 -2.88866e-05 0.00280763 -1.65284e-19 0.00280763)
(0.00280763 -0.00129507 -2.88866e-05 0.00280763 1.62717e-19 0.00280763)
(0.00292995 -0.00135867 -3.08632e-05 0.00292995 -1.80762e-19 0.00292995)
(0.00292995 -0.00135867 -3.08632e-05 0.00292995 1.77569e-19 0.00292995)
(0.00305083 -0.00142107 -3.28762e-05 0.00305083 -2.04031e-19 0.00305083)
(0.00305083 -0.00142107 -3.28762e-05 0.00305083 1.81891e-19 0.00305083)
(0.00317001 -0.00148212 -3.49222e-05 0.00317001 -2.11705e-19 0.00317001)
(0.00317001 -0.00148212 -3.49222e-05 0.00317001 1.92159e-19 0.00317001)
(0.00328723 -0.00154168 -3.69983e-05 0.00328723 -2.20338e-19 0.00328723)
(0.00328723 -0.00154168 -3.69983e-05 0.00328723 2.02925e-19 0.00328723)
(0.00340228 -0.00159966 -3.91017e-05 0.00340228 -2.47474e-19 0.00340228)
(0.00340228 -0.00159966 -3.91017e-05 0.00340228 2.14522e-19 0.00340228)
(0.00351498 -0.00165598 -4.12302e-05 0.00351498 -2.17842e-19 0.00351498)
(0.00351498 -0.00165598 -4.12302e-05 0.00351498 2.44965e-19 0.00351498)
(0.00362517 -0.00171059 -4.33819e-05 0.00362517 -9.13983e-20 0.00362517)
(0.00362517 -0.00171059 -4.33819e-05 0.00362517 2.777e-19 0.00362517)
(0.00373273 -0.00176344 -4.55551e-05 0.00373273 -1.35168e-20 0.00373273)
(0.00373273 -0.00176344 -4.55551e-05 0.00373273 3.14438e-19 0.00373273)
(0.00383756 -0.00181452 -4.77486e-05 0.00383756 -1.76433e-20 0.00383756)
(0.00383756 -0.00181452 -4.77486e-05 0.00383756 3.36789e-19 0.00383756)
(0.00393958 -0.00186382 -4.99611e-05 0.00393958 -6.34406e-21 0.00393958)
(0.00393958 -0.00186382 -4.99611e-05 0.00393958 3.39069e-19 0.00393958)
(0.00403873 -0.00191134 -5.2192e-05 0.00403873 -2.05221e-20 0.00403873)
(0.00403873 -0.00191134 -5.2192e-05 0.00403873 3.62733e-19 0.00403873)
(0.00413499 -0.00195711 -5.44407e-05 0.00413499 -2.82024e-20 0.00413499)
(0.00413499 -0.00195711 -5.44407e-05 0.00413499 4.13854e-19 0.00413499)
(0.00422833 -0.00200113 -5.67067e-05 0.00422833 -2.7904e-20 0.00422833)
(0.00422833 -0.00200113 -5.67067e-05 0.00422833 4.69934e-19 0.00422833)
(0.00431874 -0.00204346 -5.899e-05 0.00431874 -3.30923e-20 0.00431874)
(0.00431874 -0.00204346 -5.899e-05 0.00431874 4.86398e-19 0.00431874)
(0.00440625 -0.00208411 -6.12903e-05 0.00440625 -3.11584e-20 0.00440625)
(0.00440625 -0.00208411 -6.12903e-05 0.00440625 4.86423e-19 0.00440625)
(0.00449087 -0.00212314 -6.36079e-05 0.00449087 -3.3361e-20 0.00449087)
(0.00449087 -0.00212314 -6.36079e-05 0.00449087 5.10299e-19 0.00449087)
(0.00457262 -0.00216058 -6.5943e-05 0.00457262 5.25111e-21 0.00457262)
(0.00457262 -0.00216058 -6.5943e-05 0.00457262 5.66737e-19 0.00457262)
(0.00465156 -0.00219648 -6.82958e-05 0.00465156 3.26944e-20 0.00465156)
(0.00465156 -0.00219648 -6.82958e-05 0.00465156 6.60586e-19 0.00465156)
(0.00472773 -0.00223089 -7.06668e-05 0.00472773 3.17227e-20 0.00472773)
(0.00472773 -0.00223089 -7.06668e-05 0.00472773 7.10781e-19 0.00472773)
(0.00480117 -0.00226385 -7.30565e-05 0.00480117 4.25496e-20 0.00480117)
(0.00480117 -0.00226385 -7.30565e-05 0.00480117 7.23951e-19 0.00480117)
(0.00487195 -0.00229542 -7.54654e-05 0.00487195 3.51147e-20 0.00487195)
(0.00487195 -0.00229542 -7.54654e-05 0.00487195 7.44971e-19 0.00487195)
(0.00494013 -0.00232565 -7.78941e-05 0.00494013 3.17008e-20 0.00494013)
(0.00494013 -0.00232565 -7.78941e-05 0.00494013 8.56188e-19 0.00494013)
(0.00500576 -0.00235457 -8.03434e-05 0.00500576 1.28701e-20 0.00500576)
(0.00500576 -0.00235457 -8.03434e-05 0.00500576 9.5603e-19 0.00500576)
(0.00506891 -0.00238225 -8.28138e-05 0.00506891 -4.14758e-20 0.00506891)
(0.00506891 -0.00238225 -8.28138e-05 0.00506891 9.13604e-19 0.00506891)
(0.00512965 -0.00240872 -8.53061e-05 0.00512965 -4.94696e-20 0.00512965)
(0.00512965 -0.00240872 -8.53061e-05 0.00512965 9.18792e-19 0.00512965)
(0.00518804 -0.00243403 -8.78211e-05 0.00518804 2.01641e-20 0.00518804)
(0.00518804 -0.00243403 -8.78211e-05 0.00518804 1.05899e-18 0.00518804)
(0.00524414 -0.00245823 -9.03596e-05 0.00524414 6.54025e-21 0.00524414)
(0.00524414 -0.00245823 -9.03596e-05 0.00524414 1.18197e-18 0.00524414)
(0.00529804 -0.00248135 -9.29223e-05 0.00529804 -8.85765e-20 0.00529804)
(0.00529804 -0.00248135 -9.29223e-05 0.00529804 1.15458e-18 0.00529804)
(0.00534979 -0.00250344 -9.551e-05 0.00534979 -2.52747e-20 0.00534979)
(0.00534979 -0.00250344 -9.551e-05 0.00534979 1.18405e-18 0.00534979)
(0.00539945 -0.00252455 -9.81237e-05 0.00539945 1.63912e-20 0.00539945)
(0.00539945 -0.00252455 -9.81237e-05 0.00539945 1.34439e-18 0.00539945)
(0.00544709 -0.00254469 -0.000100764 0.00544709 -7.04547e-20 0.00544709)
(0.00544709 -0.00254469 -0.000100764 0.00544709 1.42488e-18 0.00544709)
(0.00549277 -0.00256393 -0.000103432 0.00549277 -4.22369e-21 0.00549277)
(0.00549277 -0.00256393 -0.000103432 0.00549277 1.55033e-18 0.00549277)
(0.00553656 -0.00258228 -0.000106128 0.00553656 3.15481e-20 0.00553656)
(0.00553656 -0.00258228 -0.000106128 0.00553656 1.73553e-18 0.00553656)
(0.00557852 -0.00259978 -0.000108853 0.00557852 -4.29439e-20 0.00557852)
(0.00557852 -0.00259978 -0.000108853 0.00557852 1.76142e-18 0.00557852)
(0.00561869 -0.00261647 -0.000111609 0.00561869 1.31541e-20 0.00561869)
(0.00561869 -0.00261647 -0.000111609 0.00561869 1.78903e-18 0.00561869)
(0.00565714 -0.00263237 -0.000114395 0.00565714 -9.79603e-21 0.00565714)
(0.00565714 -0.00263237 -0.000114395 0.00565714 1.91958e-18 0.00565714)
(0.00569392 -0.00264752 -0.000117213 0.00569392 1.25458e-20 0.00569392)
(0.00569392 -0.00264752 -0.000117213 0.00569392 2.07543e-18 0.00569392)
(0.00572909 -0.00266194 -0.000120064 0.00572909 2.53057e-20 0.00572909)
(0.00572909 -0.00266194 -0.000120064 0.00572909 2.25273e-18 0.00572909)
(0.0057627 -0.00267566 -0.000122948 0.0057627 3.84738e-20 0.0057627)
(0.0057627 -0.00267566 -0.000122948 0.0057627 2.34904e-18 0.0057627)
(0.00579479 -0.00268871 -0.000125866 0.00579479 1.06829e-19 0.00579479)
(0.00579479 -0.00268871 -0.000125866 0.00579479 2.35157e-18 0.00579479)
(0.00582541 -0.0027011 -0.000128819 0.00582541 1.15092e-19 0.00582541)
(0.00582541 -0.0027011 -0.000128819 0.00582541 2.5255e-18 0.00582541)
(0.00585461 -0.00271287 -0.000131808 0.00585461 1.21534e-19 0.00585461)
(0.00585461 -0.00271287 -0.000131808 0.00585461 2.8883e-18 0.00585461)
(0.00588243 -0.00272403 -0.000134833 0.00588243 1.44091e-19 0.00588243)
(0.00588243 -0.00272403 -0.000134833 0.00588243 2.96472e-18 0.00588243)
(0.00590891 -0.0027346 -0.000137896 0.00590891 1.79833e-19 0.00590891)
(0.00590891 -0.0027346 -0.000137896 0.00590891 2.99777e-18 0.00590891)
(0.0059341 -0.0027446 -0.000140997 0.0059341 1.62918e-19 0.0059341)
(0.0059341 -0.0027446 -0.000140997 0.0059341 3.21238e-18 0.0059341)
(0.00595803 -0.00275406 -0.000144136 0.00595803 1.5627e-19 0.00595803)
(0.00595803 -0.00275406 -0.000144136 0.00595803 3.46309e-18 0.00595803)
(0.00598074 -0.00276299 -0.000147316 0.00598074 2.75765e-19 0.00598074)
(0.00598074 -0.00276299 -0.000147316 0.00598074 3.82999e-18 0.00598074)
(0.00600226 -0.00277141 -0.000150536 0.00600226 2.92847e-19 0.00600226)
(0.00600226 -0.00277141 -0.000150536 0.00600226 3.81181e-18 0.00600226)
(0.00602263 -0.00277933 -0.000153797 0.00602263 2.56243e-19 0.00602263)
(0.00602263 -0.00277933 -0.000153797 0.00602263 3.89616e-18 0.00602263)
(0.00604188 -0.00278676 -0.0001571 0.00604188 3.88698e-19 0.00604188)
(0.00604188 -0.00278676 -0.0001571 0.00604188 4.23228e-18 0.00604188)
(0.00606004 -0.00279373 -0.000160446 0.00606004 4.06507e-19 0.00606004)
(0.00606004 -0.00279373 -0.000160446 0.00606004 4.26376e-18 0.00606004)
(0.00607715 -0.00280024 -0.000163835 0.00607715 3.87001e-19 0.00607715)
(0.00607715 -0.00280024 -0.000163835 0.00607715 4.60431e-18 0.00607715)
(0.00609322 -0.00280631 -0.000167268 0.00609322 3.77829e-19 0.00609322)
(0.00609322 -0.00280631 -0.000167268 0.00609322 5.03367e-18 0.00609322)
(0.00610829 -0.00281195 -0.000170746 0.00610829 2.72672e-19 0.00610829)
(0.00610829 -0.00281195 -0.000170746 0.00610829 5.41436e-18 0.00610829)
(0.00612237 -0.00281717 -0.00017427 0.00612237 2.07891e-19 0.00612237)
(0.00612237 -0.00281717 -0.00017427 0.00612237 5.48546e-18 0.00612237)
(0.0061355 -0.00282199 -0.000177839 0.0061355 1.79783e-19 0.0061355)
(0.0061355 -0.00282199 -0.000177839 0.0061355 5.56943e-18 0.0061355)
(0.00614771 -0.0028264 -0.000181456 0.00614771 3.53469e-19 0.00614771)
(0.00614771 -0.0028264 -0.000181456 0.00614771 6.38089e-18 0.00614771)
(0.006159 -0.00283043 -0.000185119 0.006159 5.66204e-19 0.006159)
(0.006159 -0.00283043 -0.000185119 0.006159 6.70738e-18 0.006159)
(0.0061694 -0.00283408 -0.000188831 0.0061694 9.79441e-19 0.0061694)
(0.0061694 -0.00283408 -0.000188831 0.0061694 6.37895e-18 0.0061694)
(0.00617893 -0.00283736 -0.000192591 0.00617893 1.08151e-18 0.00617893)
(0.00617893 -0.00283736 -0.000192591 0.00617893 6.54551e-18 0.00617893)
(0.00618761 -0.00284027 -0.000196401 0.00618761 9.29513e-19 0.00618761)
(0.00618761 -0.00284027 -0.000196401 0.00618761 7.16656e-18 0.00618761)
(0.00619546 -0.00284283 -0.00020026 0.00619546 8.45252e-19 0.00619546)
(0.00619546 -0.00284283 -0.00020026 0.00619546 7.97579e-18 0.00619546)
(0.00620249 -0.00284504 -0.00020417 0.00620249 6.36766e-19 0.00620249)
(0.00620249 -0.00284504 -0.00020417 0.00620249 8.52867e-18 0.00620249)
(0.00620872 -0.00284691 -0.000208131 0.00620872 1.10657e-18 0.00620872)
(0.00620872 -0.00284691 -0.000208131 0.00620872 8.46669e-18 0.00620872)
(0.00621417 -0.00284844 -0.000212143 0.00621417 1.47918e-18 0.00621417)
(0.00621417 -0.00284844 -0.000212143 0.00621417 9.32933e-18 0.00621417)
(0.00621885 -0.00284964 -0.000216207 0.00621885 9.20332e-19 0.00621885)
(0.00621885 -0.00284964 -0.000216207 0.00621885 1.00863e-17 0.00621885)
(0.00622277 -0.00285052 -0.000220323 0.00622277 9.50493e-19 0.00622277)
(0.00622277 -0.00285052 -0.000220323 0.00622277 1.0419e-17 0.00622277)
(0.00622594 -0.00285107 -0.000224493 0.00622594 6.46505e-19 0.00622594)
(0.00622594 -0.00285107 -0.000224493 0.00622594 1.06523e-17 0.00622594)
(0.00622839 -0.00285131 -0.000228715 0.00622839 -6.15895e-19 0.00622839)
(0.00622839 -0.00285131 -0.000228715 0.00622839 1.07874e-17 0.00622839)
(0.00623011 -0.00285124 -0.000232991 0.00623011 -1.89023e-19 0.00623011)
(0.00623011 -0.00285124 -0.000232991 0.00623011 1.11777e-17 0.00623011)
(0.00623112 -0.00285086 -0.000237321 0.00623112 1.23567e-18 0.00623112)
(0.00623112 -0.00285086 -0.000237321 0.00623112 1.17935e-17 0.00623112)
(0.00623142 -0.00285017 -0.000241706 0.00623142 1.40535e-18 0.00623142)
(0.00623142 -0.00285017 -0.000241706 0.00623142 1.25356e-17 0.00623142)
(0.00623104 -0.00284919 -0.000246145 0.00623104 3.70689e-19 0.00623104)
(0.00623104 -0.00284919 -0.000246145 0.00623104 9.37265e-18 0.00623104)
(0.00622997 -0.0028479 -0.000250639 0.00622997 4.77978e-19 0.00622997)
(0.00622997 -0.0028479 -0.000250639 0.00622997 3.19347e-18 0.00622997)
(0.00622823 -0.00284632 -0.000255189 0.00622823 5.77147e-20 0.00622823)
(0.00622823 -0.00284632 -0.000255189 0.00622823 2.00217e-18 0.00622823)
(0.00622582 -0.00284445 -0.000259793 0.00622582 3.22798e-19 0.00622582)
(0.00622582 -0.00284445 -0.000259793 0.00622582 2.02258e-18 0.00622582)
(0.00622274 -0.00284228 -0.000264454 0.00622274 9.53912e-19 0.00622274)
(0.00622274 -0.00284228 -0.000264454 0.00622274 2.41862e-18 0.00622274)
(0.00621901 -0.00283983 -0.000269169 0.00621901 9.71938e-19 0.00621901)
(0.00621901 -0.00283983 -0.000269169 0.00621901 3.2621e-18 0.00621901)
(0.00621464 -0.00283709 -0.000273941 0.00621464 1.03966e-18 0.00621464)
(0.00621464 -0.00283709 -0.000273941 0.00621464 3.72093e-18 0.00621464)
(0.00620961 -0.00283406 -0.000278769 0.00620961 4.83012e-19 0.00620961)
(0.00620961 -0.00283406 -0.000278769 0.00620961 2.83719e-18 0.00620961)
(0.00620395 -0.00283075 -0.000283652 0.00620395 6.71548e-19 0.00620395)
(0.00620395 -0.00283075 -0.000283652 0.00620395 1.7349e-18 0.00620395)
(0.00619766 -0.00282715 -0.000288591 0.00619766 6.70037e-19 0.00619766)
(0.00619766 -0.00282715 -0.000288591 0.00619766 3.34312e-18 0.00619766)
(0.00619073 -0.00282327 -0.000293586 0.00619073 4.42367e-19 0.00619073)
(0.00619073 -0.00282327 -0.000293586 0.00619073 4.96376e-18 0.00619073)
(0.00618317 -0.0028191 -0.000298636 0.00618317 5.7393e-19 0.00618317)
(0.00618317 -0.0028191 -0.000298636 0.00618317 6.22605e-18 0.00618317)
(0.00617499 -0.00281465 -0.000303742 0.00617499 1.26257e-18 0.00617499)
(0.00617499 -0.00281465 -0.000303742 0.00617499 6.36054e-18 0.00617499)
(0.00616619 -0.00280992 -0.000308902 0.00616619 1.30965e-18 0.00616619)
(0.00616619 -0.00280992 -0.000308902 0.00616619 4.97198e-19 0.00616619)
(0.00615676 -0.0028049 -0.000314118 0.00615676 8.54857e-19 0.00615676)
(0.00615676 -0.0028049 -0.000314118 0.00615676 6.15859e-19 0.00615676)
(0.00614672 -0.0027996 -0.000319387 0.00614672 1.69051e-18 0.00614672)
(0.00614672 -0.0027996 -0.000319387 0.00614672 -1.26765e-19 0.00614672)
(0.00613606 -0.00279402 -0.00032471 0.00613606 3.72485e-18 0.00613606)
(0.00613606 -0.00279402 -0.00032471 0.00613606 -7.44974e-20 0.00613606)
(0.00612478 -0.00278815 -0.000330087 0.00612478 3.88919e-18 0.00612478)
(0.00612478 -0.00278815 -0.000330087 0.00612478 4.67833e-19 0.00612478)
(0.00611289 -0.00278199 -0.000335516 0.00611289 1.4821e-19 0.00611289)
(0.00611289 -0.00278199 -0.000335516 0.00611289 4.6184e-19 0.00611289)
(0.00610038 -0.00277555 -0.000340997 0.00610038 -2.16651e-18 0.00610038)
(0.00610038 -0.00277555 -0.000340997 0.00610038 -6.16044e-19 0.00610038)
(0.00608726 -0.00276882 -0.00034653 0.00608726 7.88611e-19 0.00608726)
(0.00608726 -0.00276882 -0.00034653 0.00608726 -1.06064e-18 0.00608726)
(0.00607352 -0.0027618 -0.000352112 0.00607352 3.39947e-18 0.00607352)
(0.00607352 -0.0027618 -0.000352112 0.00607352 5.06888e-19 0.00607352)
(0.00605916 -0.00275448 -0.000357744 0.00605916 2.18226e-18 0.00605916)
(0.00605916 -0.00275448 -0.000357744 0.00605916 1.76617e-18 0.00605916)
(0.00604419 -0.00274688 -0.000363425 0.00604419 2.86493e-18 0.00604419)
(0.00604419 -0.00274688 -0.000363425 0.00604419 2.77974e-18 0.00604419)
(0.0060286 -0.00273897 -0.000369152 0.0060286 3.67996e-18 0.0060286)
(0.0060286 -0.00273897 -0.000369152 0.0060286 2.88348e-18 0.0060286)
(0.00601239 -0.00273078 -0.000374925 0.00601239 1.53588e-18 0.00601239)
(0.00601239 -0.00273078 -0.000374925 0.00601239 1.5944e-18 0.00601239)
(0.00599555 -0.00272228 -0.000380743 0.00599555 4.314e-19 0.00599555)
(0.00599555 -0.00272228 -0.000380743 0.00599555 1.48189e-18 0.00599555)
(0.00597809 -0.00271347 -0.000386604 0.00597809 1.96218e-18 0.00597809)
(0.00597809 -0.00271347 -0.000386604 0.00597809 2.77756e-18 0.00597809)
(0.00596001 -0.00270437 -0.000392506 0.00596001 3.31687e-18 0.00596001)
(0.00596001 -0.00270437 -0.000392506 0.00596001 3.5179e-18 0.00596001)
(0.00594129 -0.00269496 -0.000398448 0.00594129 3.95104e-18 0.00594129)
(0.00594129 -0.00269496 -0.000398448 0.00594129 3.92661e-18 0.00594129)
(0.00592194 -0.00268523 -0.000404427 0.00592194 4.43041e-18 0.00592194)
(0.00592194 -0.00268523 -0.000404427 0.00592194 5.26128e-18 0.00592194)
(0.00590195 -0.0026752 -0.000410443 0.00590195 3.85726e-18 0.00590195)
(0.00590195 -0.0026752 -0.000410443 0.00590195 5.6414e-18 0.00590195)
(0.00588133 -0.00266485 -0.000416492 0.00588133 7.06459e-19 0.00588133)
(0.00588133 -0.00266485 -0.000416492 0.00588133 4.92368e-18 0.00588133)
(0.00586006 -0.00265417 -0.000422572 0.00586006 -5.85549e-20 0.00586006)
(0.00586006 -0.00265417 -0.000422572 0.00586006 3.6012e-18 0.00586006)
(0.00583814 -0.00264318 -0.000428682 0.00583814 2.39892e-18 0.00583814)
(0.00583814 -0.00264318 -0.000428682 0.00583814 3.40022e-18 0.00583814)
(0.00581557 -0.00263186 -0.000434817 0.00581557 2.58598e-18 0.00581557)
(0.00581557 -0.00263186 -0.000434817 0.00581557 5.34034e-18 0.00581557)
(0.00579234 -0.00262021 -0.000440976 0.00579234 3.58405e-18 0.00579234)
(0.00579234 -0.00262021 -0.000440976 0.00579234 3.67471e-18 0.00579234)
(0.00576845 -0.00260823 -0.000447156 0.00576845 3.13981e-18 0.00576845)
(0.00576845 -0.00260823 -0.000447156 0.00576845 2.08221e-18 0.00576845)
(0.0057439 -0.0025959 -0.000453353 0.0057439 2.84674e-18 0.0057439)
(0.0057439 -0.0025959 -0.000453353 0.0057439 2.04417e-18 0.0057439)
(0.00571867 -0.00258324 -0.000459564 0.00571867 3.03147e-18 0.00571867)
(0.00571867 -0.00258324 -0.000459564 0.00571867 2.1364e-18 0.00571867)
(0.00569276 -0.00257023 -0.000465786 0.00569276 7.24108e-19 0.00569276)
(0.00569276 -0.00257023 -0.000465786 0.00569276 6.3004e-18 0.00569276)
(0.00566618 -0.00255687 -0.000472014 0.00566618 4.97708e-18 0.00566618)
(0.00566618 -0.00255687 -0.000472014 0.00566618 4.695e-18 0.00566618)
(0.0056389 -0.00254316 -0.000478245 0.0056389 2.51971e-18 0.0056389)
(0.0056389 -0.00254316 -0.000478245 0.0056389 4.57055e-19 0.0056389)
(0.00561092 -0.00252908 -0.000484474 0.00561092 2.96115e-18 0.00561092)
(0.00561092 -0.00252908 -0.000484474 0.00561092 1.37351e-18 0.00561092)
(0.00558225 -0.00251464 -0.000490698 0.00558225 1.16165e-18 0.00558225)
(0.00558225 -0.00251464 -0.000490698 0.00558225 6.89114e-18 0.00558225)
(0.00555287 -0.00249984 -0.000496911 0.00555287 -1.91347e-18 0.00555287)
(0.00555287 -0.00249984 -0.000496911 0.00555287 2.1142e-17 0.00555287)
(0.00552277 -0.00248466 -0.000503108 0.00552277 -2.03582e-18 0.00552277)
(0.00552277 -0.00248466 -0.000503108 0.00552277 2.78257e-17 0.00552277)
(0.00549195 -0.0024691 -0.000509284 0.00549195 8.28973e-18 0.00549195)
(0.00549195 -0.0024691 -0.000509284 0.00549195 2.89775e-17 0.00549195)
(0.0054604 -0.00245315 -0.000515434 0.0054604 1.00789e-17 0.0054604)
(0.0054604 -0.00245315 -0.000515434 0.0054604 2.73212e-17 0.0054604)
(0.00542811 -0.00243682 -0.000521551 0.00542811 5.80628e-18 0.00542811)
(0.00542811 -0.00243682 -0.000521551 0.00542811 2.60903e-17 0.00542811)
(0.00539508 -0.00242009 -0.00052763 0.00539508 1.88128e-18 0.00539508)
(0.00539508 -0.00242009 -0.00052763 0.00539508 2.87113e-17 0.00539508)
(0.0053613 -0.00240296 -0.000533664 0.0053613 2.8232e-18 0.0053613)
(0.0053613 -0.00240296 -0.000533664 0.0053613 2.59265e-17 0.0053613)
(0.00532676 -0.00238542 -0.000539646 0.00532676 5.16835e-18 0.00532676)
(0.00532676 -0.00238542 -0.000539646 0.00532676 2.20895e-17 0.00532676)
(0.00529145 -0.00236747 -0.000545569 0.00529145 1.92409e-18 0.00529145)
(0.00529145 -0.00236747 -0.000545569 0.00529145 2.95791e-17 0.00529145)
(0.00525537 -0.0023491 -0.000551426 0.00525537 2.65214e-18 0.00525537)
(0.00525537 -0.0023491 -0.000551426 0.00525537 2.73961e-17 0.00525537)
(0.0052185 -0.0023303 -0.000557208 0.0052185 2.79195e-18 0.0052185)
(0.0052185 -0.0023303 -0.000557208 0.0052185 2.50533e-17 0.0052185)
(0.00518085 -0.00231108 -0.000562907 0.00518085 1.25361e-18 0.00518085)
(0.00518085 -0.00231108 -0.000562907 0.00518085 2.37151e-17 0.00518085)
(0.00514239 -0.00229141 -0.000568515 0.00514239 1.77923e-18 0.00514239)
(0.00514239 -0.00229141 -0.000568515 0.00514239 1.64146e-17 0.00514239)
(0.00510313 -0.0022713 -0.000574023 0.00510313 2.56909e-18 0.00510313)
(0.00510313 -0.0022713 -0.000574023 0.00510313 1.0077e-17 0.00510313)
(0.00506305 -0.00225074 -0.00057942 0.00506305 2.54582e-18 0.00506305)
(0.00506305 -0.00225074 -0.00057942 0.00506305 6.50135e-18 0.00506305)
(0.00502215 -0.00222972 -0.000584696 0.00502215 -8.17611e-19 0.00502215)
(0.00502215 -0.00222972 -0.000584696 0.00502215 3.5511e-18 0.00502215)
(0.00498042 -0.00220824 -0.000589842 0.00498042 2.76241e-18 0.00498042)
(0.00498042 -0.00220824 -0.000589842 0.00498042 -5.79497e-18 0.00498042)
(0.00493785 -0.00218628 -0.000594845 0.00493785 6.92116e-18 0.00493785)
(0.00493785 -0.00218628 -0.000594845 0.00493785 -1.02078e-17 0.00493785)
(0.00489443 -0.00216384 -0.000599695 0.00489443 2.62931e-18 0.00489443)
(0.00489443 -0.00216384 -0.000599695 0.00489443 -1.16979e-18 0.00489443)
(0.00485015 -0.00214091 -0.000604379 0.00485015 -2.19438e-18 0.00485015)
(0.00485015 -0.00214091 -0.000604379 0.00485015 3.4948e-18 0.00485015)
(0.00480502 -0.00211749 -0.000608884 0.00480502 1.04866e-17 0.00480502)
(0.00480502 -0.00211749 -0.000608884 0.00480502 7.49789e-18 0.00480502)
(0.00475901 -0.00209357 -0.000613197 0.00475901 4.76717e-18 0.00475901)
(0.00475901 -0.00209357 -0.000613197 0.00475901 4.28223e-18 0.00475901)