/*--------------------------------*- C++ -*----------------------------------*\
| =========                 |                                                 |
| \\      /  F ield         | OpenFOAM: The Open Source CFD Toolbox           |
|  \\    /   O peration     | Version:  2106                                  |
|   \\  /    A nd           | Website:  www.openfoam.com                      |
|    \\/     M anipulation  |                                                 |
\*---------------------------------------------------------------------------*/
FoamFile
{
    version     2.0;
    format      ascii;
    arch        "LSB;label=32;scalar=64";
    class       volScalarField;
    location    "10050";
    object      Cy;
}
// * * * * * * * * * * * * * * * * * * * * * * * * * * * * * * * * * * * * * //

dimensions      [0 1 0 0 0 0 0];

internalField   nonuniform List<scalar> 
2000
(
9.25318e-05
9.25318e-05
0.000279323
0.000279323
0.0004696
0.0004696
0.00066343
0.00066343
0.000860877
0.000860877
0.00106201
0.00106201
0.0012669
0.0012669
0.00147561
0.00147561
0.00168822
0.00168822
0.0019048
0.0019048
0.00212542
0.00212542
0.00235015
0.00235015
0.00257909
0.00257909
0.00281229
0.00281229
0.00304985
0.00304985
0.00329185
0.00329185
0.00353836
0.00353836
0.00378947
0.00378947
0.00404527
0.00404527
0.00430585
0.00430585
0.00457129
0.00457129
0.00484168
0.00484168
0.00511713
0.00511713
0.00539771
0.00539771
0.00568353
0.00568353
0.00597469
0.00597469
0.00627128
0.00627128
0.00657341
0.00657341
0.00688117
0.00688117
0.00719469
0.00719469
0.00751405
0.00751405
0.00783938
0.00783938
0.00817078
0.00817078
0.00850836
0.00850836
0.00885225
0.00885225
0.00920256
0.00920256
0.0095594
0.0095594
0.00992291
0.00992291
0.0102932
0.0102932
0.0106704
0.0106704
0.0110547
0.0110547
0.0114461
0.0114461
0.0118448
0.0118448
0.012251
0.012251
0.0126647
0.0126647
0.0130862
0.0130862
0.0135155
0.0135155
0.0139529
0.0139529
0.0143984
0.0143984
0.0148522
0.0148522
0.0153145
0.0153145
0.0157855
0.0157855
0.0162652
0.0162652
0.0167539
0.0167539
0.0172517
0.0172517
0.0177588
0.0177588
0.0182753
0.0182753
0.0188015
0.0188015
0.0193376
0.0193376
0.0198836
0.0198836
0.0204398
0.0204398
0.0210064
0.0210064
0.0215836
0.0215836
0.0221716
0.0221716
0.0227705
0.0227705
0.0233806
0.0233806
0.0240021
0.0240021
0.0246352
0.0246352
0.0252802
0.0252802
0.0259371
0.0259371
0.0266064
0.0266064
0.0272881
0.0272881
0.0279825
0.0279825
0.0286899
0.0286899
0.0294105
0.0294105
0.0301446
0.0301446
0.0308924
0.0308924
0.0316541
0.0316541
0.03243
0.03243
0.0332205
0.0332205
0.0340256
0.0340256
0.0348458
0.0348458
0.0356814
0.0356814
0.0365325
0.0365325
0.0373995
0.0373995
0.0382827
0.0382827
0.0391824
0.0391824
0.0400988
0.0400988
0.0410324
0.0410324
0.0419834
0.0419834
0.0429522
0.0429522
0.043939
0.043939
0.0449443
0.0449443
0.0459683
0.0459683
0.0470114
0.0470114
0.0480741
0.0480741
0.0491565
0.0491565
0.0502592
0.0502592
0.0513824
0.0513824
0.0525266
0.0525266
0.0536922
0.0536922
0.0548795
0.0548795
0.056089
0.056089
0.057321
0.057321
0.0585761
0.0585761
0.0598546
0.0598546
0.0611569
0.0611569
0.0624836
0.0624836
0.063835
0.063835
0.0652117
0.0652117
0.066614
0.066614
0.0680426
0.0680426
0.0694978
0.0694978
0.0709801
0.0709801
0.0724902
0.0724902
0.0740284
0.0740284
0.0755953
0.0755953
0.0771915
0.0771915
0.0788175
0.0788175
0.0804738
0.0804738
0.0821611
0.0821611
0.0838798
0.0838798
0.0856306
0.0856306
0.0874141
0.0874141
0.0892309
0.0892309
0.0910816
0.0910816
0.0929669
0.0929669
0.0948874
0.0948874
0.0968437
0.0968437
0.0988365
0.0988365
0.100867
0.100867
0.102934
0.102934
0.105041
0.105041
0.107187
0.107187
0.109373
0.109373
0.111599
0.111599
0.113868
0.113868
0.116178
0.116178
0.118532
0.118532
0.12093
0.12093
0.123372
0.123372
0.12586
0.12586
0.128395
0.128395
0.130976
0.130976
0.133606
0.133606
0.136285
0.136285
0.139014
0.139014
0.141794
0.141794
0.144626
0.144626
0.147511
0.147511
0.15045
0.15045
0.153443
0.153443
0.156492
0.156492
0.159599
0.159599
0.162763
0.162763
0.165986
0.165986
0.16927
0.16927
0.172615
0.172615
0.176022
0.176022
0.179493
0.179493
0.183028
0.183028
0.18663
0.18663
0.190299
0.190299
0.194036
0.194036
0.197843
0.197843
0.201721
0.201721
0.205672
0.205672
0.209696
0.209696
0.213795
0.213795
0.217971
0.217971
0.222225
0.222225
0.226559
0.226559
0.230973
0.230973
0.235469
0.235469
0.24005
0.24005
0.244716
0.244716
0.249469
0.249469
0.254311
0.254311
0.259243
0.259243
0.264267
0.264267
0.269385
0.269385
0.274599
0.274599
0.27991
0.27991
0.28532
0.28532
0.290831
0.290831
0.296445
0.296445
0.302164
0.302164
0.307989
0.307989
0.313923
0.313923
0.319968
0.319968
0.326126
0.326126
0.332399
0.332399
0.338789
0.338789
0.345298
0.345298
0.351929
0.351929
0.358683
0.358683
0.365564
0.365564
0.372573
0.372573
0.379712
0.379712
0.386985
0.386985
0.394394
0.394394
0.401941
0.401941
0.409629
0.409629
0.417461
0.417461
0.425439
0.425439
0.433565
0.433565
0.441843
0.441843
0.450276
0.450276
0.458867
0.458867
0.467617
0.467617
0.476531
0.476531
0.485611
0.485611
0.494861
0.494861
0.504284
0.504284
0.513882
0.513882
0.52366
0.52366
0.53362
0.53362
0.543766
0.543766
0.554101
0.554101
0.56463
0.56463
0.575354
0.575354
0.58628
0.58628
0.597409
0.597409
0.608745
0.608745
0.620294
0.620294
0.632058
0.632058
0.644041
0.644041
0.656248
0.656248
0.668683
0.668683
0.681351
0.681351
0.694254
0.694254
0.707399
0.707399
0.720789
0.720789
0.734429
0.734429
0.748323
0.748323
0.762477
0.762477
0.776895
0.776895
0.791582
0.791582
0.806543
0.806543
0.821784
0.821784
0.837309
0.837309
0.853124
0.853124
0.869234
0.869234
0.885645
0.885645
0.902362
0.902362
0.919391
0.919391
0.936738
0.936738
0.954409
0.954409
0.97241
0.97241
0.990747
0.990747
9.25318e-05
9.25318e-05
0.000279323
0.000279323
0.0004696
0.0004696
0.00066343
0.00066343
0.000860877
0.000860877
0.00106201
0.00106201
0.0012669
0.0012669
0.00147561
0.00147561
0.00168822
0.00168822
0.0019048
0.0019048
0.00212542
0.00212542
0.00235015
0.00235015
0.00257909
0.00257909
0.00281229
0.00281229
0.00304985
0.00304985
0.00329185
0.00329185
0.00353836
0.00353836
0.00378947
0.00378947
0.00404527
0.00404527
0.00430585
0.00430585
0.00457129
0.00457129
0.00484168
0.00484168
0.00511713
0.00511713
0.00539771
0.00539771
0.00568353
0.00568353
0.00597469
0.00597469
0.00627128
0.00627128
0.00657341
0.00657341
0.00688117
0.00688117
0.00719469
0.00719469
0.00751405
0.00751405
0.00783938
0.00783938
0.00817078
0.00817078
0.00850836
0.00850836
0.00885225
0.00885225
0.00920256
0.00920256
0.0095594
0.0095594
0.00992291
0.00992291
0.0102932
0.0102932
0.0106704
0.0106704
0.0110547
0.0110547
0.0114461
0.0114461
0.0118448
0.0118448
0.012251
0.012251
0.0126647
0.0126647
0.0130862
0.0130862
0.0135155
0.0135155
0.0139529
0.0139529
0.0143984
0.0143984
0.0148522
0.0148522
0.0153145
0.0153145
0.0157855
0.0157855
0.0162652
0.0162652
0.0167539
0.0167539
0.0172517
0.0172517
0.0177588
0.0177588
0.0182753
0.0182753
0.0188015
0.0188015
0.0193376
0.0193376
0.0198836
0.0198836
0.0204398
0.0204398
0.0210064
0.0210064
0.0215836
0.0215836
0.0221716
0.0221716
0.0227705
0.0227705
0.0233806
0.0233806
0.0240021
0.0240021
0.0246352
0.0246352
0.0252802
0.0252802
0.0259371
0.0259371
0.0266064
0.0266064
0.0272881
0.0272881
0.0279825
0.0279825
0.0286899
0.0286899
0.0294105
0.0294105
0.0301446
0.0301446
0.0308924
0.0308924
0.0316541
0.0316541
0.03243
0.03243
0.0332205
0.0332205
0.0340256
0.0340256
0.0348458
0.0348458
0.0356814
0.0356814
0.0365325
0.0365325
0.0373995
0.0373995
0.0382827
0.0382827
0.0391824
0.0391824
0.0400988
0.0400988
0.0410324
0.0410324
0.0419834
0.0419834
0.0429522
0.0429522
0.043939
0.043939
0.0449443
0.0449443
0.0459683
0.0459683
0.0470114
0.0470114
0.0480741
0.0480741
0.0491565
0.0491565
0.0502592
0.0502592
0.0513824
0.0513824
0.0525266
0.0525266
0.0536922
0.0536922
0.0548795
0.0548795
0.056089
0.056089
0.057321
0.057321
0.0585761
0.0585761
0.0598546
0.0598546
0.0611569
0.0611569
0.0624836
0.0624836
0.063835
0.063835
0.0652117
0.0652117
0.066614
0.066614
0.0680426
0.0680426
0.0694978
0.0694978
0.0709801
0.0709801
0.0724902
0.0724902
0.0740284
0.0740284
0.0755953
0.0755953
0.0771915
0.0771915
0.0788175
0.0788175
0.0804738
0.0804738
0.0821611
0.0821611
0.0838798
0.0838798
0.0856306
0.0856306
0.0874141
0.0874141
0.0892309
0.0892309
0.0910816
0.0910816
0.0929669
0.0929669
0.0948874
0.0948874
0.0968437
0.0968437
0.0988365
0.0988365
0.100867
0.100867
0.102934
0.102934
0.105041
0.105041
0.107187
0.107187
0.109373
0.109373
0.111599
0.111599
0.113868
0.113868
0.116178
0.116178
0.118532
0.118532
0.12093
0.12093
0.123372
0.123372
0.12586
0.12586
0.128395
0.128395
0.130976
0.130976
0.133606
0.133606
0.136285
0.136285
0.139014
0.139014
0.141794
0.141794
0.144626
0.144626
0.147511
0.147511
0.15045
0.15045
0.153443
0.153443
0.156492
0.156492
0.159599
0.159599
0.162763
0.162763
0.165986
0.165986
0.16927
0.16927
0.172615
0.172615
0.176022
0.176022
0.179493
0.179493
0.183028
0.183028
0.18663
0.18663
0.190299
0.190299
0.194036
0.194036
0.197843
0.197843
0.201721
0.201721
0.205672
0.205672
0.209696
0.209696
0.213795
0.213795
0.217971
0.217971
0.222225
0.222225
0.226559
0.226559
0.230973
0.230973
0.235469
0.235469
0.24005
0.24005
0.244716
0.244716
0.249469
0.249469
0.254311
0.254311
0.259243
0.259243
0.264267
0.264267
0.269385
0.269385
0.274599
0.274599
0.27991
0.27991
0.28532
0.28532
0.290831
0.290831
0.296445
0.296445
0.302164
0.302164
0.307989
0.307989
0.313923
0.313923
0.319968
0.319968
0.326126
0.326126
0.332399
0.332399
0.338789
0.338789
0.345298
0.345298
0.351929
0.351929
0.358683
0.358683
0.365564
0.365564
0.372573
0.372573
0.379712
0.379712
0.386985
0.386985
0.394394
0.394394
0.401941
0.401941
0.409629
0.409629
0.417461
0.417461
0.425439
0.425439
0.433565
0.433565
0.441843
0.441843
0.450276
0.450276
0.458867
0.458867
0.467617
0.467617
0.476531
0.476531
0.485611
0.485611
0.494861
0.494861
0.504284
0.504284
0.513882
0.513882
0.52366
0.52366
0.53362
0.53362
0.543766
0.543766
0.554101
0.554101
0.56463
0.56463
0.575354
0.575354
0.58628
0.58628
0.597409
0.597409
0.608745
0.608745
0.620294
0.620294
0.632058
0.632058
0.644041
0.644041
0.656248
0.656248
0.668683
0.668683
0.681351
0.681351
0.694254
0.694254
0.707399
0.707399
0.720789
0.720789
0.734429
0.734429
0.748323
0.748323
0.762477
0.762477
0.776895
0.776895
0.791582
0.791582
0.806543
0.806543
0.821784
0.821784
0.837309
0.837309
0.853124
0.853124
0.869234
0.869234
0.885645
0.885645
0.902362
0.902362
0.919391
0.919391
0.936738
0.936738
0.954409
0.954409
0.97241
0.97241
0.990747
0.990747
1.00925
1.00925
1.02759
1.02759
1.04559
1.04559
1.06326
1.06326
1.08061
1.08061
1.09764
1.09764
1.11436
1.11436
1.13077
1.13077
1.14688
1.14688
1.16269
1.16269
1.17822
1.17822
1.19346
1.19346
1.20842
1.20842
1.22311
1.22311
1.23752
1.23752
1.25168
1.25168
1.26557
1.26557
1.27921
1.27921
1.2926
1.2926
1.30575
1.30575
1.31865
1.31865
1.33132
1.33132
1.34375
1.34375
1.35596
1.35596
1.36794
1.36794
1.37971
1.37971
1.39125
1.39125
1.40259
1.40259
1.41372
1.41372
1.42465
1.42465
1.43537
1.43537
1.4459
1.4459
1.45623
1.45623
1.46638
1.46638
1.47634
1.47634
1.48612
1.48612
1.49572
1.49572
1.50514
1.50514
1.51439
1.51439
1.52347
1.52347
1.53238
1.53238
1.54113
1.54113
1.54972
1.54972
1.55816
1.55816
1.56643
1.56643
1.57456
1.57456
1.58254
1.58254
1.59037
1.59037
1.59806
1.59806
1.60561
1.60561
1.61301
1.61301
1.62029
1.62029
1.62743
1.62743
1.63444
1.63444
1.64132
1.64132
1.64807
1.64807
1.6547
1.6547
1.66121
1.66121
1.6676
1.6676
1.67387
1.67387
1.68003
1.68003
1.68608
1.68608
1.69201
1.69201
1.69784
1.69784
1.70356
1.70356
1.70917
1.70917
1.71468
1.71468
1.72009
1.72009
1.7254
1.7254
1.73061
1.73061
1.73573
1.73573
1.74076
1.74076
1.74569
1.74569
1.75053
1.75053
1.75528
1.75528
1.75995
1.75995
1.76453
1.76453
1.76903
1.76903
1.77344
1.77344
1.77777
1.77777
1.78203
1.78203
1.7862
1.7862
1.7903
1.7903
1.79433
1.79433
1.79828
1.79828
1.80216
1.80216
1.80596
1.80596
1.8097
1.8097
1.81337
1.81337
1.81697
1.81697
1.82051
1.82051
1.82398
1.82398
1.82739
1.82739
1.83073
1.83073
1.83401
1.83401
1.83724
1.83724
1.8404
1.8404
1.84351
1.84351
1.84656
1.84656
1.84955
1.84955
1.85249
1.85249
1.85537
1.85537
1.85821
1.85821
1.86099
1.86099
1.86371
1.86371
1.86639
1.86639
1.86902
1.86902
1.87161
1.87161
1.87414
1.87414
1.87663
1.87663
1.87907
1.87907
1.88147
1.88147
1.88382
1.88382
1.88613
1.88613
1.8884
1.8884
1.89063
1.89063
1.89281
1.89281
1.89496
1.89496
1.89707
1.89707
1.89913
1.89913
1.90116
1.90116
1.90316
1.90316
1.90511
1.90511
1.90703
1.90703
1.90892
1.90892
1.91077
1.91077
1.91259
1.91259
1.91437
1.91437
1.91612
1.91612
1.91784
1.91784
1.91953
1.91953
1.92118
1.92118
1.92281
1.92281
1.9244
1.9244
1.92597
1.92597
1.92751
1.92751
1.92902
1.92902
1.9305
1.9305
1.93196
1.93196
1.93339
1.93339
1.93479
1.93479
1.93616
1.93616
1.93752
1.93752
1.93884
1.93884
1.94015
1.94015
1.94142
1.94142
1.94268
1.94268
1.94391
1.94391
1.94512
1.94512
1.94631
1.94631
1.94747
1.94747
1.94862
1.94862
1.94974
1.94974
1.95084
1.95084
1.95193
1.95193
1.95299
1.95299
1.95403
1.95403
1.95506
1.95506
1.95606
1.95606
1.95705
1.95705
1.95802
1.95802
1.95897
1.95897
1.9599
1.9599
1.96082
1.96082
1.96172
1.96172
1.9626
1.9626
1.96347
1.96347
1.96432
1.96432
1.96515
1.96515
1.96597
1.96597
1.96678
1.96678
1.96757
1.96757
1.96835
1.96835
1.96911
1.96911
1.96986
1.96986
1.97059
1.97059
1.97131
1.97131
1.97202
1.97202
1.97271
1.97271
1.97339
1.97339
1.97406
1.97406
1.97472
1.97472
1.97536
1.97536
1.976
1.976
1.97662
1.97662
1.97723
1.97723
1.97783
1.97783
1.97842
1.97842
1.97899
1.97899
1.97956
1.97956
1.98012
1.98012
1.98066
1.98066
1.9812
1.9812
1.98172
1.98172
1.98224
1.98224
1.98275
1.98275
1.98325
1.98325
1.98373
1.98373
1.98421
1.98421
1.98469
1.98469
1.98515
1.98515
1.9856
1.9856
1.98605
1.98605
1.98648
1.98648
1.98691
1.98691
1.98734
1.98734
1.98775
1.98775
1.98816
1.98816
1.98855
1.98855
1.98895
1.98895
1.98933
1.98933
1.98971
1.98971
1.99008
1.99008
1.99044
1.99044
1.9908
1.9908
1.99115
1.99115
1.99149
1.99149
1.99183
1.99183
1.99216
1.99216
1.99249
1.99249
1.99281
1.99281
1.99312
1.99312
1.99343
1.99343
1.99373
1.99373
1.99403
1.99403
1.99432
1.99432
1.9946
1.9946
1.99488
1.99488
1.99516
1.99516
1.99543
1.99543
1.99569
1.99569
1.99595
1.99595
1.99621
1.99621
1.99646
1.99646
1.99671
1.99671
1.99695
1.99695
1.99719
1.99719
1.99742
1.99742
1.99765
1.99765
1.99787
1.99787
1.9981
1.9981
1.99831
1.99831
1.99852
1.99852
1.99873
1.99873
1.99894
1.99894
1.99914
1.99914
1.99934
1.99934
1.99953
1.99953
1.99972
1.99972
1.99991
1.99991
1.00925
1.00925
1.02759
1.02759
1.04559
1.04559
1.06326
1.06326
1.08061
1.08061
1.09764
1.09764
1.11436
1.11436
1.13077
1.13077
1.14688
1.14688
1.16269
1.16269
1.17822
1.17822
1.19346
1.19346
1.20842
1.20842
1.22311
1.22311
1.23752
1.23752
1.25168
1.25168
1.26557
1.26557
1.27921
1.27921
1.2926
1.2926
1.30575
1.30575
1.31865
1.31865
1.33132
1.33132
1.34375
1.34375
1.35596
1.35596
1.36794
1.36794
1.37971
1.37971
1.39125
1.39125
1.40259
1.40259
1.41372
1.41372
1.42465
1.42465
1.43537
1.43537
1.4459
1.4459
1.45623
1.45623
1.46638
1.46638
1.47634
1.47634
1.48612
1.48612
1.49572
1.49572
1.50514
1.50514
1.51439
1.51439
1.52347
1.52347
1.53238
1.53238
1.54113
1.54113
1.54972
1.54972
1.55816
1.55816
1.56643
1.56643
1.57456
1.57456
1.58254
1.58254
1.59037
1.59037
1.59806
1.59806
1.60561
1.60561
1.61301
1.61301
1.62029
1.62029
1.62743
1.62743
1.63444
1.63444
1.64132
1.64132
1.64807
1.64807
1.6547
1.6547
1.66121
1.66121
1.6676
1.6676
1.67387
1.67387
1.68003
1.68003
1.68608
1.68608
1.69201
1.69201
1.69784
1.69784
1.70356
1.70356
1.70917
1.70917
1.71468
1.71468
1.72009
1.72009
1.7254
1.7254
1.73061
1.73061
1.73573
1.73573
1.74076
1.74076
1.74569
1.74569
1.75053
1.75053
1.75528
1.75528
1.75995
1.75995
1.76453
1.76453
1.76903
1.76903
1.77344
1.77344
1.77777
1.77777
1.78203
1.78203
1.7862
1.7862
1.7903
1.7903
1.79433
1.79433
1.79828
1.79828
1.80216
1.80216
1.80596
1.80596
1.8097
1.8097
1.81337
1.81337
1.81697
1.81697
1.82051
1.82051
1.82398
1.82398
1.82739
1.82739
1.83073
1.83073
1.83401
1.83401
1.83724
1.83724
1.8404
1.8404
1.84351
1.84351
1.84656
1.84656
1.84955
1.84955
1.85249
1.85249
1.85537
1.85537
1.85821
1.85821
1.86099
1.86099
1.86371
1.86371
1.86639
1.86639
1.86902
1.86902
1.87161
1.87161
1.87414
1.87414
1.87663
1.87663
1.87907
1.87907
1.88147
1.88147
1.88382
1.88382
1.88613
1.88613
1.8884
1.8884
1.89063
1.89063
1.89281
1.89281
1.89496
1.89496
1.89707
1.89707
1.89913
1.89913
1.90116
1.90116
1.90316
1.90316
1.90511
1.90511
1.90703
1.90703
1.90892
1.90892
1.91077
1.91077
1.91259
1.91259
1.91437
1.91437
1.91612
1.91612
1.91784
1.91784
1.91953
1.91953
1.92118
1.92118
1.92281
1.92281
1.9244
1.9244
1.92597
1.92597
1.92751
1.92751
1.92902
1.92902
1.9305
1.9305
1.93196
1.93196
1.93339
1.93339
1.93479
1.93479
1.93616
1.93616
1.93752
1.93752
1.93884
1.93884
1.94015
1.94015
1.94142
1.94142
1.94268
1.94268
1.94391
1.94391
1.94512
1.94512
1.94631
1.94631
1.94747
1.94747
1.94862
1.94862
1.94974
1.94974
1.95084
1.95084
1.95193
1.95193
1.95299
1.95299
1.95403
1.95403
1.95506
1.95506
1.95606
1.95606
1.95705
1.95705
1.95802
1.95802
1.95897
1.95897
1.9599
1.9599
1.96082
1.96082
1.96172
1.96172
1.9626
1.9626
1.96347
1.96347
1.96432
1.96432
1.96515
1.96515
1.96597
1.96597
1.96678
1.96678
1.96757
1.96757
1.96835
1.96835
1.96911
1.96911
1.96986
1.96986
1.97059
1.97059
1.97131
1.97131
1.97202
1.97202
1.97271
1.97271
1.97339
1.97339
1.97406
1.97406
1.97472
1.97472
1.97536
1.97536
1.976
1.976
1.97662
1.97662
1.97723
1.97723
1.97783
1.97783
1.97842
1.97842
1.97899
1.97899
1.97956
1.97956
1.98012
1.98012
1.98066
1.98066
1.9812
1.9812
1.98172
1.98172
1.98224
1.98224
1.98275
1.98275
1.98325
1.98325
1.98373
1.98373
1.98421
1.98421
1.98469
1.98469
1.98515
1.98515
1.9856
1.9856
1.98605
1.98605
1.98648
1.98648
1.98691
1.98691
1.98734
1.98734
1.98775
1.98775
1.98816
1.98816
1.98855
1.98855
1.98895
1.98895
1.98933
1.98933
1.98971
1.98971
1.99008
1.99008
1.99044
1.99044
1.9908
1.9908
1.99115
1.99115
1.99149
1.99149
1.99183
1.99183
1.99216
1.99216
1.99249
1.99249
1.99281
1.99281
1.99312
1.99312
1.99343
1.99343
1.99373
1.99373
1.99403
1.99403
1.99432
1.99432
1.9946
1.9946
1.99488
1.99488
1.99516
1.99516
1.99543
1.99543
1.99569
1.99569
1.99595
1.99595
1.99621
1.99621
1.99646
1.99646
1.99671
1.99671
1.99695
1.99695
1.99719
1.99719
1.99742
1.99742
1.99765
1.99765
1.99787
1.99787
1.9981
1.9981
1.99831
1.99831
1.99852
1.99852
1.99873
1.99873
1.99894
1.99894
1.99914
1.99914
1.99934
1.99934
1.99953
1.99953
1.99972
1.99972
1.99991
1.99991
)
;

boundaryField
{
    walls
    {
        type            calculated;
        value           nonuniform List<scalar> 8(0 0 0 0 2 2 2 2);
    }
    inlet
    {
        type            cyclic;
    }
    outlet
    {
        type            cyclic;
    }
    sides
    {
        type            empty;
    }
}


// ************************************************************************* //
