/*--------------------------------*- C++ -*----------------------------------*\
| =========                 |                                                 |
| \\      /  F ield         | OpenFOAM: The Open Source CFD Toolbox           |
|  \\    /   O peration     | Version:  2106                                  |
|   \\  /    A nd           | Website:  www.openfoam.com                      |
|    \\/     M anipulation  |                                                 |
\*---------------------------------------------------------------------------*/
FoamFile
{
    version     2.0;
    format      ascii;
    arch        "LSB;label=32;scalar=64";
    class       volVectorField;
    location    "10050";
    object      grad(T);
}
// * * * * * * * * * * * * * * * * * * * * * * * * * * * * * * * * * * * * * //

dimensions      [0 -1 0 1 0 0 0];

internalField   nonuniform List<vector> 
2000
(
(1.14425e-16 455.644 0.843231)
(-1.14425e-16 455.644 0.843231)
(4.49311e-16 455.643 2.54543)
(-4.49311e-16 455.643 2.54543)
(-1.0363e-16 455.642 3.53267)
(0 455.642 3.53267)
(-3.39609e-16 455.64 3.59859)
(1.35844e-15 455.64 3.59859)
(0 455.637 3.66574)
(-1.70024e-15 455.637 3.66574)
(0 455.634 3.73413)
(-3.29946e-15 455.634 3.73413)
(0 455.628 3.80378)
(4.29722e-15 455.628 3.80378)
(0 455.62 3.87471)
(1.06272e-14 455.62 3.87471)
(-1.58725e-15 455.608 3.94691)
(0 455.608 3.94691)
(0 455.59 4.0204)
(0 455.59 4.0204)
(3.04332e-15 455.563 4.09515)
(0 455.563 4.09515)
(8.36824e-15 455.523 4.17115)
(3.5974e-15 455.523 4.17115)
(0 455.463 4.24835)
(0 455.463 4.24835)
(-5.83483e-15 455.377 4.32669)
(0 455.377 4.32669)
(-8.89759e-15 455.254 4.40605)
(0 455.254 4.40605)
(9.0886e-15 455.081 4.48631)
(-8.60923e-15 455.081 4.48631)
(0 454.842 4.56728)
(0 454.842 4.56728)
(8.29049e-15 454.517 4.64872)
(1.6581e-14 454.517 4.64872)
(-4.45649e-15 454.082 4.73032)
(-5.24954e-15 454.082 4.73032)
(4.77343e-15 453.508 4.81171)
(1.90937e-14 453.508 4.81171)
(-5.09611e-15 452.761 4.89242)
(4.07689e-14 452.761 4.89242)
(0 451.803 4.9719)
(2.16982e-14 451.803 4.9719)
(0 450.589 5.04952)
(3.27855e-14 450.589 5.04952)
(0 449.071 5.12455)
(1.48233e-14 449.071 5.12455)
(-6.44439e-15 447.199 5.19618)
(0 447.199 5.19618)
(-9.22415e-15 444.918 5.26354)
(3.64066e-14 444.918 5.26354)
(-7.15221e-15 442.176 5.32571)
(0 442.176 5.32571)
(-7.51398e-15 438.922 5.38175)
(0 438.922 5.38175)
(0 435.109 5.43075)
(0 435.109 5.43075)
(-2.53845e-14 430.698 5.47187)
(-3.30069e-14 430.698 5.47187)
(8.62692e-15 425.662 5.50433)
(3.45077e-14 425.662 5.50433)
(0 419.985 5.52753)
(-8.25531e-15 419.985 5.52753)
(-9.38732e-15 413.664 5.54103)
(0 413.664 5.54103)
(-9.77131e-15 406.712 5.54457)
(0 406.712 5.54457)
(0 399.157 5.53811)
(4.06278e-14 399.157 5.53811)
(0 391.041 5.52182)
(-1.53333e-14 391.041 5.52182)
(1.09302e-14 382.419 5.49605)
(1.36163e-14 382.419 5.49605)
(-1.13164e-14 373.354 5.46134)
(4.52656e-14 373.354 5.46134)
(-2.6207e-14 363.916 5.41837)
(1.45057e-14 363.916 5.41837)
(0 354.182 5.36791)
(4.83372e-14 354.182 5.36791)
(-2.49294e-14 344.227 5.31082)
(4.98588e-14 344.227 5.31082)
(1.37228e-14 334.126 5.24797)
(0 334.126 5.24797)
(0 323.949 5.18028)
(0 323.949 5.18028)
(-1.35849e-14 313.764 5.1086)
(-8.07884e-14 313.764 5.1086)
(2.69319e-14 303.629 5.03376)
(4.28168e-14 303.629 5.03376)
(1.43097e-14 293.598 4.95654)
(-5.7239e-14 293.598 4.95654)
(-2.15392e-15 283.714 4.87763)
(5.86585e-14 283.714 4.87763)
(0 274.017 4.79768)
(1.20113e-13 274.017 4.79768)
(1.53582e-14 264.536 4.71723)
(6.1433e-14 264.536 4.71723)
(-1.56967e-14 255.298 4.63677)
(-8.64578e-14 255.298 4.63677)
(2.32372e-14 246.319 4.55672)
(0 246.319 4.55672)
(-1.63568e-14 237.614 4.47742)
(0 237.614 4.47742)
(0 229.192 4.39916)
(0 229.192 4.39916)
(0 221.058 4.32219)
(-6.7977e-14 221.058 4.32219)
(-4.27551e-15 213.213 4.24669)
(0 213.213 4.24669)
(-1.76096e-14 205.657 4.17282)
(0 205.657 4.17282)
(-3.58182e-14 198.387 4.10067)
(7.16365e-14 198.387 4.10067)
(-1.82034e-14 191.398 4.03035)
(0 191.398 4.03035)
(-1.69439e-14 184.684 3.9619)
(-9.40116e-14 184.684 3.9619)
(1.87767e-14 178.238 3.89537)
(-7.51069e-14 178.238 3.89537)
(-1.93135e-14 172.051 3.83075)
(0 172.051 3.83075)
(-5.76206e-14 166.115 3.76807)
(1.54644e-13 166.115 3.76807)
(-1.96004e-14 160.421 3.70729)
(7.84016e-14 160.421 3.70729)
(1.82711e-14 154.961 3.64842)
(0 154.961 3.64842)
(-3.80632e-14 149.724 3.5914)
(8.05075e-14 149.724 3.5914)
(1.76076e-14 144.703 3.53622)
(-1.76076e-14 144.703 3.53622)
(-3.35155e-15 139.887 3.48282)
(-1.7285e-14 139.887 3.48282)
(0 135.268 3.43116)
(0 135.268 3.43116)
(-3.33146e-14 130.837 3.3812)
(1.17836e-13 130.837 3.3812)
(0 126.587 3.33289)
(0 126.587 3.33289)
(-2.16095e-14 122.508 3.28618)
(8.64378e-14 122.508 3.28618)
(0 118.594 3.24101)
(8.7375e-14 118.594 3.24101)
(-2.20747e-14 114.836 3.19733)
(-8.82988e-14 114.836 3.19733)
(0 111.227 3.1551)
(-8.92097e-14 111.227 3.1551)
(-4.5054e-14 107.761 3.11427)
(9.01081e-14 107.761 3.11427)
(-4.54972e-14 104.431 3.07478)
(0 104.431 3.07478)
(0 101.23 3.03659)
(9.1869e-14 101.23 3.03659)
(-2.31831e-14 98.1535 2.99965)
(-1.20939e-13 98.1535 2.99965)
(2.33962e-14 95.1947 2.96391)
(0 95.1947 2.96391)
(2.36066e-14 92.3485 2.92934)
(-9.44266e-14 92.3485 2.92934)
(-4.76291e-14 89.6098 2.89589)
(0 89.6098 2.89589)
(0 86.9735 2.86352)
(0 86.9735 2.86352)
(2.4223e-14 84.4352 2.83218)
(-2.19499e-13 84.4352 2.83218)
(2.44238e-14 81.9903 2.80184)
(0 81.9903 2.80184)
(-2.47811e-14 79.6347 2.77247)
(1.2327e-13 79.6347 2.77247)
(2.48186e-14 77.3644 2.74402)
(9.92743e-14 77.3644 2.74402)
(-2.61444e-14 75.1757 2.71646)
(0 75.1757 2.71646)
(-2.69664e-14 73.0648 2.68977)
(1.0082e-13 73.0648 2.68977)
(-2.06328e-14 71.0285 2.6639)
(2.4919e-13 71.0285 2.6639)
(-2.55836e-14 69.0634 2.63883)
(0 69.0634 2.63883)
(-5.15401e-14 67.1665 2.61453)
(1.0308e-13 67.1665 2.61453)
(-2.59547e-14 65.3349 2.59096)
(1.03819e-13 65.3349 2.59096)
(-4.27458e-14 63.5658 2.56812)
(-2.13729e-14 63.5658 2.56812)
(2.6319e-14 61.8565 2.54596)
(1.05276e-13 61.8565 2.54596)
(2.64986e-14 60.2046 2.52446)
(1.05994e-13 60.2046 2.52446)
(-2.66767e-14 58.6077 2.5036)
(1.06707e-13 58.6077 2.5036)
(2.68532e-14 57.0634 2.48337)
(0 57.0634 2.48337)
(-2.70282e-14 55.5697 2.46372)
(6.91428e-14 55.5697 2.46372)
(2.72018e-14 54.1245 2.44465)
(0 54.1245 2.44465)
(-2.7374e-14 52.7258 2.42614)
(7.19411e-14 52.7258 2.42614)
(2.75449e-14 51.3718 2.40816)
(1.1018e-13 51.3718 2.40816)
(0 50.0607 2.3907)
(7.46663e-14 50.0607 2.3907)
(3.55281e-14 48.7908 2.37374)
(-1.47059e-13 48.7908 2.37374)
(3.48771e-14 47.5606 2.35726)
(7.73215e-14 47.5606 2.35726)
(-6.24534e-14 46.3683 2.34125)
(3.4238e-14 46.3683 2.34125)
(-2.83801e-14 45.2128 2.32569)
(1.1352e-13 45.2128 2.32569)
(0 44.0924 2.31056)
(3.29947e-14 44.0924 2.31056)
(0 43.0059 2.29586)
(-3.23901e-14 43.0059 2.29586)
(2.88672e-14 41.952 2.28156)
(1.15469e-13 41.952 2.28156)
(-2.18641e-15 40.9295 2.26766)
(1.1611e-13 40.9295 2.26766)
(0 39.9373 2.25414)
(1.16747e-13 39.9373 2.25414)
(-5.86898e-14 38.9742 2.24099)
(1.1738e-13 38.9742 2.24099)
(2.95022e-14 38.0391 2.2282)
(1.18009e-13 38.0391 2.2282)
(5.79761e-14 37.1312 2.21575)
(-1.7661e-13 37.1312 2.21575)
(0 36.2493 2.20364)
(0 36.2493 2.20364)
(-5.9937e-14 35.3926 2.19185)
(0 35.3926 2.19185)
(-3.01222e-14 34.5601 2.18037)
(-2.74235e-14 34.5601 2.18037)
(-2.69209e-14 33.7511 2.16921)
(-1.211e-13 33.7511 2.16921)
(1.13709e-13 32.9647 2.15833)
(-5.28553e-14 32.9647 2.15833)
(3.52132e-14 32.2001 2.14774)
(9.63698e-14 32.2001 2.14774)
(-3.07287e-14 31.4566 2.13743)
(1.22915e-13 31.4566 2.13743)
(6.17569e-14 30.7335 2.12739)
(-2.50013e-14 30.7335 2.12739)
(3.10274e-14 30.03 2.11761)
(1.2411e-13 30.03 2.11761)
(-3.11757e-14 29.3456 2.10807)
(-4.81867e-14 29.3456 2.10807)
(-4.73037e-14 28.6796 2.09879)
(2.9789e-13 28.6796 2.09879)
(-3.14701e-14 28.0313 2.08974)
(0 28.0313 2.08974)
(0 27.4002 2.08092)
(2.52931e-13 27.4002 2.08092)
(-3.1762e-14 26.7858 2.07232)
(0 26.7858 2.07232)
(0 26.1874 2.06394)
(1.27628e-13 26.1874 2.06394)
(3.20513e-14 25.6047 2.05577)
(2.5641e-13 25.6047 2.05577)
(-3.2195e-14 25.037 2.0478)
(1.2878e-13 25.037 2.0478)
(7.38977e-14 24.4839 2.04003)
(8.77932e-14 24.4839 2.04003)
(-2.41636e-14 23.9449 2.03245)
(8.91252e-14 23.9449 2.03245)
(-4.00503e-14 23.4197 2.02505)
(3.01033e-13 23.4197 2.02505)
(0 22.9077 2.01783)
(9.1741e-14 22.9077 2.01783)
(5.69061e-15 22.4086 2.01078)
(-3.8596e-14 22.4086 2.01078)
(3.30458e-14 21.9219 2.00391)
(0 21.9219 2.00391)
(3.71944e-14 21.4473 1.99719)
(-3.71944e-14 21.4473 1.99719)
(-3.33253e-14 20.9845 1.99063)
(0 20.9845 1.99063)
(2.37942e-15 20.533 1.98423)
(-1.69701e-13 20.533 1.98423)
(-6.87898e-14 20.0925 1.97797)
(2.68823e-13 20.0925 1.97797)
(-3.45421e-14 19.6627 1.97185)
(1.69506e-13 19.6627 1.97185)
(-3.38786e-14 19.2432 1.96587)
(1.01605e-13 19.2432 1.96587)
(0 18.8338 1.96002)
(1.36063e-13 18.8338 1.96002)
(-6.68305e-14 18.4342 1.9543)
(1.36611e-13 18.4342 1.9543)
(0 18.0441 1.9487)
(1.37156e-13 18.0441 1.9487)
(-3.4425e-14 17.6632 1.94323)
(0 17.6632 1.94323)
(-3.45606e-14 17.2912 1.93786)
(0 17.2912 1.93786)
(-6.50434e-14 16.9279 1.93261)
(0 16.9279 1.93261)
(5.03913e-15 16.573 1.92746)
(-1.39322e-13 16.573 1.92746)
(0 16.2264 1.92241)
(0 16.2264 1.92241)
(0 15.8877 1.91746)
(0 15.8877 1.91746)
(9.16e-14 15.5567 1.9126)
(0 15.5567 1.9126)
(-9.07005e-14 15.2332 1.90783)
(1.41465e-13 15.2332 1.90783)
(-8.98195e-14 14.917 1.90315)
(1.41997e-13 14.917 1.90315)
(-3.5632e-14 14.608 1.89854)
(0 14.608 1.89854)
(0 14.3058 1.89401)
(1.43057e-13 14.3058 1.89401)
(-3.58964e-14 14.0104 1.88955)
(-1.94974e-13 14.0104 1.88955)
(3.60281e-14 13.7215 1.88516)
(1.44112e-13 13.7215 1.88516)
(3.61595e-14 13.4389 1.88083)
(1.44638e-13 13.4389 1.88083)
(3.62906e-14 13.1625 1.87655)
(0 13.1625 1.87655)
(-4.7724e-14 12.8921 1.87234)
(1.9341e-13 12.8921 1.87234)
(-3.65519e-14 12.6276 1.86817)
(0 12.6276 1.86817)
(0 12.3687 1.86405)
(1.46728e-13 12.3687 1.86405)
(-3.6812e-14 12.1154 1.85997)
(0 12.1154 1.85997)
(0 11.8674 1.85592)
(0 11.8674 1.85592)
(0 11.6247 1.85191)
(1.48284e-13 11.6247 1.85191)
(0 11.387 1.84793)
(1.488e-13 11.387 1.84793)
(-7.92575e-14 11.1544 1.84397)
(4.19287e-14 11.1544 1.84397)
(-3.74573e-14 10.9265 1.84002)
(0 10.9265 1.84002)
(-3.75855e-14 10.7034 1.83609)
(0 10.7034 1.83609)
(3.57612e-14 10.4848 1.83217)
(1.11188e-13 10.4848 1.83217)
(-7.45846e-14 10.2707 1.82825)
(1.51365e-13 10.2707 1.82825)
(-3.82253e-14 10.0609 1.82433)
(1.51874e-13 10.0609 1.82433)
(-5.70843e-16 9.8553 1.82041)
(-3.75249e-14 9.8553 1.82041)
(-1.11897e-13 9.65382 1.81647)
(3.68372e-14 9.65382 1.81647)
(0 9.45633 1.81251)
(0 9.45633 1.81251)
(0 9.26273 1.80852)
(1.53902e-13 9.26273 1.80852)
(-3.86015e-14 9.07291 1.80451)
(-1.54406e-13 9.07291 1.80451)
(3.42104e-14 8.88678 1.80046)
(-3.42104e-14 8.88678 1.80046)
(-1.0602e-13 8.70423 1.79637)
(-3.10822e-13 8.70423 1.79637)
(-7.19461e-14 8.52516 1.79223)
(3.29681e-14 8.52516 1.79223)
(0 8.34949 1.78803)
(0 8.34949 1.78803)
(0 8.17713 1.78377)
(1.2514e-13 8.17713 1.78377)
(-7.8704e-14 8.00797 1.77943)
(3.14816e-13 8.00797 1.77943)
(0 7.84194 1.77502)
(1.57904e-13 7.84194 1.77502)
(2.05124e-14 7.67895 1.77053)
(-6.01123e-14 7.67895 1.77053)
(5.90108e-14 7.51892 1.76594)
(-1.58893e-13 7.51892 1.76594)
(-3.98466e-14 7.36176 1.76124)
(0 7.36176 1.76124)
(0 7.2074 1.75644)
(1.59878e-13 7.2074 1.75644)
(-5.58258e-14 7.05575 1.75151)
(2.16194e-13 7.05575 1.75151)
(4.02142e-14 6.90674 1.74645)
(3.21714e-13 6.90674 1.74645)
(4.03361e-14 6.76029 1.74125)
(1.61345e-13 6.76029 1.74125)
(0 6.61633 1.7359)
(1.61831e-13 6.61633 1.7359)
(4.05789e-14 6.47479 1.73038)
(1.62316e-13 6.47479 1.73038)
(-9.15947e-14 6.33559 1.72469)
(3.25598e-13 6.33559 1.72469)
(-4.08203e-14 6.19866 1.7188)
(-1.63281e-13 6.19866 1.7188)
(0 6.06393 1.71272)
(4.90467e-14 6.06393 1.71272)
(-4.10601e-14 5.93134 1.70643)
(-4.8148e-14 5.93134 1.70643)
(-3.50932e-14 5.80082 1.6999)
(-4.72657e-14 5.80082 1.6999)
(-4.12983e-14 5.67229 1.69313)
(1.65193e-13 5.67229 1.69313)
(0 5.54569 1.68609)
(0 5.54569 1.68609)
(-4.15348e-14 5.42096 1.67878)
(0 5.42096 1.67878)
(0 5.29803 1.67117)
(-4.38952e-14 5.29803 1.67117)
(-1.32148e-15 5.17683 1.66324)
(3.77246e-13 5.17683 1.66324)
(8.37719e-14 5.05729 1.65498)
(-1.67544e-13 5.05729 1.65498)
(8.40039e-14 4.93936 1.64636)
(0 4.93936 1.64636)
(8.42349e-14 4.82296 1.63735)
(3.3694e-13 4.82296 1.63735)
(4.22324e-14 4.70804 1.62794)
(1.28911e-13 4.70804 1.62794)
(4.23467e-14 4.59451 1.61809)
(1.69387e-13 4.59451 1.61809)
(-4.24604e-14 4.48233 1.60779)
(1.69842e-13 4.48233 1.60779)
(-4.71525e-15 4.37141 1.59699)
(-3.78582e-14 4.37141 1.59699)
(0 4.26169 1.58567)
(1.70743e-13 4.26169 1.58567)
(-8.55951e-14 4.1531 1.57379)
(1.7119e-13 4.1531 1.57379)
(-4.29085e-14 4.04558 1.56131)
(0 4.04558 1.56131)
(3.51586e-14 3.93903 1.5482)
(3.44149e-13 3.93903 1.5482)
(0 3.8334 1.5344)
(0 3.8334 1.5344)
(4.32365e-14 3.72861 1.51989)
(-2.4071e-13 3.72861 1.51989)
(4.3344e-14 3.62457 1.50459)
(0 3.62457 1.50459)
(-2.15984e-14 3.5212 1.48847)
(0 3.5212 1.48847)
(8.71127e-14 3.41842 1.47146)
(-6.41064e-14 3.41842 1.47146)
(0 3.31613 1.45349)
(1.74644e-13 3.31613 1.45349)
(0 3.21425 1.43451)
(1.75058e-13 3.21425 1.43451)
(4.38667e-14 3.11267 1.41442)
(1.75467e-13 3.11267 1.41442)
(0 3.0113 1.39315)
(-1.75871e-13 3.0113 1.39315)
(-4.40676e-14 2.91001 1.37061)
(0 2.91001 1.37061)
(-4.41661e-14 2.80869 1.34671)
(1.19291e-13 2.80869 1.34671)
(-5.63218e-14 2.70722 1.32132)
(2.33374e-13 2.70722 1.32132)
(1.09312e-14 2.60547 1.29434)
(-1.77434e-13 2.60547 1.29434)
(4.44523e-14 2.50329 1.26563)
(3.55618e-13 2.50329 1.26563)
(5.32819e-14 2.40053 1.23505)
(1.24895e-13 2.40053 1.23505)
(-4.46345e-14 2.29703 1.20245)
(0 2.29703 1.20245)
(4.47228e-14 2.19261 1.16765)
(1.78891e-13 2.19261 1.16765)
(1.06409e-13 2.08709 1.13047)
(1.79236e-13 2.08709 1.13047)
(-4.4893e-14 1.98027 1.09069)
(1.79572e-13 1.98027 1.09069)
(0 1.87193 1.04811)
(0 1.87193 1.04811)
(4.50536e-14 1.76186 1.00247)
(4.76856e-14 1.76186 1.00247)
(-9.02599e-14 1.64983 0.953512)
(1.8052e-13 1.64983 0.953512)
(0 1.53559 0.900958)
(4.59539e-14 1.53559 0.900958)
(0 1.4189 0.844512)
(4.51119e-14 1.4189 0.844512)
(1.05559e-15 1.29952 0.783863)
(2.25648e-13 1.29952 0.783863)
(-4.54042e-14 1.1772 0.718694)
(1.81617e-13 1.1772 0.718694)
(-8.81408e-14 1.05174 0.648681)
(0 1.05174 0.648681)
(8.379e-14 0.922928 0.57351)
(-8.379e-14 0.922928 0.57351)
(0 0.790624 0.492882)
(-1.82281e-13 0.790624 0.492882)
(-4.56164e-14 0.654726 0.406526)
(0 0.654726 0.406526)
(-6.02363e-15 0.515201 0.314211)
(1.8263e-13 0.515201 0.314211)
(0 0.372091 0.215757)
(1.82772e-13 0.372091 0.215757)
(3.06667e-14 0.225521 0.111042)
(-7.63891e-14 0.225521 0.111042)
(-4.57455e-14 7.79396e-07 2.88476e-07)
(3.66078e-13 5.0509e-07 1.86947e-07)
(1.14425e-16 455.644 -0.843231)
(-1.14425e-16 455.644 -0.843231)
(0 455.643 -2.54543)
(-4.49311e-16 455.643 -2.54543)
(-2.07261e-16 455.642 -3.53267)
(0 455.642 -3.53267)
(3.39609e-16 455.64 -3.59859)
(-8.6599e-16 455.64 -3.59859)
(-1.15999e-15 455.637 -3.66574)
(0 455.637 -3.66574)
(8.24864e-16 455.634 -3.73413)
(-1.66909e-15 455.634 -3.73413)
(-3.277e-15 455.628 -3.80378)
(0 455.628 -3.80378)
(2.65681e-15 455.62 -3.87471)
(0 455.62 -3.87471)
(-1.58725e-15 455.608 -3.94691)
(6.34898e-15 455.608 -3.94691)
(4.95105e-15 455.59 -4.0204)
(-1.05038e-14 455.59 -4.0204)
(1.19571e-15 455.563 -4.09515)
(-8.47806e-15 455.563 -4.09515)
(2.39313e-15 455.523 -4.17115)
(0 455.523 -4.17115)
(-2.67184e-15 455.463 -4.24835)
(-1.06874e-14 455.463 -4.24835)
(2.87907e-15 455.377 -4.32669)
(-1.47021e-14 455.377 -4.32669)
(3.24497e-15 455.254 -4.40605)
(-1.29799e-14 455.254 -4.40605)
(-5.54904e-15 455.081 -4.48631)
(0 455.081 -4.48631)
(3.83963e-15 454.842 -4.56728)
(-2.08059e-14 454.842 -4.56728)
(4.14525e-15 454.517 -4.64872)
(1.6581e-14 454.517 -4.64872)
(4.45649e-15 454.082 -4.73032)
(0 454.082 -4.73032)
(1.47002e-14 453.508 -4.81171)
(-5.15334e-15 453.508 -4.81171)
(1.52139e-14 452.761 -4.89242)
(1.02666e-14 452.761 -4.89242)
(1.03908e-14 451.803 -4.9719)
(1.6732e-14 451.803 -4.9719)
(-5.75878e-15 450.589 -5.04952)
(0 450.589 -5.04952)
(2.17692e-14 449.071 -5.12455)
(-9.57173e-15 449.071 -5.12455)
(-2.95194e-15 447.199 -5.19618)
(9.39633e-15 447.199 -5.19618)
(0 444.918 -5.26354)
(0 444.918 -5.26354)
(9.05512e-15 442.176 -5.32571)
(-9.05512e-15 442.176 -5.32571)
(1.5028e-14 438.922 -5.38175)
(0 438.922 -5.38175)
(7.88061e-15 435.109 -5.43075)
(3.15224e-14 435.109 -5.43075)
(1.65035e-14 430.698 -5.47187)
(0 430.698 -5.47187)
(1.70363e-14 425.662 -5.50433)
(-8.40941e-15 425.662 -5.50433)
(9.00564e-15 419.985 -5.52753)
(0 419.985 -5.52753)
(2.55954e-14 413.664 -5.54103)
(-3.75493e-14 413.664 -5.54103)
(1.59111e-14 406.712 -5.54457)
(-5.49963e-14 406.712 -5.54457)
(0 399.157 -5.53811)
(0 399.157 -5.53811)
(1.05435e-14 391.041 -5.52182)
(-4.21739e-14 391.041 -5.52182)
(6.80813e-15 382.419 -5.49605)
(0 382.419 -5.49605)
(-1.13164e-14 373.354 -5.46134)
(-4.52656e-14 373.354 -5.46134)
(-1.17013e-14 363.916 -5.41837)
(-1.08116e-13 363.916 -5.41837)
(-1.20843e-14 354.182 -5.36791)
(-1.42399e-14 354.182 -5.36791)
(-1.24647e-14 344.227 -5.31082)
(0 344.227 -5.31082)
(8.80858e-16 334.126 -5.24797)
(-1.16458e-13 334.126 -5.24797)
(2.64309e-14 323.949 -5.18028)
(0 323.949 -5.18028)
(1.35849e-14 313.764 -5.1086)
(-6.75639e-14 313.764 -5.1086)
(2.78995e-14 303.629 -5.03376)
(4.28168e-14 303.629 -5.03376)
(5.25424e-14 293.598 -4.95654)
(-6.99832e-14 293.598 -4.95654)
(-2.93292e-14 283.714 -4.87763)
(-5.86585e-14 283.714 -4.87763)
(3.00283e-14 274.017 -4.79768)
(6.00567e-14 274.017 -4.79768)
(0 264.536 -4.71723)
(0 264.536 -4.71723)
(7.97419e-15 255.298 -4.63677)
(-1.49245e-13 255.298 -4.63677)
(1.60296e-14 246.319 -4.55672)
(-6.41183e-14 246.319 -4.55672)
(-6.45457e-15 237.614 -4.47742)
(2.28113e-14 237.614 -4.47742)
(0 229.192 -4.39916)
(-1.33426e-13 229.192 -4.39916)
(1.69942e-14 221.058 -4.32219)
(0 221.058 -4.32219)
(3.46093e-14 213.213 -4.24669)
(0 213.213 -4.24669)
(0 205.657 -4.17282)
(-9.16229e-14 205.657 -4.17282)
(1.79091e-14 198.387 -4.10067)
(0 198.387 -4.10067)
(1.82034e-14 191.398 -4.03035)
(-9.32291e-14 191.398 -4.03035)
(0 184.684 -3.9619)
(-7.39703e-14 184.684 -3.9619)
(0 178.238 -3.89537)
(-7.51069e-14 178.238 -3.89537)
(1.9056e-14 172.051 -3.83075)
(0 172.051 -3.83075)
(0 166.115 -3.76807)
(-1.89596e-14 166.115 -3.76807)
(3.82126e-14 160.421 -3.70729)
(0 160.421 -3.70729)
(1.98658e-14 154.961 -3.64842)
(-1.82711e-14 154.961 -3.64842)
(0 149.724 -3.5914)
(-8.05075e-14 149.724 -3.5914)
(0 144.703 -3.53622)
(0 144.703 -3.53622)
(3.79215e-14 139.887 -3.48282)
(-9.98311e-14 139.887 -3.48282)
(0 135.268 -3.43116)
(-8.35415e-14 135.268 -3.43116)
(0 130.837 -3.3812)
(0 130.837 -3.3812)
(-2.13717e-14 126.587 -3.33289)
(1.70974e-13 126.587 -3.33289)
(0 122.508 -3.28618)
(3.21048e-14 122.508 -3.28618)
(2.18438e-14 118.594 -3.24101)
(-8.7375e-14 118.594 -3.24101)
(2.20747e-14 114.836 -3.19733)
(-8.82988e-14 114.836 -3.19733)
(3.0372e-14 111.227 -3.1551)
(-1.78419e-13 111.227 -3.1551)
(-2.2527e-14 107.761 -3.11427)
(0 107.761 -3.11427)
(0 104.431 -3.07478)
(0 104.431 -3.07478)
(0 101.23 -3.03659)
(9.1869e-14 101.23 -3.03659)
(3.32294e-14 98.1535 -2.99965)
(-3.99136e-13 98.1535 -2.99965)
(4.67924e-14 95.1947 -2.96391)
(-9.35847e-14 95.1947 -2.96391)
(-2.36066e-14 92.3485 -2.92934)
(0 92.3485 -2.92934)
(2.95532e-14 89.6098 -2.89589)
(-1.48626e-13 89.6098 -2.89589)
(-4.804e-14 86.9735 -2.86352)
(-9.608e-14 86.9735 -2.86352)
(-2.4223e-14 84.4352 -2.83218)
(-1.93784e-13 84.4352 -2.83218)
(4.88475e-14 81.9903 -2.80184)
(-9.76951e-14 81.9903 -2.80184)
(2.46223e-14 79.6347 -2.77247)
(9.8489e-14 79.6347 -2.77247)
(0 77.3644 -2.74402)
(9.92743e-14 77.3644 -2.74402)
(2.50128e-14 75.1757 -2.71646)
(-1.47814e-13 75.1757 -2.71646)
(-7.38536e-14 73.0648 -2.68977)
(1.0082e-13 73.0648 -2.68977)
(4.84092e-14 71.0285 -2.6639)
(-2.3014e-14 71.0285 -2.6639)
(1.9601e-14 69.0634 -2.63883)
(0 69.0634 -2.63883)
(0 67.1665 -2.61453)
(-4.43566e-14 67.1665 -2.61453)
(-1.7589e-14 65.3349 -2.59096)
(1.47363e-13 65.3349 -2.59096)
(4.27458e-14 63.5658 -2.56812)
(-1.04551e-13 63.5658 -2.56812)
(0 61.8565 -2.54596)
(-4.19625e-14 61.8565 -2.54596)
(2.64986e-14 60.2046 -2.52446)
(1.05994e-13 60.2046 -2.52446)
(0 58.6077 -2.5036)
(-4.04387e-14 58.6077 -2.5036)
(3.96977e-14 57.0634 -2.48337)
(-2.54523e-13 57.0634 -2.48337)
(0 55.5697 -2.46372)
(0 55.5697 -2.46372)
(2.72018e-14 54.1245 -2.44465)
(-1.47063e-13 54.1245 -2.44465)
(6.49291e-14 52.7258 -2.42614)
(-3.75551e-14 52.7258 -2.42614)
(6.44118e-14 51.3718 -2.40816)
(2.20359e-13 51.3718 -2.40816)
(2.77144e-14 50.0607 -2.3907)
(0 50.0607 -2.3907)
(2.78827e-14 48.7908 -2.37374)
(-1.47059e-13 48.7908 -2.37374)
(-6.82743e-15 47.5606 -2.35726)
(1.12199e-13 47.5606 -2.35726)
(0 46.3683 -2.34125)
(0 46.3683 -2.34125)
(-2.83801e-14 45.2128 -2.32569)
(-1.1352e-13 45.2128 -2.32569)
(3.29947e-14 44.0924 -2.31056)
(-3.29947e-14 44.0924 -2.31056)
(0 43.0059 -2.29586)
(0 43.0059 -2.29586)
(0 41.952 -2.28156)
(0 41.952 -2.28156)
(9.36416e-14 40.9295 -2.26766)
(-1.47324e-13 40.9295 -2.26766)
(-3.06419e-14 39.9373 -2.25414)
(-3.06419e-14 39.9373 -2.25414)
(0 38.9742 -2.24099)
(0 38.9742 -2.24099)
(2.95022e-14 38.0391 -2.2282)
(-2.95292e-14 38.0391 -2.2282)
(-2.96585e-14 37.1312 -2.21575)
(0 37.1312 -2.21575)
(-2.98139e-14 36.2493 -2.20364)
(0 36.2493 -2.20364)
(2.03311e-15 35.3926 -2.19185)
(0 35.3926 -2.19185)
(0 34.5601 -2.18037)
(-5.48469e-14 34.5601 -2.18037)
(-3.36291e-14 33.7511 -2.16921)
(-2.422e-13 33.7511 -2.16921)
(0 32.9647 -2.15833)
(0 32.9647 -2.15833)
(5.65216e-14 32.2001 -2.14774)
(-2.59434e-14 32.2001 -2.14774)
(-2.54679e-14 31.4566 -2.13743)
(1.22915e-13 31.4566 -2.13743)
(0 30.7335 -2.12739)
(-1.48515e-13 30.7335 -2.12739)
(4.90862e-14 30.03 -2.11761)
(-1.73196e-13 30.03 -2.11761)
(-3.11757e-14 29.3456 -2.10807)
(-1.24703e-13 29.3456 -2.10807)
(4.73037e-14 28.6796 -2.09879)
(7.79893e-14 28.6796 -2.09879)
(3.14701e-14 28.0313 -2.08974)
(4.64369e-14 28.0313 -2.08974)
(6.32327e-14 27.4002 -2.08092)
(1.26465e-13 27.4002 -2.08092)
(-3.1762e-14 26.7858 -2.07232)
(1.27048e-13 26.7858 -2.07232)
(0 26.1874 -2.06394)
(0 26.1874 -2.06394)
(3.20513e-14 25.6047 -2.05577)
(0 25.6047 -2.05577)
(3.2195e-14 25.037 -2.0478)
(1.2878e-13 25.037 -2.0478)
(3.23382e-14 24.4839 -2.04003)
(1.29353e-13 24.4839 -2.04003)
(3.24808e-14 23.9449 -2.03245)
(0 23.9449 -2.03245)
(4.00503e-14 23.4197 -2.02505)
(-1.30491e-13 23.4197 -2.02505)
(7.20808e-14 22.9077 -2.01783)
(0 22.9077 -2.01783)
(5.69061e-15 22.4086 -2.01078)
(0 22.4086 -2.01078)
(0 21.9219 -2.00391)
(0 21.9219 -2.00391)
(3.31858e-14 21.4473 -1.99719)
(-3.71944e-14 21.4473 -1.99719)
(1.03163e-13 20.9845 -1.99063)
(0 20.9845 -1.99063)
(0 20.533 -1.98423)
(0 20.533 -1.98423)
(3.36029e-14 20.0925 -1.97797)
(3.0401e-13 20.0925 -1.97797)
(0 19.6627 -1.97185)
(0 19.6627 -1.97185)
(-6.77878e-14 19.2432 -1.96587)
(0 19.2432 -1.96587)
(-3.40159e-14 18.8338 -1.96002)
(0 18.8338 -1.96002)
(3.26778e-14 18.4342 -1.9543)
(0 18.4342 -1.9543)
(3.4289e-14 18.0441 -1.9487)
(0 18.0441 -1.9487)
(6.29823e-14 17.6632 -1.94323)
(0 17.6632 -1.94323)
(6.91212e-14 17.2912 -1.93786)
(-1.38242e-13 17.2912 -1.93786)
(6.93916e-14 16.9279 -1.93261)
(-1.38783e-13 16.9279 -1.93261)
(2.47524e-14 16.573 -1.92746)
(-4.17967e-13 16.573 -1.92746)
(-3.49651e-14 16.2264 -1.92241)
(0 16.2264 -1.92241)
(0 15.8877 -1.91746)
(1.40397e-13 15.8877 -1.91746)
(-5.63671e-14 15.5567 -1.9126)
(-5.63671e-14 15.5567 -1.9126)
(3.53662e-14 15.2332 -1.90783)
(0 15.2332 -1.90783)
(-3.54993e-14 14.917 -1.90315)
(-1.41997e-13 14.917 -1.90315)
(0 14.608 -1.89854)
(0 14.608 -1.89854)
(3.57643e-14 14.3058 -1.89401)
(1.43057e-13 14.3058 -1.89401)
(7.17928e-14 14.0104 -1.88955)
(-1.43586e-13 14.0104 -1.88955)
(0 13.7215 -1.88516)
(-1.44112e-13 13.7215 -1.88516)
(8.56818e-14 13.4389 -1.88083)
(-4.95223e-14 13.4389 -1.88083)
(-4.86148e-14 13.1625 -1.87655)
(-1.45162e-13 13.1625 -1.87655)
(0 12.8921 -1.87234)
(-2.91371e-13 12.8921 -1.87234)
(-4.68495e-14 12.6276 -1.86817)
(0 12.6276 -1.86817)
(7.33642e-14 12.3687 -1.86405)
(1.46728e-13 12.3687 -1.86405)
(3.6812e-14 12.1154 -1.85997)
(0 12.1154 -1.85997)
(4.43209e-14 11.8674 -1.85592)
(1.47767e-13 11.8674 -1.85592)
(3.7071e-14 11.6247 -1.85191)
(-1.48284e-13 11.6247 -1.85191)
(0 11.387 -1.84793)
(-1.91512e-13 11.387 -1.84793)
(0 11.1544 -1.84397)
(0 11.1544 -1.84397)
(3.74573e-14 10.9265 -1.84002)
(-1.49829e-13 10.9265 -1.84002)
(7.51711e-14 10.7034 -1.83609)
(-1.50342e-13 10.7034 -1.83609)
(3.77135e-14 10.4848 -1.83217)
(1.11188e-13 10.4848 -1.83217)
(3.67435e-14 10.2707 -1.82825)
(1.12426e-13 10.2707 -1.82825)
(3.79686e-14 10.0609 -1.82433)
(0 10.0609 -1.82433)
(3.6954e-14 9.8553 -1.82041)
(-3.75249e-14 9.8553 -1.82041)
(3.82226e-14 9.65382 -1.81647)
(-1.5289e-13 9.65382 -1.81647)
(3.83492e-14 9.45633 -1.81251)
(1.53397e-13 9.45633 -1.81251)
(7.69509e-14 9.26273 -1.80852)
(-3.54995e-14 9.26273 -1.80852)
(0 9.07291 -1.80451)
(1.54406e-13 9.07291 -1.80451)
(-3.87273e-14 8.88678 -1.80046)
(-1.8912e-13 8.88678 -1.80046)
(7.77056e-14 8.70423 -1.79637)
(-1.88995e-13 8.70423 -1.79637)
(-6.00991e-15 8.52516 -1.79223)
(-3.44792e-13 8.52516 -1.79223)
(7.14669e-14 8.34949 -1.78803)
(-1.88776e-13 8.34949 -1.78803)
(-6.35418e-14 8.17713 -1.78377)
(1.2514e-13 8.17713 -1.78377)
(1.63265e-14 8.00797 -1.77943)
(1.57408e-13 8.00797 -1.77943)
(1.00711e-13 7.84194 -1.77502)
(-1.57904e-13 7.84194 -1.77502)
(-2.05124e-14 7.67895 -1.77053)
(0 7.67895 -1.77053)
(0 7.51892 -1.76594)
(-2.17904e-13 7.51892 -1.76594)
(0 7.36176 -1.76124)
(-1.59386e-13 7.36176 -1.76124)
(0 7.2074 -1.75644)
(-2.16746e-13 7.2074 -1.75644)
(0 7.05575 -1.75151)
(0 7.05575 -1.75151)
(4.02142e-14 6.90674 -1.74645)
(0 6.90674 -1.74645)
(4.03361e-14 6.76029 -1.74125)
(1.61345e-13 6.76029 -1.74125)
(4.04577e-14 6.61633 -1.7359)
(-5.28127e-14 6.61633 -1.7359)
(0 6.47479 -1.73038)
(1.62316e-13 6.47479 -1.73038)
(5.08949e-14 6.33559 -1.72469)
(-5.08949e-14 6.33559 -1.72469)
(0 6.19866 -1.7188)
(-1.63281e-13 6.19866 -1.7188)
(-4.90467e-14 6.06393 -1.71272)
(0 6.06393 -1.71272)
(-4.10601e-14 5.93134 -1.70643)
(-4.8148e-14 5.93134 -1.70643)
(-4.11794e-14 5.80082 -1.6999)
(-1.64718e-13 5.80082 -1.6999)
(-4.12983e-14 5.67229 -1.69313)
(-1.65193e-13 5.67229 -1.69313)
(0 5.54569 -1.68609)
(0 5.54569 -1.68609)
(4.47146e-14 5.42096 -1.67878)
(-3.32278e-13 5.42096 -1.67878)
(0 5.29803 -1.67117)
(-2.10505e-13 5.29803 -1.67117)
(0 5.17683 -1.66324)
(0 5.17683 -1.66324)
(0 5.05729 -1.65498)
(-2.09845e-13 5.05729 -1.65498)
(-4.75897e-16 4.93936 -1.64636)
(0 4.93936 -1.64636)
(8.42349e-14 4.82296 -1.63735)
(1.27705e-13 4.82296 -1.63735)
(8.44648e-14 4.70804 -1.62794)
(0 4.70804 -1.62794)
(8.46934e-14 4.59451 -1.61809)
(-2.08672e-13 4.59451 -1.61809)
(8.10253e-14 4.48233 -1.60779)
(0 4.48233 -1.60779)
(-4.25735e-14 4.37141 -1.59699)
(-3.78582e-14 4.37141 -1.59699)
(0 4.26169 -1.58567)
(1.70743e-13 4.26169 -1.58567)
(-6.31408e-15 4.1531 -1.57379)
(1.34707e-13 4.1531 -1.57379)
(3.58149e-14 4.04558 -1.56131)
(-2.07449e-13 4.04558 -1.56131)
(0 3.93903 -1.5482)
(-2.07233e-13 3.93903 -1.5482)
(-1.12157e-13 3.8334 -1.5344)
(-1.72512e-13 3.8334 -1.5344)
(8.64729e-14 3.72861 -1.51989)
(-1.72946e-13 3.72861 -1.51989)
(4.3344e-14 3.62457 -1.50459)
(0 3.62457 -1.50459)
(-6.5303e-14 3.5212 -1.48847)
(1.73803e-13 3.5212 -1.48847)
(0 3.41842 -1.47146)
(0 3.41842 -1.47146)
(0 3.31613 -1.45349)
(-2.37575e-13 3.31613 -1.45349)
(6.17784e-14 3.21425 -1.43451)
(-6.17784e-14 3.21425 -1.43451)
(-1.67796e-14 3.11267 -1.41442)
(1.75467e-13 3.11267 -1.41442)
(1.03503e-13 3.0113 -1.39315)
(-4.11278e-13 3.0113 -1.39315)
(0 2.91001 -1.37061)
(0 2.91001 -1.37061)
(4.41661e-14 2.80869 -1.34671)
(-5.73731e-14 2.80869 -1.34671)
(4.4263e-14 2.70722 -1.32132)
(-2.33374e-13 2.70722 -1.32132)
(-9.96481e-14 2.60547 -1.29434)
(1.77434e-13 2.60547 -1.29434)
(8.89045e-14 2.50329 -1.26563)
(1.23533e-13 2.50329 -1.26563)
(1.42371e-13 2.40053 -1.23505)
(-1.06564e-13 2.40053 -1.23505)
(-7.671e-15 2.29703 -1.20245)
(-1.04611e-13 2.29703 -1.20245)
(4.47228e-14 2.19261 -1.16765)
(-5.13471e-14 2.19261 -1.16765)
(-5.59715e-15 2.08709 -1.13047)
(-1.79236e-13 2.08709 -1.13047)
(4.4893e-14 1.98027 -1.09069)
(1.79572e-13 1.98027 -1.09069)
(0 1.87193 -1.04811)
(-2.7705e-13 1.87193 -1.04811)
(4.50536e-14 1.76186 -1.00247)
(-1.80214e-13 1.76186 -1.00247)
(9.19417e-14 1.64983 -0.953512)
(0 1.64983 -0.953512)
(4.59539e-14 1.53559 -0.900958)
(1.80814e-13 1.53559 -0.900958)
(0 1.4189 -0.844512)
(-3.6219e-13 1.4189 -0.844512)
(0 1.29952 -0.783863)
(-1.81363e-13 1.29952 -0.783863)
(4.54042e-14 1.1772 -0.718694)
(-1.81617e-13 1.1772 -0.718694)
(4.54638e-14 1.05174 -0.648681)
(1.81855e-13 1.05174 -0.648681)
(1.29309e-13 0.922928 -0.57351)
(-4.47944e-13 0.922928 -0.57351)
(9.11405e-14 0.790624 -0.492882)
(-1.82281e-13 0.790624 -0.492882)
(0 0.654726 -0.406526)
(0 0.654726 -0.406526)
(-8.52912e-14 0.515201 -0.314211)
(1.03362e-13 0.515201 -0.314211)
(7.78151e-14 0.372091 -0.215757)
(-2.60587e-13 0.372091 -0.215757)
(-4.57224e-14 0.225521 -0.111042)
(1.06501e-13 0.225521 -0.111042)
(4.57455e-14 8.03104e-07 -2.97251e-07)
(2.20704e-13 4.88531e-07 -1.80819e-07)
(8.32969e-14 -7.80219e-07 2.88783e-07)
(1.82982e-13 -5.04338e-07 1.86669e-07)
(-3.81946e-14 -0.225521 0.111041)
(3.65779e-13 -0.225521 0.111041)
(-4.56929e-14 -0.37209 0.215757)
(0 -0.37209 0.215757)
(7.92676e-14 -0.5152 0.314211)
(1.03362e-13 -0.5152 0.314211)
(0 -0.654726 0.406526)
(3.64931e-13 -0.654726 0.406526)
(-4.55702e-14 -0.790624 0.492882)
(-1.82281e-13 -0.790624 0.492882)
(0 -0.922927 0.57351)
(0 -0.922927 0.57351)
(-4.54638e-14 -1.05174 0.64868)
(-1.81855e-13 -1.05174 0.64868)
(0 -1.1772 0.718693)
(0 -1.1772 0.718693)
(4.53408e-14 -1.29952 0.783863)
(0 -1.29952 0.783863)
(-4.51119e-14 -1.4189 0.844511)
(2.26207e-13 -1.4189 0.844511)
(0 -1.53559 0.900957)
(2.26768e-13 -1.53559 0.900957)
(0 -1.64983 0.953511)
(0 -1.64983 0.953511)
(-4.50536e-14 -1.76186 1.00247)
(-2.75586e-13 -1.76186 1.00247)
(1.87101e-13 -1.87193 1.04811)
(-9.71514e-14 -1.87193 1.04811)
(-4.94825e-14 -1.98026 1.09069)
(4.94825e-14 -1.98026 1.09069)
(1.9043e-13 -2.08709 1.13047)
(7.84237e-14 -2.08709 1.13047)