/*--------------------------------*- C++ -*----------------------------------*\
| =========                 |                                                 |
| \\      /  F ield         | OpenFOAM: The Open Source CFD Toolbox           |
|  \\    /   O peration     | Version:  2106                                  |
|   \\  /    A nd           | Website:  www.openfoam.com                      |
|    \\/     M anipulation  |                                                 |
\*---------------------------------------------------------------------------*/
FoamFile
{
    version     2.0;
    format      ascii;
    arch        "LSB;label=32;scalar=64";
    class       volScalarField;
    location    "10050";
    object      p;
}
// * * * * * * * * * * * * * * * * * * * * * * * * * * * * * * * * * * * * * //

dimensions      [0 2 -2 0 0 0 0];

internalField   nonuniform List<scalar> 
2000
(
1.14176e-15
9.775e-15
2.40504e-15
9.77421e-15
2.56326e-15
9.7733e-15
2.42854e-15
9.77201e-15
2.35634e-15
9.77029e-15
2.33054e-15
9.76813e-15
2.30942e-15
9.76551e-15
2.28662e-15
9.76244e-15
2.26411e-15
9.75897e-15
2.24275e-15
9.75502e-15
2.22264e-15
9.7506e-15
2.20382e-15
9.74576e-15
2.18622e-15
9.74048e-15
2.16988e-15
9.73476e-15
2.15466e-15
9.72867e-15
2.14049e-15
9.72216e-15
2.12758e-15
9.71521e-15
2.11581e-15
9.70786e-15
2.10515e-15
9.70018e-15
2.09548e-15
9.69209e-15
2.08677e-15
9.6837e-15
2.07904e-15
9.67511e-15
2.07223e-15
9.66624e-15
2.06651e-15
9.65695e-15
2.06167e-15
9.64737e-15
2.05775e-15
9.63738e-15
2.05474e-15
9.62704e-15
2.05266e-15
9.61639e-15
2.05142e-15
9.60542e-15
2.05098e-15
9.5941e-15
2.05112e-15
9.58242e-15
2.05206e-15
9.57045e-15
2.05369e-15
9.5583e-15
2.05581e-15
9.54597e-15
2.05881e-15
9.53329e-15
2.06252e-15
9.52043e-15
2.067e-15
9.50705e-15
2.07233e-15
9.49332e-15
2.07852e-15
9.47896e-15
2.08557e-15
9.4638e-15
2.09332e-15
9.44861e-15
2.10176e-15
9.43302e-15
2.11128e-15
9.41686e-15
2.12162e-15
9.40011e-15
2.13205e-15
9.38275e-15
2.14294e-15
9.36497e-15
2.15429e-15
9.34677e-15
2.16591e-15
9.32833e-15
2.17819e-15
9.31008e-15
2.19115e-15
9.29183e-15
2.20415e-15
9.27298e-15
2.21762e-15
9.25396e-15
2.23088e-15
9.23499e-15
2.24548e-15
9.21545e-15
2.26052e-15
9.19557e-15
2.27554e-15
9.17466e-15
2.29122e-15
9.15366e-15
2.30754e-15
9.13311e-15
2.32427e-15
9.1123e-15
2.34113e-15
9.09076e-15
2.35886e-15
9.06824e-15
2.37536e-15
9.04581e-15
2.39268e-15
9.02349e-15
2.40974e-15
9.00191e-15
2.42814e-15
8.97944e-15
2.44506e-15
8.95725e-15
2.46041e-15
8.93482e-15
2.47526e-15
8.91161e-15
2.48955e-15
8.88823e-15
2.50442e-15
8.86414e-15
2.51801e-15
8.84122e-15
2.53147e-15
8.81894e-15
2.54474e-15
8.79674e-15
2.55648e-15
8.77342e-15
2.5692e-15
8.74768e-15
2.58022e-15
8.72352e-15
2.58942e-15
8.70106e-15
2.59875e-15
8.67972e-15
2.6033e-15
8.65895e-15
2.60916e-15
8.63673e-15
2.61419e-15
8.61524e-15
2.61612e-15
8.59532e-15
2.61407e-15
8.57927e-15
2.6108e-15
8.55923e-15
2.60692e-15
8.53744e-15
2.60232e-15
8.51772e-15
2.59765e-15
8.49948e-15
2.59354e-15
8.47829e-15
2.5876e-15
8.45731e-15
2.57964e-15
8.43668e-15
2.57268e-15
8.41339e-15
2.56181e-15
8.39074e-15
2.55004e-15
8.36726e-15
2.53397e-15
8.34151e-15
2.51663e-15
8.31359e-15
2.49455e-15
8.29026e-15
2.47078e-15
8.26845e-15
2.44344e-15
8.24672e-15
2.41057e-15
8.22529e-15
2.37697e-15
8.20609e-15
2.33896e-15
8.18596e-15
2.29969e-15
8.17381e-15
2.26233e-15
8.15784e-15
2.22664e-15
8.13128e-15
2.19057e-15
8.10661e-15
2.15916e-15
8.08238e-15
2.1268e-15
8.0571e-15
2.10035e-15
8.02748e-15
2.07051e-15
7.99559e-15
2.04783e-15
7.96354e-15
2.02108e-15
7.92982e-15
1.99536e-15
7.89475e-15
1.96847e-15
7.86052e-15
1.94558e-15
7.82748e-15
1.92261e-15
7.79044e-15
1.90103e-15
7.74596e-15
1.87854e-15
7.70376e-15
1.85282e-15
7.65669e-15
1.82339e-15
7.60128e-15
1.80123e-15
7.53786e-15
1.77062e-15
7.47442e-15
1.74257e-15
7.41135e-15
1.72048e-15
7.33745e-15
1.70006e-15
7.26076e-15
1.67696e-15
7.17772e-15
1.64677e-15
7.10431e-15
1.61676e-15
7.03316e-15
1.58634e-15
6.96078e-15
1.56284e-15
6.87575e-15
1.54178e-15
6.78629e-15
1.53062e-15
6.70462e-15
1.52092e-15
6.6232e-15
1.51615e-15
6.53037e-15
1.51587e-15
6.43435e-15
1.50357e-15
6.35542e-15
1.49472e-15
6.27796e-15
1.48872e-15
6.18618e-15
1.48504e-15
6.10052e-15
1.4872e-15
6.01321e-15
1.49066e-15
5.91232e-15
1.49092e-15
5.79388e-15
1.48351e-15
5.6986e-15
1.47599e-15
5.61854e-15
1.47588e-15
5.52544e-15
1.4786e-15
5.42348e-15
1.47965e-15
5.33316e-15
1.48261e-15
5.25054e-15
1.49105e-15
5.15936e-15
1.50865e-15
5.0596e-15
1.51866e-15
4.97574e-15
1.5124e-15
4.87491e-15
1.51397e-15
4.77359e-15
1.51463e-15
4.6635e-15
1.57162e-15
4.5444e-15
1.61114e-15
4.44017e-15
1.62501e-15
4.35019e-15
1.63771e-15
4.26598e-15
1.65715e-15
4.18734e-15
1.67476e-15
4.08916e-15
1.69042e-15
3.99551e-15
1.72049e-15
3.91408e-15
1.75666e-15
3.8277e-15
1.78269e-15
3.74373e-15
1.79044e-15
3.66974e-15
1.81269e-15
3.62181e-15
1.8328e-15
3.54206e-15
1.85908e-15
3.47075e-15
1.8918e-15
3.40688e-15
1.92312e-15
3.35768e-15
1.9451e-15
3.31429e-15
1.96604e-15
3.25152e-15
1.99445e-15
3.1931e-15
2.00619e-15
3.1381e-15
2.04205e-15
3.10213e-15
2.0698e-15
3.06796e-15
2.1141e-15
3.02659e-15
2.12691e-15
2.97684e-15
2.15724e-15
2.92589e-15
2.1897e-15
2.89662e-15
2.24894e-15
2.85575e-15
2.31222e-15
2.81713e-15
2.33306e-15
2.77811e-15
2.3603e-15
2.75301e-15
2.3942e-15
2.74046e-15
2.43504e-15
2.70732e-15
2.46837e-15
2.73092e-15
2.49459e-15
2.77827e-15
2.5281e-15
2.78654e-15
2.55351e-15
2.78637e-15
2.57116e-15
2.74517e-15
2.58237e-15
2.72357e-15
2.60321e-15
2.7204e-15
2.61831e-15
2.7501e-15
2.64206e-15
2.7662e-15
2.65854e-15
2.75246e-15
2.68336e-15
2.78508e-15
2.70018e-15
2.84805e-15
2.70654e-15
2.88185e-15
2.74606e-15
2.93393e-15
2.77227e-15
2.94437e-15
2.78512e-15
2.92786e-15
2.83032e-15
2.94301e-15
2.86358e-15
2.97255e-15
2.90017e-15
2.98492e-15
2.89531e-15
3.00883e-15
2.93603e-15
3.04618e-15
2.97679e-15
3.05245e-15
3.00421e-15
3.04081e-15
3.04821e-15
3.08244e-15
3.09408e-15
3.14711e-15
3.14025e-15
3.19094e-15
3.17259e-15
3.24186e-15
3.17416e-15
3.2732e-15
3.25622e-15
3.31611e-15
3.30518e-15
3.36646e-15
3.34938e-15
3.42234e-15
3.44305e-15
3.51209e-15
3.50093e-15
3.60855e-15
3.5483e-15
3.66113e-15
3.61095e-15
3.69943e-15
3.71473e-15
3.7497e-15
3.73035e-15
3.77869e-15
3.765e-15
3.81387e-15
3.84407e-15
3.88299e-15
3.93972e-15
3.95786e-15
4.00341e-15
3.98389e-15
4.03923e-15
4.01163e-15
4.04851e-15
4.06556e-15
4.05305e-15
4.09825e-15
4.15143e-15
4.11668e-15
4.20116e-15
4.16493e-15
4.2304e-15
4.24173e-15
4.23172e-15
4.3002e-15
4.22198e-15
4.34702e-15
4.31288e-15
4.44104e-15
4.28239e-15
4.58628e-15
4.31853e-15
4.66671e-15
4.33681e-15
4.71856e-15
4.38164e-15
4.7308e-15
4.42881e-15
4.7499e-15
4.49662e-15
4.74778e-15
4.54937e-15
4.75931e-15
4.73946e-15
4.75956e-15
4.79138e-15
4.80247e-15
4.85201e-15
4.83809e-15
4.9057e-15
4.83794e-15
4.87516e-15
4.88085e-15
4.9397e-15
4.95831e-15
5.033e-15
4.98304e-15
5.04496e-15
5.02874e-15
5.82424e-15
6.34192e-15
5.82389e-15
6.34177e-15
5.82348e-15
6.3416e-15
5.82289e-15
6.34135e-15
5.82211e-15
6.34101e-15
5.82114e-15
6.34057e-15
5.81998e-15
6.34001e-15
5.8186e-15
6.33934e-15
5.81704e-15
6.33857e-15
5.81529e-15
6.3377e-15
5.81337e-15
6.33667e-15
5.81126e-15
6.3355e-15
5.80898e-15
6.3342e-15
5.80647e-15
6.33282e-15
5.80386e-15
6.33126e-15
5.80108e-15
6.32955e-15
5.79808e-15
6.32768e-15
5.79497e-15
6.3256e-15
5.7917e-15
6.32344e-15
5.78821e-15
6.32121e-15
5.78458e-15
6.31872e-15
5.78076e-15
6.31607e-15
5.77671e-15
6.3133e-15
5.77248e-15
6.31037e-15
5.76814e-15
6.30727e-15
5.76359e-15
6.3041e-15
5.75892e-15
6.30079e-15
5.75406e-15
6.29715e-15
5.74912e-15
6.29333e-15
5.74398e-15
6.28949e-15
5.73873e-15
6.2855e-15
5.73344e-15
6.28118e-15
5.72785e-15
6.27678e-15
5.72204e-15
6.27235e-15
5.71592e-15
6.26749e-15
5.70956e-15
6.26266e-15
5.70321e-15
6.25753e-15
5.69642e-15
6.25233e-15
5.68945e-15
6.24696e-15
5.68209e-15
6.24097e-15
5.67435e-15
6.23487e-15
5.66628e-15
6.22882e-15
5.65796e-15
6.22226e-15
5.6491e-15
6.21546e-15
5.63987e-15
6.2084e-15
5.63025e-15
6.20144e-15
5.62081e-15
6.19361e-15
5.61096e-15
6.18488e-15
5.60088e-15
6.17642e-15
5.59057e-15
6.16804e-15
5.58003e-15
6.15826e-15
5.56946e-15
6.14789e-15
5.55843e-15
6.13756e-15
5.54737e-15
6.12615e-15
5.53606e-15
6.11432e-15
5.52451e-15
6.10275e-15
5.51293e-15
6.09051e-15
5.50038e-15
6.07829e-15
5.48755e-15
6.06512e-15
5.47472e-15
6.05096e-15
5.46161e-15
6.03655e-15
5.44746e-15
6.02295e-15
5.43275e-15
6.00831e-15
5.41858e-15
5.99315e-15
5.40387e-15
5.97689e-15
5.38859e-15
5.96064e-15
5.37218e-15
5.94499e-15
5.35695e-15
5.9276e-15
5.34234e-15
5.90724e-15
5.3278e-15
5.88866e-15
5.31271e-15
5.87192e-15
5.2977e-15
5.8552e-15
5.28278e-15
5.83662e-15
5.26732e-15
5.81675e-15
5.25458e-15
5.79556e-15
5.24001e-15
5.77301e-15
5.2256e-15
5.75376e-15
5.21e-15
5.73723e-15
5.19456e-15
5.71521e-15
5.18001e-15
5.69174e-15
5.16568e-15
5.67172e-15
5.14943e-15
5.65453e-15
5.13124e-15
5.63589e-15
5.11327e-15
5.61134e-15
5.09703e-15
5.58594e-15
5.08332e-15
5.56414e-15
5.06919e-15
5.54602e-15
5.05466e-15
5.52552e-15
5.03895e-15
5.50257e-15
5.02363e-15
5.48179e-15
5.01189e-15
5.46163e-15
4.99744e-15
5.44049e-15
4.98186e-15
5.42155e-15
4.96842e-15
5.40158e-15
4.95389e-15
5.37892e-15
4.93995e-15
5.36172e-15
4.92496e-15
5.34509e-15
4.91063e-15
5.32564e-15
4.89532e-15
5.30839e-15
4.88074e-15
5.28992e-15
4.86695e-15
5.2719e-15
4.85402e-15
5.26122e-15
4.842e-15
5.251e-15
4.83271e-15
5.2342e-15
4.81741e-15
5.22129e-15
4.80496e-15
5.21405e-15
4.79545e-15
5.20361e-15
4.78535e-15
5.18989e-15
4.77474e-15
5.17825e-15
4.76185e-15
5.17596e-15
4.75766e-15
5.16848e-15
4.74579e-15
5.15756e-15
4.73546e-15
5.14869e-15
4.72303e-15
5.13999e-15
4.71042e-15
5.13707e-15
4.70331e-15
5.13058e-15
4.6905e-15
5.12612e-15
4.67957e-15
5.11615e-15
4.66682e-15
5.09678e-15
4.65233e-15
5.07938e-15
4.64002e-15
5.06778e-15
4.62615e-15
5.06205e-15
4.61077e-15
5.05065e-15
4.60174e-15
5.02967e-15
4.59143e-15
5.01072e-15
4.57997e-15
4.98992e-15
4.57143e-15
4.97117e-15
4.56204e-15
4.9584e-15
4.55196e-15
4.95168e-15
4.53338e-15
4.93922e-15
4.52225e-15
4.92107e-15
4.51079e-15
4.91316e-15
4.49911e-15
4.91166e-15
4.48731e-15
4.9047e-15
4.47949e-15
4.8924e-15
4.47182e-15
4.87884e-15
4.4685e-15
4.86406e-15
4.45764e-15
4.85218e-15
4.43531e-15
4.83522e-15
4.42185e-15
4.81738e-15
4.40932e-15
4.80286e-15
4.40195e-15
4.80411e-15
4.3999e-15
4.80514e-15
4.3748e-15
4.79391e-15
4.34707e-15
4.78294e-15
4.33314e-15
4.76853e-15
4.30858e-15
4.76319e-15
4.29393e-15
4.75913e-15
4.27695e-15
4.75673e-15
4.25764e-15
4.74003e-15
4.26079e-15
4.7011e-15
4.27052e-15
4.6564e-15
4.27927e-15
4.6223e-15
4.27116e-15
4.59887e-15
4.26284e-15
4.57823e-15
4.24627e-15
4.53597e-15
4.23833e-15
4.49695e-15
4.23955e-15
4.48596e-15
4.2338e-15
4.47033e-15
4.22966e-15
4.44224e-15
4.22765e-15
4.41843e-15
4.21172e-15
4.39914e-15
4.19855e-15
4.35189e-15
4.16399e-15
4.30144e-15
4.13316e-15
4.27264e-15
4.1144e-15
4.24935e-15
4.08331e-15
4.24029e-15
4.04796e-15
4.22169e-15
4.00814e-15
4.18614e-15
3.9638e-15
4.17514e-15
3.93085e-15
4.13231e-15
3.90944e-15
4.08262e-15
3.90005e-15
4.04244e-15
3.8708e-15
4.01992e-15
3.84604e-15
4.00744e-15
3.83373e-15
3.97321e-15
3.80985e-15
3.93366e-15
3.78298e-15
3.89714e-15
3.7776e-15
3.85594e-15
3.77024e-15
3.8582e-15
3.7606e-15
3.87255e-15
3.76402e-15
3.86833e-15
3.78097e-15
3.84637e-15
3.79666e-15
3.82248e-15
3.78044e-15
3.82814e-15
3.73186e-15
3.88072e-15
3.75943e-15
3.8881e-15
3.73686e-15
3.91365e-15
3.72616e-15
3.91211e-15
3.71119e-15
3.90046e-15
3.70757e-15
3.8487e-15
3.70129e-15
3.83449e-15
3.70833e-15
3.82679e-15
3.71393e-15
3.84092e-15
3.7336e-15
3.81573e-15
3.73851e-15
3.84357e-15
3.74365e-15
3.84853e-15
3.76482e-15
3.846e-15
3.74248e-15
3.83532e-15
3.75231e-15
3.83194e-15
3.76454e-15
3.83587e-15
3.76508e-15
3.84807e-15
3.75321e-15
3.90014e-15
3.7858e-15
3.89111e-15
3.79015e-15
3.86503e-15
3.81376e-15
3.86509e-15
3.82837e-15
3.84535e-15
3.88049e-15
3.81915e-15
3.88766e-15
3.84147e-15
3.90809e-15
3.91298e-15
3.90972e-15
3.96456e-15
3.94716e-15
3.95735e-15
3.96637e-15
3.96039e-15
4.04218e-15
4.01563e-15
4.06212e-15
4.09392e-15
4.10792e-15
4.14453e-15
4.18009e-15
4.16922e-15
4.19808e-15
4.19125e-15
4.2457e-15
4.20899e-15
4.3543e-15
4.21942e-15
4.34202e-15
4.2687e-15
4.36597e-15
4.3076e-15
4.39894e-15
4.31162e-15
4.47238e-15
4.35901e-15
4.4821e-15
4.39215e-15
4.53088e-15
4.38525e-15
4.54548e-15
4.4112e-15
4.52582e-15
4.44463e-15
4.54501e-15
4.41213e-15
4.55946e-15
4.38288e-15
4.5716e-15
4.42588e-15
4.60267e-15
4.51796e-15
4.59491e-15
4.59133e-15
4.63951e-15
4.63413e-15
4.64064e-15
4.67233e-15
4.68746e-15
4.75832e-15
4.70575e-15
4.8196e-15
4.66354e-15
4.81409e-15
4.72161e-15
4.81893e-15
4.84098e-15
4.84943e-15
4.87637e-15
4.8666e-15
4.87884e-15
4.82163e-15
4.87886e-15
4.84294e-15
4.90116e-15
4.88893e-15
4.93802e-15
4.91796e-15
4.96566e-15
4.92801e-15
5.03233e-15
4.98619e-15
5.03678e-15
5.04571e-15
5.05127e-15
5.07232e-15
5.06259e-15
5.07025e-15
5.10493e-15
5.0643e-15
5.21363e-15
5.17279e-15
5.2832e-15
5.22504e-15
5.31943e-15
5.2604e-15
5.34046e-15
5.32816e-15
5.41089e-15
5.44173e-15
5.45101e-15
5.51725e-15
5.52095e-15
5.53571e-15
5.54401e-15
5.57766e-15
5.56193e-15
5.6e-15
5.59536e-15
5.62397e-15
5.64705e-15
5.67132e-15
5.71289e-15
5.76541e-15
5.76851e-15
5.84052e-15
5.78655e-15
5.8551e-15
5.81345e-15
5.8815e-15
5.87558e-15
5.91777e-15
5.97901e-15
5.95856e-15
6.08681e-15
5.96781e-15
6.13834e-15
6.03389e-15
6.21159e-15
6.11036e-15
6.25252e-15
6.22308e-15
6.29946e-15
6.30549e-15
6.37287e-15
6.38632e-15
6.44774e-15
6.43894e-15
6.55034e-15
6.46153e-15
6.55506e-15
6.55199e-15
6.58599e-15
6.61334e-15
6.58486e-15
6.65054e-15
6.65631e-15
6.6679e-15
6.72433e-15
6.71395e-15
6.78853e-15
6.78739e-15
6.82424e-15
6.86228e-15
6.82909e-15
6.91487e-15
6.85318e-15
6.97711e-15
6.92417e-15
6.99453e-15
6.96258e-15
7.04579e-15
6.96565e-15
7.10218e-15
7.01758e-15
7.13924e-15
7.06265e-15
7.1842e-15
7.07206e-15
7.19224e-15
7.0897e-15
7.22161e-15
7.15944e-15
7.25839e-15
7.17987e-15
7.28566e-15
7.20845e-15
7.33313e-15
7.2593e-15
7.34362e-15
7.30556e-15
7.37358e-15
7.30352e-15
7.40569e-15
7.34094e-15
7.41199e-15
7.40473e-15
7.43569e-15
7.45076e-15
7.45932e-15
7.48031e-15
7.49732e-15
7.50888e-15
7.50388e-15
7.58419e-15
7.47786e-15
7.61909e-15
7.44555e-15
7.61499e-15
7.51155e-15
7.6459e-15
7.61738e-15
7.6631e-15
7.67355e-15
7.68041e-15
7.71271e-15
7.71233e-15
7.72041e-15
7.74378e-15
7.75871e-15
7.77438e-15
7.81243e-15
7.80377e-15
7.85084e-15
7.83157e-15
7.87421e-15
7.85756e-15
7.8983e-15
7.88188e-15
7.93887e-15
7.90418e-15
7.98025e-15
7.94007e-15
8.02275e-15
7.98971e-15
8.05042e-15
8.03814e-15
8.06269e-15
8.03794e-15
8.0746e-15
8.03684e-15
8.10267e-15
8.06637e-15
8.16396e-15
8.07753e-15
8.19441e-15
8.09435e-15
8.21028e-15
8.10884e-15
8.22752e-15
8.12918e-15
8.26243e-15
8.14714e-15
8.27457e-15
8.17108e-15
8.25559e-15
8.18547e-15
8.28635e-15
8.19004e-15
8.33437e-15
8.21693e-15
8.36746e-15
8.23341e-15
8.3857e-15
8.24776e-15
8.39739e-15
8.27646e-15
8.3944e-15
8.30366e-15
8.40921e-15
8.32967e-15
8.41688e-15
8.33823e-15
8.43355e-15
8.34573e-15
8.4428e-15
8.36863e-15
8.46102e-15
8.39055e-15
8.48812e-15
8.40323e-15
8.52416e-15
8.41475e-15
8.54468e-15
8.43328e-15
8.54974e-15
8.44249e-15
8.56387e-15
8.45068e-15
8.57884e-15
8.45789e-15
8.59465e-15
8.4724e-15
8.60309e-15
8.47777e-15
8.62059e-15
8.49045e-15
8.6225e-15
8.49411e-15
8.62518e-15
8.50523e-15
8.6368e-15
8.51567e-15
8.64087e-15
8.52551e-15
8.65376e-15
8.53064e-15
8.67135e-15
8.54328e-15
8.68545e-15
8.54709e-15
8.68783e-15
8.54617e-15
8.69484e-15
8.54859e-15
8.70241e-15
8.55028e-15
8.7146e-15
8.55528e-15
8.72738e-15
8.56356e-15
8.74078e-15
8.5751e-15
8.7467e-15
8.58187e-15
8.75321e-15
8.58794e-15
8.76028e-15
8.59335e-15
8.75581e-15
8.60618e-15
8.75184e-15
8.6225e-15
8.75625e-15
8.62636e-15
8.76898e-15
8.62978e-15
8.786e-15
8.63668e-15
8.78747e-15
8.64313e-15
8.79328e-15
8.64122e-15
8.79944e-15
8.65068e-15
8.80989e-15
8.6636e-15
8.82461e-15
8.67215e-15
8.82401e-15
8.67249e-15
8.81986e-15
8.68025e-15
8.82383e-15
8.69154e-15
8.8397e-15
8.69863e-15
8.84425e-15
8.70159e-15
8.84139e-15
8.7043e-15
8.83881e-15
8.71059e-15
8.84792e-15
8.71286e-15
8.84207e-15
8.71117e-15
8.84023e-15
8.71309e-15
8.84047e-15
8.70925e-15
8.84652e-15
8.70339e-15
8.85646e-15
8.70477e-15
8.85733e-15
8.70411e-15
8.85292e-15
8.70145e-15
8.85057e-15
8.70045e-15
8.85208e-15
8.70108e-15
8.84836e-15
8.69795e-15
8.84666e-15
8.69824e-15
8.84338e-15
8.70016e-15
8.84031e-15
8.70192e-15
8.83567e-15
8.70353e-15
8.83472e-15
8.70328e-15
8.83046e-15
8.70464e-15
8.82984e-15
8.70931e-15
8.82765e-15
8.70705e-15
8.82049e-15
8.7064e-15
8.81182e-15
8.70569e-15
8.80333e-15
8.70326e-15
8.79666e-15
8.70244e-15
8.79344e-15
8.69993e-15
8.79197e-15
8.69739e-15
8.78411e-15
8.69642e-15
8.7764e-15
8.69383e-15
8.77042e-15
8.68964e-15
8.76614e-15
8.68546e-15
8.76351e-15
8.67973e-15
8.76097e-15
8.67708e-15
8.76005e-15
8.67593e-15
8.75919e-15
8.67475e-15
8.75689e-15
8.67355e-15
8.75246e-15
8.67159e-15
8.75032e-15
8.66962e-15
8.75115e-15
8.66908e-15
8.75202e-15
8.6685e-15
8.7508e-15
8.66511e-15
8.74826e-15
8.6631e-15
8.74579e-15
8.66041e-15
8.74408e-15
8.65772e-15
8.74579e-15
8.65635e-15
8.74753e-15
8.65498e-15
8.74667e-15
8.65295e-15
8.74458e-15
8.65028e-15
8.74447e-15
8.65075e-15
8.74315e-15
8.65056e-15
8.74373e-15
8.64914e-15
8.74193e-15
8.64771e-15
8.73899e-15
8.64687e-15
8.7379e-15
8.64544e-15
8.73917e-15
8.644e-15
8.73818e-15
8.64313e-15
8.73724e-15
8.6417e-15
8.73854e-15
8.64027e-15
8.74039e-15
8.63911e-15
8.73986e-15
8.63742e-15
8.73937e-15
8.63575e-15
8.73994e-15
8.63483e-15
8.74077e-15
8.63416e-15
8.74113e-15
8.63347e-15
8.74127e-15
8.63207e-15
8.74167e-15
8.63091e-15
8.74209e-15
8.63043e-15
8.7423e-15
8.62972e-15
8.74231e-15
8.629e-15
8.74256e-15
8.62828e-15
8.74241e-15
8.62756e-15
8.74146e-15
8.62662e-15
8.74115e-15
8.62589e-15
8.74187e-15
8.62536e-15
8.7424e-15
8.62462e-15
8.74237e-15
8.62407e-15
8.74235e-15
8.62333e-15
8.74236e-15
8.62295e-15
8.74256e-15
8.62256e-15
8.74252e-15
8.62207e-15
8.74205e-15
8.62193e-15
8.74203e-15
8.62177e-15
8.74229e-15
8.62177e-15
8.74248e-15
8.62134e-15
8.74252e-15
8.6209e-15
8.74273e-15
8.62045e-15
8.74288e-15
8.62032e-15
8.74287e-15
8.62018e-15
8.74296e-15
8.61978e-15
8.74314e-15
8.61953e-15
8.74334e-15
8.61928e-15
8.74346e-15
8.61909e-15
8.74348e-15
8.6189e-15
8.74367e-15
8.61874e-15
8.74392e-15
8.61857e-15
8.74405e-15
8.61843e-15
8.74406e-15
8.61823e-15
8.74413e-15
8.61803e-15
8.7442e-15
8.61781e-15
8.74438e-15
8.61768e-15
8.74452e-15
8.61763e-15
8.74453e-15
8.61755e-15
8.74462e-15
8.61751e-15
8.74472e-15
8.61744e-15
8.74476e-15
8.61736e-15
8.7448e-15
8.61731e-15
8.74485e-15
8.61727e-15
8.74491e-15
8.61725e-15
8.7449e-15
8.61714e-15
8.74494e-15
8.61708e-15
8.74502e-15
8.61706e-15
8.74504e-15
8.61705e-15
8.74508e-15
8.61705e-15
8.7451e-15
8.61699e-15
8.74513e-15
8.61696e-15
8.74516e-15
8.61693e-15
8.74519e-15
8.61692e-15
8.7452e-15
8.61691e-15
8.74522e-15
8.61691e-15
8.74522e-15
5.16619e-15
5.12195e-15
5.24432e-15
5.16943e-15
5.3004e-15
5.24279e-15
5.37357e-15
5.25776e-15
5.34288e-15
5.31366e-15
5.41259e-15
5.43119e-15
5.47862e-15
5.52896e-15
5.48981e-15
5.56888e-15
5.52849e-15
5.6056e-15
5.57399e-15
5.6612e-15
5.60381e-15
5.69224e-15
5.71487e-15
5.74678e-15
5.72937e-15
5.81448e-15
5.77964e-15
5.82818e-15
5.84778e-15
5.84919e-15
5.87124e-15
5.89509e-15
5.92085e-15
5.94616e-15
5.97041e-15
6.00362e-15
6.04037e-15
6.0186e-15
6.03347e-15
6.05993e-15
6.11939e-15
6.15873e-15
6.2208e-15
6.24049e-15
6.29214e-15
6.35266e-15
6.32971e-15
6.44941e-15
6.45744e-15
6.48468e-15
6.55667e-15
6.52586e-15
6.57934e-15
6.59442e-15
6.62898e-15
6.61295e-15
6.65541e-15
6.62994e-15
6.71542e-15
6.67104e-15
6.83802e-15
6.70835e-15
6.81139e-15
6.76169e-15
6.81792e-15
6.80988e-15
6.88114e-15
6.85546e-15
6.86406e-15
6.92508e-15
6.89942e-15
6.99781e-15
6.98379e-15
7.07846e-15
6.94757e-15
7.11011e-15
6.98581e-15
7.15357e-15
7.02638e-15
7.22353e-15
7.03859e-15
7.22042e-15
7.05308e-15
7.24419e-15
7.14334e-15
7.28028e-15
7.2108e-15
7.31034e-15
7.24415e-15
7.30223e-15
7.27548e-15
7.34114e-15
7.30395e-15
7.4285e-15
7.3413e-15
7.43359e-15
7.37525e-15
7.45893e-15
7.4669e-15
7.50451e-15
7.49772e-15
7.52305e-15
7.49803e-15
7.57469e-15
7.49551e-15
7.58532e-15
7.5045e-15
7.58584e-15
7.57061e-15
7.63791e-15
7.60255e-15
7.69625e-15
7.59992e-15
7.74591e-15
7.63822e-15
7.7874e-15
7.68689e-15
7.78896e-15
7.73254e-15
7.79503e-15
7.77671e-15
7.81994e-15
7.78863e-15
7.8629e-15
7.83031e-15
7.89302e-15
7.88661e-15
7.90967e-15
7.91134e-15
7.94337e-15
7.93601e-15
7.9945e-15
7.95996e-15
8.04789e-15
7.98253e-15
8.08828e-15
7.98714e-15
8.1159e-15
8.02107e-15
8.14715e-15
8.0522e-15
8.14981e-15
8.08152e-15
8.15526e-15
8.10178e-15
8.20318e-15
8.11237e-15
8.2535e-15
8.12881e-15
8.29081e-15
8.14272e-15
8.30736e-15
8.15412e-15
8.32743e-15
8.17104e-15
8.33461e-15
8.18557e-15
8.3367e-15
8.20611e-15
8.37446e-15
8.22433e-15
8.42358e-15
8.23999e-15
8.44343e-15
8.25303e-15
8.44198e-15
8.28015e-15
8.41874e-15
8.28929e-15
8.41383e-15
8.29698e-15
8.43526e-15
8.32771e-15
8.45848e-15
8.34048e-15
8.4752e-15
8.36004e-15
8.50189e-15
8.37817e-15
8.52215e-15
8.39489e-15
8.54419e-15
8.41017e-15
8.55973e-15
8.42406e-15
8.57686e-15
8.44486e-15
8.59553e-15
8.43963e-15
8.60747e-15
8.43297e-15
8.62926e-15
8.42463e-15
8.64461e-15
8.44741e-15
8.6454e-15
8.44386e-15
8.66432e-15
8.44682e-15
8.66853e-15
8.45629e-15
8.67447e-15
8.4477e-15
8.69027e-15
8.45378e-15
8.6996e-15
8.46632e-15
8.71065e-15
8.47718e-15
8.73565e-15
8.48636e-15
8.76642e-15
8.50197e-15
8.77032e-15
8.52824e-15
8.7759e-15
8.52864e-15
8.78705e-15
8.53177e-15
8.79156e-15
8.54172e-15
8.79751e-15
8.55042e-15
8.80888e-15
8.5579e-15
8.81344e-15
8.56423e-15
8.82329e-15
8.56538e-15
8.83032e-15
8.57347e-15
8.83451e-15
8.57646e-15
8.84389e-15
8.59041e-15
8.8464e-15
8.59135e-15
8.85399e-15
8.59929e-15
8.86263e-15
8.61024e-15
8.85635e-15
8.61636e-15
8.85892e-15
8.62562e-15
8.8663e-15
8.6341e-15
8.87054e-15
8.64184e-15
8.87161e-15
8.64497e-15
8.86556e-15
8.65136e-15
8.86017e-15
8.64551e-15
8.87094e-15
8.63907e-15
8.8823e-15
8.63586e-15
8.88267e-15
8.63586e-15
8.87598e-15
8.63143e-15
8.87754e-15
8.63021e-15
8.88729e-15
8.6246e-15
8.88998e-15
8.62216e-15
8.88946e-15
8.61538e-15
8.88763e-15
8.62112e-15
8.8901e-15
8.62999e-15
8.8875e-15
8.62721e-15
8.88168e-15
8.62395e-15
8.88553e-15
8.63121e-15
8.88432e-15
8.63617e-15
8.87625e-15
8.63888e-15
8.8668e-15
8.63761e-15
8.86134e-15
8.63957e-15
8.85444e-15
8.64474e-15
8.84434e-15
8.64606e-15
8.83808e-15
8.6471e-15
8.8321e-15
8.64614e-15
8.82639e-15
8.64495e-15
8.82437e-15
8.64525e-15
8.82085e-15
8.64703e-15
8.81243e-15
8.64353e-15
8.80424e-15
8.64657e-15
8.79627e-15
8.64775e-15
8.78684e-15
8.64712e-15
8.78091e-15
8.64635e-15
8.77515e-15
8.64869e-15
8.76791e-15
8.6493e-15
8.76405e-15
8.64501e-15
8.76348e-15
8.64223e-15
8.76144e-15
8.64093e-15
8.75794e-15
8.63955e-15
8.75456e-15
8.63656e-15
8.75128e-15
8.63275e-15
8.74963e-15
8.63115e-15
8.74657e-15
8.63318e-15
8.7399e-15
8.63292e-15
8.7363e-15
8.63259e-15
8.73497e-15
8.63434e-15
8.73012e-15
8.6346e-15
8.72609e-15
8.6348e-15
8.72214e-15
8.63426e-15
8.72036e-15
8.63232e-15
8.71999e-15
8.63103e-15
8.71898e-15
8.62905e-15
8.71869e-15
8.62836e-15
8.71713e-15
8.627e-15
8.71497e-15
8.62688e-15
8.71097e-15
8.62611e-15
8.70956e-15
8.62593e-15
8.7088e-15
8.62571e-15
8.70566e-15
8.62607e-15
8.70259e-15
8.62698e-15
8.70076e-15
8.62611e-15
8.69956e-15
8.62354e-15
8.69896e-15
8.62321e-15
8.69838e-15
8.62287e-15
8.69674e-15
8.62358e-15
8.69568e-15
8.62373e-15
8.69465e-15
8.62387e-15
8.69443e-15
8.62397e-15
8.69423e-15
8.62356e-15
8.69354e-15
8.62364e-15
8.69239e-15
8.62369e-15
8.69199e-15
8.62349e-15
8.69207e-15
8.62328e-15
8.69194e-15
8.62284e-15
8.69158e-15
8.62283e-15
8.69125e-15
8.6226e-15
8.69158e-15
8.62151e-15
8.69254e-15
8.62105e-15
8.69287e-15
8.62079e-15
8.69259e-15
8.62073e-15
8.69232e-15
8.62046e-15
8.69265e-15
8.61961e-15
8.69318e-15
8.61932e-15
8.6937e-15
8.61885e-15
8.69403e-15
8.61856e-15
8.69418e-15
8.61871e-15
8.69452e-15
8.61894e-15
8.69503e-15
8.61898e-15
8.69537e-15
8.61892e-15
8.69536e-15
8.61895e-15
8.69537e-15
8.61905e-15
8.69554e-15
8.61897e-15
8.69589e-15
8.61888e-15
8.69633e-15
8.61913e-15
8.69652e-15
8.61928e-15
8.69663e-15
8.61917e-15
8.69666e-15
8.61923e-15
8.69687e-15
8.61927e-15
8.69708e-15
8.61936e-15
8.69729e-15
8.61935e-15
8.69752e-15
8.6193e-15
8.69779e-15
8.61924e-15
8.69794e-15
8.61922e-15
8.698e-15
8.61924e-15
8.69812e-15
8.6192e-15
8.69833e-15
8.61907e-15
8.69855e-15
8.61903e-15
8.69863e-15
8.61903e-15
8.69881e-15
8.61888e-15
8.699e-15
8.6188e-15
8.69905e-15
8.61878e-15
8.69905e-15
8.61874e-15
8.69914e-15
8.61867e-15
8.69922e-15
8.61862e-15
8.69926e-15
8.61859e-15
8.69927e-15
8.61851e-15
8.69929e-15
8.61849e-15
8.69931e-15
8.61848e-15
8.69934e-15
8.61848e-15
8.69934e-15
8.61847e-15
8.69935e-15
8.61843e-15
8.69938e-15
8.6184e-15
8.6994e-15
8.61839e-15
8.69942e-15
8.6184e-15
8.69942e-15
8.61839e-15
8.69942e-15
8.61839e-15
8.69942e-15
)
;

boundaryField
{
    walls
    {
        type            zeroGradient;
    }
    inlet
    {
        type            cyclic;
    }
    outlet
    {
        type            cyclic;
    }
    sides
    {
        type            empty;
    }
}


// ************************************************************************* //
