/*--------------------------------*- C++ -*----------------------------------*\
| =========                 |                                                 |
| \\      /  F ield         | OpenFOAM: The Open Source CFD Toolbox           |
|  \\    /   O peration     | Version:  2106                                  |
|   \\  /    A nd           | Website:  www.openfoam.com                      |
|    \\/     M anipulation  |                                                 |
\*---------------------------------------------------------------------------*/
FoamFile
{
    version     2.0;
    format      ascii;
    arch        "LSB;label=32;scalar=64";
    class       surfaceScalarField;
    location    "10050";
    object      phi;
}
// * * * * * * * * * * * * * * * * * * * * * * * * * * * * * * * * * * * * * //

dimensions      [0 3 -1 0 0 0 0];

oriented        oriented;

internalField   nonuniform List<scalar> 
3996
(
2.99945e-08
-4.63883e-18
-5.77868e-23
-3.21712e-22
6.33745e-23
9.2222e-08
-4.63911e-18
1.77006e-22
-3.51631e-22
1.36875e-22
1.57923e-07
-4.63933e-18
1.72345e-22
-4.23993e-22
1.4456e-22
2.27248e-07
-4.63952e-18
1.59108e-22
-5.45832e-22
1.52607e-22
3.00355e-07
-4.63962e-18
1.46319e-22
-7.11625e-22
1.61026e-22
3.77407e-07
-4.63964e-18
1.33981e-22
-9.8763e-22
1.69825e-22
4.58574e-07
-4.63969e-18
1.20494e-22
-1.30089e-21
1.79017e-22
5.44033e-07
-4.63955e-18
1.05588e-22
-1.81002e-21
1.88614e-22
6.33968e-07
-4.63954e-18
8.92814e-23
-2.0014e-21
1.98631e-22
7.28568e-07
-4.63964e-18
7.15589e-23
-2.44668e-21
2.09072e-22
8.28031e-07
-4.63965e-18
5.23655e-23
-3.06608e-21
2.19951e-22
9.32561e-07
-4.63944e-18
3.16306e-23
-3.56214e-21
2.31282e-22
1.04237e-06
-4.63892e-18
9.27172e-24
-3.95425e-21
2.43069e-22
1.15767e-06
-4.63831e-18
-1.47924e-23
-4.73191e-21
2.5531e-22
1.27869e-06
-4.63713e-18
-4.06468e-23
-5.81322e-21
2.68024e-22
1.40565e-06
-4.63673e-18
-6.83869e-23
-6.52208e-21
2.81216e-22
1.53879e-06
-4.63612e-18
-9.80724e-23
-7.29037e-21
2.94877e-22
1.67834e-06
-4.63517e-18
-1.29788e-22
-8.47159e-21
3.09009e-22
1.82453e-06
-4.63384e-18
-1.63601e-22
-9.81981e-21
3.23592e-22
1.9776e-06
-4.6325e-18
-1.99571e-22
-1.14388e-20
3.38594e-22
2.13777e-06
-4.6308e-18
-2.37725e-22
-1.33726e-20
3.53994e-22
2.30527e-06
-4.62923e-18
-2.78091e-22
-1.53703e-20
3.69754e-22
2.4803e-06
-4.62821e-18
-3.2066e-22
-1.66818e-20
3.85804e-22
2.66305e-06
-4.62657e-18
-3.65392e-22
-1.871e-20
4.0205e-22
2.85369e-06
-4.62464e-18
-4.12258e-22
-2.03424e-20
4.18408e-22
3.05236e-06
-4.62284e-18
-4.61149e-22
-2.20613e-20
4.34729e-22
3.25919e-06
-4.62075e-18
-5.11926e-22
-2.4365e-20
4.509e-22
3.47425e-06
-4.61776e-18
-5.64418e-22
-2.71358e-20
4.66821e-22
3.69757e-06
-4.61466e-18
-6.1844e-22
-3.00652e-20
4.82332e-22
3.92917e-06
-4.61044e-18
-6.73714e-22
-3.26492e-20
4.97254e-22
4.16902e-06
-4.60618e-18
-7.29985e-22
-3.62415e-20
5.11426e-22
4.41702e-06
-4.6013e-18
-7.8695e-22
-4.03685e-20
5.24779e-22
4.67308e-06
-4.59618e-18
-8.44261e-22
-4.51066e-20
5.37101e-22
4.93706e-06
-4.59215e-18
-9.01627e-22
-4.94077e-20
5.48278e-22
5.20878e-06
-4.58734e-18
-9.58655e-22
-5.43726e-20
5.5827e-22
5.48807e-06
-4.58341e-18
-1.01502e-21
-5.70184e-20
5.66919e-22
5.77473e-06
-4.57928e-18
-1.07051e-21
-6.05877e-20
5.74161e-22
6.06857e-06
-4.57481e-18
-1.12482e-21
-6.25833e-20
5.79914e-22
6.3694e-06
-4.57067e-18
-1.17776e-21
-6.54193e-20
5.84062e-22
6.67705e-06
-4.56571e-18
-1.2291e-21
-7.07099e-20
5.86672e-22
6.99136e-06
-4.56102e-18
-1.27881e-21
-7.48409e-20
5.87838e-22
7.31218e-06
-4.55816e-18
-1.32679e-21
-7.83886e-20
5.87457e-22
7.63941e-06
-4.55005e-18
-1.37288e-21
-8.3613e-20
5.85583e-22
7.97296e-06
-4.5417e-18
-1.41741e-21
-8.83287e-20
5.8239e-22
8.31277e-06
-4.53273e-18
-1.46049e-21
-9.29445e-20
5.77841e-22
8.65881e-06
-4.52539e-18
-1.50214e-21
-9.92565e-20
5.72014e-22
9.01107e-06
-4.51826e-18
-1.54251e-21
-1.0515e-19
5.65304e-22
9.36959e-06
-4.51228e-18
-1.58173e-21
-1.10211e-19
5.57807e-22
9.73439e-06
-4.50475e-18
-1.61978e-21
-1.15318e-19
5.49506e-22
1.01055e-05
-4.4973e-18
-1.65688e-21
-1.21335e-19
5.40538e-22
1.04832e-05
-4.49057e-18
-1.6931e-21
-1.2845e-19
5.31221e-22
1.08673e-05
-4.4835e-18
-1.72828e-21
-1.32758e-19
5.2152e-22
1.12581e-05
-4.47951e-18
-1.76257e-21
-1.35347e-19
5.11275e-22
1.16557e-05
-4.47295e-18
-1.79559e-21
-1.39585e-19
5.00378e-22
1.20603e-05
-4.46552e-18
-1.82744e-21
-1.41963e-19
4.88727e-22
1.2472e-05
-4.46018e-18
-1.85815e-21
-1.46254e-19
4.75994e-22
1.28909e-05
-4.45416e-18
-1.88751e-21
-1.50633e-19
4.62695e-22
1.33174e-05
-4.44788e-18
-1.91521e-21
-1.5466e-19
4.48635e-22
1.37514e-05
-4.44061e-18
-1.94131e-21
-1.59574e-19
4.33982e-22
1.41933e-05
-4.43173e-18
-1.9658e-21
-1.66261e-19
4.18316e-22
1.46433e-05
-4.42136e-18
-1.98855e-21
-1.71542e-19
4.0162e-22
1.51014e-05
-4.4174e-18
-2.00986e-21
-1.72195e-19
3.8399e-22
1.55681e-05
-4.4124e-18
-2.02917e-21
-1.74585e-19
3.66169e-22
1.60435e-05
-4.40613e-18
-2.04651e-21
-1.79164e-19
3.48344e-22
1.65277e-05
-4.39297e-18
-2.06229e-21
-1.81949e-19
3.31284e-22
1.70211e-05
-4.38231e-18
-2.07711e-21
-1.86858e-19
3.14027e-22
1.75239e-05
-4.37391e-18
-2.09069e-21
-1.89917e-19
2.97011e-22
1.80363e-05
-4.3624e-18
-2.10398e-21
-1.9469e-19
2.80786e-22
1.85586e-05
-4.35625e-18
-2.11675e-21
-1.99637e-19
2.65572e-22
1.90909e-05
-4.34547e-18
-2.12757e-21
-2.10704e-19
2.49077e-22
1.96337e-05
-4.33679e-18
-2.13744e-21
-2.14462e-19
2.33473e-22
2.0187e-05
-4.32738e-18
-2.14562e-21
-2.19891e-19
2.17922e-22
2.07513e-05
-4.31822e-18
-2.15191e-21
-2.25528e-19
2.03319e-22
2.13267e-05
-4.30862e-18
-2.15536e-21
-2.31298e-19
1.88207e-22
2.19135e-05
-4.29976e-18
-2.15637e-21
-2.38429e-19
1.7313e-22
2.25121e-05
-4.28717e-18
-2.15403e-21
-2.45966e-19
1.58932e-22
2.31226e-05
-4.27825e-18
-2.1503e-21
-2.54198e-19
1.45186e-22
2.37454e-05
-4.26461e-18
-2.14386e-21
-2.58882e-19
1.31961e-22
2.43807e-05
-4.26014e-18
-2.13607e-21
-2.59912e-19
1.20898e-22
2.50289e-05
-4.24752e-18
-2.12537e-21
-2.70035e-19
1.10522e-22
2.56903e-05
-4.23775e-18
-2.11388e-21
-2.76008e-19
1.02337e-22
2.63652e-05
-4.21941e-18
-2.09896e-21
-2.90244e-19
9.51967e-23
2.70538e-05
-4.21331e-18
-2.08393e-21
-2.93158e-19
9.44809e-23
2.77566e-05
-4.20654e-18
-2.06643e-21
-2.95657e-19
9.72753e-23
2.84737e-05
-4.20264e-18
-2.048e-21
-2.97996e-19
1.01971e-22
2.92057e-05
-4.20224e-18
-2.02818e-21
-3.02327e-19
1.0843e-22
2.99527e-05
-4.19785e-18
-2.00521e-21
-3.06273e-19
1.15702e-22
3.07151e-05
-4.19731e-18
-1.9817e-21
-3.09653e-19
1.23733e-22
3.14934e-05
-4.18425e-18
-1.95587e-21
-3.06949e-19
1.35689e-22
3.22878e-05
-4.18028e-18
-1.93003e-21
-3.11464e-19
1.47975e-22
3.30987e-05
-4.16597e-18
-1.90065e-21
-3.1561e-19
1.59815e-22
3.39265e-05
-4.15915e-18
-1.86849e-21
-3.1831e-19
1.73534e-22
3.47715e-05
-4.14246e-18
-1.83253e-21
-3.22347e-19
1.86787e-22
3.56342e-05
-4.12889e-18
-1.79792e-21
-3.22651e-19
2.00346e-22
3.65149e-05
-4.11017e-18
-1.76131e-21
-3.34614e-19
2.15091e-22
3.7414e-05
-4.10094e-18
-1.72972e-21
-3.44933e-19
2.32346e-22
3.8332e-05
-4.08719e-18
-1.69863e-21
-3.50504e-19
2.57809e-22
3.92692e-05
-4.06761e-18
-1.6702e-21
-3.62019e-19
2.88634e-22
4.02261e-05
-4.06294e-18
-1.64968e-21
-3.71783e-19
3.29504e-22
4.12031e-05
-4.04803e-18
-1.63083e-21
-3.72258e-19
3.7965e-22
4.22006e-05
-4.03965e-18
-1.62141e-21
-3.88552e-19
4.39265e-22
4.32191e-05
-4.04309e-18
-1.61481e-21
-3.77215e-19
5.15914e-22
4.42591e-05
-4.04124e-18
-1.60344e-21
-3.69613e-19
5.93677e-22
4.5321e-05
-4.04091e-18
-1.59401e-21
-3.7441e-19
6.75529e-22
4.64053e-05
-4.0509e-18
-1.57866e-21
-3.77233e-19
7.63154e-22
4.75125e-05
-4.0427e-18
-1.55645e-21
-3.75288e-19
8.57568e-22
4.8643e-05
-4.0479e-18
-1.54409e-21
-3.83565e-19
9.58509e-22
4.97974e-05
-4.0353e-18
-1.52056e-21
-3.91343e-19
1.07052e-21
5.09763e-05
-4.02847e-18
-1.49945e-21
-3.9819e-19
1.18823e-21
5.218e-05
-4.01018e-18
-1.47394e-21
-4.05826e-19
1.30751e-21
5.34092e-05
-3.99974e-18
-1.45571e-21
-4.12536e-19
1.44366e-21
5.46644e-05
-3.98729e-18
-1.42167e-21
-4.21712e-19
1.58505e-21
5.59461e-05
-3.97358e-18
-1.389e-21
-4.37233e-19
1.73281e-21
5.7255e-05
-3.9642e-18
-1.35334e-21
-4.47125e-19
1.89369e-21
5.85916e-05
-3.94867e-18
-1.30716e-21
-4.66231e-19
2.04028e-21
5.99564e-05
-3.92878e-18
-1.26261e-21
-4.78337e-19
2.19053e-21
6.13502e-05
-3.90191e-18
-1.21953e-21
-4.86299e-19
2.33475e-21
6.27735e-05
-3.87592e-18
-1.18894e-21
-5.00185e-19
2.49197e-21
6.4227e-05
-3.85318e-18
-1.16822e-21
-5.09909e-19
2.65356e-21
6.57113e-05
-3.8182e-18
-1.14527e-21
-5.17807e-19
2.80657e-21
6.7227e-05
-3.80393e-18
-1.13275e-21
-5.40734e-19
2.94393e-21
6.87748e-05
-3.78408e-18
-1.13546e-21
-5.50596e-19
3.07552e-21
7.03554e-05
-3.76084e-18
-1.13859e-21
-5.68823e-19
3.18911e-21
7.19696e-05
-3.73538e-18
-1.18285e-21
-5.8707e-19
3.29873e-21
7.36179e-05
-3.70334e-18
-1.25511e-21
-6.32599e-19
3.38252e-21
7.53012e-05
-3.68022e-18
-1.3514e-21
-6.65774e-19
3.50599e-21
7.70201e-05
-3.66028e-18
-1.46916e-21
-6.72732e-19
3.65666e-21
7.87755e-05
-3.65862e-18
-1.61973e-21
-6.8504e-19
3.79777e-21
8.05681e-05
-3.65032e-18
-1.78028e-21
-6.94028e-19
3.91018e-21
8.23986e-05
-3.66646e-18
-1.93089e-21
-6.97108e-19
4.00912e-21
8.42679e-05
-3.65235e-18
-2.06899e-21
-7.14433e-19
4.11442e-21
8.61768e-05
-3.64646e-18
-2.21052e-21
-7.31081e-19
4.20184e-21
8.81262e-05
-3.62738e-18
-2.33228e-21
-7.38986e-19
4.23848e-21
9.01169e-05
-3.58649e-18
-2.46823e-21
-7.65914e-19
4.27517e-21
9.21497e-05
-3.5775e-18
-2.66028e-21
-7.83438e-19
4.35227e-21
9.42255e-05
-3.55222e-18
-2.81764e-21
-7.83231e-19
4.43467e-21
9.63453e-05
-3.53826e-18
-2.98572e-21
-8.0836e-19
4.47025e-21
9.851e-05
-3.53167e-18
-3.11969e-21
-8.20902e-19
4.49005e-21
0.00010072
-3.51463e-18
-3.2196e-21
-8.23196e-19
4.51454e-21
0.000102978
-3.48384e-18
-3.33938e-21
-8.35332e-19
4.46257e-21
0.000105283
-3.44685e-18
-3.54115e-21
-8.78679e-19
4.32909e-21
0.000107636
-3.42446e-18
-3.85556e-21
-9.06309e-19
4.20071e-21
0.00011004
-3.41675e-18
-4.22626e-21
-9.15797e-19
4.10029e-21
0.000112494
-3.40199e-18
-4.51113e-21
-9.24771e-19
3.96265e-21
0.000115
-3.37099e-18
-4.7704e-21
-9.6115e-19
3.76138e-21
0.00011756
-3.3487e-18
-5.11699e-21
-9.90534e-19
3.61598e-21
0.000120173
-3.32591e-18
-5.47685e-21
-1.00713e-18
3.4847e-21
0.000122841
-3.32098e-18
-5.84547e-21
-1.01417e-18
3.28516e-21
0.000125566
-3.25552e-18
-6.17301e-21
-1.06434e-18
2.97918e-21
0.000128348
-3.1989e-18
-6.57543e-21
-1.08786e-18
2.75596e-21
0.000131189
-3.1747e-18
-7.17858e-21
-1.09914e-18
2.54006e-21
0.00013409
-3.16125e-18
-7.9318e-21
-1.0989e-18
2.33457e-21
0.000137052
-3.19807e-18
-8.6441e-21
-1.11994e-18
2.05185e-21
0.000140077
-3.17111e-18
-9.02945e-21
-1.15397e-18
1.61071e-21
0.000143165
-3.09797e-18
-9.41601e-21
-1.18986e-18
1.20054e-21
0.000146318
-3.03874e-18
-9.96644e-21
-1.23691e-18
8.45991e-22
0.000149538
-3.00963e-18
-1.05856e-20
-1.25992e-18
4.94154e-22
0.000152825
-2.99816e-18
-1.12504e-20
-1.28202e-18
3.48661e-23
0.000156182
-2.94278e-18
-1.17544e-20
-1.28704e-18
-5.06503e-22
0.000159609
-2.93109e-18
-1.24008e-20
-1.29579e-18
-9.8337e-22
0.000163108
-2.87475e-18
-1.28399e-20
-1.30567e-18
-1.52742e-21
0.000166681
-2.84797e-18
-1.32072e-20
-1.31688e-18
-2.23717e-21
0.000170329
-2.77709e-18
-1.35678e-20
-1.34328e-18
-2.81368e-21
0.000174054
-2.7533e-18
-1.40453e-20
-1.39967e-18
-3.23254e-21
0.000177856
-2.71331e-18
-1.43861e-20
-1.35349e-18
-3.41377e-21
0.000181739
-2.70098e-18
-1.47291e-20
-1.40101e-18
-4.04346e-21
0.000185703
-2.66494e-18
-1.47468e-20
-1.39018e-18
-4.37336e-21
0.00018975
-2.61938e-18
-1.45766e-20
-1.39553e-18
-4.59003e-21
0.000193882
-2.56891e-18
-1.42455e-20
-1.43997e-18
-4.70622e-21
0.0001981
-2.5299e-18
-1.40532e-20
-1.43527e-18
-4.79484e-21
0.000202406
-2.5135e-18
-1.40706e-20
-1.44762e-18
-4.89792e-21
0.000206803
-2.45091e-18
-1.41147e-20
-1.46353e-18
-5.01986e-21
0.000211292
-2.43998e-18
-1.45331e-20
-1.48429e-18
-5.14427e-21
0.000215874
-2.41633e-18
-1.46211e-20
-1.45285e-18
-5.35774e-21
0.000220552
-2.40188e-18
-1.48262e-20
-1.47053e-18
-5.90791e-21
0.000225328
-2.34489e-18
-1.48468e-20
-1.46269e-18
-6.29519e-21
0.000230203
-2.32682e-18
-1.488e-20
-1.46083e-18
-6.66253e-21
0.00023518
-2.29881e-18
-1.47147e-20
-1.45585e-18
-6.83832e-21
0.000240261
-2.31152e-18
-1.4722e-20
-1.42097e-18
-6.67508e-21
0.000245447
-2.26749e-18
-1.42293e-20
-1.48345e-18
-7.15902e-21
0.000250741
-2.17805e-18
-1.4017e-20
-1.57086e-18
-7.67298e-21
0.000256146
-2.17064e-18
-1.48207e-20
-1.62179e-18
-8.3063e-21
0.000261662
-2.12096e-18
-1.53472e-20
-1.65296e-18
-8.89448e-21
0.000267293
-2.08895e-18
-1.58316e-20
-1.67002e-18
-9.63968e-21
0.000273041
-2.05832e-18
-1.58703e-20
-1.70308e-18
-1.09187e-20
0.000278908
-2.0238e-18
-1.55885e-20
-1.73258e-18
-1.2019e-20
0.000284896
-2.03736e-18
-1.59179e-20
-1.71139e-18
-1.16067e-20
0.000291008
-2.00217e-18
-1.49346e-20
-1.73755e-18
-1.23229e-20
0.000297247
-1.93553e-18
-1.46673e-20
-1.72875e-18
-1.32018e-20
0.000303614
-1.90997e-18
-1.49195e-20
-1.74517e-18
-1.44818e-20
0.000310113
-1.93399e-18
-1.65683e-20
-1.78647e-18
-1.4768e-20
0.000316746
-1.89729e-18
-1.81316e-20
-1.79936e-18
-1.52111e-20
0.000323515
-1.87838e-18
-1.95921e-20
-1.79286e-18
-1.6258e-20
0.000330423
-1.84324e-18
-2.10905e-20
-1.78464e-18
-1.78121e-20
0.000337474
-1.81693e-18
-2.25803e-20
-1.80773e-18
-1.91112e-20
0.000344669
-1.82045e-18
-2.39158e-20
-1.81595e-18
-2.04638e-20
0.000352011
-1.78068e-18
-2.50197e-20
-1.81144e-18
-2.06673e-20
0.000359504
-1.80151e-18
-2.62669e-20
-1.82325e-18
-2.11853e-20
0.000367149
-1.77579e-18
-2.5384e-20
-1.74118e-18
-2.10305e-20
0.000374951
-1.72577e-18
-2.48575e-20
-1.65919e-18
-2.27233e-20
0.000382912
-1.75891e-18
-2.5583e-20
-1.63246e-18
-2.45919e-20
0.000391035
-1.66493e-18
-2.44141e-20
-1.63885e-18
-2.61604e-20
0.000399323
-1.66487e-18
-2.57782e-20
-1.58982e-18
-2.78562e-20
0.000407779
-1.57406e-18
-2.65014e-20
-1.60978e-18
-2.77538e-20
0.000416406
-1.59792e-18
-2.86974e-20
-1.46887e-18
-2.4038e-20
0.000425208
-1.58292e-18
-2.96123e-20
-1.47446e-18
-2.11757e-20
0.000434187
-1.48713e-18
-2.87429e-20
-1.47804e-18
-1.99755e-20
0.000443347
-1.46039e-18
-3.10405e-20
-1.46206e-18
-2.05581e-20
0.000452691
-1.42177e-18
-3.20614e-20
-1.44822e-18
-2.14382e-20
0.000462223
-1.38089e-18
-3.30751e-20
-1.40334e-18
-2.37129e-20
0.000471945
-1.33571e-18
-3.17747e-20
-1.38568e-18
-2.6718e-20
0.000481861
-1.27477e-18
-3.28009e-20
-1.37331e-18
-2.70068e-20
0.000491975
-1.40464e-18
-3.75072e-20
-1.30873e-18
-2.6867e-20
0.00050229
-1.42772e-18
-3.97451e-20
-1.40458e-18
-3.06048e-20
0.000512809
-1.40119e-18
-3.92581e-20
-1.42317e-18
-3.21394e-20
0.000523535
-1.4809e-18
-4.1024e-20
-1.32723e-18
-3.18953e-20
0.000534473
-1.41321e-18
-3.9908e-20
-1.33946e-18
-3.12312e-20
0.000545625
-1.38851e-18
-3.86221e-20
-1.44212e-18
-2.96261e-20
0.000556996
-1.38644e-18
-3.99083e-20
-1.37783e-18
-2.6331e-20
0.000568587
-1.43949e-18
-4.46125e-20
-1.39788e-18
-2.58424e-20
0.000580404
-1.33708e-18
-3.82706e-20
-1.31282e-18
-2.59386e-20
0.000592449
-1.34878e-18
-3.94524e-20
-1.37737e-18
-2.94462e-20
0.000604725
-1.37326e-18
-4.074e-20
-1.30159e-18
-2.63877e-20
0.000617237
-1.35804e-18
-4.27348e-20
-1.32303e-18
-2.6576e-20
0.000629986
-1.38493e-18
-4.06128e-20
-1.28661e-18
-2.84661e-20
0.000642977
-1.28828e-18
-3.99262e-20
-1.31903e-18
-3.04767e-20
0.000656212
-1.27233e-18
-3.47332e-20
-1.26056e-18
-3.50776e-20
0.000669695
-1.17158e-18
-2.72952e-20
-1.28318e-18
-3.57393e-20
0.000683428
-1.41407e-18
-2.91125e-20
-1.33702e-18
-2.62218e-20
0.000697414
-1.28811e-18
-1.53192e-20
-1.32445e-18
-1.89225e-20
0.000711655
-1.18235e-18
-1.52204e-20
-1.30964e-18
-1.10919e-20
0.000726154
-1.22205e-18
-2.08873e-20
-1.3256e-18
-8.92823e-21
0.000740914
-1.17639e-18
-1.90975e-20
-1.40857e-18
-9.3025e-21
0.000755935
-1.25399e-18
-2.15216e-20
-1.41953e-18
-1.04433e-20
0.000771219
-1.15501e-18
-1.81354e-20
-1.48425e-18
-1.58436e-20
0.000786768
-1.22644e-18
-3.46563e-20
-1.45533e-18
-2.12308e-20
0.000802583
-1.27237e-18
-3.85726e-20
-1.3833e-18
-2.7444e-20
0.000818663
-1.36706e-18
-2.76114e-20
-1.2034e-18
-2.07547e-20
0.000835009
-1.37281e-18
-3.29005e-20
-1.2965e-18
-2.49388e-20
0.000851619
-1.38498e-18
-5.45794e-20
-1.30054e-18
-1.7209e-20
0.000868493
-1.37356e-18
-5.65767e-20
-1.27534e-18
-1.87112e-20
0.000885628
-1.55593e-18
-5.79931e-20
-1.21039e-18
-9.7345e-21
0.000903022
-1.30997e-18
-3.59476e-20
-1.18094e-18
-9.06422e-21
0.000920671
-1.29361e-18
-3.53641e-20
-1.16886e-18
-9.17037e-21
0.000938571
-1.2686e-18
-2.76685e-20
-1.04804e-18
-1.66338e-21
0.000956715
-1.02395e-18
-1.16557e-21
-1.1789e-18
-1.47386e-20
0.000975098
-1.12046e-18
-8.07527e-21
-1.08306e-18
-2.24897e-20
0.000993713
-1.17449e-18
4.05582e-21
-1.02958e-18
-3.19379e-20
0.00101255
-1.01299e-18
1.62794e-20
-1.11382e-18
-3.9969e-20
0.0010316
1.06358e-20
-1.03277e-18
-1.53818e-20
-9.92004e-19
2.99945e-08
-5.64985e-23
5.94332e-23
9.2222e-08
1.17107e-22
2.04884e-22
1.57923e-07
2.93126e-22
3.72674e-22
2.27248e-07
4.46394e-22
5.17955e-22
3.00355e-07
5.67492e-22
7.26413e-22
3.77407e-07
6.93316e-22
9.50304e-22
4.58574e-07
8.40918e-22
1.12652e-21
5.44033e-07
8.47615e-22
1.3927e-21
6.33968e-07
8.29931e-22
1.73941e-21
7.28568e-07
8.37744e-22
2.09677e-21
8.28031e-07
9.29697e-22
2.43606e-21
9.32561e-07
8.47424e-22
2.81721e-21
1.04237e-06
9.25723e-22
2.96742e-21
1.15767e-06
9.99484e-22
3.24821e-21
1.27869e-06
1.0121e-21
3.49193e-21
1.40565e-06
9.98656e-22
3.99825e-21
1.53879e-06
7.03057e-22
4.66046e-21
1.67834e-06
5.12415e-22
5.01433e-21
1.82453e-06
2.89621e-22
5.32325e-21
1.9776e-06
3.64424e-22
5.92605e-21
2.13777e-06
5.11152e-22
6.64174e-21
2.30527e-06
6.08519e-22
7.21585e-21
2.4803e-06
3.91777e-22
7.62922e-21
2.66305e-06
1.12491e-22
7.57156e-21
2.85369e-06
5.39961e-22
7.01185e-21
3.05236e-06
5.11762e-22
6.89594e-21
3.25919e-06
3.13325e-22
7.37467e-21
3.47425e-06
-1.22446e-22
7.4317e-21
3.69757e-06
-3.66929e-22
7.32709e-21
3.92917e-06
-8.46252e-22
7.64359e-21
4.16902e-06
-1.9856e-21
8.71711e-21
4.41702e-06
-2.02095e-21
8.13786e-21
4.67308e-06
-2.51675e-21
7.48794e-21
4.93706e-06
-3.14848e-21
8.43535e-21
5.20878e-06
-2.98178e-21
7.44017e-21
5.48807e-06
-5.07687e-21
9.06735e-21
5.77473e-06
-5.21626e-21
8.96819e-21
6.06857e-06
-5.9487e-21
8.73271e-21
6.3694e-06
-5.96663e-21
9.43299e-21
6.67705e-06
-6.83366e-21
1.02112e-20
6.99136e-06
-7.63329e-21
9.89828e-21
7.31218e-06
-8.36337e-21
9.76183e-21
7.63941e-06
-8.64574e-21
1.04362e-20
7.97296e-06
-9.09865e-21
9.98146e-21
8.31277e-06
-9.13665e-21
9.96615e-21
8.65881e-06
-1.1897e-20
1.23776e-20
9.01107e-06
-1.4649e-20
1.34011e-20
9.36959e-06
-1.60617e-20
1.32119e-20
9.73439e-06
-1.75746e-20
1.30757e-20
1.01055e-05
-1.96094e-20
1.38615e-20
1.04832e-05
-2.03107e-20
1.3232e-20
1.08673e-05
-2.20355e-20
1.31828e-20
1.12581e-05
-2.37407e-20
1.29936e-20
1.16557e-05
-2.46361e-20
1.28427e-20
1.20603e-05
-2.54411e-20
1.19995e-20
1.2472e-05
-2.72375e-20
1.26091e-20
1.28909e-05
-2.59285e-20
1.19339e-20
1.33174e-05
-2.63496e-20
1.50668e-20
1.37514e-05
-2.75805e-20
1.50873e-20
1.41933e-05
-2.81822e-20
1.39114e-20
1.46433e-05
-2.97652e-20
1.28204e-20
1.51014e-05
-3.1347e-20
1.65268e-20
1.55681e-05
-3.11747e-20
1.78087e-20
1.60435e-05
-3.33001e-20
2.11949e-20
1.65277e-05
-3.27668e-20
1.76557e-20
1.70211e-05
-3.24421e-20
1.64973e-20
1.75239e-05
-3.89574e-20
1.95327e-20
1.80363e-05
-4.14785e-20
2.02148e-20
1.85586e-05
-4.30211e-20
1.11319e-20
1.90909e-05
-4.60297e-20
1.23461e-20
1.96337e-05
-4.80919e-20
1.22003e-20
2.0187e-05
-5.17432e-20
1.36731e-20
2.07513e-05
-5.37614e-20
1.20995e-20
2.13267e-05
-5.93767e-20
1.21017e-20
2.19135e-05
-5.9936e-20
1.18533e-20
2.25121e-05
-6.33832e-20
1.31128e-20
2.31226e-05
-6.34802e-20
1.10063e-20
2.37454e-05
-6.26991e-20
9.41287e-21
2.43807e-05
-6.45655e-20
7.87097e-21
2.50289e-05
-6.71833e-20
7.36039e-21
2.56903e-05
-6.11382e-20
3.78785e-22
2.63652e-05
-5.91706e-20
3.12659e-21
2.70538e-05
-6.0212e-20
8.63905e-21
2.77566e-05
-6.2281e-20
7.22658e-21
2.84737e-05
-6.39533e-20
7.84921e-21
2.92057e-05
-6.22566e-20
6.50662e-21
2.99527e-05
-6.12841e-20
5.52484e-21
3.07151e-05
-6.1038e-20
1.29067e-20
3.14934e-05
-6.06788e-20
1.40285e-20
3.22878e-05
-6.26703e-20
8.79455e-21
3.30987e-05
-5.74609e-20
1.26652e-20
3.39265e-05
-5.64733e-20
1.43726e-20
3.47715e-05
-5.78965e-20
1.59643e-20
3.56342e-05
-5.51582e-20
2.21378e-20
3.65149e-05
-5.91153e-20
2.15549e-20
3.7414e-05
-5.79278e-20
2.82103e-20
3.8332e-05
-5.62487e-20
2.48156e-20
3.92692e-05
-5.71154e-20
2.25157e-20
4.02261e-05
-5.83419e-20
1.59553e-20
4.12031e-05
-6.31731e-20
1.99754e-20
4.22006e-05
-6.25285e-20
2.40638e-20
4.32191e-05
-5.92102e-20
2.20999e-20
4.42591e-05
-5.98415e-20
2.30412e-20
4.5321e-05
-4.89341e-20
2.24151e-20
4.64053e-05
-4.66694e-20
2.33665e-20
4.75125e-05
-5.33709e-20
2.31551e-20
4.8643e-05
-4.68053e-20
2.84436e-20
4.97974e-05
-4.71801e-20
3.27983e-20
5.09763e-05
-4.73251e-20
2.57844e-20
5.218e-05
-5.15573e-20
3.61991e-20
5.34092e-05
-3.58889e-20
4.03687e-20
5.46644e-05
-3.8594e-20
4.77561e-20
5.59461e-05
-3.69906e-20
6.07826e-20
5.7255e-05
-3.60394e-20
5.80801e-20
5.85916e-05
-3.98472e-20
6.63943e-20
5.99564e-05
-3.12857e-20
7.06117e-20
6.13502e-05
-2.41138e-20
9.60019e-20
6.27735e-05
-2.3315e-20
1.00815e-19
6.4227e-05
-1.82425e-20
9.81142e-20
6.57113e-05
-4.08874e-21
9.65138e-20
6.7227e-05
-8.52422e-21
1.02511e-19
6.87748e-05
2.8208e-21
1.1511e-19
7.03554e-05
-1.52259e-20
1.24217e-19
7.19696e-05
-1.95424e-20
1.17495e-19
7.36179e-05
-1.4761e-20
1.32141e-19
7.53012e-05
-7.73214e-21
1.39233e-19
7.70201e-05
-3.04439e-21
1.44103e-19
7.87755e-05
-4.67976e-21
1.39646e-19
8.05681e-05
7.66551e-21
1.34052e-19
8.23986e-05
-5.73178e-21
1.38029e-19
8.42679e-05
-4.02412e-21
1.3954e-19
8.61768e-05
-3.08478e-21
1.35722e-19
8.81262e-05
-1.3849e-20
1.49254e-19
9.01169e-05
-3.12582e-20
1.48667e-19
9.21497e-05
-3.36299e-20
1.53064e-19
9.42255e-05
-3.82776e-20
1.62761e-19
9.63453e-05
-2.86861e-20
1.57862e-19
9.851e-05
-1.81662e-20
1.68729e-19
0.00010072
-1.40024e-20
1.58652e-19
0.000102978
-2.2188e-20
1.51224e-19
0.000105283
-2.88816e-20
1.44194e-19
0.000107636
-2.55245e-20
1.49751e-19
0.00011004
5.58391e-21
1.50365e-19
0.000112494
1.53228e-20
1.41804e-19
0.000115
1.05468e-22
1.42212e-19
0.00011756
-1.55411e-21
1.40526e-19
0.000120173
-2.09846e-21
1.37544e-19
0.000122841
-9.93023e-21
1.33858e-19
0.000125566
-4.78044e-21
1.31387e-19
0.000128348
-4.99675e-20
1.21002e-19
0.000131189
-9.72204e-20
1.43471e-19
0.00013409
-9.25645e-20
1.71729e-19
0.000137052
-6.45324e-20
1.49677e-19
0.000140077
-5.40694e-20
1.45268e-19
0.000143165
-5.54772e-20
1.39021e-19
0.000146318
-6.86221e-20
1.26206e-19
0.000149538
-9.73089e-20
1.20361e-19
0.000152825
-8.61169e-20
1.03487e-19
0.000156182
-9.86706e-20
1.19213e-19
0.000159609
-8.89144e-20
1.27278e-19
0.000163108
-6.11924e-20
1.11868e-19
0.000166681
-6.321e-20
1.1957e-19
0.000170329
-3.71567e-20
1.29867e-19
0.000174054
-2.19271e-20
1.22823e-19
0.000177856
-3.08834e-20
9.47063e-20
0.000181739
-2.13854e-20
9.52145e-20
0.000185703
-1.04801e-20
7.89398e-20
0.00018975
1.24391e-21
5.81202e-20
0.000193882
-2.26364e-20
3.93022e-20
0.0001981
-5.17588e-20
5.00083e-20
0.000202406
-7.34917e-20
3.50759e-20
0.000206803
-9.45077e-20
4.71204e-20
0.000211292
-6.59887e-20
3.45194e-20
0.000215874
-9.37297e-20
2.00466e-20
0.000220552
-1.13966e-19
-3.12807e-21
0.000225328
-1.14379e-19
-2.21185e-20
0.000230203
-1.29268e-19
-2.97443e-20
0.00023518
-1.58012e-19
-1.53808e-20
0.000240261
-1.6796e-19
-3.18392e-20
0.000245447
-2.04036e-19
-6.2129e-20
0.000250741
-2.32974e-19
-1.16161e-19
0.000256146
-2.2261e-19
-1.38814e-19
0.000261662
-1.97831e-19
-1.57786e-19
0.000267293
-1.52635e-19
-1.63774e-19
0.000273041
-1.10666e-19
-1.81266e-19
0.000278908
-1.42498e-19
-1.27694e-19
0.000284896
-9.4713e-20
-1.55316e-19
0.000291008
-1.34033e-19
-1.16932e-19
0.000297247
-1.03038e-19
-1.12656e-19
0.000303614
-1.74837e-19
-7.12796e-20
0.000310113
-2.17209e-19
-1.33067e-19
0.000316746
-2.18937e-19
-1.89602e-19
0.000323515
-2.44015e-19
-1.93977e-19
0.000330423
-2.44685e-19
-1.56451e-19
0.000337474
-2.6073e-19
-2.01762e-19
0.000344669
-2.85219e-19
-1.85952e-19
0.000352011
-2.76806e-19
-2.12744e-19
0.000359504
-2.41587e-19
-1.98774e-19
0.000367149
-2.78026e-19
-2.39145e-19
0.000374951
-3.16334e-19
-2.63055e-19
0.000382912
-3.00136e-19
-3.22878e-19
0.000391035
-3.50272e-19
-3.74221e-19
0.000399323
-3.6739e-19
-3.31169e-19
0.000407779
-4.04537e-19
-3.31009e-19
0.000416406
-4.5616e-19
-3.06027e-19
0.000425208
-4.41666e-19
-3.56827e-19
0.000434187
-5.08359e-19
-3.93633e-19
0.000443347
-4.69904e-19
-4.03734e-19
0.000452691
-4.68648e-19
-4.68078e-19
0.000462223
-3.91709e-19
-5.15022e-19
0.000471945
-4.51069e-19
-4.80465e-19
0.000481861
-5.2885e-19
-4.84854e-19
0.000491975
-5.90365e-19
-5.23539e-19
0.00050229
-5.2671e-19
-5.07912e-19
0.000512809
-5.64434e-19
-5.08181e-19
0.000523535
-6.27111e-19
-5.29593e-19
0.000534473
-6.16909e-19
-5.48323e-19
0.000545625
-6.28134e-19
-5.78112e-19
0.000556996
-6.418e-19
-5.53811e-19
0.000568587
-4.33004e-19
-5.18051e-19
0.000580404
-5.09342e-19
-4.99584e-19
0.000592449
-5.58705e-19
-5.28561e-19
0.000604725
-6.40164e-19
-5.46524e-19
0.000617237
-5.74928e-19
-5.50358e-19
0.000629986
-6.35795e-19
-5.14125e-19
0.000642977
-4.77535e-19
-6.1081e-19
0.000656212
-4.64851e-19
-5.96508e-19
0.000669695
-5.36767e-19
-5.5605e-19
0.000683428
-5.4308e-19
-5.74212e-19
0.000697414
-6.45334e-19
-5.41575e-19
0.000711655
-6.14793e-19
-6.48912e-19
0.000726154
-5.10814e-19
-6.28978e-19
0.000740914
-5.13563e-19
-6.56235e-19
0.000755935
-4.69374e-19
-6.42977e-19
0.000771219
-5.51722e-19
-6.16288e-19
0.000786768
-5.11384e-19
-6.50761e-19
0.000802583
-4.51381e-19
-5.84497e-19
0.000818663
-7.29423e-19
-5.83083e-19
0.000835009
-9.16128e-19
-5.05138e-19
0.000851619
-7.44497e-19
-6.83391e-19
0.000868493
-7.57408e-19
-7.12589e-19
0.000885628
-7.74958e-19
-7.82088e-19
0.000903022
-8.21603e-19
-7.66425e-19
0.000920671
-8.59796e-19
-7.90062e-19
0.000938571
-7.38861e-19
-9.13201e-19
0.000956715
-7.34363e-19
-9.04388e-19
0.000975098
-6.68679e-19
-7.72464e-19
0.000993713
-7.76417e-19
-7.5858e-19
0.00101255
-7.50749e-19
-5.75671e-19
0.0010316
-9.12096e-19
-7.48989e-19
0.0010316
-9.15473e-19
-1.52841e-20
-1.03404e-18
-3.03392e-20
0.00101255
-8.64363e-19
-2.25925e-20
-8.98088e-19
-1.84212e-20
0.000993713
-7.33712e-19
-1.67835e-20
-8.2884e-19
-8.15282e-21
0.000975098
-7.50637e-19
-2.55525e-20
-7.62355e-19
9.44272e-21
0.000956715
-7.4483e-19
-1.87028e-21
-7.79234e-19
1.44413e-20
0.000938571
-7.77904e-19
-1.20001e-22
-7.53975e-19
1.37026e-20
0.000920671
-7.49795e-19
3.19091e-21
-7.1331e-19
1.54576e-20
0.000903022
-7.40341e-19
1.00423e-20
-7.41577e-19
6.89118e-21
0.000885628
-7.76372e-19
5.81048e-21
-7.1529e-19
-1.36811e-21
0.000868493
-7.21643e-19
8.6835e-21
-7.37266e-19
-6.41289e-21
0.000851619
-6.87634e-19
1.1713e-20
-7.42651e-19
-8.97619e-21
0.000835009
-6.75695e-19
4.61093e-21
-7.64057e-19
-1.37604e-20
0.000818663
-6.33357e-19
9.67622e-21
-7.1598e-19
-1.14328e-20
0.000802583
-6.29983e-19
1.22663e-21
-5.74202e-19
3.53858e-21
0.000786768
-6.02914e-19
-5.85923e-21
-6.68413e-19
4.17812e-21
0.000771219
-6.55304e-19
-1.31744e-20
-4.95984e-19
-1.50786e-21
0.000755935
-7.08915e-19
-9.72915e-21
-5.51285e-19
-1.09448e-20
0.000740914
-6.81609e-19
2.48156e-21
-5.13305e-19
-1.035e-20
0.000726154
-4.9829e-19
8.27854e-21
-5.52581e-19
-1.07566e-20
0.000711655
-6.09411e-19
7.04282e-21
-5.78163e-19
-1.58765e-20
0.000697414
-4.70846e-19
6.26539e-21
-7.03142e-19
-1.78592e-20
0.000683428
-4.66081e-19
3.22889e-21
-6.13878e-19
-1.40418e-20
0.000669695
-4.85216e-19
2.80244e-22
-4.19401e-19
-1.36339e-20
0.000656212
-4.87186e-19
3.00913e-21
-3.43603e-19
-1.45541e-20
0.000642977
-5.1762e-19
-3.74289e-21
-2.71292e-19
-1.10708e-20
0.000629986
-3.03855e-19
-6.05517e-21
-4.37224e-19
-1.1596e-20
0.000617237
-3.94457e-19
-5.9699e-21
-4.48789e-19
-1.04574e-20
0.000604725
-2.84998e-19
-2.21373e-21
-4.8764e-19
-5.44103e-21
0.000592449
-3.80383e-19
-6.00499e-21
-3.76954e-19
4.58668e-22
0.000580404
-3.87905e-19
-7.62164e-21
-3.66577e-19
-3.52548e-23
0.000568587
-3.82627e-19
-9.9847e-21
-3.88425e-19
1.65362e-21
0.000556996
-3.46587e-19
-2.26583e-21
-4.06883e-19
1.07051e-21
0.000545625
-3.80726e-19
1.67534e-21
-3.90327e-19
8.99207e-22
0.000534473
-2.98088e-19
4.63625e-21
-4.68046e-19
-5.61419e-22
0.000523535
-3.57823e-19
7.28599e-21
-3.53828e-19
-6.72311e-22
0.000512809
-3.7566e-19
5.18192e-21
-4.04604e-19
-3.85553e-21
0.00050229
-3.36517e-19
-2.00211e-21
-4.8127e-19
-6.54764e-21
0.000491975
-4.32732e-19
-2.42757e-21
-3.77997e-19
-2.25694e-21
0.000481861
-4.04477e-19
-1.53805e-21
-3.73089e-19
-2.06246e-21
0.000471945
-3.63855e-19
-1.30462e-21
-3.90647e-19
-3.79783e-21
0.000462223
-3.50629e-19
-1.51929e-21
-4.19768e-19
-3.08826e-21
0.000452691
-4.10301e-19
-1.71262e-21
-3.6361e-19
-3.84588e-21
0.000443347
-3.39807e-19
-2.80494e-21
-3.49218e-19
-3.78956e-21
0.000434187
-3.2891e-19
-4.81856e-21
-3.81122e-19
-3.99831e-21
0.000425208
-4.09501e-19
-5.66648e-21
-2.88766e-19
-2.60979e-21
0.000416406
-3.87266e-19
-4.0886e-21
-3.10721e-19
-4.80612e-21
0.000407779
-3.00103e-19
-3.73832e-21
-3.28658e-19
-6.02454e-21
0.000399323
-3.45552e-19
-5.04249e-21
-2.87419e-19
-3.3734e-21
0.000391035
-3.5682e-19
-4.54378e-21
-3.01373e-19
-3.88356e-21
0.000382912
-3.42377e-19
-4.18756e-21
-2.92486e-19
-3.647e-21
0.000374951
-3.29087e-19
-2.1898e-21
-2.62943e-19
-3.67348e-21
0.000367149
-3.29143e-19
-3.05867e-23
-2.17091e-19
-4.24401e-21
0.000359504
-3.4367e-19
2.13452e-21
-2.27293e-19
-4.02096e-21
0.000352011
-2.71727e-19
4.35005e-21
-2.05136e-19
-4.51419e-21
0.000344669
-1.77147e-19
4.06822e-21
-3.06901e-19
-6.3665e-21
0.000337474
-2.18635e-19
2.67244e-21
-3.12395e-19
-5.27997e-21
0.000330423
-1.8891e-19
2.86434e-21
-2.68019e-19
-3.60206e-21
0.000323515
-1.74773e-19
2.26756e-21
-2.5475e-19
-2.91871e-21
0.000316746
-1.82509e-19
1.08285e-21
-2.13515e-19
-2.02096e-21
0.000310113
-1.74167e-19
3.64575e-22
-2.12125e-19
-1.84696e-21
0.000303614
-1.68601e-19
-2.24411e-22
-2.08961e-19
-9.98057e-22
0.000297247
-1.59769e-19
-2.87753e-22
-1.7226e-19
-2.6137e-22
0.000291008
-1.49967e-19
-8.03856e-22
-1.78118e-19
-1.09262e-22
0.000284896
-1.64941e-19
-1.03211e-21
-1.65339e-19
4.73494e-23
0.000278908
-1.60299e-19
-3.92492e-22
-1.73991e-19
-9.60711e-22
0.000273041
-1.76197e-19
-7.33182e-22
-1.38248e-19
-9.93e-22