/*--------------------------------*- C++ -*----------------------------------*\
| =========                 |                                                 |
| \\      /  F ield         | OpenFOAM: The Open Source CFD Toolbox           |
|  \\    /   O peration     | Version:  2106                                  |
|   \\  /    A nd           | Website:  www.openfoam.com                      |
|    \\/     M anipulation  |                                                 |
\*---------------------------------------------------------------------------*/
FoamFile
{
    version     2.0;
    format      ascii;
    arch        "LSB;label=32;scalar=64";
    class       volSymmTensorField;
    location    "10050";
    object      turbulenceProperties:R;
}
// * * * * * * * * * * * * * * * * * * * * * * * * * * * * * * * * * * * * * //

dimensions      [0 2 -2 0 0 0 0];

internalField   nonuniform List<symmTensor> 
2000
(
(2.28001e-07 -1.50841e-11 -2.79178e-14 2.28001e-07 3.00496e-27 2.28001e-07)
(2.28001e-07 -1.50841e-11 -2.79178e-14 2.28001e-07 6.1559e-30 2.28001e-07)
(3.94784e-08 -1.50456e-11 -8.40648e-14 3.94784e-08 -4.38516e-27 3.94784e-08)
(3.94784e-08 -1.50456e-11 -8.40648e-14 3.94784e-08 -4.59237e-42 3.94784e-08)
(5.41185e-08 -6.10673e-11 -4.7342e-13 5.41185e-08 -5.41913e-27 5.41185e-08)
(5.41185e-08 -6.10673e-11 -4.7342e-13 5.41185e-08 -4.47562e-29 5.41185e-08)
(1.6831e-07 -4.04385e-10 -3.19348e-12 1.6831e-07 -3.71926e-26 1.6831e-07)
(1.6831e-07 -4.04385e-10 -3.19348e-12 1.6831e-07 -1.36434e-28 1.6831e-07)
(4.35073e-07 -1.85192e-09 -1.48978e-11 4.35073e-07 -2.98992e-25 4.35073e-07)
(4.35073e-07 -1.85192e-09 -1.48978e-11 4.35073e-07 -4.58033e-28 4.35073e-07)
(9.34533e-07 -6.28947e-09 -5.15401e-11 9.34533e-07 -1.21337e-24 9.34533e-07)
(9.34533e-07 -6.28947e-09 -5.15401e-11 9.34533e-07 -1.22986e-27 9.34533e-07)
(1.76422e-06 -1.73944e-08 -1.45201e-10 1.76422e-06 -3.53049e-24 1.76422e-06)
(1.76422e-06 -1.73944e-08 -1.45201e-10 1.76422e-06 -3.80057e-27 1.76422e-06)
(3.03831e-06 -4.15653e-08 -3.53447e-10 3.03831e-06 -8.67776e-24 3.03831e-06)
(3.03831e-06 -4.15653e-08 -3.53447e-10 3.03831e-06 -1.26659e-26 3.03831e-06)
(4.88823e-06 -8.91042e-08 -7.71827e-10 4.88823e-06 -1.90812e-23 4.88823e-06)
(4.88823e-06 -8.91042e-08 -7.71827e-10 4.88823e-06 -1.93717e-26 4.88823e-06)
(7.46368e-06 -1.75686e-07 -1.5502e-09 7.46368e-06 -3.86358e-23 7.46368e-06)
(7.46368e-06 -1.75686e-07 -1.5502e-09 7.46368e-06 -1.70511e-26 7.46368e-06)
(1.09339e-05 -3.24156e-07 -2.91359e-09 1.09339e-05 -7.30446e-23 1.09339e-05)
(1.09339e-05 -3.24156e-07 -2.91359e-09 1.09339e-05 -5.77369e-26 1.09339e-05)
(1.54887e-05 -5.66682e-07 -5.18844e-09 1.54887e-05 -1.30699e-22 1.54887e-05)
(1.54887e-05 -5.66682e-07 -5.18844e-09 1.54887e-05 -1.36938e-25 1.54887e-05)
(2.134e-05 -9.47298e-07 -8.83494e-09 2.134e-05 -2.2344e-22 2.134e-05)
(2.134e-05 -9.47298e-07 -8.83494e-09 2.134e-05 -2.356e-25 2.134e-05)
(2.87228e-05 -1.52483e-06 -1.44862e-08 2.87228e-05 -3.67669e-22 2.87228e-05)
(2.87228e-05 -1.52483e-06 -1.44862e-08 2.87228e-05 -3.15268e-25 2.87228e-05)
(3.78961e-05 -2.37621e-06 -2.29945e-08 3.78961e-05 -5.85334e-22 3.78961e-05)
(3.78961e-05 -2.37621e-06 -2.29945e-08 3.78961e-05 -1.65187e-25 3.78961e-05)
(4.91437e-05 -3.60008e-06 -3.54855e-08 4.91437e-05 -9.05483e-22 4.91437e-05)
(4.91437e-05 -3.60008e-06 -3.54855e-08 4.91437e-05 1.21429e-25 4.91437e-05)
(6.27746e-05 -5.32064e-06 -5.34183e-08 6.27746e-05 -1.36564e-21 6.27746e-05)
(6.27746e-05 -5.32064e-06 -5.34183e-08 6.27746e-05 -8.13532e-26 6.27746e-05)
(7.91222e-05 -7.69144e-06 -7.86522e-08 7.91222e-05 -2.01e-21 7.91222e-05)
(7.91222e-05 -7.69144e-06 -7.86522e-08 7.91222e-05 -3.83752e-25 7.91222e-05)
(9.85436e-05 -1.0899e-05 -1.13515e-07 9.85436e-05 -2.89638e-21 9.85436e-05)
(9.85436e-05 -1.0899e-05 -1.13515e-07 9.85436e-05 4.04864e-25 9.85436e-05)
(0.000121417 -1.51659e-05 -1.60871e-07 0.000121417 -4.09419e-21 0.000121417)
(0.000121417 -1.51659e-05 -1.60871e-07 0.000121417 -2.21662e-24 0.000121417)
(0.000148139 -2.07525e-05 -2.24181e-07 0.000148139 -5.68065e-21 0.000148139)
(0.000148139 -2.07525e-05 -2.24181e-07 0.000148139 -1.01056e-23 0.000148139)
(0.000179119 -2.79569e-05 -3.0755e-07 0.000179119 -7.74522e-21 0.000179119)
(0.000179119 -2.79569e-05 -3.0755e-07 0.000179119 -7.25705e-24 0.000179119)
(0.000214771 -3.71137e-05 -4.15748e-07 0.000214771 -1.0378e-20 0.000214771)
(0.000214771 -3.71137e-05 -4.15748e-07 0.000214771 1.01393e-23 0.000214771)
(0.000255508 -4.8588e-05 -5.54198e-07 0.000255508 -1.36603e-20 0.000255508)
(0.000255508 -4.8588e-05 -5.54198e-07 0.000255508 1.7066e-23 0.000255508)
(0.000301729 -6.27675e-05 -7.28918e-07 0.000301729 -1.76722e-20 0.000301729)
(0.000301729 -6.27675e-05 -7.28918e-07 0.000301729 3.08019e-23 0.000301729)
(0.000353806 -8.00504e-05 -9.46412e-07 0.000353806 -2.24909e-20 0.000353806)
(0.000353806 -8.00504e-05 -9.46412e-07 0.000353806 5.24027e-23 0.000353806)
(0.00041207 -0.000100829 -1.2135e-06 0.00041207 -2.81409e-20 0.00041207)
(0.00041207 -0.000100829 -1.2135e-06 0.00041207 5.97775e-23 0.00041207)
(0.000476797 -0.000125471 -1.5371e-06 0.000476797 -3.46055e-20 0.000476797)
(0.000476797 -0.000125471 -1.5371e-06 0.000476797 1.09358e-22 0.000476797)
(0.000548191 -0.000154298 -1.92394e-06 0.000548191 -4.18382e-20 0.000548191)
(0.000548191 -0.000154298 -1.92394e-06 0.000548191 1.87875e-22 0.000548191)
(0.000626368 -0.000187564 -2.38026e-06 0.000626368 -4.992e-20 0.000626368)
(0.000626368 -0.000187564 -2.38026e-06 0.000626368 3.15248e-22 0.000626368)
(0.000711347 -0.000225435 -2.91147e-06 0.000711347 -5.77511e-20 0.000711347)
(0.000711347 -0.000225435 -2.91147e-06 0.000711347 3.71539e-22 0.000711347)
(0.000803033 -0.000267971 -3.52191e-06 0.000803033 -6.73654e-20 0.000803033)
(0.000803033 -0.000267971 -3.52191e-06 0.000803033 3.28004e-22 0.000803033)
(0.000901221 -0.000315117 -4.21452e-06 0.000901221 -7.60015e-20 0.000901221)
(0.000901221 -0.000315117 -4.21452e-06 0.000901221 5.34546e-22 0.000901221)
(0.00100559 -0.000366698 -4.99076e-06 0.00100559 -8.49246e-20 0.00100559)
(0.00100559 -0.000366698 -4.99076e-06 0.00100559 9.31499e-22 0.00100559)
(0.0011157 -0.000422424 -5.85047e-06 0.0011157 -9.34137e-20 0.0011157)
(0.0011157 -0.000422424 -5.85047e-06 0.0011157 1.16307e-21 0.0011157)
(0.00123102 -0.0004819 -6.79191e-06 0.00123102 -1.01258e-19 0.00123102)
(0.00123102 -0.0004819 -6.79191e-06 0.00123102 1.68831e-21 0.00123102)
(0.00135095 -0.000544644 -7.81192e-06 0.00135095 -1.08376e-19 0.00135095)
(0.00135095 -0.000544644 -7.81192e-06 0.00135095 2.30085e-21 0.00135095)
(0.00147478 -0.000610112 -8.9061e-06 0.00147478 -1.1447e-19 0.00147478)
(0.00147478 -0.000610112 -8.9061e-06 0.00147478 3.24366e-21 0.00147478)
(0.0016018 -0.000677722 -1.00691e-05 0.0016018 -1.19808e-19 0.0016018)
(0.0016018 -0.000677722 -1.00691e-05 0.0016018 4.12863e-21 0.0016018)
(0.00173126 -0.000746877 -1.12948e-05 0.00173126 -1.24165e-19 0.00173126)
(0.00173126 -0.000746877 -1.12948e-05 0.00173126 3.06135e-21 0.00173126)
(0.0018624 -0.000816987 -1.25767e-05 0.0018624 -1.28137e-19 0.0018624)
(0.0018624 -0.000816987 -1.25767e-05 0.0018624 3.30044e-21 0.0018624)
(0.00199449 -0.000887495 -1.39084e-05 0.00199449 -1.31902e-19 0.00199449)
(0.00199449 -0.000887495 -1.39084e-05 0.00199449 6.19296e-21 0.00199449)
(0.00212683 -0.000957884 -1.52833e-05 0.00212683 -1.33512e-19 0.00212683)
(0.00212683 -0.000957884 -1.52833e-05 0.00212683 8.32408e-21 0.00212683)
(0.00225877 -0.00102769 -1.66953e-05 0.00225877 -1.35413e-19 0.00225877)
(0.00225877 -0.00102769 -1.66953e-05 0.00225877 9.63069e-21 0.00225877)
(0.00238971 -0.00109651 -1.81387e-05 0.00238971 -1.38407e-19 0.00238971)
(0.00238971 -0.00109651 -1.81387e-05 0.00238971 1.06058e-20 0.00238971)
(0.00251912 -0.00116401 -1.96084e-05 0.00251912 -1.41521e-19 0.00251912)
(0.00251912 -0.00116401 -1.96084e-05 0.00251912 1.19993e-20 0.00251912)
(0.00264652 -0.0012299 -2.10997e-05 0.00264652 -1.46707e-19 0.00264652)
(0.00264652 -0.0012299 -2.10997e-05 0.00264652 1.31539e-20 0.00264652)
(0.00277152 -0.00129397 -2.26087e-05 0.00277152 -1.52876e-19 0.00277152)
(0.00277152 -0.00129397 -2.26087e-05 0.00277152 1.23598e-20 0.00277152)
(0.00289378 -0.00135604 -2.41321e-05 0.00289378 -1.58436e-19 0.00289378)
(0.00289378 -0.00135604 -2.41321e-05 0.00289378 1.63758e-20 0.00289378)
(0.00301303 -0.00141599 -2.56671e-05 0.00301303 -1.6613e-19 0.00301303)
(0.00301303 -0.00141599 -2.56671e-05 0.00301303 2.61222e-20 0.00301303)
(0.00312904 -0.00147375 -2.72114e-05 0.00312904 9.77702e-21 0.00312904)
(0.00312904 -0.00147375 -2.72114e-05 0.00312904 2.85709e-20 0.00312904)
(0.00324166 -0.00152926 -2.87632e-05 0.00324166 2.56654e-19 0.00324166)
(0.00324166 -0.00152926 -2.87632e-05 0.00324166 2.71406e-20 0.00324166)
(0.00335077 -0.00158252 -3.03213e-05 0.00335077 3.24736e-19 0.00335077)
(0.00335077 -0.00158252 -3.03213e-05 0.00335077 3.37453e-20 0.00335077)
(0.00345629 -0.00163353 -3.18846e-05 0.00345629 3.16857e-19 0.00345629)
(0.00345629 -0.00163353 -3.18846e-05 0.00345629 4.27524e-20 0.00345629)
(0.00355818 -0.00168232 -3.34525e-05 0.00355818 2.99143e-19 0.00355818)
(0.00355818 -0.00168232 -3.34525e-05 0.00355818 4.95975e-20 0.00355818)
(0.00365642 -0.00172894 -3.50246e-05 0.00365642 2.73761e-19 0.00365642)
(0.00365642 -0.00172894 -3.50246e-05 0.00365642 4.77075e-20 0.00365642)
(0.00375105 -0.00177344 -3.66009e-05 0.00375105 2.39882e-19 0.00375105)
(0.00375105 -0.00177344 -3.66009e-05 0.00375105 4.2188e-20 0.00375105)
(0.00384209 -0.00181588 -3.81814e-05 0.00384209 2.03286e-19 0.00384209)
(0.00384209 -0.00181588 -3.81814e-05 0.00384209 5.33517e-20 0.00384209)
(0.00392959 -0.00185633 -3.97664e-05 0.00392959 1.63986e-19 0.00392959)
(0.00392959 -0.00185633 -3.97664e-05 0.00392959 7.4751e-20 0.00392959)
(0.00401364 -0.00189488 -4.13561e-05 0.00401364 1.36983e-19 0.00401364)
(0.00401364 -0.00189488 -4.13561e-05 0.00401364 9.11359e-20 0.00401364)
(0.0040943 -0.00193159 -4.29512e-05 0.0040943 9.27155e-20 0.0040943)
(0.0040943 -0.00193159 -4.29512e-05 0.0040943 8.45291e-20 0.0040943)
(0.00417168 -0.00196654 -4.45521e-05 0.00417168 2.01066e-20 0.00417168)
(0.00417168 -0.00196654 -4.45521e-05 0.00417168 7.73139e-20 0.00417168)
(0.00424586 -0.00199981 -4.61595e-05 0.00424586 -4.89832e-20 0.00424586)
(0.00424586 -0.00199981 -4.61595e-05 0.00424586 8.96736e-20 0.00424586)
(0.00431694 -0.00203148 -4.77742e-05 0.00431694 -7.70401e-20 0.00431694)
(0.00431694 -0.00203148 -4.77742e-05 0.00431694 1.12628e-19 0.00431694)
(0.00438503 -0.00206163 -4.93967e-05 0.00438503 -9.62138e-20 0.00438503)
(0.00438503 -0.00206163 -4.93967e-05 0.00438503 1.22681e-19 0.00438503)
(0.00445024 -0.00209031 -5.1028e-05 0.00445024 -1.59246e-19 0.00445024)
(0.00445024 -0.00209031 -5.1028e-05 0.00445024 1.3424e-19 0.00445024)
(0.00451266 -0.00211761 -5.26687e-05 0.00451266 -2.22015e-19 0.00451266)
(0.00451266 -0.00211761 -5.26687e-05 0.00451266 1.49584e-19 0.00451266)
(0.0045724 -0.00214358 -5.43197e-05 0.0045724 -2.70968e-19 0.0045724)
(0.0045724 -0.00214358 -5.43197e-05 0.0045724 1.58476e-19 0.0045724)
(0.00462956 -0.00216831 -5.59818e-05 0.00462956 -3.16388e-19 0.00462956)
(0.00462956 -0.00216831 -5.59818e-05 0.00462956 1.69622e-19 0.00462956)
(0.00468424 -0.00219184 -5.76557e-05 0.00468424 -3.89815e-19 0.00468424)
(0.00468424 -0.00219184 -5.76557e-05 0.00468424 1.68322e-19 0.00468424)
(0.00473655 -0.00221423 -5.93424e-05 0.00473655 -4.87888e-19 0.00473655)
(0.00473655 -0.00221423 -5.93424e-05 0.00473655 1.59446e-19 0.00473655)
(0.00478657 -0.00223555 -6.10425e-05 0.00478657 -5.68955e-19 0.00478657)
(0.00478657 -0.00223555 -6.10425e-05 0.00478657 1.99854e-19 0.00478657)
(0.0048344 -0.00225584 -6.2757e-05 0.0048344 -6.7107e-19 0.0048344)
(0.0048344 -0.00225584 -6.2757e-05 0.0048344 2.57896e-19 0.0048344)
(0.00488013 -0.00227515 -6.44866e-05 0.00488013 -7.23099e-19 0.00488013)
(0.00488013 -0.00227515 -6.44866e-05 0.00488013 2.78138e-19 0.00488013)
(0.00492384 -0.00229354 -6.62321e-05 0.00492384 -8.0018e-19 0.00492384)
(0.00492384 -0.00229354 -6.62321e-05 0.00492384 2.91222e-19 0.00492384)
(0.00496562 -0.00231104 -6.79942e-05 0.00496562 -9.59764e-19 0.00496562)
(0.00496562 -0.00231104 -6.79942e-05 0.00496562 2.27344e-19 0.00496562)
(0.00500555 -0.0023277 -6.97738e-05 0.00500555 -1.05205e-18 0.00500555)
(0.00500555 -0.0023277 -6.97738e-05 0.00500555 2.59026e-19 0.00500555)
(0.00504369 -0.00234356 -7.15716e-05 0.00504369 -1.20142e-18 0.00504369)
(0.00504369 -0.00234356 -7.15716e-05 0.00504369 3.19153e-19 0.00504369)
(0.00508014 -0.00235865 -7.33884e-05 0.00508014 -1.32406e-18 0.00508014)
(0.00508014 -0.00235865 -7.33884e-05 0.00508014 4.04898e-19 0.00508014)
(0.00511494 -0.00237302 -7.52249e-05 0.00511494 -1.32504e-18 0.00511494)
(0.00511494 -0.00237302 -7.52249e-05 0.00511494 4.04362e-19 0.00511494)
(0.00514818 -0.00238669 -7.70818e-05 0.00514818 -1.41644e-18 0.00514818)
(0.00514818 -0.00238669 -7.70818e-05 0.00514818 3.60035e-19 0.00514818)
(0.00517991 -0.0023997 -7.89599e-05 0.00517991 -1.56612e-18 0.00517991)
(0.00517991 -0.0023997 -7.89599e-05 0.00517991 3.83015e-19 0.00517991)
(0.00521019 -0.00241207 -8.08598e-05 0.00521019 -1.66907e-18 0.00521019)
(0.00521019 -0.00241207 -8.08598e-05 0.00521019 5.39356e-19 0.00521019)
(0.00523908 -0.00242384 -8.27824e-05 0.00523908 -1.73339e-18 0.00523908)
(0.00523908 -0.00242384 -8.27824e-05 0.00523908 5.29598e-19 0.00523908)
(0.00526664 -0.00243503 -8.47282e-05 0.00526664 -1.82753e-18 0.00526664)
(0.00526664 -0.00243503 -8.47282e-05 0.00526664 5.11328e-19 0.00526664)
(0.00529291 -0.00244566 -8.6698e-05 0.00529291 -1.9882e-18 0.00529291)
(0.00529291 -0.00244566 -8.6698e-05 0.00529291 4.97158e-19 0.00529291)
(0.00531795 -0.00245576 -8.86925e-05 0.00531795 -2.03525e-18 0.00531795)
(0.00531795 -0.00245576 -8.86925e-05 0.00531795 6.48911e-19 0.00531795)
(0.00534181 -0.00246535 -9.07122e-05 0.00534181 -2.11658e-18 0.00534181)
(0.00534181 -0.00246535 -9.07122e-05 0.00534181 6.31008e-19 0.00534181)
(0.00536452 -0.00247446 -9.2758e-05 0.00536452 -2.22221e-18 0.00536452)
(0.00536452 -0.00247446 -9.2758e-05 0.00536452 6.11114e-19 0.00536452)
(0.00538612 -0.00248309 -9.48304e-05 0.00538612 -2.23575e-18 0.00538612)
(0.00538612 -0.00248309 -9.48304e-05 0.00538612 6.91657e-19 0.00538612)
(0.00540667 -0.00249127 -9.69302e-05 0.00540667 -2.3435e-18 0.00540667)
(0.00540667 -0.00249127 -9.69302e-05 0.00540667 7.02915e-19 0.00540667)
(0.00542619 -0.00249902 -9.90579e-05 0.00542619 -2.52335e-18 0.00542619)
(0.00542619 -0.00249902 -9.90579e-05 0.00542619 6.95264e-19 0.00542619)
(0.00544473 -0.00250635 -0.000101214 0.00544473 -2.67598e-18 0.00544473)
(0.00544473 -0.00250635 -0.000101214 0.00544473 8.01031e-19 0.00544473)
(0.00546231 -0.00251328 -0.0001034 0.00546231 -2.77155e-18 0.00546231)
(0.00546231 -0.00251328 -0.0001034 0.00546231 7.78398e-19 0.00546231)
(0.00547897 -0.00251982 -0.000105615 0.00547897 -2.92955e-18 0.00547897)
(0.00547897 -0.00251982 -0.000105615 0.00547897 7.60454e-19 0.00547897)
(0.00549475 -0.00252599 -0.000107861 0.00549475 -3.15002e-18 0.00549475)
(0.00549475 -0.00252599 -0.000107861 0.00549475 7.50323e-19 0.00549475)
(0.00550965 -0.00253179 -0.000110138 0.00550965 -3.18992e-18 0.00550965)
(0.00550965 -0.00253179 -0.000110138 0.00550965 9.78935e-19 0.00550965)
(0.00552373 -0.00253725 -0.000112447 0.00552373 -3.10699e-18 0.00552373)
(0.00552373 -0.00253725 -0.000112447 0.00552373 1.04726e-18 0.00552373)
(0.005537 -0.00254237 -0.000114788 0.005537 -3.10327e-18 0.005537)
(0.005537 -0.00254237 -0.000114788 0.005537 1.02562e-18 0.005537)
(0.00554948 -0.00254715 -0.000117161 0.00554948 -3.08945e-18 0.00554948)
(0.00554948 -0.00254715 -0.000117161 0.00554948 1.08349e-18 0.00554948)
(0.0055612 -0.00255163 -0.000119569 0.0055612 -3.11464e-18 0.0055612)
(0.0055612 -0.00255163 -0.000119569 0.0055612 1.07027e-18 0.0055612)
(0.00557219 -0.00255579 -0.00012201 0.00557219 -3.20297e-18 0.00557219)
(0.00557219 -0.00255579 -0.00012201 0.00557219 1.26805e-18 0.00557219)
(0.00558246 -0.00255965 -0.000124487 0.00558246 -2.94412e-18 0.00558246)
(0.00558246 -0.00255965 -0.000124487 0.00558246 1.71795e-18 0.00558246)
(0.00559203 -0.00256323 -0.000126998 0.00559203 -2.73795e-18 0.00559203)
(0.00559203 -0.00256323 -0.000126998 0.00559203 1.1919e-18 0.00559203)
(0.00560092 -0.00256652 -0.000129545 0.00560092 -2.80734e-18 0.00560092)
(0.00560092 -0.00256652 -0.000129545 0.00560092 1.16905e-18 0.00560092)
(0.00560915 -0.00256953 -0.000132129 0.00560915 -2.78108e-18 0.00560915)
(0.00560915 -0.00256953 -0.000132129 0.00560915 1.42475e-18 0.00560915)
(0.00561674 -0.00257227 -0.00013475 0.00561674 -2.5504e-18 0.00561674)
(0.00561674 -0.00257227 -0.00013475 0.00561674 1.65928e-18 0.00561674)
(0.0056237 -0.00257475 -0.000137408 0.0056237 -2.38221e-18 0.0056237)
(0.0056237 -0.00257475 -0.000137408 0.0056237 1.64119e-18 0.0056237)
(0.00563004 -0.00257698 -0.000140105 0.00563004 -2.15142e-18 0.00563004)
(0.00563004 -0.00257698 -0.000140105 0.00563004 1.57604e-18 0.00563004)
(0.00563578 -0.00257895 -0.00014284 0.00563578 -1.89549e-18 0.00563578)
(0.00563578 -0.00257895 -0.00014284 0.00563578 1.61179e-18 0.00563578)
(0.00564094 -0.00258068 -0.000145614 0.00564094 -1.87892e-18 0.00564094)
(0.00564094 -0.00258068 -0.000145614 0.00564094 1.60724e-18 0.00564094)
(0.00564553 -0.00258217 -0.000148428 0.00564553 -2.00748e-18 0.00564553)
(0.00564553 -0.00258217 -0.000148428 0.00564553 1.55475e-18 0.00564553)
(0.00564955 -0.00258342 -0.000151282 0.00564955 -1.92732e-18 0.00564955)
(0.00564955 -0.00258342 -0.000151282 0.00564955 1.50612e-18 0.00564955)
(0.00565302 -0.00258444 -0.000154177 0.00565302 -1.87175e-18 0.00565302)
(0.00565302 -0.00258444 -0.000154177 0.00565302 1.97783e-18 0.00565302)
(0.00565595 -0.00258523 -0.000157113 0.00565595 -1.60378e-18 0.00565595)
(0.00565595 -0.00258523 -0.000157113 0.00565595 2.23039e-18 0.00565595)
(0.00565835 -0.0025858 -0.000160091 0.00565835 -1.28961e-18 0.00565835)
(0.00565835 -0.0025858 -0.000160091 0.00565835 1.86155e-18 0.00565835)
(0.00566023 -0.00258614 -0.000163112 0.00566023 -1.34574e-18 0.00566023)
(0.00566023 -0.00258614 -0.000163112 0.00566023 1.98729e-18 0.00566023)
(0.0056616 -0.00258627 -0.000166175 0.0056616 -1.30176e-18 0.0056616)
(0.0056616 -0.00258627 -0.000166175 0.0056616 2.49732e-18 0.0056616)
(0.00566246 -0.00258618 -0.000169281 0.00566246 -9.64415e-19 0.00566246)
(0.00566246 -0.00258618 -0.000169281 0.00566246 2.57127e-18 0.00566246)
(0.00566282 -0.00258588 -0.000172431 0.00566282 -8.59746e-19 0.00566282)
(0.00566282 -0.00258588 -0.000172431 0.00566282 2.14131e-18 0.00566282)
(0.00566269 -0.00258537 -0.000175625 0.00566269 -1.39746e-18 0.00566269)
(0.00566269 -0.00258537 -0.000175625 0.00566269 2.31073e-18 0.00566269)
(0.00566208 -0.00258466 -0.000178863 0.00566208 -1.0315e-18 0.00566208)
(0.00566208 -0.00258466 -0.000178863 0.00566208 2.79835e-18 0.00566208)
(0.00566099 -0.00258374 -0.000182147 0.00566099 -1.52661e-19 0.00566099)
(0.00566099 -0.00258374 -0.000182147 0.00566099 3.00382e-18 0.00566099)
(0.00565943 -0.00258261 -0.000185476 0.00565943 2.25609e-19 0.00565943)
(0.00565943 -0.00258261 -0.000185476 0.00565943 3.02024e-18 0.00565943)
(0.0056574 -0.00258128 -0.00018885 0.0056574 3.05071e-19 0.0056574)
(0.0056574 -0.00258128 -0.00018885 0.0056574 2.7753e-18 0.0056574)
(0.00565491 -0.00257975 -0.000192271 0.00565491 6.87049e-19 0.00565491)
(0.00565491 -0.00257975 -0.000192271 0.00565491 2.6661e-18 0.00565491)
(0.00565196 -0.00257802 -0.000195738 0.00565196 6.15411e-19 0.00565196)
(0.00565196 -0.00257802 -0.000195738 0.00565196 3.60983e-18 0.00565196)
(0.00564855 -0.0025761 -0.000199252 0.00564855 9.43656e-19 0.00564855)
(0.00564855 -0.0025761 -0.000199252 0.00564855 4.42034e-18 0.00564855)
(0.0056447 -0.00257397 -0.000202814 0.0056447 2.24576e-18 0.0056447)
(0.0056447 -0.00257397 -0.000202814 0.0056447 3.46512e-18 0.0056447)
(0.0056404 -0.00257165 -0.000206422 0.0056404 2.38098e-18 0.0056404)
(0.0056404 -0.00257165 -0.000206422 0.0056404 3.08953e-18 0.0056404)
(0.00563565 -0.00256913 -0.000210079 0.00563565 2.41507e-18 0.00563565)
(0.00563565 -0.00256913 -0.000210079 0.00563565 3.69291e-18 0.00563565)
(0.00563047 -0.00256642 -0.000213783 0.00563047 3.36004e-18 0.00563047)
(0.00563047 -0.00256642 -0.000213783 0.00563047 4.75018e-18 0.00563047)
(0.00562484 -0.00256351 -0.000217536 0.00562484 4.09261e-18 0.00562484)
(0.00562484 -0.00256351 -0.000217536 0.00562484 4.04445e-18 0.00562484)
(0.00561878 -0.0025604 -0.000221337 0.00561878 4.25648e-18 0.00561878)
(0.00561878 -0.0025604 -0.000221337 0.00561878 2.99807e-18 0.00561878)
(0.00561228 -0.0025571 -0.000225186 0.00561228 3.06096e-18 0.00561228)
(0.00561228 -0.0025571 -0.000225186 0.00561228 3.86814e-18 0.00561228)
(0.00560535 -0.0025536 -0.000229085 0.00560535 3.35281e-18 0.00560535)
(0.00560535 -0.0025536 -0.000229085 0.00560535 5.35887e-18 0.00560535)
(0.00559799 -0.00254991 -0.000233032 0.00559799 3.86795e-18 0.00559799)
(0.00559799 -0.00254991 -0.000233032 0.00559799 4.72736e-18 0.00559799)
(0.00559019 -0.00254602 -0.000237028 0.00559019 3.53927e-18 0.00559019)
(0.00559019 -0.00254602 -0.000237028 0.00559019 5.16935e-18 0.00559019)
(0.00558196 -0.00254194 -0.000241074 0.00558196 4.50804e-18 0.00558196)
(0.00558196 -0.00254194 -0.000241074 0.00558196 6.87634e-18 0.00558196)
(0.0055733 -0.00253765 -0.000245168 0.0055733 6.35062e-18 0.0055733)
(0.0055733 -0.00253765 -0.000245168 0.0055733 6.57223e-18 0.0055733)
(0.00556421 -0.00253317 -0.000249311 0.00556421 6.7991e-18 0.00556421)
(0.00556421 -0.00253317 -0.000249311 0.00556421 5.75547e-18 0.00556421)
(0.00555469 -0.00252849 -0.000253504 0.00555469 5.67716e-18 0.00555469)
(0.00555469 -0.00252849 -0.000253504 0.00555469 3.95245e-18 0.00555469)
(0.00554474 -0.0025236 -0.000257745 0.00554474 5.02209e-18 0.00554474)
(0.00554474 -0.0025236 -0.000257745 0.00554474 7.26255e-18 0.00554474)
(0.00553435 -0.00251852 -0.000262035 0.00553435 7.016e-18 0.00553435)
(0.00553435 -0.00251852 -0.000262035 0.00553435 7.75537e-18 0.00553435)
(0.00552353 -0.00251323 -0.000266374 0.00552353 7.27169e-18 0.00552353)
(0.00552353 -0.00251323 -0.000266374 0.00552353 6.98687e-18 0.00552353)
(0.00551228 -0.00250774 -0.000270761 0.00551228 7.31465e-18 0.00551228)
(0.00551228 -0.00250774 -0.000270761 0.00551228 6.29923e-18 0.00551228)
(0.00550059 -0.00250205 -0.000275196 0.00550059 7.69734e-18 0.00550059)
(0.00550059 -0.00250205 -0.000275196 0.00550059 8.19308e-18 0.00550059)
(0.00548847 -0.00249614 -0.000279678 0.00548847 8.36525e-18 0.00548847)
(0.00548847 -0.00249614 -0.000279678 0.00548847 8.14175e-18 0.00548847)
(0.00547591 -0.00249003 -0.000284208 0.00547591 8.85305e-18 0.00547591)
(0.00547591 -0.00249003 -0.000284208 0.00547591 8.23451e-18 0.00547591)
(0.00546291 -0.00248371 -0.000288785 0.00546291 9.49375e-18 0.00546291)
(0.00546291 -0.00248371 -0.000288785 0.00546291 9.01062e-18 0.00546291)
(0.00544947 -0.00247717 -0.000293408 0.00544947 9.13748e-18 0.00544947)
(0.00544947 -0.00247717 -0.000293408 0.00544947 9.61451e-18 0.00544947)
(0.00543558 -0.00247043 -0.000298077 0.00543558 8.62911e-18 0.00543558)
(0.00543558 -0.00247043 -0.000298077 0.00543558 4.87256e-18 0.00543558)
(0.00542124 -0.00246346 -0.000302791 0.00542124 1.48595e-17 0.00542124)
(0.00542124 -0.00246346 -0.000302791 0.00542124 3.97234e-18 0.00542124)
(0.00540646 -0.00245628 -0.00030755 0.00540646 1.2743e-17 0.00540646)
(0.00540646 -0.00245628 -0.00030755 0.00540646 4.94348e-18 0.00540646)
(0.00539122 -0.00244887 -0.000312352 0.00539122 1.05253e-17 0.00539122)
(0.00539122 -0.00244887 -0.000312352 0.00539122 1.05629e-17 0.00539122)
(0.00537553 -0.00244124 -0.000317197 0.00537553 1.0473e-17 0.00537553)
(0.00537553 -0.00244124 -0.000317197 0.00537553 1.55419e-17 0.00537553)
(0.00535938 -0.00243339 -0.000322083 0.00535938 9.98209e-18 0.00535938)
(0.00535938 -0.00243339 -0.000322083 0.00535938 1.63772e-17 0.00535938)
(0.00534277 -0.00242531 -0.000327011 0.00534277 6.48513e-18 0.00534277)
(0.00534277 -0.00242531 -0.000327011 0.00534277 1.77392e-17 0.00534277)
(0.0053257 -0.002417 -0.000331978 0.0053257 5.36439e-18 0.0053257)
(0.0053257 -0.002417 -0.000331978 0.0053257 1.83885e-17 0.0053257)
(0.00530815 -0.00240845 -0.000336983 0.00530815 6.37298e-18 0.00530815)
(0.00530815 -0.00240845 -0.000336983 0.00530815 1.80595e-17 0.00530815)
(0.00529013 -0.00239967 -0.000342026 0.00529013 7.76736e-18 0.00529013)
(0.00529013 -0.00239967 -0.000342026 0.00529013 1.92481e-17 0.00529013)
(0.00527164 -0.00239065 -0.000347104 0.00527164 8.06031e-18 0.00527164)
(0.00527164 -0.00239065 -0.000347104 0.00527164 1.98377e-17 0.00527164)
(0.00525267 -0.00238138 -0.000352217 0.00525267 7.14096e-18 0.00525267)
(0.00525267 -0.00238138 -0.000352217 0.00525267 1.88616e-17 0.00525267)
(0.00523321 -0.00237187 -0.000357362 0.00523321 8.02752e-18 0.00523321)
(0.00523321 -0.00237187 -0.000357362 0.00523321 1.7379e-17 0.00523321)
(0.00521326 -0.00236212 -0.000362538 0.00521326 7.17768e-18 0.00521326)
(0.00521326 -0.00236212 -0.000362538 0.00521326 1.88078e-17 0.00521326)
(0.00519282 -0.00235211 -0.000367742 0.00519282 6.00458e-18 0.00519282)
(0.00519282 -0.00235211 -0.000367742 0.00519282 1.9956e-17 0.00519282)
(0.00517187 -0.00234184 -0.000372974 0.00517187 6.56933e-18 0.00517187)
(0.00517187 -0.00234184 -0.000372974 0.00517187 1.85757e-17 0.00517187)
(0.00515043 -0.00233132 -0.00037823 0.00515043 7.78295e-18 0.00515043)
(0.00515043 -0.00233132 -0.00037823 0.00515043 1.81366e-17 0.00515043)
(0.00512847 -0.00232053 -0.000383509 0.00512847 7.89815e-18 0.00512847)
(0.00512847 -0.00232053 -0.000383509 0.00512847 1.8363e-17 0.00512847)
(0.005106 -0.00230948 -0.000388808 0.005106 7.95882e-18 0.005106)
(0.005106 -0.00230948 -0.000388808 0.005106 1.92246e-17 0.005106)
(0.00508301 -0.00229816 -0.000394124 0.00508301 7.24418e-18 0.00508301)
(0.00508301 -0.00229816 -0.000394124 0.00508301 1.9867e-17 0.00508301)
(0.0050595 -0.00228657 -0.000399454 0.0050595 7.47554e-18 0.0050595)
(0.0050595 -0.00228657 -0.000399454 0.0050595 2.0458e-17 0.0050595)
(0.00503545 -0.00227469 -0.000404797 0.00503545 9.1279e-18 0.00503545)
(0.00503545 -0.00227469 -0.000404797 0.00503545 2.10283e-17 0.00503545)
(0.00501087 -0.00226254 -0.000410148 0.00501087 9.9286e-18 0.00501087)
(0.00501087 -0.00226254 -0.000410148 0.00501087 2.29394e-17 0.00501087)
(0.00498574 -0.0022501 -0.000415504 0.00498574 1.10446e-17 0.00498574)
(0.00498574 -0.0022501 -0.000415504 0.00498574 2.40343e-17 0.00498574)
(0.00496007 -0.00223737 -0.000420863 0.00496007 8.9115e-18 0.00496007)
(0.00496007 -0.00223737 -0.000420863 0.00496007 2.42104e-17 0.00496007)
(0.00493384 -0.00222435 -0.000426219 0.00493384 8.69021e-18 0.00493384)
(0.00493384 -0.00222435 -0.000426219 0.00493384 2.3979e-17 0.00493384)
(0.00490704 -0.00221102 -0.00043157 0.00490704 9.69415e-18 0.00490704)
(0.00490704 -0.00221102 -0.00043157 0.00490704 2.22532e-17 0.00490704)
(0.00487968 -0.0021974 -0.000436911 0.00487968 9.53604e-18 0.00487968)
(0.00487968 -0.0021974 -0.000436911 0.00487968 2.32471e-17 0.00487968)
(0.00485175 -0.00218346 -0.000442238 0.00485175 2.64149e-18 0.00485175)
(0.00485175 -0.00218346 -0.000442238 0.00485175 2.60392e-17 0.00485175)
(0.00482323 -0.00216922 -0.000447546 0.00482323 6.42583e-18 0.00482323)
(0.00482323 -0.00216922 -0.000447546 0.00482323 2.85388e-17 0.00482323)
(0.00479412 -0.00215465 -0.000452831 0.00479412 5.22108e-18 0.00479412)
(0.00479412 -0.00215465 -0.000452831 0.00479412 3.16038e-17 0.00479412)
(0.00476441 -0.00213977 -0.000458088 0.00476441 3.55154e-18 0.00476441)
(0.00476441 -0.00213977 -0.000458088 0.00476441 3.29791e-17 0.00476441)
(0.00473411 -0.00212455 -0.00046331 0.00473411 3.16057e-18 0.00473411)
(0.00473411 -0.00212455 -0.00046331 0.00473411 3.3488e-17 0.00473411)
(0.00470319 -0.002109 -0.000468493 0.00470319 -5.51883e-19 0.00470319)
(0.00470319 -0.002109 -0.000468493 0.00470319 3.21427e-17 0.00470319)
(0.00467165 -0.00209312 -0.000473631 0.00467165 5.05949e-19 0.00467165)
(0.00467165 -0.00209312 -0.000473631 0.00467165 2.459e-17 0.00467165)
(0.00463949 -0.00207689 -0.000478717 0.00463949 1.03877e-18 0.00463949)
(0.00463949 -0.00207689 -0.000478717 0.00463949 2.20363e-17 0.00463949)
(0.00460669 -0.00206031 -0.000483745 0.00460669 -4.00346e-18 0.00460669)
(0.00460669 -0.00206031 -0.000483745 0.00460669 2.39107e-17 0.00460669)
(0.00457326 -0.00204338 -0.000488708 0.00457326 2.29129e-18 0.00457326)
(0.00457326 -0.00204338 -0.000488708 0.00457326 2.00339e-17 0.00457326)
(0.00453917 -0.00202608 -0.000493598 0.00453917 6.51162e-18 0.00453917)
(0.00453917 -0.00202608 -0.000493598 0.00453917 1.62803e-17 0.00453917)
(0.00450443 -0.00200842 -0.000498409 0.00450443 6.32993e-18 0.00450443)
(0.00450443 -0.00200842 -0.000498409 0.00450443 1.18765e-17 0.00450443)
(0.00446903 -0.00199039 -0.000503132 0.00446903 6.01888e-18 0.00446903)
(0.00446903 -0.00199039 -0.000503132 0.00446903 1.17001e-17 0.00446903)
(0.00443295 -0.00197198 -0.000507759 0.00443295 7.66566e-18 0.00443295)
(0.00443295 -0.00197198 -0.000507759 0.00443295 1.23466e-17 0.00443295)
(0.0043962 -0.00195318 -0.000512281 0.0043962 6.60033e-18 0.0043962)
(0.0043962 -0.00195318 -0.000512281 0.0043962 1.02952e-17 0.0043962)
(0.00435876 -0.00193399 -0.000516689 0.00435876 6.96808e-18 0.00435876)
(0.00435876 -0.00193399 -0.000516689 0.00435876 5.50478e-18 0.00435876)
(0.00432062 -0.00191441 -0.000520974 0.00432062 4.78653e-18 0.00432062)
(0.00432062 -0.00191441 -0.000520974 0.00432062 3.60249e-18 0.00432062)
(0.00428179 -0.00189442 -0.000525125 0.00428179 3.34243e-18 0.00428179)
(0.00428179 -0.00189442 -0.000525125 0.00428179 2.38753e-18 0.00428179)
(0.00424225 -0.00187402 -0.000529131 0.00424225 6.58964e-18 0.00424225)
(0.00424225 -0.00187402 -0.000529131 0.00424225 -8.1861e-19 0.00424225)
(0.00420199 -0.0018532 -0.000532983 0.00420199 -4.68543e-18 0.00420199)
(0.00420199 -0.0018532 -0.000532983 0.00420199 6.80208e-18 0.00420199)
(0.00416101 -0.00183196 -0.000536667 0.00416101 1.28596e-18 0.00416101)
(0.00416101 -0.00183196 -0.000536667 0.00416101 1.02278e-17 0.00416101)
(0.0041193 -0.00181028 -0.000540173 0.0041193 1.43253e-18 0.0041193)