/*--------------------------------*- C++ -*----------------------------------*\
| =========                 |                                                 |
| \\      /  F ield         | OpenFOAM: The Open Source CFD Toolbox           |
|  \\    /   O peration     | Version:  2106                                  |
|   \\  /    A nd           | Website:  www.openfoam.com                      |
|    \\/     M anipulation  |                                                 |
\*---------------------------------------------------------------------------*/
FoamFile
{
    version     2.0;
    format      ascii;
    arch        "LSB;label=32;scalar=64";
    class       volVectorField;
    location    "10050";
    object      U;
}
// * * * * * * * * * * * * * * * * * * * * * * * * * * * * * * * * * * * * * //

dimensions      [0 1 -1 0 0 0 0];

internalField   nonuniform List<vector> 
2000
(
(0.00324154 -6.97513e-16 -5.24703e-18)
(0.00324154 -8.57952e-19 6.93996e-22)
(0.00978389 -2.04544e-15 4.93562e-18)
(0.00978389 4.77135e-19 -2.39505e-21)
(0.0164471 -1.96872e-15 5.89775e-18)
(0.0164471 -1.23654e-19 4.83361e-21)
(0.0232334 -1.86997e-15 7.31184e-18)
(0.0232334 -1.7405e-19 7.42319e-21)
(0.030145 -1.83798e-15 8.70268e-18)
(0.030145 -2.41204e-19 9.41756e-21)
(0.0371842 -1.85269e-15 1.00738e-17)
(0.0371842 -3.43508e-19 1.08222e-20)
(0.0443533 -1.8565e-15 1.1506e-17)
(0.0443533 -4.80844e-19 1.22115e-20)
(0.0516547 -1.85626e-15 1.30113e-17)
(0.0516547 -6.31494e-19 1.42597e-20)
(0.0590907 -1.85583e-15 1.45872e-17)
(0.0590907 -7.61151e-19 1.7291e-20)
(0.0666638 -1.85574e-15 1.62332e-17)
(0.0666638 -9.04415e-19 1.80568e-20)
(0.0743763 -1.85573e-15 1.79507e-17)
(0.0743763 -1.12751e-18 1.93259e-20)
(0.0822305 -1.85568e-15 1.97416e-17)
(0.0822305 -1.34175e-18 2.18913e-20)
(0.0902287 -1.85553e-15 2.1608e-17)
(0.0902287 -1.51707e-18 2.4472e-20)
(0.098373 -1.85529e-15 2.35523e-17)
(0.098373 -1.76434e-18 2.7484e-20)
(0.106665 -1.85495e-15 2.55762e-17)
(0.106665 -2.11469e-18 3.02737e-20)
(0.115108 -1.85461e-15 2.76814e-17)
(0.115108 -2.48564e-18 3.2371e-20)
(0.123701 -1.85442e-15 2.98681e-17)
(0.123701 -2.82068e-18 3.44273e-20)
(0.132447 -1.8541e-15 3.21362e-17)
(0.132447 -3.14534e-18 3.81329e-20)
(0.141345 -1.85363e-15 3.44859e-17)
(0.141345 -3.65177e-18 4.16025e-20)
(0.150396 -1.8531e-15 3.69162e-17)
(0.150396 -4.31402e-18 4.55685e-20)
(0.159598 -1.85248e-15 3.94249e-17)
(0.159598 -4.95405e-18 5.53398e-20)
(0.168949 -1.85185e-15 4.20085e-17)
(0.168949 -5.72512e-18 6.77475e-20)
(0.178446 -1.85131e-15 4.46603e-17)
(0.178446 -6.43899e-18 7.60657e-20)
(0.188083 -1.85076e-15 4.73709e-17)
(0.188083 -7.04251e-18 8.15255e-20)
(0.197854 -1.85005e-15 5.01296e-17)
(0.197854 -7.80683e-18 9.18456e-20)
(0.207751 -1.84929e-15 5.29247e-17)
(0.207751 -8.4808e-18 1.00021e-19)
(0.217763 -1.84848e-15 5.57408e-17)
(0.217763 -9.25154e-18 1.12191e-19)
(0.227878 -1.84749e-15 5.85613e-17)
(0.227878 -1.03233e-17 1.2628e-19)
(0.238082 -1.84622e-15 6.13689e-17)
(0.238082 -1.13906e-17 1.39727e-19)
(0.248358 -1.84542e-15 6.41455e-17)
(0.248358 -1.26008e-17 1.53886e-19)
(0.258689 -1.84206e-15 6.68735e-17)
(0.258689 -1.38088e-17 1.65816e-19)
(0.269056 -1.8412e-15 6.95336e-17)
(0.269056 -1.52244e-17 1.88141e-19)
(0.279437 -1.83927e-15 7.2111e-17)
(0.279437 -1.70481e-17 2.18293e-19)
(0.289812 -1.83749e-15 7.45905e-17)
(0.289812 -1.89112e-17 2.45385e-19)
(0.30016 -1.8357e-15 7.69577e-17)
(0.30016 -2.06809e-17 2.73021e-19)
(0.310459 -1.83395e-15 7.92047e-17)
(0.310459 -2.22272e-17 3.10023e-19)
(0.320689 -1.83235e-15 8.132e-17)
(0.320689 -2.35731e-17 3.34528e-19)
(0.330831 -1.83063e-15 8.33034e-17)
(0.330831 -2.4474e-17 3.6829e-19)
(0.340869 -1.82892e-15 8.51556e-17)
(0.340869 -2.55792e-17 3.79431e-19)
(0.350785 -1.82703e-15 8.6881e-17)
(0.350785 -2.73074e-17 4.11524e-19)
(0.360567 -1.82521e-15 8.84869e-17)
(0.360567 -2.90283e-17 4.78732e-19)
(0.370202 -1.82376e-15 8.99822e-17)
(0.370202 -3.06095e-17 5.24871e-19)
(0.379681 -1.8214e-15 9.13727e-17)
(0.379681 -3.23275e-17 5.55731e-19)
(0.388998 -1.81825e-15 9.26775e-17)
(0.388998 -3.45666e-17 5.89032e-19)
(0.398145 -1.81487e-15 9.39084e-17)
(0.398145 -3.61991e-17 6.32951e-19)
(0.407119 -1.81136e-15 9.50772e-17)
(0.407119 -3.84099e-17 6.82962e-19)
(0.415918 -1.80845e-15 9.61884e-17)
(0.415918 -4.13563e-17 7.36133e-19)
(0.424541 -1.80599e-15 9.72561e-17)
(0.424541 -4.32227e-17 8.12723e-19)
(0.432988 -1.80323e-15 9.82917e-17)
(0.432988 -4.48612e-17 9.08965e-19)
(0.44126 -1.8004e-15 9.93089e-17)
(0.44126 -4.73636e-17 9.62511e-19)
(0.44936 -1.79755e-15 1.00317e-16)
(0.44936 -5.01854e-17 9.90753e-19)
(0.457291 -1.79475e-15 9.93616e-17)
(0.457291 -5.22446e-17 1.07408e-18)
(0.465055 -1.79267e-15 9.77829e-17)
(0.465055 -5.34629e-17 1.15637e-18)
(0.472657 -1.79045e-15 9.62893e-17)
(0.472657 -5.49733e-17 1.21282e-18)
(0.480101 -1.78762e-15 9.49536e-17)
(0.480101 -5.64479e-17 1.25754e-18)
(0.487391 -1.78502e-15 9.3784e-17)
(0.487391 -5.78273e-17 1.29366e-18)
(0.494532 -1.78281e-15 9.27766e-17)
(0.494532 -5.94339e-17 1.40882e-18)
(0.501529 -1.78034e-15 9.19652e-17)
(0.501529 -6.08262e-17 1.528e-18)
(0.508385 -1.77779e-15 9.13325e-17)
(0.508385 -6.27642e-17 1.58939e-18)
(0.515107 -1.77446e-15 9.08776e-17)
(0.515107 -6.53419e-17 1.59384e-18)
(0.521698 -1.77027e-15 9.05178e-17)
(0.521698 -6.81399e-17 1.62871e-18)
(0.528163 -1.76732e-15 9.04412e-17)
(0.528163 -6.91427e-17 1.72863e-18)
(0.534507 -1.7659e-15 9.05233e-17)
(0.534507 -6.90855e-17 1.84617e-18)
(0.540733 -1.76363e-15 9.08174e-17)
(0.540733 -7.09657e-17 1.88917e-18)
(0.546847 -1.75973e-15 9.10989e-17)
(0.546847 -7.23308e-17 1.90888e-18)
(0.552852 -1.75508e-15 9.15736e-17)
(0.552852 -7.35315e-17 1.95154e-18)
(0.558752 -1.75113e-15 9.22368e-17)
(0.558752 -7.53146e-17 1.96568e-18)
(0.564552 -1.74749e-15 9.29995e-17)
(0.564552 -7.68634e-17 1.97415e-18)
(0.570254 -1.74373e-15 9.3878e-17)
(0.570254 -7.87267e-17 1.99718e-18)
(0.575863 -1.74012e-15 9.48465e-17)
(0.575863 -8.21127e-17 2.04046e-18)
(0.581382 -1.73661e-15 9.60508e-17)
(0.581382 -8.53405e-17 2.22487e-18)
(0.586814 -1.73277e-15 9.74511e-17)
(0.586814 -8.65331e-17 2.33156e-18)
(0.592162 -1.72915e-15 9.90077e-17)
(0.592162 -8.85424e-17 2.38319e-18)
(0.59743 -1.72524e-15 1.00815e-16)
(0.59743 -9.20137e-17 2.28381e-18)
(0.60262 -1.72126e-15 1.02554e-16)
(0.60262 -9.42807e-17 2.27538e-18)
(0.607735 -1.71757e-15 1.04645e-16)
(0.607735 -9.69574e-17 2.48414e-18)
(0.612778 -1.71274e-15 1.06994e-16)
(0.612778 -1.00099e-16 2.65032e-18)
(0.617752 -1.70841e-15 1.09465e-16)
(0.617752 -1.02593e-16 2.78895e-18)
(0.622658 -1.70508e-15 1.12329e-16)
(0.622658 -1.03916e-16 2.80919e-18)
(0.6275 -1.70097e-15 1.15145e-16)
(0.6275 -1.06049e-16 2.71022e-18)
(0.632278 -1.69691e-15 1.17964e-16)
(0.632278 -1.09702e-16 2.8103e-18)
(0.636997 -1.69168e-15 1.21049e-16)
(0.636997 -1.12162e-16 3.03188e-18)
(0.641657 -1.68656e-15 1.24434e-16)
(0.641657 -1.16397e-16 3.15144e-18)
(0.646261 -1.68381e-15 1.27805e-16)
(0.646261 -1.18784e-16 2.87621e-18)
(0.650811 -1.68189e-15 1.3117e-16)
(0.650811 -1.18757e-16 2.91138e-18)
(0.655307 -1.68089e-15 1.34731e-16)
(0.655307 -1.19432e-16 3.16714e-18)
(0.659753 -1.67968e-15 1.38514e-16)
(0.659753 -1.21705e-16 3.15504e-18)
(0.66415 -1.67942e-15 1.42146e-16)
(0.66415 -1.24147e-16 2.9989e-18)
(0.6685 -1.67653e-15 1.46044e-16)
(0.6685 -1.22611e-16 3.12748e-18)
(0.672803 -1.67262e-15 1.50137e-16)
(0.672803 -1.23097e-16 3.05781e-18)
(0.677062 -1.66944e-15 1.54052e-16)
(0.677062 -1.25972e-16 3.01565e-18)
(0.681278 -1.6651e-15 1.58362e-16)
(0.681278 -1.26125e-16 3.12925e-18)
(0.685452 -1.66046e-15 1.62872e-16)
(0.685452 -1.28158e-16 3.08002e-18)
(0.689585 -1.65432e-15 1.67611e-16)
(0.689585 -1.29763e-16 2.93826e-18)
(0.69368 -1.64704e-15 1.72455e-16)
(0.69368 -1.31879e-16 2.97388e-18)
(0.697736 -1.64194e-15 1.77704e-16)
(0.697736 -1.35914e-16 3.25243e-18)
(0.701756 -1.6375e-15 1.82964e-16)
(0.701756 -1.39596e-16 3.24771e-18)
(0.70574 -1.63096e-15 1.88177e-16)
(0.70574 -1.42652e-16 2.98001e-18)
(0.709689 -1.62628e-15 1.9326e-16)
(0.709689 -1.46364e-16 2.9034e-18)
(0.713605 -1.62232e-15 1.98201e-16)
(0.713605 -1.49276e-16 2.89089e-18)
(0.717489 -1.61787e-15 2.03086e-16)
(0.717489 -1.52412e-16 2.92454e-18)
(0.72134 -1.61652e-15 2.08063e-16)
(0.72134 -1.51756e-16 3.36668e-18)
(0.725162 -1.61696e-15 2.12829e-16)
(0.725162 -1.49398e-16 2.47349e-18)
(0.728953 -1.61653e-15 2.16812e-16)
(0.728953 -1.49183e-16 1.70858e-18)
(0.732716 -1.6183e-15 2.21078e-16)
(0.732716 -1.49957e-16 1.81389e-18)
(0.73645 -1.61924e-15 2.25106e-16)
(0.73645 -1.50516e-16 1.82284e-18)
(0.740157 -1.61836e-15 2.29132e-16)
(0.740157 -1.50844e-16 1.33034e-18)
(0.743838 -1.61689e-15 2.32518e-16)
(0.743838 -1.55542e-16 7.75749e-19)
(0.747493 -1.61274e-15 2.36078e-16)
(0.747493 -1.57999e-16 4.94508e-19)
(0.751123 -1.6075e-15 2.39048e-16)
(0.751123 -1.60203e-16 2.91042e-19)
(0.754729 -1.60177e-15 2.41978e-16)
(0.754729 -1.63603e-16 7.93042e-20)
(0.75831 -1.59753e-15 2.4493e-16)
(0.75831 -1.66934e-16 1.68427e-20)
(0.761869 -1.59248e-15 2.4802e-16)
(0.761869 -1.70536e-16 1.60695e-19)
(0.765406 -1.58736e-15 2.50815e-16)
(0.765406 -1.76306e-16 2.48148e-19)
(0.768921 -1.58241e-15 2.53741e-16)
(0.768921 -1.83622e-16 -6.81223e-19)
(0.772414 -1.57509e-15 2.55756e-16)
(0.772414 -1.88704e-16 -9.82607e-19)
(0.775887 -1.56653e-15 2.58129e-16)
(0.775887 -1.9158e-16 -7.45572e-19)
(0.77934 -1.55683e-15 2.60442e-16)
(0.77934 -1.96914e-16 -1.38344e-18)
(0.782773 -1.5462e-15 2.62847e-16)
(0.782773 -2.03522e-16 -2.33942e-18)
(0.786187 -1.53294e-15 2.64382e-16)
(0.786187 -2.06243e-16 -2.76179e-18)
(0.789582 -1.52396e-15 2.66893e-16)
(0.789582 -2.1006e-16 -2.66069e-18)
(0.792959 -1.518e-15 2.69265e-16)
(0.792959 -2.18429e-16 -3.01873e-18)
(0.796319 -1.50836e-15 2.70398e-16)
(0.796319 -2.23918e-16 -3.93654e-18)
(0.799662 -1.49944e-15 2.71019e-16)
(0.799662 -2.32447e-16 -4.59537e-18)
(0.802987 -1.48798e-15 2.71195e-16)
(0.802987 -2.44371e-16 -5.05587e-18)
(0.806297 -1.47621e-15 2.71922e-16)
(0.806297 -2.60172e-16 -4.42027e-18)
(0.80959 -1.46783e-15 2.71849e-16)
(0.80959 -2.67983e-16 -4.2252e-18)
(0.812868 -1.46375e-15 2.71408e-16)
(0.812868 -2.69839e-16 -5.54975e-18)
(0.81613 -1.46215e-15 2.68949e-16)
(0.81613 -2.78162e-16 -7.24097e-18)
(0.819378 -1.4633e-15 2.65976e-16)
(0.819378 -2.77751e-16 -6.84549e-18)
(0.822611 -1.46425e-15 2.63102e-16)
(0.822611 -2.80351e-16 -5.97888e-18)
(0.82583 -1.46014e-15 2.59907e-16)
(0.82583 -2.8899e-16 -6.87488e-18)
(0.829036 -1.4576e-15 2.55364e-16)
(0.829036 -2.9584e-16 -8.16342e-18)
(0.832227 -1.44356e-15 2.5012e-16)
(0.832227 -3.01427e-16 -7.20423e-18)
(0.835406 -1.43241e-15 2.47229e-16)
(0.835406 -3.08161e-16 -5.111e-18)
(0.838572 -1.42553e-15 2.44494e-16)
(0.838572 -3.13669e-16 -5.84069e-18)
(0.841725 -1.41792e-15 2.40154e-16)
(0.841725 -3.19065e-16 -7.12621e-18)
(0.844866 -1.41432e-15 2.36346e-16)
(0.844866 -3.26115e-16 -6.58736e-18)
(0.847994 -1.40919e-15 2.32105e-16)
(0.847994 -3.26417e-16 -7.72278e-18)
(0.851111 -1.3997e-15 2.2623e-16)
(0.851111 -3.33455e-16 -1.11627e-17)
(0.854217 -1.38647e-15 2.18352e-16)
(0.854217 -3.44896e-16 -1.18762e-17)
(0.857311 -1.37434e-15 2.12215e-16)
(0.857311 -3.545e-16 -7.54666e-18)
(0.860393 -1.37326e-15 2.06929e-16)
(0.860393 -3.65029e-16 -6.84485e-18)
(0.863466 -1.36213e-15 2.00171e-16)
(0.863466 -3.68584e-16 -9.63145e-18)
(0.866527 -1.3548e-15 1.92151e-16)
(0.866527 -3.77256e-16 -1.03189e-17)
(0.869578 -1.34441e-15 1.84042e-16)
(0.869578 -3.89027e-16 -8.09773e-18)
(0.872619 -1.33501e-15 1.76637e-16)
(0.872619 -3.9845e-16 -7.62784e-18)
(0.875649 -1.32994e-15 1.67415e-16)
(0.875649 -4.05614e-16 -9.13945e-18)
(0.87867 -1.31573e-15 1.57488e-16)
(0.87867 -4.14454e-16 -8.99124e-18)
(0.881681 -1.29058e-15 1.49235e-16)
(0.881681 -4.30667e-16 -8.61805e-18)
(0.884683 -1.27619e-15 1.40355e-16)
(0.884683 -4.39289e-16 -8.64967e-18)
(0.887675 -1.26852e-15 1.30531e-16)
(0.887675 -4.38526e-16 -3.84623e-18)
(0.890658 -1.23556e-15 1.21342e-16)
(0.890658 -4.44451e-16 2.16748e-18)
(0.893632 -1.2722e-15 1.0354e-16)
(0.893632 -4.56177e-16 9.89495e-18)
(0.896598 -1.25553e-15 9.0574e-17)
(0.896598 -4.66712e-16 1.50373e-17)
(0.899554 -1.22765e-15 8.23931e-17)
(0.899554 -4.87207e-16 1.04022e-17)
(0.902502 -1.2085e-15 7.24849e-17)
(0.902502 -4.98399e-16 5.96472e-18)
(0.905441 -1.20109e-15 6.33288e-17)
(0.905441 -5.08375e-16 4.13141e-19)
(0.908371 -1.18971e-15 5.88334e-17)
(0.908371 -5.18193e-16 -5.89175e-18)
(0.911294 -1.17507e-15 5.34601e-17)
(0.911294 -5.12788e-16 -1.12292e-17)
(0.914208 -1.16037e-15 4.74876e-17)
(0.914208 -5.20408e-16 -1.71221e-17)
(0.917114 -1.14363e-15 3.87916e-17)
(0.917114 -5.25551e-16 -2.46187e-17)
(0.920012 -1.1255e-15 3.28104e-17)
(0.920012 -5.33057e-16 -3.03955e-17)
(0.922902 -1.10627e-15 2.68056e-17)
(0.922902 -5.48307e-16 -3.42805e-17)
(0.925784 -1.09277e-15 1.90624e-17)
(0.925784 -5.48651e-16 -3.55389e-17)
(0.928658 -1.08307e-15 1.34842e-17)
(0.928658 -5.53547e-16 -4.1323e-17)
(0.931525 -1.07369e-15 7.43958e-18)
(0.931525 -5.59449e-16 -4.38754e-17)
(0.934383 -1.05648e-15 4.06924e-19)
(0.934383 -5.54122e-16 -4.52053e-17)
(0.937234 -1.03728e-15 -6.02453e-18)
(0.937234 -5.64405e-16 -4.55002e-17)
(0.940078 -1.01925e-15 -1.26206e-17)
(0.940078 -5.75331e-16 -4.55075e-17)
(0.942913 -1.00987e-15 -1.95203e-17)
(0.942913 -5.77954e-16 -4.5634e-17)
(0.945741 -9.92139e-16 -2.72601e-17)
(0.945741 -5.83868e-16 -4.59131e-17)
(0.948562 -9.76225e-16 -3.17521e-17)
(0.948562 -5.90069e-16 -4.61888e-17)
(0.951374 -9.72636e-16 -4.42681e-17)
(0.951374 -5.86412e-16 -4.7224e-17)
(0.95418 -9.61471e-16 -5.50867e-17)
(0.95418 -5.8534e-16 -5.1119e-17)
(0.956977 -9.5046e-16 -6.76566e-17)
(0.956977 -5.86928e-16 -5.34719e-17)
(0.959767 -9.35277e-16 -7.31279e-17)
(0.959767 -5.88336e-16 -5.55551e-17)
(0.962549 -9.2294e-16 -8.36463e-17)
(0.962549 -5.80931e-16 -5.5976e-17)
(0.965324 -9.24719e-16 -9.26541e-17)
(0.965324 -5.73277e-16 -5.36385e-17)
(0.96809 -9.16084e-16 -1.0775e-16)
(0.96809 -5.77546e-16 -5.64731e-17)
(0.970849 -8.88409e-16 -1.08545e-16)
(0.970849 -6.08714e-16 -5.94183e-17)
(0.9736 -8.7105e-16 -1.12666e-16)
(0.9736 -6.43565e-16 -6.31439e-17)
(0.976343 -8.57585e-16 -1.1453e-16)
(0.976343 -6.53531e-16 -6.63762e-17)
(0.979078 -8.38984e-16 -1.15981e-16)
(0.979078 -6.69627e-16 -7.06191e-17)
(0.981805 -8.2891e-16 -1.14133e-16)
(0.981805 -6.74419e-16 -7.85233e-17)
(0.984523 -8.17511e-16 -1.10052e-16)
(0.984523 -6.81257e-16 -8.4852e-17)
(0.987233 -8.11649e-16 -1.10319e-16)
(0.987233 -6.8494e-16 -8.04402e-17)
(0.989935 -8.07559e-16 -1.01607e-16)
(0.989935 -6.90875e-16 -8.38388e-17)
(0.992628 -7.87e-16 -9.79598e-17)
(0.992628 -7.00112e-16 -8.81724e-17)
(0.995312 -7.69322e-16 -9.78186e-17)
(0.995312 -6.95311e-16 -9.4949e-17)
(0.997987 -7.69157e-16 -1.06638e-16)
(0.997987 -7.07948e-16 -9.50512e-17)
(1.00065 -7.66781e-16 -1.14562e-16)
(1.00065 -7.16371e-16 -9.6109e-17)
(1.00331 -7.53679e-16 -1.21521e-16)
(1.00331 -7.13199e-16 -1.00841e-16)
(1.00596 -7.45299e-16 -1.28418e-16)
(1.00596 -7.17818e-16 -1.08456e-16)
(1.00859 -7.32147e-16 -1.3497e-16)
(1.00859 -7.25866e-16 -1.14234e-16)
(1.01122 -7.24912e-16 -1.40333e-16)
(1.01122 -7.16718e-16 -1.20077e-16)
(1.01384 -7.23073e-16 -1.4412e-16)
(1.01384 -7.23535e-16 -1.19049e-16)
(1.01644 -7.036e-16 -1.48532e-16)
(1.01644 -7.35919e-16 -1.19796e-16)
(1.01904 -7.13196e-16 -1.40909e-16)
(1.01904 -7.09772e-16 -1.16742e-16)
(1.02162 -7.00024e-16 -1.35457e-16)
(1.02162 -6.85962e-16 -1.23827e-16)
(1.02419 -6.93233e-16 -1.36856e-16)
(1.02419 -6.5349e-16 -1.31554e-16)
(1.02675 -6.84921e-16 -1.2821e-16)
(1.02675 -6.48197e-16 -1.37381e-16)
(1.0293 -6.64826e-16 -1.32893e-16)
(1.0293 -6.48862e-16 -1.43605e-16)
(1.03184 -6.50071e-16 -1.34118e-16)
(1.03184 -6.51603e-16 -1.40456e-16)
(1.03436 -6.08996e-16 -1.4257e-16)
(1.03436 -6.06931e-16 -1.19422e-16)
(1.03687 -6.33654e-16 -1.44419e-16)
(1.03687 -5.73769e-16 -1.03274e-16)
(1.03936 -6.15402e-16 -1.3761e-16)
(1.03936 -6.08738e-16 -9.56353e-17)
(1.04184 -5.88442e-16 -1.45887e-16)
(1.04184 -5.90601e-16 -9.6621e-17)
(1.04431 -5.76231e-16 -1.47924e-16)
(1.04431 -5.73577e-16 -9.89111e-17)
(1.04676 -5.60381e-16 -1.49804e-16)
(1.04676 -5.75239e-16 -1.07401e-16)
(1.04919 -5.40843e-16 -1.41278e-16)
(1.04919 -5.53585e-16 -1.18794e-16)
(1.0516 -5.23365e-16 -1.43168e-16)
(1.0516 -5.49382e-16 -1.17878e-16)
(1.054 -4.77105e-16 -1.6071e-16)
(1.054 -5.42444e-16 -1.15119e-16)
(1.05638 -5.63058e-16 -1.67178e-16)
(1.05638 -5.32847e-16 -1.28732e-16)
(1.05874 -5.7056e-16 -1.62104e-16)
(1.05874 -5.75322e-16 -1.32709e-16)
(1.06108 -5.77139e-16 -1.66291e-16)
(1.06108 -5.55206e-16 -1.29288e-16)
(1.0634 -5.74095e-16 -1.58803e-16)
(1.0634 -5.13778e-16 -1.24276e-16)
(1.06569 -5.63566e-16 -1.5087e-16)
(1.06569 -5.60427e-16 -1.15729e-16)
(1.06796 -5.52643e-16 -1.53038e-16)
(1.06796 -5.71224e-16 -1.00973e-16)
(1.07021 -5.62673e-16 -1.67942e-16)
(1.07021 -5.52227e-16 -9.72828e-17)
(1.07244 -5.58925e-16 -1.41428e-16)
(1.07244 -5.4362e-16 -9.58556e-17)
(1.07463 -5.3728e-16 -1.43124e-16)
(1.07463 -5.42265e-16 -1.06824e-16)
(1.0768 -5.46921e-16 -1.45087e-16)
(1.0768 -5.36968e-16 -9.39741e-17)
(1.07894 -5.44927e-16 -1.49402e-16)
(1.07894 -5.12341e-16 -9.29105e-17)
(1.08104 -5.44187e-16 -1.39382e-16)
(1.08104 -5.17784e-16 -9.76945e-17)
(1.08312 -5.37493e-16 -1.34514e-16)
(1.08312 -5.36377e-16 -1.02678e-16)
(1.08516 -5.11187e-16 -1.14874e-16)
(1.08516 -5.22733e-16 -1.16013e-16)
(1.08716 -4.85491e-16 -8.86202e-17)
(1.08716 -4.86465e-16 -1.16036e-16)
(1.08912 -4.50467e-16 -9.27883e-17)
(1.08912 -5.30178e-16 -8.35751e-17)
(1.09104 -5.47619e-16 -4.7931e-17)
(1.09104 -5.50923e-16 -5.92053e-17)
(1.09292 -4.89531e-16 -4.67495e-17)
(1.09292 -5.09644e-16 -3.40687e-17)
(1.09475 -4.82437e-16 -6.29797e-17)
(1.09475 -5.28679e-16 -2.69205e-17)
(1.09654 -4.85305e-16 -5.65278e-17)
(1.09654 -5.48123e-16 -2.7535e-17)
(1.09827 -4.50693e-16 -6.25356e-17)
(1.09827 -5.64194e-16 -3.03454e-17)
(1.09994 -4.91169e-16 -5.17306e-17)
(1.09994 -5.86295e-16 -4.51934e-17)
(1.10155 -5.07055e-16 -9.70446e-17)
(1.10155 -5.83741e-16 -5.94506e-17)
(1.1031 -4.90453e-16 -1.06032e-16)
(1.1031 -5.75462e-16 -7.54405e-17)
(1.10459 -5.2545e-16 -1.28756e-16)
(1.10459 -5.12953e-16 -5.6007e-17)
(1.106 -5.49929e-16 -9.7046e-17)
(1.106 -4.882e-16 -6.47523e-17)
(1.10733 -5.51162e-16 -1.41935e-16)
(1.10733 -5.28895e-16 -4.47523e-17)
(1.10857 -5.5929e-16 -1.44433e-16)
(1.10857 -5.23975e-16 -4.77672e-17)
(1.10973 -5.63385e-16 -1.45336e-16)
(1.10973 -4.929e-16 -2.43955e-17)
(1.11079 -5.74142e-16 -8.84371e-17)
(1.11079 -4.90145e-16 -2.22995e-17)
(1.11175 -5.28158e-16 -8.29206e-17)
(1.11175 -4.67988e-16 -2.21472e-17)
(1.11259 -5.04325e-16 -6.55972e-17)
(1.11259 -4.4325e-16 -3.94358e-18)
(1.11332 -4.57064e-16 -2.71273e-18)
(1.11332 -4.11357e-16 -3.43024e-17)
(1.11392 -3.86173e-16 -1.84498e-17)
(1.11392 -4.56681e-16 -5.1383e-17)
(1.11438 -4.51957e-16 9.09666e-18)
(1.11438 -4.07482e-16 -7.16324e-17)
(1.1147 -3.99729e-16 3.58434e-17)
(1.1147 -4.30545e-16 -8.80024e-17)
(1.11486 -4.181e-16 -2.14676e-17)
(1.11486 -4.25529e-16 -3.32466e-17)
(0.00324154 -2.9893e-19 1.63293e-18)
(0.00324154 -1.19703e-19 1.36979e-17)
(0.00978389 3.29255e-19 -7.9862e-19)
(0.00978389 2.02729e-19 2.90424e-17)
(0.0164471 9.72838e-20 -8.19479e-19)
(0.0164471 1.22391e-19 3.01108e-17)
(0.0232334 1.6202e-19 -8.35785e-19)
(0.0232334 1.82133e-19 3.12045e-17)
(0.030145 2.0259e-19 -8.46577e-19)
(0.030145 2.52662e-19 3.23225e-17)
(0.0371842 2.49817e-19 -8.51312e-19)
(0.0371842 3.3957e-19 3.34642e-17)
(0.0443533 2.98175e-19 -8.49405e-19)
(0.0443533 4.15566e-19 3.46291e-17)
(0.0516547 3.33499e-19 -8.40038e-19)
(0.0516547 4.9383e-19 3.58169e-17)
(0.0590907 3.29205e-19 -8.23175e-19)
(0.0590907 6.31764e-19 3.70279e-17)
(0.0666638 3.21404e-19 -7.98404e-19)
(0.0666638 7.79332e-19 3.82601e-17)
(0.0743763 3.43981e-19 -7.65424e-19)
(0.0743763 8.91724e-19 3.95134e-17)
(0.0822305 3.54964e-19 -7.23308e-19)
(0.0822305 1.05172e-18 4.07875e-17)
(0.0902287 3.37582e-19 -6.71832e-19)
(0.0902287 1.17638e-18 4.20807e-17)
(0.098373 3.62558e-19 -6.09248e-19)
(0.098373 1.25331e-18 4.339e-17)
(0.106665 3.98842e-19 -5.36353e-19)
(0.106665 1.33679e-18 4.47161e-17)
(0.115108 3.87768e-19 -4.52806e-19)
(0.115108 1.5176e-18 4.60572e-17)
(0.123701 3.4429e-19 -3.59393e-19)
(0.123701 1.71902e-18 4.74096e-17)
(0.132447 2.67381e-19 -2.57535e-19)
(0.132447 1.90299e-18 4.87712e-17)
(0.141345 1.78112e-19 -1.4338e-19)
(0.141345 2.08345e-18 5.0137e-17)
(0.150396 1.51716e-19 -1.46555e-20)
(0.150396 2.2196e-18 5.15001e-17)
(0.159598 1.69748e-19 1.30934e-19)
(0.159598 2.50518e-18 5.28558e-17)
(0.168949 2.08915e-19 2.95703e-19)
(0.168949 2.8171e-18 5.41972e-17)
(0.178446 1.45204e-19 4.80137e-19)
(0.178446 3.01598e-18 5.55136e-17)
(0.188083 4.23918e-20 6.80943e-19)
(0.188083 3.06068e-18 5.67911e-17)
(0.197854 1.2611e-19 8.96325e-19)
(0.197854 2.92462e-18 5.80188e-17)
(0.207751 2.25934e-19 1.12998e-18)
(0.207751 2.80765e-18 5.91773e-17)
(0.217763 1.55474e-19 1.37717e-18)
(0.217763 2.87525e-18 6.02538e-17)
(0.227878 6.35938e-20 1.6326e-18)
(0.227878 2.90338e-18 6.12381e-17)
(0.238082 -3.2975e-20 1.89733e-18)
(0.238082 2.93383e-18 6.21134e-17)
(0.248358 -2.0003e-19 2.17631e-18)
(0.248358 3.00164e-18 6.28616e-17)
(0.258689 -5.26142e-19 2.46843e-18)
(0.258689 3.21832e-18 6.34685e-17)
(0.269056 -7.88923e-19 2.76864e-18)
(0.269056 3.37672e-18 6.39322e-17)
(0.279437 -8.68663e-19 3.09327e-18)
(0.279437 3.22261e-18 6.42343e-17)
(0.289812 -1.08184e-18 3.43861e-18)
(0.289812 3.15525e-18 6.43695e-17)
(0.30016 -1.23326e-18 3.79506e-18)
(0.30016 3.19158e-18 6.43415e-17)
(0.310459 -1.63984e-18 4.17873e-18)
(0.310459 3.34024e-18 6.41409e-17)
(0.320689 -2.02028e-18 4.55877e-18)
(0.320689 3.54654e-18 6.377e-17)
(0.330831 -2.16331e-18 4.956e-18)
(0.330831 3.70325e-18 6.32286e-17)
(0.340869 -2.35153e-18 5.36759e-18)
(0.340869 3.5569e-18 6.2514e-17)
(0.350785 -2.52226e-18 5.79235e-18)
(0.350785 3.70303e-18 6.16427e-17)
(0.360567 -2.85835e-18 6.23596e-18)
(0.360567 4.27483e-18 6.06333e-17)
(0.370202 -3.28827e-18 6.70787e-18)
(0.370202 3.96216e-18 5.94837e-17)
(0.379681 -3.47305e-18 7.19767e-18)
(0.379681 4.06196e-18 5.82074e-17)
(0.388998 -3.53642e-18 7.69672e-18)
(0.388998 4.0536e-18 5.68292e-17)
(0.398145 -3.73563e-18 8.21004e-18)
(0.398145 3.96959e-18 5.5352e-17)
(0.407119 -4.11475e-18 8.73738e-18)
(0.407119 4.74662e-18 5.37898e-17)
(0.415918 -5.33995e-18 9.23554e-18)
(0.415918 4.90551e-18 5.21847e-17)
(0.424541 -6.2566e-18 9.71472e-18)
(0.424541 5.19435e-18 5.05491e-17)
(0.432988 -6.60305e-18 1.02015e-17)
(0.432988 5.70642e-18 4.88843e-17)
(0.44126 -7.48013e-18 1.06846e-17)
(0.44126 5.43529e-18 4.72054e-17)
(0.44936 -8.09496e-18 1.11382e-17)
(0.44936 4.9774e-18 4.55415e-17)
(0.457291 -8.45164e-18 1.15916e-17)
(0.457291 5.51614e-18 4.38906e-17)
(0.465055 -9.17133e-18 1.20375e-17)
(0.465055 5.26794e-18 4.22399e-17)
(0.472657 -9.75444e-18 1.24672e-17)
(0.472657 4.78082e-18 4.05821e-17)
(0.480101 -9.98609e-18 1.28968e-17)
(0.480101 5.1607e-18 3.89108e-17)
(0.487391 -1.05075e-17 1.33394e-17)
(0.487391 4.80432e-18 3.72026e-17)
(0.494532 -1.06778e-17 1.37751e-17)
(0.494532 4.7043e-18 3.55005e-17)
(0.501529 -1.04126e-17 1.42539e-17)
(0.501529 5.4516e-18 3.3791e-17)
(0.508385 -1.08121e-17 1.47375e-17)
(0.508385 6.09151e-18 3.20884e-17)
(0.515107 -1.11983e-17 1.52427e-17)
(0.515107 5.6293e-18 3.03632e-17)
(0.521698 -1.15611e-17 1.5789e-17)
(0.521698 5.29347e-18 2.86172e-17)
(0.528163 -1.22671e-17 1.63786e-17)
(0.528163 6.10867e-18 2.68596e-17)
(0.534507 -1.2552e-17 1.69603e-17)
(0.534507 6.86198e-18 2.51437e-17)
(0.540733 -1.29787e-17 1.75584e-17)
(0.540733 8.00995e-18 2.34813e-17)
(0.546847 -1.32309e-17 1.81157e-17)
(0.546847 7.53222e-18 2.19221e-17)
(0.552852 -1.33007e-17 1.87205e-17)
(0.552852 6.80923e-18 2.03994e-17)
(0.558752 -1.4448e-17 1.93483e-17)
(0.558752 7.62292e-18 1.89405e-17)
(0.564552 -1.60703e-17 1.9846e-17)
(0.564552 7.86194e-18 1.75777e-17)
(0.570254 -1.69379e-17 2.02473e-17)
(0.570254 5.6696e-18 1.63206e-17)
(0.575863 -1.77793e-17 2.06951e-17)
(0.575863 4.61266e-18 1.50264e-17)
(0.581382 -1.88008e-17 2.11008e-17)
(0.581382 5.35719e-18 1.38269e-17)
(0.586814 -1.9704e-17 2.14705e-17)
(0.586814 4.9489e-18 1.26695e-17)
(0.592162 -2.10524e-17 2.17692e-17)
(0.592162 5.25891e-18 1.16039e-17)
(0.59743 -2.25428e-17 2.20712e-17)
(0.59743 4.83437e-18 1.05446e-17)
(0.60262 -2.40554e-17 2.23182e-17)
(0.60262 4.3145e-18 9.52215e-18)
(0.607735 -2.50178e-17 2.25922e-17)
(0.607735 4.17881e-18 8.58104e-18)
(0.612778 -2.53046e-17 2.28866e-17)
(0.612778 6.03584e-18 7.69522e-18)
(0.617752 -2.54395e-17 2.32442e-17)
(0.617752 4.67746e-18 6.8661e-18)
(0.622658 -2.54131e-17 2.35503e-17)
(0.622658 2.0281e-18 6.17521e-18)
(0.6275 -2.6054e-17 2.38076e-17)
(0.6275 3.2957e-18 5.54176e-18)
(0.632278 -2.56925e-17 2.4089e-17)
(0.632278 1.82217e-18 5.03736e-18)
(0.636997 -2.42025e-17 2.45791e-17)
(0.636997 1.07822e-18 4.60001e-18)
(0.641657 -2.42398e-17 2.50474e-17)
(0.641657 2.57379e-18 4.48176e-18)
(0.646261 -2.48152e-17 2.53362e-17)
(0.646261 2.36354e-18 4.52976e-18)
(0.650811 -2.5199e-17 2.55091e-17)
(0.650811 2.16588e-18 4.66141e-18)
(0.655307 -2.56146e-17 2.56334e-17)
(0.655307 3.64353e-18 4.86582e-18)
(0.659753 -2.46359e-17 2.57664e-17)
(0.659753 2.21771e-18 5.09701e-18)
(0.66415 -2.41621e-17 2.58242e-17)
(0.66415 3.12827e-18 5.35095e-18)
(0.6685 -2.41117e-17 2.5578e-17)
(0.6685 5.9815e-18 5.76044e-18)
(0.672803 -2.42944e-17 2.51446e-17)
(0.672803 4.68723e-18 6.16691e-18)
(0.677062 -2.4232e-17 2.48024e-17)
(0.677062 3.68596e-18 6.53831e-18)
(0.681278 -2.3103e-17 2.45736e-17)
(0.681278 5.63319e-18 6.96947e-18)
(0.685452 -2.28743e-17 2.44149e-17)
(0.685452 6.67225e-18 7.36429e-18)
(0.689585 -2.26181e-17 2.41935e-17)
(0.689585 6.47081e-18 7.75409e-18)
(0.69368 -2.28465e-17 2.38569e-17)
(0.69368 8.28169e-18 8.17224e-18)
(0.697736 -2.30751e-17 2.38585e-17)
(0.697736 1.11744e-17 8.66608e-18)
(0.701756 -2.2729e-17 2.38081e-17)
(0.701756 1.03077e-17 9.43957e-18)
(0.70574 -2.28208e-17 2.36755e-17)
(0.70574 9.28799e-18 1.03746e-17)
(0.709689 -2.32742e-17 2.36837e-17)
(0.709689 8.61572e-18 1.16265e-17)
(0.713605 -2.43303e-17 2.3635e-17)
(0.713605 5.62375e-18 1.31505e-17)
(0.717489 -2.52411e-17 2.34693e-17)
(0.717489 8.77921e-18 1.49366e-17)
(0.72134 -2.47649e-17 2.37829e-17)
(0.72134 1.12059e-17 1.72215e-17)
(0.725162 -2.39138e-17 2.40658e-17)
(0.725162 8.07241e-18 1.94541e-17)
(0.728953 -2.18854e-17 2.41112e-17)
(0.728953 7.93487e-18 2.17307e-17)
(0.732716 -1.92418e-17 2.44442e-17)
(0.732716 1.06083e-17 2.40996e-17)
(0.73645 -1.99091e-17 2.51998e-17)
(0.73645 9.17537e-18 2.65848e-17)
(0.740157 -2.00064e-17 2.54839e-17)
(0.740157 9.3608e-18 2.91696e-17)
(0.743838 -1.83265e-17 2.56562e-17)
(0.743838 1.22315e-17 3.19814e-17)
(0.747493 -1.89632e-17 2.61458e-17)
(0.747493 1.24611e-17 3.48473e-17)
(0.751123 -1.9385e-17 2.67623e-17)
(0.751123 1.24015e-17 3.76428e-17)
(0.754729 -1.72436e-17 2.70822e-17)
(0.754729 1.42853e-17 4.08009e-17)
(0.75831 -1.53941e-17 2.74378e-17)
(0.75831 1.78192e-17 4.3976e-17)
(0.761869 -1.46235e-17 2.80621e-17)
(0.761869 2.18108e-17 4.71944e-17)
(0.765406 -1.44105e-17 2.86686e-17)
(0.765406 2.37787e-17 5.06311e-17)
(0.768921 -1.56173e-17 2.94612e-17)
(0.768921 2.47996e-17 5.35507e-17)
(0.772414 -1.47326e-17 3.0278e-17)
(0.772414 2.71757e-17 5.64409e-17)
(0.775887 -1.0916e-17 3.12122e-17)
(0.775887 3.57313e-17 5.90545e-17)
(0.77934 -9.40656e-18 3.16362e-17)
(0.77934 3.99168e-17 6.18761e-17)
(0.782773 -9.19685e-18 3.14826e-17)
(0.782773 3.82399e-17 6.46809e-17)
(0.786187 -4.24303e-18 3.10664e-17)
(0.786187 3.75797e-17 6.71569e-17)
(0.789582 -1.93009e-18 3.08873e-17)
(0.789582 3.97343e-17 6.91531e-17)
(0.792959 -1.04824e-18 3.05431e-17)
(0.792959 4.48042e-17 7.09202e-17)
(0.796319 -2.05942e-18 3.02137e-17)
(0.796319 4.81133e-17 7.21919e-17)
(0.799662 -6.56598e-18 2.90019e-17)
(0.799662 4.69713e-17 7.33052e-17)
(0.802987 -7.19382e-18 2.80045e-17)
(0.802987 4.9839e-17 7.37897e-17)
(0.806297 -5.45099e-18 2.7105e-17)
(0.806297 5.516e-17 7.50817e-17)
(0.80959 -1.79311e-18 2.63003e-17)
(0.80959 5.5498e-17 7.68733e-17)
(0.812868 -6.26746e-19 2.55441e-17)
(0.812868 5.80337e-17 7.83767e-17)
(0.81613 3.67637e-19 2.51276e-17)
(0.81613 5.62083e-17 7.9218e-17)
(0.819378 6.08995e-19 2.52352e-17)
(0.819378 5.29148e-17 7.97339e-17)
(0.822611 -1.67987e-18 2.47372e-17)
(0.822611 5.43197e-17 8.03287e-17)
(0.82583 -1.57725e-18 2.47226e-17)
(0.82583 5.63576e-17 8.05322e-17)
(0.829036 -2.7854e-18 2.53973e-17)
(0.829036 5.84723e-17 7.9746e-17)
(0.832227 -9.12203e-18 2.53937e-17)
(0.832227 5.89764e-17 7.89623e-17)
(0.835406 -1.3222e-17 2.48635e-17)
(0.835406 5.91509e-17 7.89133e-17)
(0.838572 -1.45412e-17 2.44011e-17)
(0.838572 6.3357e-17 7.89338e-17)
(0.841725 -1.36981e-17 2.38529e-17)
(0.841725 6.42074e-17 7.81091e-17)
(0.844866 -1.03652e-17 2.4166e-17)
(0.844866 6.564e-17 7.70174e-17)
(0.847994 -6.29355e-18 2.45133e-17)
(0.847994 6.66491e-17 7.60183e-17)
(0.851111 -7.00254e-18 2.50039e-17)
(0.851111 5.94434e-17 7.37663e-17)
(0.854217 -1.14869e-17 2.53844e-17)
(0.854217 5.91888e-17 7.02486e-17)
(0.857311 -9.62328e-18 2.59806e-17)
(0.857311 6.13806e-17 6.69163e-17)
(0.860393 -3.25482e-18 2.61421e-17)
(0.860393 5.89003e-17 6.41196e-17)
(0.863466 3.59482e-18 2.73084e-17)
(0.863466 5.89148e-17 6.08318e-17)
(0.866527 3.57918e-18 2.92011e-17)
(0.866527 5.71501e-17 5.66839e-17)
(0.869578 -4.85848e-19 3.01849e-17)
(0.869578 5.59921e-17 5.34942e-17)
(0.872619 -1.02188e-18 3.09936e-17)
(0.872619 5.61081e-17 5.06074e-17)
(0.875649 -1.98501e-18 3.16232e-17)
(0.875649 5.38531e-17 4.63702e-17)
(0.87867 -2.17692e-18 3.17614e-17)
(0.87867 5.6393e-17 3.39848e-17)
(0.881681 -1.03436e-17 3.1515e-17)
(0.881681 5.01096e-17 2.6633e-17)
(0.884683 -3.02567e-17 2.84159e-17)
(0.884683 4.70788e-17 1.71255e-17)
(0.887675 -3.85627e-17 2.19891e-17)
(0.887675 6.46334e-17 6.25699e-18)
(0.890658 -3.25941e-17 1.50067e-17)
(0.890658 6.53939e-17 -6.32572e-18)
(0.893632 -2.24726e-17 1.00389e-17)
(0.893632 5.98933e-17 -9.839e-18)
(0.896598 -1.93819e-17 4.91598e-18)
(0.896598 5.74534e-17 -7.15992e-18)
(0.899554 -2.48342e-17 -3.06354e-19)
(0.899554 4.89633e-17 -3.20999e-18)
(0.902502 -3.418e-17 -4.29097e-18)
(0.902502 5.11676e-17 -7.4882e-18)
(0.905441 -3.69278e-17 -7.78195e-18)
(0.905441 4.7967e-17 -1.12657e-17)