/*--------------------------------*- C++ -*----------------------------------*\
| =========                 |                                                 |
| \\      /  F ield         | OpenFOAM: The Open Source CFD Toolbox           |
|  \\    /   O peration     | Version:  2106                                  |
|   \\  /    A nd           | Website:  www.openfoam.com                      |
|    \\/     M anipulation  |                                                 |
\*---------------------------------------------------------------------------*/
FoamFile
{
    version     2.0;
    format      ascii;
    arch        "LSB;label=32;scalar=64";
    class       volVectorField;
    location    "10030";
    object      grad(T);
}
// * * * * * * * * * * * * * * * * * * * * * * * * * * * * * * * * * * * * * //

dimensions      [0 -1 0 1 0 0 0];

internalField   nonuniform List<vector> 
2000
(
(0 455.644 0.84323)
(0 455.644 0.84323)
(0 455.643 2.54543)
(-4.49311e-16 455.643 2.54543)
(-1.0363e-16 455.642 3.53267)
(0 455.642 3.53267)
(-3.39609e-16 455.64 3.59859)
(1.35844e-15 455.64 3.59859)
(0 455.637 3.66574)
(0 455.637 3.66574)
(0 455.634 3.73413)
(-3.29945e-15 455.634 3.73413)
(1.6385e-15 455.628 3.80378)
(4.29722e-15 455.628 3.80378)
(0 455.62 3.87471)
(1.06272e-14 455.62 3.87471)
(-1.58724e-15 455.608 3.94691)
(0 455.608 3.94691)
(0 455.59 4.0204)
(3.10013e-15 455.59 4.0204)
(3.04332e-15 455.563 4.09515)
(0 455.563 4.09515)
(2.39313e-15 455.523 4.17115)
(6.58495e-15 455.523 4.17115)
(0 455.463 4.24835)
(0 455.463 4.24835)
(-8.71389e-15 455.377 4.32669)
(0 455.377 4.32669)
(-8.89759e-15 455.253 4.40605)
(0 455.253 4.40605)
(1.46376e-14 455.08 4.48631)
(-1.41583e-14 455.08 4.48631)
(0 454.841 4.56728)
(0 454.841 4.56728)
(1.3638e-14 454.517 4.64872)
(1.6581e-14 454.517 4.64872)
(-4.45649e-15 454.082 4.73032)
(-5.24954e-15 454.082 4.73032)
(4.77343e-15 453.508 4.8117)
(1.90937e-14 453.508 4.8117)
(-5.09611e-15 452.761 4.89241)
(4.07688e-14 452.761 4.89241)
(0 451.802 4.97189)
(1.17658e-14 451.802 4.97189)
(0 450.588 5.04951)
(2.30351e-14 450.588 5.04951)
(0 449.07 5.12454)
(2.4395e-14 449.07 5.12454)
(-6.44439e-15 447.197 5.19616)
(0 447.197 5.19616)
(0 444.916 5.26352)
(2.71824e-14 444.916 5.26352)
(1.90291e-15 442.174 5.32568)
(0 442.174 5.32568)
(-7.51397e-15 438.919 5.38171)
(0 438.919 5.38171)
(0 435.105 5.43071)
(-8.72629e-15 435.105 5.43071)
(-1.68181e-14 430.694 5.47181)
(-4.15733e-14 430.694 5.47181)
(8.62691e-15 425.657 5.50426)
(3.45076e-14 425.657 5.50426)
(0 419.979 5.52744)
(0 419.979 5.52744)
(-9.3873e-15 413.656 5.54092)
(0 413.656 5.54092)
(-9.77129e-15 406.703 5.54443)
(0 406.703 5.54443)
(0 399.146 5.53795)
(4.06277e-14 399.146 5.53795)
(1.53333e-14 391.029 5.52162)
(-1.53333e-14 391.029 5.52162)
(4.10348e-14 382.404 5.49582)
(1.36161e-14 382.404 5.49582)
(-1.13163e-14 373.337 5.46108)
(4.52654e-14 373.337 5.46108)
(-1.17012e-14 363.897 5.41807)
(0 363.897 5.41807)
(0 354.161 5.36756)
(4.83368e-14 354.161 5.36756)
(-1.09502e-14 344.203 5.31042)
(3.58794e-14 344.203 5.31042)
(0 334.1 5.24754)
(0 334.1 5.24754)
(1.34713e-14 323.921 5.17979)
(0 323.921 5.17979)
(1.28642e-14 313.733 5.10807)
(-8.07877e-14 313.733 5.10807)
(1.39495e-14 303.596 5.03318)
(4.2816e-14 303.596 5.03318)
(1.43095e-14 293.562 4.95591)
(-5.7238e-14 293.562 4.95591)
(1.0357e-14 283.677 4.87695)
(5.86574e-14 283.677 4.87695)
(-2.45629e-14 273.977 4.79695)
(1.20111e-13 273.977 4.79695)
(3.94707e-14 264.495 4.71645)
(6.14315e-14 264.495 4.71645)
(7.97459e-15 255.254 4.63595)
(-8.64562e-14 255.254 4.63595)
(0 246.274 4.55585)
(0 246.274 4.55585)
(-3.91676e-14 237.567 4.4765)
(0 237.567 4.4765)
(0 229.143 4.3982)
(2.23933e-14 229.143 4.3982)
(2.1983e-14 221.008 4.32118)
(-8.99575e-14 221.008 4.32118)
(-4.2762e-15 213.162 4.24564)
(0 213.162 4.24564)
(-1.76088e-14 205.605 4.17172)
(0 205.605 4.17172)
(-3.58166e-14 198.334 4.09953)
(7.16332e-14 198.334 4.09953)
(-1.82025e-14 191.343 4.02917)
(0 191.343 4.02917)
(-3.69832e-14 184.628 3.96068)
(-7.39664e-14 184.628 3.96068)
(1.87757e-14 178.181 3.8941)
(-7.51027e-14 178.181 3.8941)
(-1.93135e-14 171.993 3.82945)
(-1.93135e-14 171.993 3.82945)
(-5.76182e-14 166.057 3.76672)
(1.73594e-13 166.057 3.76672)
(-9.86902e-16 160.363 3.70591)
(5.97842e-14 160.363 3.70591)
(0 154.902 3.64699)
(1.82711e-14 154.902 3.64699)
(-3.80617e-14 149.665 3.58994)
(8.05016e-14 149.665 3.58994)
(0 144.643 3.53472)
(-1.76076e-14 144.643 3.53472)
(-2.06348e-14 139.826 3.48129)
(-1.7285e-14 139.826 3.48129)
(0 135.207 3.4296)
(0 135.207 3.4296)
(0 130.776 3.3796)
(8.4514e-14 130.776 3.3796)
(0 126.526 3.33125)
(0 126.526 3.33125)
(-2.16074e-14 122.447 3.2845)
(8.64294e-14 122.447 3.2845)
(0 118.532 3.2393)
(8.73661e-14 118.532 3.2393)
(-2.20724e-14 114.774 3.19559)
(-8.82895e-14 114.774 3.19559)
(0 111.166 3.15333)
(-8.91999e-14 111.166 3.15333)
(-4.50489e-14 107.7 3.11246)
(9.00978e-14 107.7 3.11246)
(-4.54918e-14 104.369 3.07294)
(0 104.369 3.07294)
(0 101.169 3.03472)
(9.18578e-14 101.169 3.03472)
(-5.13864e-14 98.0924 2.99775)
(-9.27206e-14 98.0924 2.99775)
(2.33931e-14 95.1338 2.96199)
(0 95.1338 2.96199)
(-3.57854e-15 92.2878 2.92739)
(-6.72318e-14 92.2878 2.92739)
(-4.76225e-14 89.5492 2.89391)
(-5.33678e-14 89.5492 2.89391)
(0 86.9132 2.86151)
(0 86.9132 2.86151)
(4.99343e-14 84.3751 2.83014)
(-2.1947e-13 84.3751 2.83014)
(2.442e-14 81.9306 2.79978)
(0 81.9306 2.79978)
(-2.47811e-14 79.5753 2.77037)
(1.23255e-13 79.5753 2.77037)
(7.34686e-14 77.3053 2.7419)
(9.92583e-14 77.3053 2.7419)
(-2.25489e-15 75.1169 2.71432)
(2.38812e-14 75.1169 2.71432)
(-3.51423e-15 73.0064 2.68759)
(1.00803e-13 73.0064 2.68759)
(-2.06372e-14 70.9704 2.6617)
(2.49154e-13 70.9704 2.6617)
(-7.07635e-14 69.0058 2.6366)
(4.51845e-14 69.0058 2.6366)
(-5.15306e-14 67.1093 2.61228)
(1.03061e-13 67.1093 2.61228)
(-2.59498e-14 65.2781 2.58869)
(1.03799e-13 65.2781 2.58869)
(2.13729e-14 63.5094 2.56582)
(-4.27458e-14 63.5094 2.56582)
(2.63137e-14 61.8006 2.54363)
(1.05255e-13 61.8006 2.54363)
(-1.47003e-14 60.1492 2.52212)
(1.47166e-13 60.1492 2.52212)
(-2.66711e-14 58.5527 2.50124)
(1.06685e-13 58.5527 2.50124)
(2.68475e-14 57.009 2.48097)
(0 57.009 2.48097)
(-2.70224e-14 55.5158 2.46131)
(6.91193e-14 55.5158 2.46131)
(2.71958e-14 54.071 2.44222)
(0 54.071 2.44222)
(-2.73679e-14 52.6729 2.42368)
(1.09471e-13 52.6729 2.42368)
(6.44054e-14 51.3194 2.40568)
(7.32873e-14 51.3194 2.40568)
(0 50.0088 2.3882)
(7.46402e-14 50.0088 2.3882)
(0 48.7395 2.37122)
(-1.47032e-13 48.7395 2.37122)
(3.48771e-14 47.5097 2.35472)
(7.72941e-14 47.5097 2.35472)
(-6.24464e-14 46.3181 2.33869)
(3.4238e-14 46.3181 2.33869)
(-2.83728e-14 45.163 2.32311)
(1.13491e-13 45.163 2.32311)
(0 44.0432 2.30797)
(0 44.0432 2.30797)
(3.23901e-14 42.9572 2.29324)
(-3.23901e-14 42.9572 2.29324)
(2.88594e-14 41.9039 2.27893)
(1.15438e-13 41.9039 2.27893)
(-2.19434e-15 40.882 2.26501)
(8.48642e-14 40.882 2.26501)
(0 39.8903 2.25147)
(1.16714e-13 39.8903 2.25147)
(-5.86732e-14 38.9278 2.23831)
(1.17346e-13 38.9278 2.23831)
(2.94937e-14 37.9933 2.2255)
(1.17975e-13 37.9933 2.2255)
(0 37.0859 2.21303)
(-1.18599e-13 37.0859 2.21303)
(0 36.2046 2.2009)
(-5.69137e-14 36.2046 2.2009)
(-5.99189e-14 35.3484 2.1891)
(0 35.3484 2.1891)
(-3.0113e-14 34.5166 2.17761)
(-5.48469e-14 34.5166 2.17761)
(-5.38419e-14 33.7081 2.16643)
(-1.21062e-13 33.7081 2.16643)
(8.72625e-14 32.9223 2.15554)
(-2.64276e-14 32.9223 2.15554)
(3.51936e-14 32.1583 2.14494)
(1.22274e-13 32.1583 2.14494)
(-3.07188e-14 31.4153 2.13461)
(1.22875e-13 31.4153 2.13461)
(6.17365e-14 30.6928 2.12456)
(-2.50013e-14 30.6928 2.12456)
(3.1017e-14 29.9899 2.11476)
(1.24068e-13 29.9899 2.11476)
(-3.11651e-14 29.306 2.10522)
(-4.81867e-14 29.306 2.10522)
(0 28.6405 2.09592)
(2.505e-13 28.6405 2.09592)
(-7.78961e-14 27.9928 2.08686)
(4.64369e-14 27.9928 2.08686)
(-4.5586e-14 27.3623 2.07803)
(2.52842e-13 27.3623 2.07803)
(1.3e-14 26.7484 2.06942)
(-4.47506e-14 26.7484 2.06942)
(0 26.1506 2.06103)
(1.27581e-13 26.1506 2.06103)
(3.20395e-14 25.5684 2.05285)
(2.56316e-13 25.5684 2.05285)
(-3.21831e-14 25.0013 2.04487)
(1.28732e-13 25.0013 2.04487)
(-9.2335e-15 24.4487 2.03709)
(1.29304e-13 24.4487 2.03709)
(-6.49369e-14 23.9103 2.02949)
(8.90758e-14 23.9103 2.02949)
(-8.01007e-14 23.3856 2.02209)
(3.00933e-13 23.3856 2.02209)
(0 22.8741 2.01486)
(9.16899e-14 22.8741 2.01486)
(-3.28924e-14 22.3755 2.00781)
(0 22.3755 2.00781)
(3.30327e-14 21.8894 2.00092)
(0 21.8894 2.00092)
(3.71944e-14 21.4153 1.9942)
(-3.71944e-14 21.4153 1.9942)
(-3.33117e-14 20.953 1.98764)
(-3.65128e-14 20.953 1.98764)
(-3.34505e-14 20.502 1.98122)
(-1.69646e-13 20.502 1.98122)
(-3.35889e-14 20.062 1.97496)
(2.68711e-13 20.062 1.97496)
(0 19.6327 1.96883)
(1.34907e-13 19.6327 1.96883)
(4.49594e-17 19.2137 1.96285)
(1.01548e-13 19.2137 1.96285)
(0 18.8048 1.957)
(1.02717e-13 18.8048 1.957)
(-6.68156e-14 18.4057 1.95127)
(1.36551e-13 18.4057 1.95127)
(0 18.0161 1.94567)
(1.37096e-13 18.0161 1.94567)
(-3.44098e-14 17.6356 1.94019)
(0 17.6356 1.94019)
(-6.54592e-14 17.2641 1.93482)
(3.09141e-14 17.2641 1.93482)
(-6.50277e-14 16.9013 1.92956)
(3.03476e-14 16.9013 1.92956)
(5.02322e-15 16.5469 1.92441)
(-1.39259e-13 16.5469 1.92441)
(0 16.2007 1.91936)
(0 16.2007 1.91936)
(0 15.8624 1.91441)
(0 15.8624 1.91441)
(9.15834e-14 15.5319 1.90955)
(5.63671e-14 15.5319 1.90955)
(-3.53495e-14 15.2088 1.90478)
(1.41398e-13 15.2088 1.90478)
(-3.54823e-14 14.8931 1.90009)
(1.41929e-13 14.8931 1.90009)
(-3.56148e-14 14.5845 1.89548)
(0 14.5845 1.89548)
(0 14.2827 1.89095)
(1.42988e-13 14.2827 1.89095)
(-3.58788e-14 13.9877 1.88649)
(-1.43515e-13 13.9877 1.88649)
(3.60103e-14 13.6992 1.8821)
(1.44041e-13 13.6992 1.8821)
(3.61415e-14 13.4171 1.87777)
(1.44566e-13 13.4171 1.87777)
(3.62724e-14 13.1411 1.8735)
(0 13.1411 1.8735)
(0 12.8711 1.86928)
(1.45612e-13 12.8711 1.86928)
(-3.65333e-14 12.6069 1.86511)
(0 12.6069 1.86511)
(0 12.3484 1.86099)
(1.92644e-13 12.3484 1.86099)
(-3.67929e-14 12.0955 1.85691)
(-4.51482e-14 12.0955 1.85691)
(0 11.8479 1.85287)
(4.43209e-14 11.8479 1.85287)
(0 11.6056 1.84886)
(1.48206e-13 11.6056 1.84886)
(-4.27114e-14 11.3683 1.84488)
(1.91433e-13 11.3683 1.84488)
(-3.73089e-14 11.136 1.84093)
(0 11.136 1.84093)
(-3.74372e-14 10.9085 1.83699)
(0 10.9085 1.83699)
(-7.79713e-14 10.6857 1.83306)
(4.04062e-14 10.6857 1.83306)
(3.57201e-14 10.4675 1.82914)
(1.50772e-13 10.4675 1.82914)
(-7.45223e-14 10.2537 1.82523)
(1.51282e-13 10.2537 1.82523)
(-3.82253e-14 10.0442 1.82131)
(1.5179e-13 10.0442 1.82131)
(-3.80745e-14 9.83897 1.81739)
(-3.75249e-14 9.83897 1.81739)
(-7.50384e-14 9.63781 1.81345)
(0 9.63781 1.81345)
(3.61622e-14 9.44065 1.8095)
(-3.61622e-14 9.44065 1.8095)
(0 9.24737 1.80552)
(1.53815e-13 9.24737 1.80552)
(-3.85795e-14 9.05786 1.80152)
(-1.54318e-13 9.05786 1.80152)
(0 8.87204 1.79747)
(0 8.87204 1.79747)
(-1.05997e-13 8.68979 1.79339)
(-3.10643e-13 8.68979 1.79339)
(-3.89554e-14 8.51102 1.78925)
(0 8.51102 1.78925)
(0 8.33565 1.78506)
(0 8.33565 1.78506)
(0 8.16357 1.78081)
(1.56818e-13 8.16357 1.78081)
(-7.86574e-14 7.9947 1.77649)
(3.1463e-13 7.9947 1.77649)
(0 7.82895 1.77208)
(1.5781e-13 7.82895 1.77208)
(-3.95762e-14 7.66624 1.7676)
(-6.01123e-14 7.66624 1.7676)
(0 7.50648 1.76301)
(-1.58798e-13 7.50648 1.76301)
(-3.98225e-14 7.34958 1.75833)
(0 7.34958 1.75833)
(0 7.19548 1.75353)
(1.59781e-13 7.19548 1.75353)
(0 7.04409 1.74862)
(1.6027e-13 7.04409 1.74862)
(4.01895e-14 6.89534 1.74357)
(3.21516e-13 6.89534 1.74357)
(4.03112e-14 6.74914 1.73838)
(1.61245e-13 6.74914 1.73838)
(0 6.60543 1.73304)
(1.6173e-13 6.60543 1.73304)
(4.05536e-14 6.46413 1.72753)
(2.14059e-13 6.46413 1.72753)
(-4.06743e-14 6.32517 1.72185)
(3.25394e-13 6.32517 1.72185)
(-4.07946e-14 6.18848 1.71598)
(-1.63178e-13 6.18848 1.71598)
(0 6.05399 1.70992)
(0 6.05399 1.70992)
(-4.1034e-14 5.92163 1.70363)
(-4.8148e-14 5.92163 1.70363)
(-3.50406e-14 5.79133 1.69712)
(-4.72657e-14 5.79133 1.69712)
(-8.76713e-14 5.66302 1.69036)
(1.65087e-13 5.66302 1.69036)
(0 5.53664 1.68334)
(0 5.53664 1.68334)
(-4.15079e-14 5.41213 1.67605)
(0 5.41213 1.67605)
(0 5.28941 1.66845)
(-4.38952e-14 5.28941 1.66845)
(-1.34874e-15 5.16842 1.66054)
(3.77028e-13 5.16842 1.66054)
(8.3717e-14 5.04909 1.6523)
(-1.67434e-13 5.04909 1.6523)
(8.39487e-14 4.93136 1.64369)
(0 4.93136 1.64369)
(8.41793e-14 4.81516 1.63471)
(3.36717e-13 4.81516 1.63471)
(4.22044e-14 4.70044 1.62531)
(1.28799e-13 4.70044 1.62531)
(4.23185e-14 4.58711 1.61549)
(1.69274e-13 4.58711 1.61549)
(-4.2432e-14 4.47511 1.6052)
(1.69728e-13 4.47511 1.6052)
(-4.68669e-15 4.36439 1.59443)
(-3.78582e-14 4.36439 1.59443)
(0 4.25486 1.58313)
(1.70628e-13 4.25486 1.58313)
(-8.55372e-14 4.14646 1.57127)
(1.34591e-13 4.14646 1.57127)
(-7.86943e-14 4.03911 1.55882)
(3.58149e-14 4.03911 1.55882)
(0 3.93275 1.54573)
(3.43915e-13 3.93275 1.54573)
(0 3.8273 1.53196)
(-6.90287e-14 3.8273 1.53196)
(4.32068e-14 3.72268 1.51747)
(-1.72827e-13 3.72268 1.51747)
(4.33142e-14 3.61882 1.50221)
(0 3.61882 1.50221)
(-2.15384e-14 3.51563 1.48612)
(0 3.51563 1.48612)
(2.2946e-14 3.41302 1.46914)
(-6.41064e-14 3.41302 1.46914)
(0 3.3109 1.4512)
(1.74522e-13 3.3109 1.4512)
(0 3.20919 1.43225)
(1.74936e-13 3.20919 1.43225)
(4.38361e-14 3.10778 1.4122)
(1.75344e-13 3.10778 1.4122)
(0 3.00657 1.39097)
(-1.75748e-13 3.00657 1.39097)
(-4.40367e-14 2.90545 1.36847)
(0 2.90545 1.36847)
(-4.4135e-14 2.80431 1.3446)
(1.19167e-13 2.80431 1.3446)
(0 2.703 1.31926)
(1.76927e-13 2.703 1.31926)
(1.09626e-14 2.60142 1.29233)
(-1.77308e-13 2.60142 1.29233)
(4.44207e-14 2.4994 1.26367)
(3.01089e-13 2.4994 1.26367)
(0 2.39681 1.23314)
(1.24769e-13 2.39681 1.23314)
(-4.46027e-14 2.29347 1.20059)
(0 2.29347 1.20059)
(-6.65621e-15 2.18922 1.16585)
(2.3011e-13 2.18922 1.16585)
(5.62925e-15 2.08387 1.12873)
(1.79108e-13 2.08387 1.12873)
(-4.48607e-14 1.97722 1.08902)
(1.79443e-13 1.97722 1.08902)
(0 1.86905 1.0465)
(9.71514e-14 1.86905 1.0465)
(4.50211e-14 1.75916 1.00093)
(9.53712e-14 1.75916 1.00093)
(-9.01947e-14 1.6473 0.952052)
(1.80389e-13 1.6473 0.952052)
(0 1.53324 0.89958)
(0 1.53324 0.89958)
(0 1.41673 0.843222)
(0 1.41673 0.843222)
(4.53079e-14 1.29754 0.782668)
(1.81231e-13 1.29754 0.782668)
(-4.53712e-14 1.17541 0.717599)
(1.81485e-13 1.17541 0.717599)
(-8.81077e-14 1.05014 0.647694)
(0 1.05014 0.647694)
(0 0.921525 0.572638)
(0 0.921525 0.572638)
(0 0.789423 0.492134)
(-1.82148e-13 0.789423 0.492134)
(-4.55831e-14 0.653733 0.405909)
(0 0.653733 0.405909)
(-4.5624e-14 0.514419 0.313735)
(2.2213e-13 0.514419 0.313735)
(0 0.371527 0.21543)
(1.82638e-13 0.371527 0.21543)
(-4.56889e-14 0.225179 0.110873)
(0 0.225179 0.110873)
(-4.5712e-14 8.01511e-07 2.96661e-07)
(3.65809e-13 5.30799e-07 1.96463e-07)
(0 455.644 -0.84323)
(0 455.644 -0.84323)
(-4.49311e-16 455.643 -2.54543)
(0 455.643 -2.54543)
(-2.07261e-16 455.642 -3.53267)
(0 455.642 -3.53267)
(3.39609e-16 455.64 -3.59859)
(0 455.64 -3.59859)
(-1.15999e-15 455.637 -3.66574)
(0 455.637 -3.66574)
(2.49395e-15 455.634 -3.73413)
(-1.66909e-15 455.634 -3.73413)
(1.6385e-15 455.628 -3.80378)
(-3.277e-15 455.628 -3.80378)
(2.65681e-15 455.62 -3.87471)
(0 455.62 -3.87471)
(-4.74525e-15 455.608 -3.94691)
(9.50698e-15 455.608 -3.94691)
(1.85092e-15 455.59 -4.0204)
(-7.40367e-15 455.59 -4.0204)
(1.19571e-15 455.563 -4.09515)
(-8.47806e-15 455.563 -4.09515)
(2.39313e-15 455.523 -4.17115)
(0 455.523 -4.17115)
(-2.67184e-15 455.463 -4.24835)
(-1.06874e-14 455.463 -4.24835)
(2.87907e-15 455.377 -4.32669)
(-1.1823e-14 455.377 -4.32669)
(3.24497e-15 455.253 -4.40605)
(-1.29799e-14 455.253 -4.40605)
(0 455.08 -4.48631)
(0 455.08 -4.48631)
(3.83963e-15 454.841 -4.56728)
(-2.08059e-14 454.841 -4.56728)
(4.14524e-15 454.517 -4.64872)
(1.6581e-14 454.517 -4.64872)
(4.45649e-15 454.082 -4.73032)
(0 454.082 -4.73032)
(9.54686e-15 453.508 -4.8117)
(0 453.508 -4.8117)
(5.09611e-15 452.761 -4.89241)
(2.03844e-14 452.761 -4.89241)
(5.42455e-15 451.802 -4.97189)
(1.17658e-14 451.802 -4.97189)
(-5.75878e-15 450.588 -5.04951)
(0 450.588 -5.04951)
(1.21975e-14 449.07 -5.12454)
(0 449.07 -5.12454)
(6.44439e-15 447.197 -5.19616)
(0 447.197 -5.19616)
(0 444.916 -5.26352)
(0 444.916 -5.26352)
(0 442.174 -5.32568)
(0 442.174 -5.32568)
(1.50279e-14 438.919 -5.38171)
(0 438.919 -5.38171)
(7.8806e-15 435.105 -5.43071)
(3.15224e-14 435.105 -5.43071)
(1.65035e-14 430.694 -5.47181)
(0 430.694 -5.47181)
(8.62691e-15 425.657 -5.50426)
(0 425.657 -5.50426)
(9.00563e-15 419.979 -5.52744)
(-8.25531e-15 419.979 -5.52744)
(2.55954e-14 413.656 -5.54092)
(-3.75492e-14 413.656 -5.54092)
(0 406.703 -5.54443)
(-3.90852e-14 406.703 -5.54443)
(0 399.146 -5.53795)
(0 399.146 -5.53795)
(1.05435e-14 391.029 -5.52162)
(-4.21738e-14 391.029 -5.52162)
(6.80804e-15 382.404 -5.49582)
(0 382.404 -5.49582)
(-1.13163e-14 373.337 -5.46108)
(-4.52654e-14 373.337 -5.46108)
(2.80445e-15 363.897 -5.41807)
(-1.08116e-13 363.897 -5.41807)
(-1.20842e-14 354.161 -5.36756)
(-1.42399e-14 354.161 -5.36756)
(-1.24646e-14 344.203 -5.31042)
(0 344.203 -5.31042)
(-1.28418e-14 334.1 -5.24754)
(-1.02734e-13 334.1 -5.24754)
(2.64306e-14 323.921 -5.17979)
(0 323.921 -5.17979)
(2.68092e-14 313.733 -5.10807)
(-6.75633e-14 313.733 -5.10807)
(2.78991e-14 303.596 -5.03318)
(4.2816e-14 303.596 -5.03318)
(2.70537e-14 293.562 -4.95591)
(-6.99823e-14 293.562 -4.95591)
(-2.93287e-14 283.677 -4.87695)
(-5.86574e-14 283.677 -4.87695)
(3.00277e-14 273.977 -4.79695)
(6.00554e-14 273.977 -4.79695)
(2.41128e-14 264.495 -4.71645)
(0 264.495 -4.71645)
(-1.56963e-14 255.254 -4.63595)
(-1.49242e-13 255.254 -4.63595)
(1.60291e-14 246.274 -4.55585)
(-8.73537e-14 246.274 -4.55585)
(1.63563e-14 237.567 -4.4765)
(0 237.567 -4.4765)
(0 229.143 -4.3982)
(-1.33422e-13 229.143 -4.3982)
(1.69936e-14 221.008 -4.32118)
(0 221.008 -4.32118)
(3.46079e-14 213.162 -4.24564)
(0 213.162 -4.24564)
(0 205.605 -4.17172)
(-9.16199e-14 205.605 -4.17172)
(-2.8882e-15 198.334 -4.09953)
(0 198.334 -4.09953)
(1.82025e-14 191.343 -4.02917)
(-9.32255e-14 191.343 -4.02917)
(0 184.628 -3.96068)
(-7.39664e-14 184.628 -3.96068)
(0 178.181 -3.8941)
(-7.51027e-14 178.181 -3.8941)
(1.90549e-14 171.993 -3.82945)
(0 171.993 -3.82945)
(1.89596e-14 166.057 -3.76672)
(-1.89596e-14 166.057 -3.76672)
(3.82113e-14 160.363 -3.70591)
(0 160.363 -3.70591)
(3.81355e-14 154.902 -3.64699)
(-1.82711e-14 154.902 -3.64699)
(1.79363e-14 149.665 -3.58994)
(-9.84379e-14 149.665 -3.58994)
(0 144.643 -3.53472)
(0 144.643 -3.53472)
(3.79198e-14 139.826 -3.48129)
(-9.98244e-14 139.826 -3.48129)
(0 135.207 -3.4296)
(-8.35343e-14 135.207 -3.4296)
(3.33146e-14 130.776 -3.3796)
(0 130.776 -3.3796)
(-2.13697e-14 126.526 -3.33125)
(1.70958e-13 126.526 -3.33125)
(0 122.447 -3.2845)
(0 122.447 -3.2845)
(2.18415e-14 118.532 -3.2393)
(-8.73661e-14 118.532 -3.2393)
(2.20724e-14 114.774 -3.19559)
(-8.82895e-14 114.774 -3.19559)
(3.0372e-14 111.166 -3.15333)
(-1.48028e-13 111.166 -3.15333)
(-2.25245e-14 107.7 -3.11246)
(-2.98155e-14 107.7 -3.11246)
(0 104.369 -3.07294)
(2.92691e-14 104.369 -3.07294)
(0 101.169 -3.03472)
(9.18578e-14 101.169 -3.03472)
(5.02611e-15 98.0924 -2.99775)
(-3.70882e-13 98.0924 -2.99775)
(4.67862e-14 95.1338 -2.96199)
(-9.35725e-14 95.1338 -2.96199)
(-2.36035e-14 92.2878 -2.92739)
(0 92.2878 -2.92739)
(-2.38112e-14 89.5492 -2.89391)
(-9.52449e-14 89.5492 -2.89391)
(-2.18381e-14 86.9132 -2.86151)
(-1.22261e-13 86.9132 -2.86151)
(1.49546e-15 84.3751 -2.83014)
(-2.1947e-13 84.3751 -2.83014)
(4.88401e-14 81.9306 -2.79978)
(-9.76801e-14 81.9306 -2.79978)
(2.46184e-14 79.5753 -2.77037)
(9.84735e-14 79.5753 -2.77037)
(0 77.3053 -2.7419)
(9.92583e-14 77.3053 -2.7419)
(1.12745e-15 75.1169 -2.71432)
(-1.23916e-13 75.1169 -2.71432)
(-7.3845e-14 73.0064 -2.68759)
(5.39156e-14 73.0064 -2.68759)
(2.53908e-14 70.9704 -2.6617)
(-2.3014e-14 70.9704 -2.6617)
(-2.98669e-15 69.0058 -2.6366)
(0 69.0058 -2.6366)
(0 67.1093 -2.61228)
(-4.43566e-14 67.1093 -2.61228)
(2.59498e-14 65.2781 -2.58869)
(1.03799e-13 65.2781 -2.58869)
(6.41187e-14 63.5094 -2.56582)
(-1.04531e-13 63.5094 -2.56582)
(0 61.8006 -2.54363)
(-4.19625e-14 61.8006 -2.54363)
(6.76868e-14 60.1492 -2.52212)
(6.47794e-14 60.1492 -2.52212)
(0 58.5527 -2.50124)
(0 58.5527 -2.50124)
(0 57.009 -2.48097)
(-2.1478e-13 57.009 -2.48097)
(0 55.5158 -2.46131)
(0 55.5158 -2.46131)
(2.71958e-14 54.071 -2.44222)
(-1.08783e-13 54.071 -2.44222)
(2.73679e-14 52.6729 -2.42368)
(0 52.6729 -2.42368)
(2.75385e-14 51.3194 -2.40568)
(2.20308e-13 51.3194 -2.40568)
(6.38992e-14 50.0088 -2.3882)
(-3.61913e-14 50.0088 -2.3882)
(2.7876e-14 48.7395 -2.37122)
(-1.47032e-13 48.7395 -2.37122)
(2.80428e-14 47.5097 -2.35472)
(7.72941e-14 47.5097 -2.35472)
(3.4238e-14 46.3181 -2.33869)
(0 46.3181 -2.33869)
(-2.83728e-14 45.163 -2.32311)
(-1.13491e-13 45.163 -2.32311)
(3.29947e-14 44.0432 -2.30797)
(-3.29947e-14 44.0432 -2.30797)
(0 42.9572 -2.29324)
(-3.23901e-14 42.9572 -2.29324)
(0 41.9039 -2.27893)
(0 41.9039 -2.27893)
(3.12139e-14 40.882 -2.26501)
(-1.16078e-13 40.882 -2.26501)
(-3.06419e-14 39.8903 -2.25147)
(-6.12837e-14 39.8903 -2.25147)
(3.00804e-14 38.9278 -2.23831)
(-3.00804e-14 38.9278 -2.23831)
(-2.95646e-14 37.9933 -2.2255)
(0 37.9933 -2.2255)
(-2.96499e-14 37.0859 -2.21303)
(0 37.0859 -2.21303)
(-2.98051e-14 36.2046 -2.2009)
(0 36.2046 -2.2009)
(-2.59113e-14 35.3484 -2.1891)
(0 35.3484 -2.1891)
(0 34.5166 -2.17761)
(-5.48469e-14 34.5166 -2.17761)
(-3.36103e-14 33.7081 -2.16643)
(-2.42125e-13 33.7081 -2.16643)
(0 32.9223 -2.15554)
(0 32.9223 -2.15554)
(3.05685e-14 32.1583 -2.14494)
(0 32.1583 -2.14494)
(0 31.4153 -2.13461)
(7.19391e-14 31.4153 -2.13461)
(0 30.6928 -2.12456)
(-1.23473e-13 30.6928 -2.12456)
(0 29.9899 -2.11476)
(-1.73154e-13 29.9899 -2.11476)
(-3.11651e-14 29.306 -2.10522)
(-1.2466e-13 29.306 -2.10522)
(0 28.6405 -2.09592)
(1.2525e-13 28.6405 -2.09592)
(3.14592e-14 27.9928 -2.08686)
(0 27.9928 -2.08686)
(6.32104e-14 27.3623 -2.07803)
(1.26421e-13 27.3623 -2.07803)
(-3.17506e-14 26.7484 -2.06942)
(1.27002e-13 26.7484 -2.06942)
(0 26.1506 -2.06103)
(0 26.1506 -2.06103)
(7.51651e-14 25.5684 -2.05285)
(-4.31256e-14 25.5684 -2.05285)
(3.21831e-14 25.0013 -2.04487)
(1.28732e-13 25.0013 -2.04487)
(3.2326e-14 24.4487 -2.03709)
(8.77446e-14 24.4487 -2.03709)
(3.24684e-14 23.9103 -2.02949)
(0 23.9103 -2.02949)
(4.00503e-14 23.3856 -2.02209)
(-1.30441e-13 23.3856 -2.02209)
(7.2068e-14 22.8741 -2.01486)
(-3.93164e-14 22.8741 -2.01486)
(5.7036e-15 22.3755 -2.00781)
(0 22.3755 -2.00781)
(3.78887e-14 21.8894 -2.00092)
(-3.78887e-14 21.8894 -2.00092)
(-4.02199e-15 21.4153 -1.9942)
(0 21.4153 -1.9942)
(3.01106e-14 20.953 -1.98764)
(3.65128e-14 20.953 -1.98764)
(0 20.502 -1.98122)
(3.58438e-14 20.502 -1.98122)
(3.35889e-14 20.062 -1.97496)
(2.68711e-13 20.062 -1.97496)
(0 19.6327 -1.96883)
(0 19.6327 -1.96883)
(-6.77734e-14 19.2137 -1.96285)
(0 19.2137 -1.96285)
(-3.40012e-14 18.8048 -1.957)
(0 18.8048 -1.957)
(0 18.4057 -1.95127)
(3.26778e-14 18.4057 -1.95127)
(3.4274e-14 18.0161 -1.94567)
(0 18.0161 -1.94567)
(3.14912e-14 17.6356 -1.94019)
(0 17.6356 -1.94019)
(6.90902e-14 17.2641 -1.93482)
(-1.3818e-13 17.2641 -1.93482)
(6.93602e-14 16.9013 -1.92956)
(-1.3872e-13 16.9013 -1.92956)
(-5.02322e-15 16.5469 -1.92441)
(-4.17777e-13 16.5469 -1.92441)
(-5.70338e-15 16.2007 -1.91936)
(-2.92456e-14 16.2007 -1.91936)
(0 15.8624 -1.91441)
(1.11622e-13 15.8624 -1.91441)
(0 15.5319 -1.90955)
(-5.63671e-14 15.5319 -1.90955)
(-1.99847e-14 15.2088 -1.90478)
(5.53342e-14 15.2088 -1.90478)
(-3.54823e-14 14.8931 -1.90009)
(-1.96249e-13 14.8931 -1.90009)
(0 14.5845 -1.89548)
(0 14.5845 -1.89548)
(8.80946e-14 14.2827 -1.89095)
(1.42988e-13 14.2827 -1.89095)
(7.17576e-14 13.9877 -1.88649)
(-1.43515e-13 13.9877 -1.88649)
(0 13.6992 -1.8821)
(-1.44041e-13 13.6992 -1.8821)
(3.61415e-14 13.4171 -1.87777)
(0 13.4171 -1.87777)
(0 13.1411 -1.8735)
(-1.4509e-13 13.1411 -1.8735)
(4.7724e-14 12.8711 -1.86928)
(-3.38948e-13 12.8711 -1.86928)
(-4.68495e-14 12.6069 -1.86511)
(-4.68495e-14 12.6069 -1.86511)
(7.33265e-14 12.3484 -1.86099)
(1.46653e-13 12.3484 -1.86099)
(3.67929e-14 12.0955 -1.85691)
(0 12.0955 -1.85691)
(0 11.8479 -1.85287)
(1.9201e-13 11.8479 -1.85287)
(3.70515e-14 11.6056 -1.84886)
(-1.48206e-13 11.6056 -1.84886)
(4.27114e-14 11.3683 -1.84488)
(-1.91433e-13 11.3683 -1.84488)
(0 11.136 -1.84093)
(0 11.136 -1.84093)
(3.74372e-14 10.9085 -1.83699)
(-1.90909e-13 10.9085 -1.83699)
(7.51304e-14 10.6857 -1.83306)
(-1.50261e-13 10.6857 -1.83306)
(7.73586e-14 10.4675 -1.82914)
(1.11106e-13 10.4675 -1.82914)
(7.56408e-14 10.2537 -1.82523)
(1.12343e-13 10.2537 -1.82523)
(3.79476e-14 10.0442 -1.82131)
(0 10.0442 -1.82131)
(-3.80745e-14 9.83897 -1.81739)
(0 9.83897 -1.81739)
(3.82012e-14 9.63781 -1.81345)
(-1.52805e-13 9.63781 -1.81345)
(3.83275e-14 9.44065 -1.8095)
(1.5331e-13 9.44065 -1.8095)
(7.69073e-14 9.24737 -1.80552)
(0 9.24737 -1.80552)
(0 9.05786 -1.80152)
(1.54318e-13 9.05786 -1.80152)
(-3.87051e-14 8.87204 -1.79747)
(-1.5482e-13 8.87204 -1.79747)
(1.11244e-13 8.68979 -1.79339)
(-1.88905e-13 8.68979 -1.79339)
(-3.89554e-14 8.51102 -1.78925)
(-3.44611e-13 8.51102 -1.78925)
(3.90801e-14 8.33565 -1.78506)
(-1.88684e-13 8.33565 -1.78506)
(-6.35418e-14 8.16357 -1.78081)
(1.56818e-13 8.16357 -1.78081)
(1.628e-14 7.9947 -1.77649)
(1.57315e-13 7.9947 -1.77649)
(1.00687e-13 7.82895 -1.77208)
(-2.19045e-13 7.82895 -1.77208)
(-2.05361e-14 7.66624 -1.7676)
(0 7.66624 -1.7676)
(0 7.50648 -1.76301)
(-1.58798e-13 7.50648 -1.76301)
(0 7.34958 -1.75833)
(-1.5929e-13 7.34958 -1.75833)
(0 7.19548 -1.75353)
(-1.59781e-13 7.19548 -1.75353)
(0 7.04409 -1.74862)
(0 7.04409 -1.74862)
(4.01895e-14 6.89534 -1.74357)
(-5.48028e-14 6.89534 -1.74357)
(4.03112e-14 6.74914 -1.73838)
(1.61245e-13 6.74914 -1.73838)
(4.04326e-14 6.60543 -1.73304)
(0 6.60543 -1.73304)
(0 6.46413 -1.72753)
(1.62214e-13 6.46413 -1.72753)
(0 6.32517 -1.72185)
(0 6.32517 -1.72185)
(4.99623e-14 6.18848 -1.71598)
(-2.13141e-13 6.18848 -1.71598)
(-4.90467e-14 6.05399 -1.70992)
(0 6.05399 -1.70992)
(-4.1034e-14 5.92163 -1.70363)
(0 5.92163 -1.70363)
(-4.11531e-14 5.79133 -1.69712)
(-1.64612e-13 5.79133 -1.69712)
(-4.12718e-14 5.66302 -1.69036)
(-1.65087e-13 5.66302 -1.69036)
(0 5.53664 -1.68334)
(0 5.53664 -1.68334)
(4.47146e-14 5.41213 -1.67605)
(-3.32063e-13 5.41213 -1.67605)
(0 5.28941 -1.66845)
(-2.10396e-13 5.28941 -1.66845)
(0 5.16842 -1.66054)
(0 5.16842 -1.66054)
(0 5.04909 -1.6523)
(-1.67434e-13 5.04909 -1.6523)
(-4.48256e-16 4.93136 -1.64369)
(-4.15261e-14 4.93136 -1.64369)
(4.34141e-14 4.81516 -1.63471)
(1.68359e-13 4.81516 -1.63471)
(8.44087e-14 4.70044 -1.62531)
(0 4.70044 -1.62531)
(1.23922e-13 4.58711 -1.61549)
(-2.08559e-13 4.58711 -1.61549)
(8.09969e-14 4.47511 -1.6052)
(-3.85649e-14 4.47511 -1.6052)
(-4.68669e-15 4.36439 -1.59443)
(-3.78582e-14 4.36439 -1.59443)
(3.71645e-14 4.25486 -1.58313)
(1.70628e-13 4.25486 -1.58313)
(-4.27686e-14 4.14646 -1.57127)
(1.34591e-13 4.14646 -1.57127)
(0 4.03911 -1.55882)
(-2.07332e-13 4.03911 -1.55882)
(0 3.93275 -1.54573)
(-2.07116e-13 3.93275 -1.54573)
(-1.12127e-13 3.8273 -1.53196)
(-1.72394e-13 3.8273 -1.53196)
(8.64137e-14 3.72268 -1.51747)
(-1.72827e-13 3.72268 -1.51747)
(4.33142e-14 3.61882 -1.50221)
(0 3.61882 -1.50221)
(-6.5303e-14 3.51563 -1.48612)
(1.73683e-13 3.51563 -1.48612)
(0 3.41302 -1.46914)
(0 3.41302 -1.46914)
(0 3.3109 -1.4512)
(-1.74522e-13 3.3109 -1.4512)
(6.17784e-14 3.20919 -1.43225)
(-6.17784e-14 3.20919 -1.43225)
(-1.68102e-14 3.10778 -1.4122)
(1.75344e-13 3.10778 -1.4122)
(4.39371e-14 3.00657 -1.39097)
(-3.51496e-13 3.00657 -1.39097)
(5.84441e-14 2.90545 -1.36847)
(-5.84441e-14 2.90545 -1.36847)
(-1.32381e-14 2.80431 -1.3446)
(0 2.80431 -1.3446)
(4.42318e-14 2.703 -1.31926)
(-2.33249e-13 2.703 -1.31926)
(-9.96167e-14 2.60142 -1.29233)
(6.67289e-14 2.60142 -1.29233)
(3.45649e-14 2.4994 -1.26367)
(1.77683e-13 2.4994 -1.26367)
(3.57433e-14 2.39681 -1.23314)
(0 2.39681 -1.23314)
(-7.70283e-15 2.29347 -1.20059)
(0 2.29347 -1.20059)
(4.46908e-14 2.18922 -1.16585)
(0 2.18922 -1.16585)
(-5.62925e-15 2.08387 -1.12873)
(-2.29514e-13 2.08387 -1.12873)
(4.48607e-14 1.97722 -1.08902)
(1.79443e-13 1.97722 -1.08902)
(0 1.86905 -1.0465)
(-2.7692e-13 1.86905 -1.0465)
(4.50211e-14 1.75916 -1.00093)
(-1.80085e-13 1.75916 -1.00093)
(9.19091e-14 1.6473 -0.952052)
(0 1.6473 -0.952052)
(4.59539e-14 1.53324 -0.89958)
(1.80683e-13 1.53324 -0.89958)
(0 1.41673 -0.843222)
(-3.61928e-13 1.41673 -0.843222)
(0 1.29754 -0.782668)
(-1.81231e-13 1.29754 -0.782668)
(4.53712e-14 1.17541 -0.717599)
(-1.81485e-13 1.17541 -0.717599)
(4.54307e-14 1.05014 -0.647694)
(9.63687e-14 1.05014 -0.647694)
(4.54861e-14 0.921525 -0.572638)
(-3.63888e-13 0.921525 -0.572638)
(9.10739e-14 0.789423 -0.492134)
(-1.82148e-13 0.789423 -0.492134)
(0 0.653733 -0.405909)
(0 0.653733 -0.405909)
(-4.5624e-14 0.514419 -0.313735)
(1.42862e-13 0.514419 -0.313735)
(0 0.371527 -0.21543)
(-2.21545e-13 0.371527 -0.21543)
(-4.56889e-14 0.225179 -0.110873)
(1.82756e-13 0.225179 -0.110873)
(4.5712e-14 8.25917e-07 -3.05694e-07)
(2.58064e-13 5.30027e-07 -1.96177e-07)
(4.57687e-14 -8.02358e-07 2.96977e-07)
(1.82848e-13 -5.18537e-07 1.91925e-07)
(-3.81946e-14 -0.225179 0.110873)
(3.65511e-13 -0.225179 0.110873)
(3.21556e-14 -0.371526 0.21543)
(-7.78151e-14 -0.371526 0.21543)
(0 -0.514419 0.313734)
(1.82496e-13 -0.514419 0.313734)
(0 -0.653732 0.405909)
(3.64665e-13 -0.653732 0.405909)
(-4.5537e-14 -0.789423 0.492133)
(-1.82148e-13 -0.789423 0.492133)
(0 -0.921524 0.572638)
(8.379e-14 -0.921524 0.572638)
(-4.54307e-14 -1.05014 0.647694)
(-1.81723e-13 -1.05014 0.647694)
(0 -1.17541 0.717599)
(0 -1.17541 0.717599)
(4.53079e-14 -1.29753 0.782668)
(0 -1.29753 0.782668)
(0 -1.41673 0.843222)
(1.80964e-13 -1.41673 0.843222)
(0 -1.53324 0.89958)
(2.72591e-13 -1.53324 0.89958)
(0 -1.6473 0.952052)
(0 -1.6473 0.952052)
(2.66445e-15 -1.75916 1.00093)
(-2.2777e-13 -1.75916 1.00093)
(8.98844e-14 -1.86905 1.0465)
(-9.71514e-14 -1.86905 1.0465)
(-4.94825e-14 -1.97722 1.08902)
(4.94825e-14 -1.97722 1.08902)
(1.90366e-13 -2.08387 1.12873)
(7.82953e-14 -2.08387 1.12873)
(-4.46908e-14 -2.18922 1.16585)
(-1.78763e-13 -2.18922 1.16585)
(-8.92054e-14 -2.29347 1.20059)
(0 -2.29347 1.20059)
(-4.45126e-14 -2.39681 1.23314)
(1.78051e-13 -2.39681 1.23314)