/*--------------------------------*- C++ -*----------------------------------*\
| =========                 |                                                 |
| \\      /  F ield         | OpenFOAM: The Open Source CFD Toolbox           |
|  \\    /   O peration     | Version:  2106                                  |
|   \\  /    A nd           | Website:  www.openfoam.com                      |
|    \\/     M anipulation  |                                                 |
\*---------------------------------------------------------------------------*/
FoamFile
{
    version     2.0;
    format      ascii;
    arch        "LSB;label=32;scalar=64";
    class       volScalarField;
    location    "10030";
    object      p;
}
// * * * * * * * * * * * * * * * * * * * * * * * * * * * * * * * * * * * * * //

dimensions      [0 2 -2 0 0 0 0];

internalField   nonuniform List<scalar> 
2000
(
1.27931e-15
1.61718e-14
2.68981e-15
1.61716e-14
2.97293e-15
1.61715e-14
2.99313e-15
1.61715e-14
3.06869e-15
1.61716e-14
3.19986e-15
1.61718e-14
3.33699e-15
1.61721e-14
3.47e-15
1.61725e-14
3.6002e-15
1.6173e-14
3.72816e-15
1.61736e-14
3.85372e-15
1.61743e-14
3.97681e-15
1.6175e-14
4.09731e-15
1.61759e-14
4.21533e-15
1.61769e-14
4.33084e-15
1.61779e-14
4.44388e-15
1.61791e-14
4.55472e-15
1.61803e-14
4.66327e-15
1.61816e-14
4.76959e-15
1.6183e-14
4.87374e-15
1.61845e-14
4.97574e-15
1.61861e-14
5.07574e-15
1.61879e-14
5.17363e-15
1.61899e-14
5.26966e-15
1.61921e-14
5.36382e-15
1.61945e-14
5.45624e-15
1.61971e-14
5.54707e-15
1.61998e-14
5.63653e-15
1.62028e-14
5.72466e-15
1.62059e-14
5.81153e-15
1.62091e-14
5.89724e-15
1.62125e-14
5.98215e-15
1.6216e-14
6.06633e-15
1.62197e-14
6.14982e-15
1.62237e-14
6.23285e-15
1.62279e-14
6.31555e-15
1.62325e-14
6.39788e-15
1.62375e-14
6.47995e-15
1.62429e-14
6.56206e-15
1.62488e-14
6.64421e-15
1.62552e-14
6.72642e-15
1.62622e-14
6.80867e-15
1.627e-14
6.89139e-15
1.62784e-14
6.97464e-15
1.62874e-14
7.05791e-15
1.6297e-14
7.14142e-15
1.63075e-14
7.22537e-15
1.63188e-14
7.30938e-15
1.6331e-14
7.39384e-15
1.6345e-14
7.47854e-15
1.636e-14
7.56324e-15
1.63756e-14
7.64897e-15
1.63918e-14
7.73462e-15
1.64088e-14
7.82148e-15
1.64267e-14
7.90955e-15
1.64448e-14
7.99715e-15
1.64634e-14
8.08564e-15
1.64828e-14
8.17497e-15
1.65034e-14
8.26436e-15
1.65252e-14
8.35372e-15
1.65468e-14
8.44427e-15
1.65684e-14
8.53412e-15
1.65901e-14
8.62423e-15
1.66136e-14
8.71425e-15
1.66384e-14
8.80576e-15
1.66623e-14
8.89645e-15
1.66877e-14
8.98679e-15
1.67146e-14
9.07607e-15
1.67424e-14
9.16418e-15
1.67707e-14
9.25279e-15
1.68012e-14
9.3406e-15
1.6833e-14
9.42748e-15
1.68671e-14
9.51331e-15
1.69033e-14
9.59667e-15
1.69408e-14
9.6813e-15
1.69772e-14
9.76315e-15
1.70158e-14
9.84407e-15
1.70581e-14
9.92458e-15
1.71008e-14
1.00011e-14
1.71446e-14
1.00798e-14
1.71877e-14
1.01597e-14
1.72299e-14
1.02388e-14
1.72735e-14
1.03175e-14
1.73194e-14
1.03965e-14
1.73612e-14
1.04763e-14
1.74024e-14
1.05569e-14
1.74454e-14
1.06382e-14
1.74896e-14
1.07199e-14
1.75306e-14
1.08012e-14
1.75699e-14
1.0882e-14
1.76108e-14
1.09605e-14
1.7647e-14
1.10381e-14
1.7685e-14
1.11162e-14
1.77217e-14
1.11865e-14
1.77556e-14
1.12602e-14
1.77868e-14
1.13338e-14
1.78188e-14
1.14089e-14
1.78499e-14
1.14853e-14
1.78787e-14
1.15594e-14
1.79086e-14
1.16343e-14
1.79382e-14
1.17048e-14
1.79711e-14
1.17758e-14
1.80091e-14
1.1847e-14
1.80473e-14
1.19198e-14
1.80808e-14
1.19889e-14
1.81184e-14
1.2061e-14
1.81534e-14
1.21322e-14
1.81912e-14
1.22078e-14
1.82232e-14
1.22783e-14
1.82532e-14
1.23563e-14
1.82832e-14
1.24286e-14
1.83115e-14
1.25023e-14
1.83403e-14
1.25752e-14
1.83717e-14
1.26507e-14
1.84041e-14
1.27304e-14
1.84303e-14
1.28101e-14
1.84525e-14
1.28878e-14
1.84783e-14
1.29667e-14
1.85024e-14
1.30427e-14
1.85173e-14
1.3127e-14
1.85272e-14
1.32039e-14
1.85476e-14
1.32806e-14
1.8575e-14
1.33645e-14
1.85982e-14
1.34553e-14
1.86212e-14
1.35447e-14
1.86522e-14
1.36324e-14
1.86797e-14
1.37219e-14
1.8712e-14
1.38047e-14
1.87533e-14
1.38843e-14
1.87922e-14
1.39681e-14
1.88291e-14
1.40556e-14
1.88724e-14
1.41462e-14
1.89184e-14
1.42354e-14
1.89516e-14
1.43346e-14
1.89804e-14
1.44194e-14
1.90252e-14
1.45092e-14
1.90664e-14
1.46074e-14
1.90963e-14
1.47013e-14
1.91355e-14
1.48026e-14
1.91641e-14
1.48985e-14
1.91867e-14
1.49966e-14
1.91914e-14
1.50964e-14
1.92108e-14
1.52014e-14
1.92413e-14
1.53029e-14
1.92628e-14
1.54126e-14
1.92755e-14
1.55178e-14
1.92959e-14
1.56263e-14
1.93244e-14
1.57292e-14
1.93487e-14
1.58425e-14
1.93733e-14
1.59494e-14
1.93981e-14
1.60575e-14
1.94152e-14
1.61665e-14
1.94247e-14
1.6276e-14
1.94349e-14
1.64185e-14
1.94458e-14
1.65448e-14
1.9457e-14
1.66545e-14
1.94765e-14
1.67639e-14
1.94962e-14
1.68726e-14
1.95242e-14
1.69885e-14
1.95192e-14
1.70951e-14
1.95301e-14
1.72169e-14
1.95484e-14
1.73371e-14
1.95654e-14
1.74393e-14
1.95805e-14
1.75479e-14
1.96016e-14
1.76628e-14
1.96366e-14
1.77673e-14
1.9644e-14
1.78777e-14
1.96478e-14
1.80025e-14
1.96632e-14
1.81255e-14
1.96972e-14
1.82387e-14
1.97246e-14
1.83503e-14
1.97361e-14
1.84607e-14
1.97469e-14
1.85703e-14
1.97477e-14
1.86961e-14
1.97776e-14
1.88062e-14
1.9827e-14
1.89415e-14
1.98458e-14
1.90462e-14
1.98646e-14
1.91616e-14
1.98897e-14
1.92806e-14
1.99356e-14
1.94198e-14
1.9976e-14
1.95646e-14
2.00165e-14
1.96683e-14
2.00379e-14
1.97482e-14
2.00699e-14
1.98527e-14
2.01109e-14
1.99662e-14
2.01595e-14
2.00742e-14
2.02455e-14
2.01615e-14
2.03675e-14
2.02422e-14
2.04632e-14
2.03312e-14
2.05328e-14
2.04285e-14
2.05757e-14
2.05036e-14
2.06368e-14
2.05879e-14
2.06997e-14
2.06817e-14
2.0779e-14
2.07692e-14
2.08586e-14
2.08503e-14
2.09225e-14
2.09565e-14
2.10005e-14
2.10113e-14
2.11059e-14
2.10741e-14
2.1179e-14
2.11434e-14
2.12662e-14
2.12332e-14
2.13231e-14
2.12834e-14
2.13788e-14
2.13693e-14
2.14634e-14
2.14457e-14
2.15318e-14
2.15128e-14
2.15835e-14
2.15408e-14
2.16329e-14
2.16165e-14
2.17108e-14
2.16493e-14
2.17576e-14
2.16969e-14
2.17883e-14
2.17732e-14
2.18596e-14
2.18487e-14
2.1941e-14
2.19372e-14
2.19878e-14
2.20127e-14
2.20538e-14
2.20314e-14
2.21378e-14
2.21314e-14
2.22304e-14
2.21961e-14
2.23036e-14
2.22506e-14
2.23574e-14
2.23768e-14
2.24757e-14
2.24616e-14
2.26031e-14
2.25329e-14
2.26342e-14
2.25941e-14
2.26788e-14
2.27546e-14
2.27634e-14
2.27774e-14
2.27983e-14
2.28517e-14
2.28371e-14
2.29257e-14
2.29306e-14
2.30234e-14
2.30268e-14
2.30936e-14
2.30449e-14
2.31422e-14
2.31113e-14
2.31658e-14
2.32015e-14
2.32083e-14
2.32703e-14
2.33145e-14
2.33238e-14
2.33889e-14
2.34082e-14
2.34558e-14
2.34737e-14
2.34632e-14
2.3518e-14
2.34568e-14
2.35692e-14
2.35472e-14
2.36625e-14
2.35391e-14
2.38287e-14
2.35738e-14
2.39037e-14
2.36666e-14
2.39465e-14
2.3733e-14
2.40281e-14
2.37916e-14
2.40845e-14
2.38813e-14
2.41384e-14
2.39595e-14
2.41582e-14
2.41583e-14
2.42066e-14
2.42362e-14
2.42763e-14
2.43145e-14
2.43418e-14
2.43516e-14
2.438e-14
2.4368e-14
2.44157e-14
2.4444e-14
2.44915e-14
2.44899e-14
2.45573e-14
2.45002e-14
2.45799e-14
1.29672e-14
1.38266e-14
1.29671e-14
1.38266e-14
1.29671e-14
1.38266e-14
1.29672e-14
1.38267e-14
1.29674e-14
1.38267e-14
1.29677e-14
1.38269e-14
1.29681e-14
1.3827e-14
1.29685e-14
1.38272e-14
1.29691e-14
1.38275e-14
1.29697e-14
1.38278e-14
1.29704e-14
1.38281e-14
1.29711e-14
1.38285e-14
1.29721e-14
1.38289e-14
1.2973e-14
1.38294e-14
1.29742e-14
1.38298e-14
1.29754e-14
1.38303e-14
1.29767e-14
1.38308e-14
1.29782e-14
1.38313e-14
1.29797e-14
1.3832e-14
1.29814e-14
1.38328e-14
1.29832e-14
1.38335e-14
1.29852e-14
1.38343e-14
1.29874e-14
1.38352e-14
1.29896e-14
1.38362e-14
1.29921e-14
1.38372e-14
1.29947e-14
1.38384e-14
1.29976e-14
1.38397e-14
1.30006e-14
1.38409e-14
1.30037e-14
1.38423e-14
1.30071e-14
1.38439e-14
1.30107e-14
1.38457e-14
1.30146e-14
1.38476e-14
1.30188e-14
1.38494e-14
1.30233e-14
1.38516e-14
1.30279e-14
1.38537e-14
1.3033e-14
1.3856e-14
1.30385e-14
1.38585e-14
1.30442e-14
1.38614e-14
1.30503e-14
1.38644e-14
1.30568e-14
1.38673e-14
1.30639e-14
1.38706e-14
1.30711e-14
1.38744e-14
1.30788e-14
1.38781e-14
1.30868e-14
1.38822e-14
1.30953e-14
1.38866e-14
1.31042e-14
1.38917e-14
1.31142e-14
1.38968e-14
1.31245e-14
1.39022e-14
1.31352e-14
1.3909e-14
1.31466e-14
1.39169e-14
1.31588e-14
1.39245e-14
1.31719e-14
1.39322e-14
1.31856e-14
1.39408e-14
1.32002e-14
1.39493e-14
1.3216e-14
1.39584e-14
1.32327e-14
1.39689e-14
1.32506e-14
1.39793e-14
1.32686e-14
1.39908e-14
1.32875e-14
1.40024e-14
1.33078e-14
1.4014e-14
1.3329e-14
1.40263e-14
1.33499e-14
1.40414e-14
1.33719e-14
1.40568e-14
1.33948e-14
1.40729e-14
1.34186e-14
1.40891e-14
1.34432e-14
1.41059e-14
1.34683e-14
1.41246e-14
1.34942e-14
1.41435e-14
1.35211e-14
1.41618e-14
1.35496e-14
1.41814e-14
1.35772e-14
1.42048e-14
1.36064e-14
1.42302e-14
1.36353e-14
1.42556e-14
1.36639e-14
1.42812e-14
1.36975e-14
1.43056e-14
1.37302e-14
1.433e-14
1.37639e-14
1.43591e-14
1.37959e-14
1.43923e-14
1.38311e-14
1.44222e-14
1.38674e-14
1.44513e-14
1.39048e-14
1.44847e-14
1.39427e-14
1.45209e-14
1.3981e-14
1.45564e-14
1.40197e-14
1.45882e-14
1.40618e-14
1.46198e-14
1.41066e-14
1.46566e-14
1.41512e-14
1.46977e-14
1.41971e-14
1.47364e-14
1.42427e-14
1.47734e-14
1.42912e-14
1.48117e-14
1.43426e-14
1.48529e-14
1.43922e-14
1.48938e-14
1.444e-14
1.49391e-14
1.44924e-14
1.49874e-14
1.45463e-14
1.50337e-14
1.46001e-14
1.50863e-14
1.46536e-14
1.51401e-14
1.47054e-14
1.51935e-14
1.47587e-14
1.52482e-14
1.48118e-14
1.5299e-14
1.48682e-14
1.53493e-14
1.4928e-14
1.54095e-14
1.49895e-14
1.54691e-14
1.50545e-14
1.55212e-14
1.51142e-14
1.55761e-14
1.51775e-14
1.56375e-14
1.52409e-14
1.56964e-14
1.53044e-14
1.57527e-14
1.53681e-14
1.58101e-14
1.54301e-14
1.58758e-14
1.55052e-14
1.59389e-14
1.55714e-14
1.59992e-14
1.56417e-14
1.60642e-14
1.57086e-14
1.6132e-14
1.57761e-14
1.62044e-14
1.58477e-14
1.6276e-14
1.59162e-14
1.63522e-14
1.59833e-14
1.64276e-14
1.6053e-14
1.64945e-14
1.61214e-14
1.65642e-14
1.62002e-14
1.66369e-14
1.62702e-14
1.67202e-14
1.63429e-14
1.68027e-14
1.64186e-14
1.68728e-14
1.64971e-14
1.6942e-14
1.65709e-14
1.70182e-14
1.66478e-14
1.70975e-14
1.67279e-14
1.718e-14
1.68033e-14
1.72657e-14
1.68742e-14
1.73468e-14
1.69484e-14
1.74192e-14
1.70222e-14
1.7499e-14
1.70955e-14
1.75822e-14
1.71643e-14
1.76649e-14
1.72328e-14
1.77391e-14
1.73089e-14
1.7813e-14
1.73889e-14
1.78865e-14
1.74687e-14
1.79557e-14
1.75404e-14
1.80165e-14
1.76203e-14
1.80729e-14
1.77087e-14
1.8133e-14
1.78018e-14
1.8213e-14
1.79039e-14
1.82928e-14
1.79784e-14
1.83681e-14
1.80541e-14
1.84391e-14
1.81351e-14
1.85141e-14
1.82012e-14
1.86015e-14
1.82809e-14
1.86932e-14
1.83497e-14
1.87856e-14
1.84157e-14
1.88626e-14
1.84953e-14
1.89243e-14
1.85805e-14
1.89709e-14
1.86634e-14
1.90434e-14
1.87361e-14
1.91174e-14
1.88231e-14
1.91848e-14
1.89e-14
1.92376e-14
1.89753e-14
1.93005e-14
1.90575e-14
1.93819e-14
1.91384e-14
1.94657e-14
1.92264e-14
1.95274e-14
1.93301e-14
1.96004e-14
1.9417e-14
1.96929e-14
1.95037e-14
1.97559e-14
1.95741e-14
1.98062e-14
1.96617e-14
1.98849e-14
1.97419e-14
1.99594e-14
1.98314e-14
2.00632e-14
1.99221e-14
2.01478e-14
2.0006e-14
2.02139e-14
2.00916e-14
2.03109e-14
2.01707e-14
2.0374e-14
2.0252e-14
2.04202e-14
2.03361e-14
2.04822e-14
2.04073e-14
2.05687e-14
2.04734e-14
2.06641e-14
2.05586e-14
2.07373e-14
2.06386e-14
2.08051e-14
2.07137e-14
2.08764e-14
2.08004e-14
2.09601e-14
2.08827e-14
2.10812e-14
2.09757e-14
2.11853e-14
2.10631e-14
2.12738e-14
2.11449e-14
2.13161e-14
2.12386e-14
2.13283e-14
2.12985e-14
2.13893e-14
2.13245e-14
2.14835e-14
2.14261e-14
2.15496e-14
2.14775e-14
2.16187e-14
2.15418e-14
2.16916e-14
2.16033e-14
2.17535e-14
2.16618e-14
2.179e-14
2.17183e-14
2.18482e-14
2.17886e-14
2.18817e-14
2.18427e-14
2.19365e-14
2.18964e-14
2.19974e-14
2.19495e-14
2.20964e-14
2.19999e-14
2.2159e-14
2.2063e-14
2.22016e-14
2.21094e-14
2.22239e-14
2.21709e-14
2.22554e-14
2.22031e-14
2.23105e-14
2.22356e-14
2.23303e-14
2.22685e-14
2.23895e-14
2.23304e-14
2.24147e-14
2.23932e-14
2.24347e-14
2.24606e-14
2.24925e-14
2.24893e-14
2.2543e-14
2.2553e-14
2.26033e-14
2.25941e-14
2.26604e-14
2.2641e-14
2.27598e-14
2.26756e-14
2.28333e-14
2.27529e-14
2.28858e-14
2.27878e-14
2.29169e-14
2.28974e-14
2.29552e-14
2.30013e-14
2.30237e-14
2.31047e-14
2.30919e-14
2.3185e-14
2.31307e-14
2.31611e-14
2.31631e-14
2.31943e-14
2.31629e-14
2.32867e-14
2.31829e-14
2.33083e-14
2.32438e-14
2.33616e-14
2.33208e-14
2.34196e-14
2.33366e-14
2.3487e-14
2.33963e-14
2.35117e-14
2.34705e-14
2.35671e-14
2.35101e-14
2.36285e-14
2.35425e-14
2.36485e-14
2.36162e-14
2.37278e-14
2.36318e-14
2.37728e-14
2.36578e-14
2.38364e-14
2.37165e-14
2.38945e-14
2.38051e-14
2.38932e-14
2.38781e-14
2.39508e-14
2.38986e-14
2.39272e-14
2.39106e-14
2.39612e-14
2.39895e-14
2.39749e-14
2.40606e-14
2.39587e-14
2.40604e-14
2.40238e-14
2.40879e-14
2.41517e-14
2.41809e-14
2.42108e-14
2.42636e-14
2.42434e-14
2.42726e-14
2.42988e-14
2.43229e-14
2.43635e-14
2.43902e-14
2.44125e-14
2.44285e-14
2.44687e-14
2.44566e-14
2.45412e-14
2.45606e-14
2.45837e-14
2.46634e-14
2.46234e-14
2.46695e-14
2.45765e-14
2.47027e-14
2.45243e-14
2.46075e-14
2.46014e-14
2.46396e-14
2.46554e-14
2.46696e-14
2.4652e-14
2.46475e-14
2.46401e-14
2.46431e-14
2.46729e-14
2.46844e-14
2.46544e-14
2.4726e-14
2.46859e-14
2.4709e-14
2.46921e-14
2.46959e-14
2.46524e-14
2.46847e-14
2.46764e-14
2.46779e-14
2.46764e-14
2.46689e-14
2.4721e-14
2.47029e-14
2.47448e-14
2.47317e-14
2.47464e-14
2.4712e-14
2.47031e-14
2.46875e-14
2.4709e-14
2.46848e-14
2.47156e-14
2.47038e-14
2.47203e-14
2.46475e-14
2.46815e-14
2.46614e-14
2.46486e-14
2.46519e-14
2.46205e-14
2.46195e-14
2.45694e-14
2.45889e-14
2.4544e-14
2.45605e-14
2.45192e-14
2.45332e-14
2.44939e-14
2.4507e-14
2.44669e-14
2.45075e-14
2.44086e-14
2.4485e-14
2.4369e-14
2.44165e-14
2.43517e-14
2.43807e-14
2.43315e-14
2.43766e-14
2.4332e-14
2.43506e-14
2.43032e-14
2.43278e-14
2.42446e-14
2.431e-14
2.42343e-14
2.43011e-14
2.42737e-14
2.42716e-14
2.42863e-14
2.42419e-14
2.42174e-14
2.42366e-14
2.42058e-14
2.42328e-14
2.41931e-14
2.42462e-14
2.41336e-14
2.41917e-14
2.40993e-14
2.41418e-14
2.41211e-14
2.414e-14
2.40528e-14
2.41413e-14
2.40364e-14
2.41206e-14
2.40436e-14
2.40931e-14
2.40476e-14
2.40861e-14
2.40055e-14
2.40823e-14
2.39907e-14
2.40541e-14
2.39899e-14
2.40609e-14
2.3972e-14
2.40716e-14
2.39353e-14
2.40575e-14
2.39249e-14
2.4049e-14
2.39259e-14
2.40303e-14
2.3924e-14
2.39695e-14
2.39057e-14
2.39709e-14
2.39165e-14
2.40203e-14
2.38936e-14
2.40264e-14
2.38826e-14
2.39901e-14
2.38689e-14
2.39415e-14
2.38533e-14
2.39263e-14
2.38515e-14
2.39446e-14
2.38474e-14
2.39501e-14
2.38567e-14
2.39433e-14
2.3848e-14
2.39237e-14
2.38377e-14
2.39385e-14
2.38252e-14
2.39406e-14
2.38264e-14
2.39297e-14
2.38259e-14
2.39055e-14
2.38245e-14
2.38669e-14
2.37908e-14
2.38449e-14
2.37563e-14
2.38241e-14
2.37611e-14
2.38371e-14
2.37567e-14
2.38195e-14
2.37433e-14
2.37948e-14
2.37292e-14
2.37872e-14
2.37143e-14
2.37967e-14
2.37063e-14
2.37749e-14
2.36974e-14
2.37296e-14
2.36881e-14
2.37338e-14
2.36703e-14
2.37465e-14
2.36679e-14
2.37517e-14
2.36565e-14
2.3733e-14
2.36444e-14
2.3715e-14
2.36482e-14
2.36894e-14
2.36437e-14
2.36806e-14
2.36473e-14
2.36803e-14
2.36346e-14
2.36802e-14
2.36052e-14
2.3672e-14
2.36003e-14
2.36644e-14
2.35784e-14
2.36736e-14
2.35559e-14
2.36999e-14
2.35404e-14
2.37028e-14
2.35235e-14
2.36824e-14
2.35134e-14
2.36798e-14
2.35102e-14
2.36785e-14
2.35055e-14
2.36703e-14
2.34996e-14
2.36632e-14
2.35089e-14
2.36574e-14
2.35088e-14
2.36361e-14
2.34997e-14
2.3632e-14
2.34896e-14
2.36288e-14
2.34868e-14
2.36182e-14
2.3475e-14
2.36166e-14
2.34664e-14
2.36159e-14
2.34693e-14
2.36118e-14
2.34673e-14
2.35921e-14
2.34646e-14
2.35729e-14
2.34654e-14
2.35623e-14
2.34616e-14
2.35561e-14
2.34656e-14
2.35421e-14
2.34692e-14
2.35363e-14
2.34726e-14
2.35266e-14
2.34717e-14
2.3521e-14
2.34706e-14
2.35154e-14
2.34695e-14
2.34976e-14
2.34763e-14
2.34838e-14
2.34831e-14
2.34699e-14
2.3482e-14
2.34677e-14
2.34771e-14
2.34732e-14
2.34762e-14
2.34626e-14
2.34755e-14
2.34517e-14
2.3467e-14
2.34406e-14
2.34705e-14
2.34411e-14
2.34664e-14
2.34531e-14
2.34585e-14
2.34492e-14
2.34507e-14
2.34334e-14
2.34469e-14
2.34291e-14
2.34434e-14
2.34363e-14
2.34322e-14
2.34393e-14
2.34211e-14
2.34307e-14
2.34102e-14
2.34297e-14
2.34031e-14
2.34363e-14
2.33998e-14
2.34352e-14
2.3389e-14
2.34303e-14
2.33801e-14
2.34272e-14
2.33711e-14
2.34317e-14
2.33584e-14
2.34418e-14
2.33549e-14
2.34389e-14
2.33494e-14
2.34324e-14
2.33439e-14
2.34279e-14
2.33401e-14
2.34271e-14
2.3338e-14
2.34245e-14
2.33339e-14
2.3422e-14
2.33316e-14
2.34196e-14
2.3331e-14
2.34155e-14
2.33302e-14
2.34133e-14
2.33276e-14
2.34128e-14
2.33214e-14
2.34125e-14
2.33186e-14
2.34122e-14
2.33175e-14
2.34153e-14
2.33111e-14
2.34135e-14
2.33081e-14
2.34066e-14
2.33066e-14
2.34032e-14
2.3305e-14
2.34015e-14
2.33067e-14
2.34032e-14
2.33082e-14
2.3405e-14
2.3308e-14
2.34035e-14
2.33126e-14
2.33989e-14
2.33154e-14
2.33975e-14
2.33166e-14
2.33963e-14
2.33177e-14
2.33966e-14
2.33187e-14
2.33969e-14
2.33197e-14
2.33973e-14
2.33213e-14
2.33962e-14
2.33229e-14
2.33943e-14
2.33252e-14
2.33918e-14
2.3326e-14
2.33915e-14
2.33259e-14
2.33941e-14
2.33302e-14
2.33946e-14
2.33336e-14
2.33944e-14
2.33335e-14
2.33934e-14
2.33347e-14
2.33939e-14
2.33359e-14
2.33951e-14
2.33364e-14
2.33976e-14
2.33375e-14
2.34007e-14
2.33386e-14
2.34006e-14
2.33389e-14
2.33998e-14
2.33393e-14
2.33996e-14
2.33415e-14
2.33995e-14
2.33424e-14
2.34006e-14
2.33433e-14
2.33999e-14
2.33441e-14
2.3398e-14
2.33455e-14
2.3398e-14
2.33463e-14
2.33996e-14
2.3347e-14
2.33996e-14
2.33472e-14
2.33984e-14
2.33479e-14
2.33994e-14
2.3348e-14
2.3401e-14
2.33487e-14
2.34007e-14
2.33487e-14
2.33996e-14
2.33483e-14
2.33998e-14
2.33486e-14
2.34003e-14
2.33489e-14
2.34001e-14
2.33489e-14
2.33998e-14
2.33485e-14
2.34e-14
2.3348e-14
2.34e-14
2.33483e-14
2.33998e-14
2.33487e-14
2.33996e-14
2.33491e-14
2.33996e-14
2.33495e-14
2.33994e-14
2.33497e-14
2.33984e-14
2.33498e-14
2.3398e-14
2.33501e-14
2.33987e-14
2.33507e-14
2.33991e-14
2.33508e-14
2.33989e-14
2.33511e-14
2.3399e-14
2.33514e-14
2.33988e-14
2.33516e-14
2.3399e-14
2.33519e-14
2.3399e-14
2.33521e-14
2.33986e-14
2.33526e-14
2.33984e-14
2.3353e-14
2.33985e-14
2.33534e-14
2.33985e-14
2.33535e-14
2.33985e-14
2.33536e-14
2.33986e-14
2.33536e-14
2.33986e-14
2.33538e-14
2.33985e-14
2.3354e-14
2.33985e-14
2.33539e-14
2.33985e-14
2.33539e-14
2.33987e-14
2.33539e-14
2.33987e-14
2.33539e-14
2.33987e-14
2.33539e-14
2.33989e-14
2.33539e-14
2.33992e-14
2.33539e-14
2.33993e-14
2.3354e-14
2.33993e-14
2.3354e-14
2.33994e-14
2.3354e-14
2.33994e-14
2.3354e-14
2.33996e-14
2.33541e-14
2.33995e-14
2.33542e-14
2.33995e-14
2.33542e-14
2.33996e-14
2.33543e-14
2.33997e-14
2.33544e-14
2.33997e-14
2.33544e-14
2.33997e-14
2.33545e-14
2.33997e-14
2.33546e-14
2.33997e-14
2.33546e-14
2.33997e-14
2.33546e-14
2.33997e-14
2.33546e-14
2.33997e-14
2.33546e-14
2.33997e-14
2.33546e-14
2.33997e-14
2.33547e-14
2.33997e-14
2.33547e-14
2.33997e-14
2.33547e-14
2.33996e-14
2.33547e-14
2.33996e-14
2.33547e-14
2.33996e-14
2.33547e-14
2.33996e-14
2.33547e-14
2.33996e-14
2.46436e-14
2.47411e-14
2.47002e-14
2.47326e-14
2.47154e-14
2.4745e-14
2.47306e-14
2.4682e-14
2.46514e-14
2.46575e-14
2.46885e-14
2.4706e-14
2.47e-14
2.47614e-14
2.46558e-14
2.47163e-14
2.46667e-14
2.46845e-14
2.46715e-14
2.47029e-14
2.46719e-14
2.47053e-14
2.47385e-14
2.47167e-14
2.47174e-14
2.47285e-14
2.47431e-14
2.46953e-14
2.47521e-14
2.47003e-14
2.47452e-14
2.46959e-14
2.47494e-14
2.46844e-14
2.47665e-14
2.46628e-14
2.47515e-14
2.45974e-14
2.46317e-14
2.45834e-14
2.4566e-14
2.46092e-14
2.45672e-14
2.45859e-14
2.45364e-14
2.4589e-14
2.44969e-14
2.4572e-14
2.44988e-14
2.45377e-14
2.44953e-14
2.45347e-14
2.44605e-14
2.45104e-14
2.44199e-14
2.44643e-14
2.43751e-14
2.43939e-14
2.4356e-14
2.43513e-14
2.43929e-14
2.43344e-14
2.43266e-14
2.43101e-14
2.42892e-14
2.42545e-14
2.43102e-14
2.42207e-14
2.42846e-14
2.42325e-14
2.42365e-14
2.42661e-14
2.42417e-14
2.42733e-14
2.41854e-14
2.42263e-14
2.41828e-14
2.42106e-14
2.41774e-14
2.41959e-14
2.41412e-14
2.41516e-14
2.41043e-14
2.40917e-14
2.41272e-14
2.40735e-14
2.41386e-14
2.40353e-14
2.40988e-14
2.39882e-14
2.40665e-14
2.39762e-14
2.40093e-14
2.40315e-14
2.39649e-14
2.39963e-14
2.39178e-14
2.39755e-14
2.39268e-14
2.40315e-14
2.39298e-14
2.40002e-14
2.38983e-14
2.40315e-14
2.38757e-14
2.40372e-14
2.3861e-14
2.40184e-14
2.38852e-14
2.40362e-14
2.38877e-14
2.403e-14
2.38536e-14
2.40299e-14
2.38435e-14
2.40204e-14
2.38423e-14
2.39854e-14
2.38358e-14
2.39548e-14
2.38409e-14
2.39437e-14
2.38269e-14
2.39202e-14
2.38257e-14
2.38989e-14
2.38381e-14
2.38789e-14
2.38173e-14
2.38749e-14
2.38105e-14
2.38878e-14
2.37854e-14
2.3902e-14
2.37731e-14
2.39026e-14
2.37411e-14
2.39058e-14
2.37528e-14
2.38965e-14
2.37445e-14
2.38421e-14
2.37337e-14
2.38058e-14
2.37294e-14
2.38032e-14
2.37233e-14
2.38178e-14
2.37152e-14
2.38179e-14
2.3705e-14
2.38038e-14
2.3701e-14
2.37914e-14
2.36872e-14
2.37723e-14
2.3672e-14
2.37546e-14
2.36552e-14
2.37792e-14
2.36363e-14
2.3806e-14
2.3623e-14
2.38029e-14
2.36069e-14
2.37778e-14
2.35965e-14
2.37471e-14
2.35838e-14
2.37185e-14
2.3569e-14
2.37164e-14
2.35686e-14
2.37246e-14
2.35576e-14
2.37182e-14
2.35445e-14
2.37221e-14
2.35375e-14
2.37198e-14
2.35282e-14
2.3728e-14
2.3525e-14
2.37136e-14
2.35282e-14
2.37093e-14
2.35379e-14
2.37067e-14
2.35213e-14
2.36974e-14
2.35116e-14
2.3698e-14
2.35004e-14
2.36919e-14
2.35124e-14
2.36791e-14
2.35067e-14
2.36759e-14
2.3508e-14
2.36658e-14
2.35082e-14
2.36569e-14
2.34909e-14
2.36491e-14
2.34809e-14
2.36342e-14
2.34781e-14
2.36285e-14
2.34744e-14
2.36361e-14
2.34657e-14
2.36488e-14
2.34641e-14
2.36462e-14
2.34697e-14
2.36407e-14
2.34581e-14
2.36444e-14
2.34537e-14
2.3633e-14
2.34525e-14
2.36308e-14
2.34545e-14
2.36255e-14
2.34517e-14
2.36253e-14
2.3448e-14
2.36302e-14
2.34435e-14
2.36238e-14
2.34464e-14
2.36104e-14
2.34445e-14
2.36059e-14
2.34419e-14
2.35983e-14
2.34347e-14
2.35995e-14
2.34309e-14
2.35974e-14
2.34264e-14
2.35843e-14
2.34214e-14
2.35797e-14
2.34158e-14
2.35799e-14
2.34057e-14
2.35808e-14
2.3395e-14
2.35784e-14
2.33877e-14
2.35689e-14
2.33798e-14
2.3564e-14
2.33714e-14
2.35675e-14
2.33624e-14
2.35678e-14
2.33568e-14
2.3561e-14
2.33544e-14
2.35472e-14
2.33515e-14
2.35378e-14
2.3352e-14
2.35405e-14
2.33483e-14
2.3536e-14
2.33442e-14
2.35282e-14
2.33377e-14
2.35247e-14
2.33422e-14
2.35235e-14
2.33463e-14
2.3519e-14
2.33371e-14
2.35167e-14
2.33313e-14
2.35204e-14
2.33344e-14
2.35207e-14
2.33372e-14
2.35159e-14
2.33343e-14
2.35115e-14
2.33293e-14
2.35092e-14
2.33295e-14
2.35019e-14
2.33312e-14
2.34967e-14
2.33309e-14
2.34953e-14
2.33322e-14
2.34924e-14
2.33315e-14
2.34898e-14
2.33307e-14
2.34926e-14
2.33314e-14
2.34939e-14
2.33337e-14
2.34903e-14
2.33324e-14
2.34869e-14
2.33326e-14
2.34821e-14
2.33311e-14
2.34758e-14
2.33311e-14
2.34714e-14
2.3331e-14
2.34688e-14
2.33308e-14
2.34664e-14
2.3332e-14
2.34642e-14
2.33268e-14
2.34668e-14
2.33248e-14
2.3468e-14
2.33226e-14
2.34678e-14
2.33234e-14
2.34677e-14
2.33226e-14
2.34677e-14
2.3321e-14
2.34693e-14
2.33193e-14
2.34711e-14
2.33219e-14
2.34692e-14
2.33215e-14
2.34704e-14
2.33218e-14
2.34746e-14
2.33234e-14
2.34746e-14
2.33242e-14
2.34746e-14
2.33262e-14
2.34741e-14
2.33289e-14
2.34743e-14
2.33301e-14
2.34767e-14
2.33326e-14
2.34758e-14
2.33357e-14
2.34749e-14
2.33386e-14
2.34735e-14
2.33408e-14
2.34709e-14
2.33429e-14
2.34677e-14
2.3345e-14
2.34672e-14
2.33469e-14
2.3468e-14
2.33501e-14
2.34657e-14
2.33525e-14
2.3463e-14
2.33554e-14
2.34609e-14
2.3356e-14
2.34601e-14
2.33553e-14
2.34599e-14
2.33558e-14
2.34597e-14
2.33562e-14
2.3459e-14
2.33572e-14
2.34584e-14
2.33581e-14
2.34573e-14
2.33589e-14
2.34573e-14
2.33597e-14
2.34573e-14
2.33598e-14
2.34566e-14
2.336e-14
2.34557e-14
2.33607e-14
2.34553e-14
2.33609e-14
2.34554e-14
2.33613e-14
2.34551e-14
2.33617e-14
2.34548e-14
2.33623e-14
2.34545e-14
2.33631e-14
2.34545e-14
2.3363e-14
2.34552e-14
2.33633e-14
2.34552e-14
2.33636e-14
2.34546e-14
2.3364e-14
2.34541e-14
2.33645e-14
2.34539e-14
2.33643e-14
2.3454e-14
2.33645e-14
2.34543e-14
2.33643e-14
2.34543e-14
2.33643e-14
2.34539e-14
2.33645e-14
2.34539e-14
2.33647e-14
2.34542e-14
2.33646e-14
2.34543e-14
2.33643e-14
2.34541e-14
2.33641e-14
2.34539e-14
2.33641e-14
2.3454e-14
2.33638e-14
2.34542e-14
2.33635e-14
2.34546e-14
2.33634e-14
2.34549e-14
2.33633e-14
2.34549e-14
2.3363e-14
2.34549e-14
2.33629e-14
2.34549e-14
2.33628e-14
2.3455e-14
2.33627e-14
2.34551e-14
2.33626e-14
2.34553e-14
2.33624e-14
2.34555e-14
2.33622e-14
2.34556e-14
2.33621e-14
2.34557e-14
2.33621e-14
2.34558e-14
2.3362e-14
2.3456e-14
2.33618e-14
2.34562e-14
2.33618e-14
2.34562e-14
2.33618e-14
2.34563e-14
2.33616e-14
2.34565e-14
2.33615e-14
2.34566e-14
2.33616e-14
2.34565e-14
2.33615e-14
2.34566e-14
2.33615e-14
2.34567e-14
2.33614e-14
2.34567e-14
2.33614e-14
2.34567e-14
2.33613e-14
2.34568e-14
2.33613e-14
2.34567e-14
2.33612e-14
2.34568e-14
2.33612e-14
2.34568e-14
2.33612e-14
2.34568e-14
2.33612e-14
2.34568e-14
2.33612e-14
2.34568e-14
2.33612e-14
2.34568e-14
2.33612e-14
2.34568e-14
2.33612e-14
2.34568e-14
2.33612e-14
2.34568e-14
)
;

boundaryField
{
    walls
    {
        type            zeroGradient;
    }
    inlet
    {
        type            cyclic;
    }
    outlet
    {
        type            cyclic;
    }
    sides
    {
        type            empty;
    }
}


// ************************************************************************* //
