/*--------------------------------*- C++ -*----------------------------------*\
| =========                 |                                                 |
| \\      /  F ield         | OpenFOAM: The Open Source CFD Toolbox           |
|  \\    /   O peration     | Version:  2106                                  |
|   \\  /    A nd           | Website:  www.openfoam.com                      |
|    \\/     M anipulation  |                                                 |
\*---------------------------------------------------------------------------*/
FoamFile
{
    version     2.0;
    format      ascii;
    arch        "LSB;label=32;scalar=64";
    class       volSymmTensorField;
    location    "10030";
    object      turbulenceProperties:R;
}
// * * * * * * * * * * * * * * * * * * * * * * * * * * * * * * * * * * * * * //

dimensions      [0 2 -2 0 0 0 0];

internalField   nonuniform List<symmTensor> 
2000
(
(2.27912e-07 -1.50753e-11 -2.79016e-14 2.27912e-07 9.09571e-26 2.27912e-07)
(2.27912e-07 -1.50753e-11 -2.79016e-14 2.27912e-07 -7.85744e-30 2.27912e-07)
(3.9466e-08 -1.5038e-11 -8.40222e-14 3.9466e-08 1.25796e-26 3.9466e-08)
(3.9466e-08 -1.5038e-11 -8.40222e-14 3.9466e-08 -1.84119e-29 3.9466e-08)
(5.41188e-08 -6.10559e-11 -4.73331e-13 5.41188e-08 4.11809e-26 5.41188e-08)
(5.41188e-08 -6.10559e-11 -4.73331e-13 5.41188e-08 -5.38479e-29 5.41188e-08)
(1.68324e-07 -4.04341e-10 -3.19313e-12 1.68324e-07 2.14412e-25 1.68324e-07)
(1.68324e-07 -4.04341e-10 -3.19313e-12 1.68324e-07 -1.49412e-28 1.68324e-07)
(4.35114e-07 -1.85173e-09 -1.48963e-11 4.35114e-07 8.6076e-25 4.35114e-07)
(4.35114e-07 -1.85173e-09 -1.48963e-11 4.35114e-07 -1.11683e-28 4.35114e-07)
(9.34621e-07 -6.28885e-09 -5.15351e-11 9.34621e-07 2.99123e-24 9.34621e-07)
(9.34621e-07 -6.28885e-09 -5.15351e-11 9.34621e-07 1.20233e-27 9.34621e-07)
(1.76439e-06 -1.73927e-08 -1.45187e-10 1.76439e-06 8.41213e-24 1.76439e-06)
(1.76439e-06 -1.73927e-08 -1.45187e-10 1.76439e-06 8.16601e-27 1.76439e-06)
(3.03861e-06 -4.15614e-08 -3.53413e-10 3.03861e-06 2.06115e-23 3.03861e-06)
(3.03861e-06 -4.15614e-08 -3.53413e-10 3.03861e-06 3.02797e-26 3.03861e-06)
(4.8887e-06 -8.90959e-08 -7.71755e-10 4.8887e-06 4.527e-23 4.8887e-06)
(4.8887e-06 -8.90959e-08 -7.71755e-10 4.8887e-06 8.9358e-26 4.8887e-06)
(7.4644e-06 -1.7567e-07 -1.55006e-09 7.4644e-06 9.1219e-23 7.4644e-06)
(7.4644e-06 -1.7567e-07 -1.55006e-09 7.4644e-06 2.26413e-25 7.4644e-06)
(1.09349e-05 -3.24127e-07 -2.91333e-09 1.09349e-05 1.72002e-22 1.09349e-05)
(1.09349e-05 -3.24127e-07 -2.91333e-09 1.09349e-05 5.33291e-25 1.09349e-05)
(1.54902e-05 -5.66632e-07 -5.18799e-09 1.54902e-05 3.07282e-22 1.54902e-05)
(1.54902e-05 -5.66632e-07 -5.18799e-09 1.54902e-05 1.10057e-24 1.54902e-05)
(2.13421e-05 -9.47218e-07 -8.8342e-09 2.13421e-05 5.24778e-22 2.13421e-05)
(2.13421e-05 -9.47218e-07 -8.8342e-09 2.13421e-05 2.12198e-24 2.13421e-05)
(2.87256e-05 -1.52471e-06 -1.4485e-08 2.87256e-05 8.62329e-22 2.87256e-05)
(2.87256e-05 -1.52471e-06 -1.4485e-08 2.87256e-05 4.07133e-24 2.87256e-05)
(3.78999e-05 -2.37603e-06 -2.29927e-08 3.78999e-05 1.37057e-21 3.78999e-05)
(3.78999e-05 -2.37603e-06 -2.29927e-08 3.78999e-05 7.18327e-24 3.78999e-05)
(4.91487e-05 -3.59982e-06 -3.54829e-08 4.91487e-05 2.11606e-21 4.91487e-05)
(4.91487e-05 -3.59982e-06 -3.54829e-08 4.91487e-05 1.25361e-23 4.91487e-05)
(6.2781e-05 -5.32026e-06 -5.34146e-08 6.2781e-05 3.1834e-21 6.2781e-05)
(6.2781e-05 -5.32026e-06 -5.34146e-08 6.2781e-05 2.1404e-23 6.2781e-05)
(7.91303e-05 -7.69093e-06 -7.86471e-08 7.91303e-05 4.67749e-21 7.91303e-05)
(7.91303e-05 -7.69093e-06 -7.86471e-08 7.91303e-05 3.35058e-23 7.91303e-05)
(9.85538e-05 -1.08984e-05 -1.13508e-07 9.85538e-05 6.72515e-21 9.85538e-05)
(9.85538e-05 -1.08984e-05 -1.13508e-07 9.85538e-05 5.25018e-23 9.85538e-05)
(0.00012143 -1.51651e-05 -1.60862e-07 0.00012143 9.47554e-21 0.00012143)
(0.00012143 -1.51651e-05 -1.60862e-07 0.00012143 8.42665e-23 0.00012143)
(0.000148155 -2.07515e-05 -2.2417e-07 0.000148155 1.30955e-20 0.000148155)
(0.000148155 -2.07515e-05 -2.2417e-07 0.000148155 1.29597e-22 0.000148155)
(0.000179138 -2.79558e-05 -3.07538e-07 0.000179138 1.77677e-20 0.000179138)
(0.000179138 -2.79558e-05 -3.07538e-07 0.000179138 1.92126e-22 0.000179138)
(0.000214795 -3.71124e-05 -4.15735e-07 0.000214795 2.36719e-20 0.000214795)
(0.000214795 -3.71124e-05 -4.15735e-07 0.000214795 2.84282e-22 0.000214795)
(0.000255537 -4.85867e-05 -5.54184e-07 0.000255537 3.09767e-20 0.000255537)
(0.000255537 -4.85867e-05 -5.54184e-07 0.000255537 4.07729e-22 0.000255537)
(0.000301764 -6.27664e-05 -7.28905e-07 0.000301764 3.98139e-20 0.000301764)
(0.000301764 -6.27664e-05 -7.28905e-07 0.000301764 5.63011e-22 0.000301764)
(0.000353847 -8.00496e-05 -9.46404e-07 0.000353847 5.0256e-20 0.000353847)
(0.000353847 -8.00496e-05 -9.46404e-07 0.000353847 7.76194e-22 0.000353847)
(0.000412119 -0.000100829 -1.2135e-06 0.000412119 6.23294e-20 0.000412119)
(0.000412119 -0.000100829 -1.2135e-06 0.000412119 1.05876e-21 0.000412119)
(0.000476856 -0.000125472 -1.53712e-06 0.000476856 7.59163e-20 0.000476856)
(0.000476856 -0.000125472 -1.53712e-06 0.000476856 1.42159e-21 0.000476856)
(0.000548261 -0.000154301 -1.92398e-06 0.000548261 9.08136e-20 0.000548261)
(0.000548261 -0.000154301 -1.92398e-06 0.000548261 1.84929e-21 0.000548261)
(0.00062645 -0.00018757 -2.38033e-06 0.00062645 1.06581e-19 0.00062645)
(0.00062645 -0.00018757 -2.38033e-06 0.00062645 2.39328e-21 0.00062645)
(0.000711443 -0.000225444 -2.91158e-06 0.000711443 1.22784e-19 0.000711443)
(0.000711443 -0.000225444 -2.91158e-06 0.000711443 3.13165e-21 0.000711443)
(0.000803145 -0.000267984 -3.52208e-06 0.000803145 1.38867e-19 0.000803145)
(0.000803145 -0.000267984 -3.52208e-06 0.000803145 3.98309e-21 0.000803145)
(0.000901351 -0.000315135 -4.21477e-06 0.000901351 1.54164e-19 0.000901351)
(0.000901351 -0.000315135 -4.21477e-06 0.000901351 5.08885e-21 0.000901351)
(0.00100574 -0.000366723 -4.99109e-06 0.00100574 1.68117e-19 0.00100574)
(0.00100574 -0.000366723 -4.99109e-06 0.00100574 6.49055e-21 0.00100574)
(0.00111587 -0.000422456 -5.85091e-06 0.00111587 1.80116e-19 0.00111587)
(0.00111587 -0.000422456 -5.85091e-06 0.00111587 8.08185e-21 0.00111587)
(0.00123122 -0.000481941 -6.79248e-06 0.00123122 1.89771e-19 0.00123122)
(0.00123122 -0.000481941 -6.79248e-06 0.00123122 1.02106e-20 0.00123122)
(0.00135116 -0.000544695 -7.81264e-06 0.00135116 1.9691e-19 0.00135116)
(0.00135116 -0.000544695 -7.81264e-06 0.00135116 1.28139e-20 0.00135116)
(0.00147503 -0.000610175 -8.907e-06 0.00147503 2.00761e-19 0.00147503)
(0.00147503 -0.000610175 -8.907e-06 0.00147503 1.54267e-20 0.00147503)
(0.00160208 -0.000677797 -1.00702e-05 0.00160208 2.0185e-19 0.00160208)
(0.00160208 -0.000677797 -1.00702e-05 0.00160208 1.85515e-20 0.00160208)
(0.00173157 -0.000746964 -1.12961e-05 0.00173157 2.01173e-19 0.00173157)
(0.00173157 -0.000746964 -1.12961e-05 0.00173157 2.24718e-20 0.00173157)
(0.00186274 -0.00081709 -1.25783e-05 0.00186274 1.97756e-19 0.00186274)
(0.00186274 -0.00081709 -1.25783e-05 0.00186274 2.65274e-20 0.00186274)
(0.00199487 -0.000887613 -1.39102e-05 0.00199487 1.928e-19 0.00199487)
(0.00199487 -0.000887613 -1.39102e-05 0.00199487 3.16764e-20 0.00199487)
(0.00212725 -0.000958017 -1.52854e-05 0.00212725 1.87628e-19 0.00212725)
(0.00212725 -0.000958017 -1.52854e-05 0.00212725 3.70767e-20 0.00212725)
(0.00225923 -0.00102784 -1.66977e-05 0.00225923 1.82203e-19 0.00225923)
(0.00225923 -0.00102784 -1.66977e-05 0.00225923 4.3138e-20 0.00225923)
(0.0023902 -0.00109668 -1.81414e-05 0.0023902 1.77368e-19 0.0023902)
(0.0023902 -0.00109668 -1.81414e-05 0.0023902 5.0024e-20 0.0023902)
(0.00251965 -0.0011642 -1.96114e-05 0.00251965 1.7392e-19 0.00251965)
(0.00251965 -0.0011642 -1.96114e-05 0.00251965 5.68003e-20 0.00251965)
(0.0026471 -0.00123011 -2.11031e-05 0.0026471 1.72236e-19 0.0026471)
(0.0026471 -0.00123011 -2.11031e-05 0.0026471 6.64619e-20 0.0026471)
(0.00277214 -0.00129419 -2.26125e-05 0.00277214 1.72138e-19 0.00277214)
(0.00277214 -0.00129419 -2.26125e-05 0.00277214 7.56384e-20 0.00277214)
(0.00289445 -0.00135628 -2.41364e-05 0.00289445 1.75997e-19 0.00289445)
(0.00289445 -0.00135628 -2.41364e-05 0.00289445 8.35886e-20 0.00289445)
(0.00301375 -0.00141626 -2.56718e-05 0.00301375 1.83867e-19 0.00301375)
(0.00301375 -0.00141626 -2.56718e-05 0.00301375 9.22999e-20 0.00301375)
(0.00312982 -0.00147403 -2.72165e-05 0.00312982 1.91108e-19 0.00312982)
(0.00312982 -0.00147403 -2.72165e-05 0.00312982 1.02133e-19 0.00312982)
(0.00324249 -0.00152957 -2.87689e-05 0.00324249 2.02764e-19 0.00324249)
(0.00324249 -0.00152957 -2.87689e-05 0.00324249 1.12821e-19 0.00324249)
(0.00335165 -0.00158285 -3.03275e-05 0.00335165 2.22354e-19 0.00335165)
(0.00335165 -0.00158285 -3.03275e-05 0.00335165 1.22394e-19 0.00335165)
(0.00345723 -0.00163388 -3.18913e-05 0.00345723 2.45498e-19 0.00345723)
(0.00345723 -0.00163388 -3.18913e-05 0.00345723 1.34551e-19 0.00345723)
(0.00355917 -0.0016827 -3.34598e-05 0.00355917 2.75588e-19 0.00355917)
(0.00355917 -0.0016827 -3.34598e-05 0.00355917 1.48174e-19 0.00355917)
(0.00365748 -0.00172934 -3.50326e-05 0.00365748 3.0817e-19 0.00365748)
(0.00365748 -0.00172934 -3.50326e-05 0.00365748 1.63973e-19 0.00365748)
(0.00375217 -0.00177386 -3.66096e-05 0.00375217 3.39404e-19 0.00375217)
(0.00375217 -0.00177386 -3.66096e-05 0.00375217 1.80015e-19 0.00375217)
(0.00384327 -0.00181633 -3.81908e-05 0.00384327 3.79488e-19 0.00384327)
(0.00384327 -0.00181633 -3.81908e-05 0.00384327 1.89255e-19 0.00384327)
(0.00393084 -0.00185681 -3.97765e-05 0.00393084 4.20819e-19 0.00393084)
(0.00393084 -0.00185681 -3.97765e-05 0.00393084 2.02288e-19 0.00393084)
(0.00401496 -0.00189538 -4.1367e-05 0.00401496 4.64623e-19 0.00401496)
(0.00401496 -0.00189538 -4.1367e-05 0.00401496 2.24368e-19 0.00401496)
(0.00409569 -0.00193212 -4.29629e-05 0.00409569 5.15365e-19 0.00409569)
(0.00409569 -0.00193212 -4.29629e-05 0.00409569 2.45533e-19 0.00409569)
(0.00417314 -0.0019671 -4.45648e-05 0.00417314 5.60591e-19 0.00417314)
(0.00417314 -0.0019671 -4.45648e-05 0.00417314 2.63823e-19 0.00417314)
(0.0042474 -0.00200041 -4.61731e-05 0.0042474 6.11143e-19 0.0042474)
(0.0042474 -0.00200041 -4.61731e-05 0.0042474 2.71535e-19 0.0042474)
(0.00431856 -0.00203211 -4.77888e-05 0.00431856 6.69579e-19 0.00431856)
(0.00431856 -0.00203211 -4.77888e-05 0.00431856 2.88088e-19 0.00431856)
(0.00438673 -0.00206228 -4.94124e-05 0.00438673 7.34579e-19 0.00438673)
(0.00438673 -0.00206228 -4.94124e-05 0.00438673 3.16909e-19 0.00438673)
(0.00445201 -0.002091 -5.10447e-05 0.00445201 8.02744e-19 0.00445201)
(0.00445201 -0.002091 -5.10447e-05 0.00445201 3.44599e-19 0.00445201)
(0.00451452 -0.00211833 -5.26866e-05 0.00451452 8.75184e-19 0.00451452)
(0.00451452 -0.00211833 -5.26866e-05 0.00451452 3.70807e-19 0.00451452)
(0.00457434 -0.00214434 -5.43389e-05 0.00457434 9.46888e-19 0.00457434)
(0.00457434 -0.00214434 -5.43389e-05 0.00457434 4.0711e-19 0.00457434)
(0.00463159 -0.0021691 -5.60022e-05 0.00463159 1.00491e-18 0.00463159)
(0.00463159 -0.0021691 -5.60022e-05 0.00463159 4.44094e-19 0.00463159)
(0.00468637 -0.00219267 -5.76776e-05 0.00468637 1.06955e-18 0.00468637)
(0.00468637 -0.00219267 -5.76776e-05 0.00468637 4.75916e-19 0.00468637)
(0.00473876 -0.0022151 -5.93657e-05 0.00473876 1.13642e-18 0.00473876)
(0.00473876 -0.0022151 -5.93657e-05 0.00473876 5.07247e-19 0.00473876)
(0.00478888 -0.00223646 -6.10673e-05 0.00478888 1.20604e-18 0.00478888)
(0.00478888 -0.00223646 -6.10673e-05 0.00478888 5.30823e-19 0.00478888)
(0.00483681 -0.00225679 -6.27834e-05 0.00483681 1.27235e-18 0.00483681)
(0.00483681 -0.00225679 -6.27834e-05 0.00483681 5.57886e-19 0.00483681)
(0.00488263 -0.00227614 -6.45147e-05 0.00488263 1.3488e-18 0.00488263)
(0.00488263 -0.00227614 -6.45147e-05 0.00488263 5.99838e-19 0.00488263)
(0.00492645 -0.00229457 -6.62619e-05 0.00492645 1.43447e-18 0.00492645)
(0.00492645 -0.00229457 -6.62619e-05 0.00492645 6.49444e-19 0.00492645)
(0.00496833 -0.00231212 -6.80259e-05 0.00496833 1.5045e-18 0.00496833)
(0.00496833 -0.00231212 -6.80259e-05 0.00496833 6.75714e-19 0.00496833)
(0.00500836 -0.00232882 -6.98074e-05 0.00500836 1.60861e-18 0.00500836)
(0.00500836 -0.00232882 -6.98074e-05 0.00500836 6.63506e-19 0.00500836)
(0.00504661 -0.00234472 -7.16072e-05 0.00504661 1.68929e-18 0.00504661)
(0.00504661 -0.00234472 -7.16072e-05 0.00504661 6.8726e-19 0.00504661)
(0.00508316 -0.00235986 -7.34261e-05 0.00508316 1.75189e-18 0.00508316)
(0.00508316 -0.00235986 -7.34261e-05 0.00508316 6.98291e-19 0.00508316)
(0.00511807 -0.00237428 -7.52648e-05 0.00511807 1.87092e-18 0.00511807)
(0.00511807 -0.00237428 -7.52648e-05 0.00511807 7.39028e-19 0.00511807)
(0.00515142 -0.002388 -7.7124e-05 0.00515142 1.95944e-18 0.00515142)
(0.00515142 -0.002388 -7.7124e-05 0.00515142 8.60922e-19 0.00515142)
(0.00518326 -0.00240105 -7.90045e-05 0.00518326 2.05305e-18 0.00518326)
(0.00518326 -0.00240105 -7.90045e-05 0.00518326 8.52148e-19 0.00518326)
(0.00521366 -0.00241347 -8.0907e-05 0.00521366 2.20374e-18 0.00521366)
(0.00521366 -0.00241347 -8.0907e-05 0.00521366 7.83649e-19 0.00521366)
(0.00524267 -0.00242529 -8.28321e-05 0.00524267 2.32197e-18 0.00524267)
(0.00524267 -0.00242529 -8.28321e-05 0.00524267 8.96975e-19 0.00524267)
(0.00527035 -0.00243653 -8.47807e-05 0.00527035 2.41125e-18 0.00527035)
(0.00527035 -0.00243653 -8.47807e-05 0.00527035 1.03874e-18 0.00527035)
(0.00529674 -0.00244722 -8.67533e-05 0.00529674 2.55271e-18 0.00529674)
(0.00529674 -0.00244722 -8.67533e-05 0.00529674 1.00397e-18 0.00529674)
(0.0053219 -0.00245737 -8.87507e-05 0.0053219 2.69367e-18 0.0053219)
(0.0053219 -0.00245737 -8.87507e-05 0.0053219 9.41732e-19 0.0053219)
(0.00534587 -0.00246702 -9.07736e-05 0.00534587 2.79563e-18 0.00534587)
(0.00534587 -0.00246702 -9.07736e-05 0.00534587 1.06664e-18 0.00534587)
(0.00536871 -0.00247617 -9.28226e-05 0.00536871 2.9788e-18 0.00536871)
(0.00536871 -0.00247617 -9.28226e-05 0.00536871 1.09123e-18 0.00536871)
(0.00539044 -0.00248486 -9.48983e-05 0.00539044 3.15721e-18 0.00539044)
(0.00539044 -0.00248486 -9.48983e-05 0.00539044 1.09402e-18 0.00539044)
(0.00541111 -0.0024931 -9.70015e-05 0.00541111 3.24976e-18 0.00541111)
(0.00541111 -0.0024931 -9.70015e-05 0.00541111 1.24854e-18 0.00541111)
(0.00543076 -0.00250091 -9.91328e-05 0.00543076 3.35442e-18 0.00543076)
(0.00543076 -0.00250091 -9.91328e-05 0.00543076 1.23175e-18 0.00543076)
(0.00544943 -0.00250829 -0.000101293 0.00544943 3.55105e-18 0.00544943)
(0.00544943 -0.00250829 -0.000101293 0.00544943 1.18834e-18 0.00544943)
(0.00546714 -0.00251528 -0.000103482 0.00546714 3.69162e-18 0.00546714)
(0.00546714 -0.00251528 -0.000103482 0.00546714 1.31233e-18 0.00546714)
(0.00548393 -0.00252188 -0.000105702 0.00548393 3.76288e-18 0.00548393)
(0.00548393 -0.00252188 -0.000105702 0.00548393 1.44062e-18 0.00548393)
(0.00549983 -0.0025281 -0.000107952 0.00549983 1.11804e-18 0.00549983)
(0.00549983 -0.0025281 -0.000107952 0.00549983 1.44895e-18 0.00549983)
(0.00551487 -0.00253397 -0.000110233 0.00551487 5.26605e-19 0.00551487)
(0.00551487 -0.00253397 -0.000110233 0.00551487 1.53493e-18 0.00551487)
(0.00552908 -0.00253948 -0.000112546 0.00552908 5.59138e-19 0.00552908)
(0.00552908 -0.00253948 -0.000112546 0.00552908 1.68297e-18 0.00552908)
(0.00554248 -0.00254466 -0.000114892 0.00554248 6.92499e-19 0.00554248)
(0.00554248 -0.00254466 -0.000114892 0.00554248 1.79983e-18 0.00554248)
(0.0055551 -0.00254951 -0.00011727 0.0055551 9.34336e-19 0.0055551)
(0.0055551 -0.00254951 -0.00011727 0.0055551 2.00711e-18 0.0055551)
(0.00556696 -0.00255404 -0.000119683 0.00556696 1.22489e-18 0.00556696)
(0.00556696 -0.00255404 -0.000119683 0.00556696 2.04212e-18 0.00556696)
(0.00557808 -0.00255827 -0.000122129 0.00557808 1.36088e-18 0.00557808)
(0.00557808 -0.00255827 -0.000122129 0.00557808 1.79177e-18 0.00557808)
(0.00558848 -0.0025622 -0.000124611 0.00558848 1.05386e-18 0.00558848)
(0.00558848 -0.0025622 -0.000124611 0.00558848 1.83494e-18 0.00558848)
(0.00559819 -0.00256583 -0.000127128 0.00559819 1.28237e-18 0.00559819)
(0.00559819 -0.00256583 -0.000127128 0.00559819 2.05613e-18 0.00559819)
(0.00560722 -0.00256918 -0.000129681 0.00560722 1.3221e-18 0.00560722)
(0.00560722 -0.00256918 -0.000129681 0.00560722 2.1915e-18 0.00560722)
(0.00561558 -0.00257226 -0.00013227 0.00561558 1.24601e-18 0.00561558)
(0.00561558 -0.00257226 -0.00013227 0.00561558 2.20348e-18 0.00561558)
(0.00562331 -0.00257507 -0.000134897 0.00562331 1.12507e-18 0.00562331)
(0.00562331 -0.00257507 -0.000134897 0.00562331 2.02037e-18 0.00562331)
(0.0056304 -0.00257761 -0.000137561 0.0056304 1.04122e-18 0.0056304)
(0.0056304 -0.00257761 -0.000137561 0.0056304 2.13317e-18 0.0056304)
(0.00563688 -0.0025799 -0.000140264 0.00563688 9.70735e-19 0.00563688)
(0.00563688 -0.0025799 -0.000140264 0.00563688 2.30062e-18 0.00563688)
(0.00564276 -0.00258194 -0.000143006 0.00564276 8.35863e-19 0.00564276)
(0.00564276 -0.00258194 -0.000143006 0.00564276 2.42002e-18 0.00564276)
(0.00564806 -0.00258373 -0.000145787 0.00564806 1.01475e-18 0.00564806)
(0.00564806 -0.00258373 -0.000145787 0.00564806 2.67063e-18 0.00564806)
(0.00565278 -0.00258528 -0.000148608 0.00565278 1.06532e-18 0.00565278)
(0.00565278 -0.00258528 -0.000148608 0.00565278 2.86274e-18 0.00565278)
(0.00565694 -0.00258659 -0.000151469 0.00565694 1.11787e-18 0.00565694)
(0.00565694 -0.00258659 -0.000151469 0.00565694 2.71743e-18 0.00565694)
(0.00566055 -0.00258768 -0.000154371 0.00566055 5.92377e-19 0.00566055)
(0.00566055 -0.00258768 -0.000154371 0.00566055 2.52597e-18 0.00566055)
(0.00566361 -0.00258853 -0.000157315 0.00566361 2.56107e-19 0.00566361)
(0.00566361 -0.00258853 -0.000157315 0.00566361 2.86807e-18 0.00566361)
(0.00566615 -0.00258916 -0.000160301 0.00566615 3.91889e-19 0.00566615)
(0.00566615 -0.00258916 -0.000160301 0.00566615 3.24854e-18 0.00566615)
(0.00566816 -0.00258957 -0.000163329 0.00566816 4.14761e-19 0.00566816)
(0.00566816 -0.00258957 -0.000163329 0.00566816 3.03622e-18 0.00566816)
(0.00566966 -0.00258976 -0.0001664 0.00566966 3.55245e-19 0.00566966)
(0.00566966 -0.00258976 -0.0001664 0.00566966 2.77236e-18 0.00566966)
(0.00567065 -0.00258974 -0.000169515 0.00567065 -1.73028e-19 0.00567065)
(0.00567065 -0.00258974 -0.000169515 0.00567065 3.50979e-18 0.00567065)
(0.00567115 -0.0025895 -0.000172673 0.00567115 -2.87175e-19 0.00567115)
(0.00567115 -0.0025895 -0.000172673 0.00567115 4.70254e-18 0.00567115)
(0.00567115 -0.00258906 -0.000175876 0.00567115 5.72929e-19 0.00567115)
(0.00567115 -0.00258906 -0.000175876 0.00567115 4.68833e-18 0.00567115)
(0.00567067 -0.0025884 -0.000179124 0.00567067 2.61538e-19 0.00567067)
(0.00567067 -0.0025884 -0.000179124 0.00567067 4.25428e-18 0.00567067)
(0.00566971 -0.00258754 -0.000182416 0.00566971 -4.87258e-19 0.00566971)
(0.00566971 -0.00258754 -0.000182416 0.00566971 4.78068e-18 0.00566971)
(0.00566828 -0.00258648 -0.000185755 0.00566828 -4.69712e-19 0.00566828)
(0.00566828 -0.00258648 -0.000185755 0.00566828 5.16109e-18 0.00566828)
(0.00566638 -0.00258521 -0.000189139 0.00566638 -2.19705e-20 0.00566638)
(0.00566638 -0.00258521 -0.000189139 0.00566638 5.10236e-18 0.00566638)
(0.00566401 -0.00258374 -0.00019257 0.00566401 5.0103e-20 0.00566401)
(0.00566401 -0.00258374 -0.00019257 0.00566401 5.88459e-18 0.00566401)
(0.00566119 -0.00258207 -0.000196047 0.00566119 8.25718e-19 0.00566119)
(0.00566119 -0.00258207 -0.000196047 0.00566119 6.34187e-18 0.00566119)
(0.00565791 -0.00258021 -0.000199572 0.00565791 1.78523e-18 0.00565791)
(0.00565791 -0.00258021 -0.000199572 0.00565791 5.64751e-18 0.00565791)
(0.00565418 -0.00257814 -0.000203144 0.00565418 1.38784e-18 0.00565418)
(0.00565418 -0.00257814 -0.000203144 0.00565418 5.84686e-18 0.00565418)
(0.00565 -0.00257588 -0.000206763 0.00565 8.67281e-19 0.00565)
(0.00565 -0.00257588 -0.000206763 0.00565 6.60333e-18 0.00565)
(0.00564538 -0.00257342 -0.000210431 0.00564538 7.90294e-19 0.00564538)
(0.00564538 -0.00257342 -0.000210431 0.00564538 6.14696e-18 0.00564538)
(0.00564031 -0.00257076 -0.000214146 0.00564031 3.99169e-19 0.00564031)
(0.00564031 -0.00257076 -0.000214146 0.00564031 5.36157e-18 0.00564031)
(0.0056348 -0.00256791 -0.000217911 0.0056348 -6.28282e-19 0.0056348)
(0.0056348 -0.00256791 -0.000217911 0.0056348 6.36982e-18 0.0056348)
(0.00562886 -0.00256486 -0.000221724 0.00562886 -9.08692e-20 0.00562886)
(0.00562886 -0.00256486 -0.000221724 0.00562886 7.39526e-18 0.00562886)
(0.00562247 -0.00256161 -0.000225585 0.00562247 8.52932e-19 0.00562247)
(0.00562247 -0.00256161 -0.000225585 0.00562247 6.26628e-18 0.00562247)
(0.00561565 -0.00255817 -0.000229496 0.00561565 3.9057e-19 0.00561565)
(0.00561565 -0.00255817 -0.000229496 0.00561565 6.08328e-18 0.00561565)
(0.0056084 -0.00255453 -0.000233456 0.0056084 -1.35463e-18 0.0056084)
(0.0056084 -0.00255453 -0.000233456 0.0056084 6.79558e-18 0.0056084)
(0.00560071 -0.00255069 -0.000237465 0.00560071 -1.41079e-18 0.00560071)
(0.00560071 -0.00255069 -0.000237465 0.00560071 6.20151e-18 0.00560071)
(0.00559259 -0.00254666 -0.000241524 0.00559259 -2.20311e-18 0.00559259)
(0.00559259 -0.00254666 -0.000241524 0.00559259 5.22268e-18 0.00559259)
(0.00558404 -0.00254242 -0.000245631 0.00558404 -3.70037e-18 0.00558404)
(0.00558404 -0.00254242 -0.000245631 0.00558404 6.07746e-18 0.00558404)
(0.00557505 -0.00253799 -0.000249788 0.00557505 -4.56642e-18 0.00557505)
(0.00557505 -0.00253799 -0.000249788 0.00557505 8.81525e-18 0.00557505)
(0.00556563 -0.00253336 -0.000253994 0.00556563 -3.59185e-18 0.00556563)
(0.00556563 -0.00253336 -0.000253994 0.00556563 8.84928e-18 0.00556563)
(0.00555577 -0.00252852 -0.00025825 0.00555577 -3.5475e-18 0.00555577)
(0.00555577 -0.00252852 -0.00025825 0.00555577 6.91684e-18 0.00555577)
(0.00554549 -0.00252349 -0.000262554 0.00554549 -4.81539e-18 0.00554549)
(0.00554549 -0.00252349 -0.000262554 0.00554549 7.26871e-18 0.00554549)
(0.00553476 -0.00251825 -0.000266907 0.00553476 -5.43443e-18 0.00553476)
(0.00553476 -0.00251825 -0.000266907 0.00553476 9.20047e-18 0.00553476)
(0.0055236 -0.0025128 -0.000271309 0.0055236 -4.34613e-18 0.0055236)
(0.0055236 -0.0025128 -0.000271309 0.0055236 9.61518e-18 0.0055236)
(0.00551201 -0.00250715 -0.000275759 0.00551201 -4.22385e-18 0.00551201)
(0.00551201 -0.00250715 -0.000275759 0.00551201 9.61705e-18 0.00551201)
(0.00549997 -0.00250129 -0.000280257 0.00549997 -5.60676e-18 0.00549997)
(0.00549997 -0.00250129 -0.000280257 0.00549997 1.03642e-17 0.00549997)
(0.0054875 -0.00249522 -0.000284802 0.0054875 -6.15891e-18 0.0054875)
(0.0054875 -0.00249522 -0.000284802 0.0054875 1.0298e-17 0.0054875)
(0.00547458 -0.00248893 -0.000289395 0.00547458 -6.3787e-18 0.00547458)
(0.00547458 -0.00248893 -0.000289395 0.00547458 1.01014e-17 0.00547458)
(0.00546121 -0.00248244 -0.000294034 0.00546121 -7.71946e-18 0.00546121)
(0.00546121 -0.00248244 -0.000294034 0.00546121 1.08251e-17 0.00546121)
(0.0054474 -0.00247573 -0.000298719 0.0054474 -8.95178e-18 0.0054474)
(0.0054474 -0.00247573 -0.000298719 0.0054474 1.18205e-17 0.0054474)
(0.00543314 -0.0024688 -0.000303449 0.00543314 -1.19968e-17 0.00543314)
(0.00543314 -0.0024688 -0.000303449 0.00543314 1.2713e-17 0.00543314)
(0.00541843 -0.00246165 -0.000308225 0.00541843 -1.30574e-17 0.00541843)
(0.00541843 -0.00246165 -0.000308225 0.00541843 1.36396e-17 0.00541843)
(0.00540327 -0.00245428 -0.000313044 0.00540327 -9.83286e-18 0.00540327)
(0.00540327 -0.00245428 -0.000313044 0.00540327 1.45689e-17 0.00540327)
(0.00538764 -0.00244668 -0.000317906 0.00538764 -8.08364e-18 0.00538764)
(0.00538764 -0.00244668 -0.000317906 0.00538764 1.58635e-17 0.00538764)
(0.00537156 -0.00243886 -0.000322809 0.00537156 -8.33308e-18 0.00537156)
(0.00537156 -0.00243886 -0.000322809 0.00537156 1.37642e-17 0.00537156)
(0.00535501 -0.0024308 -0.000327754 0.00535501 -1.19007e-17 0.00535501)
(0.00535501 -0.0024308 -0.000327754 0.00535501 1.19175e-17 0.00535501)
(0.00533799 -0.00242252 -0.000332739 0.00533799 -1.32196e-17 0.00533799)
(0.00533799 -0.00242252 -0.000332739 0.00533799 1.20867e-17 0.00533799)
(0.0053205 -0.002414 -0.000337763 0.0053205 -1.30308e-17 0.0053205)
(0.0053205 -0.002414 -0.000337763 0.0053205 1.23373e-17 0.0053205)
(0.00530254 -0.00240524 -0.000342823 0.00530254 -1.42997e-17 0.00530254)
(0.00530254 -0.00240524 -0.000342823 0.00530254 1.693e-17 0.00530254)
(0.00528409 -0.00239624 -0.00034792 0.00528409 -1.21723e-17 0.00528409)
(0.00528409 -0.00239624 -0.00034792 0.00528409 2.05633e-17 0.00528409)
(0.00526516 -0.002387 -0.000353051 0.00526516 -1.19157e-17 0.00526516)
(0.00526516 -0.002387 -0.000353051 0.00526516 1.96027e-17 0.00526516)
(0.00524575 -0.00237751 -0.000358214 0.00524575 -1.02824e-17 0.00524575)
(0.00524575 -0.00237751 -0.000358214 0.00524575 2.01256e-17 0.00524575)
(0.00522584 -0.00236777 -0.000363409 0.00522584 -4.65034e-18 0.00522584)
(0.00522584 -0.00236777 -0.000363409 0.00522584 2.21909e-17 0.00522584)
(0.00520543 -0.00235778 -0.000368632 0.00520543 -9.23738e-19 0.00520543)
(0.00520543 -0.00235778 -0.000368632 0.00520543 2.55746e-17 0.00520543)
(0.00518453 -0.00234753 -0.000373883 0.00518453 1.22005e-18 0.00518453)
(0.00518453 -0.00234753 -0.000373883 0.00518453 2.61403e-17 0.00518453)
(0.00516311 -0.00233702 -0.000379158 0.00516311 2.71357e-18 0.00516311)
(0.00516311 -0.00233702 -0.000379158 0.00516311 2.3994e-17 0.00516311)
(0.00514119 -0.00232625 -0.000384456 0.00514119 3.64846e-18 0.00514119)
(0.00514119 -0.00232625 -0.000384456 0.00514119 2.48998e-17 0.00514119)
(0.00511874 -0.00231521 -0.000389774 0.00511874 3.75544e-18 0.00511874)
(0.00511874 -0.00231521 -0.000389774 0.00511874 2.64132e-17 0.00511874)
(0.00509577 -0.00230389 -0.00039511 0.00509577 2.7674e-18 0.00509577)
(0.00509577 -0.00230389 -0.00039511 0.00509577 2.60663e-17 0.00509577)
(0.00507228 -0.0022923 -0.00040046 0.00507228 3.45889e-18 0.00507228)
(0.00507228 -0.0022923 -0.00040046 0.00507228 2.64564e-17 0.00507228)
(0.00504824 -0.00228044 -0.000405822 0.00504824 1.72179e-18 0.00504824)
(0.00504824 -0.00228044 -0.000405822 0.00504824 2.73192e-17 0.00504824)
(0.00502367 -0.00226829 -0.000411193 0.00502367 1.43265e-18 0.00502367)
(0.00502367 -0.00226829 -0.000411193 0.00502367 2.84768e-17 0.00502367)
(0.00499855 -0.00225585 -0.000416569 0.00499855 2.41794e-18 0.00499855)
(0.00499855 -0.00225585 -0.000416569 0.00499855 2.99696e-17 0.00499855)
(0.00497288 -0.00224312 -0.000421947 0.00497288 2.11172e-18 0.00497288)
(0.00497288 -0.00224312 -0.000421947 0.00497288 3.213e-17 0.00497288)
(0.00494665 -0.00223009 -0.000427323 0.00494665 4.17409e-18 0.00494665)
(0.00494665 -0.00223009 -0.000427323 0.00494665 3.26891e-17 0.00494665)
(0.00491986 -0.00221677 -0.000432694 0.00491986 3.55002e-18 0.00491986)
(0.00491986 -0.00221677 -0.000432694 0.00491986 3.3032e-17 0.00491986)
(0.00489249 -0.00220313 -0.000438055 0.00489249 6.98252e-19 0.00489249)
(0.00489249 -0.00220313 -0.000438055 0.00489249 3.60512e-17 0.00489249)
(0.00486455 -0.00218919 -0.000443401 0.00486455 9.16011e-19 0.00486455)
(0.00486455 -0.00218919 -0.000443401 0.00486455 3.68447e-17 0.00486455)
(0.00483601 -0.00217494 -0.000448729 0.00483601 5.86092e-18 0.00483601)
(0.00483601 -0.00217494 -0.000448729 0.00483601 3.7339e-17 0.00483601)
(0.00480689 -0.00216036 -0.000454034 0.00480689 7.89469e-18 0.00480689)
(0.00480689 -0.00216036 -0.000454034 0.00480689 3.32016e-17 0.00480689)
(0.00477717 -0.00214546 -0.00045931 0.00477717 4.263e-18 0.00477717)
(0.00477717 -0.00214546 -0.00045931 0.00477717 3.08075e-17 0.00477717)
(0.00474683 -0.00213023 -0.000464552 0.00474683 2.60294e-18 0.00474683)
(0.00474683 -0.00213023 -0.000464552 0.00474683 2.85048e-17 0.00474683)
(0.00471589 -0.00211467 -0.000469754 0.00471589 -2.69027e-18 0.00471589)
(0.00471589 -0.00211467 -0.000469754 0.00471589 2.916e-17 0.00471589)
(0.00468432 -0.00209876 -0.000474911 0.00468432 3.19446e-18 0.00468432)
(0.00468432 -0.00209876 -0.000474911 0.00468432 2.40235e-17 0.00468432)
(0.00465212 -0.00208251 -0.000480016 0.00465212 7.31265e-18 0.00465212)
(0.00465212 -0.00208251 -0.000480016 0.00465212 1.35298e-17 0.00465212)
(0.00461929 -0.00206591 -0.000485062 0.00461929 3.57426e-18 0.00461929)
(0.00461929 -0.00206591 -0.000485062 0.00461929 1.04784e-17 0.00461929)
(0.00458581 -0.00204895 -0.000490044 0.00458581 1.98729e-19 0.00458581)
(0.00458581 -0.00204895 -0.000490044 0.00458581 1.42611e-17 0.00458581)
(0.00455168 -0.00203163 -0.000494953 0.00455168 -1.91995e-20 0.00455168)
(0.00455168 -0.00203163 -0.000494953 0.00455168 1.37164e-17 0.00455168)
(0.0045169 -0.00201394 -0.000499781 0.0045169 3.8517e-18 0.0045169)
(0.0045169 -0.00201394 -0.000499781 0.0045169 1.00479e-17 0.0045169)
(0.00448144 -0.00199588 -0.000504522 0.00448144 -1.35849e-19 0.00448144)
(0.00448144 -0.00199588 -0.000504522 0.00448144 1.01656e-17 0.00448144)
(0.00444531 -0.00197743 -0.000509167 0.00444531 -8.8493e-19 0.00444531)
(0.00444531 -0.00197743 -0.000509167 0.00444531 1.03059e-17 0.00444531)
(0.0044085 -0.0019586 -0.000513706 0.0044085 -2.98184e-18 0.0044085)
(0.0044085 -0.0019586 -0.000513706 0.0044085 7.37578e-18 0.0044085)
(0.00437099 -0.00193938 -0.000518131 0.00437099 -3.27156e-18 0.00437099)
(0.00437099 -0.00193938 -0.000518131 0.00437099 7.91652e-18 0.00437099)
(0.00433279 -0.00191975 -0.000522431 0.00433279 2.06606e-18 0.00433279)
(0.00433279 -0.00191975 -0.000522431 0.00433279 1.19837e-17 0.00433279)
(0.00429389 -0.00189972 -0.000526598 0.00429389 -2.8912e-19 0.00429389)
(0.00429389 -0.00189972 -0.000526598 0.00429389 4.86875e-18 0.00429389)
(0.00425427 -0.00187928 -0.00053062 0.00425427 5.80571e-18 0.00425427)
(0.00425427 -0.00187928 -0.00053062 0.00425427 -6.3439e-20 0.00425427)
(0.00421393 -0.00185842 -0.000534486 0.00421393 1.56845e-18 0.00421393)
(0.00421393 -0.00185842 -0.000534486 0.00421393 -3.20501e-18 0.00421393)
(0.00417287 -0.00183713 -0.000538185 0.00417287 -1.95836e-18 0.00417287)
(0.00417287 -0.00183713 -0.000538185 0.00417287 -3.3222e-18 0.00417287)
(0.00413108 -0.0018154 -0.000541704 0.00413108 1.59998e-18 0.00413108)
(0.00413108 -0.0018154 -0.000541704 0.00413108 -9.19867e-18 0.00413108)
(0.00408855 -0.00179324 -0.00054503 0.00408855 -8.16248e-19 0.00408855)