/*--------------------------------*- C++ -*----------------------------------*\
| =========                 |                                                 |
| \\      /  F ield         | OpenFOAM: The Open Source CFD Toolbox           |
|  \\    /   O peration     | Version:  2106                                  |
|   \\  /    A nd           | Website:  www.openfoam.com                      |
|    \\/     M anipulation  |                                                 |
\*---------------------------------------------------------------------------*/
FoamFile
{
    version     2.0;
    format      ascii;
    arch        "LSB;label=32;scalar=64";
    class       volVectorField;
    location    "10030";
    object      U;
}
// * * * * * * * * * * * * * * * * * * * * * * * * * * * * * * * * * * * * * //

dimensions      [0 1 -1 0 0 0 0];

internalField   nonuniform List<vector> 
2000
(
(0.00324091 -5.98763e-16 -1.65084e-17)
(0.00324091 -5.69946e-19 9.77651e-22)
(0.009782 -2.39963e-15 -5.98845e-17)
(0.009782 -2.71526e-19 8.30161e-21)
(0.0164439 -2.16426e-15 -6.26454e-17)
(0.0164439 -1.31886e-18 1.80851e-20)
(0.0232289 -2.06328e-15 -6.53367e-17)
(0.0232289 -2.08805e-18 2.56857e-20)
(0.0301391 -2.05243e-15 -6.83294e-17)
(0.0301391 -2.85523e-18 3.21255e-20)
(0.037177 -2.06709e-15 -7.15886e-17)
(0.037177 -3.68796e-18 3.91432e-20)
(0.0443447 -2.07154e-15 -7.50148e-17)
(0.0443447 -4.59066e-18 4.60109e-20)
(0.0516447 -2.07068e-15 -7.85868e-17)
(0.0516447 -5.50546e-18 5.34071e-20)
(0.0590794 -2.06903e-15 -8.23083e-17)
(0.0590794 -6.4556e-18 6.11983e-20)
(0.066651 -2.06755e-15 -8.61841e-17)
(0.066651 -7.45982e-18 6.93475e-20)
(0.074362 -2.0661e-15 -9.0219e-17)
(0.074362 -8.47553e-18 7.80405e-20)
(0.0822147 -2.06452e-15 -9.44181e-17)
(0.0822147 -9.51228e-18 8.62547e-20)
(0.0902114 -2.06276e-15 -9.87863e-17)
(0.0902114 -1.05651e-17 9.57245e-20)
(0.0983543 -2.06093e-15 -1.03328e-16)
(0.0983543 -1.16661e-17 1.04834e-19)
(0.106645 -2.05909e-15 -1.08047e-16)
(0.106645 -1.28109e-17 1.13459e-19)
(0.115086 -2.05718e-15 -1.12945e-16)
(0.115086 -1.40126e-17 1.23348e-19)
(0.123678 -2.05518e-15 -1.18023e-16)
(0.123678 -1.53029e-17 1.31206e-19)
(0.132422 -2.0531e-15 -1.23279e-16)
(0.132422 -1.65802e-17 1.39612e-19)
(0.141319 -2.05095e-15 -1.28711e-16)
(0.141319 -1.79026e-17 1.49531e-19)
(0.150368 -2.04866e-15 -1.3431e-16)
(0.150368 -1.93368e-17 1.57927e-19)
(0.159569 -2.04626e-15 -1.40066e-16)
(0.159569 -2.0768e-17 1.63971e-19)
(0.168918 -2.04365e-15 -1.45965e-16)
(0.168918 -2.23777e-17 1.68788e-19)
(0.178413 -2.04084e-15 -1.51986e-16)
(0.178413 -2.41363e-17 1.72482e-19)
(0.188049 -2.03789e-15 -1.58105e-16)
(0.188049 -2.59887e-17 1.73444e-19)
(0.197818 -2.03491e-15 -1.64291e-16)
(0.197818 -2.80138e-17 1.75591e-19)
(0.207714 -2.03205e-15 -1.70509e-16)
(0.207714 -2.97754e-17 1.79579e-19)
(0.217724 -2.02911e-15 -1.7672e-16)
(0.217724 -3.1526e-17 1.80877e-19)
(0.227838 -2.02606e-15 -1.82878e-16)
(0.227838 -3.34844e-17 1.82622e-19)
(0.23804 -2.02271e-15 -1.88936e-16)
(0.23804 -3.53286e-17 1.83391e-19)
(0.248315 -2.01931e-15 -1.94845e-16)
(0.248315 -3.72548e-17 1.87636e-19)
(0.258645 -2.01587e-15 -2.00556e-16)
(0.258645 -3.89795e-17 1.89924e-19)
(0.26901 -2.01238e-15 -2.06025e-16)
(0.26901 -4.07441e-17 1.88392e-19)
(0.27939 -2.00888e-15 -2.11212e-16)
(0.27939 -4.28371e-17 1.87396e-19)
(0.289763 -2.00514e-15 -2.16081e-16)
(0.289763 -4.51422e-17 1.81008e-19)
(0.300109 -2.00124e-15 -2.20605e-16)
(0.300109 -4.73742e-17 1.73689e-19)
(0.310407 -1.99712e-15 -2.24771e-16)
(0.310407 -4.97039e-17 1.62087e-19)
(0.320636 -1.99247e-15 -2.28568e-16)
(0.320636 -5.22429e-17 1.42598e-19)
(0.330777 -1.98796e-15 -2.31997e-16)
(0.330777 -5.46708e-17 1.16842e-19)
(0.340812 -1.98371e-15 -2.35071e-16)
(0.340812 -5.75956e-17 9.42326e-20)
(0.350727 -1.97908e-15 -2.37809e-16)
(0.350727 -6.04556e-17 6.77851e-20)
(0.360507 -1.97465e-15 -2.40232e-16)
(0.360507 -6.29626e-17 3.26061e-20)
(0.370141 -1.97046e-15 -2.42367e-16)
(0.370141 -6.57945e-17 -3.0689e-21)
(0.379619 -1.96611e-15 -2.44249e-16)
(0.379619 -6.87545e-17 -5.18209e-20)
(0.388934 -1.96156e-15 -2.45906e-16)
(0.388934 -7.18921e-17 -9.4667e-20)
(0.398079 -1.95677e-15 -2.47371e-16)
(0.398079 -7.46198e-17 -1.50595e-19)
(0.407052 -1.95191e-15 -2.48675e-16)
(0.407052 -7.80636e-17 -2.05104e-19)
(0.415849 -1.94706e-15 -2.49859e-16)
(0.415849 -8.18976e-17 -2.56837e-19)
(0.42447 -1.94231e-15 -2.50945e-16)
(0.42447 -8.48834e-17 -3.29698e-19)
(0.432916 -1.9373e-15 -2.51961e-16)
(0.432916 -8.77805e-17 -3.85407e-19)
(0.441186 -1.93187e-15 -2.52934e-16)
(0.441186 -9.15607e-17 -4.40435e-19)
(0.449285 -1.92755e-15 -2.53887e-16)
(0.449285 -9.46979e-17 -4.70415e-19)
(0.457214 -1.92416e-15 -2.54851e-16)
(0.457214 -9.65085e-17 -5.14187e-19)
(0.464976 -1.92049e-15 -2.55839e-16)
(0.464976 -9.87262e-17 -5.5925e-19)
(0.472577 -1.9169e-15 -2.56868e-16)
(0.472577 -1.01119e-16 -5.83968e-19)
(0.480019 -1.91279e-15 -2.57958e-16)
(0.480019 -1.035e-16 -6.22957e-19)
(0.487307 -1.90848e-15 -2.59116e-16)
(0.487307 -1.05825e-16 -6.57309e-19)
(0.494447 -1.90494e-15 -2.60354e-16)
(0.494447 -1.07923e-16 -7.11037e-19)
(0.501441 -1.90093e-15 -2.61673e-16)
(0.501441 -1.10022e-16 -7.61857e-19)
(0.508296 -1.89693e-15 -2.63078e-16)
(0.508296 -1.12161e-16 -7.81497e-19)
(0.515016 -1.89305e-15 -2.64578e-16)
(0.515016 -1.14194e-16 -8.22376e-19)
(0.521605 -1.88829e-15 -2.66171e-16)
(0.521605 -1.16498e-16 -8.79593e-19)
(0.528069 -1.88421e-15 -2.67847e-16)
(0.528069 -1.17536e-16 -9.33595e-19)
(0.534411 -1.88063e-15 -2.69635e-16)
(0.534411 -1.18388e-16 -1.00177e-18)
(0.540636 -1.87677e-15 -2.7152e-16)
(0.540636 -1.20181e-16 -1.01013e-18)
(0.546748 -1.87242e-15 -2.73518e-16)
(0.546748 -1.21611e-16 -1.08098e-18)
(0.552751 -1.86777e-15 -2.75627e-16)
(0.552751 -1.23634e-16 -1.15373e-18)
(0.55865 -1.8625e-15 -2.7786e-16)
(0.55865 -1.2689e-16 -1.26626e-18)
(0.564448 -1.85658e-15 -2.80196e-16)
(0.564448 -1.29612e-16 -1.34729e-18)
(0.570149 -1.85187e-15 -2.82636e-16)
(0.570149 -1.31767e-16 -1.51251e-18)
(0.575756 -1.84753e-15 -2.85191e-16)
(0.575756 -1.34965e-16 -1.63601e-18)
(0.581273 -1.84307e-15 -2.87834e-16)
(0.581273 -1.38282e-16 -1.81149e-18)
(0.586703 -1.83832e-15 -2.90568e-16)
(0.586703 -1.39628e-16 -1.92889e-18)
(0.59205 -1.83367e-15 -2.93385e-16)
(0.59205 -1.41427e-16 -2.06547e-18)
(0.597316 -1.82925e-15 -2.96292e-16)
(0.597316 -1.48208e-16 -2.17096e-18)
(0.602505 -1.82444e-15 -2.9933e-16)
(0.602505 -1.48806e-16 -2.29611e-18)
(0.607619 -1.82011e-15 -3.02454e-16)
(0.607619 -1.52302e-16 -2.51068e-18)
(0.61266 -1.8138e-15 -3.05682e-16)
(0.61266 -1.54877e-16 -2.5805e-18)
(0.617632 -1.80778e-15 -3.08991e-16)
(0.617632 -1.58448e-16 -2.58147e-18)
(0.622537 -1.8043e-15 -3.12429e-16)
(0.622537 -1.59885e-16 -2.53967e-18)
(0.627377 -1.79993e-15 -3.16009e-16)
(0.627377 -1.61292e-16 -2.41518e-18)
(0.632154 -1.79673e-15 -3.1973e-16)
(0.632154 -1.63752e-16 -2.42866e-18)
(0.636871 -1.7946e-15 -3.23594e-16)
(0.636871 -1.64744e-16 -2.62254e-18)
(0.64153 -1.79035e-15 -3.27607e-16)
(0.64153 -1.67752e-16 -2.45261e-18)
(0.646133 -1.78651e-15 -3.31766e-16)
(0.646133 -1.70848e-16 -2.23002e-18)
(0.650681 -1.7851e-15 -3.36107e-16)
(0.650681 -1.71673e-16 -2.31924e-18)
(0.655177 -1.78289e-15 -3.4062e-16)
(0.655177 -1.73116e-16 -2.47645e-18)
(0.659621 -1.7799e-15 -3.45277e-16)
(0.659621 -1.76367e-16 -2.28739e-18)
(0.664017 -1.7785e-15 -3.50095e-16)
(0.664017 -1.77697e-16 -2.03089e-18)
(0.668365 -1.77479e-15 -3.55083e-16)
(0.668365 -1.76968e-16 -2.1979e-18)
(0.672667 -1.76845e-15 -3.60224e-16)
(0.672667 -1.79487e-16 -1.96786e-18)
(0.676925 -1.76292e-15 -3.65474e-16)
(0.676925 -1.83072e-16 -1.94966e-18)
(0.68114 -1.75804e-15 -3.70836e-16)
(0.68114 -1.85251e-16 -2.03115e-18)
(0.685312 -1.74985e-15 -3.76337e-16)
(0.685312 -1.88699e-16 -1.79288e-18)
(0.689445 -1.74148e-15 -3.81931e-16)
(0.689445 -1.91051e-16 -1.4857e-18)
(0.693538 -1.73635e-15 -3.8772e-16)
(0.693538 -1.91995e-16 -1.41542e-18)
(0.697594 -1.73251e-15 -3.9366e-16)
(0.697594 -1.93687e-16 -1.40717e-18)
(0.701613 -1.72875e-15 -3.94471e-16)
(0.701613 -1.9755e-16 -1.21762e-18)
(0.705596 -1.72415e-15 -3.94992e-16)
(0.705596 -2.00946e-16 -1.19984e-18)
(0.709544 -1.71791e-15 -3.95809e-16)
(0.709544 -2.04802e-16 -1.25175e-18)
(0.713459 -1.71025e-15 -3.96566e-16)
(0.713459 -2.10653e-16 -1.40558e-18)
(0.717342 -1.70429e-15 -3.97965e-16)
(0.717342 -2.15366e-16 -1.80747e-18)
(0.721193 -1.6986e-15 -3.99718e-16)
(0.721193 -2.17122e-16 -1.85966e-18)
(0.725013 -1.69803e-15 -4.01501e-16)
(0.725013 -2.20163e-16 -1.35851e-18)
(0.728804 -1.69369e-15 -4.02788e-16)
(0.728804 -2.22977e-16 -1.26073e-18)
(0.732566 -1.69212e-15 -4.04852e-16)
(0.732566 -2.22012e-16 -1.213e-18)
(0.7363 -1.6921e-15 -4.06482e-16)
(0.7363 -2.21249e-16 -1.41964e-18)
(0.740007 -1.69113e-15 -4.08457e-16)
(0.740007 -2.21037e-16 -1.15047e-18)
(0.743687 -1.68763e-15 -4.096e-16)
(0.743687 -2.22965e-16 -6.88557e-19)
(0.747341 -1.68321e-15 -4.11048e-16)
(0.747341 -2.24283e-16 -5.97911e-19)
(0.750971 -1.67846e-15 -4.11852e-16)
(0.750971 -2.25409e-16 -3.86344e-19)
(0.754576 -1.67177e-15 -4.12864e-16)
(0.754576 -2.27763e-16 -3.55768e-19)
(0.758157 -1.6669e-15 -4.13918e-16)
(0.758157 -2.31186e-16 -6.26754e-19)
(0.761716 -1.66269e-15 -4.15247e-16)
(0.761716 -2.33579e-16 -8.98692e-19)
(0.765252 -1.65815e-15 -4.16489e-16)
(0.765252 -2.38217e-16 -4.57839e-19)
(0.768766 -1.65246e-15 -4.16757e-16)
(0.768766 -2.43913e-16 1.39492e-19)
(0.77226 -1.64577e-15 -4.16586e-16)
(0.77226 -2.47654e-16 4.45833e-20)
(0.775732 -1.64099e-15 -4.16986e-16)
(0.775732 -2.49629e-16 -5.93737e-20)
(0.779185 -1.63366e-15 -4.17112e-16)
(0.779185 -2.55473e-16 6.11438e-19)
(0.782618 -1.62328e-15 -4.16657e-16)
(0.782618 -2.65424e-16 1.65135e-18)
(0.786032 -1.6135e-15 -4.14802e-16)
(0.786032 -2.72139e-16 9.82294e-19)
(0.789427 -1.60613e-15 -4.14609e-16)
(0.789427 -2.81405e-16 -6.76984e-19)
(0.792805 -1.60122e-15 -4.15305e-16)
(0.792805 -2.94567e-16 -7.9412e-19)
(0.796165 -1.59622e-15 -4.14768e-16)
(0.796165 -3.03417e-16 -5.48503e-19)
(0.799507 -1.59093e-15 -4.13328e-16)
(0.799507 -3.16189e-16 -1.40095e-18)
(0.802833 -1.58307e-15 -4.12804e-16)
(0.802833 -3.25347e-16 -1.42685e-18)
(0.806143 -1.57468e-15 -4.12117e-16)
(0.806143 -3.3261e-16 -1.47666e-18)
(0.809436 -1.56659e-15 -4.1168e-16)
(0.809436 -3.40297e-16 -2.86934e-18)
(0.812714 -1.55511e-15 -4.13003e-16)
(0.812714 -3.47755e-16 -3.41793e-18)
(0.815977 -1.54636e-15 -4.14427e-16)
(0.815977 -3.58674e-16 -2.57223e-18)
(0.819225 -1.54233e-15 -4.1512e-16)
(0.819225 -3.58851e-16 -2.95192e-18)
(0.822459 -1.53944e-15 -4.15962e-16)
(0.822459 -3.58227e-16 -3.60556e-18)
(0.825679 -1.53346e-15 -4.16627e-16)
(0.825679 -3.56065e-16 -2.55892e-18)
(0.828885 -1.52812e-15 -4.16008e-16)
(0.828885 -3.53659e-16 -1.1901e-18)
(0.832077 -1.52151e-15 -4.13438e-16)
(0.832077 -3.52248e-16 -2.5226e-18)
(0.835256 -1.50954e-15 -4.14672e-16)
(0.835256 -3.50167e-16 -3.27181e-18)
(0.838423 -1.50065e-15 -4.14514e-16)
(0.838423 -3.51871e-16 -1.46982e-18)
(0.841576 -1.49382e-15 -4.11368e-16)
(0.841576 -3.54006e-16 -1.47717e-18)
(0.844718 -1.48472e-15 -4.09941e-16)
(0.844718 -3.53957e-16 -1.16222e-18)
(0.847848 -1.47183e-15 -4.06179e-16)
(0.847848 -3.51264e-16 3.62115e-19)
(0.850965 -1.46203e-15 -4.02085e-16)
(0.850965 -3.51504e-16 3.06941e-18)
(0.854072 -1.45538e-15 -3.95196e-16)
(0.854072 -3.60952e-16 3.02905e-18)
(0.857167 -1.4451e-15 -3.89628e-16)
(0.857167 -3.61193e-16 4.58472e-20)
(0.860251 -1.43485e-15 -3.84374e-16)
(0.860251 -3.68524e-16 4.28186e-19)
(0.863324 -1.42484e-15 -3.78889e-16)
(0.863324 -3.70972e-16 3.12331e-18)
(0.866386 -1.41403e-15 -3.70554e-16)
(0.866386 -3.75992e-16 3.16171e-18)
(0.869438 -1.39944e-15 -3.63408e-16)
(0.869438 -3.87725e-16 1.9204e-18)
(0.87248 -1.38471e-15 -3.56862e-16)
(0.87248 -4.01567e-16 2.37339e-18)
(0.875512 -1.37536e-15 -3.49927e-16)
(0.875512 -4.14355e-16 2.61823e-18)
(0.878534 -1.36796e-15 -3.41176e-16)
(0.878534 -4.21935e-16 2.40913e-18)
(0.881547 -1.35875e-15 -3.33349e-16)
(0.881547 -4.3396e-16 3.42296e-18)
(0.88455 -1.34801e-15 -3.23594e-16)
(0.88455 -4.46154e-16 5.33883e-18)
(0.887544 -1.34109e-15 -3.12137e-16)
(0.887544 -4.53705e-16 5.99062e-18)
(0.890528 -1.33747e-15 -3.00302e-16)
(0.890528 -4.68631e-16 5.73541e-18)
(0.893504 -1.32656e-15 -2.82226e-16)
(0.893504 -4.80407e-16 5.53189e-18)
(0.896471 -1.30911e-15 -2.66061e-16)
(0.896471 -4.87221e-16 4.01408e-18)
(0.899428 -1.28977e-15 -2.54071e-16)
(0.899428 -4.99824e-16 2.89012e-18)
(0.902378 -1.27436e-15 -2.41506e-16)
(0.902378 -5.07739e-16 2.95126e-19)
(0.905319 -1.26479e-15 -2.29868e-16)
(0.905319 -5.03315e-16 5.0669e-18)
(0.908251 -1.25154e-15 -2.10092e-16)
(0.908251 -5.33925e-16 7.18086e-18)
(0.911175 -1.23959e-15 -1.943e-16)
(0.911175 -5.36097e-16 1.48517e-17)
(0.914091 -1.22584e-15 -1.75185e-16)
(0.914091 -5.46576e-16 1.72661e-17)
(0.916999 -1.20403e-15 -1.55747e-16)
(0.916999 -5.57261e-16 1.3525e-17)
(0.919899 -1.18997e-15 -1.3937e-16)
(0.919899 -5.67455e-16 1.1329e-17)
(0.922791 -1.1791e-15 -1.22667e-16)
(0.922791 -5.75786e-16 1.03081e-17)
(0.925675 -1.16209e-15 -1.11157e-16)
(0.925675 -5.73822e-16 7.40365e-18)
(0.928551 -1.14634e-15 -1.06188e-16)
(0.928551 -5.78909e-16 2.00148e-18)
(0.93142 -1.13525e-15 -1.04e-16)
(0.93142 -5.84939e-16 -7.82939e-18)
(0.93428 -1.12343e-15 -1.05661e-16)
(0.93428 -5.88074e-16 -1.33673e-17)
(0.937134 -1.10495e-15 -1.0679e-16)
(0.937134 -5.91815e-16 -1.64382e-17)
(0.939979 -1.08619e-15 -1.08489e-16)
(0.939979 -5.96071e-16 -2.31639e-17)
(0.942817 -1.07339e-15 -1.09678e-16)
(0.942817 -6.00305e-16 -2.8685e-17)
(0.945647 -1.05617e-15 -1.10901e-16)
(0.945647 -5.97429e-16 -3.30571e-17)
(0.94847 -1.04423e-15 -1.12185e-16)
(0.94847 -5.99172e-16 -3.9212e-17)
(0.951285 -1.03402e-15 -1.11166e-16)
(0.951285 -6.07423e-16 -4.50499e-17)
(0.954093 -1.02009e-15 -1.12049e-16)
(0.954093 -6.08067e-16 -5.15523e-17)
(0.956893 -1.01173e-15 -1.12264e-16)
(0.956893 -6.05487e-16 -6.01834e-17)
(0.959685 -9.94612e-16 -1.14178e-16)
(0.959685 -6.10563e-16 -7.01163e-17)
(0.962469 -9.79121e-16 -1.16135e-16)
(0.962469 -6.07865e-16 -7.87885e-17)
(0.965246 -9.74707e-16 -1.17019e-16)
(0.965246 -6.09954e-16 -8.88039e-17)
(0.968016 -9.61317e-16 -1.14015e-16)
(0.968016 -6.1315e-16 -1.03056e-16)
(0.970777 -9.30787e-16 -1.13928e-16)
(0.970777 -6.23709e-16 -1.13946e-16)
(0.973531 -8.96737e-16 -1.16283e-16)
(0.973531 -6.52174e-16 -1.26345e-16)
(0.976276 -8.83633e-16 -1.19701e-16)
(0.976276 -6.7176e-16 -1.28784e-16)
(0.979014 -8.6692e-16 -1.21545e-16)
(0.979014 -6.94473e-16 -1.25504e-16)
(0.981743 -8.64058e-16 -1.1904e-16)
(0.981743 -7.01298e-16 -1.26654e-16)
(0.984464 -8.46384e-16 -1.13307e-16)
(0.984464 -7.09157e-16 -1.28248e-16)
(0.987177 -8.22296e-16 -1.1941e-16)
(0.987177 -7.29751e-16 -1.24595e-16)
(0.989881 -8.10628e-16 -1.21167e-16)
(0.989881 -7.42611e-16 -1.2071e-16)
(0.992577 -8.09539e-16 -1.23268e-16)
(0.992577 -7.39795e-16 -1.20022e-16)
(0.995264 -8.02476e-16 -1.2064e-16)
(0.995264 -7.34507e-16 -1.24808e-16)
(0.997942 -7.833e-16 -1.19786e-16)
(0.997942 -7.37659e-16 -1.2557e-16)
(1.00061 -7.83971e-16 -1.21354e-16)
(1.00061 -7.30388e-16 -1.28814e-16)
(1.00327 -7.78082e-16 -1.19391e-16)
(1.00327 -7.27606e-16 -1.28205e-16)
(1.00592 -7.7237e-16 -1.15927e-16)
(1.00592 -7.4185e-16 -1.30469e-16)
(1.00856 -7.67738e-16 -1.08297e-16)
(1.00856 -7.48547e-16 -1.3208e-16)
(1.01119 -7.43719e-16 -1.04593e-16)
(1.01119 -7.21672e-16 -1.41782e-16)
(1.01381 -7.45978e-16 -1.00847e-16)
(1.01381 -7.21856e-16 -1.50181e-16)
(1.01642 -7.26996e-16 -1.0386e-16)
(1.01642 -7.42387e-16 -1.50137e-16)
(1.01902 -7.25551e-16 -1.06186e-16)
(1.01902 -7.2658e-16 -1.39908e-16)
(1.0216 -7.29553e-16 -1.05905e-16)
(1.0216 -7.19043e-16 -1.32105e-16)
(1.02418 -7.08667e-16 -1.00637e-16)
(1.02418 -7.11058e-16 -1.24402e-16)
(1.02674 -7.04299e-16 -9.79641e-17)
(1.02674 -6.83731e-16 -9.99309e-17)
(1.02929 -6.82483e-16 -9.56498e-17)
(1.02929 -6.61432e-16 -9.54184e-17)
(1.03183 -6.67151e-16 -9.79214e-17)
(1.03183 -6.51261e-16 -9.19308e-17)
(1.03436 -6.33025e-16 -1.05558e-16)
(1.03436 -6.06563e-16 -1.0105e-16)
(1.03687 -6.12313e-16 -1.11467e-16)
(1.03687 -5.9317e-16 -1.06363e-16)
(1.03937 -5.82366e-16 -1.17456e-16)
(1.03937 -6.29361e-16 -1.1525e-16)
(1.04185 -5.78068e-16 -1.36402e-16)
(1.04185 -5.93416e-16 -1.28701e-16)
(1.04432 -5.73792e-16 -1.38251e-16)
(1.04432 -5.47778e-16 -1.41547e-16)
(1.04677 -5.55963e-16 -1.41509e-16)
(1.04677 -5.45743e-16 -1.56108e-16)
(1.0492 -5.33688e-16 -1.41211e-16)
(1.0492 -5.30527e-16 -1.58648e-16)
(1.05162 -5.20836e-16 -1.45851e-16)
(1.05162 -5.2757e-16 -1.6173e-16)
(1.05402 -4.77315e-16 -1.49006e-16)
(1.05402 -5.30225e-16 -1.60029e-16)
(1.0564 -5.29305e-16 -1.52148e-16)
(1.0564 -5.26903e-16 -1.48881e-16)
(1.05877 -5.4239e-16 -1.61805e-16)
(1.05877 -5.45174e-16 -1.36167e-16)
(1.06111 -5.29795e-16 -1.75899e-16)
(1.06111 -5.37255e-16 -1.38202e-16)
(1.06343 -5.63636e-16 -1.63825e-16)
(1.06343 -5.04533e-16 -1.22046e-16)
(1.06573 -5.45234e-16 -1.4143e-16)
(1.06573 -5.10525e-16 -1.01088e-16)
(1.068 -5.19715e-16 -1.3359e-16)
(1.068 -5.15218e-16 -8.98334e-17)
(1.07025 -5.36316e-16 -1.41135e-16)
(1.07025 -5.23294e-16 -7.66088e-17)
(1.07248 -5.41727e-16 -1.17091e-16)
(1.07248 -5.11609e-16 -7.1428e-17)
(1.07468 -5.09104e-16 -1.30564e-16)
(1.07468 -4.81532e-16 -1.0108e-16)
(1.07685 -5.12654e-16 -1.23355e-16)
(1.07685 -4.90048e-16 -1.01983e-16)
(1.07899 -4.97691e-16 -1.18765e-16)
(1.07899 -4.77588e-16 -9.92567e-17)
(1.0811 -4.78563e-16 -1.12504e-16)
(1.0811 -4.81892e-16 -1.13026e-16)
(1.08317 -4.88216e-16 -1.18363e-16)
(1.08317 -4.79209e-16 -1.39979e-16)
(1.08522 -4.80176e-16 -1.29277e-16)
(1.08522 -5.01381e-16 -1.4671e-16)
(1.08722 -4.58906e-16 -1.3471e-16)
(1.08722 -4.76832e-16 -1.36867e-16)
(1.08919 -4.79651e-16 -1.50237e-16)
(1.08919 -5.16173e-16 -1.08833e-16)
(1.09111 -4.86712e-16 -1.44354e-16)
(1.09111 -5.40451e-16 -8.81871e-17)
(1.09299 -4.68778e-16 -1.42283e-16)
(1.09299 -4.5609e-16 -4.81856e-17)
(1.09483 -4.56631e-16 -1.35899e-16)
(1.09483 -4.47971e-16 -7.15949e-17)
(1.09661 -4.40977e-16 -1.36814e-16)
(1.09661 -4.75758e-16 -1.06495e-16)
(1.09834 -3.7511e-16 -1.62681e-16)
(1.09834 -5.07246e-16 -9.19898e-17)
(1.10002 -4.73846e-16 -1.28156e-16)
(1.10002 -5.33431e-16 -5.81126e-17)
(1.10164 -4.25495e-16 -1.46274e-16)
(1.10164 -5.3178e-16 -4.81138e-17)
(1.10319 -4.81371e-16 -1.52735e-16)
(1.10319 -5.16648e-16 -5.96896e-17)
(1.10467 -5.02121e-16 -9.62585e-17)
(1.10467 -4.81247e-16 -5.82397e-17)
(1.10608 -5.17127e-16 -6.17343e-17)
(1.10608 -4.71209e-16 -5.57052e-17)
(1.10742 -5.26387e-16 -1.19309e-16)
(1.10742 -4.99256e-16 -7.76583e-17)
(1.10867 -4.93234e-16 -1.22071e-16)
(1.10867 -4.96798e-16 -7.75124e-17)
(1.10982 -5.15636e-16 -1.16648e-16)
(1.10982 -4.61127e-16 -5.61366e-17)
(1.11089 -5.35907e-16 -6.00693e-17)
(1.11089 -4.46676e-16 -4.13415e-17)
(1.11184 -4.61287e-16 -5.25484e-17)
(1.11184 -4.3768e-16 -4.22728e-17)
(1.11269 -4.15876e-16 -4.11232e-17)
(1.11269 -4.23893e-16 -3.27685e-17)
(1.11342 -3.98289e-16 -4.96393e-17)
(1.11342 -4.11312e-16 -4.94255e-17)
(1.11402 -3.71235e-16 -9.18106e-17)
(1.11402 -4.17014e-16 -1.06021e-16)
(1.11448 -3.75616e-16 -9.92821e-17)
(1.11448 -3.95956e-16 -1.2368e-16)
(1.1148 -3.34158e-16 -1.26393e-16)
(1.1148 -3.86051e-16 -7.93525e-17)
(1.11496 -3.21238e-16 -9.78322e-17)
(1.11496 -3.51582e-16 -1.05883e-16)
(0.00324091 -2.42125e-19 3.95131e-18)
(0.00324091 -9.34421e-20 8.7092e-18)
(0.009782 -6.68051e-20 1.35423e-17)
(0.009782 2.72813e-20 1.20717e-17)
(0.0164439 -5.6982e-19 1.36054e-17)
(0.0164439 -1.25103e-19 1.25195e-17)
(0.0232289 -9.32765e-19 1.45918e-17)
(0.0232289 -2.09977e-19 1.29834e-17)
(0.0301391 -1.30581e-18 1.51485e-17)
(0.0301391 -3.09007e-19 1.34636e-17)
(0.037177 -1.70783e-18 1.57281e-17)
(0.037177 -4.01431e-19 1.39599e-17)
(0.0443447 -2.09407e-18 1.63308e-17)
(0.0443447 -4.99511e-19 1.44735e-17)
(0.0516447 -2.45534e-18 1.69583e-17)
(0.0516447 -6.46637e-19 1.50052e-17)
(0.0590794 -2.84282e-18 1.76117e-17)
(0.0590794 -7.64806e-19 1.55543e-17)
(0.066651 -3.26326e-18 1.82915e-17)
(0.066651 -8.96994e-19 1.61212e-17)
(0.074362 -3.68142e-18 1.89171e-17)
(0.074362 -1.07193e-18 1.67074e-17)
(0.0822147 -4.14519e-18 1.9497e-17)
(0.0822147 -1.16906e-18 1.73129e-17)
(0.0902114 -4.69485e-18 2.01186e-17)
(0.0902114 -1.27996e-18 1.79382e-17)
(0.0983543 -5.26904e-18 2.0786e-17)
(0.0983543 -1.42379e-18 1.85817e-17)
(0.106645 -5.81306e-18 2.15009e-17)
(0.106645 -1.59563e-18 1.92476e-17)
(0.115086 -6.31667e-18 2.22696e-17)
(0.115086 -1.7666e-18 1.99344e-17)
(0.123678 -6.85295e-18 2.30885e-17)
(0.123678 -1.98057e-18 2.06364e-17)
(0.132422 -7.45288e-18 2.39559e-17)
(0.132422 -2.19374e-18 2.13623e-17)
(0.141319 -8.09692e-18 2.48802e-17)
(0.141319 -2.3897e-18 2.21017e-17)
(0.150368 -8.68038e-18 2.58596e-17)
(0.150368 -2.69111e-18 2.28519e-17)
(0.159569 -9.35056e-18 2.68917e-17)
(0.159569 -2.8817e-18 2.36222e-17)
(0.168918 -1.01087e-17 2.79758e-17)
(0.168918 -2.91046e-18 2.44036e-17)
(0.178413 -1.08614e-17 2.91125e-17)
(0.178413 -3.06101e-18 2.51944e-17)
(0.188049 -1.16706e-17 3.02977e-17)
(0.188049 -3.30925e-18 2.59913e-17)
(0.197818 -1.2396e-17 3.15083e-17)
(0.197818 -3.61915e-18 2.67942e-17)
(0.207714 -1.31106e-17 3.24977e-17)
(0.207714 -3.96893e-18 2.75909e-17)
(0.217724 -1.3919e-17 3.34697e-17)
(0.217724 -4.27771e-18 2.83719e-17)
(0.227838 -1.47234e-17 3.44157e-17)
(0.227838 -4.67193e-18 2.91437e-17)
(0.23804 -1.55783e-17 3.53231e-17)
(0.23804 -4.97801e-18 2.98871e-17)
(0.248315 -1.64384e-17 3.61853e-17)
(0.248315 -5.32402e-18 3.05856e-17)
(0.258645 -1.73494e-17 3.69927e-17)
(0.258645 -5.73672e-18 3.12362e-17)
(0.26901 -1.85414e-17 3.77356e-17)
(0.26901 -5.82406e-18 3.18374e-17)
(0.27939 -1.96845e-17 3.83976e-17)
(0.27939 -6.16615e-18 3.23958e-17)
(0.289763 -2.06424e-17 3.89856e-17)
(0.289763 -6.66446e-18 3.28843e-17)
(0.300109 -2.18525e-17 3.94818e-17)
(0.300109 -6.80136e-18 3.33314e-17)
(0.310407 -2.29373e-17 3.98858e-17)
(0.310407 -7.41382e-18 3.37107e-17)
(0.320636 -2.37132e-17 4.01954e-17)
(0.320636 -8.01429e-18 3.40354e-17)
(0.330777 -2.47035e-17 4.04153e-17)
(0.330777 -8.25985e-18 3.42986e-17)
(0.340812 -2.58642e-17 4.0545e-17)
(0.340812 -8.9067e-18 3.4515e-17)
(0.350727 -2.71704e-17 4.05772e-17)
(0.350727 -9.28514e-18 3.47072e-17)
(0.360507 -2.82749e-17 4.05271e-17)
(0.360507 -9.17307e-18 3.48615e-17)
(0.370141 -2.93105e-17 4.04192e-17)
(0.370141 -9.86817e-18 3.49746e-17)
(0.379619 -3.02504e-17 4.02475e-17)
(0.379619 -1.02325e-17 3.50859e-17)
(0.388934 -3.12465e-17 4.00314e-17)
(0.388934 -1.0584e-17 3.51727e-17)
(0.398079 -3.24225e-17 3.97818e-17)
(0.398079 -1.11211e-17 3.52414e-17)
(0.407052 -3.36711e-17 3.95244e-17)
(0.407052 -1.13641e-17 3.52985e-17)
(0.415849 -3.54158e-17 3.92207e-17)
(0.415849 -1.23542e-17 3.53794e-17)
(0.42447 -3.61575e-17 3.88929e-17)
(0.42447 -1.35323e-17 3.54846e-17)
(0.432916 -3.65237e-17 3.85928e-17)
(0.432916 -1.44773e-17 3.55716e-17)
(0.441186 -3.80033e-17 3.82856e-17)
(0.441186 -1.56009e-17 3.56388e-17)
(0.449285 -3.9125e-17 3.79316e-17)
(0.449285 -1.64269e-17 3.57618e-17)
(0.457214 -3.99364e-17 3.75402e-17)
(0.457214 -1.59163e-17 3.59076e-17)
(0.464976 -4.07957e-17 3.71234e-17)
(0.464976 -1.67397e-17 3.60324e-17)
(0.472577 -4.17629e-17 3.66777e-17)
(0.472577 -1.80318e-17 3.62186e-17)
(0.480019 -4.29462e-17 3.61932e-17)
(0.480019 -1.83023e-17 3.63856e-17)
(0.487307 -4.41264e-17 3.5681e-17)
(0.487307 -1.92517e-17 3.64843e-17)
(0.494447 -4.48312e-17 3.51177e-17)
(0.494447 -1.96256e-17 3.66389e-17)
(0.501441 -4.54269e-17 3.45648e-17)
(0.501441 -1.91965e-17 3.6798e-17)
(0.508296 -4.6858e-17 3.39786e-17)
(0.508296 -1.89612e-17 3.70174e-17)
(0.515016 -4.79965e-17 3.33639e-17)
(0.515016 -1.9877e-17 3.72402e-17)
(0.521605 -4.82354e-17 3.27802e-17)
(0.521605 -2.13466e-17 3.74433e-17)
(0.528069 -4.96188e-17 3.2284e-17)
(0.528069 -2.19704e-17 3.74986e-17)
(0.534411 -5.13092e-17 3.17689e-17)
(0.534411 -2.14245e-17 3.76339e-17)
(0.540636 -5.17283e-17 3.1255e-17)
(0.540636 -2.05782e-17 3.78089e-17)
(0.546748 -5.26402e-17 3.07551e-17)
(0.546748 -2.05262e-17 3.79574e-17)
(0.552751 -5.43021e-17 3.01866e-17)
(0.552751 -2.06388e-17 3.81447e-17)
(0.55865 -5.51864e-17 2.96242e-17)
(0.55865 -2.08791e-17 3.83063e-17)
(0.564448 -5.56495e-17 2.90745e-17)
(0.564448 -2.20226e-17 3.85477e-17)
(0.570149 -5.68611e-17 2.85518e-17)
(0.570149 -2.38847e-17 3.88863e-17)
(0.575756 -5.79355e-17 2.80531e-17)
(0.575756 -2.46207e-17 3.9303e-17)
(0.581273 -5.8664e-17 2.76915e-17)
(0.581273 -2.55951e-17 3.95661e-17)
(0.586703 -5.88448e-17 2.74208e-17)
(0.586703 -2.78329e-17 3.98698e-17)
(0.59205 -5.92028e-17 2.72443e-17)
(0.59205 -2.84621e-17 4.03066e-17)
(0.597316 -6.16855e-17 2.71121e-17)
(0.597316 -2.86179e-17 4.08533e-17)
(0.602505 -6.46656e-17 2.68537e-17)
(0.602505 -2.83759e-17 4.14803e-17)
(0.607619 -6.56945e-17 2.66232e-17)
(0.607619 -2.87275e-17 4.22651e-17)
(0.61266 -6.48067e-17 2.64703e-17)
(0.61266 -2.94198e-17 4.29511e-17)
(0.617632 -6.51992e-17 2.65512e-17)
(0.617632 -3.24786e-17 4.34377e-17)
(0.622537 -6.62109e-17 2.65009e-17)
(0.622537 -3.47995e-17 4.42632e-17)
(0.627377 -6.6848e-17 2.63736e-17)
(0.627377 -3.33869e-17 4.51313e-17)
(0.632154 -6.72285e-17 2.62578e-17)
(0.632154 -3.42174e-17 4.56963e-17)
(0.636871 -6.7004e-17 2.61717e-17)
(0.636871 -3.46081e-17 4.61574e-17)
(0.64153 -6.80369e-17 2.60482e-17)
(0.64153 -3.38107e-17 4.68193e-17)
(0.646133 -6.89559e-17 2.57653e-17)
(0.646133 -3.40875e-17 4.75629e-17)
(0.650681 -6.90983e-17 2.53295e-17)
(0.650681 -3.46023e-17 4.8315e-17)
(0.655177 -6.89051e-17 2.49159e-17)
(0.655177 -3.42434e-17 4.88148e-17)
(0.659621 -6.78454e-17 2.4535e-17)
(0.659621 -3.47027e-17 4.90745e-17)
(0.664017 -6.88463e-17 2.39882e-17)
(0.664017 -3.17245e-17 4.93619e-17)
(0.668365 -7.12795e-17 2.32773e-17)
(0.668365 -2.84887e-17 4.96829e-17)
(0.672667 -7.17195e-17 2.25387e-17)
(0.672667 -2.98814e-17 5.00287e-17)
(0.676925 -7.1575e-17 2.19494e-17)
(0.676925 -3.07282e-17 4.9918e-17)
(0.68114 -7.18588e-17 2.13974e-17)
(0.68114 -2.98683e-17 4.99265e-17)
(0.685312 -7.30721e-17 2.10588e-17)
(0.685312 -3.20782e-17 4.95403e-17)
(0.689445 -7.61477e-17 2.07761e-17)
(0.689445 -3.49603e-17 4.87889e-17)
(0.693538 -7.77337e-17 2.03581e-17)
(0.693538 -3.28522e-17 4.80448e-17)
(0.697594 -7.67429e-17 2.01683e-17)
(0.697594 -3.12192e-17 4.68498e-17)
(0.701613 -7.55334e-17 2.01939e-17)
(0.701613 -3.38634e-17 4.55309e-17)
(0.705596 -7.41769e-17 2.03613e-17)
(0.705596 -3.37325e-17 4.41135e-17)
(0.709544 -7.40961e-17 2.05556e-17)
(0.709544 -3.14921e-17 4.26395e-17)
(0.713459 -7.6679e-17 2.06166e-17)
(0.713459 -3.11916e-17 4.14762e-17)
(0.717342 -7.96199e-17 2.03604e-17)
(0.717342 -2.80357e-17 4.05614e-17)
(0.721193 -8.12538e-17 2.01847e-17)
(0.721193 -2.55978e-17 3.91609e-17)
(0.725013 -8.19195e-17 1.98951e-17)
(0.725013 -2.78024e-17 3.78447e-17)
(0.728804 -8.0056e-17 1.93771e-17)
(0.728804 -2.62676e-17 3.6955e-17)
(0.732566 -7.91836e-17 1.88773e-17)
(0.732566 -2.42046e-17 3.60571e-17)
(0.7363 -8.00184e-17 1.82688e-17)
(0.7363 -2.79964e-17 3.43561e-17)
(0.740007 -7.94569e-17 1.76145e-17)
(0.740007 -2.71791e-17 3.30394e-17)
(0.743687 -7.91938e-17 1.68077e-17)
(0.743687 -2.44768e-17 3.32009e-17)
(0.747341 -8.15577e-17 1.60288e-17)
(0.747341 -2.48775e-17 3.48662e-17)
(0.750971 -8.49095e-17 1.56058e-17)
(0.750971 -2.73994e-17 3.62086e-17)
(0.754576 -8.67616e-17 1.51256e-17)
(0.754576 -2.62794e-17 3.73408e-17)
(0.758157 -8.70439e-17 1.48158e-17)
(0.758157 -2.41896e-17 3.85257e-17)
(0.761716 -8.588e-17 1.47616e-17)
(0.761716 -2.57113e-17 3.94082e-17)
(0.765252 -8.42517e-17 1.50065e-17)
(0.765252 -2.64578e-17 4.00943e-17)
(0.768766 -8.46032e-17 1.5631e-17)
(0.768766 -2.75283e-17 4.02181e-17)
(0.77226 -8.37796e-17 1.61687e-17)
(0.77226 -2.74406e-17 4.00752e-17)
(0.775732 -7.93451e-17 1.7095e-17)
(0.775732 -2.47947e-17 3.97079e-17)
(0.779185 -7.7744e-17 1.81014e-17)
(0.779185 -2.63067e-17 3.89875e-17)
(0.782618 -7.8867e-17 1.86275e-17)
(0.782618 -2.91028e-17 3.81471e-17)
(0.786032 -7.98174e-17 1.90835e-17)
(0.786032 -2.83764e-17 3.6968e-17)
(0.789427 -7.93259e-17 1.88775e-17)
(0.789427 -2.61403e-17 3.58777e-17)
(0.792805 -7.7865e-17 1.90234e-17)
(0.792805 -2.8225e-17 3.45489e-17)
(0.796165 -7.8343e-17 1.93865e-17)
(0.796165 -3.01048e-17 3.27057e-17)
(0.799507 -8.33715e-17 1.93564e-17)
(0.799507 -2.88302e-17 3.10629e-17)
(0.802833 -8.61125e-17 1.89914e-17)
(0.802833 -2.97187e-17 2.97915e-17)
(0.806143 -8.48665e-17 1.96056e-17)
(0.806143 -3.16984e-17 2.80266e-17)
(0.809436 -8.40741e-17 2.03069e-17)
(0.809436 -3.26533e-17 2.61133e-17)
(0.812714 -8.31182e-17 2.11049e-17)
(0.812714 -2.89177e-17 2.41691e-17)
(0.815977 -8.20568e-17 2.22669e-17)
(0.815977 -2.73663e-17 2.24042e-17)
(0.819225 -7.96851e-17 2.35583e-17)
(0.819225 -2.86193e-17 2.07859e-17)
(0.822459 -7.825e-17 2.45951e-17)
(0.822459 -2.71768e-17 1.97223e-17)
(0.825679 -7.79864e-17 2.57316e-17)
(0.825679 -2.279e-17 1.85696e-17)
(0.828885 -7.67217e-17 2.65202e-17)
(0.828885 -2.10539e-17 1.72345e-17)
(0.832077 -7.78573e-17 2.76051e-17)
(0.832077 -2.37207e-17 1.61316e-17)
(0.835256 -8.35667e-17 2.8248e-17)
(0.835256 -2.49813e-17 1.62768e-17)
(0.838423 -8.90109e-17 2.87699e-17)
(0.838423 -2.28262e-17 1.63853e-17)
(0.841576 -9.44794e-17 2.93164e-17)
(0.841576 -1.84312e-17 1.65156e-17)
(0.844718 -9.67423e-17 2.91854e-17)
(0.844718 -1.21551e-17 1.72366e-17)
(0.847848 -9.72456e-17 2.8851e-17)
(0.847848 -7.2476e-18 1.79809e-17)
(0.850965 -1.05e-16 2.74596e-17)
(0.850965 -1.15499e-17 1.87659e-17)
(0.854072 -1.09386e-16 2.52577e-17)
(0.854072 -1.51709e-17 1.88139e-17)
(0.857167 -1.08071e-16 2.41363e-17)
(0.857167 -1.61844e-17 1.79934e-17)
(0.860251 -1.04687e-16 2.23698e-17)
(0.860251 -2.04522e-17 1.77074e-17)
(0.863324 -9.88723e-17 2.2047e-17)
(0.863324 -2.10953e-17 1.73252e-17)
(0.866386 -9.65228e-17 2.20361e-17)
(0.866386 -2.24109e-17 1.6449e-17)
(0.869438 -9.42322e-17 2.25328e-17)
(0.869438 -2.86358e-17 1.62256e-17)
(0.87248 -9.34402e-17 2.48246e-17)
(0.87248 -3.40927e-17 1.5925e-17)
(0.875512 -9.15621e-17 2.73991e-17)
(0.875512 -3.34077e-17 1.49398e-17)
(0.878534 -8.68099e-17 2.99369e-17)
(0.878534 -2.76535e-17 1.44678e-17)
(0.881547 -9.1032e-17 3.22244e-17)
(0.881547 -3.5496e-17 1.44059e-17)
(0.88455 -1.03728e-16 3.26156e-17)
(0.88455 -3.81984e-17 1.43881e-17)
(0.887544 -1.06154e-16 2.95754e-17)
(0.887544 -2.53996e-17 1.62547e-17)