/*--------------------------------*- C++ -*----------------------------------*\
| =========                 |                                                 |
| \\      /  F ield         | OpenFOAM: The Open Source CFD Toolbox           |
|  \\    /   O peration     | Version:  2106                                  |
|   \\  /    A nd           | Website:  www.openfoam.com                      |
|    \\/     M anipulation  |                                                 |
\*---------------------------------------------------------------------------*/
FoamFile
{
    version     2.0;
    format      ascii;
    arch        "LSB;label=32;scalar=64";
    class       volTensorField;
    location    "10010";
    object      grad(U);
}
// * * * * * * * * * * * * * * * * * * * * * * * * * * * * * * * * * * * * * //

dimensions      [0 0 -1 0 0 0 0];

internalField   nonuniform List<tensor> 
2000
(
(0 -2.88852e-25 -1.75051e-27 13.0062 -3.82565e-12 -1.81027e-13 0.0240719 -3.53801e-15 -1.22647e-16)
(0 -2.69097e-28 -5.97616e-27 13.0062 0 -2.01255e-14 0.0240719 -6.72743e-29 -1.8618e-17)
(0 0 5.09368e-31 13.0038 0 -5.22651e-14 0.0726561 0 -1.97058e-16)
(0 -4.46957e-29 -3.99069e-31 13.0038 -3.83173e-15 -5.18993e-14 0.0726561 -8.8071e-18 -2.05057e-16)
(1.08213e-17 -6.26809e-30 6.38969e-32 13.0013 3.84052e-12 -2.4507e-14 0.100792 -2.33083e-14 -1.79277e-16)
(-1.37837e-17 1.25362e-29 1.95878e-31 13.0013 -3.27576e-15 -3.98518e-15 0.100792 -1.44761e-17 -2.12612e-16)
(1.73643e-17 -1.08591e-26 6.8504e-32 12.9988 8.58389e-28 -2.33865e-14 0.102653 0 -1.86785e-16)
(1.17293e-17 9.22985e-30 1.92288e-31 12.9988 -3.90802e-15 -3.99616e-15 0.102653 -2.27552e-17 -2.20335e-16)
(0 6.04048e-30 3.7753e-31 12.9962 9.54752e-14 -2.41302e-14 0.104549 -1.5967e-15 -1.98e-16)
(0 0 -1.88765e-31 12.9962 -3.98695e-15 -4.00287e-15 0.104549 -3.13866e-17 -2.28215e-16)
(0 2.37191e-29 5.55917e-31 12.9937 -1.61434e-14 -2.49559e-14 0.106479 -1.72674e-16 -2.07358e-16)
(-9.41778e-17 -2.37191e-29 -5.55917e-31 12.9937 -4.03749e-15 -4.00696e-15 0.106479 -4.04676e-17 -2.36251e-16)
(5.12031e-17 -5.73946e-28 -3.6382e-31 12.991 -1.64714e-27 -2.55942e-14 0.108445 0 -2.16118e-16)
(1.22641e-16 2.91056e-30 3.6382e-31 12.991 -4.03336e-15 -4.00858e-15 0.108445 -4.98799e-17 -2.44442e-16)
(0 -5.71445e-30 0 12.9884 5.91413e-15 -2.61876e-14 0.110446 -3.38297e-17 -2.25264e-16)
(3.03258e-16 8.57168e-30 0 12.9884 -4.02336e-15 -4.00698e-15 0.110446 -5.93837e-17 -2.52784e-16)
(-4.52882e-17 3.39824e-30 9.46353e-32 12.9857 7.39729e-15 -2.67993e-14 0.112484 -6.61303e-17 -2.34861e-16)
(0 5.60974e-30 0 12.9857 -4.03605e-15 -4.00267e-15 0.112484 -6.90393e-17 -2.61274e-16)
(9.68791e-17 -8.26041e-30 -5.16276e-31 12.9829 6.8977e-15 -2.74296e-14 0.114559 -6.0802e-17 -2.44876e-16)
(0 8.26041e-30 5.16276e-31 12.9829 -4.05403e-15 -3.99538e-15 0.114559 -7.89088e-17 -2.69912e-16)
(9.51039e-17 -3.24362e-29 -1.68938e-30 12.9801 6.76116e-15 -2.80745e-14 0.116672 -5.98047e-17 -2.55306e-16)
(0 3.24362e-29 1.18257e-30 12.9801 -4.09054e-15 -3.98432e-15 0.116672 -8.91765e-17 -2.78689e-16)
(6.82584e-17 7.21932e-30 -1.13804e-31 12.9773 6.76475e-15 -2.87326e-14 0.118824 -6.06381e-17 -2.66155e-16)
(2.73034e-16 -5.30696e-30 0 12.9773 -4.11249e-15 -3.96903e-15 0.118824 -9.94732e-17 -2.87602e-16)
(0 -5.20972e-30 0 12.9744 6.79712e-15 -2.94026e-14 0.121015 -6.2124e-17 -2.77427e-16)
(0 5.20972e-30 0 12.9744 -4.13357e-15 -3.95054e-15 0.121015 -1.09829e-16 -2.96636e-16)
(-1.74258e-16 2.89625e-29 1.40665e-30 12.9714 6.81042e-15 -3.00841e-14 0.123245 -6.35271e-17 -2.89136e-16)
(0 -2.55712e-29 -9.58922e-31 12.9714 -4.11e-15 -3.99181e-15 0.123245 -1.205e-16 -3.05795e-16)
(-1.80846e-16 1.84511e-29 7.63291e-31 12.9684 6.71391e-15 -3.07765e-14 0.125517 -6.47177e-17 -3.01286e-16)
(0 -1.00411e-29 0 12.9684 -4.03365e-15 -4.39101e-15 0.125517 -1.31318e-16 -3.15358e-16)
(2.7432e-16 -1.81737e-29 -7.59769e-31 12.9653 6.47069e-15 -3.14804e-14 0.127829 -6.40525e-17 -3.13913e-16)
(-4.03649e-16 9.85707e-30 6.16067e-31 12.9653 -3.9448e-15 -4.77164e-15 0.127829 -1.42432e-16 -3.26782e-16)
(0 -9.67644e-30 -6.04777e-31 12.9622 6.36207e-15 -3.21969e-14 0.130183 -6.236e-17 -3.27032e-16)
(0 9.67644e-30 6.04777e-31 12.9622 -3.79836e-15 -4.83887e-15 0.130183 -1.53438e-16 -3.36793e-16)
(4.03422e-16 -2.57683e-29 -1.80574e-30 12.959 6.46757e-15 -3.29253e-14 0.13258 -6.42839e-17 -3.40648e-16)
(3.05514e-16 1.89982e-29 8.90543e-31 12.959 -3.76167e-15 -4.9043e-15 0.13258 -1.63947e-16 -3.46653e-16)
(-1.27017e-16 8.04564e-30 7.52665e-31 12.9557 6.52215e-15 -3.36655e-14 0.135021 -6.68688e-17 -3.54786e-16)
(0 0 0 12.9557 -3.88048e-15 -4.96797e-15 0.135021 -1.75031e-16 -3.56607e-16)
(1.36041e-16 -3.38139e-30 -7.54082e-31 12.9524 6.52491e-15 -3.35388e-14 0.137505 -6.78441e-17 -3.50793e-16)
(5.44164e-16 4.57709e-30 1.14427e-30 12.9524 -3.9152e-15 -5.03694e-15 0.137505 -1.86892e-16 -3.66659e-16)
(-1.45231e-16 3.37953e-30 2.14441e-31 12.949 6.6668e-15 -2.57077e-14 0.140035 -6.9447e-17 -1.98758e-16)
(1.16185e-15 0 0 12.949 -3.91491e-15 -5.10292e-15 0.140035 -1.98617e-16 -3.76801e-16)
(0 8.82175e-30 2.7568e-31 12.9455 6.78527e-15 -1.85776e-14 0.14261 -7.347e-17 -2.06895e-16)
(6.18364e-16 -4.41088e-30 0 12.9455 -3.95004e-15 -5.16571e-15 0.14261 -2.10589e-16 -3.86987e-16)
(0 -1.29901e-29 -5.41256e-31 12.9419 6.66631e-15 -1.89807e-14 0.145231 -7.46744e-17 -2.15297e-16)
(6.56491e-16 1.29901e-29 1.08251e-30 12.9419 -3.98825e-15 -5.23348e-15 0.145231 -2.23169e-16 -3.97234e-16)
(0 4.2507e-30 1.06268e-30 12.9382 6.5922e-15 -1.94019e-14 0.1479 -7.35683e-17 -2.24322e-16)
(6.95319e-16 0 -5.31338e-31 12.9382 -4.11186e-15 -5.29984e-15 0.1479 -2.36454e-16 -4.0754e-16)
(-1.83715e-16 -8.0145e-31 2.35743e-31 12.9345 6.7236e-15 -1.98415e-14 0.150616 -7.57938e-17 -2.33649e-16)
(0 8.34562e-30 5.21601e-31 12.9345 -4.08109e-15 -5.36463e-15 0.150616 -2.50386e-16 -4.17848e-16)
(0 -2.45781e-29 -1.53613e-30 12.9306 6.76871e-15 -2.02929e-14 0.15338 -7.9401e-17 -2.43486e-16)
(7.75131e-16 2.45781e-29 1.53613e-30 12.9306 -3.87746e-15 -5.43209e-15 0.15338 -2.64401e-16 -4.28184e-16)
(7.89371e-17 -8.69688e-30 -7.57453e-31 12.9266 6.59057e-15 -2.07614e-14 0.156194 -7.97201e-17 -2.53777e-16)
(-2.82972e-16 1.20638e-29 5.0266e-31 12.9266 -3.87372e-15 -5.50256e-15 0.156194 -2.77739e-16 -4.38519e-16)
(-2.14476e-16 -5.82338e-31 7.47795e-31 12.9224 6.65212e-15 -2.12457e-14 0.159058 -7.80874e-17 -2.64585e-16)
(0 7.89518e-30 0 12.9224 -3.98605e-15 -5.568e-15 0.159058 -2.91933e-16 -4.48836e-16)
(0 7.75051e-30 4.84407e-31 12.9181 6.97024e-15 -2.1749e-14 0.161973 -8.42397e-17 -2.75964e-16)
(0 -3.87525e-30 0 12.9181 -4.07931e-15 -5.62449e-15 0.161973 -3.06922e-16 -4.59099e-16)
(-7.71335e-16 3.37932e-29 3.12135e-30 12.9137 6.92678e-15 -2.22786e-14 0.164938 -8.90086e-17 -2.88084e-16)
(-9.43744e-16 -2.66297e-29 -1.90212e-30 12.9137 -3.88422e-15 -5.68022e-15 0.164938 -3.22909e-16 -4.6929e-16)
(2.46962e-16 3.7692e-31 -2.75633e-31 12.9091 6.63664e-15 -2.28133e-14 0.167956 -8.63035e-17 -3.00281e-16)
(9.87848e-16 -3.73453e-30 0 12.9091 -3.51075e-15 -5.74297e-15 0.167956 -3.38118e-16 -4.79384e-16)
(0 1.46644e-29 -8.7617e-29 12.9042 6.51945e-15 -9.76781e-15 0.171026 -8.48115e-17 -6.41422e-17)
(0 -7.33219e-30 -4.58262e-31 12.9042 -3.5622e-15 -5.80483e-15 0.171026 -3.51354e-16 -4.89427e-16)
(-2.69624e-16 1.41503e-29 1.22418e-30 12.8992 6.43689e-15 -3.43759e-15 0.174149 -8.64487e-17 -2.74987e-17)
(0 -1.07967e-29 -8.99729e-31 12.8992 -3.72897e-15 -5.86344e-15 0.174149 -3.65738e-16 -4.99296e-16)
(-2.81267e-16 3.35159e-30 -5.58524e-31 12.8939 6.24581e-15 -1.97842e-15 0.177325 -8.57775e-17 -2.64163e-17)
(0 3.53297e-30 8.83241e-31 12.8939 -3.56364e-15 -5.92703e-15 0.177325 -3.8191e-16 -5.09011e-16)
(0 -2.08093e-29 -1.73411e-30 12.8884 6.06654e-15 -1.85956e-15 0.180555 -8.44496e-17 -2.52038e-17)
(1.17249e-15 2.08093e-29 1.73411e-30 12.8884 -3.40359e-15 -5.98516e-15 0.180555 -3.96198e-16 -5.18589e-16)
(0 1.36187e-29 8.51168e-31 12.8825 6.05676e-15 -1.73946e-15 0.18384 -8.39858e-17 -2.39831e-17)
(0 -1.0214e-29 0 12.8825 -3.47374e-15 -6.04042e-15 0.18384 -4.11457e-16 -5.27966e-16)
(3.17489e-16 -3.34485e-30 9.25071e-32 12.8763 6.14761e-15 -1.63767e-15 0.187178 -8.73524e-17 -2.31935e-17)
(1.26996e-15 0 0 12.8763 -3.43398e-15 -6.09776e-15 0.187178 -4.28148e-16 -5.37166e-16)
(-3.30007e-16 -1.6344e-29 -1.72528e-30 12.8697 6.2372e-15 -1.5522e-15 0.190571 -8.97927e-17 -2.23549e-17)
(1.32003e-15 2.62483e-29 2.05065e-30 12.8697 -3.63711e-15 -6.15153e-15 0.190571 -4.43019e-16 -5.46139e-16)
(-3.42752e-16 -2.24277e-29 -1.28505e-30 12.8626 6.41338e-15 -1.473e-15 0.194019 -9.32979e-17 -2.16775e-17)
(0 2.89882e-29 1.61046e-30 12.8626 -3.76293e-15 -6.21573e-15 0.194019 -4.62014e-16 -5.54754e-16)
(-4.44996e-16 2.21332e-29 7.90472e-31 12.8551 6.48463e-15 -1.40895e-15 0.19752 -9.84927e-17 -2.12286e-17)
(1.86791e-15 -2.21332e-29 -7.90472e-31 12.8551 -3.41896e-15 -6.28689e-15 0.19752 -4.78483e-16 -5.63155e-16)
(-7.37882e-16 1.59798e-29 1.81468e-30 12.847 6.26515e-15 -1.36685e-15 0.201075 -9.90038e-17 -2.11758e-17)
(1.03892e-15 -6.2079e-30 -7.75987e-31 12.847 -3.30027e-15 -6.32696e-15 0.201075 -4.9179e-16 -5.71275e-16)
(0 -9.14121e-30 -1.52353e-30 12.8382 5.93353e-15 -1.32638e-15 0.204683 -9.53315e-17 -2.07378e-17)
(0 9.14121e-30 7.61767e-31 12.8382 -3.1043e-15 -6.35497e-15 0.204683 -5.10133e-16 -5.78809e-16)
(4.20979e-16 -5.98247e-30 0 12.8287 5.85264e-15 -1.281e-15 0.208343 -9.21563e-17 -2.0499e-17)
(-4.20979e-16 5.98247e-30 0 12.8287 -3.09541e-15 -6.3871e-15 0.208343 -5.26959e-16 -5.85988e-16)
(-8.23293e-16 1.2137e-29 1.79348e-30 12.8183 6.18457e-15 -1.25563e-15 0.212054 -9.62956e-17 -2.06797e-17)
(-1.64012e-15 -5.87284e-30 -1.46821e-30 12.8183 -3.13287e-15 -6.4169e-15 0.212054 -5.43007e-16 -5.92658e-16)
(1.85301e-17 5.32397e-30 1.11606e-30 12.8071 6.71334e-15 -1.24708e-15 0.215814 -1.06616e-16 -2.0983e-17)
(1.69689e-15 -2.88261e-30 -7.20653e-31 12.8071 -3.27402e-15 -6.44131e-15 0.215814 -5.56528e-16 -5.98774e-16)
(4.38668e-16 2.21485e-29 1.08965e-30 12.7947 6.58147e-15 -1.24274e-15 0.219621 -1.17753e-16 -2.13098e-17)
(-1.75467e-15 -2.54681e-29 -1.41489e-30 12.7947 -3.76946e-15 -6.4564e-15 0.219621 -5.74674e-16 -6.04203e-16)
(-4.53373e-16 5.41098e-31 -1.06369e-30 12.7812 5.7353e-15 -1.24156e-15 0.223473 -1.06104e-16 -2.17325e-17)
(1.81349e-15 2.77793e-30 6.94483e-31 12.7812 -3.35263e-15 -6.50347e-15 0.223473 -5.98894e-16 -6.08903e-16)
(-7.6759e-16 -1.90892e-29 -1.36351e-30 12.7663 5.39348e-15 -1.26585e-15 0.227367 -9.25844e-17 -2.29786e-17)
(3.74671e-15 2.45433e-29 1.36351e-30 12.7663 -2.95688e-15 -6.53726e-15 0.227367 -6.16883e-16 -6.13311e-16)
(4.8357e-16 -2.47316e-29 -1.62891e-30 12.7499 5.51789e-15 -8.23538e-15 0.231299 -9.7919e-17 -2.75593e-16)
(1.93428e-15 2.14164e-29 6.69264e-31 12.7499 -3.51463e-15 -6.51721e-15 0.231299 -6.33902e-16 -6.16856e-16)
(-4.99069e-16 8.56876e-30 9.52464e-31 12.7319 5.89595e-15 -1.58024e-14 0.235265 -1.0059e-16 -3.03708e-16)
(-1.99628e-15 0 0 12.7319 -3.78992e-15 -6.51363e-15 0.235265 -6.55139e-16 -6.19193e-16)
(0 -5.15968e-30 -6.44961e-31 12.7119 6.37587e-15 -1.66282e-14 0.239261 -1.15591e-16 -3.17089e-16)
(0 5.15968e-30 6.44961e-31 12.7119 -3.27023e-15 -9.27164e-15 0.239261 -6.77309e-16 -6.20703e-16)
(-1.24374e-15 1.84994e-29 1.57489e-30 12.6897 5.96392e-15 -1.70435e-14 0.243282 -1.22461e-16 -3.3109e-16)
(0 -5.06514e-30 -6.33142e-31 12.6897 -2.48664e-15 -1.70035e-14 0.243282 -6.93486e-16 -6.47387e-16)
(6.99792e-16 -9.94464e-30 -1.24308e-30 12.6653 5.22562e-15 -1.74216e-14 0.24732 -1.04137e-16 -3.4382e-16)
(-6.99792e-16 9.94464e-30 6.2154e-31 12.6653 -2.25501e-15 -2.21753e-14 0.24732 -7.10169e-16 -7.21401e-16)
(0 1.46436e-29 6.1015e-31 12.6381 5.34048e-15 -1.77755e-14 0.251368 -9.82125e-17 -3.57661e-16)
(-2.25521e-15 -1.95248e-29 -1.83045e-30 12.6381 -2.53618e-15 -2.2524e-14 0.251368 -7.28858e-16 -7.97857e-16)
(-9.36962e-17 1.58701e-29 1.49151e-30 12.6081 5.86981e-15 -1.81268e-14 0.25542 -1.12635e-16 -3.71027e-16)
(0 -9.58351e-30 0 12.6081 -2.76307e-15 -2.2869e-14 0.25542 -7.46628e-16 -8.76633e-16)
(-5.97845e-16 -1.41214e-30 -2.83759e-31 12.5748 5.26963e-15 -1.84744e-14 0.259466 -1.23387e-16 -3.85501e-16)
(0 9.4079e-30 5.87994e-31 12.5748 -2.60601e-15 -2.31951e-14 0.259466 -7.70092e-16 -9.58093e-16)
(-5.8069e-16 -7.26532e-30 -1.12523e-30 12.538 4.57892e-15 -1.88227e-14 0.263495 -9.20773e-17 -3.99671e-16)
(1.81127e-15 4.61775e-30 1.15444e-30 12.538 -2.14031e-15 -2.34646e-14 0.263495 -7.87796e-16 -1.04167e-15)
(-6.33018e-16 3.29034e-30 3.02292e-31 12.4973 4.71269e-15 -1.91422e-14 0.267497 -9.89597e-17 -4.13727e-16)
(0 0 0 12.4973 -2.41179e-15 -2.36923e-14 0.267497 -8.02127e-16 -1.12712e-15)
(-1.30206e-15 2.43747e-29 2.82813e-30 12.4524 5.0122e-15 -1.943e-14 0.271461 -1.01283e-16 -4.27305e-16)
(-2.60412e-15 -1.78003e-29 -2.22503e-30 12.4524 -3.03531e-15 -2.38777e-14 0.271461 -8.26014e-16 -1.21448e-15)
(6.69323e-16 1.41919e-29 7.9124e-31 12.4028 5.27326e-15 -1.96873e-14 0.275373 -1.15772e-16 -4.40764e-16)
(-2.67729e-15 -2.18426e-29 -1.09213e-30 12.4028 -2.75219e-15 -2.40114e-14 0.275373 -8.5213e-16 -1.30375e-15)
(-6.03548e-16 4.28847e-30 1.07212e-30 12.3483 5.07728e-15 -1.98927e-14 0.279219 -1.16716e-16 -4.52719e-16)
(0 0 0 12.3483 -2.04271e-15 -2.41826e-14 0.279219 -8.72476e-16 -1.39466e-15)
(-1.4135e-15 -1.02863e-29 5.99988e-31 12.2884 4.78364e-15 -2.00821e-14 0.282985 -1.11251e-16 -4.6612e-16)
(5.654e-15 1.26296e-29 0 12.2884 -2.04917e-15 -2.43655e-14 0.282985 -8.89331e-16 -1.48843e-15)
(-7.25876e-16 1.56729e-29 1.33292e-30 12.2229 4.7752e-15 -2.02553e-14 0.286656 -1.07555e-16 -4.77925e-16)
(2.9035e-15 -1.23982e-29 -1.03318e-30 12.2229 -2.53383e-15 -2.44122e-14 0.286656 -9.08838e-16 -1.58404e-15)
(1.14195e-15 -8.11401e-30 -1.01425e-30 12.1512 5.01959e-15 -2.0347e-14 0.290215 -1.15047e-16 -4.88079e-16)
(-1.14195e-15 8.11401e-30 1.01425e-30 12.1512 -2.74888e-15 -2.44079e-14 0.290215 -9.28181e-16 -1.68038e-15)
(-1.88595e-15 1.12312e-29 1.29526e-30 12.0731 4.84555e-15 -2.04508e-14 0.293646 -1.23318e-16 -5.00996e-16)
(3.05974e-15 0 0 12.0731 -2.71969e-15 -2.43575e-14 0.293646 -9.50331e-16 -1.77881e-15)
(0 7.81936e-30 9.7742e-31 11.9882 4.48102e-15 -2.05184e-14 0.296932 -1.10887e-16 -5.09833e-16)
(0 -3.90968e-30 0 11.9882 -2.58743e-15 -2.42494e-14 0.296932 -9.66607e-16 -1.87772e-15)
(-1.88534e-15 1.09386e-29 1.26034e-30 11.8963 4.50868e-15 -2.04679e-14 0.300056 -1.0984e-16 -5.17315e-16)
(0 -3.83804e-30 0 11.8963 -2.66107e-15 -2.41341e-14 0.300056 -9.83545e-16 -1.97772e-15)
(0 3.76771e-30 9.41926e-31 11.7971 4.5619e-15 -2.03485e-14 0.303002 -1.16467e-16 -5.22885e-16)
(-1.06051e-15 0 0 11.7971 -2.58873e-15 -2.39343e-14 0.303002 -1.00987e-15 -2.07865e-15)
(0 -1.84933e-29 -9.24666e-31 11.6904 4.25382e-15 -2.02011e-14 0.305754 -1.16725e-16 -5.29063e-16)
(3.38432e-15 1.84933e-29 9.24666e-31 11.6904 -2.60561e-15 -2.36149e-14 0.305754 -1.03194e-15 -2.1798e-15)
(0 2.17853e-29 0 11.576 3.95518e-15 -2.00674e-14 0.308297 -1.04664e-16 -5.3543e-16)
(0 -2.17853e-29 0 11.576 -2.43367e-15 -2.31804e-14 0.308297 -1.04851e-15 -2.28116e-15)
(-8.88013e-16 -3.11382e-31 3.05473e-31 11.4539 4.14516e-15 -1.98737e-14 0.310615 -1.05134e-16 -5.38433e-16)
(3.55205e-15 3.56435e-30 0 11.4539 -1.50834e-15 -1.9129e-14 0.310615 -1.05958e-15 -2.38181e-15)
(0 -2.44933e-29 -1.74952e-30 11.324 4.20309e-15 -1.96221e-14 0.312697 -1.18969e-16 -5.41633e-16)
(3.63711e-15 2.44933e-29 1.74952e-30 11.324 -1.44223e-15 -1.51368e-14 0.312697 -1.07618e-15 -2.43323e-15)
(-1.89756e-15 2.38546e-29 3.74433e-30 11.1864 3.65607e-15 -1.92627e-14 0.314532 -1.12314e-16 -5.38379e-16)
(-2.75604e-15 -2.06095e-29 -3.43492e-30 11.1864 -2.02229e-15 -1.47524e-14 0.314532 -1.09812e-15 -2.484e-15)
(9.49126e-16 -6.74395e-30 0 11.0412 2.88203e-15 -1.87457e-14 0.316109 -9.24951e-17 -5.32238e-16)
(-4.75843e-15 6.74395e-30 0 11.0412 -1.43515e-15 -1.45053e-14 0.316109 -1.12386e-15 -2.53387e-15)
(-1.94816e-15 6.49704e-30 6.2774e-31 10.8886 2.50377e-15 -1.82758e-14 0.317421 -7.19242e-17 -5.31076e-16)
(3.89632e-15 0 0 10.8886 -1.05442e-15 -1.43047e-14 0.317421 -1.13688e-15 -2.58629e-15)
(-1.99192e-15 6.49451e-30 6.32318e-31 10.7288 3.31657e-15 -1.78337e-14 0.318463 -7.37672e-17 -5.25843e-16)
(0 0 0 10.7288 -1.83832e-15 -1.3896e-14 0.318463 -1.1491e-15 -2.63989e-15)
(0 -9.56994e-30 0 10.5622 4.72015e-15 -1.73873e-14 0.319232 -1.23257e-16 -5.23886e-16)
(4.0718e-15 9.56994e-30 0 10.5622 -2.85227e-15 -1.3509e-14 0.319232 -1.15284e-15 -2.69248e-15)
(-2.80292e-15 2.51504e-29 5.01626e-30 10.3893 4.96355e-15 -1.7025e-14 0.319728 -1.62078e-16 -5.23166e-16)
(-3.27869e-15 -1.56576e-29 -3.13152e-30 10.3893 -2.92998e-15 -1.31411e-14 0.319728 -1.18316e-15 -2.74493e-15)
(2.79277e-15 -9.37714e-30 -3.2222e-31 10.2104 3.64073e-15 -1.65101e-14 0.319952 -1.43011e-16 -5.11067e-16)
(-1.73059e-15 6.14828e-30 0 10.2104 -1.7514e-15 -1.2694e-14 0.319952 -1.21914e-15 -2.79571e-15)
(2.78327e-15 -1.22874e-29 -3.25339e-31 10.0262 2.32378e-15 -1.58222e-14 0.319908 -8.45381e-17 -4.98573e-16)
(-6.03645e-15 9.05342e-30 0 10.0262 -1.81384e-15 -1.23689e-14 0.319908 -1.21451e-15 -2.84783e-15)
(-2.21327e-15 1.83208e-29 6.54116e-31 9.83713 2.80741e-15 -1.52734e-14 0.319603 -6.35689e-17 -4.94313e-16)
(0 -5.92501e-30 0 9.83713 -2.17845e-15 -1.20271e-14 0.319603 -1.23452e-15 -2.90262e-15)
(0 5.81644e-30 2.90822e-30 9.64385 4.34994e-15 -1.48007e-14 0.319043 -1.19458e-16 -4.85766e-16)
(0 -1.45411e-29 -2.90822e-30 9.64385 -2.81705e-15 -1.15139e-14 0.319043 -1.2542e-15 -2.95616e-15)
(1.15114e-15 -3.57652e-31 -3.32475e-31 9.44696 5.17975e-15 -1.42083e-14 0.31824 -1.6907e-16 -4.72605e-16)
(-9.20912e-15 -2.85493e-30 0 9.44696 -4.49321e-15 -1.11318e-14 0.31824 -1.28389e-15 -3.00447e-15)
(1.17337e-15 -1.16125e-29 -3.35075e-31 9.24712 4.63233e-15 -1.36384e-14 0.317204 -1.8046e-16 -4.6454e-16)
(0 8.40784e-30 0 9.24712 -3.37038e-15 -1.08977e-14 0.317204 -1.32743e-15 -3.04597e-15)
(0 -1.92588e-29 -1.37563e-30 9.04497 2.46889e-15 -1.31831e-14 0.315949 -1.37472e-16 -4.58241e-16)
(4.7822e-15 1.92588e-29 1.37563e-30 9.04497 -1.06792e-15 -1.05083e-14 0.315949 -1.34369e-15 -3.08733e-15)
(2.73811e-15 -1.13228e-29 -1.69253e-30 8.84115 7.38605e-16 -1.2599e-14 0.314487 -3.44021e-17 -4.4001e-16)
(4.87071e-15 8.10252e-30 1.35042e-30 8.84115 -1.89413e-15 -1.00379e-14 0.314487 -1.34845e-15 -3.12685e-15)
(5.05696e-16 -1.4437e-29 -7.263e-30 8.63628 9.97589e-16 -1.19396e-14 0.312834 -1.81161e-17 -4.27162e-16)
(0 1.85594e-29 2.65135e-30 8.63628 -3.72047e-15 -9.76341e-15 0.312834 -1.3939e-15 -3.16527e-15)
(-1.05815e-15 -1.43993e-29 -1.90591e-30 8.43098 2.46552e-15 -1.143e-14 0.311004 -5.78864e-17 -4.18527e-16)
(3.58153e-15 2.08221e-29 0 8.43098 -2.96913e-15 -9.50473e-15 0.311004 -1.43843e-15 -3.20525e-15)
(2.72192e-15 -1.85276e-29 -2.90638e-30 8.22581 3.70046e-15 -1.09893e-14 0.309013 -1.25174e-16 -4.09732e-16)
(8.82999e-15 1.53304e-29 2.55507e-30 8.22581 -2.60463e-15 -9.14377e-15 0.309013 -1.44901e-15 -3.24293e-15)
(-1.30528e-15 -1.8288e-30 3.54762e-31 8.02134 3.75517e-15 -1.04974e-14 0.306876 -1.54023e-16 -3.96173e-16)
(0 1.0033e-29 0 8.02134 -4.22764e-15 -8.90924e-15 0.306876 -1.47985e-15 -3.2821e-15)
(-2.65379e-15 6.37579e-30 7.15273e-31 7.81805 3.72518e-15 -1.00031e-14 0.304609 -1.3413e-16 -3.86148e-16)
(5.30757e-15 0 0 7.81805 -3.67928e-15 -8.66985e-15 0.304609 -1.52385e-15 -3.32505e-15)
(-1.34836e-15 8.01488e-30 3.59895e-31 7.61642 4.4795e-15 -9.59748e-15 0.302225 -1.57459e-16 -3.78483e-16)
(5.39344e-15 0 2.41716e-30 7.61642 -2.44012e-15 -8.33805e-15 0.302225 -1.5388e-15 -3.3681e-15)
(-1.33581e-15 9.49148e-30 2.37287e-30 7.41689 4.79817e-15 -9.14782e-15 0.299741 -1.99848e-16 -3.63861e-16)
(0 -4.74574e-30 0 7.41689 -2.70969e-15 -8.19686e-15 0.299741 -1.5608e-15 -3.41318e-15)
(1.39083e-15 -1.24876e-29 -2.6957e-30 7.21983 3.8169e-15 -8.60357e-15 0.297169 -1.89498e-16 -3.47326e-16)
(5.56333e-15 9.31755e-30 2.32939e-30 7.21983 -2.81449e-15 -8.14271e-15 0.297169 -1.59804e-15 -3.4664e-15)
(1.41182e-15 -2.14699e-29 -3.69162e-31 7.02558 2.7179e-15 -8.08726e-15 0.294523 -1.2549e-16 -3.33681e-16)
(5.64728e-15 1.82936e-29 0 7.02558 -2.75384e-15 -7.9815e-15 0.294523 -1.61117e-15 -3.52174e-15)
(-1.43263e-15 3.17562e-30 3.71216e-31 6.83444 2.98123e-15 -7.66392e-15 0.291815 -1.03213e-16 -3.23755e-16)
(5.73053e-15 4.4896e-30 2.2448e-30 6.83444 -3.58357e-15 -7.82635e-15 0.291815 -1.60824e-15 -3.58015e-15)
(1.45326e-15 -7.57101e-30 -2.57674e-30 6.64668 4.37807e-15 -7.31133e-15 0.289058 -1.53023e-16 -3.15151e-16)
(0 4.40733e-30 2.20366e-30 6.64668 -4.5441e-15 -7.72417e-15 0.289058 -1.65356e-15 -3.64014e-15)
(-3.90935e-15 1.61259e-29 2.53912e-30 6.46251 4.75429e-15 -6.92464e-15 0.286262 -2.30321e-16 -3.01207e-16)
(5.89483e-15 -8.65313e-30 0 6.46251 -3.31371e-15 -7.48103e-15 0.286262 -1.69642e-15 -3.70346e-15)
(1.49396e-15 -1.5888e-29 -2.50362e-30 6.28211 4.02711e-15 -6.37341e-15 0.283437 -1.92596e-16 -2.7657e-16)
(0 1.27418e-29 2.12364e-30 6.28211 -1.27345e-15 -7.35782e-15 0.283437 -1.72033e-15 -3.76597e-15)
(-3.86122e-15 1.14801e-29 3.82385e-31 6.10564 4.45065e-15 -5.85955e-15 0.280593 -1.72436e-16 -2.64642e-16)
(6.0561e-15 -4.16945e-30 0 6.10564 -8.15075e-16 -7.47378e-15 0.280593 -1.76598e-15 -3.83817e-15)
(-7.70289e-16 5.06525e-30 1.66236e-30 5.9332 5.08256e-15 -5.49464e-15 0.277739 -2.39346e-16 -2.52331e-16)
(6.13557e-15 -4.09305e-30 2.04652e-30 5.9332 -6.97975e-16 -7.33681e-15 0.277739 -1.77158e-15 -3.91623e-15)
(0 4.01804e-30 2.00902e-30 5.76489 5.3786e-15 -5.05629e-15 0.274881 -2.38957e-16 -2.32199e-16)
(6.21424e-15 0 2.00902e-30 5.76489 -2.24162e-15 -7.0892e-15 0.274881 -1.7611e-15 -3.99763e-15)
(-2.22051e-15 7.88883e-30 1.97221e-30 5.60077 6.42695e-15 -4.57481e-15 0.272028 -2.77009e-16 -2.14382e-16)
(-6.29212e-15 -3.94441e-30 0 5.60077 -5.04345e-15 -6.71037e-15 0.272028 -1.82006e-15 -4.08144e-15)
(0 1.16164e-29 1.93607e-30 5.44087 6.36397e-15 -4.22767e-15 0.269184 -3.51292e-16 -2.06094e-16)
(6.3692e-15 -1.16164e-29 -1.93607e-30 5.44087 -6.04497e-15 -3.56409e-15 0.269184 -1.87834e-15 -4.16467e-15)
(-1.61137e-15 -1.97411e-29 -1.51248e-30 5.2852 4.89982e-15 -4.05974e-15 0.266357 -2.81124e-16 -2.05285e-16)
(0 2.66082e-29 0 5.2852 -6.28947e-15 -5.35452e-16 0.266357 -1.93222e-15 -4.17704e-15)
(-1.63024e-15 6.80297e-30 3.91022e-31 5.13377 4.32314e-15 -3.74916e-15 0.26355 -2.14778e-16 -1.81502e-16)
(6.52097e-15 0 0 5.13377 -6.33127e-15 -3.82509e-16 0.26355 -2.01381e-15 -4.19175e-15)
(0 -1.09894e-29 0 4.98655 4.61353e-15 -3.35981e-15 0.260769 -2.31634e-16 -1.71697e-16)
(0 1.09894e-29 0 4.98655 -7.04725e-15 -1.00711e-16 0.260769 -2.08653e-15 -4.20899e-15)
(0 7.19204e-30 0 4.84351 4.51107e-15 -2.82919e-15 0.258017 -2.53691e-16 -1.30973e-16)
(0 -3.59602e-30 1.79801e-30 4.84351 -7.09705e-15 1.10155e-16 0.258017 -2.1851e-15 -4.22056e-15)
(3.67296e-15 -2.4222e-29 -3.92301e-30 4.7046 5.76104e-15 -2.34619e-15 0.255297 -2.29284e-16 -1.24974e-16)
(6.74269e-15 1.76506e-29 1.76506e-30 4.7046 -6.21785e-15 2.2872e-16 0.255297 -2.26853e-15 -4.23878e-15)
(-2.47105e-16 7.38946e-30 4.8065e-30 4.56977 8.33621e-15 -2.15432e-15 0.252612 -4.00914e-16 -1.14383e-16)
(6.81504e-15 -3.46543e-30 0 4.56977 -7.13545e-15 1.01681e-16 0.252612 -2.36251e-15 -4.25577e-15)
(0 -3.40193e-30 0 4.43893 7.13915e-15 -2.04049e-15 0.249965 -5.26827e-16 -1.16674e-16)
(6.88663e-15 6.80386e-30 0 4.43893 -7.62375e-15 -1.26221e-16 0.249965 -2.47198e-15 -4.28856e-15)
(-3.47873e-15 5.99956e-30 7.7995e-31 4.31203 3.47952e-15 -1.77267e-15 0.247357 -2.79218e-16 -8.75147e-17)
(6.95745e-15 0 0 4.31203 -4.48569e-15 1.4138e-16 0.247357 -2.55725e-15 -4.30981e-15)
(3.60246e-15 -1.9408e-29 -3.94286e-31 4.18898 2.8572e-15 -1.05483e-15 0.244791 -1.20641e-16 -3.59422e-17)
(5.18196e-15 1.6392e-29 0 4.18898 -3.2545e-15 4.23671e-16 0.244791 -2.58606e-15 -4.32802e-15)
(-1.81175e-15 1.28733e-29 3.21832e-30 4.06969 5.17415e-15 -4.31212e-16 0.242268 -2.15939e-16 -1.54783e-17)
(-5.28513e-15 -1.28733e-29 -3.21832e-30 4.06969 -5.69217e-15 7.75134e-16 0.242268 -2.65438e-15 -4.3457e-15)
(0 9.47803e-30 0 3.95408 6.32773e-15 -1.28067e-29 0.239789 -4.05081e-16 0)
(0 -6.31869e-30 0 3.95408 -5.51847e-15 1.00119e-15 0.239789 -2.76439e-15 -4.36305e-15)
(-3.6167e-15 2.13913e-29 4.75075e-31 3.84205 5.69682e-15 8.66411e-17 0.237354 -3.66032e-16 -2.69011e-18)
(0 -1.55073e-29 0 3.84205 -4.10819e-15 1.13526e-15 0.237354 -2.83484e-15 -4.38702e-15)
(-1.82515e-15 9.02007e-30 3.42276e-30 3.73351 6.00308e-15 3.02105e-16 0.234964 -3.41259e-16 -1.64232e-17)
(0 -3.04462e-30 0 3.73351 -4.52735e-15 1.47439e-15 0.234964 -2.87035e-15 -4.40173e-15)
(-1.68256e-15 2.09218e-29 5.76645e-30 3.62836 6.66634e-15 6.78093e-16 0.23262 -4.18932e-16 -2.18474e-17)
(-7.36713e-15 -1.7933e-29 -2.98883e-30 3.62836 -5.26578e-15 1.72567e-15 0.23262 -2.96242e-15 -4.41438e-15)
(2.06476e-15 -5.79849e-30 -7.19377e-31 3.52651 7.27603e-15 1.27029e-15 0.230322 -4.40393e-16 -6.91389e-17)
(0 0 0 3.52651 -5.72532e-15 1.85073e-15 0.230322 -3.06397e-15 -4.43575e-15)
(5.06153e-16 8.64874e-30 7.94275e-30 3.42786 7.39254e-15 1.44718e-15 0.22807 -5.15506e-16 -9.78918e-17)
(7.49814e-15 -1.44015e-29 -5.76058e-30 3.42786 -5.33525e-15 1.77244e-15 0.22807 -3.12131e-15 -4.46683e-15)
(-1.89067e-15 5.69989e-30 3.42112e-31 3.33231 6.42814e-15 1.46677e-15 0.225864 -4.72715e-16 -9.56212e-17)
(7.56267e-15 0 0 3.33231 -5.89953e-15 1.87223e-15 0.225864 -3.13587e-15 -4.50365e-15)
(3.81328e-15 -2.97124e-30 -6.65714e-31 3.23977 6.42557e-15 1.91037e-15 0.223703 -4.02327e-16 -1.04274e-16)
(-1.56258e-15 -2.7757e-30 0 3.23977 -6.82584e-15 2.26776e-15 0.223703 -3.20961e-15 -4.53415e-15)
(1.92246e-15 -5.57235e-30 -3.1599e-31 3.15015 6.5926e-15 2.39649e-15 0.221588 -4.90167e-16 -1.61357e-16)
(7.68982e-15 2.72483e-30 0 3.15015 -6.68118e-15 2.61299e-15 0.221588 -3.28512e-15 -4.56658e-15)
(-1.93812e-15 1.08677e-29 2.98113e-30 3.06336 5.70046e-15 2.52916e-15 0.219517 -4.4132e-16 -1.77563e-16)
(0 -5.3498e-30 2.6749e-30 3.06336 -6.06497e-15 2.74622e-15 0.219517 -3.40714e-15 -4.59319e-15)
(0 -5.25177e-30 0 2.97929 5.62106e-15 2.75644e-15 0.217491 -3.7897e-16 -1.8672e-16)
(1.56291e-14 5.25177e-30 2.62588e-30 2.97929 -5.4039e-15 2.77116e-15 0.217491 -3.47956e-15 -4.62712e-15)
(-1.969e-15 -1.26426e-29 2.83808e-31 2.89787 6.77151e-15 3.12344e-15 0.215509 -4.46194e-16 -2.17905e-16)
(-2.90231e-15 1.54666e-29 0 2.89787 -5.40736e-15 3.2661e-15 0.215509 -3.53228e-15 -4.64889e-15)
(0 -1.01221e-29 0 2.81901 7.12867e-15 3.29347e-15 0.21357 -5.66762e-16 -2.49107e-16)
(1.30247e-14 1.01221e-29 0 2.81901 -4.93156e-15 3.64898e-15 0.21357 -3.63278e-15 -4.65744e-15)
(-1.9993e-15 1.27182e-29 2.62431e-31 2.74262 7.54456e-15 3.60893e-15 0.211674 -5.1788e-16 -2.52239e-16)
(0 -9.93663e-30 0 2.74262 -5.94046e-15 3.58437e-15 0.211674 -3.69244e-15 -4.67501e-15)
(0 -9.75455e-30 -2.43864e-30 2.66861 5.20141e-15 4.25408e-15 0.20982 -6.53208e-16 -3.07865e-16)
(8.057e-15 9.75455e-30 2.43864e-30 2.66861 -5.35588e-15 3.7352e-15 0.20982 -3.78702e-15 -4.6861e-15)
(2.02906e-15 -2.24788e-29 -2.62055e-30 2.59692 4.07303e-15 4.58476e-15 0.208007 -1.63837e-16 -3.64597e-16)
(1.62325e-14 1.43637e-29 2.39395e-30 2.59692 -4.24538e-15 4.19086e-15 0.208007 -3.88211e-15 -4.68972e-15)
(-2.04374e-15 2.72136e-30 2.17559e-31 2.52745 8.7201e-15 4.68066e-15 0.206234 -6.1955e-16 -3.73169e-16)
(8.17496e-15 4.70016e-30 2.35008e-30 2.52745 -5.83629e-15 4.44437e-15 0.206234 -4.00444e-15 -4.68359e-15)
(2.05829e-15 6.5584e-30 2.102e-30 2.46013 9.27866e-15 4.97463e-15 0.204501 -8.11477e-16 -3.94201e-16)
(5.63569e-15 -4.61403e-30 0 2.46013 -5.67508e-15 4.40654e-15 0.204501 -4.09997e-15 -4.67876e-15)
(-4.14543e-15 9.85059e-30 3.76282e-31 2.3949 8.11332e-15 5.34421e-15 0.202807 -7.37025e-16 -4.36769e-16)
(5.74099e-15 -4.52948e-30 0 2.3949 -4.79208e-15 4.49538e-15 0.202807 -4.15859e-15 -4.67983e-15)
(0 -4.44648e-30 0 2.33167 8.66178e-15 5.16016e-15 0.20115 -6.42006e-16 -4.72501e-16)
(1.66961e-14 8.89296e-30 2.22324e-30 2.33167 -4.68827e-15 4.57363e-15 0.20115 -4.27802e-15 -4.67304e-15)
(0 8.73e-30 2.1825e-30 2.27038 9.31727e-15 4.88536e-15 0.199531 -8.60708e-16 -4.21043e-16)
(8.4048e-15 -4.365e-30 0 2.27038 -5.32164e-15 3.26966e-15 0.199531 -4.40943e-15 -4.5919e-15)
(-2.11527e-15 6.87636e-30 2.30605e-30 2.21097 8.66162e-15 5.24775e-15 0.197948 -7.82963e-16 -4.41354e-16)
(0 0 0 2.21097 -6.20915e-15 1.46801e-15 0.197948 -4.56593e-15 -4.55288e-15)
(2.12922e-15 1.6401e-30 1.95684e-30 2.15336 9.05514e-15 5.4739e-15 0.196401 -7.74166e-16 -5.02668e-16)
(0 -8.41298e-30 -2.10325e-30 2.15336 -5.97528e-15 7.28009e-16 0.196401 -4.74807e-15 -4.54018e-15)
(0 4.12941e-30 2.0647e-30 2.09749 9.25915e-15 5.20795e-15 0.194888 -8.85208e-16 -4.99789e-16)
(0 0 0 2.09749 -5.04076e-15 9.21839e-16 0.194888 -4.91621e-15 -4.53489e-15)
(-4.43883e-15 1.46527e-29 1.33224e-31 2.04331 8.73297e-15 5.41353e-15 0.193409 -8.41753e-16 -4.71532e-16)
(0 -1.21612e-29 0 2.04331 -5.13929e-15 1.41146e-15 0.193409 -5.04523e-15 -4.50776e-15)
(-2.1704e-15 6.45567e-30 2.1021e-30 1.99075 7.96381e-15 5.92624e-15 0.191963 -8.17635e-16 -5.58055e-16)
(-8.68161e-15 0 1.98973e-30 1.99075 -4.83403e-15 1.30984e-15 0.191963 -5.25438e-15 -4.4818e-15)
(-2.18392e-15 -5.33709e-30 9.78863e-32 1.93977 7.36219e-15 5.70919e-15 0.190549 -7.23183e-16 -5.89479e-16)
(1.52722e-14 7.81307e-30 1.95327e-30 1.93977 -3.60852e-15 6.3266e-16 0.190549 -5.36052e-15 -4.44205e-15)
(2.15888e-15 -1.53398e-29 -1.91747e-30 1.8903 7.38686e-15 5.04772e-15 0.189166 -7.28699e-16 -5.35882e-16)
(6.63045e-15 1.53398e-29 1.91747e-30 1.8903 -4.686e-15 5.13488e-16 0.189166 -5.46262e-15 -4.40126e-15)
(-2.21065e-15 6.18248e-30 1.97725e-30 1.84229 7.46759e-15 4.82747e-15 0.187813 -7.55436e-16 -4.77574e-16)
(8.84259e-15 0 0 1.84229 -4.46064e-15 1.04503e-15 0.187813 -5.666e-15 -4.35917e-15)
(0 3.69569e-30 0 1.7957 7.69615e-15 4.90054e-15 0.18649 -7.7283e-16 -5.10584e-16)
(6.81496e-15 -3.69569e-30 1.84784e-30 1.7957 -3.162e-15 1.32062e-15 0.18649 -5.74113e-15 -4.31142e-15)
(-4.27935e-15 -4.90741e-30 -1.74021e-30 1.75047 7.76117e-15 4.30181e-15 0.185196 -8.31992e-16 -5.10944e-16)
(1.09903e-14 7.25593e-30 1.81398e-30 1.75047 -3.32482e-15 1.36931e-15 0.185196 -5.8665e-15 -4.25886e-15)
(2.00494e-15 -1.06845e-29 -1.78074e-30 1.70655 7.30165e-15 3.23408e-15 0.18393 -8.15888e-16 -4.01503e-16)
(6.9951e-15 1.06845e-29 1.78074e-30 1.70655 -3.63571e-15 1.10063e-15 0.18393 -6.01127e-15 -4.2013e-15)