/*--------------------------------*- C++ -*----------------------------------*\
| =========                 |                                                 |
| \\      /  F ield         | OpenFOAM: The Open Source CFD Toolbox           |
|  \\    /   O peration     | Version:  2106                                  |
|   \\  /    A nd           | Website:  www.openfoam.com                      |
|    \\/     M anipulation  |                                                 |
\*---------------------------------------------------------------------------*/
FoamFile
{
    version     2.0;
    format      ascii;
    arch        "LSB;label=32;scalar=64";
    class       volVectorField;
    location    "10010";
    object      grad(T);
}
// * * * * * * * * * * * * * * * * * * * * * * * * * * * * * * * * * * * * * //

dimensions      [0 -1 0 1 0 0 0];

internalField   nonuniform List<vector> 
2000
(
(0 127.819 0.236547)
(0 127.819 0.236547)
(0 127.819 0.714055)
(-1.12328e-16 127.819 0.714055)
(-2.90705e-17 127.819 0.991002)
(0 127.819 0.991002)
(-9.52681e-17 127.819 1.0095)
(3.81072e-16 127.819 1.0095)
(0 127.818 1.02834)
(-4.25061e-16 127.818 1.02834)
(4.17272e-16 127.818 1.04753)
(-1.34284e-15 127.818 1.04753)
(0 127.818 1.06708)
(1.20547e-15 127.818 1.06708)
(0 127.817 1.087)
(2.98118e-15 127.817 1.087)
(-4.45258e-16 127.817 1.10728)
(0 127.817 1.10728)
(0 127.816 1.12795)
(0 127.816 1.12795)
(7.60831e-16 127.815 1.149)
(0 127.815 1.149)
(6.71322e-16 127.814 1.17044)
(2.68529e-15 127.814 1.17044)
(0 127.814 1.19227)
(0 127.814 1.19227)
(-8.2915e-16 127.812 1.21452)
(-1.43953e-15 127.812 1.21452)
(-2.32343e-15 127.811 1.23718)
(0 127.811 1.23718)
(2.38018e-15 127.81 1.26026)
(-3.97169e-15 127.81 1.26026)
(0 127.808 1.28377)
(1.36184e-15 127.808 1.28377)
(2.32573e-15 127.807 1.30771)
(5.98834e-15 127.807 1.30771)
(-1.25022e-15 127.805 1.3321)
(-2.62477e-15 127.805 1.3321)
(1.33921e-15 127.803 1.35695)
(5.35682e-15 127.803 1.35695)
(-1.42985e-15 127.8 1.38225)
(1.14388e-14 127.8 1.38225)
(2.4831e-15 127.798 1.40802)
(3.60565e-15 127.798 1.40802)
(0 127.795 1.43427)
(8.90259e-15 127.795 1.43427)
(2.39293e-15 127.792 1.461)
(4.4553e-15 127.792 1.461)
(-1.80966e-15 127.788 1.48823)
(0 127.788 1.48823)
(0 127.784 1.51596)
(7.63631e-15 127.784 1.51596)
(2.53431e-16 127.779 1.5442)
(0 127.779 1.5442)
(-2.11351e-15 127.774 1.57296)
(0 127.774 1.57296)
(2.18157e-15 127.768 1.60224)
(-2.18157e-15 127.768 1.60224)
(-6.60882e-15 127.762 1.63206)
(-9.30252e-15 127.762 1.63206)
(2.43466e-15 127.754 1.66242)
(9.73865e-15 127.754 1.66242)
(4.12766e-15 127.745 1.69332)
(-4.12766e-15 127.745 1.69332)
(-2.65886e-15 127.735 1.72479)
(0 127.735 1.72479)
(-2.7741e-15 127.723 1.75681)
(0 127.723 1.75681)
(0 127.71 1.78941)
(1.15659e-14 127.71 1.78941)
(0 127.695 1.82258)
(0 127.695 1.82258)
(6.89589e-15 127.677 1.85632)
(8.76821e-15 127.677 1.85632)
(-6.95098e-15 127.657 1.89065)
(1.67216e-14 127.657 1.89065)
(-7.00963e-15 127.633 1.92556)
(0 127.633 1.92556)
(0 127.606 1.96106)
(1.40476e-14 127.606 1.96106)
(-2.9646e-16 127.575 1.99715)
(7.58239e-15 127.575 1.99715)
(0 127.539 2.03381)
(0 127.539 2.03381)
(0 127.498 2.07106)
(6.73566e-15 127.498 2.07106)
(2.56136e-15 127.45 2.10887)
(-2.28157e-14 127.45 2.10887)
(1.06829e-14 127.395 2.14724)
(1.02765e-14 127.395 2.14724)
(4.33547e-15 127.332 2.18617)
(-1.73419e-14 127.332 2.18617)
(-4.48169e-15 127.259 2.22562)
(1.79268e-14 127.259 2.22562)
(-6.14072e-15 127.176 2.26558)
(3.70446e-14 127.176 2.26558)
(4.78217e-15 127.081 2.30603)
(1.91287e-14 127.081 2.30603)
(-4.93651e-15 126.972 2.34693)
(-1.9746e-14 126.972 2.34693)
(0 126.848 2.38825)
(5.80929e-15 126.848 2.38825)
(-1.09564e-14 126.707 2.42994)
(-5.70284e-15 126.707 2.42994)
(0 126.546 2.47195)
(0 126.546 2.47195)
(1.09915e-14 126.363 2.51424)
(-3.33195e-14 126.363 2.51424)
(3.55525e-16 126.157 2.55672)
(-5.39504e-15 126.157 2.55672)
(-5.92206e-15 125.924 2.59934)
(0 125.924 2.59934)
(-6.99388e-15 125.661 2.64201)
(2.4386e-14 125.661 2.64201)
(-6.27391e-15 125.366 2.68464)
(0 125.366 2.68464)
(-2.88795e-15 125.035 2.72712)
(-3.58378e-14 125.035 2.72712)
(1.64747e-14 124.666 2.76936)
(-3.63877e-14 124.666 2.76936)
(-9.65677e-15 124.254 2.81122)
(-9.65677e-15 124.254 2.81122)
(-2.35065e-14 123.797 2.8526)
(5.61068e-14 123.797 2.8526)
(-7.20563e-15 123.291 2.89335)
(2.88225e-14 123.291 2.89335)
(0 122.732 2.93333)
(0 122.732 2.93333)
(-7.59897e-15 122.118 2.97239)
(3.03959e-14 122.118 2.97239)
(0 121.445 3.01039)
(-8.80382e-15 121.445 3.01039)
(-8.00373e-15 120.71 3.04717)
(-8.64249e-15 120.71 3.04717)
(0 119.91 3.08258)
(0 119.91 3.08258)
(0 119.044 3.11646)
(3.36778e-14 119.044 3.11646)
(0 118.108 3.14866)
(0 118.108 3.14866)
(-8.8455e-15 117.103 3.17904)
(3.5382e-14 117.103 3.17904)
(-7.87913e-15 116.026 3.20747)
(4.41277e-14 116.026 3.20747)
(-9.28105e-15 114.877 3.23383)
(-3.71242e-14 114.877 3.23383)
(1.5186e-14 113.657 3.25799)
(-3.80083e-14 113.657 3.25799)
(-1.94502e-14 112.366 3.27987)
(3.89005e-14 112.366 3.27987)
(-1.99e-14 111.006 3.29939)
(0 111.006 3.29939)
(0 109.578 3.31649)
(4.07063e-14 109.578 3.31649)
(-2.45078e-14 108.086 3.33112)
(-4.16186e-14 108.086 3.33112)
(-3.21057e-15 106.534 3.34326)
(1.38447e-14 106.534 3.34326)
(1.08648e-14 104.923 3.35291)
(-4.34591e-14 104.923 3.35291)
(-2.21928e-14 103.26 3.36009)
(0 103.26 3.36009)
(0 101.548 3.36483)
(0 101.548 3.36483)
(3.7277e-14 99.7924 3.36718)
(-1.18211e-13 99.7924 3.36718)
(-8.26126e-16 97.9987 3.36721)
(1.26218e-14 97.9987 3.36721)
(0 96.1722 3.365)
(4.81187e-14 96.1722 3.365)
(2.44273e-14 94.3182 3.36065)
(4.90551e-14 94.3182 3.36065)
(-1.30551e-14 92.4423 3.35426)
(0 92.4423 3.35426)
(-1.37417e-14 90.5498 3.34595)
(5.0927e-14 90.5498 3.34595)
(1.45833e-15 88.6461 3.33582)
(1.1523e-13 88.6461 3.33582)
(-1.31984e-14 86.7362 3.32401)
(0 86.7362 3.32401)
(-2.68619e-14 84.825 3.31064)
(5.37238e-14 84.825 3.31064)
(-1.36627e-14 82.9172 3.29584)
(5.46509e-14 82.9172 3.29584)
(-2.13729e-14 81.017 3.27972)
(-2.13729e-14 81.017 3.27972)
(1.41236e-14 79.1284 3.26243)
(5.64945e-14 79.1284 3.26243)
(-6.24423e-15 77.2551 3.24407)
(7.8007e-14 77.2551 3.24407)
(-1.45803e-14 75.4005 3.22476)
(5.83213e-14 75.4005 3.22476)
(1.48069e-14 73.5676 3.20462)
(0 73.5676 3.20462)
(-1.50321e-14 71.7589 3.18375)
(4.06435e-14 71.7589 3.18375)
(1.5256e-14 69.9769 3.16226)
(0 69.9769 3.16226)
(-1.54785e-14 68.2236 3.14023)
(6.19141e-14 68.2236 3.14023)
(3.4133e-14 66.5007 3.11777)
(4.43647e-14 66.5007 3.11777)
(0 64.8098 3.09495)
(4.55805e-14 64.8098 3.09495)
(0 63.1519 3.07185)
(-8.23121e-14 63.1519 3.07185)
(1.74385e-14 61.5281 3.04853)
(4.79751e-14 61.5281 3.04853)
(-1.65682e-14 59.9391 3.02508)
(0 59.9391 3.02508)
(-1.67814e-14 58.3856 3.00154)
(6.71254e-14 58.3856 3.00154)
(0 56.8677 2.97798)
(0 56.8677 2.97798)
(0 55.3858 2.95443)
(-1.6195e-14 55.3858 2.95443)
(1.74111e-14 53.9399 2.93095)
(6.96443e-14 53.9399 2.93095)
(2.01077e-15 52.5299 2.90757)
(5.48639e-14 52.5299 2.90757)
(0 51.1556 2.88434)
(7.12907e-14 51.1556 2.88434)
(-3.6052e-14 49.8167 2.86127)
(7.21041e-14 49.8167 2.86127)
(1.82277e-14 48.513 2.83841)
(7.29109e-14 48.513 2.83841)
(0 47.2438 2.81577)
(-7.37113e-14 47.2438 2.81577)
(2.84568e-14 46.0087 2.79338)
(-2.84568e-14 46.0087 2.79338)
(-9.71105e-15 44.8072 2.77126)
(-2.79354e-14 44.8072 2.77126)
(-1.90185e-14 43.6386 2.74942)
(0 43.6386 2.74942)
(-2.69209e-14 42.5022 2.72787)
(-7.68492e-14 42.5022 2.72787)
(3.88091e-14 41.3975 2.70663)
(0 41.3975 2.70663)
(1.32472e-14 40.3236 2.68571)
(7.8381e-14 40.3236 2.68571)
(-1.97845e-14 39.2799 2.66512)
(7.91379e-14 39.2799 2.66512)
(6.49457e-14 38.2656 2.64485)
(-2.50013e-14 38.2656 2.64485)
(2.01585e-14 37.2801 2.62492)
(8.0634e-14 37.2801 2.62492)
(-2.03434e-14 36.3225 2.60534)
(-2.40934e-14 36.3225 2.60534)
(-2.36519e-14 35.3921 2.58609)
(1.87866e-13 35.3921 2.58609)
(-2.07089e-14 34.4882 2.56719)
(0 34.4882 2.56719)
(-2.2793e-14 33.6101 2.54863)
(1.67117e-13 33.6101 2.54863)
(-2.1069e-14 32.757 2.53041)
(0 32.757 2.53041)
(0 31.9283 2.51254)
(8.49881e-14 31.9283 2.51254)
(-1.38974e-16 31.1231 2.495)
(1.92953e-13 31.1231 2.495)
(-2.15993e-14 30.3409 2.4778)
(8.63973e-14 30.3409 2.4778)
(9.93831e-16 29.5808 2.46094)
(8.70944e-14 29.5808 2.46094)
(-4.38933e-14 28.8424 2.44441)
(4.69886e-14 28.8424 2.44441)
(-6.00755e-14 28.1249 2.4282)
(2.16998e-13 28.1249 2.4282)
(0 27.4277 2.41232)
(4.98404e-14 27.4277 2.41232)
(-3.16077e-15 26.7501 2.39675)
(-1.9298e-14 26.7501 2.39675)
(2.26272e-14 26.0916 2.3815)
(0 26.0916 2.3815)
(0 25.4516 2.36655)
(0 25.4516 2.36655)
(1.35521e-14 24.8295 2.35191)
(-3.65128e-14 24.8295 2.35191)
(-2.31259e-14 24.2247 2.33756)
(-1.28348e-13 24.2247 2.33756)
(-9.36639e-14 23.6368 2.3235)
(2.56695e-13 23.6368 2.3235)
(0 23.0651 2.30973)
(9.38129e-14 23.0651 2.30973)
(-2.36154e-14 22.5092 2.29624)
(6.05523e-14 22.5092 2.29624)
(0 21.9686 2.28302)
(6.18183e-14 21.9686 2.28302)
(-5.66146e-14 21.4428 2.27007)
(1.28425e-13 21.4428 2.27007)
(0 20.9313 2.25738)
(9.63841e-14 20.9313 2.25738)
(-2.42544e-14 20.4337 2.24495)
(0 20.4337 2.24495)
(-2.44119e-14 19.9496 2.23277)
(0 19.9496 2.23277)
(-2.45684e-14 19.4785 2.22082)
(0 19.4785 2.22082)
(-5.06732e-15 19.02 2.20912)
(-9.88967e-14 19.02 2.20912)
(5.84911e-14 18.5738 2.19765)
(-5.84911e-14 18.5738 2.19765)
(0 18.1394 2.1864)
(0 18.1394 2.1864)
(5.33699e-14 17.7165 2.17536)
(2.81836e-14 17.7165 2.17536)
(-2.53388e-14 17.3047 2.16454)
(1.01355e-13 17.3047 2.16454)
(-2.54905e-14 16.9037 2.15393)
(1.01962e-13 16.9037 2.15393)
(2.76835e-14 16.5131 2.14351)
(-5.33248e-14 16.5131 2.14351)
(0 16.1327 2.13329)
(1.03166e-13 16.1327 2.13329)
(-2.59409e-14 15.762 2.12326)
(-1.55152e-13 15.762 2.12326)
(2.60896e-14 15.4009 2.1134)
(1.04359e-13 15.4009 2.1134)
(5.09988e-14 15.049 2.10372)
(1.04951e-13 15.049 2.10372)
(2.63849e-14 14.706 2.09421)
(0 14.706 2.09421)
(0 14.3716 2.08486)
(1.06126e-13 14.3716 2.08486)
(-2.66775e-14 14.0457 2.07567)
(0 14.0457 2.07567)
(2.29955e-14 13.7278 2.06662)
(1.07291e-13 13.7278 2.06662)
(-2.69674e-14 13.4179 2.05772)
(-2.25741e-14 13.4179 2.05772)
(0 13.1156 2.04896)
(4.43209e-14 13.1156 2.04896)
(4.35087e-14 12.8207 2.04032)
(1.09019e-13 12.8207 2.04032)
(0 12.533 2.03181)
(1.0959e-13 12.533 2.03181)
(-2.75397e-14 12.2522 2.02342)
(0 12.2522 2.02342)
(-2.76812e-14 11.9782 2.01513)
(0 11.9782 2.01513)
(-6.82283e-14 11.7108 2.00695)
(4.04062e-14 11.7108 2.00695)
(1.62594e-14 11.4497 1.99887)
(7.21846e-14 11.4497 1.99887)
(-8.43072e-14 11.1948 1.99088)
(1.1241e-13 11.1948 1.99088)
(-3.82253e-14 10.9459 1.98297)
(1.12967e-13 10.9459 1.98297)
(9.14454e-15 10.7027 1.97514)
(-3.75249e-14 10.7027 1.97514)
(-6.53557e-14 10.4652 1.96738)
(0 10.4652 1.96738)
(0 10.2331 1.95968)
(0 10.2331 1.95968)
(0 10.0064 1.95203)
(1.15172e-13 10.0064 1.95203)
(-2.89296e-14 9.78474 1.94443)
(-1.15718e-13 9.78474 1.94443)
(0 9.56807 1.93688)
(0 9.56807 1.93688)
(-6.27845e-14 9.35624 1.92935)
(-2.33608e-13 9.35624 1.92935)
(-2.93359e-14 9.14909 1.92185)
(0 9.14909 1.92185)
(0 8.94648 1.91436)
(0 8.94648 1.91436)
(0 8.74827 1.90688)
(5.48748e-14 8.74827 1.90688)
(-5.9475e-14 8.55434 1.8994)
(2.379e-13 8.55434 1.8994)
(0 8.36455 1.89191)
(1.19481e-13 8.36455 1.89191)
(-3.00027e-14 8.17878 1.8844)
(0 8.17878 1.8844)
(0 7.9969 1.87686)
(-1.20538e-13 7.9969 1.87686)
(-3.02658e-14 7.8188 1.86927)
(0 7.8188 1.86927)
(0 7.64435 1.86164)
(1.21586e-13 7.64435 1.86164)
(0 7.47345 1.85395)
(1.22107e-13 7.47345 1.85395)
(3.06565e-14 7.30599 1.84619)
(2.45252e-13 7.30599 1.84619)
(3.07857e-14 7.14185 1.83834)
(1.23143e-13 7.14185 1.83834)
(0 6.98094 1.8304)
(1.23657e-13 6.98094 1.8304)
(8.28874e-14 6.82314 1.82235)
(1.2417e-13 6.82314 1.82235)
(-5.66175e-14 6.66837 1.81418)
(2.74808e-13 6.66837 1.81418)
(-3.12971e-14 6.51652 1.80587)
(-1.25188e-13 6.51652 1.80587)
(0 6.36749 1.79742)
(0 6.36749 1.79742)
(-3.15495e-14 6.2212 1.7888)
(0 6.2212 1.7888)
(-6.33497e-14 6.07754 1.78)
(0 6.07754 1.78)
(-3.17996e-14 5.93643 1.77101)
(1.27198e-13 5.93643 1.77101)
(0 5.79777 1.7618)
(-4.55493e-14 5.79777 1.7618)
(-3.20473e-14 5.66149 1.75236)
(0 5.66149 1.75236)
(-4.38952e-14 5.52749 1.74267)
(-4.38952e-14 5.52749 1.74267)
(3.22926e-14 5.39569 1.7327)
(2.58341e-13 5.39569 1.7327)
(6.48285e-14 5.266 1.72244)
(-1.71958e-13 5.266 1.72244)
(2.35444e-14 5.13834 1.71187)
(4.15261e-14 5.13834 1.71187)
(6.5311e-14 5.01262 1.70095)
(2.61244e-13 5.01262 1.70095)
(3.27751e-14 4.88876 1.68967)
(9.10823e-14 4.88876 1.68967)
(3.2894e-14 4.76668 1.67799)
(1.31576e-13 4.76668 1.67799)
(-3.30121e-14 4.64629 1.66589)
(1.32048e-13 4.64629 1.66589)
(4.7288e-15 4.52752 1.65333)
(-3.78582e-14 4.52752 1.65333)
(0 4.41028 1.64028)
(1.32984e-13 4.41028 1.64028)
(-6.67233e-14 4.29448 1.62671)
(1.33447e-13 4.29448 1.62671)
(-3.34765e-14 4.18004 1.61257)
(0 4.18004 1.61257)
(0 4.06687 1.59783)
(3.03882e-13 4.06687 1.59783)
(0 3.95489 1.58245)
(-3.45143e-14 3.95489 1.58245)
(3.38155e-14 3.844 1.56636)
(-1.35262e-13 3.844 1.56636)
(3.39265e-14 3.73413 1.54953)
(0 3.73413 1.54953)
(-2.76992e-15 3.62516 1.53189)
(0 3.62516 1.53189)
(4.18431e-15 3.51701 1.51339)
(-3.20532e-14 3.51701 1.51339)
(0 3.40957 1.49396)
(1.37012e-13 3.40957 1.49396)
(3.08892e-14 3.30274 1.47353)
(1.37438e-13 3.30274 1.47353)
(3.44648e-14 3.19642 1.45203)
(1.37859e-13 3.19642 1.45203)
(0 3.09048 1.42936)
(-1.38275e-13 3.09048 1.42936)
(-3.46712e-14 2.98481 1.40544)
(0 2.98481 1.40544)
(-6.08565e-15 2.87928 1.38017)
(1.10402e-13 2.87928 1.38017)
(0 2.77376 1.35343)
(1.39487e-13 2.77376 1.35343)
(2.03202e-14 2.66811 1.32511)
(-1.39878e-13 2.66811 1.32511)
(3.50656e-14 2.56218 1.29507)
(2.26249e-13 2.56218 1.29507)
(5.32819e-14 2.4558 1.26318)
(8.73578e-14 2.4558 1.26318)
(-3.52523e-14 2.34881 1.22927)
(0 2.34881 1.22927)
(3.53426e-14 2.24103 1.19317)
(1.4137e-13 2.24103 1.19317)
(1.49754e-14 2.13225 1.15468)
(1.41723e-13 2.13225 1.15468)
(-3.55166e-14 2.02228 1.11361)
(1.42066e-13 2.02228 1.11361)
(0 1.9109 1.06972)
(4.85757e-14 1.9109 1.06972)
(3.56807e-14 1.79787 1.02277)
(0 1.79787 1.02277)
(-7.15172e-14 1.68296 0.972487)
(1.43034e-13 1.68296 0.972487)
(0 1.56591 0.918597)
(0 1.56591 0.918597)
(0 1.44648 0.860794)
(0 1.44648 0.860794)
(3.59737e-14 1.3244 0.798762)
(1.43895e-13 1.3244 0.798762)
(-3.60383e-14 1.19944 0.732177)
(1.87627e-13 1.19944 0.732177)
(-3.60991e-14 1.07136 0.660709)
(-4.2677e-14 1.07136 0.660709)
(0 0.939959 0.584035)
(0 0.939959 0.584035)
(4.11273e-14 0.805075 0.501848)
(-1.85957e-13 0.805075 0.501848)
(4.11913e-15 0.666597 0.413867)
(-4.03736e-14 0.666597 0.413867)
(-7.59301e-14 0.524482 0.319853)
(1.45185e-13 0.524482 0.319853)
(0 0.378761 0.219615)
(1.45329e-13 0.378761 0.219615)
(-3.63624e-14 0.22955 0.113022)
(0 0.22955 0.113022)
(-7.38806e-14 2.72789e-06 1.00966e-06)
(2.91203e-13 1.7474e-06 6.4676e-07)
(0 127.819 -0.236547)
(0 127.819 -0.236547)
(-1.12328e-16 127.819 -0.714055)
(0 127.819 -0.714055)
(-5.81409e-17 127.819 -0.991002)
(0 127.819 -0.991002)
(9.52681e-17 127.819 -1.0095)
(0 127.819 -1.0095)
(-3.25403e-16 127.818 -1.02834)
(0 127.818 -1.02834)
(2.31393e-16 127.818 -1.04753)
(0 127.818 -1.04753)
(0 127.818 -1.06708)
(-4.09625e-16 127.818 -1.06708)
(7.45295e-16 127.817 -1.087)
(0 127.817 -1.087)
(-4.45258e-16 127.817 -1.10728)
(1.78103e-15 127.817 -1.10728)
(5.19224e-16 127.816 -1.12795)
(-2.85193e-15 127.816 -1.12795)
(4.28309e-16 127.815 -1.149)
(-2.37828e-15 127.815 -1.149)
(6.71322e-16 127.814 -1.17044)
(0 127.814 -1.17044)
(-1.63042e-17 127.814 -1.19227)
(-3.73123e-15 127.814 -1.19227)
(1.43953e-15 127.812 -1.21452)
(-3.3166e-15 127.812 -1.21452)
(9.1028e-16 127.811 -1.23718)
(-3.64112e-15 127.811 -1.23718)
(0 127.81 -1.26026)
(0 127.81 -1.26026)
(2.43895e-15 127.808 -1.28377)
(-5.67027e-15 127.808 -1.28377)
(1.16286e-15 127.807 -1.30771)
(4.65146e-15 127.807 -1.30771)
(1.25022e-15 127.805 -1.3321)
(0 127.805 -1.3321)
(2.67841e-15 127.803 -1.35695)
(-2.57667e-15 127.803 -1.35695)
(1.42985e-15 127.8 -1.38225)
(3.18995e-15 127.8 -1.38225)
(4.00529e-15 127.798 -1.40802)
(3.60565e-15 127.798 -1.40802)
(-1.61625e-15 127.795 -1.43427)
(0 127.795 -1.43427)
(3.42412e-15 127.792 -1.461)
(0 127.792 -1.461)
(1.80966e-15 127.788 -1.48823)
(0 127.788 -1.48823)
(0 127.784 -1.51596)
(2.30604e-15 127.784 -1.51596)
(-2.26378e-15 127.779 -1.5442)
(0 127.779 -1.5442)
(4.22702e-15 127.774 -1.57296)
(0 127.774 -1.57296)
(2.21859e-15 127.768 -1.60224)
(8.87436e-15 127.768 -1.60224)
(4.65126e-15 127.762 -1.63206)
(0 127.762 -1.63206)
(6.63937e-15 127.754 -1.66242)
(-4.20471e-15 127.754 -1.66242)
(2.54573e-15 127.745 -1.69332)
(-4.12766e-15 127.745 -1.69332)
(2.65886e-15 127.735 -1.72479)
(-1.06354e-14 127.735 -1.72479)
(0 127.723 -1.75681)
(-1.10964e-14 127.723 -1.75681)
(0 127.71 -1.78941)
(3.90487e-15 127.71 -1.78941)
(3.01104e-15 127.695 -1.82258)
(-1.20442e-14 127.695 -1.82258)
(6.26564e-15 127.677 -1.85632)
(-3.76307e-15 127.677 -1.85632)
(-3.25687e-15 127.657 -1.89065)
(-1.30275e-14 127.657 -1.89065)
(-3.38321e-15 127.633 -1.92556)
(-3.06921e-14 127.633 -1.92556)
(-3.5119e-15 127.606 -1.96106)
(-7.11994e-15 127.606 -1.96106)
(-1.4823e-16 127.575 -1.99715)
(-3.49474e-15 127.575 -1.99715)
(-3.77646e-15 127.539 -2.03381)
(-3.02117e-14 127.539 -2.03381)
(4.457e-15 127.498 -2.07106)
(3.36783e-15 127.498 -2.07106)
(1.06631e-14 127.45 -2.10887)
(-2.28157e-14 127.45 -2.10887)
(8.38376e-15 127.395 -2.14724)
(1.02765e-14 127.395 -2.14724)
(4.33547e-15 127.332 -2.18617)
(-1.73419e-14 127.332 -2.18617)
(-8.96339e-15 127.259 -2.22562)
(-1.79268e-14 127.259 -2.22562)
(9.26116e-15 127.176 -2.26558)
(1.85223e-14 127.176 -2.26558)
(6.02819e-15 127.081 -2.30603)
(0 127.081 -2.30603)
(9.81218e-16 126.972 -2.34693)
(-4.54098e-14 126.972 -2.34693)
(5.09363e-15 126.848 -2.38825)
(-2.03745e-14 126.848 -2.38825)
(5.25356e-15 126.707 -2.42994)
(0 126.707 -2.42994)
(0 126.546 -2.47195)
(-4.33307e-14 126.546 -2.47195)
(5.582e-15 126.363 -2.51424)
(0 126.363 -2.51424)
(1.15011e-14 126.157 -2.55672)
(0 126.157 -2.55672)
(1.05923e-14 125.924 -2.59934)
(-3.42806e-14 125.924 -2.59934)
(1.12956e-14 125.661 -2.64201)
(-1.03982e-14 125.661 -2.64201)
(6.27391e-15 125.366 -2.68464)
(-3.53033e-14 125.366 -2.68464)
(0 125.035 -2.72712)
(-2.58172e-14 125.035 -2.72712)
(9.83703e-15 124.666 -2.76936)
(-3.63877e-14 124.666 -2.76936)
(-2.83274e-15 124.254 -2.81122)
(9.65677e-15 124.254 -2.81122)
(0 123.797 -2.8526)
(-9.47981e-15 123.797 -2.8526)
(1.65117e-14 123.291 -2.89335)
(-9.30609e-15 123.291 -2.89335)
(7.40085e-15 122.732 -2.93333)
(-9.13556e-15 122.732 -2.93333)
(8.96816e-15 122.118 -2.97239)
(-3.9364e-14 122.118 -2.97239)
(0 121.445 -3.01039)
(0 121.445 -3.01039)
(1.66462e-14 120.71 -3.04717)
(-4.06574e-14 120.71 -3.04717)
(0 119.91 -3.08258)
(-3.2841e-14 119.91 -3.08258)
(0 119.044 -3.11646)
(0 119.044 -3.11646)
(-8.63123e-15 118.108 -3.14866)
(6.90498e-14 118.108 -3.14866)
(0 117.103 -3.17904)
(0 117.103 -3.17904)
(9.06214e-15 116.026 -3.20747)
(-3.62486e-14 116.026 -3.20747)
(2.47505e-14 114.877 -3.23383)
(-5.25937e-14 114.877 -3.23383)
(1.5186e-14 113.657 -3.25799)
(-6.08307e-14 113.657 -3.25799)
(-9.72512e-15 112.366 -3.27987)
(-1.49077e-14 112.366 -3.27987)
(0 111.006 -3.29939)
(1.46346e-14 111.006 -3.29939)
(-1.43664e-14 109.578 -3.31649)
(5.50726e-14 109.578 -3.31649)
(3.69847e-15 108.086 -3.33112)
(-1.66475e-13 108.086 -3.33112)
(2.12682e-14 106.534 -3.34326)
(-4.25365e-14 106.534 -3.34326)
(-1.08648e-14 104.923 -3.35291)
(0 104.923 -3.35291)
(2.24552e-15 103.26 -3.36009)
(-5.77276e-14 103.26 -3.36009)
(-2.26578e-14 101.548 -3.36483)
(-4.53157e-14 101.548 -3.36483)
(-1.15621e-14 99.7924 -3.36718)
(-1.18211e-13 99.7924 -3.36718)
(2.35914e-14 97.9987 -3.36721)
(-4.71829e-14 97.9987 -3.36721)
(1.20297e-14 96.1722 -3.365)
(4.81187e-14 96.1722 -3.365)
(0 94.3182 -3.36065)
(4.90551e-14 94.3182 -3.36065)
(5.5724e-16 92.4423 -3.35426)
(-6.1932e-14 92.4423 -3.35426)
(-3.71853e-14 90.5498 -3.34595)
(2.74834e-14 90.5498 -3.34595)
(1.29653e-14 88.6461 -3.33582)
(-2.3014e-14 88.6461 -3.33582)
(9.39384e-15 86.7362 -3.32401)
(0 86.7362 -3.32401)
(0 84.825 -3.31064)
(0 84.825 -3.31064)
(1.36627e-14 82.9172 -3.29584)
(5.46509e-14 82.9172 -3.29584)
(0 81.017 -3.27972)
(-5.55746e-14 81.017 -3.27972)
(0 79.1284 -3.26243)
(-2.09813e-14 79.1284 -3.26243)
(1.43525e-14 77.2551 -3.24407)
(3.68134e-14 77.2551 -3.24407)
(2.02193e-14 75.4005 -3.22476)
(-2.02193e-14 75.4005 -3.22476)
(0 73.5676 -3.20462)
(-1.18455e-13 73.5676 -3.20462)
(0 71.7589 -3.18375)
(0 71.7589 -3.18375)
(1.5256e-14 69.9769 -3.16226)
(-6.10242e-14 69.9769 -3.16226)
(1.54785e-14 68.2236 -3.14023)
(0 68.2236 -3.14023)
(1.56995e-14 66.5007 -3.11777)
(1.25596e-13 66.5007 -3.11777)
(3.40147e-14 64.8098 -3.09495)
(-1.80957e-14 64.8098 -3.09495)
(1.6137e-14 63.1519 -3.07185)
(-6.4548e-14 63.1519 -3.07185)
(-1.08514e-15 61.5281 -3.04853)
(4.79751e-14 61.5281 -3.04853)
(0 59.9391 -3.02508)
(1.7119e-14 59.9391 -3.02508)
(-1.67814e-14 58.3856 -3.00154)
(-6.71254e-14 58.3856 -3.00154)
(0 56.8677 -2.97798)
(-1.64973e-14 56.8677 -2.97798)
(0 55.3858 -2.95443)
(-1.6195e-14 55.3858 -2.95443)
(0 53.9399 -2.93095)
(3.17965e-14 53.9399 -2.93095)
(1.56069e-14 52.5299 -2.90757)
(-8.60777e-14 52.5299 -2.90757)
(-1.53209e-14 51.1556 -2.88434)
(0 51.1556 -2.88434)
(1.50402e-14 49.8167 -2.86127)
(-1.50402e-14 49.8167 -2.86127)
(-1.13014e-14 48.513 -2.83841)
(0 48.513 -2.83841)
(-1.84278e-14 47.2438 -2.81577)
(0 47.2438 -2.81577)
(9.83053e-15 46.0087 -2.79338)
(-2.84568e-14 46.0087 -2.79338)
(-9.11217e-15 44.8072 -2.77126)
(0 44.8072 -2.77126)
(0 43.6386 -2.74942)
(-2.74235e-14 43.6386 -2.74942)
(-3.84246e-14 42.5022 -2.72787)
(-1.53698e-13 42.5022 -2.72787)
(0 41.3975 -2.70663)
(0 41.3975 -2.70663)
(1.95953e-14 40.3236 -2.68571)
(0 40.3236 -2.68571)
(0 39.2799 -2.66512)
(5.36699e-14 39.2799 -2.66512)
(0 38.2656 -2.64485)
(-1.0489e-13 38.2656 -2.64485)
(0 37.2801 -2.62492)
(-8.0634e-14 37.2801 -2.62492)
(-2.03434e-14 36.3225 -2.60534)
(-8.13735e-14 36.3225 -2.60534)
(0 35.3921 -2.58609)
(5.84554e-14 35.3921 -2.58609)
(4.39273e-14 34.4882 -2.56719)
(0 34.4882 -2.56719)
(4.17792e-14 33.6101 -2.54863)
(8.35584e-14 33.6101 -2.54863)
(-2.1069e-14 32.757 -2.53041)
(6.19006e-14 32.757 -2.53041)
(-2.19653e-14 31.9283 -2.51254)
(-2.19653e-14 31.9283 -2.51254)
(2.14238e-14 31.1231 -2.495)
(0 31.1231 -2.495)
(4.31669e-16 30.3409 -2.4778)
(1.07565e-13 30.3409 -2.4778)
(2.17736e-14 29.5808 -2.46094)
(8.70944e-14 29.5808 -2.46094)
(2.19466e-14 28.8424 -2.44441)
(0 28.8424 -2.44441)
(2.00252e-14 28.1249 -2.4282)
(-8.84741e-14 28.1249 -2.4282)
(4.19474e-14 27.4277 -2.41232)
(0 27.4277 -2.41232)
(3.54352e-14 26.7501 -2.39675)
(-3.8596e-14 26.7501 -2.39675)
(0 26.0916 -2.3815)
(0 26.0916 -2.3815)
(4.13917e-14 25.4516 -2.36655)
(-3.71944e-14 25.4516 -2.36655)
(4.59215e-14 24.8295 -2.35191)
(3.65128e-14 24.8295 -2.35191)
(0 24.2247 -2.33756)
(0 24.2247 -2.33756)
(5.8477e-14 23.6368 -2.3235)
(1.86321e-13 23.6368 -2.3235)
(0 23.0651 -2.30973)
(0 23.0651 -2.30973)
(-5.75245e-14 22.5092 -2.29624)
(0 22.5092 -2.29624)
(9.51126e-15 21.9686 -2.28302)
(-3.32878e-14 21.9686 -2.28302)
(0 21.4428 -2.27007)
(3.26778e-14 21.4428 -2.27007)
(2.4096e-14 20.9313 -2.25738)
(0 20.9313 -2.25738)
(0 20.4337 -2.24495)
(3.14912e-14 20.4337 -2.24495)
(4.88237e-14 19.9496 -2.23277)
(-9.76474e-14 19.9496 -2.23277)
(4.91369e-14 19.4785 -2.22082)
(-9.82738e-14 19.4785 -2.22082)
(5.06732e-15 19.02 -2.20912)
(-2.9669e-13 19.02 -2.20912)
(-2.4879e-14 18.5738 -2.19765)
(0 18.5738 -2.19765)
(0 18.1394 -2.1864)
(4.27131e-14 18.1394 -2.1864)
(-2.81836e-14 17.7165 -2.17536)
(-2.81836e-14 17.7165 -2.17536)
(2.53388e-14 17.3047 -2.16454)
(0 17.3047 -2.16454)
(-2.54905e-14 16.9037 -2.15393)
(-1.01962e-13 16.9037 -2.15393)
(0 16.5131 -2.14351)
(0 16.5131 -2.14351)
(5.19654e-14 16.1327 -2.13329)
(1.03166e-13 16.1327 -2.13329)
(5.18819e-14 15.762 -2.12326)
(-1.03764e-13 15.762 -2.12326)
(0 15.4009 -2.1134)
(-1.29582e-13 15.4009 -2.1134)
(2.62376e-14 15.049 -2.10372)
(-2.47612e-14 15.049 -2.10372)
(0 14.706 -2.09421)
(-1.29847e-13 14.706 -2.09421)
(0 14.3716 -2.08486)
(-2.36114e-13 14.3716 -2.08486)
(-2.34247e-14 14.0457 -2.07567)
(0 14.0457 -2.07567)
(5.36455e-14 13.7278 -2.06662)
(1.07291e-13 13.7278 -2.06662)
(2.69674e-14 13.4179 -2.05772)
(-2.25741e-14 13.4179 -2.05772)
(0 13.1156 -2.04896)
(1.08446e-13 13.1156 -2.04896)
(2.72548e-14 12.8207 -2.04032)
(-1.09019e-13 12.8207 -2.04032)
(0 12.533 -2.03181)
(-1.0959e-13 12.533 -2.03181)
(0 12.2522 -2.02342)
(4.19287e-14 12.2522 -2.02342)
(2.76812e-14 11.9782 -2.01513)
(-1.10725e-13 11.9782 -2.01513)
(5.56444e-14 11.7108 -2.00695)
(-1.11289e-13 11.7108 -2.00695)
(6.76283e-14 11.4497 -1.99887)
(7.21846e-14 11.4497 -1.99887)
(1.72659e-14 11.1948 -1.99088)
(7.34707e-14 11.1948 -1.99088)
(2.82416e-14 10.9459 -1.98297)
(0 10.9459 -1.98297)
(9.14454e-15 10.7027 -1.97514)
(-3.75249e-14 10.7027 -1.97514)
(2.85184e-14 10.4652 -1.96738)
(-1.14074e-13 10.4652 -1.96738)
(2.8656e-14 10.2331 -1.95968)
(7.84619e-14 10.2331 -1.95968)
(5.75861e-14 10.0064 -1.95203)
(0 10.0064 -1.95203)
(0 9.78474 -1.94443)
(1.15718e-13 9.78474 -1.94443)
(-2.90655e-14 9.56807 -1.93688)
(-1.16262e-13 9.56807 -1.93688)
(5.8402e-14 9.35624 -1.92935)
(-1.50387e-13 9.35624 -1.92935)
(-2.93359e-14 9.14909 -1.92185)
(-2.34687e-13 9.14909 -1.92185)
(2.94703e-14 8.94648 -1.91436)
(-1.50245e-13 8.94648 -1.91436)
(-3.17709e-14 8.74827 -1.90688)
(5.48748e-14 8.74827 -1.90688)
(2.82863e-14 8.55434 -1.8994)
(1.1895e-13 8.55434 -1.8994)
(6.04876e-14 8.36455 -1.89191)
(-1.50099e-13 8.36455 -1.89191)
(-3.01096e-14 8.17878 -1.8844)
(0 8.17878 -1.8844)
(2.95054e-14 7.9969 -1.87686)
(-1.50043e-13 7.9969 -1.87686)
(2.89647e-14 7.8188 -1.86927)
(-1.50028e-13 7.8188 -1.86927)
(0 7.64435 -1.86164)
(-1.5002e-13 7.64435 -1.86164)
(0 7.47345 -1.85395)
(0 7.47345 -1.85395)
(3.06565e-14 7.30599 -1.84619)
(0 7.30599 -1.84619)
(3.07857e-14 7.14185 -1.83834)
(1.23143e-13 7.14185 -1.83834)
(3.09144e-14 6.98094 -1.8304)
(0 6.98094 -1.8304)
(0 6.82314 -1.82235)
(1.2417e-13 6.82314 -1.82235)
(0 6.66837 -1.81418)
(-5.08949e-14 6.66837 -1.81418)
(0 6.51652 -1.80587)
(-1.25188e-13 6.51652 -1.80587)
(-4.90467e-14 6.36749 -1.79742)
(0 6.36749 -1.79742)
(-3.15495e-14 6.2212 -1.7888)
(-4.8148e-14 6.2212 -1.7888)
(-3.16748e-14 6.07754 -1.78)
(-1.26699e-13 6.07754 -1.78)
(-3.17996e-14 5.93643 -1.77101)
(-1.27198e-13 5.93643 -1.77101)
(0 5.79777 -1.7618)
(0 5.79777 -1.7618)
(0 5.66149 -1.75236)
(-2.56379e-13 5.66149 -1.75236)
(0 5.52749 -1.74267)
(-1.28681e-13 5.52749 -1.74267)
(0 5.39569 -1.7327)
(0 5.39569 -1.7327)
(0 5.266 -1.72244)
(-1.71958e-13 5.266 -1.72244)
(8.99086e-15 5.13834 -1.71187)
(-4.15261e-14 5.13834 -1.71187)
(6.5311e-14 5.01262 -1.70095)
(8.98569e-14 5.01262 -1.70095)
(6.55502e-14 4.88876 -1.68967)
(0 4.88876 -1.68967)
(1.05073e-13 4.76668 -1.67799)
(-1.70861e-13 4.76668 -1.67799)
(7.1577e-14 4.64629 -1.66589)
(0 4.64629 -1.66589)
(4.7288e-15 4.52752 -1.65333)
(-3.78582e-14 4.52752 -1.65333)
(0 4.41028 -1.64028)
(1.70148e-13 4.41028 -1.64028)
(-3.33617e-14 4.29448 -1.62671)
(1.33447e-13 4.29448 -1.62671)
(0 4.18004 -1.61257)
(-1.69721e-13 4.18004 -1.61257)
(0 4.06687 -1.59783)
(-1.6952e-13 4.06687 -1.59783)
(-6.82178e-14 3.95489 -1.58245)
(-1.34814e-13 3.95489 -1.58245)
(6.7631e-14 3.844 -1.56636)
(-1.35262e-13 3.844 -1.56636)
(3.39265e-14 3.73413 -1.54953)
(0 3.73413 -1.54953)
(-3.26515e-14 3.62516 -1.53189)
(7.08429e-14 3.62516 -1.53189)
(0 3.51701 -1.51339)
(0 3.51701 -1.51339)
(3.14658e-14 3.40957 -1.49396)
(-1.68478e-13 3.40957 -1.49396)
(0 3.30274 -1.47353)
(0 3.30274 -1.47353)
(4.1416e-15 3.19642 -1.45203)
(7.72127e-14 3.19642 -1.45203)
(3.45687e-14 3.09048 -1.42936)
(-2.76549e-13 3.09048 -1.42936)
(0 2.98481 -1.40544)
(0 2.98481 -1.40544)
(6.08565e-15 2.87928 -1.38017)
(0 2.87928 -1.38017)
(3.48717e-14 2.77376 -1.35343)
(-1.39487e-13 2.77376 -1.35343)
(-9.02592e-14 2.66811 -1.32511)
(8.45884e-14 2.66811 -1.32511)
(1.58548e-14 2.56218 -1.29507)
(1.40263e-13 2.56218 -1.29507)
(1.7038e-14 2.4558 -1.26318)
(0 2.4558 -1.26318)
(-1.70532e-14 2.34881 -1.22927)
(0 2.34881 -1.22927)
(3.53426e-14 2.24103 -1.19317)
(-5.13471e-14 2.24103 -1.19317)
(-1.49754e-14 2.13225 -1.15468)
(-1.41723e-13 2.13225 -1.15468)
(3.55166e-14 2.02228 -1.11361)
(1.42066e-13 2.02228 -1.11361)
(0 1.9109 -1.06972)
(-1.424e-13 1.9109 -1.06972)
(3.56807e-14 1.79787 -1.02277)
(-1.42723e-13 1.79787 -1.02277)
(8.25704e-14 1.68296 -0.972487)
(0 1.68296 -0.972487)
(4.59539e-14 1.56591 -0.918597)
(1.43334e-13 1.56591 -0.918597)
(0 1.44648 -0.860794)
(-2.87243e-13 1.44648 -0.860794)
(0 1.3244 -0.798762)
(-1.43895e-13 1.3244 -0.798762)
(3.60383e-14 1.19944 -0.732177)
(-1.44153e-13 1.19944 -0.732177)
(3.60991e-14 1.07136 -0.660709)
(1.44396e-13 1.07136 -0.660709)
(3.61555e-14 0.939959 -0.584035)
(-2.89244e-13 0.939959 -0.584035)
(7.24149e-14 0.805075 -0.501848)
(-1.4483e-13 0.805075 -0.501848)
(0 0.666597 -0.413867)
(0 0.666597 -0.413867)
(-7.59301e-14 0.524482 -0.319853)
(1.45185e-13 0.524482 -0.319853)
(0 0.378761 -0.219615)
(-1.45329e-13 0.378761 -0.219615)
(-3.63624e-14 0.22955 -0.113022)
(1.07255e-13 0.22955 -0.113022)
(7.38806e-14 2.81903e-06 -1.0434e-06)
(1.45775e-13 9.24877e-07 -3.42322e-07)
(3.64437e-14 -2.7306e-06 1.01067e-06)
(1.45544e-13 -1.74509e-06 6.45906e-07)
(-3.81946e-14 -0.229549 0.113021)
(2.52705e-13 -0.229549 0.113021)
(2.57515e-15 -0.37876 0.219614)
(-3.89075e-14 -0.37876 0.219614)
(0 -0.524481 0.319852)
(1.45185e-13 -0.524481 0.319852)
(0 -0.666597 0.413867)
(2.90036e-13 -0.666597 0.413867)
(-3.62075e-14 -0.805074 0.501847)
(-1.4483e-13 -0.805074 0.501847)
(0 -0.939958 0.584034)
(4.1895e-14 -0.939958 0.584034)
(-3.60991e-14 -1.07136 0.660708)
(-1.44396e-13 -1.07136 0.660708)
(0 -1.19944 0.732176)
(0 -1.19944 0.732176)
(3.59737e-14 -1.3244 0.798762)
(4.42852e-14 -1.3244 0.798762)
(0 -1.44648 0.860794)
(1.43621e-13 -1.44648 0.860794)
(0 -1.56591 0.918596)
(1.43334e-13 -1.56591 0.918596)
(0 -1.68296 0.972487)
(0 -1.68296 0.972487)
(1.20049e-14 -1.79787 1.02277)
(-1.90408e-13 -1.79787 1.02277)
(7.11998e-14 -1.9109 1.06972)
(-4.85757e-14 -1.9109 1.06972)
(-4.94825e-14 -2.02228 1.11361)
(0 -2.02228 1.11361)
(1.21268e-13 -2.13225 1.15468)
(9.13168e-14 -2.13225 1.15468)
(1.60045e-14 -2.24103 1.19317)
(-1.92717e-13 -2.24103 1.19317)