/*--------------------------------*- C++ -*----------------------------------*\
| =========                 |                                                 |
| \\      /  F ield         | OpenFOAM: The Open Source CFD Toolbox           |
|  \\    /   O peration     | Version:  2106                                  |
|   \\  /    A nd           | Website:  www.openfoam.com                      |
|    \\/     M anipulation  |                                                 |
\*---------------------------------------------------------------------------*/
FoamFile
{
    version     2.0;
    format      ascii;
    arch        "LSB;label=32;scalar=64";
    class       volScalarField;
    location    "10010";
    object      p;
}
// * * * * * * * * * * * * * * * * * * * * * * * * * * * * * * * * * * * * * //

dimensions      [0 2 -2 0 0 0 0];

internalField   nonuniform List<scalar> 
2000
(
6.23717e-15
4.05249e-14
1.41744e-14
4.05267e-14
1.61628e-14
4.05295e-14
1.64553e-14
4.05342e-14
1.68584e-14
4.05408e-14
1.74379e-14
4.05495e-14
1.80399e-14
4.05601e-14
1.86214e-14
4.05728e-14
1.91853e-14
4.05874e-14
1.97348e-14
4.06039e-14
2.02702e-14
4.06223e-14
2.07917e-14
4.06426e-14
2.12998e-14
4.06647e-14
2.17949e-14
4.06887e-14
2.2277e-14
4.07145e-14
2.27464e-14
4.0742e-14
2.32037e-14
4.07711e-14
2.3649e-14
4.08019e-14
2.40824e-14
4.08343e-14
2.45041e-14
4.08681e-14
2.49143e-14
4.09036e-14
2.53131e-14
4.09407e-14
2.57007e-14
4.09793e-14
2.60776e-14
4.10193e-14
2.64437e-14
4.10609e-14
2.67992e-14
4.11038e-14
2.71443e-14
4.11482e-14
2.74793e-14
4.11939e-14
2.78044e-14
4.1241e-14
2.81196e-14
4.12894e-14
2.84248e-14
4.13391e-14
2.87209e-14
4.13898e-14
2.90078e-14
4.14419e-14
2.92856e-14
4.14949e-14
2.95545e-14
4.15491e-14
2.98148e-14
4.16041e-14
3.0067e-14
4.166e-14
3.03107e-14
4.17169e-14
3.05464e-14
4.17747e-14
3.07742e-14
4.18333e-14
3.09939e-14
4.18928e-14
3.12056e-14
4.19533e-14
3.141e-14
4.20144e-14
3.16076e-14
4.2076e-14
3.17974e-14
4.21382e-14
3.19799e-14
4.2201e-14
3.21554e-14
4.22644e-14
3.23244e-14
4.23283e-14
3.2487e-14
4.23934e-14
3.26434e-14
4.24593e-14
3.27935e-14
4.25253e-14
3.29377e-14
4.25914e-14
3.30753e-14
4.2658e-14
3.32077e-14
4.27245e-14
3.33348e-14
4.27911e-14
3.34563e-14
4.28575e-14
3.35725e-14
4.29243e-14
3.36841e-14
4.29915e-14
3.37909e-14
4.30588e-14
3.3893e-14
4.31259e-14
3.39908e-14
4.31926e-14
3.4084e-14
4.32585e-14
3.41731e-14
4.33249e-14
3.42584e-14
4.33918e-14
3.43405e-14
4.34579e-14
3.44188e-14
4.35243e-14
3.44935e-14
4.35902e-14
3.45645e-14
4.36555e-14
3.46326e-14
4.37206e-14
3.46985e-14
4.37853e-14
3.47613e-14
4.38499e-14
3.48211e-14
4.39141e-14
3.48788e-14
4.3978e-14
3.49337e-14
4.40407e-14
3.49878e-14
4.4101e-14
3.50397e-14
4.41612e-14
3.50892e-14
4.42218e-14
3.51382e-14
4.42814e-14
3.51829e-14
4.43413e-14
3.52266e-14
4.43999e-14
3.52711e-14
4.44566e-14
3.53135e-14
4.45138e-14
3.53537e-14
4.45711e-14
3.53927e-14
4.4626e-14
3.54303e-14
4.46802e-14
3.54669e-14
4.47346e-14
3.55041e-14
4.47882e-14
3.55423e-14
4.48398e-14
3.55794e-14
4.48918e-14
3.56163e-14
4.49431e-14
3.56534e-14
4.49933e-14
3.56898e-14
4.50433e-14
3.57272e-14
4.50921e-14
3.57619e-14
4.51378e-14
3.57983e-14
4.51829e-14
3.58382e-14
4.52268e-14
3.58784e-14
4.52698e-14
3.59195e-14
4.53115e-14
3.59589e-14
4.53522e-14
3.6004e-14
4.53871e-14
3.60474e-14
4.54193e-14
3.60931e-14
4.54506e-14
3.61406e-14
4.54782e-14
3.61882e-14
4.55009e-14
3.62369e-14
4.55233e-14
3.62894e-14
4.55459e-14
3.63422e-14
4.55673e-14
3.64025e-14
4.55878e-14
3.6464e-14
4.56046e-14
3.65371e-14
4.56211e-14
3.66042e-14
4.5636e-14
3.66759e-14
4.56543e-14
3.67518e-14
4.56731e-14
3.6838e-14
4.56864e-14
3.69276e-14
4.56976e-14
3.70186e-14
4.57053e-14
3.71138e-14
4.57146e-14
3.72128e-14
4.57226e-14
3.73118e-14
4.5726e-14
3.74206e-14
4.57252e-14
3.75286e-14
4.57287e-14
3.76404e-14
4.57353e-14
3.7759e-14
4.57383e-14
3.78859e-14
4.57412e-14
3.80173e-14
4.57443e-14
3.8149e-14
4.57514e-14
3.82915e-14
4.57556e-14
3.84336e-14
4.57569e-14
3.85749e-14
4.57592e-14
3.87296e-14
4.57551e-14
3.88938e-14
4.57559e-14
3.906e-14
4.57579e-14
3.9224e-14
4.57535e-14
3.9393e-14
4.57466e-14
3.95593e-14
4.57522e-14
3.97301e-14
4.57552e-14
3.99052e-14
4.57555e-14
4.00768e-14
4.57607e-14
4.02561e-14
4.57707e-14
4.04314e-14
4.57738e-14
4.06024e-14
4.57696e-14
4.0773e-14
4.57777e-14
4.09509e-14
4.57981e-14
4.11239e-14
4.58187e-14
4.13e-14
4.58392e-14
4.1471e-14
4.58636e-14
4.16406e-14
4.58958e-14
4.1813e-14
4.59315e-14
4.19839e-14
4.59666e-14
4.21613e-14
4.60049e-14
4.23163e-14
4.60421e-14
4.24652e-14
4.60781e-14
4.26076e-14
4.61213e-14
4.27765e-14
4.61465e-14
4.29303e-14
4.61868e-14
4.3094e-14
4.62253e-14
4.32423e-14
4.62701e-14
4.3392e-14
4.63127e-14
4.35345e-14
4.63444e-14
4.3678e-14
4.63818e-14
4.38396e-14
4.64161e-14
4.39938e-14
4.64552e-14
4.41409e-14
4.64902e-14
4.4281e-14
4.65292e-14
4.44314e-14
4.65805e-14
4.45751e-14
4.66179e-14
4.47124e-14
4.66405e-14
4.48612e-14
4.66819e-14
4.50046e-14
4.67414e-14
4.51516e-14
4.67925e-14
4.5294e-14
4.68344e-14
4.54325e-14
4.68663e-14
4.5559e-14
4.68959e-14
4.57178e-14
4.69568e-14
4.58577e-14
4.70305e-14
4.6014e-14
4.709e-14
4.61444e-14
4.71515e-14
4.62844e-14
4.72141e-14
4.6435e-14
4.73028e-14
4.65883e-14
4.73992e-14
4.67627e-14
4.74761e-14
4.69078e-14
4.75049e-14
4.70081e-14
4.75705e-14
4.7133e-14
4.76373e-14
4.72655e-14
4.76526e-14
4.73905e-14
4.77349e-14
4.75093e-14
4.78652e-14
4.76377e-14
4.79568e-14
4.77589e-14
4.8009e-14
4.78743e-14
4.80366e-14
4.80035e-14
4.8071e-14
4.80972e-14
4.81606e-14
4.81899e-14
4.82695e-14
4.82805e-14
4.83637e-14
4.83682e-14
4.84429e-14
4.84867e-14
4.85408e-14
4.85851e-14
4.86726e-14
4.86618e-14
4.87711e-14
4.8749e-14
4.88881e-14
4.88455e-14
4.89739e-14
4.8934e-14
4.90284e-14
4.89987e-14
4.91347e-14
4.90878e-14
4.92104e-14
4.91851e-14
4.92539e-14
4.92419e-14
4.92782e-14
4.92924e-14
4.93981e-14
4.93654e-14
4.94166e-14
4.94474e-14
4.94459e-14
4.9507e-14
4.95647e-14
4.95893e-14
4.9662e-14
4.96601e-14
4.97058e-14
4.97045e-14
4.97592e-14
4.97191e-14
4.98233e-14
4.98616e-14
4.99024e-14
4.99413e-14
5.00238e-14
5.00176e-14
5.01571e-14
5.01795e-14
5.03077e-14
5.02671e-14
5.04133e-14
5.03431e-14
5.05075e-14
5.04657e-14
5.05609e-14
5.06358e-14
5.06593e-14
5.07077e-14
5.07306e-14
5.08047e-14
5.08317e-14
5.09235e-14
5.09934e-14
5.10883e-14
5.11312e-14
5.12128e-14
5.11812e-14
5.1275e-14
5.12554e-14
5.13308e-14
5.13529e-14
5.14039e-14
5.14466e-14
5.15455e-14
5.15127e-14
5.16512e-14
5.16314e-14
5.17792e-14
5.17449e-14
5.18158e-14
5.18499e-14
5.18378e-14
5.19574e-14
5.19689e-14
5.20805e-14
5.1962e-14
5.22513e-14
5.19801e-14
5.2362e-14
5.2086e-14
5.24309e-14
5.21285e-14
5.24895e-14
5.21561e-14
5.25483e-14
5.22327e-14
5.25339e-14
5.23478e-14
5.24555e-14
5.25181e-14
5.25134e-14
5.2566e-14
5.26023e-14
5.26421e-14
5.26301e-14
5.26808e-14
5.26661e-14
5.26583e-14
5.27403e-14
5.27452e-14
5.28207e-14
5.28442e-14
5.2851e-14
5.28772e-14
5.29175e-14
3.90367e-14
4.07146e-14
3.90377e-14
4.07148e-14
3.90391e-14
4.07151e-14
3.90416e-14
4.07156e-14
3.9045e-14
4.07164e-14
3.90496e-14
4.07174e-14
3.90551e-14
4.07186e-14
3.90617e-14
4.07201e-14
3.90693e-14
4.07219e-14
3.90779e-14
4.0724e-14
3.90875e-14
4.07263e-14
3.90982e-14
4.07289e-14
3.91099e-14
4.07317e-14
3.91225e-14
4.07348e-14
3.91363e-14
4.07381e-14
3.9151e-14
4.07416e-14
3.91665e-14
4.07454e-14
3.91831e-14
4.07494e-14
3.92005e-14
4.07537e-14
3.92188e-14
4.07583e-14
3.92381e-14
4.07631e-14
3.92583e-14
4.07683e-14
3.92794e-14
4.07737e-14
3.93012e-14
4.07794e-14
3.93238e-14
4.07854e-14
3.93473e-14
4.07917e-14
3.93717e-14
4.07984e-14
3.93967e-14
4.08052e-14
3.94226e-14
4.08124e-14
3.94492e-14
4.082e-14
3.94766e-14
4.08281e-14
3.95048e-14
4.08367e-14
3.95338e-14
4.08455e-14
3.95635e-14
4.08547e-14
3.95939e-14
4.08641e-14
3.9625e-14
4.08739e-14
3.96568e-14
4.08843e-14
3.9689e-14
4.08952e-14
3.97219e-14
4.09066e-14
3.97556e-14
4.0918e-14
3.979e-14
4.09298e-14
3.9825e-14
4.09422e-14
3.98608e-14
4.09549e-14
3.98969e-14
4.09683e-14
3.99337e-14
4.09817e-14
3.99713e-14
4.09959e-14
4.00101e-14
4.10102e-14
4.00491e-14
4.10248e-14
4.00883e-14
4.10408e-14
4.01282e-14
4.10577e-14
4.01687e-14
4.10741e-14
4.02099e-14
4.10909e-14
4.02516e-14
4.11087e-14
4.02937e-14
4.11267e-14
4.0336e-14
4.11454e-14
4.03788e-14
4.11653e-14
4.04221e-14
4.11856e-14
4.04653e-14
4.12067e-14
4.05093e-14
4.12281e-14
4.05535e-14
4.12503e-14
4.05981e-14
4.1273e-14
4.06436e-14
4.12963e-14
4.06892e-14
4.13206e-14
4.0736e-14
4.13456e-14
4.07832e-14
4.13708e-14
4.08307e-14
4.13967e-14
4.08788e-14
4.14228e-14
4.09275e-14
4.14495e-14
4.09765e-14
4.14761e-14
4.10264e-14
4.15036e-14
4.10757e-14
4.15329e-14
4.11263e-14
4.15631e-14
4.11762e-14
4.15945e-14
4.12252e-14
4.16269e-14
4.12768e-14
4.16592e-14
4.13266e-14
4.1693e-14
4.13768e-14
4.17297e-14
4.14272e-14
4.17683e-14
4.14797e-14
4.1805e-14
4.15316e-14
4.18425e-14
4.15837e-14
4.18826e-14
4.16367e-14
4.19249e-14
4.169e-14
4.19672e-14
4.17431e-14
4.20085e-14
4.17974e-14
4.20504e-14
4.18537e-14
4.20958e-14
4.19108e-14
4.21439e-14
4.19661e-14
4.21928e-14
4.20206e-14
4.22438e-14
4.20748e-14
4.2297e-14
4.2131e-14
4.2351e-14
4.21851e-14
4.24078e-14
4.22387e-14
4.24682e-14
4.22958e-14
4.25296e-14
4.23526e-14
4.25918e-14
4.24091e-14
4.26584e-14
4.24654e-14
4.2726e-14
4.25215e-14
4.27939e-14
4.25784e-14
4.28621e-14
4.26361e-14
4.29314e-14
4.26917e-14
4.30031e-14
4.27512e-14
4.30789e-14
4.28104e-14
4.31573e-14
4.28707e-14
4.32311e-14
4.29249e-14
4.3309e-14
4.29864e-14
4.33868e-14
4.30478e-14
4.34644e-14
4.31063e-14
4.35433e-14
4.31633e-14
4.36253e-14
4.32236e-14
4.37073e-14
4.32921e-14
4.37877e-14
4.33562e-14
4.38682e-14
4.34256e-14
4.39487e-14
4.34908e-14
4.40327e-14
4.356e-14
4.41169e-14
4.36317e-14
4.41998e-14
4.36976e-14
4.42881e-14
4.37645e-14
4.43752e-14
4.38358e-14
4.44578e-14
4.39066e-14
4.45411e-14
4.39805e-14
4.46287e-14
4.40522e-14
4.47207e-14
4.41254e-14
4.48086e-14
4.41984e-14
4.48871e-14
4.42712e-14
4.49669e-14
4.43404e-14
4.50446e-14
4.44169e-14
4.51202e-14
4.44971e-14
4.52048e-14
4.45739e-14
4.52876e-14
4.46473e-14
4.53615e-14
4.47248e-14
4.543e-14
4.48028e-14
4.55084e-14
4.48814e-14
4.55894e-14
4.49605e-14
4.56655e-14
4.50442e-14
4.5737e-14
4.51287e-14
4.58039e-14
4.52142e-14
4.58741e-14
4.5293e-14
4.59476e-14
4.53574e-14
4.60171e-14
4.54346e-14
4.60787e-14
4.5513e-14
4.61404e-14
4.55968e-14
4.62184e-14
4.5682e-14
4.6293e-14
4.57488e-14
4.63564e-14
4.58131e-14
4.64168e-14
4.5879e-14
4.64785e-14
4.59382e-14
4.65458e-14
4.60112e-14
4.66149e-14
4.60775e-14
4.66904e-14
4.61369e-14
4.6756e-14
4.62183e-14
4.67914e-14
4.62932e-14
4.68253e-14
4.63617e-14
4.68909e-14
4.64239e-14
4.6947e-14
4.64882e-14
4.69937e-14
4.65547e-14
4.70312e-14
4.66151e-14
4.70678e-14
4.66865e-14
4.7129e-14
4.67607e-14
4.7181e-14
4.68463e-14
4.72156e-14
4.69185e-14
4.72666e-14
4.69858e-14
4.7317e-14
4.70485e-14
4.73412e-14
4.70982e-14
4.73648e-14
4.7161e-14
4.74134e-14
4.72112e-14
4.747e-14
4.72658e-14
4.75438e-14
4.73246e-14
4.7601e-14
4.73786e-14
4.7642e-14
4.74368e-14
4.77015e-14
4.749e-14
4.77365e-14
4.75559e-14
4.77644e-14
4.76262e-14
4.78198e-14
4.7675e-14
4.78944e-14
4.77188e-14
4.79716e-14
4.77831e-14
4.80351e-14
4.7841e-14
4.81027e-14
4.78924e-14
4.81752e-14
4.79536e-14
4.82535e-14
4.80153e-14
4.83734e-14
4.80842e-14
4.84844e-14
4.81762e-14
4.85448e-14
4.82915e-14
4.85724e-14
4.84151e-14
4.85831e-14
4.84975e-14
4.86439e-14
4.85391e-14
4.87554e-14
4.8677e-14
4.88507e-14
4.87734e-14
4.89288e-14
4.88638e-14
4.90071e-14
4.89484e-14
4.9069e-14
4.90279e-14
4.9115e-14
4.91031e-14
4.92318e-14
4.91901e-14
4.93005e-14
4.92727e-14
4.93899e-14
4.93682e-14
4.94664e-14
4.94436e-14
4.95817e-14
4.95313e-14
4.96698e-14
4.96147e-14
4.97651e-14
4.96596e-14
4.98348e-14
4.97331e-14
4.98801e-14
4.98022e-14
4.99341e-14
4.98507e-14
4.99801e-14
4.98959e-14
5.00855e-14
4.9985e-14
5.01532e-14
5.00518e-14
5.01844e-14
5.00989e-14
5.02626e-14
5.01254e-14
5.03225e-14
5.02119e-14
5.03518e-14
5.0279e-14
5.03823e-14
5.03298e-14
5.04598e-14
5.03788e-14
5.05042e-14
5.04756e-14
5.05169e-14
5.04972e-14
5.05251e-14
5.06088e-14
5.05921e-14
5.07157e-14
5.07147e-14
5.0819e-14
5.07983e-14
5.09546e-14
5.08728e-14
5.1e-14
5.09631e-14
5.11106e-14
5.10412e-14
5.12915e-14
5.11359e-14
5.13346e-14
5.12734e-14
5.14158e-14
5.14331e-14
5.15292e-14
5.15037e-14
5.16502e-14
5.15743e-14
5.17245e-14
5.16976e-14
5.18356e-14
5.17565e-14
5.19295e-14
5.18385e-14
5.19815e-14
5.19434e-14
5.2107e-14
5.19594e-14
5.21461e-14
5.19889e-14
5.22151e-14
5.20876e-14
5.23099e-14
5.21992e-14
5.23406e-14
5.22684e-14
5.24199e-14
5.2357e-14
5.24092e-14
5.24084e-14
5.24616e-14
5.25134e-14
5.24896e-14
5.26191e-14
5.24267e-14
5.26001e-14
5.24747e-14
5.25988e-14
5.25861e-14
5.26574e-14
5.26147e-14
5.26847e-14
5.26397e-14
5.2659e-14
5.26634e-14
5.27119e-14
5.27186e-14
5.27421e-14
5.27585e-14
5.27661e-14
5.27833e-14
5.27544e-14
5.28793e-14
5.28512e-14
5.29044e-14
5.29542e-14
5.2937e-14
5.29825e-14
5.29697e-14
5.30401e-14
5.29382e-14
5.29781e-14
5.31216e-14
5.30873e-14
5.31548e-14
5.31296e-14
5.31348e-14
5.31063e-14
5.31612e-14
5.31248e-14
5.32447e-14
5.31827e-14
5.32599e-14
5.32989e-14
5.33385e-14
5.33648e-14
5.33845e-14
5.34334e-14
5.33923e-14
5.35105e-14
5.34811e-14
5.35259e-14
5.35355e-14
5.35739e-14
5.36589e-14
5.36777e-14
5.37545e-14
5.37789e-14
5.37948e-14
5.38012e-14
5.38092e-14
5.3796e-14
5.38571e-14
5.38155e-14
5.38865e-14
5.38848e-14
5.38909e-14
5.38709e-14
5.39001e-14
5.38904e-14
5.39166e-14
5.39187e-14
5.39391e-14
5.39542e-14
5.39629e-14
5.39667e-14
5.39907e-14
5.40398e-14
5.40493e-14
5.40589e-14
5.40811e-14
5.40789e-14
5.40862e-14
5.41301e-14
5.40578e-14
5.41564e-14
5.40509e-14
5.41325e-14
5.40976e-14
5.4117e-14
5.41436e-14
5.41646e-14
5.41864e-14
5.42136e-14
5.41953e-14
5.42982e-14
5.41637e-14
5.4334e-14
5.41778e-14
5.43578e-14
5.4239e-14
5.43686e-14
5.42577e-14
5.44252e-14
5.42945e-14
5.44e-14
5.43235e-14
5.44494e-14
5.43433e-14
5.45089e-14
5.43517e-14
5.44818e-14
5.43673e-14
5.44806e-14
5.4392e-14
5.45369e-14
5.44071e-14
5.45354e-14
5.44134e-14
5.45731e-14
5.44595e-14
5.45691e-14
5.44988e-14
5.45865e-14
5.45e-14
5.46045e-14
5.45121e-14
5.4607e-14
5.45359e-14
5.46272e-14
5.45368e-14
5.46469e-14
5.45309e-14
5.46847e-14
5.45172e-14
5.46912e-14
5.45463e-14
5.46506e-14
5.45538e-14
5.46116e-14
5.45756e-14
5.46226e-14
5.45953e-14
5.47009e-14
5.45772e-14
5.47288e-14
5.45707e-14
5.47086e-14
5.4559e-14
5.46402e-14
5.45613e-14
5.46252e-14
5.45608e-14
5.4646e-14
5.45573e-14
5.46515e-14
5.45685e-14
5.46421e-14
5.45776e-14
5.4617e-14
5.4551e-14
5.46272e-14
5.454e-14
5.46386e-14
5.4544e-14
5.46513e-14
5.45632e-14
5.4648e-14
5.4581e-14
5.4628e-14
5.45458e-14
5.46075e-14
5.45181e-14
5.46135e-14
5.45406e-14
5.46379e-14
5.45435e-14
5.46549e-14
5.45355e-14
5.4647e-14
5.45341e-14
5.46491e-14
5.45393e-14
5.46701e-14
5.45423e-14
5.46666e-14
5.45434e-14
5.46301e-14
5.45432e-14
5.46295e-14
5.45417e-14
5.46384e-14
5.45649e-14
5.4648e-14
5.45697e-14
5.46409e-14
5.45736e-14
5.46257e-14
5.45769e-14
5.46197e-14
5.45885e-14
5.46228e-14
5.45998e-14
5.4626e-14
5.46109e-14
5.46294e-14
5.46048e-14
5.46326e-14
5.46158e-14
5.46359e-14
5.46181e-14
5.46475e-14
5.46118e-14
5.46592e-14
5.46052e-14
5.46625e-14
5.45982e-14
5.46576e-14
5.46077e-14
5.46616e-14
5.46083e-14
5.46742e-14
5.46085e-14
5.46705e-14
5.46166e-14
5.46755e-14
5.46244e-14
5.46726e-14
5.46236e-14
5.46699e-14
5.46226e-14
5.46592e-14
5.46297e-14
5.46527e-14
5.46325e-14
5.46544e-14
5.46354e-14
5.46521e-14
5.46381e-14
5.46618e-14
5.4649e-14
5.46633e-14
5.46477e-14
5.46607e-14
5.46423e-14
5.46618e-14
5.4641e-14
5.46629e-14
5.46395e-14
5.46677e-14
5.4638e-14
5.46724e-14
5.46364e-14
5.46809e-14
5.46385e-14
5.46855e-14
5.46366e-14
5.469e-14
5.46344e-14
5.46945e-14
5.46321e-14
5.46875e-14
5.46334e-14
5.46881e-14
5.46308e-14
5.46925e-14
5.46241e-14
5.47007e-14
5.46173e-14
5.47126e-14
5.46139e-14
5.47097e-14
5.4614e-14
5.47108e-14
5.461e-14
5.47046e-14
5.46166e-14
5.47059e-14
5.46229e-14
5.4711e-14
5.46253e-14
5.47054e-14
5.46203e-14
5.46963e-14
5.46222e-14
5.4698e-14
5.46239e-14
5.47033e-14
5.46201e-14
5.47034e-14
5.46196e-14
5.47001e-14
5.46171e-14
5.47003e-14
5.46179e-14
5.47023e-14
5.46219e-14
5.46994e-14
5.46223e-14
5.46932e-14
5.46242e-14
5.46921e-14
5.4626e-14
5.46959e-14
5.46244e-14
5.47046e-14
5.46275e-14
5.47037e-14
5.46272e-14
5.46996e-14
5.46253e-14
5.47004e-14
5.46248e-14
5.47044e-14
5.46258e-14
5.47052e-14
5.46251e-14
5.47077e-14
5.46228e-14
5.47117e-14
5.46249e-14
5.47127e-14
5.46283e-14
5.47137e-14
5.46287e-14
5.47163e-14
5.46246e-14
5.47204e-14
5.46233e-14
5.47245e-14
5.46263e-14
5.47272e-14
5.46234e-14
5.47286e-14
5.46204e-14
5.47286e-14
5.46202e-14
5.47286e-14
5.46198e-14
5.47294e-14
5.46214e-14
5.47331e-14
5.46202e-14
5.47361e-14
5.46189e-14
5.47337e-14
5.46209e-14
5.47308e-14
5.46214e-14
5.47306e-14
5.46212e-14
5.47305e-14
5.46215e-14
5.47297e-14
5.46212e-14
5.47291e-14
5.46227e-14
5.47272e-14
5.46235e-14
5.4726e-14
5.46248e-14
5.47249e-14
5.46255e-14
5.47225e-14
5.46242e-14
5.47221e-14
5.46234e-14
5.47217e-14
5.46239e-14
5.47214e-14
5.46231e-14
5.47217e-14
5.46215e-14
5.47202e-14
5.46206e-14
5.47187e-14
5.46196e-14
5.47179e-14
5.46192e-14
5.47174e-14
5.46187e-14
5.47176e-14
5.46176e-14
5.47172e-14
5.46167e-14
5.47162e-14
5.46151e-14
5.47155e-14
5.46145e-14
5.47148e-14
5.46145e-14
5.47145e-14
5.46134e-14
5.47139e-14
5.4612e-14
5.47126e-14
5.46111e-14
5.47127e-14
5.46103e-14
5.47136e-14
5.46094e-14
5.47134e-14
5.46084e-14
5.47132e-14
5.46082e-14
5.47138e-14
5.46075e-14
5.47144e-14
5.46068e-14
5.47143e-14
5.46057e-14
5.47136e-14
5.46045e-14
5.47138e-14
5.46039e-14
5.47141e-14
5.46034e-14
5.47143e-14
5.46027e-14
5.47143e-14
5.46016e-14
5.47145e-14
5.46004e-14
5.47149e-14
5.45996e-14
5.47152e-14
5.45987e-14
5.47152e-14
5.4598e-14
5.47153e-14
5.45971e-14
5.47152e-14
5.45959e-14
5.47144e-14
5.45947e-14
5.47141e-14
5.45936e-14
5.47147e-14
5.45928e-14
5.47149e-14
5.45917e-14
5.47147e-14
5.45906e-14
5.47144e-14
5.45898e-14
5.47143e-14
5.45891e-14
5.47143e-14
5.45883e-14
5.4714e-14
5.45874e-14
5.47134e-14
5.4587e-14
5.47131e-14
5.45868e-14
5.47133e-14
5.45868e-14
5.47132e-14
5.45864e-14
5.47131e-14
5.45861e-14
5.47132e-14
5.45857e-14
5.47133e-14
5.45856e-14
5.4713e-14
5.45858e-14
5.47128e-14
5.45855e-14
5.47128e-14
5.45856e-14
5.47128e-14
5.45856e-14
5.47126e-14
5.45855e-14
5.47123e-14
5.45855e-14
5.47124e-14
5.45856e-14
5.47125e-14
5.45856e-14
5.47125e-14
5.45857e-14
5.47123e-14
5.45856e-14
5.47123e-14
5.45854e-14
5.47122e-14
5.45852e-14
5.47123e-14
5.45851e-14
5.47123e-14
5.45851e-14
5.47122e-14
5.45851e-14
5.47122e-14
5.45851e-14
5.47123e-14
5.4585e-14
5.47122e-14
5.4585e-14
5.47122e-14
5.4585e-14
5.47121e-14
5.4585e-14
5.47121e-14
5.4585e-14
5.4712e-14
5.4585e-14
5.47119e-14
5.4585e-14
5.47119e-14
5.4585e-14
5.47119e-14
5.45851e-14
5.47119e-14
5.45851e-14
5.47119e-14
5.45851e-14
5.47119e-14
5.45851e-14
5.47119e-14
5.45851e-14
5.47119e-14
5.45851e-14
5.47119e-14
5.45851e-14
5.47119e-14
5.4585e-14
5.47119e-14
5.30994e-14
5.3082e-14
5.31523e-14
5.31335e-14
5.32144e-14
5.31862e-14
5.32394e-14
5.31349e-14
5.31983e-14
5.31659e-14
5.32745e-14
5.3247e-14
5.33343e-14
5.33561e-14
5.33446e-14
5.33971e-14
5.33981e-14
5.34528e-14
5.34423e-14
5.35492e-14
5.34707e-14
5.35621e-14
5.36184e-14
5.36509e-14
5.36304e-14
5.37534e-14
5.37019e-14
5.37734e-14
5.37574e-14
5.38052e-14
5.37741e-14
5.38171e-14
5.381e-14
5.38375e-14
5.38383e-14
5.38352e-14
5.38637e-14
5.37708e-14
5.38129e-14
5.37441e-14
5.3824e-14
5.38156e-14
5.38894e-14
5.38798e-14
5.38937e-14
5.39683e-14
5.38848e-14
5.40365e-14
5.39726e-14
5.40623e-14
5.40161e-14
5.40683e-14
5.40507e-14
5.411e-14
5.40466e-14
5.41263e-14
5.40648e-14
5.41182e-14
5.40786e-14
5.41458e-14
5.41792e-14
5.41813e-14
5.41873e-14
5.41863e-14
5.41956e-14
5.41585e-14
5.42707e-14
5.41851e-14
5.42615e-14
5.4231e-14
5.42579e-14
5.42697e-14
5.43187e-14
5.43381e-14
5.43157e-14
5.43401e-14
5.43443e-14
5.44069e-14
5.43696e-14
5.44768e-14
5.43888e-14
5.44379e-14
5.43897e-14
5.445e-14
5.44373e-14
5.45311e-14
5.44643e-14
5.45846e-14
5.44864e-14
5.45796e-14
5.45054e-14
5.46133e-14
5.45033e-14
5.47378e-14
5.45401e-14
5.47603e-14
5.45504e-14
5.47634e-14
5.46196e-14
5.4831e-14
5.46304e-14
5.48277e-14
5.46006e-14
5.4854e-14
5.45959e-14
5.4826e-14
5.45663e-14
5.47756e-14
5.45977e-14
5.48042e-14
5.4605e-14
5.48098e-14
5.45711e-14
5.48433e-14
5.46137e-14
5.48024e-14
5.4616e-14
5.47516e-14
5.46147e-14
5.47058e-14
5.46288e-14
5.46811e-14
5.45903e-14
5.46762e-14
5.45671e-14
5.46567e-14
5.45763e-14
5.46572e-14
5.4566e-14
5.46601e-14
5.45532e-14
5.46833e-14
5.45372e-14
5.4728e-14
5.4534e-14
5.47434e-14
5.45259e-14
5.47471e-14
5.453e-14
5.47569e-14
5.45462e-14
5.47204e-14
5.45588e-14
5.46975e-14
5.45603e-14
5.47043e-14
5.45593e-14
5.47233e-14
5.45553e-14
5.47284e-14
5.45485e-14
5.47198e-14
5.45389e-14
5.47148e-14
5.45439e-14
5.46868e-14
5.45378e-14
5.46701e-14
5.45471e-14
5.46992e-14
5.45456e-14
5.47224e-14
5.45415e-14
5.47225e-14
5.45521e-14
5.46909e-14
5.45695e-14
5.46529e-14
5.45597e-14
5.46421e-14
5.45576e-14
5.46498e-14
5.45714e-14
5.46673e-14
5.45753e-14
5.46775e-14
5.45779e-14
5.46891e-14
5.45791e-14
5.47021e-14
5.45789e-14
5.47081e-14
5.45773e-14
5.47072e-14
5.45828e-14
5.47077e-14
5.45955e-14
5.47011e-14
5.45903e-14
5.46956e-14
5.45842e-14
5.46995e-14
5.4577e-14
5.46962e-14
5.45939e-14
5.46938e-14
5.45933e-14
5.47007e-14
5.45917e-14
5.47001e-14
5.46059e-14
5.47003e-14
5.46027e-14
5.47055e-14
5.45989e-14
5.47115e-14
5.46065e-14
5.47183e-14
5.46092e-14
5.47301e-14
5.46112e-14
5.47509e-14
5.46203e-14
5.47523e-14
5.46326e-14
5.47628e-14
5.46241e-14
5.47662e-14
5.46229e-14
5.47666e-14
5.46209e-14
5.47718e-14
5.46222e-14
5.4778e-14
5.46227e-14
5.47851e-14
5.46225e-14
5.48008e-14
5.46176e-14
5.48058e-14
5.46158e-14
5.48079e-14
5.46132e-14
5.4811e-14
5.46175e-14
5.48036e-14
5.46172e-14
5.48047e-14
5.46201e-14
5.48067e-14
5.4626e-14
5.47945e-14
5.46314e-14
5.47942e-14
5.46362e-14
5.47981e-14
5.46406e-14
5.47991e-14
5.46445e-14
5.4797e-14
5.46444e-14
5.47918e-14
5.46475e-14
5.47908e-14
5.46431e-14
5.47974e-14
5.46385e-14
5.48009e-14
5.46369e-14
5.47962e-14
5.46385e-14
5.47868e-14
5.46347e-14
5.47848e-14
5.46356e-14
5.479e-14
5.46329e-14
5.47871e-14
5.46316e-14
5.4783e-14
5.4625e-14
5.4781e-14
5.46281e-14
5.47827e-14
5.46308e-14
5.47814e-14
5.46236e-14
5.47788e-14
5.4621e-14
5.4783e-14
5.46245e-14
5.47859e-14
5.46246e-14
5.47875e-14
5.46213e-14
5.47894e-14
5.46178e-14
5.47931e-14
5.46171e-14
5.4794e-14
5.46177e-14
5.47937e-14
5.46181e-14
5.47952e-14
5.46197e-14
5.47955e-14
5.46167e-14
5.4796e-14
5.46179e-14
5.47968e-14
5.46203e-14
5.47977e-14
5.46196e-14
5.47961e-14
5.46174e-14
5.47947e-14
5.46178e-14
5.47928e-14
5.46159e-14
5.47911e-14
5.46166e-14
5.47889e-14
5.46165e-14
5.47877e-14
5.4617e-14
5.47865e-14
5.46186e-14
5.47843e-14
5.46181e-14
5.47841e-14
5.46181e-14
5.47835e-14
5.46186e-14
5.47817e-14
5.4621e-14
5.47807e-14
5.46214e-14
5.47792e-14
5.46216e-14
5.47791e-14
5.46217e-14
5.47791e-14
5.46237e-14
5.47773e-14
5.46242e-14
5.47769e-14
5.46254e-14
5.47772e-14
5.46264e-14
5.47757e-14
5.46274e-14
5.47737e-14
5.46283e-14
5.47718e-14
5.46297e-14
5.47705e-14
5.46298e-14
5.47707e-14
5.46302e-14
5.47699e-14
5.46309e-14
5.47693e-14
5.46305e-14
5.47686e-14
5.46304e-14
5.47671e-14
5.46295e-14
5.47656e-14
5.46293e-14
5.47649e-14
5.4629e-14
5.47642e-14
5.46281e-14
5.47628e-14
5.46274e-14
5.47612e-14
5.46276e-14
5.47603e-14
5.46265e-14
5.47601e-14
5.46242e-14
5.476e-14
5.4623e-14
5.47599e-14
5.4622e-14
5.47595e-14
5.46218e-14
5.47591e-14
5.46211e-14
5.47588e-14
5.4621e-14
5.47591e-14
5.4621e-14
5.47592e-14
5.46202e-14
5.47592e-14
5.46195e-14
5.47592e-14
5.46194e-14
5.47592e-14
5.46189e-14
5.47597e-14
5.46184e-14
5.476e-14
5.46176e-14
5.47604e-14
5.46174e-14
5.47606e-14
5.46172e-14
5.47612e-14
5.4616e-14
5.47621e-14
5.46155e-14
5.47624e-14
5.46152e-14
5.47618e-14
5.46154e-14
5.47615e-14
5.46155e-14
5.47616e-14
5.4615e-14
5.4762e-14
5.46152e-14
5.47624e-14
5.46149e-14
5.47625e-14
5.46145e-14
5.47625e-14
5.46146e-14
5.47627e-14
5.46147e-14
5.4763e-14
5.46144e-14
5.47634e-14
5.46142e-14
5.47634e-14
5.46138e-14
5.47635e-14
5.46137e-14
5.4764e-14
5.46133e-14
5.47644e-14
5.46129e-14
5.4765e-14
5.46129e-14
5.47654e-14
5.46128e-14
5.47657e-14
5.46122e-14
5.4766e-14
5.46119e-14
5.47663e-14
5.46118e-14
5.47666e-14
5.46117e-14
5.47668e-14
5.46114e-14
5.4767e-14
5.46111e-14
5.47674e-14
5.46107e-14
5.47676e-14
5.46105e-14
5.47676e-14
5.46102e-14
5.47677e-14
5.46101e-14
5.47679e-14
5.46099e-14
5.4768e-14
5.46099e-14
5.47679e-14
5.46098e-14
5.4768e-14
5.46097e-14
5.47681e-14
5.46096e-14
5.4768e-14
5.46097e-14
5.47679e-14
5.46098e-14
5.47679e-14
5.46098e-14
5.4768e-14
5.46098e-14
5.47679e-14
5.46099e-14
5.47678e-14
5.46098e-14
5.47678e-14
5.46098e-14
5.47678e-14
5.46099e-14
5.47678e-14
5.46099e-14
5.47678e-14
5.46099e-14
5.47678e-14
5.46099e-14
5.47678e-14
5.46099e-14
5.47678e-14
5.46099e-14
5.47678e-14
5.46099e-14
5.47678e-14
5.46099e-14
5.47678e-14
5.46099e-14
5.47678e-14
)
;

boundaryField
{
    walls
    {
        type            zeroGradient;
    }
    inlet
    {
        type            cyclic;
    }
    outlet
    {
        type            cyclic;
    }
    sides
    {
        type            empty;
    }
}


// ************************************************************************* //
