/*--------------------------------*- C++ -*----------------------------------*\
| =========                 |                                                 |
| \\      /  F ield         | OpenFOAM: The Open Source CFD Toolbox           |
|  \\    /   O peration     | Version:  2106                                  |
|   \\  /    A nd           | Website:  www.openfoam.com                      |
|    \\/     M anipulation  |                                                 |
\*---------------------------------------------------------------------------*/
FoamFile
{
    version     2.0;
    format      ascii;
    arch        "LSB;label=32;scalar=64";
    class       volSymmTensorField;
    location    "10010";
    object      turbulenceProperties:R;
}
// * * * * * * * * * * * * * * * * * * * * * * * * * * * * * * * * * * * * * //

dimensions      [0 2 -2 0 0 0 0];

internalField   nonuniform List<symmTensor> 
2000
(
(3.13885e-08 -1.87256e-13 -3.46575e-16 3.13885e-08 2.65726e-27 3.13885e-08)
(3.13885e-08 -1.87256e-13 -3.46575e-16 3.13885e-08 2.89757e-28 3.13885e-08)
(4.75917e-09 -1.63555e-13 -9.13835e-16 4.75917e-09 6.57365e-28 4.75917e-09)
(4.75917e-09 -1.63555e-13 -9.13835e-16 4.75917e-09 6.52876e-28 4.75917e-09)
(2.54844e-09 -2.59311e-13 -2.0103e-15 2.54844e-09 9.53679e-28 2.54844e-09)
(2.54844e-09 -2.59311e-13 -2.0103e-15 2.54844e-09 7.97733e-29 2.54844e-09)
(4.97137e-09 -1.07709e-12 -8.50592e-15 4.97137e-09 1.93782e-27 4.97137e-09)
(4.97137e-09 -1.07709e-12 -8.50592e-15 4.97137e-09 3.3301e-28 4.97137e-09)
(1.18829e-08 -4.56125e-12 -3.66931e-14 1.18829e-08 9.02929e-27 1.18829e-08)
(1.18829e-08 -4.56125e-12 -3.66931e-14 1.18829e-08 1.41589e-27 1.18829e-08)
(2.51428e-08 -1.52602e-11 -1.25052e-13 2.51428e-08 2.95118e-26 2.51428e-08)
(2.51428e-08 -1.52602e-11 -1.25052e-13 2.51428e-08 4.75343e-27 2.51428e-08)
(4.72842e-08 -4.20475e-11 -3.50998e-13 4.72842e-08 8.28395e-26 4.72842e-08)
(4.72842e-08 -4.20475e-11 -3.50998e-13 4.72842e-08 1.31358e-26 4.72842e-08)
(8.1336e-08 -1.00375e-10 -8.53538e-13 8.1336e-08 2.02641e-25 8.1336e-08)
(8.1336e-08 -1.00375e-10 -8.53538e-13 8.1336e-08 3.14252e-26 8.1336e-08)
(1.30807e-07 -2.15153e-10 -1.86369e-12 1.30807e-07 4.4512e-25 1.30807e-07)
(1.30807e-07 -2.15153e-10 -1.86369e-12 1.30807e-07 6.74619e-26 1.30807e-07)
(1.99707e-07 -4.2436e-10 -3.74449e-12 1.99707e-07 8.98551e-25 1.99707e-07)
(1.99707e-07 -4.2436e-10 -3.74449e-12 1.99707e-07 1.33172e-25 1.99707e-07)
(2.92581e-07 -7.8353e-10 -7.04279e-12 2.92581e-07 1.69829e-24 2.92581e-07)
(2.92581e-07 -7.8353e-10 -7.04279e-12 2.92581e-07 2.45892e-25 2.92581e-07)
(4.14548e-07 -1.37124e-09 -1.25555e-11 4.14548e-07 3.04243e-24 4.14548e-07)
(4.14548e-07 -1.37124e-09 -1.25555e-11 4.14548e-07 4.29898e-25 4.14548e-07)
(5.71347e-07 -2.29581e-09 -2.14136e-11 5.71347e-07 5.21378e-24 5.71347e-07)
(5.71347e-07 -2.29581e-09 -2.14136e-11 5.71347e-07 7.18482e-25 5.71347e-07)
(7.69389e-07 -3.70336e-09 -3.51868e-11 7.69389e-07 8.60719e-24 7.69389e-07)
(7.69389e-07 -3.70336e-09 -3.51868e-11 7.69389e-07 1.17407e-24 7.69389e-07)
(1.01581e-06 -5.78748e-09 -5.60149e-11 1.01581e-06 1.37637e-23 1.01581e-06)
(1.01581e-06 -5.78748e-09 -5.60149e-11 1.01581e-06 2.01821e-24 1.01581e-06)
(1.31853e-06 -8.8008e-09 -8.67697e-11 1.31853e-06 2.14122e-23 1.31853e-06)
(1.31853e-06 -8.8008e-09 -8.67697e-11 1.31853e-06 3.33565e-24 1.31853e-06)
(1.68631e-06 -1.30687e-08 -1.31253e-10 1.68631e-06 3.25243e-23 1.68631e-06)
(1.68631e-06 -1.30687e-08 -1.31253e-10 1.68631e-06 5.03332e-24 1.68631e-06)
(2.12883e-06 -1.90055e-08 -1.9444e-10 2.12883e-06 4.83819e-23 2.12883e-06)
(2.12883e-06 -1.90055e-08 -1.9444e-10 2.12883e-06 7.43301e-24 2.12883e-06)
(2.65678e-06 -2.71334e-08 -2.82776e-10 2.65678e-06 7.06462e-23 2.65678e-06)
(2.65678e-06 -2.71334e-08 -2.82776e-10 2.65678e-06 1.0771e-23 2.65678e-06)
(3.28188e-06 -3.8105e-08 -4.04531e-10 3.28188e-06 9.88682e-23 3.28188e-06)
(3.28188e-06 -3.8105e-08 -4.04531e-10 3.28188e-06 1.53681e-23 3.28188e-06)
(4.01704e-06 -5.27295e-08 -5.70235e-10 4.01704e-06 1.04967e-22 4.01704e-06)
(4.01704e-06 -5.27295e-08 -5.70235e-10 4.01704e-06 2.15884e-23 4.01704e-06)
(4.87639e-06 -7.20027e-08 -7.93194e-10 4.87639e-06 1.03737e-22 4.87639e-06)
(4.87639e-06 -7.20027e-08 -7.93194e-10 4.87639e-06 2.99029e-23 4.87639e-06)
(5.87541e-06 -9.71425e-08 -1.09011e-09 5.87541e-06 1.4303e-22 5.87541e-06)
(5.87541e-06 -9.71425e-08 -1.09011e-09 5.87541e-06 4.09578e-23 5.87541e-06)
(7.03104e-06 -1.2963e-07 -1.48183e-09 7.03104e-06 1.95127e-22 7.03104e-06)
(7.03104e-06 -1.2963e-07 -1.48183e-09 7.03104e-06 5.54689e-23 7.03104e-06)
(8.36174e-06 -1.71256e-07 -1.99419e-09 8.36174e-06 2.6371e-22 8.36174e-06)
(8.36174e-06 -1.71256e-07 -1.99419e-09 8.36174e-06 7.43443e-23 8.36174e-06)
(9.88767e-06 -2.24175e-07 -2.65913e-09 9.88767e-06 3.53191e-22 9.88767e-06)
(9.88767e-06 -2.24175e-07 -2.65913e-09 9.88767e-06 9.87591e-23 9.88767e-06)
(1.16308e-05 -2.90969e-07 -3.51585e-09 1.16308e-05 4.69122e-22 1.16308e-05)
(1.16308e-05 -2.90969e-07 -3.51585e-09 1.16308e-05 1.30111e-22 1.16308e-05)
(1.3615e-05 -3.74718e-07 -4.61229e-09 1.3615e-05 6.18337e-22 1.3615e-05)
(1.3615e-05 -3.74718e-07 -4.61229e-09 1.3615e-05 1.69924e-22 1.3615e-05)
(1.58662e-05 -4.79078e-07 -6.00687e-09 1.58662e-05 8.09703e-22 1.58662e-05)
(1.58662e-05 -4.79078e-07 -6.00687e-09 1.58662e-05 2.19971e-22 1.58662e-05)
(1.84126e-05 -6.08379e-07 -7.77043e-09 1.84126e-05 1.05376e-21 1.84126e-05)
(1.84126e-05 -6.08379e-07 -7.77043e-09 1.84126e-05 2.82815e-22 1.84126e-05)
(2.12848e-05 -7.67724e-07 -9.98862e-09 2.12848e-05 1.36188e-21 2.12848e-05)
(2.12848e-05 -7.67724e-07 -9.98862e-09 2.12848e-05 3.61653e-22 2.12848e-05)
(2.45158e-05 -9.63113e-07 -1.27646e-08 2.45158e-05 7.35354e-22 2.45158e-05)
(2.45158e-05 -9.63113e-07 -1.27646e-08 2.45158e-05 4.59469e-22 2.45158e-05)
(2.81415e-05 -1.20157e-06 -1.62221e-08 2.81415e-05 3.28266e-22 2.81415e-05)
(2.81415e-05 -1.20157e-06 -1.62221e-08 2.81415e-05 5.80253e-22 2.81415e-05)
(3.22006e-05 -1.4913e-06 -2.05093e-08 3.22006e-05 2.38744e-22 3.22006e-05)
(3.22006e-05 -1.4913e-06 -2.05093e-08 3.22006e-05 7.29687e-22 3.22006e-05)
(3.67349e-05 -1.84185e-06 -2.58028e-08 3.67349e-05 2.77815e-22 3.67349e-05)
(3.67349e-05 -1.84185e-06 -2.58028e-08 3.67349e-05 9.11948e-22 3.67349e-05)
(4.17895e-05 -2.26431e-06 -3.23128e-08 4.17895e-05 3.205e-22 4.17895e-05)
(4.17895e-05 -2.26431e-06 -3.23128e-08 4.17895e-05 1.13402e-21 4.17895e-05)
(4.7413e-05 -2.77149e-06 -4.02881e-08 4.7413e-05 3.71293e-22 4.7413e-05)
(4.7413e-05 -2.77149e-06 -4.02881e-08 4.7413e-05 1.40463e-21 4.7413e-05)
(5.36577e-05 -3.37818e-06 -5.00233e-08 5.36577e-05 4.31009e-22 5.36577e-05)
(5.36577e-05 -3.37818e-06 -5.00233e-08 5.36577e-05 1.73101e-21 5.36577e-05)
(6.05797e-05 -4.1014e-06 -6.18651e-08 6.05797e-05 4.99432e-22 6.05797e-05)
(6.05797e-05 -4.1014e-06 -6.18651e-08 6.05797e-05 2.12928e-21 6.05797e-05)
(6.82394e-05 -4.96066e-06 -7.62212e-08 6.82394e-05 5.8171e-22 6.82394e-05)
(6.82394e-05 -4.96066e-06 -7.62212e-08 6.82394e-05 2.61069e-21 6.82394e-05)
(7.67015e-05 -5.97826e-06 -9.35692e-08 7.67015e-05 6.82125e-22 7.67015e-05)
(7.67015e-05 -5.97826e-06 -9.35692e-08 7.67015e-05 3.17307e-21 7.67015e-05)
(8.6035e-05 -7.17963e-06 -1.14467e-07 8.6035e-05 7.9508e-22 8.6035e-05)
(8.6035e-05 -7.17963e-06 -1.14467e-07 8.6035e-05 3.83925e-21 8.6035e-05)
(9.63141e-05 -8.59367e-06 -1.39565e-07 9.63141e-05 9.19848e-22 9.63141e-05)
(9.63141e-05 -8.59367e-06 -1.39565e-07 9.63141e-05 4.63159e-21 9.63141e-05)
(0.000107617 -1.02531e-05 -1.69617e-07 0.000107617 1.08138e-21 0.000107617)
(0.000107617 -1.02531e-05 -1.69617e-07 0.000107617 5.56707e-21 0.000107617)
(0.000120029 -1.21949e-05 -2.05498e-07 0.000120029 1.28899e-21 0.000120029)
(0.000120029 -1.21949e-05 -2.05498e-07 0.000120029 6.66333e-21 0.000120029)
(0.000133639 -1.44605e-05 -2.48214e-07 0.000133639 1.53762e-21 0.000133639)
(0.000133639 -1.44605e-05 -2.48214e-07 0.000133639 7.94648e-21 0.000133639)
(0.00014854 -1.70967e-05 -2.98927e-07 0.00014854 1.80269e-21 0.00014854)
(0.00014854 -1.70967e-05 -2.98927e-07 0.00014854 9.50043e-21 0.00014854)
(0.000164834 -2.01553e-05 -3.58963e-07 0.000164834 2.14468e-21 0.000164834)
(0.000164834 -2.01553e-05 -3.58963e-07 0.000164834 1.12949e-20 0.000164834)
(0.000182626 -2.36943e-05 -4.29841e-07 0.000182626 1.54864e-20 0.000182626)
(0.000182626 -2.36943e-05 -4.29841e-07 0.000182626 1.32895e-20 0.000182626)
(0.000202027 -2.77775e-05 -5.13286e-07 0.000202027 3.46961e-20 0.000202027)
(0.000202027 -2.77775e-05 -5.13286e-07 0.000202027 1.56403e-20 0.000202027)
(0.000223154 -3.24756e-05 -6.11252e-07 0.000223154 4.27762e-20 0.000223154)
(0.000223154 -3.24756e-05 -6.11252e-07 0.000223154 2.54171e-20 0.000223154)
(0.000246128 -3.78659e-05 -7.25946e-07 0.000246128 5.12229e-20 0.000246128)
(0.000246128 -3.78659e-05 -7.25946e-07 0.000246128 5.28075e-20 0.000246128)
(0.000271077 -4.40327e-05 -8.59845e-07 0.000271077 6.09311e-20 0.000271077)
(0.000271077 -4.40327e-05 -8.59845e-07 0.000271077 7.95648e-20 0.000271077)
(0.00029813 -5.10674e-05 -1.01572e-06 0.00029813 7.22233e-20 0.00029813)
(0.00029813 -5.10674e-05 -1.01572e-06 0.00029813 9.39589e-20 0.00029813)
(0.000327425 -5.90686e-05 -1.19664e-06 0.000327425 8.54516e-20 0.000327425)
(0.000327425 -5.90686e-05 -1.19664e-06 0.000327425 1.10639e-19 0.000327425)
(0.000359099 -6.81415e-05 -1.40602e-06 0.000359099 1.00779e-19 0.000359099)
(0.000359099 -6.81415e-05 -1.40602e-06 0.000359099 1.29865e-19 0.000359099)
(0.000393294 -7.83981e-05 -1.64759e-06 0.000393294 1.18271e-19 0.000393294)
(0.000393294 -7.83981e-05 -1.64759e-06 0.000393294 1.51647e-19 0.000393294)
(0.000430153 -8.99562e-05 -1.92546e-06 0.000430153 1.38499e-19 0.000430153)
(0.000430153 -8.99562e-05 -1.92546e-06 0.000430153 1.76313e-19 0.000430153)
(0.00046982 -0.000102939 -2.24406e-06 0.00046982 1.61458e-19 0.00046982)
(0.00046982 -0.000102939 -2.24406e-06 0.00046982 2.04216e-19 0.00046982)
(0.000512438 -0.000117473 -2.60818e-06 0.000512438 1.87564e-19 0.000512438)
(0.000512438 -0.000117473 -2.60818e-06 0.000512438 2.35494e-19 0.000512438)
(0.000558147 -0.000133688 -3.02295e-06 0.000558147 2.16631e-19 0.000558147)
(0.000558147 -0.000133688 -3.02295e-06 0.000558147 2.71257e-19 0.000558147)
(0.000607085 -0.000151715 -3.49378e-06 0.000607085 2.49311e-19 0.000607085)
(0.000607085 -0.000151715 -3.49378e-06 0.000607085 3.11801e-19 0.000607085)
(0.000659381 -0.000171684 -4.02641e-06 0.000659381 2.8602e-19 0.000659381)
(0.000659381 -0.000171684 -4.02641e-06 0.000659381 3.55663e-19 0.000659381)
(0.000715159 -0.000193722 -4.62678e-06 0.000715159 3.26219e-19 0.000715159)
(0.000715159 -0.000193722 -4.62678e-06 0.000715159 4.03924e-19 0.000715159)
(0.000774532 -0.000217949 -5.30103e-06 0.000774532 3.71414e-19 0.000774532)
(0.000774532 -0.000217949 -5.30103e-06 0.000774532 4.56869e-19 0.000774532)
(0.0008376 -0.00024448 -6.05542e-06 0.0008376 4.207e-19 0.0008376)
(0.0008376 -0.00024448 -6.05542e-06 0.0008376 5.14238e-19 0.0008376)
(0.00090445 -0.000273416 -6.89626e-06 0.00090445 4.72942e-19 0.00090445)
(0.00090445 -0.000273416 -6.89626e-06 0.00090445 5.77284e-19 0.00090445)
(0.000975149 -0.000304846 -7.8298e-06 0.000975149 5.28829e-19 0.000975149)
(0.000975149 -0.000304846 -7.8298e-06 0.000975149 6.44575e-19 0.000975149)
(0.00104975 -0.000338843 -8.86218e-06 0.00104975 5.88905e-19 0.00104975)
(0.00104975 -0.000338843 -8.86218e-06 0.00104975 7.14379e-19 0.00104975)
(0.00112828 -0.000375458 -9.99931e-06 0.00112828 6.54262e-19 0.00112828)
(0.00112828 -0.000375458 -9.99931e-06 0.00112828 7.85843e-19 0.00112828)
(0.00121074 -0.000414724 -1.12468e-05 0.00121074 7.23393e-19 0.00121074)
(0.00121074 -0.000414724 -1.12468e-05 0.00121074 7.30988e-19 0.00121074)
(0.00129712 -0.000456649 -1.26097e-05 0.00129712 7.96074e-19 0.00129712)
(0.00129712 -0.000456649 -1.26097e-05 0.00129712 6.538e-19 0.00129712)
(0.00138736 -0.000501215 -1.40928e-05 0.00138736 8.68111e-19 0.00138736)
(0.00138736 -0.000501215 -1.40928e-05 0.00138736 7.10196e-19 0.00138736)
(0.00148141 -0.000548381 -1.57001e-05 0.00148141 9.35633e-19 0.00148141)
(0.00148141 -0.000548381 -1.57001e-05 0.00148141 7.76253e-19 0.00148141)
(0.00157915 -0.000598075 -1.7435e-05 0.00157915 1.00779e-18 0.00157915)
(0.00157915 -0.000598075 -1.7435e-05 0.00157915 8.4816e-19 0.00157915)
(0.00168046 -0.000650205 -1.93001e-05 0.00168046 1.08526e-18 0.00168046)
(0.00168046 -0.000650205 -1.93001e-05 0.00168046 9.11787e-19 0.00168046)
(0.00178518 -0.000704648 -2.12972e-05 0.00178518 1.1682e-18 0.00178518)
(0.00178518 -0.000704648 -2.12972e-05 0.00178518 9.78152e-19 0.00178518)
(0.00189314 -0.000761261 -2.34276e-05 0.00189314 1.25936e-18 0.00189314)
(0.00189314 -0.000761261 -2.34276e-05 0.00189314 1.04959e-18 0.00189314)
(0.00200413 -0.000819879 -2.56915e-05 0.00200413 1.33721e-18 0.00200413)
(0.00200413 -0.000819879 -2.56915e-05 0.00200413 1.1172e-18 0.00200413)
(0.00211792 -0.000880318 -2.80885e-05 0.00211792 1.39664e-18 0.00211792)
(0.00211792 -0.000880318 -2.80885e-05 0.00211792 1.19265e-18 0.00211792)
(0.00223427 -0.000942378 -3.06173e-05 0.00223427 1.46925e-18 0.00223427)
(0.00223427 -0.000942378 -3.06173e-05 0.00223427 1.27044e-18 0.00223427)
(0.00235292 -0.00100585 -3.32761e-05 0.00235292 1.55617e-18 0.00235292)
(0.00235292 -0.00100585 -3.32761e-05 0.00235292 1.33171e-18 0.00235292)
(0.00247358 -0.00107051 -3.60623e-05 0.00247358 1.62922e-18 0.00247358)
(0.00247358 -0.00107051 -3.60623e-05 0.00247358 1.40692e-18 0.00247358)
(0.00259598 -0.00113613 -3.89729e-05 0.00259598 1.69784e-18 0.00259598)
(0.00259598 -0.00113613 -3.89729e-05 0.00259598 1.50203e-18 0.00259598)
(0.00271981 -0.0012025 -4.20043e-05 0.00271981 1.77092e-18 0.00271981)
(0.00271981 -0.0012025 -4.20043e-05 0.00271981 1.57568e-18 0.00271981)
(0.00284478 -0.00126937 -4.51527e-05 0.00284478 1.81386e-18 0.00284478)
(0.00284478 -0.00126937 -4.51527e-05 0.00284478 1.63481e-18 0.00284478)
(0.00297059 -0.00133654 -4.84139e-05 0.00297059 1.85057e-18 0.00297059)
(0.00297059 -0.00133654 -4.84139e-05 0.00297059 1.72669e-18 0.00297059)
(0.00309695 -0.00140379 -5.17835e-05 0.00309695 1.91278e-18 0.00309695)
(0.00309695 -0.00140379 -5.17835e-05 0.00309695 1.82208e-18 0.00309695)
(0.00322355 -0.00147092 -5.52568e-05 0.00322355 1.98746e-18 0.00322355)
(0.00322355 -0.00147092 -5.52568e-05 0.00322355 1.89417e-18 0.00322355)
(0.00335012 -0.00153772 -5.88295e-05 0.00335012 2.04192e-18 0.00335012)
(0.00335012 -0.00153772 -5.88295e-05 0.00335012 1.99163e-18 0.00335012)
(0.00347638 -0.00160404 -6.24969e-05 0.00347638 2.07986e-18 0.00347638)
(0.00347638 -0.00160404 -6.24969e-05 0.00347638 2.09145e-18 0.00347638)
(0.00360208 -0.00166969 -6.62545e-05 0.00360208 2.1385e-18 0.00360208)
(0.00360208 -0.00166969 -6.62545e-05 0.00360208 2.16523e-18 0.00360208)
(0.00372696 -0.00173453 -7.00981e-05 0.00372696 2.18607e-18 0.00372696)
(0.00372696 -0.00173453 -7.00981e-05 0.00372696 2.28195e-18 0.00372696)
(0.00385079 -0.00179843 -7.40236e-05 0.00385079 2.19032e-18 0.00385079)
(0.00385079 -0.00179843 -7.40236e-05 0.00385079 2.42638e-18 0.00385079)
(0.00397335 -0.00186126 -7.80269e-05 0.00397335 2.17578e-18 0.00397335)
(0.00397335 -0.00186126 -7.80269e-05 0.00397335 2.54136e-18 0.00397335)
(0.00409444 -0.00192292 -8.21044e-05 0.00409444 2.18534e-18 0.00409444)
(0.00409444 -0.00192292 -8.21044e-05 0.00409444 2.6545e-18 0.00409444)
(0.00421388 -0.00198332 -8.62526e-05 0.00421388 2.22731e-18 0.00421388)
(0.00421388 -0.00198332 -8.62526e-05 0.00421388 2.79824e-18 0.00421388)
(0.0043315 -0.00204238 -9.04685e-05 0.0043315 2.26121e-18 0.0043315)
(0.0043315 -0.00204238 -9.04685e-05 0.0043315 2.90039e-18 0.0043315)
(0.00444715 -0.00210003 -9.47492e-05 0.00444715 2.19493e-18 0.00444715)
(0.00444715 -0.00210003 -9.47492e-05 0.00444715 3.0347e-18 0.00444715)
(0.0045607 -0.00215622 -9.9092e-05 0.0045607 2.13021e-18 0.0045607)
(0.0045607 -0.00215622 -9.9092e-05 0.0045607 3.26304e-18 0.0045607)
(0.00467203 -0.00221091 -0.000103495 0.00467203 2.13667e-18 0.00467203)
(0.00467203 -0.00221091 -0.000103495 0.00467203 3.39409e-18 0.00467203)
(0.00478103 -0.00226407 -0.000107955 0.00478103 2.07962e-18 0.00478103)
(0.00478103 -0.00226407 -0.000107955 0.00478103 3.47581e-18 0.00478103)
(0.00488763 -0.00231568 -0.000112472 0.00488763 2.00602e-18 0.00488763)
(0.00488763 -0.00231568 -0.000112472 0.00488763 3.52697e-18 0.00488763)
(0.00499175 -0.00236572 -0.000117043 0.00499175 1.99095e-18 0.00499175)
(0.00499175 -0.00236572 -0.000117043 0.00499175 2.3664e-18 0.00499175)
(0.00509332 -0.00241418 -0.000121667 0.00509332 1.98282e-18 0.00509332)
(0.00509332 -0.00241418 -0.000121667 0.00509332 1.12718e-18 0.00509332)
(0.00519229 -0.00246107 -0.000126343 0.00519229 1.90027e-18 0.00519229)
(0.00519229 -0.00246107 -0.000126343 0.00519229 1.14877e-18 0.00519229)
(0.00528864 -0.0025064 -0.000131071 0.00528864 1.80517e-18 0.00528864)
(0.00528864 -0.0025064 -0.000131071 0.00528864 1.09937e-18 0.00528864)
(0.00538234 -0.00255017 -0.000135849 0.00538234 1.62317e-18 0.00538234)
(0.00538234 -0.00255017 -0.000135849 0.00538234 1.09248e-18 0.00538234)
(0.00547336 -0.00259239 -0.000140677 0.00547336 1.41917e-18 0.00547336)
(0.00547336 -0.00259239 -0.000140677 0.00547336 1.124e-18 0.00547336)
(0.0055617 -0.0026331 -0.000145555 0.0055617 1.47233e-18 0.0055617)
(0.0055617 -0.0026331 -0.000145555 0.0055617 1.30269e-18 0.0055617)
(0.00564736 -0.0026723 -0.000150482 0.00564736 1.54556e-18 0.00564736)
(0.00564736 -0.0026723 -0.000150482 0.00564736 1.56415e-18 0.00564736)
(0.00573035 -0.00271003 -0.000155459 0.00573035 1.28957e-18 0.00573035)
(0.00573035 -0.00271003 -0.000155459 0.00573035 1.51832e-18 0.00573035)
(0.00581067 -0.0027463 -0.000160486 0.00581067 7.70638e-19 0.00581067)
(0.00581067 -0.0027463 -0.000160486 0.00581067 1.41767e-18 0.00581067)
(0.00588835 -0.00278116 -0.000165562 0.00588835 4.42252e-19 0.00588835)
(0.00588835 -0.00278116 -0.000165562 0.00588835 1.28424e-18 0.00588835)
(0.0059634 -0.00281462 -0.000170688 0.0059634 2.88348e-19 0.0059634)
(0.0059634 -0.00281462 -0.000170688 0.0059634 1.2551e-18 0.0059634)
(0.00603586 -0.00284673 -0.000175865 0.00603586 2.07012e-19 0.00603586)
(0.00603586 -0.00284673 -0.000175865 0.00603586 1.25928e-18 0.00603586)
(0.00610575 -0.0028775 -0.000181092 0.00610575 3.01771e-20 0.00610575)
(0.00610575 -0.0028775 -0.000181092 0.00610575 1.0759e-18 0.00610575)
(0.00617311 -0.00290697 -0.000186371 0.00617311 -2.07635e-19 0.00617311)
(0.00617311 -0.00290697 -0.000186371 0.00617311 9.9086e-19 0.00617311)
(0.00623798 -0.00293518 -0.000191701 0.00623798 -6.90737e-19 0.00623798)
(0.00623798 -0.00293518 -0.000191701 0.00623798 1.0098e-18 0.00623798)
(0.00630038 -0.00296215 -0.000197084 0.00630038 -8.05098e-19 0.00630038)
(0.00630038 -0.00296215 -0.000197084 0.00630038 1.16561e-18 0.00630038)
(0.00636037 -0.00298791 -0.00020252 0.00636037 -8.91318e-19 0.00636037)
(0.00636037 -0.00298791 -0.00020252 0.00636037 1.13305e-18 0.00636037)
(0.00641798 -0.0030125 -0.00020801 0.00641798 -1.40225e-18 0.00641798)
(0.00641798 -0.0030125 -0.00020801 0.00641798 8.75777e-19 0.00641798)
(0.00647325 -0.00303595 -0.000213554 0.00647325 -1.83721e-18 0.00647325)
(0.00647325 -0.00303595 -0.000213554 0.00647325 6.47762e-19 0.00647325)
(0.00652623 -0.00305828 -0.000219153 0.00652623 -2.08438e-18 0.00652623)
(0.00652623 -0.00305828 -0.000219153 0.00652623 6.59825e-19 0.00652623)
(0.00657695 -0.00307953 -0.000224808 0.00657695 -2.45746e-18 0.00657695)
(0.00657695 -0.00307953 -0.000224808 0.00657695 7.32233e-19 0.00657695)
(0.00662548 -0.00309972 -0.00023052 0.00662548 -2.86372e-18 0.00662548)
(0.00662548 -0.00309972 -0.00023052 0.00662548 2.8472e-19 0.00662548)
(0.00667183 -0.00311888 -0.000236289 0.00667183 -3.01676e-18 0.00667183)
(0.00667183 -0.00311888 -0.000236289 0.00667183 -1.79212e-20 0.00667183)
(0.00671607 -0.00313704 -0.000242116 0.00671607 -3.53559e-18 0.00671607)
(0.00671607 -0.00313704 -0.000242116 0.00671607 1.23613e-19 0.00671607)
(0.00675822 -0.00315423 -0.000248001 0.00675822 -4.25613e-18 0.00675822)
(0.00675822 -0.00315423 -0.000248001 0.00675822 6.12522e-20 0.00675822)
(0.00679834 -0.00317046 -0.000253946 0.00679834 -5.39731e-18 0.00679834)
(0.00679834 -0.00317046 -0.000253946 0.00679834 -3.76942e-19 0.00679834)
(0.00683647 -0.00318577 -0.000259952 0.00683647 -5.11891e-18 0.00683647)
(0.00683647 -0.00318577 -0.000259952 0.00683647 -5.54518e-19 0.00683647)
(0.00687264 -0.00320018 -0.000266018 0.00687264 -5.41548e-18 0.00687264)
(0.00687264 -0.00320018 -0.000266018 0.00687264 -3.98784e-19 0.00687264)
(0.0069069 -0.0032137 -0.000272145 0.0069069 -6.18235e-18 0.0069069)
(0.0069069 -0.0032137 -0.000272145 0.0069069 -4.51929e-19 0.0069069)
(0.00693928 -0.00322637 -0.000278334 0.00693928 -6.25183e-18 0.00693928)
(0.00693928 -0.00322637 -0.000278334 0.00693928 -4.09049e-19 0.00693928)
(0.00696982 -0.00323819 -0.000284586 0.00696982 -5.74026e-18 0.00696982)
(0.00696982 -0.00323819 -0.000284586 0.00696982 1.62562e-18 0.00696982)
(0.00699856 -0.0032492 -0.000290901 0.00699856 -6.56137e-18 0.00699856)
(0.00699856 -0.0032492 -0.000290901 0.00699856 4.55265e-18 0.00699856)
(0.00702554 -0.00325941 -0.00029728 0.00702554 -7.1137e-18 0.00702554)
(0.00702554 -0.00325941 -0.00029728 0.00702554 6.08492e-18 0.00702554)
(0.00705078 -0.00326883 -0.000303723 0.00705078 -6.73677e-18 0.00705078)
(0.00705078 -0.00326883 -0.000303723 0.00705078 6.22501e-18 0.00705078)
(0.00707433 -0.00327749 -0.00031023 0.00707433 -7.33318e-18 0.00707433)
(0.00707433 -0.00327749 -0.00031023 0.00707433 5.8286e-18 0.00707433)
(0.00709622 -0.00328541 -0.000316802 0.00709622 -8.43088e-18 0.00709622)
(0.00709622 -0.00328541 -0.000316802 0.00709622 6.5098e-18 0.00709622)
(0.00711647 -0.00329258 -0.000323439 0.00711647 -8.4633e-18 0.00711647)
(0.00711647 -0.00329258 -0.000323439 0.00711647 8.02512e-18 0.00711647)
(0.00713512 -0.00329905 -0.000330142 0.00713512 -7.53777e-18 0.00713512)
(0.00713512 -0.00329905 -0.000330142 0.00713512 8.63748e-18 0.00713512)
(0.0071522 -0.0033048 -0.00033691 0.0071522 -7.30463e-18 0.0071522)
(0.0071522 -0.0033048 -0.00033691 0.0071522 8.28936e-18 0.0071522)
(0.00716773 -0.00330987 -0.000343743 0.00716773 -7.60827e-18 0.00716773)
(0.00716773 -0.00330987 -0.000343743 0.00716773 8.14798e-18 0.00716773)
(0.00718174 -0.00331425 -0.000350642 0.00718174 -6.5696e-18 0.00718174)
(0.00718174 -0.00331425 -0.000350642 0.00718174 8.51477e-18 0.00718174)
(0.00719426 -0.00331797 -0.000357607 0.00719426 -4.70158e-18 0.00719426)
(0.00719426 -0.00331797 -0.000357607 0.00719426 9.54752e-18 0.00719426)
(0.00720531 -0.00332103 -0.000364638 0.00720531 -3.20762e-18 0.00720531)
(0.00720531 -0.00332103 -0.000364638 0.00720531 1.05299e-17 0.00720531)
(0.00721491 -0.00332345 -0.000371733 0.00721491 -3.0884e-18 0.00721491)
(0.00721491 -0.00332345 -0.000371733 0.00721491 1.16492e-17 0.00721491)
(0.00722309 -0.00332523 -0.000378894 0.00722309 -3.23807e-18 0.00722309)
(0.00722309 -0.00332523 -0.000378894 0.00722309 1.15909e-17 0.00722309)
(0.00722987 -0.00332639 -0.000386119 0.00722987 -1.31519e-18 0.00722987)
(0.00722987 -0.00332639 -0.000386119 0.00722987 1.04299e-17 0.00722987)
(0.00723526 -0.00332692 -0.000393409 0.00723526 1.39941e-18 0.00723526)
(0.00723526 -0.00332692 -0.000393409 0.00723526 1.02783e-17 0.00723526)
(0.0072393 -0.00332684 -0.000400762 0.0072393 3.19627e-19 0.0072393)
(0.0072393 -0.00332684 -0.000400762 0.0072393 1.28412e-17 0.0072393)
(0.00724198 -0.00332616 -0.000408178 0.00724198 -2.81753e-18 0.00724198)
(0.00724198 -0.00332616 -0.000408178 0.00724198 1.44176e-17 0.00724198)
(0.00724334 -0.00332489 -0.000415656 0.00724334 -3.09284e-18 0.00724334)
(0.00724334 -0.00332489 -0.000415656 0.00724334 1.32474e-17 0.00724334)
(0.00724339 -0.00332302 -0.000423195 0.00724339 -2.92649e-18 0.00724339)
(0.00724339 -0.00332302 -0.000423195 0.00724339 1.29383e-17 0.00724339)
(0.00724214 -0.00332057 -0.000430794 0.00724214 -3.06218e-18 0.00724214)
(0.00724214 -0.00332057 -0.000430794 0.00724214 1.34985e-17 0.00724214)
(0.00723961 -0.00331753 -0.000438453 0.00723961 -7.69562e-19 0.00723961)
(0.00723961 -0.00331753 -0.000438453 0.00723961 1.59147e-17 0.00723961)
(0.0072358 -0.00331392 -0.000446169 0.0072358 -4.99728e-19 0.0072358)
(0.0072358 -0.00331392 -0.000446169 0.0072358 1.82635e-17 0.0072358)
(0.00723074 -0.00330974 -0.000453941 0.00723074 -6.85993e-19 0.00723074)
(0.00723074 -0.00330974 -0.000453941 0.00723074 1.78462e-17 0.00723074)
(0.00722443 -0.00330499 -0.000461768 0.00722443 -1.22627e-18 0.00722443)
(0.00722443 -0.00330499 -0.000461768 0.00722443 1.73775e-17 0.00722443)
(0.00721689 -0.00329968 -0.000469648 0.00721689 -2.60981e-18 0.00721689)
(0.00721689 -0.00329968 -0.000469648 0.00721689 1.89218e-17 0.00721689)
(0.00720812 -0.0032938 -0.000477579 0.00720812 -1.92825e-18 0.00720812)
(0.00720812 -0.0032938 -0.000477579 0.00720812 1.86246e-17 0.00720812)
(0.00719813 -0.00328736 -0.000485559 0.00719813 -3.70638e-18 0.00719813)
(0.00719813 -0.00328736 -0.000485559 0.00719813 1.81361e-17 0.00719813)
(0.00718694 -0.00328037 -0.000493586 0.00718694 -4.35061e-18 0.00718694)
(0.00718694 -0.00328037 -0.000493586 0.00718694 2.00287e-17 0.00718694)
(0.00717454 -0.00327282 -0.000501657 0.00717454 -3.84371e-18 0.00717454)
(0.00717454 -0.00327282 -0.000501657 0.00717454 2.32878e-17 0.00717454)
(0.00716094 -0.00326471 -0.00050977 0.00716094 -4.85295e-18 0.00716094)
(0.00716094 -0.00326471 -0.00050977 0.00716094 2.77803e-17 0.00716094)
(0.00714615 -0.00325604 -0.000517921 0.00714615 -4.57112e-18 0.00714615)
(0.00714615 -0.00325604 -0.000517921 0.00714615 2.86145e-17 0.00714615)
(0.00713018 -0.00324682 -0.000526109 0.00713018 -5.60573e-18 0.00713018)
(0.00713018 -0.00324682 -0.000526109 0.00713018 2.54958e-17 0.00713018)
(0.00711303 -0.00323705 -0.000534329 0.00711303 -5.82562e-18 0.00711303)
(0.00711303 -0.00323705 -0.000534329 0.00711303 2.51094e-17 0.00711303)
(0.0070947 -0.00322672 -0.000542578 0.0070947 -5.61815e-18 0.0070947)
(0.0070947 -0.00322672 -0.000542578 0.0070947 2.47911e-17 0.0070947)
(0.0070752 -0.00321583 -0.000550853 0.0070752 -3.64839e-18 0.0070752)
(0.0070752 -0.00321583 -0.000550853 0.0070752 2.36437e-17 0.0070752)
(0.00705453 -0.00320438 -0.000559149 0.00705453 -2.26541e-18 0.00705453)
(0.00705453 -0.00320438 -0.000559149 0.00705453 2.70759e-17 0.00705453)
(0.00703268 -0.00319238 -0.000567463 0.00703268 -6.32295e-18 0.00703268)
(0.00703268 -0.00319238 -0.000567463 0.00703268 2.88268e-17 0.00703268)
(0.00700967 -0.00317981 -0.000575789 0.00700967 -9.95001e-18 0.00700967)
(0.00700967 -0.00317981 -0.000575789 0.00700967 2.91257e-17 0.00700967)
(0.00698549 -0.00316668 -0.000584123 0.00698549 -7.09713e-18 0.00698549)
(0.00698549 -0.00316668 -0.000584123 0.00698549 2.84407e-17 0.00698549)
(0.00696014 -0.00315298 -0.000592461 0.00696014 -5.54756e-18 0.00696014)
(0.00696014 -0.00315298 -0.000592461 0.00696014 2.8949e-17 0.00696014)
(0.00693362 -0.00313871 -0.000600795 0.00693362 -7.49376e-18 0.00693362)
(0.00693362 -0.00313871 -0.000600795 0.00693362 3.11327e-17 0.00693362)
(0.00690593 -0.00312388 -0.000609122 0.00690593 -1.00375e-17 0.00690593)
(0.00690593 -0.00312388 -0.000609122 0.00690593 3.05822e-17 0.00690593)
(0.00687706 -0.00310846 -0.000617435 0.00687706 -1.34723e-17 0.00687706)
(0.00687706 -0.00310846 -0.000617435 0.00687706 3.43065e-17 0.00687706)
(0.00684703 -0.00309247 -0.000625727 0.00684703 -1.32598e-17 0.00684703)
(0.00684703 -0.00309247 -0.000625727 0.00684703 3.66562e-17 0.00684703)
(0.00681581 -0.00307589 -0.000633992 0.00681581 -1.69646e-18 0.00681581)
(0.00681581 -0.00307589 -0.000633992 0.00681581 3.34024e-17 0.00681581)
(0.00678342 -0.00305872 -0.000642223 0.00678342 9.33075e-18 0.00678342)
(0.00678342 -0.00305872 -0.000642223 0.00678342 3.02904e-17 0.00678342)
(0.00674984 -0.00304097 -0.000650411 0.00674984 9.21561e-18 0.00674984)
(0.00674984 -0.00304097 -0.000650411 0.00674984 2.61003e-17 0.00674984)
(0.00671507 -0.00302261 -0.00065855 0.00671507 3.04678e-18 0.00671507)
(0.00671507 -0.00302261 -0.00065855 0.00671507 3.05984e-17 0.00671507)
(0.00667911 -0.00300366 -0.000666631 0.00667911 -6.12498e-18 0.00667911)
(0.00667911 -0.00300366 -0.000666631 0.00667911 4.19346e-17 0.00667911)
(0.00664195 -0.00298409 -0.000674646 0.00664195 -1.98098e-18 0.00664195)
(0.00664195 -0.00298409 -0.000674646 0.00664195 3.68737e-17 0.00664195)
(0.00660359 -0.00296391 -0.000682584 0.00660359 4.48579e-18 0.00660359)
(0.00660359 -0.00296391 -0.000682584 0.00660359 3.34268e-17 0.00660359)
(0.00656402 -0.00294312 -0.000690436 0.00656402 2.41749e-18 0.00656402)
(0.00656402 -0.00294312 -0.000690436 0.00656402 2.79604e-17 0.00656402)
(0.00652324 -0.00292169 -0.000698192 0.00652324 1.8737e-18 0.00652324)
(0.00652324 -0.00292169 -0.000698192 0.00652324 2.7067e-17 0.00652324)
(0.00648123 -0.00289964 -0.000705841 0.00648123 -3.24999e-18 0.00648123)
(0.00648123 -0.00289964 -0.000705841 0.00648123 2.69351e-17 0.00648123)
(0.006438 -0.00287694 -0.000713372 0.006438 1.56177e-18 0.006438)
(0.006438 -0.00287694 -0.000713372 0.006438 2.10759e-17 0.006438)
(0.00639354 -0.0028536 -0.000720773 0.00639354 6.83784e-18 0.00639354)
(0.00639354 -0.0028536 -0.000720773 0.00639354 1.10096e-17 0.00639354)
(0.00634783 -0.00282961 -0.000728031 0.00634783 5.40719e-18 0.00634783)
(0.00634783 -0.00282961 -0.000728031 0.00634783 1.08914e-17 0.00634783)
(0.00630088 -0.00280496 -0.000735134 0.00630088 2.36605e-18 0.00630088)
(0.00630088 -0.00280496 -0.000735134 0.00630088 8.13124e-18 0.00630088)
(0.00625268 -0.00277964 -0.000742068 0.00625268 -9.61513e-19 0.00625268)
(0.00625268 -0.00277964 -0.000742068 0.00625268 8.63732e-18 0.00625268)
(0.00620321 -0.00275364 -0.000748818 0.00620321 2.23075e-18 0.00620321)
(0.00620321 -0.00275364 -0.000748818 0.00620321 8.15479e-18 0.00620321)
(0.00615247 -0.00272696 -0.000755369 0.00615247 6.5603e-18 0.00615247)
(0.00615247 -0.00272696 -0.000755369 0.00615247 7.05723e-18 0.00615247)
(0.00610046 -0.00269959 -0.000761705 0.00610046 5.11333e-19 0.00610046)
(0.00610046 -0.00269959 -0.000761705 0.00610046 -0 0.00610046)
(0.00604717 -0.00267151 -0.00076781 0.00604717 -5.35973e-18 0.00604717)
(0.00604717 -0.00267151 -0.00076781 0.00604717 7.39988e-19 0.00604717)