/*--------------------------------*- C++ -*----------------------------------*\
| =========                 |                                                 |
| \\      /  F ield         | OpenFOAM: The Open Source CFD Toolbox           |
|  \\    /   O peration     | Version:  2106                                  |
|   \\  /    A nd           | Website:  www.openfoam.com                      |
|    \\/     M anipulation  |                                                 |
\*---------------------------------------------------------------------------*/
FoamFile
{
    version     2.0;
    format      ascii;
    arch        "LSB;label=32;scalar=64";
    class       volVectorField;
    location    "10100";
    object      grad(T);
}
// * * * * * * * * * * * * * * * * * * * * * * * * * * * * * * * * * * * * * //

dimensions      [0 -1 0 1 0 0 0];

internalField   nonuniform List<vector> 
2000
(
(0 281.195 0.52039)
(0 281.195 0.52039)
(0 281.195 1.57088)
(0 281.195 1.57088)
(-6.39539e-17 281.195 2.18015)
(0 281.195 2.18015)
(-6.4258e-16 281.194 2.22084)
(1.27134e-15 281.194 2.22084)
(8.50121e-16 281.193 2.26229)
(-8.50121e-16 281.193 2.26229)
(0 281.191 2.3045)
(-2.03622e-15 281.191 2.3045)
(0 281.19 2.3475)
(2.65197e-15 281.19 2.3475)
(0 281.188 2.3913)
(6.55844e-15 281.188 2.3913)
(-9.79544e-16 281.185 2.43592)
(0 281.185 2.43592)
(3.10013e-15 281.182 2.48136)
(0 281.182 2.48136)
(3.04332e-15 281.178 2.52764)
(0 281.178 2.52764)
(4.46443e-15 281.173 2.57477)
(2.91992e-15 281.173 2.57477)
(0 281.166 2.62276)
(0 281.166 2.62276)
(-4.70314e-15 281.158 2.67163)
(0 281.158 2.67163)
(-2.00255e-15 281.147 2.72139)
(-2.82631e-15 281.147 2.72139)
(4.95888e-15 281.134 2.77203)
(-8.73744e-15 281.134 2.77203)
(0 281.116 2.82358)
(2.72368e-15 281.116 2.82358)
(5.11641e-15 281.093 2.87602)
(1.02328e-14 281.093 2.87602)
(-2.75036e-15 281.063 2.92936)
(0 281.063 2.92936)
(-2.20724e-15 281.025 2.98358)
(1.69378e-14 281.025 2.98358)
(-3.14548e-15 280.976 3.03868)
(2.51639e-14 280.976 3.03868)
(0 280.914 3.09463)
(8.42808e-15 280.914 3.09463)
(0 280.835 3.15141)
(1.90969e-14 280.835 3.15141)
(0 280.735 3.20897)
(1.02786e-14 280.735 3.20897)
(-3.98069e-15 280.61 3.26725)
(0 280.61 3.26725)
(-4.61207e-15 280.454 3.32619)
(2.1409e-14 280.454 3.32619)
(-4.42176e-15 280.262 3.38571)
(0 280.262 3.38571)
(-4.64837e-15 280.025 3.44569)
(0 280.025 3.44569)
(0 279.735 3.50601)
(-4.36315e-15 279.735 3.50601)
(-1.36804e-14 279.382 3.56653)
(-2.04559e-14 279.382 3.56653)
(5.35305e-15 278.956 3.62705)
(1.30028e-14 278.956 3.62705)
(0 278.446 3.68738)
(-8.25531e-15 278.446 3.68738)
(2.26013e-15 277.837 3.74728)
(-8.10403e-15 277.837 3.74728)
(-6.09571e-15 277.115 3.80648)
(0 277.115 3.80648)
(0 276.266 3.86469)
(2.5407e-14 276.266 3.86469)
(7.66664e-15 275.274 3.92159)
(-7.66664e-15 275.274 3.92159)
(6.87648e-15 274.122 3.97681)
(1.99798e-14 274.122 3.97681)
(-1.45333e-14 272.793 4.03001)
(2.85802e-14 272.793 4.03001)
(-1.46705e-14 271.272 4.08077)
(0 271.272 4.08077)
(0 269.544 4.12872)
(3.07766e-14 269.544 4.12872)
(-1.59488e-14 267.592 4.17345)
(2.49082e-14 267.592 4.17345)
(0 265.407 4.21457)
(0 265.407 4.21457)
(0 262.976 4.25173)
(0 262.976 4.25173)
(4.3884e-15 260.293 4.28459)
(-4.85687e-14 260.293 4.28459)
(9.12944e-15 257.354 4.31284)
(3.65178e-14 257.354 4.31284)
(9.42545e-15 254.158 4.33626)
(-3.77018e-14 254.158 4.33626)
(2.78691e-15 250.708 4.35465)
(3.88952e-14 250.708 4.35465)
(-1.22814e-14 247.011 4.36789)
(8.01929e-14 247.011 4.36789)
(1.03261e-14 243.078 4.37594)
(4.13043e-14 243.078 4.37594)
(1.20613e-15 238.922 4.3788)
(-5.43528e-14 238.922 4.3788)
(0 234.562 4.37656)
(0 234.562 4.37656)
(1.67508e-16 230.017 4.36936)
(-2.28113e-14 230.017 4.36936)
(0 225.308 4.3574)
(0 225.308 4.3574)
(0 220.46 4.34093)
(-4.73906e-14 220.46 4.34093)
(1.36166e-15 215.497 4.32024)
(0 215.497 4.32024)
(-3.36396e-14 210.442 4.29564)
(2.11847e-14 210.442 4.29564)
(-4.71731e-15 205.322 4.26747)
(5.10276e-14 205.322 4.26747)
(-1.30574e-14 200.158 4.23609)
(0 200.158 4.23609)
(-6.67083e-15 194.975 4.20185)
(-7.34656e-14 194.975 4.20185)
(1.36527e-14 189.793 4.16511)
(-5.46109e-14 189.793 4.16511)
(-1.93135e-14 184.631 4.12621)
(-1.93135e-14 184.631 4.12621)
(-2.84782e-14 179.507 4.08549)
(1.13913e-13 179.507 4.08549)
(-1.45285e-14 174.438 4.04325)
(5.81138e-14 174.438 4.04325)
(0 169.436 3.99979)
(0 169.436 3.99979)
(-3.30351e-14 164.515 3.95539)
(6.0395e-14 164.515 3.95539)
(1.76076e-14 159.683 3.91029)
(-1.76076e-14 159.683 3.91029)
(-1.56571e-14 154.95 3.86472)
(-1.7285e-14 154.95 3.86472)
(1.69682e-14 150.323 3.81889)
(-1.69682e-14 150.323 3.81889)
(0 145.806 3.77297)
(6.4812e-14 145.806 3.77297)
(0 141.405 3.72713)
(0 141.405 3.72713)
(-1.67361e-14 137.121 3.68151)
(6.69445e-14 137.121 3.68151)
(0 132.956 3.63623)
(6.79914e-14 132.956 3.63623)
(-1.72564e-14 128.913 3.5914)
(-6.90256e-14 128.913 3.5914)
(0 124.99 3.5471)
(-7.0047e-14 124.99 3.5471)
(-3.55279e-14 121.187 3.50342)
(7.10558e-14 121.187 3.50342)
(-3.6026e-14 117.504 3.46041)
(0 117.504 3.46041)
(0 113.938 3.41814)
(7.30359e-14 113.938 3.41814)
(-1.85019e-14 110.488 3.37663)
(-7.40077e-14 110.488 3.37663)
(1.87419e-14 107.151 3.33593)
(0 107.151 3.33593)
(1.89789e-14 103.925 3.29606)
(-7.59155e-14 103.925 3.29606)
(-3.8426e-14 100.807 3.25704)
(0 100.807 3.25704)
(2.61949e-14 97.794 3.21888)
(-2.61949e-14 97.794 3.21888)
(1.96728e-14 94.8834 3.18159)
(-1.57383e-13 94.8834 3.18159)
(-5.34502e-15 92.072 3.14517)
(2.52437e-14 92.072 3.14517)
(0 89.3566 3.10963)
(8.04873e-14 89.3566 3.10963)
(2.03424e-14 86.7342 3.07494)
(8.13697e-14 86.7342 3.07494)
(-1.72398e-14 84.2016 3.04112)
(0 84.2016 3.04112)
(-4.15522e-14 81.7559 3.00815)
(8.31043e-14 81.7559 3.00815)
(-2.02473e-15 79.3939 2.97602)
(1.90928e-13 79.3939 2.97602)
(-4.37924e-14 77.1127 2.94471)
(2.25923e-14 77.1127 2.94471)
(-4.28174e-14 74.9094 2.91421)
(8.56347e-14 74.9094 2.91421)
(-2.1615e-14 72.7811 2.88452)
(8.64601e-14 72.7811 2.88452)
(-2.13729e-14 70.7252 2.8556)
(0 70.7252 2.8556)
(2.20212e-14 68.7388 2.82744)
(8.8085e-14 68.7388 2.82744)
(2.22212e-14 66.8194 2.80004)
(8.88849e-14 66.8194 2.80004)
(-2.24192e-14 64.9645 2.77336)
(8.96769e-14 64.9645 2.77336)
(2.26153e-14 63.1716 2.74739)
(0 63.1716 2.74739)
(1.61608e-14 61.4384 2.72212)
(5.22674e-14 61.4384 2.72212)
(2.30017e-14 59.7627 2.69753)
(0 59.7627 2.69753)
(-2.31922e-14 58.1421 2.67359)
(9.27689e-14 58.1421 2.67359)
(6.02479e-14 56.5747 2.65029)
(5.6657e-14 56.5747 2.65029)
(3.61913e-14 55.0584 2.62762)
(5.80807e-14 55.0584 2.62762)
(3.55281e-14 53.5913 2.60556)
(-1.30542e-13 53.5913 2.60556)
(0 52.1715 2.58408)
(9.57487e-14 52.1715 2.58408)
(-2.41194e-14 50.7973 2.56318)
(0 50.7973 2.56318)
(-2.43001e-14 49.4668 2.54284)
(9.72003e-14 49.4668 2.54284)
(0 48.1785 2.52303)
(0 48.1785 2.52303)
(3.23901e-14 46.9307 2.50376)
(-3.23901e-14 46.9307 2.50376)
(2.48333e-14 45.722 2.48499)
(9.93334e-14 45.722 2.48499)
(2.50083e-14 44.551 2.46672)
(6.88194e-14 44.551 2.46672)
(0 43.4161 2.44893)
(1.00728e-13 43.4161 2.44893)
(-5.07086e-14 42.316 2.43161)
(1.01417e-13 42.316 2.43161)
(2.55253e-14 41.2496 2.41474)
(1.02101e-13 41.2496 2.41474)
(0 40.2155 2.39832)
(-1.02781e-13 40.2155 2.39832)
(0 39.2126 2.38232)
(-2.84568e-14 39.2126 2.38232)
(-2.41272e-14 38.2397 2.36674)
(-2.79354e-14 38.2397 2.36674)
(-2.61976e-14 37.2958 2.35156)
(-2.74235e-14 37.2958 2.35156)
(0 36.3799 2.33677)
(-1.32372e-13 36.3799 2.33677)
(5.3054e-14 35.4908 2.32236)
(-2.64276e-14 35.4908 2.32236)
(2.74368e-14 34.6277 2.30833)
(1.0676e-13 34.6277 2.30833)
(-2.68522e-14 33.7897 2.29465)
(1.07409e-13 33.7897 2.29465)
(5.40265e-14 32.9758 2.28131)
(-5.00025e-14 32.9758 2.28131)
(2.71733e-14 32.1853 2.26832)
(1.08693e-13 32.1853 2.26832)
(-2.73325e-14 31.4172 2.25565)
(-4.81867e-14 31.4172 2.25565)
(-2.36519e-14 30.671 2.2433)
(2.19926e-13 30.671 2.2433)
(-5.08665e-14 29.9457 2.23126)
(0 29.9457 2.23126)
(0 29.2407 2.21952)
(2.22436e-13 29.2407 2.21952)
(-2.79601e-14 28.5552 2.20806)
(0 28.5552 2.20806)
(0 27.8887 2.1969)
(1.12459e-13 27.8887 2.1969)
(2.82688e-14 27.2405 2.186)
(2.26151e-13 27.2405 2.186)
(-2.8422e-14 26.61 2.17537)
(1.13688e-13 26.61 2.17537)
(2.85744e-14 25.9966 2.165)
(7.27379e-14 25.9966 2.165)
(-5.7452e-14 25.3997 2.15487)
(7.4106e-14 25.3997 2.15487)
(-8.01007e-14 24.8188 2.14499)
(2.71065e-13 24.8188 2.14499)
(0 24.2534 2.13535)
(7.67918e-14 24.2534 2.13535)
(-2.91765e-14 23.7029 2.12593)
(-3.8596e-14 23.7029 2.12593)
(2.93253e-14 23.1669 2.11674)
(0 23.1669 2.11674)
(0 22.6449 2.10776)
(-3.71944e-14 22.6449 2.10776)
(-2.96209e-14 22.1365 2.09899)
(0 22.1365 2.09899)
(6.07599e-15 21.6413 2.09041)
(-1.54915e-13 21.6413 2.09041)
(-6.51009e-14 21.1588 2.08204)
(2.74499e-13 21.1588 2.08204)
(-3.45421e-14 20.6886 2.07385)
(1.5478e-13 20.6886 2.07385)
(-3.02046e-14 20.2303 2.06584)
(8.69092e-14 20.2303 2.06584)
(0 19.7837 2.05802)
(8.81083e-14 19.7837 2.05802)
(-6.31707e-14 19.3482 2.05036)
(1.21972e-13 19.3482 2.05036)
(-3.2079e-14 18.9236 2.04287)
(1.54624e-13 18.9236 2.04287)
(-3.0779e-14 18.5096 2.03554)
(0 18.5096 2.03554)
(-3.09212e-14 18.1057 2.02836)
(0 18.1057 2.02836)
(-3.10629e-14 17.7118 2.02133)
(0 17.7118 2.02133)
(1.41267e-15 17.3275 2.01445)
(-1.24817e-13 17.3275 2.01445)
(2.92456e-14 16.9525 2.0077)
(-2.92456e-14 16.9525 2.0077)
(2.87097e-14 16.5866 2.00108)
(-2.87097e-14 16.5866 2.00108)
(8.7992e-14 16.2294 1.9946)
(0 16.2294 1.9946)
(-5.94312e-14 15.8808 1.98823)
(1.27057e-13 15.8808 1.98823)
(-5.90631e-14 15.5404 1.98199)
(1.27612e-13 15.5404 1.98199)
(2.12835e-14 15.2081 1.97585)
(-5.33248e-14 15.2081 1.97585)
(0 14.8835 1.96983)
(1.28717e-13 14.8835 1.96983)
(-3.23168e-14 14.5665 1.9639)
(-1.80656e-13 14.5665 1.9639)
(3.24539e-14 14.2569 1.95808)
(1.29816e-13 14.2569 1.95808)
(8.21129e-14 13.9543 1.95234)
(1.30362e-13 13.9543 1.95234)
(3.27268e-14 13.6588 1.94669)
(0 13.6588 1.94669)
(-4.7724e-14 13.3699 1.94113)
(1.31451e-13 13.3699 1.94113)
(-3.29981e-14 13.0876 1.93564)
(0 13.0876 1.93564)
(0 12.8116 1.93023)
(1.32533e-13 12.8116 1.93023)
(-3.32678e-14 12.5419 1.92488)
(0 12.5419 1.92488)
(4.43209e-14 12.2781 1.91959)
(0 12.2781 1.91959)
(4.35087e-14 12.0201 1.91437)
(1.34144e-13 12.0201 1.91437)
(0 11.7678 1.90919)
(1.34678e-13 11.7678 1.90919)
(-3.38028e-14 11.521 1.90406)
(0 11.521 1.90406)
(-3.39356e-14 11.2796 1.89897)
(0 11.2796 1.89897)
(-3.40681e-14 11.0434 1.89392)
(0 11.0434 1.89392)
(2.87347e-14 10.8122 1.8889)
(1.36801e-13 10.8122 1.8889)
(-1.02996e-13 10.586 1.8839)
(1.37328e-13 10.586 1.8839)
(3.82253e-14 10.3645 1.87892)
(9.96283e-14 10.3645 1.87892)
(2.93039e-15 10.1477 1.87396)
(-3.75249e-14 10.1477 1.87396)
(-1.084e-13 9.93543 1.869)
(3.68372e-14 9.93543 1.869)
(3.61622e-14 9.72753 1.86404)
(-3.61622e-14 9.72753 1.86404)
(-3.54995e-14 9.52391 1.85908)
(1.75442e-13 9.52391 1.85908)
(-3.51153e-14 9.32444 1.85411)
(-1.40461e-13 9.32444 1.85411)
(0 9.12902 1.84912)
(0 9.12902 1.84912)
(-6.89571e-14 8.93752 1.8441)
(-2.82989e-13 8.93752 1.8441)
(-6.84704e-14 8.74984 1.83906)
(3.29681e-14 8.74984 1.83906)
(0 8.56587 1.83397)
(0 8.56587 1.83397)
(0 8.38551 1.82884)
(1.11263e-13 8.38551 1.82884)
(-7.17724e-14 8.20866 1.82365)
(2.8709e-13 8.20866 1.82365)
(0 8.03521 1.8184)
(1.44054e-13 8.03521 1.8184)
(2.39719e-14 7.86508 1.81308)
(-6.01123e-14 7.86508 1.81308)
(0 7.69817 1.80768)
(-1.15562e-13 7.69817 1.80768)
(-3.63931e-14 7.53438 1.8022)
(-5.79294e-14 7.53438 1.8022)
(0 7.37363 1.79661)
(1.46076e-13 7.37363 1.79661)
(0 7.21583 1.79092)
(1.46578e-13 7.21583 1.79092)
(-1.80333e-14 7.0609 1.78511)
(3.48959e-13 7.0609 1.78511)
(3.68942e-14 6.90874 1.77917)
(1.47577e-13 6.90874 1.77917)
(0 6.75928 1.77309)
(1.48074e-13 6.75928 1.77309)
(3.71424e-14 6.61243 1.76686)
(1.4857e-13 6.61243 1.76686)
(-3.72659e-14 6.46812 1.76047)
(2.98127e-13 6.46812 1.76047)
(-3.73889e-14 6.32626 1.7539)
(-1.49556e-13 6.32626 1.7539)
(4.90467e-14 6.18679 1.74714)
(0 6.18679 1.74714)
(-3.76338e-14 6.04962 1.74018)
(-4.8148e-14 6.04962 1.74018)
(-7.5511e-14 5.91468 1.733)
(-4.72657e-14 5.91468 1.733)
(-3.78768e-14 5.7819 1.72558)
(1.51507e-13 5.7819 1.72558)
(0 5.6512 1.71792)
(0 5.6512 1.71792)
(-3.81179e-14 5.52251 1.70998)
(0 5.52251 1.70998)
(-4.38952e-14 5.39575 1.70176)
(-4.38952e-14 5.39575 1.70176)
(3.8357e-14 5.27087 1.69322)
(3.06856e-13 5.27087 1.69322)
(7.69514e-14 5.14778 1.68436)
(-1.96204e-13 5.14778 1.68436)
(7.71877e-14 5.02642 1.67515)
(0 5.02642 1.67515)
(7.74228e-14 4.90671 1.66557)
(3.09691e-13 4.90671 1.66557)
(3.88284e-14 4.78858 1.65558)
(1.55313e-13 4.78858 1.65558)
(3.89447e-14 4.67197 1.64517)
(1.55779e-13 4.67197 1.64517)
(-3.90604e-14 4.5568 1.63431)
(1.56241e-13 4.5568 1.63431)
(-1.31711e-15 4.443 1.62296)
(-3.78582e-14 4.443 1.62296)
(0 4.3305 1.61109)
(1.57158e-13 4.3305 1.61109)
(-7.88062e-14 4.21922 1.59866)
(1.21129e-13 4.21922 1.59866)
(-3.95158e-14 4.10909 1.58565)
(0 4.10909 1.58565)
(0 4.00003 1.572)
(3.17022e-13 4.00003 1.572)
(0 3.89196 1.55768)
(0 3.89196 1.55768)
(3.9849e-14 3.7848 1.54264)
(-1.93278e-13 3.7848 1.54264)
(3.99582e-14 3.67847 1.52682)
(0 3.67847 1.52682)
(-1.483e-14 3.57289 1.51018)
(0 3.57289 1.51018)
(1.62411e-14 3.46796 1.49264)
(0 3.46796 1.49264)
(0 3.36358 1.47416)
(1.61119e-13 3.36358 1.47416)
(0 3.25968 1.45465)
(1.61539e-13 3.25968 1.45465)
(4.04887e-14 3.15613 1.43404)
(1.61955e-13 3.15613 1.43404)
(0 3.05284 1.41225)
(-1.62365e-13 3.05284 1.41225)
(-4.06924e-14 2.94968 1.38919)
(0 2.94968 1.38919)
(-4.07922e-14 2.84655 1.36475)
(1.05796e-13 2.84655 1.36475)
(0 2.74331 1.33883)
(1.63562e-13 2.74331 1.33883)
(1.43025e-14 2.63982 1.31131)
(-1.63949e-13 2.63982 1.31131)
(4.10822e-14 2.53595 1.28205)
(2.74381e-13 2.53595 1.28205)
(0 2.43153 1.25092)
(1.64702e-13 2.43153 1.25092)
(-4.12669e-14 2.3264 1.21775)
(0 2.3264 1.21775)
(4.13563e-14 2.22038 1.18237)
(1.65425e-13 2.22038 1.18237)
(8.96253e-15 2.11328 1.14459)
(2.16181e-13 2.11328 1.14459)
(-4.15286e-14 2.00491 1.10421)
(1.66115e-13 2.00491 1.10421)
(0 1.89504 1.061)
(4.85757e-14 1.89504 1.061)
(4.16913e-14 1.78345 1.0147)
(0 1.78345 1.0147)
(-8.35372e-14 1.6699 0.96507)
(1.67074e-13 1.6699 0.96507)
(0 1.55415 0.911813)
(0 1.55415 0.911813)
(0 1.43595 0.85463)
(0 1.43595 0.85463)
(4.1982e-14 1.31505 0.793209)
(1.67928e-13 1.31505 0.793209)
(-4.20462e-14 1.19121 0.727225)
(1.68185e-13 1.19121 0.727225)
(-8.47835e-14 1.0642 0.656353)
(0 1.0642 0.656353)
(4.1895e-14 0.933829 0.580273)
(-4.1895e-14 0.933829 0.580273)
(0 0.799938 0.498681)
(-1.68857e-13 0.799938 0.498681)
(-1.88726e-15 0.662423 0.4113)
(-4.03736e-14 0.662423 0.4113)
(-4.23024e-14 0.521247 0.317896)
(2.08843e-13 0.521247 0.317896)
(0 0.376452 0.218285)
(1.69353e-13 0.376452 0.218285)
(-4.23681e-14 0.228162 0.112341)
(0 0.228162 0.112341)
(-4.23915e-14 1.06673e-06 3.94825e-07)
(3.39247e-13 6.89012e-07 2.55022e-07)
(1.14425e-16 281.195 -0.52039)
(-1.14425e-16 281.195 -0.52039)
(-2.24656e-16 281.195 -1.57088)
(0 281.195 -1.57088)
(-1.27908e-16 281.195 -2.18015)
(0 281.195 -2.18015)
(2.09585e-16 281.194 -2.22084)
(-4.32995e-16 281.194 -2.22084)
(1.34251e-16 281.193 -2.26229)
(-8.50121e-16 281.193 -2.26229)
(5.09054e-16 281.191 -2.3045)
(-1.66909e-15 281.191 -2.3045)
(-1.6385e-15 281.19 -2.3475)
(-8.1925e-16 281.19 -2.3475)
(3.24809e-15 281.188 -2.3913)
(-1.60848e-15 281.188 -2.3913)
(-2.55855e-15 281.185 -2.43592)
(3.91818e-15 281.185 -2.43592)
(1.14226e-15 281.182 -2.48136)
(-7.66919e-15 281.182 -2.48136)
(1.09438e-15 281.178 -2.52764)
(-5.23208e-15 281.178 -2.52764)
(1.47687e-15 281.173 -2.57477)
(0 281.173 -2.57477)
(-1.64887e-15 281.166 -2.62276)
(-6.59548e-15 281.166 -2.62276)
(2.87907e-15 281.158 -2.67163)
(-1.01754e-14 281.158 -2.67163)
(2.00255e-15 281.147 -2.72139)
(-8.01022e-15 281.147 -2.72139)
(0 281.134 -2.77203)
(-2.77452e-15 281.134 -2.77203)
(2.36956e-15 281.116 -2.82358)
(-9.47822e-15 281.116 -2.82358)
(2.5582e-15 281.093 -2.87602)
(1.02328e-14 281.093 -2.87602)
(2.75036e-15 281.063 -2.92936)
(0 281.063 -2.92936)
(5.89221e-15 281.025 -2.98358)
(-5.15334e-15 281.025 -2.98358)
(3.14548e-15 280.976 -3.03868)
(1.25819e-14 280.976 -3.03868)
(3.34857e-15 280.914 -3.09463)
(1.33943e-14 280.914 -3.09463)
(-3.55542e-15 280.835 -3.15141)
(0 280.835 -3.15141)
(1.23181e-14 280.735 -3.20897)
(-4.78586e-15 280.735 -3.20897)
(3.98069e-15 280.61 -3.26725)
(0 280.61 -3.26725)
(0 280.454 -3.32619)
(4.61207e-15 280.454 -3.32619)
(0 280.262 -3.38571)
(-4.52756e-15 280.262 -3.38571)
(9.29674e-15 280.025 -3.44569)
(0 280.025 -3.44569)
(4.87909e-15 279.735 -3.50601)
(1.95164e-14 279.735 -3.50601)
(1.02279e-14 279.382 -3.56653)
(0 279.382 -3.56653)
(5.35305e-15 278.956 -3.62705)
(0 278.956 -3.62705)
(2.2107e-14 278.446 -3.68738)
(-1.65106e-14 278.446 -3.68738)
(2.2052e-14 277.837 -3.74728)
(-2.33756e-14 277.837 -3.74728)
(0 277.115 -3.80648)
(-4.02939e-14 277.115 -3.80648)
(0 276.266 -3.86469)
(7.80975e-15 276.266 -3.86469)
(6.61203e-15 275.274 -3.92159)
(-2.64481e-14 275.274 -3.92159)
(6.22681e-15 274.122 -3.97681)
(0 274.122 -3.97681)
(-7.14504e-15 272.793 -4.03001)
(-2.85802e-14 272.793 -4.03001)
(-7.41764e-15 271.272 -4.08077)
(-5.93411e-14 271.272 -4.08077)
(-5.74201e-16 269.544 -4.12872)
(-7.11994e-15 269.544 -4.12872)
(-7.97442e-15 267.592 -4.17345)
(0 267.592 -4.17345)
(-8.25831e-15 265.407 -4.21457)
(-6.60664e-14 265.407 -4.21457)
(1.70912e-14 262.976 -4.25173)
(0 262.976 -4.25173)
(8.83606e-15 260.293 -4.28459)
(-3.53442e-14 260.293 -4.28459)
(1.82589e-14 257.354 -4.31284)
(2.35356e-14 257.354 -4.31284)
(2.21697e-14 254.158 -4.33626)
(-5.0446e-14 254.158 -4.33626)
(-6.93688e-15 250.708 -4.35465)
(-5.14059e-14 250.708 -4.35465)
(2.00482e-14 247.011 -4.36789)
(4.00965e-14 247.011 -4.36789)
(0 243.078 -4.37594)
(0 243.078 -4.37594)
(-1.06293e-14 238.922 -4.3788)
(-9.68701e-14 238.922 -4.3788)
(1.09335e-14 234.562 -4.37656)
(-5.53525e-14 234.562 -4.37656)
(1.12382e-14 230.017 -4.36936)
(0 230.017 -4.36936)
(0 225.308 -4.3574)
(-9.23441e-14 225.308 -4.3574)
(1.18476e-14 220.46 -4.34093)
(0 220.46 -4.34093)
(2.43035e-14 215.497 -4.32024)
(0 215.497 -4.32024)
(1.05923e-14 210.442 -4.29564)
(-6.04121e-14 210.442 -4.29564)
(-8.03959e-15 205.322 -4.26747)
(0 205.322 -4.26747)
(1.30574e-14 200.158 -4.23609)
(-7.26449e-14 200.158 -4.23609)
(0 194.975 -4.20185)
(-5.34243e-14 194.975 -4.20185)
(0 189.793 -4.16511)
(-5.46109e-14 189.793 -4.16511)
(1.39471e-14 184.631 -4.12621)
(0 184.631 -4.12621)
(0 179.507 -4.08549)
(-1.89596e-14 179.507 -4.08549)
(3.31406e-14 174.438 -4.04325)
(-1.86122e-14 174.438 -4.04325)
(1.4815e-14 169.436 -3.99979)
(0 169.436 -3.99979)
(1.79363e-14 164.515 -3.95539)
(-7.83313e-14 164.515 -3.95539)
(-1.76076e-14 159.683 -3.91029)
(1.76076e-14 159.683 -3.91029)
(1.56571e-14 154.95 -3.86472)
(-6.26285e-14 154.95 -3.86472)
(0 150.323 -3.81889)
(-6.37266e-14 150.323 -3.81889)
(0 145.806 -3.77297)
(0 145.806 -3.77297)
(-1.64712e-14 141.405 -3.72713)
(1.31769e-13 141.405 -3.72713)
(0 137.121 -3.68151)
(0 137.121 -3.68151)
(1.69979e-14 132.956 -3.63623)
(-6.79914e-14 132.956 -3.63623)
(1.72564e-14 128.913 -3.5914)
(-6.90256e-14 128.913 -3.5914)
(1.5186e-14 124.99 -3.5471)
(-1.40094e-13 124.99 -3.5471)
(-1.77639e-14 121.187 -3.50342)
(-1.49077e-14 121.187 -3.50342)
(0 117.504 -3.46041)
(0 117.504 -3.46041)
(0 113.938 -3.41814)
(7.30359e-14 113.938 -3.41814)
(9.70433e-15 110.488 -3.37663)
(-2.96031e-13 110.488 -3.37663)
(3.74838e-14 107.151 -3.33593)
(-7.49675e-14 107.151 -3.33593)
(-1.89789e-14 103.925 -3.29606)
(0 103.925 -3.29606)
(7.47088e-15 100.807 -3.25704)
(-1.03536e-13 100.807 -3.25704)
(-3.88886e-14 97.794 -3.21888)
(-7.77772e-14 97.794 -3.21888)
(6.04206e-15 94.8834 -3.18159)
(-1.83098e-13 94.8834 -3.18159)
(3.97973e-14 92.072 -3.14517)
(-7.95946e-14 92.072 -3.14517)
(2.01218e-14 89.3566 -3.10963)
(8.04873e-14 89.3566 -3.10963)
(-2.4327e-14 86.7342 -3.07494)
(8.13697e-14 86.7342 -3.07494)
(-3.32073e-15 84.2016 -3.04112)
(-8.22419e-14 84.2016 -3.04112)
(-6.49958e-14 81.7559 -3.00815)
(5.96607e-14 81.7559 -3.00815)
(4.40033e-14 79.3939 -2.97602)
(-2.3014e-14 79.3939 -2.97602)
(1.39215e-15 77.1127 -2.94471)
(0 77.1127 -2.94471)
(0 74.9094 -2.91421)
(-2.21783e-14 74.9094 -2.91421)
(-1.5685e-16 72.7811 -2.88452)
(1.08232e-13 72.7811 -2.88452)
(4.27458e-14 70.7252 -2.8556)
(-8.72767e-14 70.7252 -2.8556)
(4.19625e-14 68.7388 -2.82744)
(-4.19625e-14 68.7388 -2.82744)
(2.22212e-14 66.8194 -2.80004)
(4.76914e-14 66.8194 -2.80004)
(4.04387e-14 64.9645 -2.77336)
(-4.04387e-14 64.9645 -2.77336)
(0 63.1716 -2.74739)
(-1.80922e-13 63.1716 -2.74739)
(0 61.4384 -2.72212)
(0 61.4384 -2.72212)
(2.30017e-14 59.7627 -2.69753)
(-9.20069e-14 59.7627 -2.69753)
(2.31922e-14 58.1421 -2.67359)
(0 58.1421 -2.67359)
(2.3381e-14 56.5747 -2.65029)
(1.87048e-13 56.5747 -2.65029)
(5.97593e-14 55.0584 -2.62762)
(-3.61913e-14 55.0584 -2.62762)
(2.37534e-14 53.5913 -2.60556)
(-1.30542e-13 53.5913 -2.60556)
(-1.09399e-14 52.1715 -2.58408)
(9.57487e-14 52.1715 -2.58408)
(3.4238e-14 50.7973 -2.56318)
(0 50.7973 -2.56318)
(-2.43001e-14 49.4668 -2.54284)
(-9.72003e-14 49.4668 -2.54284)
(0 48.1785 -2.52303)
(-3.29947e-14 48.1785 -2.52303)
(0 46.9307 -2.50376)
(-3.23901e-14 46.9307 -2.50376)
(3.17965e-14 45.722 -2.48499)
(0 45.722 -2.48499)
(6.24277e-14 44.551 -2.46672)
(-1.00033e-13 44.551 -2.46672)
(0 43.4161 -2.44893)
(-3.06419e-14 43.4161 -2.44893)
(0 42.316 -2.43161)
(-6.01607e-14 42.316 -2.43161)
(2.55253e-14 41.2496 -2.41474)
(-2.95292e-14 41.2496 -2.41474)
(-2.56952e-14 40.2155 -2.39832)
(0 40.2155 -2.39832)
(-2.58638e-14 39.2126 -2.38232)
(-2.84568e-14 39.2126 -2.38232)
(-1.9041e-15 38.2397 -2.36674)
(0 38.2397 -2.36674)
(0 37.2958 -2.35156)
(0 37.2958 -2.35156)
(-2.58047e-14 36.3799 -2.33677)
(-2.10903e-13 36.3799 -2.33677)
(0 35.4908 -2.32236)
(0 35.4908 -2.32236)
(2.66901e-14 34.6277 -2.30833)
(0 34.6277 -2.30833)
(-2.54679e-14 33.7897 -2.29465)
(1.07409e-13 33.7897 -2.29465)
(0 32.9758 -2.28131)
(-1.08053e-13 32.9758 -2.28131)
(4.90862e-14 32.1853 -2.26832)
(-1.5778e-13 32.1853 -2.26832)
(-2.73325e-14 31.4172 -2.25565)
(-1.0933e-13 31.4172 -2.25565)
(4.73037e-14 30.671 -2.2433)
(6.26591e-14 30.671 -2.2433)
(2.7648e-14 29.9457 -2.23126)
(0 29.9457 -2.23126)
(5.5609e-14 29.2407 -2.21952)
(1.11218e-13 29.2407 -2.21952)
(-2.79601e-14 28.5552 -2.20806)
(1.1184e-13 28.5552 -2.20806)
(-4.39306e-14 27.8887 -2.1969)
(0 27.8887 -2.1969)
(2.82688e-14 27.2405 -2.186)
(0 27.2405 -2.186)
(2.8422e-14 26.61 -2.17537)
(1.13688e-13 26.61 -2.17537)
(7.01339e-14 25.9966 -2.165)
(7.27379e-14 25.9966 -2.165)
(6.95239e-14 25.3997 -2.15487)
(-4.0798e-14 25.3997 -2.15487)
(4.00503e-14 24.8188 -2.14499)
(-1.15508e-13 24.8188 -2.14499)
(2.90271e-14 24.2534 -2.13535)
(-3.93164e-14 24.2534 -2.13535)
(-2.91765e-14 23.7029 -2.12593)
(0 23.7029 -2.12593)
(0 23.1669 -2.11674)
(0 23.1669 -2.11674)
(2.94735e-14 22.6449 -2.10776)
(0 22.6449 -2.10776)
(9.57547e-14 22.1365 -2.09899)
(0 22.1365 -2.09899)
(0 21.6413 -2.09041)
(0 21.6413 -2.09041)
(2.9914e-14 21.1588 -2.08204)
(2.39312e-13 21.1588 -2.08204)
(3.45421e-14 20.6886 -2.07385)
(-3.45421e-14 20.6886 -2.07385)
(-9.80229e-14 20.2303 -2.06584)
(0 20.2303 -2.06584)
(-3.0349e-14 19.7837 -2.05802)
(0 19.7837 -2.05802)
(0 19.3482 -2.05036)
(0 19.3482 -2.05036)
(-1.44278e-15 18.9236 -2.04287)
(3.2079e-14 18.9236 -2.04287)
(0 18.5096 -2.03554)
(3.14912e-14 18.5096 -2.03554)
(6.18424e-14 18.1057 -2.02836)
(-1.23685e-13 18.1057 -2.02836)
(6.21259e-14 17.7118 -2.02133)
(-1.24252e-13 17.7118 -2.02133)
(-3.12042e-14 17.3275 -2.01445)
(-3.44658e-13 17.3275 -2.01445)
(-3.13449e-14 16.9525 -2.0077)
(-2.92456e-14 16.9525 -2.0077)
(0 16.5866 -2.00108)
(9.72308e-14 16.5866 -2.00108)
(-5.63671e-14 16.2294 -1.9946)
(0 16.2294 -1.9946)
(3.17641e-14 15.8808 -1.98823)
(0 15.8808 -1.98823)
(-4.74286e-15 15.5404 -1.98199)
(-1.54772e-13 15.5404 -1.98199)
(0 15.2081 -1.97585)
(0 15.2081 -1.97585)
(3.21793e-14 14.8835 -1.96983)
(1.28717e-13 14.8835 -1.96983)
(6.46336e-14 14.5665 -1.9639)
(-1.29267e-13 14.5665 -1.9639)
(0 14.2569 -1.95808)
(-1.29816e-13 14.2569 -1.95808)
(3.25905e-14 13.9543 -1.95234)
(-4.95223e-14 13.9543 -1.95234)
(-4.86148e-14 13.6588 -1.94669)
(-1.30907e-13 13.6588 -1.94669)
(0 13.3699 -1.94113)
(-2.62901e-13 13.3699 -1.94113)
(-4.68495e-14 13.0876 -1.93564)
(0 13.0876 -1.93564)
(6.62663e-14 12.8116 -1.93023)
(1.32533e-13 12.8116 -1.93023)
(3.32678e-14 12.5419 -1.92488)
(0 12.5419 -1.92488)
(0 12.2781 -1.91959)
(1.33609e-13 12.2781 -1.91959)
(3.35361e-14 12.0201 -1.91437)
(-1.34144e-13 12.0201 -1.91437)
(0 11.7678 -1.90919)
(-1.7739e-13 11.7678 -1.90919)
(4.19287e-14 11.521 -1.90406)
(0 11.521 -1.90406)
(3.39356e-14 11.2796 -1.89897)
(-1.76903e-13 11.2796 -1.89897)
(6.81362e-14 11.0434 -1.89392)
(-1.36272e-13 11.0434 -1.89392)
(3.42002e-14 10.8122 -1.8889)
(1.36801e-13 10.8122 -1.8889)
(2.97251e-14 10.586 -1.8839)
(9.83891e-14 10.586 -1.8839)
(7.26887e-14 10.3645 -1.87892)
(-3.82253e-14 10.3645 -1.87892)
(2.93039e-15 10.1477 -1.87396)
(-3.75249e-14 10.1477 -1.87396)
(3.47252e-14 9.93543 -1.869)
(-1.38901e-13 9.93543 -1.869)
(3.48556e-14 9.72753 -1.86404)
(1.0326e-13 9.72753 -1.86404)
(6.99712e-14 9.52391 -1.85908)
(-3.54995e-14 9.52391 -1.85908)
(3.4849e-14 9.32444 -1.85411)
(1.40461e-13 9.32444 -1.85411)
(-3.52446e-14 9.12902 -1.84912)
(-1.40978e-13 9.12902 -1.84912)
(7.07473e-14 8.93752 -1.8441)
(-1.41495e-13 8.93752 -1.8441)
(-3.55023e-14 8.74984 -1.83906)
(-2.84018e-13 8.74984 -1.83906)
(3.56306e-14 8.56587 -1.83397)
(-1.74886e-13 8.56587 -1.83397)
(-6.35418e-14 8.38551 -1.82884)
(1.11263e-13 8.38551 -1.82884)
(9.39493e-15 8.20866 -1.82365)
(1.43545e-13 8.20866 -1.82365)
(6.66307e-14 8.03521 -1.8184)
(-1.44054e-13 8.03521 -1.8184)
(6.08422e-15 7.86508 -1.81308)
(0 7.86508 -1.81308)
(0 7.69817 -1.80768)
(-1.74573e-13 7.69817 -1.80768)
(0 7.53438 -1.8022)
(-1.45573e-13 7.53438 -1.8022)
(0 7.37363 -1.79661)
(-1.46076e-13 7.37363 -1.79661)
(0 7.21583 -1.79092)
(5.58258e-14 7.21583 -1.79092)
(9.15723e-14 7.0609 -1.78511)
(-5.48028e-14 7.0609 -1.78511)
(3.68942e-14 6.90874 -1.77917)
(1.47577e-13 6.90874 -1.77917)
(3.70185e-14 6.75928 -1.77309)
(0 6.75928 -1.77309)
(0 6.61243 -1.76686)
(1.4857e-13 6.61243 -1.76686)
(0 6.46812 -1.76047)
(0 6.46812 -1.76047)
(0 6.32626 -1.7539)
(-1.49556e-13 6.32626 -1.7539)
(-4.90467e-14 6.18679 -1.74714)
(0 6.18679 -1.74714)
(-3.76338e-14 6.04962 -1.74018)
(-4.8148e-14 6.04962 -1.74018)
(9.51015e-15 5.91468 -1.733)
(-1.98288e-13 5.91468 -1.733)
(-3.78768e-14 5.7819 -1.72558)
(-1.97907e-13 5.7819 -1.72558)
(0 5.6512 -1.71792)
(0 5.6512 -1.71792)
(4.47146e-14 5.52251 -1.70998)
(-3.49658e-13 5.52251 -1.70998)
(4.38952e-14 5.39575 -1.70176)
(-1.96846e-13 5.39575 -1.70176)
(0 5.27087 -1.69322)
(0 5.27087 -1.69322)
(0 5.14778 -1.68436)
(-1.53903e-13 5.14778 -1.68436)
(4.44583e-14 5.02642 -1.67515)
(-4.15261e-14 5.02642 -1.67515)
(3.66577e-14 4.90671 -1.66557)
(1.54846e-13 4.90671 -1.66557)
(7.76567e-14 4.78858 -1.65558)
(0 4.78858 -1.65558)
(1.17174e-13 4.67197 -1.64517)
(-1.95064e-13 4.67197 -1.64517)
(7.76253e-14 4.5568 -1.63431)
(0 4.5568 -1.63431)
(-3.91753e-14 4.443 -1.62296)
(-3.78582e-14 4.443 -1.62296)
(3.71645e-14 4.3305 -1.61109)
(1.57158e-13 4.3305 -1.61109)
(-3.94031e-14 4.21922 -1.59866)
(1.57612e-13 4.21922 -1.59866)
(0 4.10909 -1.58565)
(-1.93878e-13 4.10909 -1.58565)
(3.51586e-14 4.00003 -1.572)
(-1.9367e-13 4.00003 -1.572)
(-7.42532e-14 3.89196 -1.55768)
(-1.58955e-13 3.89196 -1.55768)
(7.9698e-14 3.7848 -1.54264)
(-1.59396e-13 3.7848 -1.54264)
(3.99582e-14 3.67847 -1.52682)
(0 3.67847 -1.52682)
(-6.5303e-14 3.57289 -1.51018)
(1.27614e-13 3.57289 -1.51018)
(0 3.46796 -1.49264)
(0 3.46796 -1.49264)
(0 3.36358 -1.47416)
(-2.24051e-13 3.36358 -1.47416)
(0 3.25968 -1.45465)
(0 3.25968 -1.45465)
(-2.01577e-14 3.15613 -1.43404)
(1.61955e-13 3.15613 -1.43404)
(4.05912e-14 3.05284 -1.41225)
(-3.24729e-13 3.05284 -1.41225)
(0 2.94968 -1.38919)
(0 2.94968 -1.38919)
(-1.65809e-14 2.84655 -1.36475)
(0 2.84655 -1.36475)
(4.08905e-14 2.74331 -1.33883)
(-1.63562e-13 2.74331 -1.33883)
(-9.62769e-14 2.63982 -1.31131)
(1.08659e-13 2.63982 -1.31131)
(2.7888e-14 2.53595 -1.28205)
(1.64329e-13 2.53595 -1.28205)
(8.2351e-14 2.43153 -1.25092)
(0 2.43153 -1.25092)
(-1.10386e-14 2.3264 -1.21775)
(0 2.3264 -1.21775)
(4.13563e-14 2.22038 -1.18237)
(-5.13471e-14 2.22038 -1.18237)
(4.14436e-14 2.11328 -1.14459)
(-2.16181e-13 2.11328 -1.14459)
(4.15286e-14 2.00491 -1.10421)
(1.66115e-13 2.00491 -1.10421)
(0 1.89504 -1.061)
(-2.15021e-13 1.89504 -1.061)
(4.16913e-14 1.78345 -1.0147)
(-1.66765e-13 1.78345 -1.0147)
(8.85803e-14 1.6699 -0.96507)
(0 1.6699 -0.96507)
(4.59539e-14 1.55415 -0.911813)
(1.67372e-13 1.55415 -0.911813)
(0 1.43595 -0.85463)
(-3.35313e-13 1.43595 -0.85463)
(0 1.31505 -0.793209)
(-1.67928e-13 1.31505 -0.793209)
(4.20462e-14 1.19121 -0.727225)
(-1.68185e-13 1.19121 -0.727225)
(4.21065e-14 1.0642 -0.656353)
(1.68426e-13 1.0642 -0.656353)
(4.21626e-14 0.933829 -0.580273)
(-3.37301e-13 0.933829 -0.580273)
(8.44283e-14 0.799938 -0.498681)
(-1.68857e-13 0.799938 -0.498681)
(0 0.662423 -0.4113)
(0 0.662423 -0.4113)
(-8.19362e-14 0.521247 -0.317896)
(1.6921e-13 0.521247 -0.317896)
(0 0.376452 -0.218285)
(-1.69353e-13 0.376452 -0.218285)
(-4.23681e-14 0.228162 -0.112341)
(1.31278e-13 0.228162 -0.112341)
(4.23915e-14 1.10013e-06 -4.07186e-07)
(2.0729e-13 4.1279e-07 -1.52785e-07)
(4.24489e-14 -1.06783e-06 3.95237e-07)
(1.69566e-13 -6.88014e-07 2.54653e-07)
(-3.81946e-14 -0.228161 0.112341)
(3.38945e-13 -0.228161 0.112341)
(-3.43076e-15 -0.376452 0.218284)
(-3.89075e-14 -0.376452 0.218284)
(0 -0.521247 0.317896)
(1.6921e-13 -0.521247 0.317896)
(0 -0.662422 0.4113)
(3.38087e-13 -0.662422 0.4113)
(-4.22142e-14 -0.799937 0.49868)
(-1.68857e-13 -0.799937 0.49868)
(0 -0.933829 0.580273)
(0 -0.933829 0.580273)
(-4.21065e-14 -1.0642 0.656353)
(-1.68426e-13 -1.0642 0.656353)
(0 -1.19121 0.727225)
(0 -1.19121 0.727225)
(8.62672e-14 -1.31505 0.793209)
(0 -1.31505 0.793209)
(0 -1.43595 0.85463)
(1.67657e-13 -1.43595 0.85463)
(4.59539e-14 -1.55415 0.911812)
(1.67372e-13 -1.55415 0.911812)
(0 -1.6699 0.96507)
(0 -1.6699 0.96507)
(-4.16913e-14 -1.78345 1.0147)
(-1.66765e-13 -1.78345 1.0147)
(8.32225e-14 -1.89504 1.061)
(0 -1.89504 1.061)
(0 -2.00491 1.10421)
(0 -2.00491 1.10421)
(1.33293e-13 -2.11328 1.14459)