/*--------------------------------*- C++ -*----------------------------------*\
| =========                 |                                                 |
| \\      /  F ield         | OpenFOAM: The Open Source CFD Toolbox           |
|  \\    /   O peration     | Version:  2106                                  |
|   \\  /    A nd           | Website:  www.openfoam.com                      |
|    \\/     M anipulation  |                                                 |
\*---------------------------------------------------------------------------*/
FoamFile
{
    version     2.0;
    format      ascii;
    arch        "LSB;label=32;scalar=64";
    class       volTensorField;
    location    "10100";
    object      grad(U);
}
// * * * * * * * * * * * * * * * * * * * * * * * * * * * * * * * * * * * * * //

dimensions      [0 0 -1 0 0 0 0];

internalField   nonuniform List<tensor> 
2000
(
(-7.15154e-18 -1.57448e-25 1.46906e-27 23.8009 -5.90348e-39 8.03705e-14 0.0440509 1.57772e-30 4.51379e-17)
(7.15154e-18 -1.04555e-28 -2.54074e-32 23.8009 -1.5681e-41 9.20405e-14 0.0440509 1.92593e-34 4.15041e-17)
(0 2.79348e-30 -1.65972e-31 23.7964 -3.15358e-12 2.09287e-14 0.132958 -2.99082e-15 7.89087e-17)
(-2.8082e-17 -2.79348e-30 0 23.7964 1.42577e-15 5.75388e-14 0.132958 1.91932e-18 -5.45479e-17)
(-5.42121e-18 -1.49507e-25 6.59133e-32 23.7918 8.07794e-28 1.18786e-14 0.184444 0 1.03813e-16)
(0 1.25362e-29 -9.79389e-32 23.7918 2.59737e-15 5.4889e-15 0.184444 8.69869e-18 -5.65216e-17)
(-1.7747e-17 -6.15323e-30 -3.55442e-32 23.7871 1.55042e-12 1.31355e-14 0.18785 -1.86209e-14 1.01736e-16)
(7.09881e-17 1.23065e-29 0 23.7871 2.3154e-15 5.5996e-15 0.18785 1.43963e-17 -5.85252e-17)
(-5.31326e-17 3.02024e-30 -9.43824e-32 23.7823 -2.46342e-14 1.28561e-14 0.191317 -3.84682e-16 1.03228e-16)
(0 0 0 23.7823 2.26381e-15 5.71115e-15 0.191317 1.77301e-17 -6.05629e-17)
(0 1.48245e-29 0 23.7774 -3.93103e-14 1.2973e-14 0.194847 -2.52473e-16 1.07486e-16)
(-1.72344e-16 -1.48286e-29 0 23.7774 2.22953e-15 5.82525e-15 0.194847 1.84831e-17 -6.26285e-17)
(0 -8.39868e-28 0 23.7723 -4.01295e-15 1.32929e-14 0.198442 -1.65962e-17 1.12459e-16)
(2.24429e-16 8.73795e-30 0 23.7723 2.36217e-15 5.94025e-15 0.198442 2.0613e-17 -6.47208e-17)
(0 0 0 23.7671 -2.14331e-15 1.36363e-14 0.202102 -1.95489e-17 1.17376e-16)
(5.54953e-16 5.73515e-30 -1.78577e-31 23.7671 2.39417e-15 6.05624e-15 0.202102 1.9724e-17 -6.6844e-17)
(-8.28757e-17 -3.00977e-30 -4.94237e-32 23.7618 -3.46763e-15 1.39656e-14 0.205827 -4.01669e-17 1.22403e-16)
(0 8.41461e-30 -1.75304e-31 23.7618 2.25912e-15 6.17494e-15 0.205827 1.90498e-17 -6.89983e-17)
(0 -8.26041e-30 3.44184e-31 23.7564 -4.90535e-15 1.42964e-14 0.209621 -4.56608e-17 1.27637e-16)
(0 8.26041e-30 -3.44184e-31 23.7564 2.1823e-15 6.29853e-15 0.209621 1.91113e-17 -7.11797e-17)
(3.80415e-16 -2.97332e-29 5.06815e-31 23.7507 -5.15174e-15 1.46344e-14 0.213482 -4.61103e-17 1.33094e-16)
(0 2.70301e-29 -1.68938e-31 23.7507 2.27695e-15 6.42494e-15 0.213482 2.14693e-17 -7.33748e-17)
(1.24909e-16 2.70493e-30 -2.72669e-31 23.7449 -5.05047e-15 1.49801e-14 0.217413 -4.55266e-17 1.38777e-16)
(4.99635e-16 2.27994e-32 0 23.7449 2.47126e-15 6.5521e-15 0.217413 2.33903e-17 -7.55681e-17)
(0 0 0 23.7389 -4.88286e-15 1.53325e-14 0.221414 -4.47208e-17 1.44685e-16)
(0 0 0 23.7389 2.44506e-15 6.67999e-15 0.221414 2.17894e-17 -7.77711e-17)
(-3.3418e-16 2.81753e-29 -5.45597e-31 23.7325 -4.78271e-15 1.56911e-14 0.225485 -4.53388e-17 1.50822e-16)
(0 -2.30141e-29 3.19641e-31 23.7325 2.42852e-15 6.81218e-15 0.225485 2.39575e-17 -8.00077e-17)
(-3.45954e-16 1.51558e-29 -2.2682e-31 23.7259 -4.93466e-15 1.60561e-14 0.229629 -4.93476e-17 1.57203e-16)
(0 -7.5308e-30 0 23.7259 2.60196e-15 6.95104e-15 0.229629 2.59681e-17 -8.22229e-17)
(5.31473e-16 -1.73905e-29 2.2791e-31 23.7189 -5.29151e-15 1.64253e-14 0.233843 -5.40846e-17 1.63786e-16)
(-7.38632e-16 1.2282e-29 0 23.7189 2.65772e-15 7.09264e-15 0.233843 2.59598e-17 -8.44076e-17)
(3.40459e-16 -7.25733e-30 0 23.7114 -5.37519e-15 1.67985e-14 0.23813 -5.28883e-17 1.70622e-16)
(-3.40459e-16 7.25733e-30 0 23.7114 2.65878e-15 7.23117e-15 0.23813 2.69679e-17 -8.65794e-17)
(4.32416e-16 -2.42129e-29 7.5839e-31 23.7032 -5.25588e-15 1.71769e-14 0.242489 -5.3681e-17 1.77701e-16)
(8.64832e-16 1.66744e-29 -2.96848e-31 23.7032 2.49736e-15 7.36728e-15 0.242489 2.36348e-17 -8.87278e-17)
(-2.32419e-16 7.27038e-30 -3.78264e-31 23.6944 -5.40586e-15 1.75591e-14 0.246919 -5.80078e-17 1.85019e-16)
(-3.28096e-16 0 0 23.6944 2.32862e-15 7.51531e-15 0.246919 2.44666e-17 -9.08749e-17)
(2.48928e-16 -7.18585e-30 9.1569e-32 23.6846 -5.63291e-15 1.79425e-14 0.251418 -6.05252e-17 1.9254e-16)
(9.95713e-16 9.21207e-30 -2.86068e-31 23.6846 2.51682e-15 7.66232e-15 0.251418 2.85219e-17 -9.29471e-17)
(-2.6574e-16 2.61015e-30 -9.64847e-32 23.6736 -5.65765e-15 1.83264e-14 0.255986 -6.07289e-17 2.00294e-16)
(2.12592e-15 1.29473e-31 0 23.6736 2.55139e-15 7.79691e-15 0.255986 2.61363e-17 -9.49827e-17)
(0 1.10272e-29 0 23.6612 -5.64545e-15 1.87113e-14 0.260619 -6.25371e-17 2.08277e-16)
(8.21051e-16 -6.54605e-30 0 23.6612 2.41312e-15 7.94406e-15 0.260619 2.65498e-17 -9.70372e-17)
(3.047e-16 -1.08251e-29 2.70628e-31 23.647 -5.78863e-15 1.90945e-14 0.265314 -6.62312e-17 2.16442e-16)
(1.20117e-15 1.09005e-29 0 23.647 2.43983e-15 8.09248e-15 0.265314 2.77207e-17 -9.89719e-17)
(0 6.37605e-30 -5.31338e-31 23.6307 -5.86156e-15 1.94735e-14 0.270067 -6.65611e-17 2.24793e-16)
(1.27217e-15 -4.16743e-30 0 23.6307 2.24734e-15 8.23712e-15 0.270067 2.31487e-17 -1.0088e-16)
(-3.36115e-16 -5.73047e-30 -1.18388e-31 23.6118 -5.7219e-15 1.98479e-14 0.274871 -6.54739e-17 2.33319e-16)
(0 1.25184e-29 -2.60801e-31 23.6118 2.05871e-15 8.37948e-15 0.274871 2.43718e-17 -1.02613e-16)
(5.76509e-16 -2.04817e-29 5.12043e-31 23.5898 -5.79066e-15 2.02143e-14 0.27972 -7.07007e-17 2.41957e-16)
(8.41552e-16 2.05722e-29 -5.12043e-31 23.5898 2.21906e-15 8.51016e-15 0.27972 2.78256e-17 -1.04263e-16)
(1.92698e-16 -1.40492e-30 1.205e-31 23.5639 -6.14501e-15 2.05662e-14 0.284604 -7.65058e-17 2.50615e-16)
(0 4.02128e-30 -2.5133e-31 23.5639 2.29572e-15 8.64441e-15 0.284604 2.71431e-17 -1.05857e-16)
(-3.92314e-16 2.61864e-30 -1.37451e-31 23.5335 -6.05845e-15 2.09009e-14 0.289512 -7.12337e-17 2.59316e-16)
(0 3.94759e-30 0 23.5335 2.34571e-15 8.76622e-15 0.289512 3.01048e-17 -1.07236e-16)
(0 3.87525e-30 -4.84407e-31 23.4978 -5.74219e-15 2.1215e-14 0.294432 -7.14566e-17 2.67936e-16)
(0 0 0 23.4978 2.2911e-15 8.88297e-15 0.294432 2.67962e-17 -1.08496e-16)
(-9.66868e-16 2.16413e-29 -1.57815e-30 23.4557 -6.00058e-15 2.15038e-14 0.299347 -8.05194e-17 2.76466e-16)
(-1.72587e-15 -1.533e-29 9.5106e-31 23.4557 2.46143e-15 8.99105e-15 0.299347 3.55912e-17 -1.09461e-16)
(4.51561e-16 -2.62113e-30 1.5908e-31 23.4063 -6.39157e-15 2.17598e-14 0.304241 -8.43253e-17 2.84697e-16)
(1.28066e-15 1.17672e-31 0 23.4063 2.92135e-15 9.0727e-15 0.304241 3.97758e-17 -1.10227e-16)
(0 7.33219e-30 -4.58262e-31 23.3484 -6.26271e-15 2.19763e-14 0.309091 -8.01372e-17 2.92622e-16)
(0 -3.66609e-30 0 23.3484 2.63405e-15 9.1535e-15 0.309091 2.93154e-17 -1.10817e-16)
(-4.92782e-16 1.34205e-29 -6.24907e-31 23.2806 -6.41024e-15 2.21526e-14 0.313874 -9.14871e-17 3.00185e-16)
(0 -1.07967e-29 4.49864e-31 23.2806 2.46739e-15 9.2074e-15 0.313874 3.67737e-17 -1.11055e-16)
(-5.13911e-16 -9.0837e-31 -2.05351e-31 23.2016 -7.03184e-15 1.6558e-14 0.318565 -1.00258e-16 1.49737e-16)
(0 7.06593e-30 0 23.2016 2.93074e-15 9.23878e-15 0.318565 4.31672e-17 -1.11139e-16)
(0 -2.08093e-29 1.35804e-28 23.1099 -6.88371e-15 3.27377e-29 0.323133 -9.0783e-17 0)
(2.14153e-15 2.09663e-29 -1.30058e-30 23.1099 2.60464e-15 9.25428e-15 0.323133 2.90207e-17 -1.10802e-16)
(0 6.80934e-30 -4.25584e-31 23.0041 -6.37018e-15 -4.44889e-15 0.327547 -8.9376e-17 5.76756e-17)
(0 -3.40467e-30 0 23.0041 1.71177e-15 9.24458e-15 0.327547 1.93047e-17 -1.101e-16)
(5.79333e-16 7.09559e-31 -2.03322e-31 22.8824 -6.04722e-15 -5.12249e-15 0.331772 -8.4812e-17 6.82529e-17)
(1.37656e-15 -3.16762e-30 0 22.8824 1.37618e-15 9.19216e-15 0.331772 2.0355e-17 -1.08858e-16)
(-6.01799e-16 -1.04905e-29 2.01001e-31 22.7435 -5.95101e-15 -5.83435e-15 0.335774 -8.98936e-17 7.94378e-17)
(2.40719e-15 1.33046e-29 -4.10129e-31 22.7435 1.49197e-15 9.08965e-15 0.335774 2.34624e-17 -1.0731e-16)
(-6.24579e-16 -1.02478e-29 -2.03183e-31 22.5858 -5.9335e-15 -6.56599e-15 0.339515 -8.74797e-17 9.19124e-17)
(0 1.28836e-29 -4.02614e-31 22.5858 1.37e-15 8.99217e-15 0.339515 1.74414e-17 -1.05438e-16)
(0 1.58094e-29 -3.95236e-31 22.4079 -5.87748e-15 -7.30809e-15 0.342959 -9.15589e-17 1.04509e-16)
(2.59064e-15 -1.56162e-29 3.95236e-31 22.4079 1.245e-15 8.84247e-15 0.342959 2.0504e-17 -1.02789e-16)
(-1.34205e-15 1.14781e-29 -3.79586e-31 22.2086 -6.82604e-15 -8.07548e-15 0.346068 -1.20479e-16 1.18188e-16)
(2.6841e-15 1.9946e-31 0 22.2086 1.46052e-15 8.63791e-15 0.346068 2.48471e-17 -9.98022e-17)
(0 -9.14121e-30 0 21.9869 -7.56834e-15 -8.82003e-15 0.348809 -1.18687e-16 1.32477e-16)
(0 9.14121e-30 0 21.9869 1.79488e-15 8.42337e-15 0.348809 3.19421e-17 -9.64567e-17)
(1.68391e-15 -8.9737e-30 3.73904e-31 21.742 -7.25459e-15 -9.49685e-15 0.35115 -1.14824e-16 1.46391e-16)
(0 8.9737e-30 -3.73904e-31 21.742 2.19763e-15 8.17624e-15 0.35115 3.887e-17 -9.23495e-17)
(-7.42637e-16 1.14515e-29 -5.33132e-31 21.4734 -7.06624e-15 -1.01832e-14 0.353063 -1.16925e-16 1.59461e-16)
(-2.97055e-15 -6.07414e-30 0 21.4734 3.05654e-15 7.91691e-15 0.353063 6.15758e-17 -8.77042e-17)
(7.66933e-16 6.00142e-30 1.57074e-31 21.1811 -6.70005e-15 -1.0891e-14 0.354525 -1.06803e-16 1.74625e-16)
(3.06773e-15 -5.54174e-30 0 21.1811 3.36351e-15 7.63197e-15 0.354525 5.0685e-17 -8.21894e-17)
(7.91395e-16 1.43299e-29 -2.06048e-31 20.8652 -6.27294e-15 -1.15901e-14 0.355518 -1.06661e-16 1.89336e-16)
(-3.16558e-15 -6.99645e-29 3.53723e-31 20.8652 9.24104e-16 7.30927e-15 0.355518 7.86172e-18 -7.61886e-17)
(-3.40745e-17 -5.68396e-30 2.09648e-31 20.5265 -6.54855e-15 -1.22457e-14 0.356033 -1.20471e-16 2.05217e-16)
(3.26397e-15 8.59085e-30 0 20.5265 1.15459e-15 6.96098e-15 0.356033 3.23887e-17 -6.96191e-17)
(-1.53518e-15 -1.63622e-29 6.81757e-31 20.1659 -7.06454e-15 -1.28149e-14 0.356065 -1.29071e-16 2.19409e-16)
(6.72555e-15 1.68673e-29 -6.81757e-31 20.1659 2.63183e-15 6.57004e-15 0.356065 6.08089e-17 -6.20632e-17)
(2.37251e-15 -2.13942e-29 7.85933e-31 19.7849 -7.19247e-15 -1.33351e-14 0.355616 -1.29656e-16 2.33238e-16)
(1.9548e-15 1.63357e-29 -6.69264e-31 19.7849 3.18909e-15 6.19421e-15 0.355616 5.38417e-17 -5.43189e-17)
(-8.90266e-16 1.05441e-29 2.33308e-31 19.3852 -6.66264e-15 -1.37934e-14 0.354697 -1.14339e-16 3.22198e-16)
(-3.56106e-15 -5.55726e-30 -3.285e-31 19.3852 2.13657e-15 5.8867e-15 0.354697 2.41732e-17 -4.61436e-17)
(1.45232e-15 -2.57984e-30 6.44961e-31 18.9686 -5.8639e-15 -1.41656e-14 0.353323 -1.04449e-16 6.87411e-16)
(-1.45232e-15 2.57984e-30 0 18.9686 1.42345e-15 5.57862e-15 0.353323 2.90038e-17 -3.6854e-17)
(-9.39836e-16 1.78625e-29 -3.16571e-31 18.5375 -5.06768e-15 -1.20743e-14 0.351516 -8.80897e-17 8.69019e-16)
(-1.42571e-15 -7.5977e-30 -6.33142e-31 18.5375 1.5086e-15 5.19334e-15 0.351516 2.83519e-17 -2.62812e-17)
(0 -2.48616e-30 0 18.0941 -4.40545e-15 -4.05608e-15 0.349302 -8.24951e-17 8.19236e-16)
(0 -7.00649e-46 0 18.0941 0 4.84241e-15 0.349302 9.86076e-32 -1.59267e-17)
(0 1.2203e-29 0 17.6409 -4.51854e-15 1.61716e-15 0.346712 -9.59127e-17 8.25406e-16)
(-3.95653e-15 -1.74212e-29 -6.1015e-31 17.6409 -3.69702e-16 4.53961e-15 0.346712 1.82238e-17 -4.42932e-18)
(-3.35163e-16 9.31394e-30 -5.98969e-31 17.1803 -5.18568e-15 1.33812e-15 0.34378 -1.12668e-16 8.31354e-16)
(0 -4.79176e-30 0 17.1803 1.00616e-15 4.25645e-15 0.34378 3.69052e-17 7.80433e-18)
(-1.0379e-15 -2.04143e-30 0 16.7147 -6.28238e-15 1.06575e-15 0.340539 -1.44848e-16 8.36126e-16)
(0 9.4079e-30 0 16.7147 1.8796e-15 3.98982e-15 0.340539 4.00803e-17 2.101e-17)
(-8.24255e-16 -1.31408e-29 0 16.2466 -6.95187e-15 8.96766e-16 0.337028 -1.45097e-16 7.63947e-16)
(2.94829e-15 1.19069e-29 0 16.2466 1.60007e-15 3.69816e-15 0.337028 2.65285e-17 3.47604e-17)
(-1.08592e-15 4.93748e-30 0 15.7781 -6.31274e-15 7.32011e-16 0.333281 -1.22899e-16 6.81439e-16)
(0 -9.83003e-30 0 15.7781 9.26803e-30 3.45164e-15 0.333281 9.86076e-32 4.84962e-17)
(-2.2192e-15 1.64813e-29 5.56258e-31 15.3113 -4.94675e-15 5.57707e-16 0.329334 -9.08942e-17 5.97912e-16)
(-4.43839e-15 -1.15109e-29 -5.56258e-31 15.3113 -1.26228e-15 3.31954e-15 0.329334 1.91391e-17 6.21978e-17)
(1.13302e-15 1.04241e-29 0 14.848 -3.82093e-15 4.55099e-16 0.325223 -7.7433e-17 5.13384e-16)
(-4.53208e-15 -1.78532e-29 -5.49835e-31 14.848 -1.79305e-15 3.23553e-15 0.325223 3.56433e-17 7.06287e-17)
(-1.2071e-15 8.57693e-30 0 14.3899 -3.65175e-15 3.88918e-16 0.320979 -8.66507e-17 4.29023e-16)
(0 -4.28847e-30 0 14.3899 -1.00339e-15 3.09235e-15 0.320979 5.77939e-17 6.82253e-17)
(-2.3581e-15 -7.26642e-30 0 13.9384 -3.78187e-15 2.57374e-16 0.316634 -8.63589e-17 3.43383e-16)
(8.24744e-15 9.08772e-30 5.24051e-32 13.9384 2.71612e-16 2.8971e-15 0.316634 1.39555e-16 6.42744e-17)
(-1.20164e-15 1.5078e-29 5.16592e-31 13.4949 -4.21479e-15 7.01468e-17 0.312214 -1.10279e-16 2.56458e-16)
(4.80654e-15 -1.20877e-29 -4.80573e-31 13.4949 -2.55228e-16 2.74369e-15 0.312214 2.05088e-16 6.35801e-17)
(1.14195e-15 -8.11401e-30 0 13.0604 -5.12253e-15 2.19324e-17 0.307746 -1.33107e-16 1.67834e-16)
(0 8.11401e-30 0 13.0604 -5.33462e-16 2.73072e-15 0.307746 3.23243e-16 6.60749e-17)
(-2.36692e-15 1.06539e-29 0 12.6358 -4.56888e-15 2.73904e-17 0.303253 -8.74116e-17 8.06369e-17)
(4.98359e-15 2.22244e-31 5.54736e-32 12.6358 -1.77001e-17 2.70825e-15 0.303253 4.00385e-16 6.48792e-17)
(0 1.1729e-29 4.8871e-31 12.2217 -3.02946e-15 -5.57944e-18 0.298755 -6.15822e-17 -7.55517e-18)
(0 -7.81936e-30 -4.8871e-31 12.2217 -5.56259e-16 2.64671e-15 0.298755 4.6851e-16 6.55049e-17)
(-2.36923e-15 1.03741e-29 0 11.8188 -1.81392e-15 -1.88374e-17 0.29427 -2.91404e-17 -9.54169e-17)
(0 -3.83804e-30 0 11.8188 -1.28413e-15 2.65632e-15 0.29427 5.45313e-16 6.78107e-17)
(0 3.76771e-30 0 11.4273 -1.824e-15 -1.60459e-16 0.289814 -6.44231e-17 -1.84122e-16)
(0 0 0 11.4273 -4.22694e-16 2.69351e-15 0.289814 6.56313e-16 6.98922e-17)
(0 -1.1096e-29 0 11.0475 -4.32528e-15 -1.72688e-16 0.285401 -1.61698e-16 -2.74022e-16)
(5.32271e-15 1.11733e-29 9.55805e-32 11.0475 1.15228e-15 2.77071e-15 0.285401 7.16089e-16 7.44233e-17)
(0 2.54162e-29 4.53861e-31 10.6797 -5.57354e-15 -1.24943e-16 0.281042 -1.3368e-16 -3.61915e-16)
(0 -2.54162e-29 -4.53861e-31 10.6797 1.20263e-15 2.76259e-15 0.281042 7.59339e-16 7.20914e-17)
(-1.37118e-15 6.25681e-30 0 10.3238 -4.61257e-15 -2.13537e-16 0.276746 -1.15383e-16 -4.51611e-16)
(5.48473e-15 4.60817e-32 5.68879e-31 10.3238 8.65244e-16 2.71016e-15 0.276746 8.33436e-16 7.43678e-17)
(0 -2.09942e-29 0 9.97981 -4.29492e-15 -1.65461e-16 0.272521 -1.2107e-16 -5.41755e-16)
(5.56389e-15 2.102e-29 1.34331e-31 9.97981 4.55428e-16 2.77964e-15 0.272521 8.99299e-16 7.86681e-17)
(-3.34414e-15 1.64408e-29 4.29365e-31 9.64763 -3.91606e-15 -1.73352e-16 0.268375 -9.82898e-17 -6.29899e-16)
(-3.70814e-15 -1.37397e-29 -5.73339e-31 9.64763 -7.54733e-16 2.94562e-15 0.268375 9.7565e-16 8.65636e-17)
(0 -1.34879e-29 0 9.32709 -3.11543e-15 -1.32613e-16 0.264312 -7.94763e-17 -7.19059e-16)
(-5.71858e-15 1.34879e-29 2.64859e-31 9.32709 -5.48959e-16 3.12408e-15 0.264312 9.74663e-16 9.192e-17)
(-2.89707e-15 8.72388e-30 0 9.01798 -2.83661e-15 -1.1939e-17 0.260335 -8.56199e-17 -8.05365e-16)
(5.79414e-15 -3.31018e-30 1.72657e-31 9.01798 1.74073e-16 3.17293e-15 0.260335 9.84372e-16 9.26943e-17)
(-2.93428e-15 5.42377e-30 0 8.72006 -2.40847e-15 -1.37199e-16 0.256449 -5.68597e-17 -8.91617e-16)
(0 0 0 8.72006 -6.07259e-16 3.12986e-15 0.256449 9.89958e-16 9.28072e-17)
(0 -1.48418e-29 0 8.43305 -8.5566e-16 7.48336e-18 0.252655 -1.2915e-17 -9.81599e-16)
(5.94184e-15 6.37996e-30 2.06146e-31 8.43305 -1.78113e-15 3.16718e-15 0.252655 1.00642e-15 9.84616e-17)
(-3.2664e-15 1.52426e-29 0 8.15664 -5.46955e-16 7.67699e-17 0.248955 -2.07964e-17 -1.06686e-15)
(-6.01402e-15 -9.39457e-30 -6.12989e-31 8.15664 -2.19658e-15 3.26992e-15 0.248955 9.92985e-16 1.02682e-16)
(1.52128e-15 -1.11654e-29 -3.84267e-31 7.89053 -1.73574e-28 -7.84441e-17 0.245348 0 -1.15498e-15)
(0 6.14828e-30 3.84267e-31 7.89053 -1.97229e-15 3.36918e-15 0.245348 9.66474e-16 1.08449e-16)
(1.53879e-15 -7.55247e-30 -7.54452e-31 7.63437 4.73747e-16 1.07269e-16 0.241836 -7.55851e-18 -1.24145e-15)
(-6.15517e-15 3.01781e-30 4.9814e-31 7.63437 -2.57088e-15 3.43121e-15 0.241836 9.83462e-16 1.10547e-16)
(-3.1121e-15 1.72701e-29 3.70313e-31 7.38785 8.0041e-16 1.93393e-16 0.238418 -2.73084e-17 -1.32623e-15)
(0 -8.88752e-30 -3.70313e-31 7.38785 -2.29575e-15 3.43969e-15 0.238418 9.81066e-16 1.13092e-16)
(0 5.81644e-30 0 7.15062 7.6865e-16 1.09804e-16 0.235092 -2.47023e-17 -1.41459e-15)
(0 -1.16329e-29 -3.63527e-31 7.15062 -2.27022e-15 3.48732e-15 0.235092 9.96212e-16 1.17896e-16)
(1.58981e-15 1.44466e-31 7.13732e-31 6.92234 3.66314e-16 1.29496e-16 0.231858 -2.62145e-17 -1.50255e-15)
(-1.43257e-14 -2.85493e-30 -1.32416e-30 6.92234 -2.93658e-15 3.73687e-15 0.231858 1.00562e-15 1.34345e-16)
(4.7618e-15 -1.11167e-29 -7.00653e-31 6.70269 -6.47365e-16 1.57035e-16 0.228715 -4.3107e-17 -1.58942e-15)
(-3.15546e-15 8.40784e-30 7.00653e-31 6.70269 -1.5022e-15 3.91049e-15 0.228715 1.00468e-15 1.34381e-16)
(0 -1.37563e-29 -6.87814e-31 6.49132 -2.38489e-15 1.00355e-16 0.225661 -1.24593e-16 -1.67697e-15)
(6.49053e-15 1.37563e-29 1.04343e-30 6.49132 -7.85038e-17 3.80136e-15 0.225661 1.01833e-15 1.31696e-16)
(3.15914e-15 -8.08963e-30 6.7521e-31 6.28792 -4.83483e-15 1.27772e-17 0.222694 -2.21064e-16 -1.76776e-15)
(6.55481e-15 5.40168e-30 1.05128e-30 6.28792 -8.23986e-16 3.80649e-15 0.222694 1.04534e-15 1.39814e-16)
(-3.23961e-16 -2.11192e-29 0 6.09217 -5.77844e-15 5.85585e-17 0.219812 -1.98471e-16 -1.85946e-15)
(0 1.85594e-29 6.62837e-31 6.09217 -2.14969e-15 4.02452e-15 0.219812 1.04091e-15 1.52645e-16)
(-4.09945e-16 -1.01906e-29 -6.5069e-31 5.90375 -4.32778e-15 1.15688e-16 0.217014 -1.21049e-16 -1.9474e-15)
(5.21556e-15 1.30138e-29 1.07264e-30 5.90375 -7.52169e-16 4.13588e-15 0.217014 1.04106e-15 1.53399e-16)
(3.12401e-15 -1.80538e-29 -6.38767e-31 5.72238 -2.36362e-15 2.03565e-16 0.214297 -5.65165e-17 -2.03379e-15)
(1.20467e-14 1.53304e-29 1.53121e-30 5.72238 -1.58756e-16 4.14623e-15 0.214297 1.08207e-15 1.59184e-16)
(1.12317e-15 0 -6.27062e-31 5.54776 0 3.32227e-16 0.211658 -3.15544e-30 -2.11691e-15)
(-2.82403e-15 2.50825e-30 6.27062e-31 5.54776 -3.4259e-15 4.29876e-15 0.211658 1.08739e-15 1.71001e-16)
(-3.43182e-15 5.45684e-30 0 5.37962 1.5958e-15 3.32484e-16 0.209097 -3.12049e-17 -2.20022e-15)
(6.86364e-15 0 4.86583e-31 5.37962 -4.87856e-15 4.464e-15 0.209097 1.06164e-15 1.78228e-16)
(-1.73076e-15 2.71177e-30 0 5.21768 3.2464e-15 5.45131e-16 0.20661 -9.66173e-17 -2.28161e-15)
(6.92306e-15 2.41716e-30 5.1536e-31 5.21768 -4.68641e-15 4.46355e-15 0.20661 1.04001e-15 1.77408e-16)
(0 9.49148e-30 0 5.06168 3.63109e-15 4.64974e-16 0.204196 -1.62658e-16 -2.35781e-15)
(0 -2.37287e-30 -1.18643e-30 5.06168 -5.23104e-15 4.48812e-15 0.204196 9.93589e-16 1.86957e-16)
(1.75993e-15 -1.2015e-29 -1.16469e-30 4.91137 2.5179e-15 2.44265e-16 0.201853 -1.31772e-16 -2.44615e-15)
(7.03972e-15 9.31755e-30 1.71796e-30 4.91137 -5.41097e-15 4.73146e-15 0.201853 9.52107e-16 2.044e-16)
(1.77425e-15 -1.64229e-29 -5.71675e-31 4.76652 1.29535e-15 4.10943e-16 0.199577 -7.58905e-17 -2.52849e-15)
(7.09701e-15 1.37202e-29 1.16092e-30 4.76652 -5.52967e-15 4.76653e-15 0.199577 9.26232e-16 1.96983e-16)
(-1.78841e-15 2.70509e-30 0 4.6269 8.83892e-16 3.84168e-16 0.197368 -3.28094e-17 -2.60809e-15)
(7.15363e-15 4.4896e-30 1.17343e-30 4.6269 -5.71062e-15 4.7043e-15 0.197368 9.02021e-16 2.06714e-16)
(1.8024e-15 -7.10712e-30 -5.50916e-31 4.49229 1.55439e-15 4.28041e-16 0.195223 -4.31197e-17 -2.68953e-15)
(0 4.40733e-30 5.50916e-31 4.49229 -5.89054e-15 4.88346e-15 0.195223 8.42684e-16 2.20209e-16)
(-1.81624e-15 1.13434e-29 5.40821e-31 4.36247 2.47893e-15 5.24729e-16 0.19314 -9.31922e-17 -2.76443e-15)
(7.26494e-15 -4.32656e-30 1.21503e-31 4.36247 -6.5516e-15 5.0109e-15 0.19314 8.15392e-16 2.25955e-16)
(1.82992e-15 -6.93062e-30 -5.3091e-31 4.23725 2.99941e-15 5.4639e-16 0.191117 -1.27822e-16 -2.84244e-15)
(0 4.24728e-30 5.3091e-31 4.23725 -7.22215e-15 5.0963e-15 0.191117 7.98769e-16 2.36325e-16)
(-1.84345e-15 1.10141e-29 1.04236e-30 4.11643 2.87372e-15 5.30006e-16 0.189153 -1.44347e-16 -2.91702e-15)
(7.37381e-15 -4.16945e-30 -3.2336e-31 4.11643 -6.56776e-15 5.26402e-15 0.189153 7.26775e-16 2.50108e-16)
(1.85684e-15 5.51306e-30 0 3.99984 2.76385e-15 4.93823e-16 0.187244 -1.20919e-16 -2.99494e-15)
(7.42737e-15 -4.09305e-30 2.48846e-31 3.99984 -4.84043e-15 5.26813e-15 0.187244 6.88166e-16 2.4562e-16)
(0 8.03609e-30 5.02255e-31 3.88729 1.5257e-15 5.08801e-16 0.18539 -1.39349e-16 -3.07441e-15)
(7.48037e-15 -4.01804e-30 2.88883e-31 3.88729 -3.91767e-15 5.2566e-15 0.18539 6.74077e-16 2.58418e-16)
(0 -6.1914e-30 0 3.77862 2.32408e-16 5.56382e-16 0.183589 -5.67386e-18 -3.15324e-15)
(-7.53283e-15 0 -1.31164e-30 3.77862 -4.53739e-15 5.53106e-15 0.183589 6.0567e-16 2.81927e-16)
(0 1.54885e-29 1.93607e-30 3.67367 2.32117e-15 7.01974e-16 0.181838 -1.05001e-16 -3.22465e-15)
(7.58475e-15 -1.54885e-29 -1.0649e-30 3.67367 -4.97192e-15 5.54502e-15 0.181838 5.40902e-16 2.69557e-16)
(-1.90904e-15 -1.63548e-29 -1.90059e-30 3.57228 1.92566e-15 6.73344e-16 0.180137 -1.26096e-16 -3.29206e-15)
(0 1.90059e-29 1.90059e-30 3.57228 -4.42945e-15 5.354e-15 0.180137 4.98659e-16 2.73013e-16)
(-1.92177e-15 2.65542e-30 0 3.47432 1.10045e-15 4.3136e-16 0.178484 -6.85055e-17 -3.36364e-15)
(7.68708e-15 3.73152e-30 9.42692e-31 3.47432 -3.48548e-15 5.38784e-15 0.178484 4.43696e-16 2.83241e-16)
(0 -3.66314e-30 -9.15786e-31 3.37963 9.20601e-16 4.75102e-16 0.176876 -4.48693e-17 -3.43471e-15)
(0 3.66314e-30 9.15786e-31 3.37963 -4.51062e-15 5.66353e-15 0.176876 4.16128e-16 3.1256e-16)
(-4.04876e-15 7.19204e-30 8.99004e-31 3.2881 1.85075e-15 5.06414e-16 0.175313 -5.19994e-17 -3.49309e-15)
(0 -3.59602e-30 -8.99004e-31 3.2881 -5.58369e-15 5.9237e-15 0.175313 3.64718e-16 3.22042e-16)
(1.95924e-15 -2.38183e-29 -1.76506e-30 3.19959 3.83109e-15 7.1879e-16 0.173793 -1.47123e-16 -3.55567e-15)
(9.82426e-15 1.76506e-29 2.81743e-30 3.19959 -4.57174e-15 5.83331e-15 0.173793 3.12036e-16 3.14384e-16)
(-1.93022e-15 7.78267e-30 1.73272e-30 3.11398 5.2715e-15 9.06133e-16 0.172315 -2.72058e-16 -3.60305e-15)
(5.93517e-15 0 -1.51255e-30 3.11398 -4.55697e-15 5.77596e-15 0.172315 2.58345e-16 3.27742e-16)
(0 6.80386e-30 0 3.03116 4.42098e-15 7.07456e-16 0.170877 -3.14263e-16 -3.66003e-15)
(7.93466e-15 0 1.97611e-30 3.03116 -5.69017e-15 5.93137e-15 0.170877 2.1659e-16 3.43991e-16)
(-3.99143e-15 5.2283e-30 0 2.95101 3.48457e-15 6.76752e-16 0.169478 -1.85111e-16 -3.71564e-15)
(7.98287e-15 0 1.17487e-30 2.95101 -5.4424e-15 5.965e-15 0.169478 1.70956e-16 3.44008e-16)
(2.00767e-15 -1.89892e-29 -2.4588e-30 2.87344 4.5477e-15 6.42516e-16 0.168117 -2.17093e-16 -3.77058e-15)
(8.03066e-15 1.6392e-29 3.67203e-30 2.87344 -5.3049e-15 6.04128e-15 0.168117 1.23306e-16 3.65999e-16)
(0 1.60916e-29 3.21832e-30 2.79834 4.60567e-15 6.68485e-16 0.166792 -3.18161e-16 -3.82684e-15)
(-8.07806e-15 -1.60916e-29 -4.47145e-30 2.79834 -6.02295e-15 6.28135e-15 0.166792 5.22598e-17 3.85972e-16)
(0 0 1.57967e-30 2.72561 3.31884e-15 6.65031e-16 0.165502 -2.32277e-16 -3.88207e-15)
(-1.77855e-15 0 -1.57967e-30 2.72561 -5.15806e-15 6.4866e-15 0.165502 -2.484e-17 4.05049e-16)
(-4.08585e-15 2.06533e-29 3.10145e-30 2.65517 3.23633e-15 7.19906e-16 0.164246 -1.71796e-16 -3.93591e-15)
(0 -1.55073e-29 -3.10145e-30 2.65517 -4.04461e-15 6.4158e-15 0.164246 -6.69439e-17 3.9164e-16)
(-2.05449e-15 8.64456e-30 0 2.58692 4.95153e-15 1.04702e-15 0.163024 -2.30685e-16 -3.98748e-15)
(0 0 0 2.58692 -4.61678e-15 6.36122e-15 0.163024 -8.7427e-17 4.13343e-16)
(-3.36512e-15 2.09218e-29 7.47206e-31 2.52079 6.25824e-15 7.19142e-16 0.161833 -3.97292e-16 -4.03148e-15)
(-8.26388e-15 -1.7933e-29 -3.69804e-30 2.52079 -4.21347e-15 6.75384e-15 0.161833 -1.52288e-16 4.57469e-16)
(4.15472e-15 -5.016e-30 0 2.45669 6.32846e-15 6.86181e-16 0.160673 -4.09352e-16 -4.0982e-15)
(0 0 0 2.45669 -1.7246e-15 7.35577e-15 0.160673 -1.65726e-16 5.08678e-16)
(9.34412e-16 1.23025e-29 2.16022e-30 2.39455 5.76683e-15 1.1353e-15 0.159544 -4.21568e-16 -4.13673e-15)
(8.35466e-15 -1.72817e-29 -2.70111e-30 2.39455 -1.96087e-15 7.22315e-15 0.159544 -1.62182e-16 4.56806e-16)
(-2.09989e-15 2.4863e-30 0 2.3343 3.77126e-15 8.17665e-16 0.158443 -3.48968e-16 -4.18861e-15)
(8.39956e-15 5.65502e-30 2.39946e-30 2.3343 -3.61653e-15 6.78796e-15 0.158443 -1.9996e-16 4.68007e-16)
(4.22206e-15 5.3044e-31 0 2.27585 2.30243e-15 5.99963e-16 0.15737 -1.63064e-16 -4.25789e-15)
(0 -5.55139e-30 -1.38785e-30 2.27585 -2.92042e-15 7.19527e-15 0.15737 -2.25534e-16 5.3107e-16)
(5.18999e-15 -5.23463e-30 0 2.21916 2.68322e-15 6.50289e-16 0.156324 -1.56385e-16 -4.32394e-15)
(8.48839e-15 2.72483e-30 1.82933e-30 2.21916 -3.3086e-15 7.46173e-15 0.156324 -2.26551e-16 5.23662e-16)
(-2.13309e-15 1.05171e-29 1.33745e-30 2.16415 3.09509e-15 8.06335e-16 0.155304 -2.2354e-16 -4.38108e-15)
(-3.01167e-15 -2.6749e-30 -1.33745e-30 2.16415 -4.83483e-15 7.6716e-15 0.155304 -2.5437e-16 5.81584e-16)
(-2.95648e-15 0 -1.31294e-30 2.11076 4.32791e-15 9.2295e-16 0.15431 -2.2214e-16 -4.42564e-15)
(1.7152e-14 2.62588e-30 5.31428e-30 2.11076 -5.7881e-15 7.84657e-15 0.15431 -3.19578e-16 5.69301e-16)
(-2.15484e-15 -1.04509e-29 -2.57777e-30 2.05893 6.64343e-15 1.18701e-15 0.15334 -4.14491e-16 -4.46596e-15)
(0 1.28888e-29 2.57777e-30 2.05893 -6.18622e-15 7.65356e-15 0.15334 -4.64283e-16 5.74389e-16)
(-2.84912e-15 -1.01221e-29 -3.79579e-30 2.00862 6.34993e-15 8.87034e-16 0.152394 -5.79739e-16 -4.49673e-15)
(1.73249e-14 1.01221e-29 8.17861e-30 2.00862 -5.75727e-15 7.54948e-15 0.152394 -6.25476e-16 5.74763e-16)
(6.20598e-16 1.48294e-29 3.72624e-30 1.95976 4.31754e-15 4.67872e-16 0.151471 -3.85018e-16 -4.56722e-15)
(-2.79691e-15 -1.24208e-29 -3.72624e-30 1.95976 -6.68927e-15 7.85225e-15 0.151471 -7.16637e-16 6.43418e-16)
(0 -9.75455e-30 0 1.9123 4.44149e-15 7.87725e-16 0.150571 -2.83508e-16 -4.62373e-15)
(8.7478e-15 4.87727e-30 3.56791e-30 1.9123 -5.69675e-15 8.22099e-15 0.150571 -8.28842e-16 6.55207e-16)
(2.19752e-15 -1.91299e-29 -3.59092e-30 1.86619 4.98663e-15 8.90153e-16 0.149692 -4.19286e-16 -4.64985e-15)
(1.75802e-14 1.67576e-29 8.52346e-30 1.86619 -3.71334e-15 8.05704e-15 0.149692 -8.53436e-16 6.41038e-16)
(-2.20803e-15 2.36145e-30 0 1.8214 5.61221e-15 1.06304e-15 0.148833 -3.82723e-16 -4.66826e-15)
(8.83211e-15 4.70016e-30 3.74589e-30 1.8214 -4.32446e-15 7.89442e-15 0.148833 -9.19758e-16 6.52994e-16)
(-3.78999e-16 6.90554e-30 1.15351e-30 1.77786 6.50779e-15 8.48769e-16 0.147995 -5.38578e-16 -4.68226e-15)
(8.87388e-15 0 3.29928e-31 1.77786 -4.54883e-15 8.2581e-15 0.147995 -1.02391e-15 7.26481e-16)
(-4.45771e-15 9.13148e-30 2.26474e-30 1.73554 6.3088e-15 1.10112e-15 0.147177 -5.48069e-16 -4.72513e-15)
(6.36554e-15 0 4.89296e-31 1.73554 -3.81359e-15 8.5862e-15 0.147177 -1.10399e-15 7.33924e-16)
(-2.50315e-15 -8.89296e-30 -5.5581e-30 1.6944 6.81337e-15 1.20801e-15 0.146378 -5.24713e-16 -4.71995e-15)
(1.79134e-14 1.33394e-29 9.13657e-30 1.6944 -3.12035e-15 8.25023e-15 0.146378 -1.18909e-15 6.95104e-16)
(0 4.365e-30 2.1825e-30 1.6544 6.51955e-15 6.78203e-16 0.145597 -6.56955e-16 -4.74839e-15)
(6.54049e-15 0 8.07555e-31 1.6544 -4.74767e-15 8.15202e-15 0.145597 -1.25145e-15 7.44086e-16)
(-2.25965e-15 6.55413e-30 2.14251e-30 1.61549 5.66704e-15 9.0595e-16 0.144833 -4.92145e-16 -4.76916e-15)
(-2.41225e-15 0 -2.14251e-30 1.61549 -6.2756e-15 8.78684e-15 0.144833 -1.37529e-15 8.36492e-16)
(2.2698e-15 6.16014e-30 4.20649e-30 1.57764 6.44123e-15 1.07608e-15 0.144087 -5.27014e-16 -4.77498e-15)
(0 -1.26195e-29 -5.27294e-29 1.57764 -4.58535e-15 1.03833e-15 0.144087 -1.50942e-15 4.75396e-17)
(0 4.12941e-30 2.0647e-30 1.54082 6.60997e-15 9.31792e-16 0.143358 -6.53798e-16 -4.78223e-15)
(-2.32465e-15 0 -1.82564e-30 1.54082 -2.49987e-15 -4.27985e-29 0.143358 -1.5709e-15 1.57772e-30)
(-2.28995e-15 1.43671e-29 6.08061e-30 1.50499 6.44911e-15 1.07534e-15 0.142644 -5.78647e-16 -4.78871e-15)
(0 -1.21612e-29 -8.10748e-30 1.50499 -3.22925e-15 -8.6102e-16 0.142644 -1.6509e-15 9.28159e-17)
(-2.29994e-15 6.15064e-30 1.98973e-30 1.47012 6.69427e-15 1.14454e-15 0.141946 -6.47578e-16 -4.76849e-15)
(-1.144e-14 0 -5.57781e-30 1.47012 -4.26752e-15 -7.30263e-16 0.141946 -1.8823e-15 7.06069e-17)
(-2.30989e-15 -9.56474e-30 -3.90653e-30 1.43618 7.51167e-15 1.17573e-15 0.141263 -6.48355e-16 -4.76437e-15)
(1.84791e-14 1.17196e-29 1.10606e-29 1.43618 -4.26812e-15 -5.06079e-16 0.141263 -2.01146e-15 7.07642e-17)
(-2.15888e-15 -1.15048e-29 -3.83495e-30 1.40313 8.12617e-15 1.14071e-15 0.140595 -8.34675e-16 -4.75645e-15)
(1.1438e-14 1.15048e-29 7.42208e-30 1.40313 -5.36845e-15 5.01525e-17 0.140595 -2.13146e-15 3.9349e-17)
(-2.32963e-15 5.83625e-30 1.88234e-30 1.37096 7.28462e-15 8.59248e-16 0.13994 -7.9738e-16 -4.76471e-15)
(9.31852e-15 0 7.00649e-46 1.37096 -4.10473e-15 -1.2326e-32 0.13994 -2.32703e-15 7.88861e-31)
(0 3.69569e-30 3.69569e-30 1.33962 7.12574e-15 8.93388e-16 0.1393 -6.92313e-16 -4.74691e-15)
(5.19675e-15 -3.69569e-30 -1.43718e-31 1.33962 -3.07663e-15 -6.9807e-16 0.1393 -2.3571e-15 5.35561e-17)
(-2.34918e-15 -5.23192e-30 -5.44195e-30 1.3091 7.4451e-15 1.06071e-15 0.138672 -7.94e-16 -4.733e-15)
(9.39673e-15 1.45119e-29 8.95656e-30 1.3091 -4.13604e-15 -8.46202e-16 0.138672 -2.49336e-15 9.23162e-17)
(0 -1.06845e-29 -3.56148e-30 1.27936 7.17129e-15 8.98686e-16 0.138057 -7.86847e-16 -4.70652e-15)
(9.43556e-15 1.06845e-29 7.06279e-30 1.27936 -4.44928e-15 -6.12007e-16 0.138057 -2.68354e-15 8.73224e-17)
(-2.36855e-15 1.97834e-30 -1.74811e-30 1.25039 6.97847e-15 7.69505e-16 0.137454 -7.64139e-16 -4.70503e-15)
(0 3.49622e-30 1.74811e-30 1.25039 -4.82039e-15 -5.32182e-16 0.137454 -2.84816e-15 4.46643e-17)
(-2.37817e-15 1.95773e-30 -1.71608e-30 1.22216 6.70232e-15 7.29049e-16 0.136863 -7.73613e-16 -4.69899e-15)
(0 3.43215e-30 3.43215e-30 1.22216 -4.31079e-15 -6.64088e-16 0.136863 -3.04276e-15 7.28598e-17)