/*--------------------------------*- C++ -*----------------------------------*\
| =========                 |                                                 |
| \\      /  F ield         | OpenFOAM: The Open Source CFD Toolbox           |
|  \\    /   O peration     | Version:  2106                                  |
|   \\  /    A nd           | Website:  www.openfoam.com                      |
|    \\/     M anipulation  |                                                 |
\*---------------------------------------------------------------------------*/
FoamFile
{
    version     2.0;
    format      ascii;
    arch        "LSB;label=32;scalar=64";
    class       surfaceScalarField;
    location    "10100";
    object      phi;
}
// * * * * * * * * * * * * * * * * * * * * * * * * * * * * * * * * * * * * * //

dimensions      [0 3 -1 0 0 0 0];

oriented        oriented;

internalField   nonuniform List<scalar> 
3996
(
2.03805e-08
-4.68318e-18
1.47076e-22
8.28838e-23
7.3033e-23
6.26627e-08
-4.68522e-18
7.7982e-22
1.15061e-21
1.92123e-22
1.07305e-07
-4.68732e-18
8.14306e-22
2.24516e-21
2.03086e-22
1.54409e-07
-4.6895e-18
8.39846e-22
3.38711e-21
2.14672e-22
2.04084e-07
-4.69175e-18
8.69433e-22
4.52053e-21
2.26916e-22
2.56438e-07
-4.69403e-18
9.01551e-22
5.61798e-21
2.39854e-22
3.11589e-07
-4.69647e-18
9.34981e-22
6.86054e-21
2.53526e-22
3.69656e-07
-4.69896e-18
9.69492e-22
8.12737e-21
2.67974e-22
4.30763e-07
-4.70151e-18
1.00525e-21
9.31789e-21
2.8324e-22
4.95041e-07
-4.70426e-18
1.04234e-21
1.05482e-20
2.99372e-22
5.62625e-07
-4.70709e-18
1.08082e-21
1.17187e-20
3.16422e-22
6.33654e-07
-4.70989e-18
1.12071e-21
1.32087e-20
3.34445e-22
7.08273e-07
-4.71272e-18
1.16206e-21
1.46225e-20
3.53488e-22
7.86635e-07
-4.71549e-18
1.20492e-21
1.59756e-20
3.73611e-22
8.68896e-07
-4.71826e-18
1.24933e-21
1.751e-20
3.94883e-22
9.55219e-07
-4.72173e-18
1.29534e-21
1.92429e-20
4.17354e-22
1.04577e-06
-4.72503e-18
1.34302e-21
2.08643e-20
4.41083e-22
1.14073e-06
-4.72832e-18
1.39242e-21
2.24418e-20
4.66143e-22
1.24028e-06
-4.73173e-18
1.44358e-21
2.38579e-20
4.92596e-22
1.3446e-06
-4.73556e-18
1.49657e-21
2.57293e-20
5.20514e-22
1.45389e-06
-4.73939e-18
1.55143e-21
2.72567e-20
5.49967e-22
1.56835e-06
-4.74311e-18
1.60821e-21
2.89787e-20
5.81032e-22
1.68819e-06
-4.74726e-18
1.66694e-21
3.06842e-20
6.1379e-22
1.81362e-06
-4.75143e-18
1.72767e-21
3.23359e-20
6.48315e-22
1.94485e-06
-4.75545e-18
1.79041e-21
3.36256e-20
6.84692e-22
2.08212e-06
-4.75954e-18
1.85517e-21
3.53032e-20
7.23e-22
2.22565e-06
-4.76442e-18
1.92197e-21
3.70456e-20
7.63319e-22
2.37567e-06
-4.76892e-18
1.99082e-21
3.8826e-20
8.05729e-22
2.53243e-06
-4.77358e-18
2.06169e-21
4.05876e-20
8.50266e-22
2.69615e-06
-4.77783e-18
2.13454e-21
4.25078e-20
8.96968e-22
2.86708e-06
-4.78357e-18
2.20927e-21
4.49498e-20
9.45871e-22
3.04547e-06
-4.78876e-18
2.28584e-21
4.72262e-20
9.96988e-22
3.23154e-06
-4.7934e-18
2.36408e-21
4.8789e-20
1.05033e-21
3.42554e-06
-4.80011e-18
2.44379e-21
5.20901e-20
1.10594e-21
3.62769e-06
-4.80598e-18
2.52483e-21
5.39682e-20
1.16369e-21
3.83821e-06
-4.81149e-18
2.6069e-21
5.5583e-20
1.2236e-21
4.05731e-06
-4.81729e-18
2.68968e-21
5.66916e-20
1.28561e-21
4.28519e-06
-4.82223e-18
2.77281e-21
5.73982e-20
1.34966e-21
4.52204e-06
-4.82846e-18
2.85588e-21
6.01777e-20
1.41564e-21
4.76801e-06
-4.83329e-18
2.9385e-21
5.99785e-20
1.48325e-21
5.02326e-06
-4.83968e-18
3.02014e-21
6.19571e-20
1.55245e-21
5.28792e-06
-4.84823e-18
3.10037e-21
6.31896e-20
1.62288e-21
5.56208e-06
-4.85506e-18
3.17888e-21
6.59816e-20
1.69437e-21
5.84584e-06
-4.86214e-18
3.25513e-21
6.8882e-20
1.76641e-21
6.13925e-06
-4.86966e-18
3.32845e-21
7.28762e-20
1.83887e-21
6.44236e-06
-4.87559e-18
3.39849e-21
7.47049e-20
1.91136e-21
6.75518e-06
-4.88309e-18
3.46462e-21
7.55904e-20
1.98383e-21
7.07771e-06
-4.89054e-18
3.52661e-21
7.79141e-20
2.05605e-21
7.40996e-06
-4.89973e-18
3.58408e-21
8.20826e-20
2.1276e-21
7.75188e-06
-4.90617e-18
3.63672e-21
8.57592e-20
2.19817e-21
8.10345e-06
-4.91355e-18
3.68427e-21
8.55067e-20
2.26761e-21
8.46463e-06
-4.91921e-18
3.72657e-21
8.85328e-20
2.33628e-21
8.83538e-06
-4.92441e-18
3.76353e-21
8.85157e-20
2.40363e-21
9.21565e-06
-4.92992e-18
3.79514e-21
8.67216e-20
2.46991e-21
9.60541e-06
-4.93613e-18
3.8215e-21
8.91897e-20
2.53505e-21
1.00046e-05
-4.94491e-18
3.84275e-21
9.17621e-20
2.59847e-21
1.04133e-05
-4.95395e-18
3.85928e-21
9.4137e-20
2.66015e-21
1.08314e-05
-4.96305e-18
3.87132e-21
9.40366e-20
2.72014e-21
1.1259e-05
-4.96887e-18
3.87879e-21
9.25387e-20
2.77871e-21
1.1696e-05
-4.97415e-18
3.88143e-21
8.98961e-20
2.83603e-21
1.21426e-05
-4.97917e-18
3.87943e-21
8.81533e-20
2.8923e-21
1.25987e-05
-4.98431e-18
3.87276e-21
8.86329e-20
2.94766e-21
1.30644e-05
-4.98935e-18
3.86178e-21
8.73461e-20
3.00243e-21
1.35399e-05
-4.99877e-18
3.84605e-21
8.80038e-20
3.0566e-21
1.40251e-05
-5.00553e-18
3.82681e-21
8.74679e-20
3.10988e-21
1.45203e-05
-5.01021e-18
3.804e-21
8.64903e-20
3.16261e-21
1.50256e-05
-5.01388e-18
3.77778e-21
8.52802e-20
3.21424e-21
1.55411e-05
-5.01278e-18
3.74773e-21
8.27105e-20
3.26491e-21
1.6067e-05
-5.02222e-18
3.71286e-21
8.58735e-20
3.31645e-21
1.66035e-05
-5.0328e-18
3.67518e-21
8.79526e-20
3.36704e-21
1.71507e-05
-5.03855e-18
3.63527e-21
9.0839e-20
3.41591e-21
1.77089e-05
-5.04839e-18
3.59276e-21
8.85761e-20
3.46378e-21
1.82782e-05
-5.05287e-18
3.54744e-21
8.94687e-20
3.51286e-21
1.88589e-05
-5.06104e-18
3.49937e-21
8.86432e-20
3.56088e-21
1.94512e-05
-5.06373e-18
3.44846e-21
8.90284e-20
3.60792e-21
2.00554e-05
-5.06922e-18
3.39393e-21
8.71314e-20
3.65456e-21
2.06717e-05
-5.07208e-18
3.33641e-21
8.33521e-20
3.70007e-21
2.13003e-05
-5.07052e-18
3.27669e-21
7.8386e-20
3.74465e-21
2.19416e-05
-5.07332e-18
3.21161e-21
7.64764e-20
3.79009e-21
2.25959e-05
-5.07348e-18
3.14451e-21
7.13294e-20
3.83424e-21
2.32633e-05
-5.06922e-18
3.07414e-21
6.66482e-20
3.87722e-21
2.39443e-05
-5.06815e-18
2.99831e-21
5.73286e-20
3.9198e-21
2.4639e-05
-5.06705e-18
2.91655e-21
5.68373e-20
3.96402e-21
2.53479e-05
-5.06879e-18
2.82743e-21
5.16423e-20
4.00793e-21
2.60713e-05
-5.07176e-18
2.73288e-21
5.08045e-20
4.05199e-21
2.68094e-05
-5.08461e-18
2.63313e-21
4.89851e-20
4.09425e-21
2.75626e-05
-5.09932e-18
2.53118e-21
4.50433e-20
4.13538e-21
2.83312e-05
-5.1068e-18
2.4272e-21
4.22944e-20
4.17641e-21
2.91156e-05
-5.11574e-18
2.32272e-21
4.28592e-20
4.21693e-21
2.99162e-05
-5.11634e-18
2.21809e-21
3.64735e-20
4.25414e-21
3.07334e-05
-5.11007e-18
2.10921e-21
2.14078e-20
4.2883e-21
3.15674e-05
-5.10451e-18
1.99701e-21
1.04366e-20
4.32524e-21
3.24186e-05
-5.08906e-18
1.88462e-21
-1.64545e-21
4.35649e-21
3.32876e-05
-5.08735e-18
1.76238e-21
-1.48104e-20
4.38734e-21
3.41746e-05
-5.08276e-18
1.6357e-21
-3.30823e-20
4.41762e-21
3.50801e-05
-5.08124e-18
1.50735e-21
-4.66666e-20
4.44339e-21
3.60044e-05
-5.07783e-18
1.37765e-21
-6.174e-20
4.46435e-21
3.69481e-05
-5.0694e-18
1.24626e-21
-7.88127e-20
4.48352e-21
3.79115e-05
-5.06309e-18
1.10517e-21
-1.00327e-19
4.50438e-21
3.8895e-05
-5.05185e-18
9.58176e-22
-1.178e-19
4.53309e-21
3.98992e-05
-5.04002e-18
8.03641e-22
-1.38103e-19
4.56511e-21
4.09244e-05
-5.03998e-18
6.40492e-22
-1.48563e-19
4.60143e-21
4.19713e-05
-5.03874e-18
4.76352e-22
-1.55992e-19
4.63956e-21
4.30401e-05
-5.02914e-18
3.12455e-22
-1.76899e-19
4.67287e-21
4.41314e-05
-5.02272e-18
1.51501e-22
-1.9088e-19
4.70114e-21
4.52457e-05
-5.0187e-18
-1.287e-23
-2.00745e-19
4.71962e-21
4.63836e-05
-5.01871e-18
-1.75369e-22
-2.13564e-19
4.73179e-21
4.75454e-05
-5.00947e-18
-3.34775e-22
-2.34145e-19
4.73149e-21
4.87318e-05
-5.00095e-18
-4.95221e-22
-2.51239e-19
4.72323e-21
4.99433e-05
-4.97871e-18
-6.50002e-22
-2.64185e-19
4.7008e-21
5.11805e-05
-4.96276e-18
-8.20093e-22
-2.84522e-19
4.67327e-21
5.24438e-05
-4.95324e-18
-9.9478e-22
-3.06674e-19
4.6467e-21
5.37339e-05
-4.93231e-18
-1.17513e-21
-3.26774e-19
4.621e-21
5.50513e-05
-4.91632e-18
-1.35997e-21
-3.47077e-19
4.59431e-21
5.63967e-05
-4.90436e-18
-1.54983e-21
-3.6474e-19
4.5582e-21
5.77706e-05
-4.89448e-18
-1.73683e-21
-3.86349e-19
4.516e-21
5.91736e-05
-4.87699e-18
-1.91936e-21
-3.95991e-19
4.46753e-21
6.06065e-05
-4.84352e-18
-2.10543e-21
-4.2477e-19
4.40485e-21
6.20698e-05
-4.82194e-18
-2.31442e-21
-4.16299e-19
4.36618e-21
6.35642e-05
-4.79862e-18
-2.52713e-21
-4.34092e-19
4.30867e-21
6.50903e-05
-4.7722e-18
-2.7614e-21
-4.54781e-19
4.24488e-21
6.66489e-05
-4.77615e-18
-3.01821e-21
-4.57937e-19
4.18125e-21
6.82406e-05
-4.75714e-18
-3.29193e-21
-4.75323e-19
4.09484e-21
6.98661e-05
-4.7466e-18
-3.58125e-21
-4.92106e-19
4.01709e-21
7.15263e-05
-4.72806e-18
-3.86285e-21
-5.27477e-19
3.92794e-21
7.32217e-05
-4.69663e-18
-4.13629e-21
-5.49594e-19
3.83815e-21
7.49532e-05
-4.65706e-18
-4.41287e-21
-5.84403e-19
3.71706e-21
7.67216e-05
-4.64936e-18
-4.72791e-21
-6.10704e-19
3.59638e-21
7.85276e-05
-4.61792e-18
-5.02515e-21
-6.41205e-19
3.45796e-21
8.0372e-05
-4.59796e-18
-5.31188e-21
-6.60524e-19
3.34646e-21
8.22556e-05
-4.5675e-18
-5.58305e-21
-6.85645e-19
3.27248e-21
8.41793e-05
-4.52988e-18
-5.86598e-21
-7.03272e-19
3.17508e-21
8.6144e-05
-4.50644e-18
-6.15062e-21
-7.21629e-19
3.0304e-21
8.81504e-05
-4.4607e-18
-6.39982e-21
-7.44633e-19
2.89717e-21
9.01996e-05
-4.42518e-18
-6.66558e-21
-7.67082e-19
2.79041e-21
9.22923e-05
-4.39907e-18
-6.98353e-21
-8.05729e-19
2.69743e-21
9.44295e-05
-4.35645e-18
-7.26447e-21
-8.31239e-19
2.60946e-21
9.66122e-05
-4.32164e-18
-7.5967e-21
-8.47782e-19
2.53091e-21
9.88413e-05
-4.28161e-18
-7.92662e-21
-8.64885e-19
2.46403e-21
0.000101118
-4.23944e-18
-8.24308e-21
-8.81716e-19
2.34167e-21
0.000103443
-4.19956e-18
-8.56586e-21
-9.10625e-19
2.1387e-21
0.000105817
-4.13648e-18
-8.91063e-21
-9.62756e-19
1.90777e-21
0.000108242
-4.10109e-18
-9.30259e-21
-9.75949e-19
1.7488e-21
0.000110718
-4.05121e-18
-9.61331e-21
-9.90019e-19
1.57921e-21
0.000113247
-4.00049e-18
-9.99163e-21
-1.02699e-18
1.41361e-21
0.00011583
-3.95137e-18
-1.03685e-20
-1.0553e-18
1.24553e-21
0.000118467
-3.90868e-18
-1.07215e-20
-1.08714e-18
1.05097e-21
0.000121161
-3.85154e-18
-1.11014e-20
-1.11274e-18
8.18964e-22
0.000123911
-3.81542e-18
-1.14739e-20
-1.15053e-18
5.41162e-22
0.00012672
-3.73178e-18
-1.17345e-20
-1.17261e-18
2.9941e-22
0.000129589
-3.66293e-18
-1.21102e-20
-1.18463e-18
3.05722e-23
0.000132518
-3.61143e-18
-1.24287e-20
-1.2044e-18
-4.26822e-22
0.00013551
-3.57063e-18
-1.27251e-20
-1.22897e-18
-9.53615e-22
0.000138565
-3.4962e-18
-1.2837e-20
-1.25862e-18
-1.49782e-21
0.000141684
-3.4491e-18
-1.30831e-20
-1.28062e-18
-2.06729e-21
0.00014487
-3.38498e-18
-1.33975e-20
-1.27636e-18
-2.53267e-21
0.000148123
-3.32478e-18
-1.38009e-20
-1.29458e-18
-2.99262e-21
0.000151445
-3.27209e-18
-1.43057e-20
-1.32142e-18
-3.68414e-21
0.000154837
-3.22231e-18
-1.49253e-20
-1.34651e-18
-4.56295e-21
0.000158301
-3.15578e-18
-1.57146e-20
-1.38486e-18
-5.31284e-21
0.000161839
-3.09387e-18
-1.6658e-20
-1.40044e-18
-5.88175e-21
0.000165451
-3.01093e-18
-1.7512e-20
-1.44814e-18
-6.62095e-21
0.000169139
-2.98039e-18
-1.85417e-20
-1.48646e-18
-7.27202e-21
0.000172905
-2.96796e-18
-1.93946e-20
-1.51545e-18
-7.91794e-21
0.000176751
-2.96616e-18
-2.0268e-20
-1.50355e-18
-8.54497e-21
0.000180677
-2.93358e-18
-2.10423e-20
-1.53323e-18
-9.26962e-21
0.000184687
-2.8896e-18
-2.17832e-20
-1.55202e-18
-1.03334e-20
0.000188781
-2.84944e-18
-2.2508e-20
-1.56552e-18
-1.11645e-20
0.000192961
-2.8314e-18
-2.3017e-20
-1.60385e-18
-1.1764e-20
0.000197229
-2.80318e-18
-2.3155e-20
-1.61411e-18
-1.23243e-20
0.000201587
-2.73668e-18
-2.30144e-20
-1.65516e-18
-1.28735e-20
0.000206036
-2.66837e-18
-2.2821e-20
-1.61085e-18
-1.30127e-20
0.000210579
-2.66947e-18
-2.28419e-20
-1.63619e-18
-1.34759e-20
0.000215218
-2.62621e-18
-2.26497e-20
-1.6307e-18
-1.39577e-20
0.000219954
-2.5932e-18
-2.26003e-20
-1.61609e-18
-1.43858e-20
0.000224789
-2.53975e-18
-2.27988e-20
-1.61118e-18
-1.4793e-20
0.000229725
-2.52471e-18
-2.32497e-20
-1.60955e-18
-1.53618e-20
0.000234765
-2.51579e-18
-2.34962e-20
-1.57436e-18
-1.59414e-20
0.000239911
-2.51211e-18
-2.35123e-20
-1.56456e-18
-1.66303e-20
0.000245164
-2.45166e-18
-2.32025e-20
-1.61601e-18
-1.77741e-20
0.000250526
-2.33743e-18
-2.2348e-20
-1.66596e-18
-1.87257e-20
0.000256001
-2.29337e-18
-2.27524e-20
-1.67823e-18
-1.92799e-20
0.00026159
-2.23946e-18
-2.29499e-20
-1.7262e-18
-1.94663e-20
0.000267296
-2.23755e-18
-2.31797e-20
-1.70329e-18
-1.94396e-20
0.000273121
-2.186e-18
-2.23835e-20
-1.72695e-18
-2.04441e-20
0.000279066
-2.07985e-18
-2.10734e-20
-1.81169e-18
-2.10693e-20
0.000285136
-2.03949e-18
-2.15666e-20
-1.8012e-18
-2.02516e-20
0.000291332
-2.0442e-18
-2.13513e-20
-1.83685e-18
-2.00902e-20
0.000297656
-2.0149e-18
-2.18166e-20
-1.77166e-18
-1.94164e-20
0.000304111
-1.96741e-18
-2.1717e-20
-1.78223e-18
-1.94924e-20
0.000310701
-1.9678e-18
-2.24034e-20
-1.78316e-18
-1.88232e-20
0.000317426
-1.91173e-18
-2.25545e-20
-1.77035e-18
-1.89117e-20
0.000324291
-1.88142e-18
-2.30166e-20
-1.81424e-18
-1.90376e-20
0.000331297
-1.84411e-18
-2.32916e-20
-1.79053e-18
-1.93859e-20
0.000338448
-1.89595e-18
-2.42395e-20
-1.78899e-18
-1.97063e-20
0.000345746
-1.86753e-18
-2.37767e-20
-1.774e-18
-2.09928e-20
0.000353195
-1.81434e-18
-2.32217e-20
-1.74702e-18
-2.2218e-20
0.000360796
-1.78369e-18
-2.38863e-20
-1.75866e-18
-2.44688e-20
0.000368554
-1.76325e-18
-2.35094e-20
-1.73216e-18
-2.73436e-20
0.00037647
-1.74085e-18
-2.28645e-20
-1.68977e-18
-3.0586e-20
0.000384548
-1.71862e-18
-2.41492e-20
-1.63037e-18
-3.12677e-20
0.000392792
-1.65659e-18
-2.37735e-20
-1.61459e-18
-2.94587e-20
0.000401203
-1.62224e-18
-2.26362e-20
-1.59041e-18
-2.91567e-20
0.000409786
-1.53123e-18
-2.2724e-20
-1.58111e-18
-2.79954e-20
0.000418543
-1.48458e-18
-2.51013e-20
-1.54607e-18
-2.58926e-20
0.000427478
-1.44812e-18
-2.61683e-20
-1.46004e-18
-2.42896e-20
0.000436594
-1.42798e-18
-2.6578e-20
-1.4006e-18
-2.34717e-20
0.000445893
-1.37256e-18
-2.76039e-20
-1.41727e-18
-2.2791e-20
0.000455381
-1.31426e-18
-2.7686e-20
-1.34567e-18
-1.96744e-20
0.000465059
-1.26327e-18
-2.77628e-20
-1.18725e-18
-1.86992e-20
0.000474931
-1.21787e-18
-2.86117e-20
-1.17173e-18
-1.92976e-20
0.000485001
-1.21315e-18
-3.2042e-20
-1.15043e-18
-2.04064e-20
0.000495272
-1.20679e-18
-3.44013e-20
-1.17534e-18
-2.37044e-20
0.000505748
-1.16478e-18
-3.50626e-20
-1.11817e-18
-3.09336e-20
0.000516431
-1.18229e-18
-3.9084e-20
-1.19158e-18
-3.74641e-20
0.000527326
-1.18994e-18
-4.10528e-20
-1.16443e-18
-4.09246e-20
0.000538435
-1.13375e-18
-4.38241e-20
-1.17861e-18
-4.00066e-20
0.000549763
-1.10551e-18
-4.39261e-20
-1.08372e-18
-3.9261e-20
0.000561313
-1.11314e-18
-4.82122e-20
-1.12155e-18
-4.28343e-20
0.000573088
-1.15915e-18
-5.12515e-20
-1.08895e-18
-4.51214e-20
0.000585091
-1.04468e-18
-4.9158e-20
-1.04512e-18
-5.11956e-20
0.000597327
-1.04001e-18
-5.0884e-20
-1.03193e-18
-5.76021e-20
0.000609798
-1.22163e-18
-5.3855e-20
-1.05774e-18
-5.88924e-20
0.000622508
-1.10528e-18
-4.78822e-20
-1.04216e-18
-5.38178e-20
0.00063546
-1.04345e-18
-3.7045e-20
-1.11792e-18
-4.88411e-20
0.000648657
-1.05316e-18
-3.23939e-20
-1.09908e-18
-4.22599e-20
0.000662102
-1.08511e-18
-2.9948e-20
-1.07615e-18
-3.73631e-20
0.000675798
-1.06408e-18
-2.66935e-20
-1.11358e-18
-3.0848e-20
0.000689748
-1.12531e-18
-3.28282e-20
-1.09051e-18
-2.19934e-20
0.000703955
-1.1054e-18
-3.51997e-20
-1.10596e-18
-2.59154e-20
0.000718421
-1.08101e-18
-3.63914e-20
-1.03564e-18
-3.23923e-20
0.000733147
-1.0825e-18
-3.41413e-20
-1.11892e-18
-4.33776e-20
0.000748137
-9.58792e-19
-3.05285e-20
-1.09163e-18
-4.46545e-20
0.000763392
-1.03194e-18
-4.06056e-20
-1.24038e-18
-3.84134e-20
0.000778913
-9.77085e-19
-3.51161e-20
-1.3256e-18
-2.61711e-20
0.000794701
-1.10119e-18
-4.16524e-20
-1.17027e-18
-1.30038e-20
0.000810757
-1.12723e-18
-3.85045e-20
-1.16653e-18
-1.17071e-20
0.00082708
-1.09702e-18
-2.7415e-20
-1.08768e-18
-1.0487e-20
0.00084367
-1.26784e-18
-3.33807e-20
-1.04197e-18
-2.08688e-20
0.000860527
-1.37535e-18
-4.23318e-20
-1.06843e-18
-2.95615e-20
0.000877647
-1.26206e-18
-3.39717e-20
-1.19499e-18
-4.11769e-20
0.000895029
-1.39068e-18
-2.80977e-20
-9.66412e-19
-2.3674e-20
0.000912669
-1.21909e-18
-1.13187e-20
-1.04126e-18
-3.63461e-20
0.000930563
-1.01914e-18
-3.21913e-21
-9.40159e-19
-3.12947e-20
0.000948706
-8.59086e-19
-4.85643e-21
-1.0115e-18
-3.93178e-20
0.000967091
-7.81213e-19
-1.7589e-20
-9.08714e-19
-3.97129e-20
0.000985711
-8.0078e-19
-4.35445e-20
-9.7477e-19
-4.9923e-20
0.00100456
-8.25951e-19
-4.78231e-20
-9.10943e-19
-4.7563e-20
0.00102362
-7.3316e-19
-2.7772e-20
-8.60451e-19
-4.88105e-20
0.00104289
-7.84695e-21
-6.3305e-19
-3.93433e-20
-7.76039e-19
2.03805e-08
1.35359e-22
8.69875e-23
6.26627e-08
8.44648e-22
3.55867e-22
1.07305e-07
1.58351e-21
6.41081e-22
1.54409e-07
2.35839e-21
9.64438e-22
2.04084e-07
3.1773e-21
1.24381e-21
2.56438e-07
4.00327e-21
1.60095e-21
3.11589e-07
4.90572e-21
1.91431e-21
3.69656e-07
5.79811e-21
2.27164e-21
4.30763e-07
6.75734e-21
2.61732e-21
4.95041e-07
7.82018e-21
2.99005e-21
5.62625e-07
8.90456e-21
3.46216e-21
6.33654e-07
9.96631e-21
3.86192e-21
7.08273e-07
1.10084e-20
4.30424e-21
7.86635e-07
1.19223e-20
5.02981e-21
8.68896e-07
1.31275e-20
5.46622e-21
9.55219e-07
1.41994e-20
6.08665e-21
1.04577e-06
1.55037e-20
6.83761e-21
1.14073e-06
1.67818e-20
7.47376e-21
1.24028e-06
1.82039e-20
8.12582e-21
1.3446e-06
1.93966e-20
8.9357e-21
1.45389e-06
2.06648e-20
9.56325e-21
1.56835e-06
2.20075e-20
1.06387e-20
1.68819e-06
2.3339e-20
1.13617e-20
1.81362e-06
2.48718e-20
1.21425e-20
1.94485e-06
2.67591e-20
1.26419e-20
2.08212e-06
2.86136e-20
1.37969e-20
2.22565e-06
3.03239e-20
1.535e-20
2.37567e-06
3.24751e-20
1.65033e-20
2.53243e-06
3.43246e-20
1.76862e-20
2.69615e-06
3.64827e-20
1.87405e-20
2.86708e-06
3.85933e-20
1.98576e-20
3.04547e-06
4.02654e-20
2.11696e-20
3.23154e-06
4.24148e-20
2.28264e-20
3.42554e-06
4.43715e-20
2.426e-20
3.62769e-06
4.65267e-20
2.54828e-20
3.83821e-06
4.91526e-20
2.68668e-20
4.05731e-06
5.09619e-20
2.87398e-20
4.28519e-06
5.36278e-20
3.03898e-20
4.52204e-06
5.56628e-20
3.16374e-20
4.76801e-06
5.78596e-20
3.37379e-20
5.02326e-06
6.01762e-20
3.52184e-20
5.28792e-06
6.32966e-20
3.70586e-20
5.56208e-06
6.81133e-20
3.75974e-20
5.84584e-06
6.99863e-20
4.07293e-20
6.13925e-06
7.30497e-20
4.3988e-20
6.44236e-06
7.4226e-20
4.80552e-20
6.75518e-06
7.63551e-20
5.13384e-20
7.07771e-06
7.88123e-20
5.36769e-20
7.40996e-06
8.00624e-20
5.68178e-20
7.75188e-06
8.39611e-20
5.85138e-20
8.10345e-06
8.72393e-20
6.26359e-20
8.46463e-06
9.17917e-20
6.50744e-20
8.83538e-06
9.62737e-20
6.77788e-20
9.21565e-06
1.00943e-19
7.07567e-20
9.60541e-06
1.05121e-19
7.34204e-20
1.00046e-05
1.09322e-19
7.58259e-20
1.04133e-05
1.14196e-19
7.89932e-20
1.08314e-05
1.1726e-19
8.30404e-20
1.1259e-05
1.20008e-19
8.69907e-20
1.1696e-05
1.23721e-19
9.03252e-20
1.21426e-05
1.27004e-19
9.39101e-20
1.25987e-05
1.31979e-19
9.96316e-20
1.30644e-05
1.32554e-19
1.0452e-19
1.35399e-05
1.35611e-19
1.10145e-19
1.40251e-05
1.38306e-19
1.15623e-19
1.45203e-05
1.42588e-19
1.17933e-19
1.50256e-05
1.45642e-19
1.20112e-19
1.55411e-05
1.47928e-19
1.28479e-19
1.6067e-05
1.5125e-19
1.32956e-19
1.66035e-05
1.54687e-19
1.36577e-19
1.71507e-05
1.59358e-19
1.42102e-19
1.77089e-05
1.58214e-19
1.51513e-19
1.82782e-05
1.6256e-19
1.55526e-19
1.88589e-05
1.62672e-19
1.57155e-19
1.94512e-05
1.65959e-19
1.60345e-19
2.00554e-05
1.68667e-19
1.62335e-19
2.06717e-05
1.74648e-19
1.64104e-19
2.13003e-05
1.72151e-19
1.66747e-19
2.19416e-05
1.7804e-19
1.68839e-19
2.25959e-05
1.80759e-19
1.75213e-19
2.32633e-05
1.82864e-19
1.80445e-19
2.39443e-05
1.81256e-19
1.87237e-19
2.4639e-05
1.76139e-19
1.97974e-19
2.53479e-05
1.77598e-19
2.02736e-19
2.60713e-05
1.79702e-19
2.05095e-19
2.68094e-05
1.82439e-19
2.09657e-19
2.75626e-05
1.82994e-19
2.1604e-19
2.83312e-05
1.90502e-19
2.23453e-19
2.91156e-05
1.92638e-19
2.28296e-19
2.99162e-05
1.88756e-19
2.32417e-19
3.07334e-05
1.92913e-19
2.44481e-19
3.15674e-05
2.03965e-19
2.39544e-19
3.24186e-05
2.00235e-19
2.46601e-19
3.32876e-05
1.9453e-19
2.54964e-19
3.41746e-05
1.99299e-19
2.5731e-19
3.50801e-05
2.03115e-19
2.62281e-19
3.60044e-05
2.07534e-19
2.68566e-19
3.69481e-05
2.00297e-19
2.81488e-19
3.79115e-05
1.99514e-19
2.95142e-19
3.8895e-05
2.02565e-19
2.98981e-19
3.98992e-05
2.04326e-19
3.02035e-19
4.09244e-05
2.06125e-19
3.06267e-19
4.19713e-05
2.07612e-19
3.06966e-19
4.30401e-05
2.19079e-19
3.0525e-19
4.41314e-05
2.18471e-19
3.03975e-19
4.52457e-05
2.23061e-19
3.09809e-19
4.63836e-05
2.22446e-19
3.12906e-19
4.75454e-05
2.19206e-19
3.20433e-19
4.87318e-05
2.19056e-19
3.16177e-19
4.99433e-05
2.05881e-19
3.24375e-19
5.11805e-05
2.04905e-19
3.35442e-19
5.24438e-05
2.04392e-19
3.41359e-19
5.37339e-05
2.16871e-19
3.47053e-19
5.50513e-05
2.17192e-19
3.49894e-19
5.63967e-05
2.20003e-19
3.57635e-19
5.77706e-05
2.22241e-19
3.61418e-19
5.91736e-05
2.21324e-19
3.66779e-19
6.06065e-05
2.14257e-19
3.81523e-19
6.20698e-05
2.17913e-19
3.89409e-19
6.35642e-05
2.17206e-19
3.85535e-19
6.50903e-05
2.23833e-19
3.93741e-19
6.66489e-05
2.03872e-19
4.01424e-19
6.82406e-05
2.03874e-19
4.20223e-19
6.98661e-05
2.066e-19
4.29255e-19
7.15263e-05
2.12562e-19
4.28207e-19
7.32217e-05
2.2351e-19
4.14502e-19
7.49532e-05
2.17351e-19
4.11673e-19
7.67216e-05
2.13035e-19
4.14733e-19
7.85276e-05
2.26975e-19
4.29479e-19
8.0372e-05
2.35037e-19
4.46523e-19
8.22556e-05
2.32072e-19
4.37811e-19
8.41793e-05
2.32241e-19
4.33212e-19
8.6144e-05
2.34414e-19
4.41704e-19
8.81504e-05
2.3037e-19
4.37716e-19
9.01996e-05
1.98857e-19
4.4366e-19
9.22923e-05
2.02097e-19
4.41599e-19
9.44295e-05
1.77019e-19
4.44349e-19
9.66122e-05
1.76097e-19
4.4661e-19
9.88413e-05
1.88296e-19
4.23593e-19
0.000101118
1.85978e-19
4.05225e-19
0.000103443
1.7492e-19
3.94326e-19
0.000105817
1.78013e-19
3.88461e-19
0.000108242
1.96907e-19
3.89472e-19
0.000110718
1.76463e-19
3.96825e-19
0.000113247
1.82567e-19
3.75317e-19
0.00011583
1.85692e-19
3.61413e-19
0.000118467
1.60917e-19
3.50751e-19
0.000121161
1.56709e-19
3.39528e-19
0.000123911
1.47391e-19
3.26467e-19
0.00012672
1.06788e-19
3.06333e-19
0.000129589
1.16951e-19
2.77193e-19
0.000132518
1.13466e-19
2.93545e-19
0.00013551
1.44124e-19
3.05134e-19
0.000138565
1.36234e-19
2.80086e-19
0.000141684
1.10954e-19
2.86704e-19
0.00014487
8.8123e-20
3.20382e-19
0.000148123
7.05072e-20
2.97501e-19
0.000151445
4.86598e-20
2.65065e-19
0.000154837
1.49273e-20
2.7895e-19
0.000158301
8.93597e-21
3.05685e-19
0.000161839
4.89604e-20
2.80479e-19
0.000165451
6.17105e-20
2.43089e-19
0.000169139
8.6363e-20
2.19048e-19
0.000172905
5.70414e-20
2.12532e-19
0.000176751
3.41761e-20
2.29774e-19
0.000180677
1.7209e-20
1.7476e-19
0.000184687
3.12432e-21
1.73195e-19
0.000188781
1.17379e-20
1.74801e-19
0.000192961
1.49452e-20
1.63635e-19
0.000197229
1.38858e-20
1.48008e-19
0.000201587
1.82854e-20
1.33611e-19
0.000206036
-7.62863e-22
1.27598e-19
0.000210579
-1.41588e-20
8.59671e-20
0.000215218
-3.56759e-20
6.66326e-20
0.000219954
-8.73371e-20
4.89561e-20
0.000224789
-1.04836e-19
1.19175e-20
0.000229725
-1.06619e-19
-1.37996e-20
0.000234765
-1.10592e-19
-1.80371e-20
0.000239911
-1.32828e-19
-5.26905e-20
0.000245164
-1.0442e-19
-6.46106e-20
0.000250526
-1.86039e-19
-4.69463e-20
0.000256001
-1.96213e-19
-3.60015e-20
0.00026159
-2.12618e-19
-7.34399e-20
0.000267296
-1.76188e-19
-9.09994e-20
0.000273121
-1.10873e-19
-8.81122e-20
0.000279066
-1.65475e-19
-1.04447e-19
0.000285136
-1.08086e-19
-1.34939e-19
0.000291332
-1.93094e-19
-1.12171e-19
0.000297656
-1.48864e-19
-1.15322e-19
0.000304111
-1.8826e-19
-9.5394e-20
0.000310701
-1.92431e-19
-1.6944e-19
0.000317426
-1.91657e-19
-1.92058e-19
0.000324291
-1.76119e-19
-2.51272e-19
0.000331297
-2.1029e-19
-2.03128e-19
0.000338448
-2.32247e-19
-2.58735e-19
0.000345746
-2.22073e-19
-2.82801e-19
0.000353195
-2.42436e-19
-3.10667e-19
0.000360796
-1.99631e-19
-3.17778e-19
0.000368554
-2.14815e-19
-3.08319e-19
0.00037647
-3.30734e-19
-2.41577e-19
0.000384548
-3.02047e-19
-1.94122e-19
0.000392792
-2.75789e-19
-2.89541e-19
0.000401203
-3.34839e-19
-2.8626e-19
0.000409786
-3.79211e-19
-3.24077e-19
0.000418543
-3.39218e-19
-3.67787e-19
0.000427478
-3.27432e-19
-3.09843e-19
0.000436594
-3.81604e-19
-2.45525e-19
0.000445893
-3.47485e-19
-2.23024e-19
0.000455381
-3.29235e-19
-2.77167e-19
0.000465059
-3.27502e-19
-2.26301e-19
0.000474931
-3.93617e-19
-2.66099e-19
0.000485001
-4.28586e-19
-3.37726e-19
0.000495272
-4.41171e-19
-4.98507e-19
0.000505748
-5.02792e-19
-4.15831e-19
0.000516431
-4.45962e-19
-4.32856e-19
0.000527326
-4.89615e-19
-3.48468e-19
0.000538435
-3.77946e-19
-3.57391e-19
0.000549763
-4.06643e-19
-3.46991e-19
0.000561313
-3.7104e-19
-3.65658e-19
0.000573088
-3.42513e-19
-3.8107e-19
0.000585091
-3.55671e-19
-3.62511e-19
0.000597327
-4.01357e-19
-3.68635e-19
0.000609798
-4.34736e-19
-3.42755e-19
0.000622508
-2.63629e-19
-3.22027e-19
0.00063546
-3.33024e-19
-3.51232e-19
0.000648657
-3.90322e-19
-3.43119e-19
0.000662102
-4.01568e-19
-3.57814e-19
0.000675798
-5.04898e-19
-4.0033e-19
0.000689748
-4.93841e-19
-4.57805e-19
0.000703955
-4.59195e-19
-4.50049e-19
0.000718421
-3.73985e-19
-4.71031e-19
0.000733147
-3.37375e-19
-4.00225e-19
0.000748137
-3.97e-19
-2.94536e-19
0.000763392
-2.54591e-19
-3.87233e-19
0.000778913
-2.9106e-19
-3.99966e-19
0.000794701
-2.84963e-19
-3.71198e-19
0.000810757
-2.51516e-19
-4.44419e-19
0.00082708
-3.93754e-19
-5.21598e-19
0.00084367
-6.19013e-19
-4.21687e-19
0.000860527
-6.5387e-19
-5.59971e-19
0.000877647
-6.54925e-19
-5.67462e-19
0.000895029
-7.01813e-19
-6.57967e-19
0.000912669
-6.37858e-19
-4.90053e-19
0.000930563
-6.2224e-19
-5.90833e-19
0.000948706
-6.24834e-19
-6.77191e-19
0.000967091
-6.33312e-19
-6.23422e-19
0.000985711
-5.06788e-19
-6.33713e-19
0.00100456
-4.23974e-19
-6.73745e-19
0.00102362
-3.42203e-19
-4.99455e-19
0.00104289
-4.83012e-19
-3.46786e-19
0.00104289
-7.68485e-19
-1.90106e-20
-7.82627e-19
-1.77303e-20
0.00102362
-6.80707e-19
-1.72558e-20
-5.54752e-19
7.98936e-21
0.00100456
-5.94268e-19
-7.06725e-21
-3.32815e-19
4.43219e-21
0.000985711
-5.02516e-19
-2.17063e-21
-4.77635e-19
-1.3541e-20
0.000967091
-4.85948e-19
1.21966e-20
-4.22179e-19
-1.04404e-20
0.000948706
-5.5225e-19
1.36567e-20
-3.79485e-19
-2.75498e-21
0.000930563
-4.87346e-19
2.51154e-20
-3.91523e-19
-3.40566e-21
0.000912669
-3.87662e-19
3.32349e-20
-5.34198e-19
-1.07304e-20
0.000895029
-4.21608e-19
1.33994e-20
-5.33633e-19
-1.09596e-20
0.000877647
-5.13961e-19
-7.07757e-21
-5.2061e-19
-7.45344e-21
0.000860527
-4.92693e-19
-1.08518e-20
-4.75929e-19
-1.2841e-20
0.00084367
-6.17734e-19
-2.08492e-20
-5.50519e-19
-2.04813e-20
0.00082708
-6.61614e-19
-8.11275e-21
-4.75746e-19
-2.5305e-21
0.000810757
-4.28185e-19
-1.41577e-21
-5.76159e-19
8.13029e-21
0.000794701
-3.79536e-19
-2.31357e-21
-5.19766e-19
1.28836e-20
0.000778913
-3.75669e-19
-9.28084e-21
-4.63279e-19
7.20163e-21
0.000763392
-3.89359e-19
-1.46674e-20
-2.89186e-19
-2.01284e-22
0.000748137
-3.27563e-19
-1.28035e-20
-3.1469e-19
-1.04725e-20
0.000733147
-3.15676e-19
-1.31894e-20
-3.74237e-19
-1.34628e-20
0.000718421
-3.53257e-19
-3.54524e-21
-3.6224e-19
-1.58584e-20
0.000703955
-3.09157e-19
1.3794e-22
-3.15785e-19
-1.18257e-20
0.000689748
-2.68119e-19
-1.0726e-21
-3.2547e-19
-1.10771e-20
0.000675798
-2.07203e-19
-3.73087e-21
-2.19115e-19
-5.70519e-21
0.000662102
-2.70248e-19
-6.38234e-21
-2.24926e-19
2.5904e-22
0.000648657
-2.82343e-19
-6.01767e-21
-1.94621e-19
6.53635e-21
0.00063546
-2.23038e-19
-3.57367e-21
-1.86494e-19
6.165e-21
0.000622508
-1.54557e-19
-4.39287e-22
-2.73349e-19
2.94604e-21
0.000609798
-2.07772e-19
-5.02178e-21
-3.60794e-19
6.08271e-22
0.000597327
-2.64653e-19
-3.96918e-21
-2.08098e-19
-4.19584e-22
0.000585091
-2.62262e-19
-1.48189e-22
-3.05971e-19
-4.115e-21
0.000573088
-3.08437e-19
7.94117e-22
-2.79646e-19
-5.31938e-21
0.000561313
-2.11284e-19
7.90931e-21
-2.93058e-19
-1.29916e-21
0.000549763
-2.5345e-19
6.83091e-21
-2.70875e-19
4.71074e-21
0.000538435
-2.81696e-19
8.65295e-22
-2.419e-19
6.53026e-21
0.000527326
-2.27514e-19
-1.64975e-21
-3.18691e-19
5.35861e-21
0.000516431
-1.65443e-19
-5.83708e-21
-3.49016e-19
3.57105e-21
0.000505748
-2.3351e-19
-1.04067e-20
-3.39823e-19
5.58986e-21
0.000495272
-3.43556e-19
-1.04187e-20
-3.26697e-19
1.00801e-20
0.000485001
-2.66563e-19
-6.31049e-21
-3.48194e-19
8.99821e-21
0.000474931
-3.2212e-19
-6.87807e-21
-3.38396e-19
9.55611e-21
0.000465059
-3.57965e-19
-3.78213e-21
-2.58857e-19
9.48308e-21
0.000455381
-3.37113e-19
-3.11359e-22
-3.25153e-19
8.16541e-21
0.000445893
-3.01453e-19
1.44951e-21
-2.20108e-19
8.3685e-21
0.000436594
-2.65364e-19
2.31783e-21
-2.69889e-19
6.82894e-21
0.000427478
-2.90909e-19
2.9999e-21
-2.13018e-19
8.18852e-21
0.000418543
-2.84571e-19
2.81184e-21
-2.54596e-19
5.77815e-21
0.000409786
-2.63665e-19
2.22076e-21
-2.36484e-19
4.51782e-21
0.000401203
-2.53947e-19
2.31887e-21
-2.55622e-19
3.02183e-21
0.000392792
-2.41824e-19
2.35577e-21
-2.78679e-19
1.42953e-21
0.000384548
-2.36626e-19
1.80714e-21
-2.95476e-19
-1.11248e-21
0.00037647
-2.34085e-19
2.20023e-21
-2.49957e-19
-2.58711e-21
0.000368554
-2.16764e-19
3.18809e-21
-2.70712e-19
-5.71552e-21
0.000360796
-2.34863e-19
4.90643e-21
-2.60249e-19
-6.26277e-21
0.000353195
-1.82431e-19
5.33484e-21
-2.84633e-19
-6.07519e-21
0.000345746
-1.9082e-19
5.13856e-21
-2.67855e-19
-5.63692e-21
0.000338448
-1.69533e-19
5.90722e-21
-2.40783e-19
-4.7442e-21
0.000331297
-1.08531e-19
7.08857e-21
-1.68188e-19
-4.16176e-21
0.000324291
-1.83748e-19
4.99992e-21
-1.0191e-19
-2.95819e-21
0.000317426
-1.74278e-19
3.73427e-21
-1.17289e-19
-2.44956e-21
0.0003107
-1.79889e-19
3.11409e-21
-1.16805e-19
-2.40893e-21
0.000304111
-2.09569e-19
2.79242e-21
-1.2143e-19
-1.55605e-21
0.000297656
-2.2885e-19
2.9285e-21
-1.4413e-19
-7.00068e-22
0.000291332
-1.98172e-19
3.45651e-21
-1.74513e-19
2.73857e-22
0.000285136
-2.16704e-19
3.17994e-21
-1.05108e-19
1.38715e-21
0.000279067
-1.92096e-19
3.46435e-21
-1.23708e-19
1.71119e-21
0.000273121
-1.72921e-19
2.98119e-21
-9.30411e-20
2.00825e-21
0.000267296
-1.86484e-19
2.1716e-21
-8.33324e-20
1.65976e-21
0.00026159
-1.72939e-19
1.6667e-21
-1.30279e-19
1.54769e-21
0.000256001
-1.80815e-19
1.41598e-21
-1.40565e-19
1.89335e-21
0.000250526
-1.36528e-19
1.02829e-21
-1.1681e-19
2.08853e-21
0.000245164
-1.29114e-19
3.32542e-22
-1.51966e-19
1.8858e-21
0.000239911
-1.47678e-19
-1.22453e-22