/*--------------------------------*- C++ -*----------------------------------*\
| =========                 |                                                 |
| \\      /  F ield         | OpenFOAM: The Open Source CFD Toolbox           |
|  \\    /   O peration     | Version:  2106                                  |
|   \\  /    A nd           | Website:  www.openfoam.com                      |
|    \\/     M anipulation  |                                                 |
\*---------------------------------------------------------------------------*/
FoamFile
{
    version     2.0;
    format      ascii;
    arch        "LSB;label=32;scalar=64";
    class       volVectorField;
    location    "10100";
    object      U;
}
// * * * * * * * * * * * * * * * * * * * * * * * * * * * * * * * * * * * * * //

dimensions      [0 1 -1 0 0 0 0];

internalField   nonuniform List<vector> 
2000
(
(0.00220254 -1.2464e-15 5.97531e-18)
(0.00220254 1.32368e-19 6.88772e-18)
(0.00664792 -2.9921e-16 3.85749e-17)
(0.00664792 1.25598e-19 2.73683e-17)
(0.0111754 -2.4642e-15 4.05477e-17)
(0.0111754 6.7508e-19 2.84021e-17)
(0.0157865 -1.86288e-15 4.3143e-17)
(0.0157865 1.12223e-18 2.94769e-17)
(0.0204828 -1.86317e-15 4.56864e-17)
(0.0204828 1.58107e-18 3.05933e-17)
(0.0252657 -1.87278e-15 4.82671e-17)
(0.0252657 2.02432e-18 3.17534e-17)
(0.0301369 -1.8791e-15 5.09542e-17)
(0.0301369 2.4864e-18 3.29587e-17)
(0.0350979 -1.87951e-15 5.37657e-17)
(0.0350979 3.00173e-18 3.42105e-17)
(0.0401505 -1.88e-15 5.67001e-17)
(0.0401505 3.49483e-18 3.55105e-17)
(0.0452962 -1.881e-15 5.97602e-17)
(0.0452962 3.97107e-18 3.6861e-17)
(0.0505367 -1.88215e-15 6.29511e-17)
(0.0505367 4.44885e-18 3.82645e-17)
(0.0558737 -1.8833e-15 6.62784e-17)
(0.0558737 4.98559e-18 3.97226e-17)
(0.061309 -1.88444e-15 6.97479e-17)
(0.061309 5.57034e-18 4.12372e-17)
(0.0668444 -1.88555e-15 7.3365e-17)
(0.0668444 6.11508e-18 4.281e-17)
(0.0724815 -1.88669e-15 7.71355e-17)
(0.0724815 6.71401e-18 4.44445e-17)
(0.0782222 -1.88792e-15 8.10656e-17)
(0.0782222 7.36322e-18 4.61437e-17)
(0.0840683 -1.88927e-15 8.51602e-17)
(0.0840683 8.01221e-18 4.79096e-17)
(0.0900216 -1.8906e-15 8.94258e-17)
(0.0900216 8.68641e-18 4.97424e-17)
(0.0960838 -1.89194e-15 9.38683e-17)
(0.0960838 9.27728e-18 5.16445e-17)
(0.102257 -1.89339e-15 9.84938e-17)
(0.102257 9.88895e-18 5.36236e-17)
(0.108542 -1.8949e-15 1.03307e-16)
(0.108542 1.0602e-17 5.56753e-17)
(0.114942 -1.89642e-15 1.08315e-16)
(0.114942 1.12554e-17 5.78017e-17)
(0.121457 -1.89798e-15 1.13522e-16)
(0.121457 1.19191e-17 6.00119e-17)
(0.12809 -1.89964e-15 1.18933e-16)
(0.12809 1.26122e-17 6.23017e-17)
(0.134842 -1.9013e-15 1.24552e-16)
(0.134842 1.31909e-17 6.46778e-17)
(0.141714 -1.90294e-15 1.30385e-16)
(0.141714 1.38002e-17 6.71368e-17)
(0.148707 -1.90471e-15 1.36434e-16)
(0.148707 1.44958e-17 6.968e-17)
(0.155822 -1.90662e-15 1.427e-16)
(0.155822 1.51744e-17 7.23128e-17)
(0.16306 -1.9084e-15 1.49183e-16)
(0.16306 1.5927e-17 7.50268e-17)
(0.17042 -1.91019e-15 1.55881e-16)
(0.17042 1.65969e-17 7.7832e-17)
(0.177904 -1.9122e-15 1.62793e-16)
(0.177904 1.74867e-17 8.07173e-17)
(0.18551 -1.91431e-15 1.6991e-16)
(0.18551 1.84811e-17 8.36813e-17)
(0.193237 -1.91631e-15 1.77226e-16)
(0.193237 1.9214e-17 8.67289e-17)
(0.201084 -1.9186e-15 1.8473e-16)
(0.201084 2.01333e-17 8.9841e-17)
(0.209048 -1.92111e-15 1.88474e-16)
(0.209048 2.12125e-17 9.3025e-17)
(0.217127 -1.92337e-15 1.87032e-16)
(0.217127 2.1938e-17 9.62652e-17)
(0.225315 -1.92561e-15 1.85326e-16)
(0.225315 2.24206e-17 9.95623e-17)
(0.23361 -1.92773e-15 1.8334e-16)
(0.23361 2.29295e-17 1.02886e-16)
(0.242004 -1.92998e-15 1.81042e-16)
(0.242004 2.35161e-17 1.06232e-16)
(0.250492 -1.93216e-15 1.78429e-16)
(0.250492 2.39521e-17 1.09608e-16)
(0.259066 -1.93445e-15 1.75474e-16)
(0.259066 2.44647e-17 1.12964e-16)
(0.267717 -1.93746e-15 1.72162e-16)
(0.267717 2.50859e-17 1.16307e-16)
(0.276438 -1.94043e-15 1.68503e-16)
(0.276438 2.58844e-17 1.19619e-16)
(0.285216 -1.9433e-15 1.64516e-16)
(0.285216 2.68562e-17 1.22887e-16)
(0.294043 -1.94623e-15 1.60151e-16)
(0.294043 2.83956e-17 1.26109e-16)
(0.302906 -1.9489e-15 1.55417e-16)
(0.302906 2.96627e-17 1.2926e-16)
(0.311794 -1.95156e-15 1.50287e-16)
(0.311794 2.98592e-17 1.32327e-16)
(0.320695 -1.95457e-15 1.44801e-16)
(0.320695 3.0669e-17 1.35292e-16)
(0.329597 -1.9578e-15 1.38971e-16)
(0.329597 3.21892e-17 1.38126e-16)
(0.338487 -1.96104e-15 1.32806e-16)
(0.338487 3.35352e-17 1.40861e-16)
(0.347354 -1.9639e-15 1.26332e-16)
(0.347354 3.41396e-17 1.43517e-16)
(0.356187 -1.96651e-15 1.19585e-16)
(0.356187 3.48647e-17 1.46066e-16)
(0.364975 -1.96871e-15 1.14873e-16)
(0.364975 3.55734e-17 1.48453e-16)
(0.373708 -1.97078e-15 1.15709e-16)
(0.373708 3.51179e-17 1.50754e-16)
(0.382376 -1.97317e-15 1.16468e-16)
(0.382376 3.52139e-17 1.52929e-16)
(0.39097 -1.97599e-15 1.17052e-16)
(0.39097 3.61365e-17 1.55031e-16)
(0.399484 -1.97961e-15 1.17558e-16)
(0.399484 3.71385e-17 1.57012e-16)
(0.407909 -1.98324e-15 1.17986e-16)
(0.407909 3.78017e-17 1.58886e-16)
(0.416241 -1.98631e-15 1.18335e-16)
(0.416241 3.73232e-17 1.60677e-16)
(0.424475 -1.98858e-15 1.18589e-16)
(0.424475 3.64322e-17 1.62477e-16)
(0.432605 -1.99052e-15 1.18836e-16)
(0.432605 3.53452e-17 1.64243e-16)
(0.44063 -1.99269e-15 1.19025e-16)
(0.44063 3.53154e-17 1.65949e-16)
(0.448546 -1.99485e-15 1.1913e-16)
(0.448546 3.56593e-17 1.67556e-16)
(0.456351 -1.9976e-15 1.19105e-16)
(0.456351 3.50089e-17 1.69145e-16)
(0.464045 -2.00093e-15 1.19156e-16)
(0.464045 3.50324e-17 1.70797e-16)
(0.471626 -2.00312e-15 1.19138e-16)
(0.471626 3.49868e-17 1.72419e-16)
(0.479095 -2.00466e-15 1.1915e-16)
(0.479095 3.43418e-17 1.74057e-16)
(0.486452 -2.00538e-15 1.19114e-16)
(0.486452 3.33729e-17 1.75752e-16)
(0.493697 -2.00699e-15 1.18944e-16)
(0.493697 3.38147e-17 1.77499e-16)
(0.500832 -2.01104e-15 1.1889e-16)
(0.500832 3.48786e-17 1.7936e-16)
(0.507858 -2.01438e-15 1.18777e-16)
(0.507858 3.54045e-17 1.81162e-16)
(0.514777 -2.01726e-15 1.18601e-16)
(0.514777 3.60485e-17 1.83021e-16)
(0.52159 -2.02029e-15 1.18551e-16)
(0.52159 3.6025e-17 1.84988e-16)
(0.528299 -2.02275e-15 1.18357e-16)
(0.528299 3.49811e-17 1.87152e-16)
(0.534907 -2.02473e-15 1.18363e-16)
(0.534907 3.52533e-17 1.8945e-16)
(0.541415 -2.02687e-15 1.18339e-16)
(0.541415 3.52316e-17 1.91767e-16)
(0.547826 -2.0283e-15 1.18159e-16)
(0.547826 3.43456e-17 1.94088e-16)
(0.554143 -2.02862e-15 1.18354e-16)
(0.554143 3.25347e-17 1.96549e-16)
(0.560367 -2.02914e-15 1.18274e-16)
(0.560367 3.09705e-17 1.99116e-16)
(0.5665 -2.02895e-15 1.18231e-16)
(0.5665 2.9446e-17 2.01827e-16)
(0.572546 -2.02827e-15 1.18448e-16)
(0.572546 2.68589e-17 2.04591e-16)
(0.578507 -2.02765e-15 1.18544e-16)
(0.578507 2.57283e-17 2.07418e-16)
(0.584384 -2.02699e-15 1.18629e-16)
(0.584384 2.30864e-17 2.10366e-16)
(0.590181 -2.02704e-15 1.18763e-16)
(0.590181 2.07789e-17 2.13724e-16)
(0.595898 -2.02812e-15 1.18899e-16)
(0.595898 2.05247e-17 2.17084e-16)
(0.60154 -2.03123e-15 1.18938e-16)
(0.60154 2.06449e-17 2.20376e-16)
(0.607107 -2.03676e-15 1.18921e-16)
(0.607107 1.90398e-17 2.23872e-16)
(0.612603 -2.04172e-15 1.19046e-16)
(0.612603 1.67346e-17 2.27688e-16)
(0.618028 -2.04475e-15 1.19135e-16)
(0.618028 1.76784e-17 2.31523e-16)
(0.623385 -2.04616e-15 1.19431e-16)
(0.623385 1.64151e-17 2.35502e-16)
(0.628677 -2.04538e-15 1.19773e-16)
(0.628677 1.10642e-17 2.39777e-16)
(0.633904 -2.04296e-15 1.20081e-16)
(0.633904 6.88622e-18 2.44233e-16)
(0.63907 -2.0389e-15 1.20864e-16)
(0.63907 1.72008e-18 2.48668e-16)
(0.644174 -2.0356e-15 1.21019e-16)
(0.644174 -3.73079e-18 2.53342e-16)
(0.649221 -2.0337e-15 1.2137e-16)
(0.649221 -9.467e-18 2.58452e-16)
(0.65421 -2.03288e-15 1.21885e-16)
(0.65421 -1.53755e-17 2.63377e-16)
(0.659144 -2.03181e-15 1.22192e-16)
(0.659144 -2.17196e-17 2.68545e-16)
(0.664025 -2.02948e-15 1.22824e-16)
(0.664025 -2.82476e-17 2.7405e-16)
(0.668853 -2.02628e-15 1.23359e-16)
(0.668853 -3.63158e-17 2.79699e-16)
(0.673631 -2.02267e-15 1.24064e-16)
(0.673631 -4.46242e-17 2.85607e-16)
(0.67836 -2.01965e-15 1.24582e-16)
(0.67836 -5.1471e-17 2.9186e-16)
(0.683041 -2.01617e-15 1.25227e-16)
(0.683041 -5.59907e-17 2.98e-16)
(0.687676 -2.01602e-15 1.258e-16)
(0.687676 -6.08634e-17 3.0446e-16)
(0.692266 -2.0134e-15 1.26587e-16)
(0.692266 -6.70804e-17 3.11509e-16)
(0.696812 -2.01025e-15 1.27548e-16)
(0.696812 -7.32274e-17 3.18248e-16)
(0.701315 -2.00853e-15 1.28291e-16)
(0.701315 -7.82917e-17 3.25073e-16)
(0.705777 -2.00741e-15 1.28657e-16)
(0.705777 -8.22116e-17 3.32154e-16)
(0.710199 -2.00611e-15 1.29545e-16)
(0.710199 -9.01867e-17 3.39968e-16)
(0.714582 -2.00243e-15 1.3001e-16)
(0.714582 -9.71546e-17 3.48019e-16)
(0.718927 -1.99563e-15 1.31515e-16)
(0.718927 -1.02644e-16 3.55879e-16)
(0.723235 -1.98778e-15 1.32523e-16)
(0.723235 -1.09833e-16 3.64072e-16)
(0.727507 -1.98315e-15 1.33518e-16)
(0.727507 -1.18767e-16 3.72672e-16)
(0.731744 -1.97772e-15 1.34474e-16)
(0.731744 -1.25506e-16 3.81272e-16)
(0.735946 -1.96977e-15 1.35405e-16)
(0.735946 -1.34369e-16 3.90422e-16)
(0.740116 -1.96396e-15 1.36476e-16)
(0.740116 -1.4353e-16 4.00071e-16)
(0.744254 -1.95967e-15 1.37431e-16)
(0.744254 -1.50066e-16 4.10198e-16)
(0.74836 -1.9539e-15 1.38714e-16)
(0.74836 -1.56083e-16 4.19989e-16)
(0.752436 -1.94397e-15 1.40749e-16)
(0.752436 -1.64692e-16 4.30322e-16)
(0.756481 -1.93373e-15 1.41014e-16)
(0.756481 -1.69625e-16 4.41759e-16)
(0.760498 -1.92319e-15 1.43017e-16)
(0.760498 -1.70313e-16 4.54476e-16)
(0.764487 -1.91447e-15 1.44808e-16)
(0.764487 -1.76229e-16 4.65896e-16)
(0.768448 -1.91039e-15 1.45795e-16)
(0.768448 -1.82635e-16 4.77596e-16)
(0.772382 -1.90648e-15 1.46891e-16)
(0.772382 -1.86336e-16 4.90873e-16)
(0.77629 -1.90089e-15 1.48094e-16)
(0.77629 -1.94367e-16 5.03964e-16)
(0.780173 -1.89534e-15 1.49798e-16)
(0.780173 -2.03753e-16 5.18504e-16)
(0.784031 -1.88498e-15 1.51478e-16)
(0.784031 -2.15616e-16 5.32737e-16)
(0.787864 -1.87048e-15 1.54242e-16)
(0.787864 -2.26857e-16 5.47096e-16)
(0.791674 -1.86086e-15 1.54833e-16)
(0.791674 -2.3752e-16 5.61465e-16)
(0.795461 -1.85377e-15 1.56062e-16)
(0.795461 -2.52831e-16 5.77551e-16)
(0.799225 -1.84329e-15 1.5795e-16)
(0.799225 -2.59939e-16 5.93931e-16)
(0.802967 -1.83372e-15 1.59641e-16)
(0.802967 -2.67774e-16 6.09957e-16)
(0.806688 -1.82026e-15 1.62315e-16)
(0.806688 -2.77678e-16 6.26282e-16)
(0.810388 -1.80655e-15 1.63167e-16)
(0.810388 -2.86754e-16 6.44444e-16)
(0.814067 -1.79344e-15 1.67025e-16)
(0.814067 -2.93875e-16 6.62792e-16)
(0.817727 -1.77701e-15 1.68376e-16)
(0.817727 -3.00262e-16 6.8017e-16)
(0.821367 -1.76471e-15 1.7002e-16)
(0.821367 -3.14899e-16 6.98772e-16)
(0.824988 -1.75153e-15 1.72455e-16)
(0.824988 -3.28459e-16 7.19684e-16)
(0.82859 -1.73519e-15 1.74947e-16)
(0.82859 -3.35836e-16 7.20873e-16)
(0.832174 -1.72072e-15 1.76795e-16)
(0.832174 -3.40089e-16 7.18552e-16)
(0.83574 -1.70453e-15 1.80069e-16)
(0.83574 -3.51242e-16 7.16787e-16)
(0.839288 -1.68832e-15 1.82325e-16)
(0.839288 -3.60727e-16 7.15018e-16)
(0.84282 -1.66746e-15 1.85878e-16)
(0.84282 -3.72303e-16 7.14302e-16)
(0.846335 -1.64752e-15 1.8804e-16)
(0.846335 -3.87723e-16 7.15285e-16)
(0.849833 -1.63022e-15 1.90274e-16)
(0.849833 -3.9321e-16 7.13947e-16)
(0.853316 -1.61037e-15 1.92698e-16)
(0.853316 -4.03803e-16 7.11639e-16)
(0.856783 -1.59069e-15 1.95912e-16)
(0.856783 -4.15174e-16 7.09456e-16)
(0.860234 -1.57159e-15 1.97543e-16)
(0.860234 -4.27876e-16 7.08339e-16)
(0.86367 -1.55225e-15 2.0016e-16)
(0.86367 -4.41738e-16 7.06517e-16)
(0.867092 -1.53399e-15 2.01623e-16)
(0.867092 -4.52033e-16 7.04612e-16)
(0.870499 -1.50931e-15 2.06793e-16)
(0.870499 -4.65198e-16 7.01394e-16)
(0.873892 -1.4774e-15 2.10969e-16)
(0.873892 -4.72969e-16 6.97265e-16)
(0.877271 -1.45588e-15 2.1255e-16)
(0.877271 -4.76328e-16 6.92774e-16)
(0.880636 -1.43612e-15 2.11844e-16)
(0.880636 -4.87182e-16 6.8849e-16)
(0.883988 -1.41198e-15 2.17949e-16)
(0.883988 -4.99143e-16 6.79851e-16)
(0.887326 -1.39013e-15 2.22264e-16)
(0.887326 -5.05996e-16 6.76294e-16)
(0.890652 -1.36663e-15 2.24959e-16)
(0.890652 -5.13099e-16 6.714e-16)
(0.893964 -1.34104e-15 2.27633e-16)
(0.893964 -5.11726e-16 6.65297e-16)
(0.897264 -1.31848e-15 2.3028e-16)
(0.897264 -5.22276e-16 6.61035e-16)
(0.900552 -1.29891e-15 2.32879e-16)
(0.900552 -5.38044e-16 6.55203e-16)
(0.903828 -1.27646e-15 2.34194e-16)
(0.903828 -5.42168e-16 6.48649e-16)
(0.907091 -1.2499e-15 2.38097e-16)
(0.907091 -5.57103e-16 6.41827e-16)
(0.910342 -1.21997e-15 2.45933e-16)
(0.910342 -5.703e-16 6.33829e-16)
(0.913582 -1.19859e-15 2.46786e-16)
(0.913582 -5.88239e-16 6.29279e-16)
(0.91681 -1.19352e-15 2.43801e-16)
(0.91681 -6.00898e-16 6.24239e-16)
(0.920027 -1.186e-15 2.44846e-16)
(0.920027 -6.01161e-16 6.1897e-16)
(0.923233 -1.18128e-15 2.47784e-16)
(0.923233 -6.10263e-16 6.08991e-16)
(0.926427 -1.1698e-15 2.46933e-16)
(0.926427 -6.19172e-16 6.0212e-16)
(0.92961 -1.14716e-15 2.50017e-16)
(0.92961 -6.21998e-16 5.92352e-16)
(0.932782 -1.136e-15 2.52752e-16)
(0.932782 -6.32222e-16 5.79293e-16)
(0.935944 -1.12685e-15 2.52973e-16)
(0.935944 -6.43538e-16 5.6978e-16)
(0.939094 -1.1088e-15 2.57006e-16)
(0.939094 -6.56033e-16 5.54446e-16)
(0.942234 -1.07902e-15 2.6292e-16)
(0.942234 -6.5539e-16 5.42181e-16)
(0.945363 -1.06864e-15 2.57024e-16)
(0.945363 -6.50151e-16 5.31825e-16)
(0.948482 -1.06045e-15 2.62866e-16)
(0.948482 -6.51724e-16 5.20555e-16)
(0.95159 -1.0477e-15 2.62097e-16)
(0.95159 -6.47136e-16 5.14983e-16)
(0.954688 -1.02655e-15 2.70685e-16)
(0.954688 -6.4559e-16 5.02978e-16)
(0.957774 -1.01391e-15 2.72904e-16)
(0.957774 -6.4812e-16 4.9085e-16)
(0.960851 -1.00732e-15 2.73077e-16)
(0.960851 -6.33884e-16 4.7987e-16)
(0.963917 -1.02476e-15 2.7018e-16)
(0.963917 -6.25981e-16 4.67117e-16)
(0.966973 -9.94753e-16 2.75765e-16)
(0.966973 -6.31763e-16 4.54182e-16)
(0.970018 -9.57008e-16 2.94073e-16)
(0.970018 -6.54422e-16 4.3973e-16)
(0.973052 -9.268e-16 3.02553e-16)
(0.973052 -6.7432e-16 4.34156e-16)
(0.976076 -8.99855e-16 3.0039e-16)
(0.976076 -6.78979e-16 4.23438e-16)
(0.979089 -8.91744e-16 2.99772e-16)
(0.979089 -6.9113e-16 4.05523e-16)
(0.982092 -8.84332e-16 3.06805e-16)
(0.982092 -6.87918e-16 3.84687e-16)
(0.985083 -8.54391e-16 3.15562e-16)
(0.985083 -7.03527e-16 3.8095e-16)
(0.988064 -8.23088e-16 3.19087e-16)
(0.988064 -7.1919e-16 3.87721e-16)
(0.991034 -8.15751e-16 3.20409e-16)
(0.991034 -7.28748e-16 3.90504e-16)
(0.993993 -8.11818e-16 3.20199e-16)
(0.993993 -7.26999e-16 3.92581e-16)
(0.996941 -7.9733e-16 3.25879e-16)
(0.996941 -7.10427e-16 3.80058e-16)
(0.999877 -7.87465e-16 3.24552e-16)
(0.999877 -7.14986e-16 3.67131e-16)
(1.0028 -7.76191e-16 3.27857e-16)
(1.0028 -7.10801e-16 3.59505e-16)
(1.00572 -7.56547e-16 3.25168e-16)
(1.00572 -7.12398e-16 3.51128e-16)
(1.00862 -7.45243e-16 3.25389e-16)
(1.00862 -7.21503e-16 3.52104e-16)
(1.01151 -7.47176e-16 3.09791e-16)
(1.01151 -7.23658e-16 3.47762e-16)
(1.01438 -7.49472e-16 3.06174e-16)
(1.01438 -7.06286e-16 3.43722e-16)
(1.01725 -7.37543e-16 3.12133e-16)
(1.01725 -6.99381e-16 3.47143e-16)
(1.0201 -7.20623e-16 3.20689e-16)
(1.0201 -7.07612e-16 3.47331e-16)
(1.02294 -6.98808e-16 3.08551e-16)
(1.02294 -6.9657e-16 3.41625e-16)
(1.02576 -7.02084e-16 3.06416e-16)
(1.02576 -6.91837e-16 3.34282e-16)
(1.02857 -6.94342e-16 3.08084e-16)
(1.02857 -6.60771e-16 3.27273e-16)
(1.03137 -6.74827e-16 3.01552e-16)
(1.03137 -6.42727e-16 3.3233e-16)
(1.03415 -6.54437e-16 2.93978e-16)
(1.03415 -6.41869e-16 3.49068e-16)
(1.03692 -6.33444e-16 3.07398e-16)
(1.03692 -6.44801e-16 3.56556e-16)
(1.03967 -6.04e-16 3.1871e-16)
(1.03967 -6.14117e-16 3.30969e-16)
(1.0424 -5.84003e-16 3.08255e-16)
(1.0424 -5.87178e-16 3.77422e-16)
(1.04512 -5.75436e-16 2.98371e-16)
(1.04512 -5.91278e-16 3.72249e-16)
(1.04783 -5.60307e-16 3.04288e-16)
(1.04783 -5.68596e-16 3.28256e-16)
(1.05051 -5.37472e-16 2.92396e-16)
(1.05051 -5.42208e-16 3.40628e-16)
(1.05318 -5.13387e-16 2.87525e-16)
(1.05318 -5.08826e-16 3.5189e-16)
(1.05583 -4.94711e-16 2.84632e-16)
(1.05583 -4.64729e-16 3.40815e-16)
(1.05846 -4.87105e-16 2.9348e-16)
(1.05846 -4.65209e-16 3.42769e-16)
(1.06106 -4.79884e-16 2.98022e-16)
(1.06106 -4.72384e-16 2.89667e-16)
(1.06365 -4.71199e-16 2.927e-16)
(1.06365 -4.47918e-16 3.17795e-16)
(1.06622 -4.75703e-16 2.87646e-16)
(1.06622 -4.70869e-16 3.17422e-16)
(1.06876 -4.7532e-16 2.66883e-16)
(1.06876 -4.73204e-16 2.73664e-16)
(1.07128 -4.62065e-16 2.86647e-16)
(1.07128 -4.52435e-16 2.50534e-16)
(1.07377 -4.49707e-16 2.76572e-16)
(1.07377 -4.60441e-16 2.94016e-16)
(1.07624 -4.40485e-16 2.53031e-16)
(1.07624 -4.46933e-16 2.71731e-16)
(1.07868 -4.37499e-16 2.19098e-16)
(1.07868 -4.34866e-16 2.55904e-16)
(1.0811 -4.40599e-16 2.68726e-16)
(1.0811 -4.28296e-16 2.61736e-16)
(1.08348 -4.13968e-16 2.61927e-16)
(1.08348 -4.20294e-16 2.31184e-16)
(1.08583 -4.64718e-16 1.82433e-16)
(1.08583 -4.21059e-16 1.95979e-16)
(1.08815 -4.61183e-16 1.87254e-16)
(1.08815 -4.03602e-16 1.8256e-16)
(1.09044 -4.2877e-16 2.05934e-16)
(1.09044 -4.26464e-16 1.94558e-16)
(1.09269 -4.20222e-16 2.21632e-16)
(1.09269 -4.63186e-16 1.80689e-16)
(1.0949 -4.28899e-16 2.15393e-16)
(1.0949 -4.38694e-16 1.4684e-16)
(1.09707 -4.24345e-16 1.97484e-16)
(1.09707 -4.16571e-16 1.39154e-16)
(1.09919 -4.18123e-16 1.32299e-16)
(1.09919 -4.49749e-16 1.60671e-16)
(1.10128 -4.47626e-16 1.47677e-16)
(1.10128 -4.53807e-16 1.16052e-16)
(1.10331 -4.29929e-16 1.38325e-16)
(1.10331 -4.12475e-16 8.23192e-17)
(1.1053 -4.32431e-16 1.50693e-16)
(1.1053 -4.35238e-16 8.92741e-17)
(1.10723 -4.12503e-16 1.41603e-16)
(1.10723 -4.44977e-16 1.42011e-16)
(1.1091 -3.8103e-16 6.15517e-17)
(1.1091 -4.65332e-16 1.7118e-16)
(1.11091 -3.99279e-16 1.54695e-16)
(1.11091 -5.09859e-16 1.73296e-16)
(1.11266 -4.14907e-16 7.80631e-17)
(1.11266 -4.89585e-16 3.74117e-16)
(1.11434 -4.76113e-16 1.78616e-17)
(1.11434 -4.80732e-16 4.40175e-16)
(1.11594 -4.4435e-16 7.32177e-17)
(1.11594 -4.57678e-16 3.82215e-16)
(1.11747 -5.13852e-16 1.46334e-17)
(1.11747 -4.14439e-16 4.17635e-16)
(1.11891 -5.24606e-16 7.42036e-18)
(1.11891 -4.28506e-16 3.58142e-16)
(1.12026 -5.28633e-16 3.3579e-17)
(1.12026 -4.55957e-16 2.00159e-16)
(1.12151 -4.77238e-16 2.88685e-17)
(1.12151 -4.02346e-16 9.3843e-17)
(1.12266 -5.27436e-16 1.81855e-16)
(1.12266 -4.85155e-16 1.27406e-17)
(1.12369 -4.50891e-16 1.20245e-16)
(1.12369 -3.91282e-16 7.03051e-17)
(1.12461 -3.60202e-16 1.0087e-16)
(1.12461 -3.82439e-16 6.98949e-17)
(1.12539 -3.22844e-16 1.21271e-16)
(1.12539 -3.92373e-16 7.89451e-17)
(1.12604 -3.10161e-16 5.88771e-17)
(1.12604 -3.78703e-16 3.27494e-17)
(1.12654 -3.21143e-16 5.09308e-18)
(1.12654 -3.66511e-16 4.85804e-17)
(1.12689 -3.13756e-16 9.68606e-17)
(1.12689 -3.66183e-16 7.50327e-17)
(1.12706 -2.82566e-16 1.2355e-16)
(1.12706 -3.29886e-16 7.8518e-17)
(0.00220254 8.29598e-20 -1.46152e-18)
(0.00220254 3.28853e-20 -2.73731e-18)
(0.00664792 1.27466e-19 -6.83132e-18)
(0.00664792 6.63344e-20 -3.28231e-17)
(0.0111754 4.80918e-19 -7.08949e-18)
(0.0111754 1.94789e-19 -3.40542e-17)
(0.0157865 7.86068e-19 -7.35711e-18)
(0.0157865 3.17399e-19 -3.53294e-17)
(0.0204828 1.10464e-18 -7.63452e-18)
(0.0204828 4.38561e-19 -3.66496e-17)
(0.0252657 1.43656e-18 -7.92177e-18)
(0.0252657 5.658e-19 -3.80163e-17)
(0.0301369 1.77668e-18 -8.21937e-18)
(0.0301369 7.03566e-19 -3.94308e-17)
(0.0350979 2.13787e-18 -8.5273e-18)
(0.0350979 8.34918e-19 -4.08949e-17)
(0.0401505 2.50701e-18 -8.84622e-18)
(0.0401505 9.87528e-19 -4.24103e-17)
(0.0452962 2.90663e-18 -9.17649e-18)
(0.0452962 1.13729e-18 -4.3979e-17)
(0.0505367 3.34316e-18 -9.51895e-18)
(0.0505367 1.28118e-18 -4.56019e-17)
(0.0558737 3.77906e-18 -9.8747e-18)
(0.0558737 1.46063e-18 -4.72795e-17)
(0.061309 4.19702e-18 -1.02438e-17)
(0.061309 1.64198e-18 -4.90144e-17)
(0.0668444 4.58184e-18 -1.0627e-17)
(0.0668444 1.86813e-18 -5.08108e-17)
(0.0724815 5.01501e-18 -1.10267e-17)
(0.0724815 2.07886e-18 -5.26668e-17)
(0.0782222 5.46105e-18 -1.1441e-17)
(0.0782222 2.31685e-18 -5.45845e-17)
(0.0840683 5.94475e-18 -1.18714e-17)
(0.0840683 2.56831e-18 -5.65675e-17)
(0.0900216 6.46573e-18 -1.23179e-17)
(0.0900216 2.84742e-18 -5.86152e-17)
(0.0960838 6.98371e-18 -1.27798e-17)
(0.0960838 3.15509e-18 -6.0732e-17)
(0.102257 7.52456e-18 -1.32574e-17)
(0.102257 3.39246e-18 -6.29183e-17)
(0.108542 8.01911e-18 -1.37534e-17)
(0.108542 3.67356e-18 -6.51736e-17)
(0.114942 8.53848e-18 -1.42659e-17)
(0.114942 4.05714e-18 -6.75055e-17)
(0.121457 9.05107e-18 -1.47964e-17)
(0.121457 4.42284e-18 -6.99091e-17)
(0.12809 9.62211e-18 -1.5345e-17)
(0.12809 4.70305e-18 -7.23897e-17)
(0.134842 1.03409e-17 -1.59128e-17)
(0.134842 4.94678e-18 -7.49391e-17)
(0.141714 1.10881e-17 -1.6497e-17)
(0.141714 5.28893e-18 -7.75631e-17)
(0.148707 1.17737e-17 -1.71e-17)
(0.148707 5.83366e-18 -8.02657e-17)
(0.155822 1.25665e-17 -1.77245e-17)
(0.155822 6.32087e-18 -8.30364e-17)
(0.16306 1.33672e-17 -1.83655e-17)
(0.16306 6.84635e-18 -8.58764e-17)
(0.17042 1.41562e-17 -1.90226e-17)
(0.17042 7.31895e-18 -8.8778e-17)
(0.177904 1.50421e-17 -1.96938e-17)
(0.177904 7.68872e-18 -9.174e-17)
(0.18551 1.5769e-17 -2.0378e-17)
(0.18551 8.20572e-18 -9.4763e-17)
(0.193237 1.65323e-17 -2.10756e-17)
(0.193237 8.83873e-18 -9.78344e-17)
(0.201084 1.73528e-17 -2.17856e-17)
(0.201084 9.36868e-18 -1.00955e-16)
(0.209048 1.81331e-17 -2.2506e-17)
(0.209048 9.95654e-18 -1.04105e-16)
(0.217127 1.91046e-17 -2.32325e-17)
(0.217127 1.04836e-17 -1.07275e-16)
(0.225315 2.00515e-17 -2.39634e-17)
(0.225315 1.1079e-17 -1.10448e-16)
(0.23361 2.09738e-17 -2.4703e-17)
(0.23361 1.19323e-17 -1.13617e-16)
(0.242004 2.18911e-17 -2.54415e-17)
(0.242004 1.23285e-17 -1.16776e-16)
(0.250492 2.27024e-17 -2.6175e-17)
(0.250492 1.29022e-17 -1.19887e-16)
(0.259066 2.3597e-17 -2.68953e-17)
(0.259066 1.39515e-17 -1.22944e-16)
(0.267717 2.46232e-17 -2.75929e-17)
(0.267717 1.4453e-17 -1.25953e-16)
(0.276438 2.62618e-17 -2.8268e-17)
(0.276438 1.48661e-17 -1.28854e-16)
(0.285216 2.77022e-17 -2.88971e-17)
(0.285216 1.55644e-17 -1.31658e-16)
(0.294043 2.86073e-17 -2.95043e-17)
(0.294043 1.6932e-17 -1.34328e-16)
(0.302906 2.95596e-17 -3.00721e-17)
(0.302906 1.86102e-17 -1.36879e-16)
(0.311794 3.01035e-17 -3.06185e-17)
(0.311794 1.96854e-17 -1.39289e-16)
(0.320695 3.09223e-17 -3.11262e-17)
(0.320695 2.09119e-17 -1.41498e-16)
(0.329597 3.1873e-17 -3.15776e-17)
(0.329597 2.24415e-17 -1.43557e-16)
(0.338487 3.27967e-17 -3.19939e-17)
(0.338487 2.31531e-17 -1.45476e-16)
(0.347354 3.41754e-17 -3.23566e-17)
(0.347354 2.39443e-17 -1.47203e-16)
(0.356187 3.58287e-17 -3.26832e-17)
(0.356187 2.57514e-17 -1.48694e-16)
(0.364975 3.76119e-17 -3.29496e-17)
(0.364975 2.66338e-17 -1.50045e-16)
(0.373708 3.94147e-17 -3.31682e-17)
(0.373708 2.74037e-17 -1.51197e-16)
(0.382376 4.12473e-17 -3.33323e-17)
(0.382376 2.90294e-17 -1.52149e-16)
(0.39097 4.29591e-17 -3.34391e-17)
(0.39097 2.97989e-17 -1.5293e-16)
(0.399484 4.47058e-17 -4.11632e-17)
(0.399484 3.08193e-17 -1.53536e-16)
(0.407909 4.63501e-17 -4.98422e-17)
(0.407909 3.24732e-17 -1.54036e-16)
(0.416241 4.74602e-17 -5.85434e-17)
(0.416241 3.40873e-17 -1.54458e-16)
(0.424475 4.86495e-17 -6.72503e-17)
(0.424475 3.5427e-17 -1.54735e-16)
(0.432605 5.01961e-17 -7.59339e-17)
(0.432605 3.679e-17 -1.54831e-16)
(0.44063 5.17467e-17 -8.46865e-17)
(0.44063 3.88043e-17 -1.54801e-16)
(0.448546 5.2857e-17 -9.34839e-17)
(0.448546 4.07865e-17 -1.54709e-16)
(0.456351 5.37335e-17 -1.02322e-16)
(0.456351 4.30899e-17 -1.54565e-16)
(0.464045 5.48554e-17 -1.11093e-16)
(0.464045 4.5042e-17 -1.54316e-16)
(0.471626 5.61227e-17 -1.19893e-16)
(0.471626 4.66996e-17 -1.53957e-16)
(0.479095 5.76375e-17 -1.28692e-16)
(0.479095 4.79747e-17 -1.53576e-16)
(0.486452 5.86344e-17 -1.37526e-16)
(0.486452 4.97807e-17 -1.5327e-16)
(0.493697 5.99079e-17 -1.46346e-16)
(0.493697 5.1717e-17 -1.52839e-16)
(0.500832 6.12874e-17 -1.55081e-16)
(0.500832 5.38621e-17 -1.52161e-16)
(0.507858 6.27198e-17 -1.63938e-16)
(0.507858 5.62404e-17 -1.51507e-16)
(0.514777 6.36055e-17 -1.72776e-16)
(0.514777 5.8531e-17 -1.50955e-16)
(0.52159 6.41032e-17 -1.81541e-16)
(0.52159 6.154e-17 -1.50395e-16)
(0.528299 6.50508e-17 -1.90262e-16)
(0.528299 6.24852e-17 -1.49743e-16)
(0.534907 6.56823e-17 -1.989e-16)
(0.534907 6.31839e-17 -1.49077e-16)
(0.541415 6.70703e-17 -2.07501e-16)
(0.541415 6.37641e-17 -1.48131e-16)
(0.547826 6.87214e-17 -2.16319e-16)
(0.547826 6.62963e-17 -1.47106e-16)
(0.554143 6.90783e-17 -2.25039e-16)
(0.554143 6.67638e-17 -1.4637e-16)
(0.560367 7.01201e-17 -2.33772e-16)
(0.560367 6.56768e-17 -1.45596e-16)
(0.5665 7.18203e-17 -2.42376e-16)
(0.5665 6.89002e-17 -1.446e-16)
(0.572546 7.27671e-17 -2.51071e-16)
(0.572546 7.12477e-17 -1.43504e-16)
(0.578507 7.28276e-17 -2.60004e-16)
(0.578507 7.38929e-17 -1.42585e-16)
(0.584384 7.12799e-17 -2.68884e-16)
(0.584384 7.74751e-17 -1.41948e-16)
(0.590181 7.0771e-17 -2.77705e-16)
(0.590181 7.96889e-17 -1.41062e-16)
(0.595898 7.14929e-17 -2.86596e-16)
(0.595898 8.1308e-17 -1.39853e-16)
(0.60154 7.2249e-17 -2.95714e-16)
(0.60154 8.38895e-17 -1.38647e-16)
(0.607107 7.34182e-17 -3.04867e-16)
(0.607107 8.50508e-17 -1.3757e-16)
(0.612603 7.47085e-17 -3.13785e-16)
(0.612603 8.73712e-17 -1.36337e-16)
(0.618028 7.66437e-17 -3.22514e-16)
(0.618028 9.05287e-17 -1.3522e-16)
(0.623385 7.67617e-17 -3.31122e-16)
(0.623385 9.23244e-17 -1.34847e-16)
(0.628677 7.62245e-17 -3.39795e-16)
(0.628677 9.50994e-17 -1.34299e-16)
(0.633904 7.9266e-17 -3.48242e-16)
(0.633904 9.71145e-17 -1.33653e-16)
(0.63907 8.08779e-17 -3.56645e-16)
(0.63907 9.76389e-17 -1.33586e-16)
(0.644174 7.87309e-17 -3.65633e-16)
(0.644174 9.89414e-17 -1.33235e-16)
(0.649221 7.8619e-17 -3.74219e-16)
(0.649221 1.0209e-16 -1.32605e-16)
(0.65421 8.03812e-17 -3.82695e-16)
(0.65421 1.05578e-16 -1.32415e-16)
(0.659144 8.20853e-17 -3.91145e-16)
(0.659144 1.05988e-16 -1.32337e-16)
(0.664025 8.16243e-17 -3.99266e-16)
(0.664025 1.09787e-16 -1.32141e-16)
(0.668853 7.99522e-17 -4.07603e-16)
(0.668853 1.16193e-16 -1.31705e-16)
(0.673631 8.05788e-17 -4.15766e-16)
(0.673631 1.17302e-16 -1.31072e-16)
(0.67836 8.14322e-17 -4.24075e-16)
(0.67836 1.20288e-16 -1.30302e-16)
(0.683041 8.19871e-17 -4.32668e-16)
(0.683041 1.23398e-16 -1.29639e-16)
(0.687676 8.28752e-17 -4.41125e-16)
(0.687676 1.2143e-16 -1.28804e-16)
(0.692266 8.53306e-17 -4.49052e-16)
(0.692266 1.21171e-16 -1.27618e-16)
(0.696812 8.73149e-17 -4.56754e-16)
(0.696812 1.23093e-16 -1.27165e-16)
(0.701315 8.82527e-17 -4.64655e-16)
(0.701315 1.22661e-16 -1.26929e-16)
(0.705777 8.92303e-17 -4.72128e-16)
(0.705777 1.23824e-16 -1.26943e-16)
(0.710199 8.87143e-17 -4.78854e-16)
(0.710199 1.26658e-16 -1.26969e-16)
(0.714582 8.71659e-17 -4.85577e-16)
(0.714582 1.28358e-16 -1.27004e-16)
(0.718927 8.51104e-17 -4.91821e-16)
(0.718927 1.28479e-16 -1.27373e-16)
(0.723235 8.1904e-17 -4.98526e-16)
(0.723235 1.31492e-16 -1.26898e-16)
(0.727507 8.09425e-17 -5.05082e-16)
(0.727507 1.35863e-16 -1.26625e-16)
(0.731744 8.45021e-17 -5.11532e-16)
(0.731744 1.37837e-16 -1.26115e-16)
(0.735946 8.7123e-17 -5.18089e-16)
(0.735946 1.39595e-16 -1.26081e-16)
(0.740116 8.74612e-17 -5.24683e-16)
(0.740116 1.41046e-16 -1.25308e-16)
(0.744254 8.84164e-17 -5.31022e-16)
(0.744254 1.43372e-16 -1.24006e-16)
(0.74836 8.9525e-17 -5.37462e-16)
(0.74836 1.47341e-16 -1.23187e-16)
(0.752436 8.7513e-17 -5.43897e-16)
(0.752436 1.49463e-16 -1.2221e-16)
(0.756481 8.55915e-17 -5.50834e-16)
(0.756481 1.53052e-16 -1.20125e-16)
(0.760498 8.70765e-17 -5.5669e-16)
(0.760498 1.54095e-16 -1.17084e-16)
(0.764487 8.80054e-17 -5.63669e-16)
(0.764487 1.56233e-16 -1.14187e-16)
(0.768448 8.50962e-17 -5.71583e-16)
(0.768448 1.60081e-16 -1.12424e-16)
(0.772382 8.23456e-17 -5.79284e-16)
(0.772382 1.6368e-16 -1.08963e-16)
(0.77629 8.25716e-17 -5.86202e-16)
(0.77629 1.6893e-16 -1.05318e-16)
(0.780173 8.34067e-17 -5.92362e-16)
(0.780173 1.71796e-16 -1.01165e-16)
(0.784031 8.68184e-17 -5.98074e-16)
(0.784031 1.69188e-16 -9.78521e-17)
(0.787864 8.89601e-17 -6.03916e-16)
(0.787864 1.6431e-16 -9.48508e-17)
(0.791674 8.67439e-17 -6.11556e-16)
(0.791674 1.65856e-16 -9.23116e-17)
(0.795461 8.70786e-17 -6.18434e-16)
(0.795461 1.69946e-16 -8.89451e-17)
(0.799225 9.19646e-17 -6.22935e-16)
(0.799225 1.74596e-16 -8.55438e-17)
(0.802967 9.38444e-17 -6.26466e-16)
(0.802967 1.75799e-16 -8.15351e-17)
(0.806688 9.28438e-17 -6.30541e-16)
(0.806688 1.75287e-16 -7.8604e-17)
(0.810388 9.3704e-17 -6.3568e-16)
(0.810388 1.76355e-16 -7.49281e-17)
(0.814067 9.29435e-17 -6.3902e-16)
(0.814067 1.74967e-16 -7.07105e-17)
(0.817727 8.59026e-17 -6.43214e-16)
(0.817727 1.75117e-16 -6.71204e-17)
(0.821367 8.04222e-17 -6.46936e-16)
(0.821367 1.77371e-16 -6.37281e-17)
(0.824988 7.54842e-17 -6.49953e-16)
(0.824988 1.77517e-16 -6.32863e-17)
(0.82859 6.95787e-17 -6.5317e-16)
(0.82859 1.78746e-16 -6.3117e-17)
(0.832174 7.33811e-17 -6.55665e-16)
(0.832174 1.74998e-16 -6.33801e-17)
(0.83574 7.52735e-17 -6.56919e-16)
(0.83574 1.63012e-16 -6.33557e-17)
(0.839288 7.07495e-17 -6.58762e-16)
(0.839288 1.59581e-16 -6.35583e-17)
(0.84282 7.1103e-17 -6.61523e-16)
(0.84282 1.59157e-16 -6.41662e-17)
(0.846335 7.50543e-17 -6.64511e-16)
(0.846335 1.5502e-16 -6.53279e-17)
(0.849833 7.40812e-17 -6.64966e-16)
(0.849833 1.57501e-16 -6.87251e-17)
(0.853316 7.25133e-17 -6.65998e-16)
(0.853316 1.54467e-16 -6.92714e-17)
(0.856783 7.40266e-17 -6.66564e-16)
(0.856783 1.4682e-16 -6.99843e-17)
(0.860234 6.96319e-17 -6.68046e-16)
(0.860234 1.4306e-16 -7.24439e-17)
(0.86367 6.41968e-17 -6.7006e-16)
(0.86367 1.37463e-16 -7.38042e-17)
(0.867092 6.18648e-17 -6.72186e-16)
(0.867092 1.35699e-16 -8.10427e-17)
(0.870499 5.10725e-17 -6.72211e-16)
(0.870499 1.24746e-16 -9.25362e-17)
(0.873892 4.28462e-17 -6.72432e-16)
(0.873892 1.11625e-16 -1.05262e-16)
(0.877271 4.52594e-17 -6.71382e-16)
(0.877271 1.16151e-16 -1.18731e-16)
(0.880636 5.04212e-17 -6.70518e-16)
(0.880636 1.2181e-16 -1.32152e-16)
(0.883988 5.63841e-17 -6.64056e-16)
(0.883988 1.188e-16 -1.47689e-16)
(0.887326 5.12127e-17 -6.62743e-16)
(0.887326 1.13042e-16 -1.6179e-16)
(0.890652 3.92597e-17 -6.60998e-16)
(0.890652 1.16538e-16 -1.75843e-16)
(0.893964 3.12399e-17 -6.6001e-16)
(0.893964 1.25722e-16 -1.86283e-16)
(0.897264 2.52162e-17 -6.61955e-16)
(0.897264 1.17119e-16 -1.99904e-16)
(0.900552 1.20881e-17 -6.63972e-16)
(0.900552 1.05383e-16 -2.19299e-16)
(0.903828 3.51542e-18 -6.66607e-16)
(0.903828 1.15938e-16 -2.35807e-16)