/*--------------------------------*- C++ -*----------------------------------*\
| =========                 |                                                 |
| \\      /  F ield         | OpenFOAM: The Open Source CFD Toolbox           |
|  \\    /   O peration     | Version:  2106                                  |
|   \\  /    A nd           | Website:  www.openfoam.com                      |
|    \\/     M anipulation  |                                                 |
\*---------------------------------------------------------------------------*/
FoamFile
{
    version     2.0;
    format      ascii;
    arch        "LSB;label=32;scalar=64";
    class       volTensorField;
    location    "10000";
    object      grad(U);
}
// * * * * * * * * * * * * * * * * * * * * * * * * * * * * * * * * * * * * * //

dimensions      [0 0 -1 0 0 0 0];

internalField   nonuniform List<tensor> 
2000
(
(-1.43031e-17 6.50429e-30 0 35.0077 -8.86577e-12 0 0.0647927 -1.02915e-14 -6.15295e-29)
(1.43031e-17 -9.19344e-29 -1.58796e-32 35.0077 0 1.09545e-17 0.0647927 -2.29858e-29 5.83687e-17)
(0 2.53109e-29 -1.87063e-32 35.0011 -1.21844e-13 9.17633e-15 0.195563 -4.59396e-16 1.7965e-16)
(0 -1.91553e-29 1.87063e-32 35.0011 -2.46817e-15 3.02745e-17 0.195563 -9.84386e-18 -3.57482e-17)
(-7.97379e-18 0 9.18178e-33 34.9944 8.2194e-28 -1.08525e-15 0.271291 8.76204e-46 1.8884e-16)
(0 6.26809e-30 -1.22424e-32 34.9944 1.58916e-15 2.9757e-17 0.271291 -4.85349e-19 -3.69728e-17)
(-2.61031e-17 -4.25917e-30 0 34.9876 4.99135e-13 -7.28672e-16 0.276301 -7.27903e-15 1.82314e-16)
(1.04413e-16 9.22985e-30 -3.00451e-33 34.9876 -3.58576e-16 5.25593e-17 0.276301 -1.19028e-19 -3.81055e-17)
(0 1.2081e-29 -5.8989e-33 34.9807 -3.73426e-15 -1.79632e-15 0.281403 -5.38181e-16 1.7728e-16)
(0 -9.06071e-30 0 34.9807 -3.73934e-16 5.93796e-17 0.281403 3.38555e-19 -3.91987e-17)
(0 8.89468e-30 -1.01339e-32 34.9736 -4.58572e-14 -2.38862e-15 0.286598 -2.0342e-16 1.72994e-16)
(-2.53491e-16 -8.89468e-30 1.01339e-32 34.9736 -3.66711e-16 6.55149e-17 0.286598 4.29174e-19 -4.02421e-17)
(1.02406e-16 -4.75466e-28 7.10586e-34 34.9664 -7.19466e-15 -2.66368e-15 0.291886 -2.97546e-17 1.68083e-16)
(2.27696e-16 5.82112e-30 -7.10586e-34 34.9664 -1.84755e-16 6.86155e-17 0.291886 8.47797e-19 -4.12293e-17)
(0 -2.85723e-30 0 34.9589 -2.80521e-15 -2.83959e-15 0.29727 -1.74029e-17 1.62477e-16)
(8.16257e-16 5.71445e-30 1.74391e-34 34.9589 -1.4657e-16 7.00959e-17 0.29727 1.88155e-18 -4.21628e-17)
(-1.21899e-16 8.52076e-30 -6.84782e-34 34.951 -2.50815e-15 -2.97322e-15 0.302749 -2.57288e-17 1.56353e-16)
(0 0 1.36956e-33 34.951 -2.45655e-16 7.77214e-17 0.302749 2.73843e-18 -4.30298e-17)
(1.93758e-16 -8.26041e-30 -4.0334e-33 34.9426 -2.7378e-15 -3.0765e-15 0.308322 -2.21119e-17 1.49749e-16)
(0 8.26041e-30 4.0334e-33 34.9426 -2.44547e-16 8.65075e-17 0.308322 3.57584e-18 -4.37963e-17)
(1.90208e-16 -2.70301e-29 -2.90363e-32 34.9333 -2.19812e-15 -3.16053e-15 0.313989 -1.69955e-17 1.42684e-16)
(0 2.70301e-29 2.63966e-32 34.9333 -1.2665e-16 9.17464e-17 0.313989 4.67259e-18 -4.44744e-17)
(1.83729e-16 5.04585e-30 2.07303e-32 34.9227 -1.60672e-15 -3.23405e-15 0.319747 -1.21138e-17 1.35141e-16)
(7.34916e-16 -2.65348e-30 -1.55477e-32 34.9227 1.96506e-17 9.75922e-17 0.319747 6.61949e-18 -4.50492e-17)
(0 0 5.08761e-33 34.9104 -1.25875e-15 -3.30206e-15 0.325591 -1.11441e-17 1.27069e-16)
(0 0 -5.08761e-33 34.9104 -8.97184e-17 1.0003e-16 0.325591 9.00879e-18 -4.551e-17)
(-5.86759e-16 2.59291e-29 4.49495e-32 34.8955 -1.31094e-15 -3.3679e-15 0.331514 -1.3562e-17 1.0402e-16)
(0 -2.0457e-29 -3.99551e-32 34.8955 -2.19725e-16 1.03343e-16 0.331514 1.09743e-17 -4.58634e-17)
(-6.02336e-16 1.54661e-29 2.94172e-32 34.8773 -1.59481e-15 -3.43095e-15 0.337507 -1.70596e-17 7.42179e-17)
(-3.53289e-16 -5.02053e-30 -9.80573e-33 34.8773 -1.00117e-16 1.22888e-16 0.337507 1.26767e-17 -4.60749e-17)
(9.65256e-16 -1.77e-29 -2.88781e-32 34.8545 -2.02207e-15 -3.4918e-15 0.343556 -2.2499e-17 4.24955e-17)
(-1.43332e-15 1.23213e-29 2.88781e-32 34.8545 -3.11077e-17 1.34363e-16 0.343556 1.57165e-17 -4.60708e-17)
(0 -7.25733e-30 -2.83489e-32 34.8256 -2.42818e-15 -3.54996e-15 0.349645 -2.58609e-17 8.84411e-18)
(0 7.25733e-30 2.83489e-32 34.8256 5.3438e-17 1.33037e-16 0.349645 1.83589e-17 -4.594e-17)
(1.30451e-15 -2.95778e-29 -7.42119e-32 34.7889 -2.54187e-15 -3.60349e-15 0.35575 -2.56734e-17 -2.68313e-17)
(1.27214e-15 1.89982e-29 5.56589e-32 34.7889 3.00964e-16 1.5107e-16 0.35575 2.11663e-17 -4.5625e-17)
(-3.41874e-16 7.57834e-30 3.09657e-32 34.7421 -2.35882e-15 -3.6512e-15 0.361844 -2.30195e-17 -3.82847e-17)
(-3.28096e-16 0 -1.8213e-32 34.7421 4.19695e-16 1.6893e-16 0.361844 2.5032e-17 -4.50431e-17)
(1.01031e-15 -2.91602e-30 -2.69034e-32 34.6826 -2.24412e-15 -3.69232e-15 0.367892 -2.42051e-17 -3.94078e-17)
(8.20404e-16 4.57709e-30 1.78792e-32 34.6826 3.80113e-16 1.5974e-16 0.367892 2.7723e-17 -4.42445e-17)
(-3.90844e-16 -1.57655e-30 1.47081e-32 34.6073 -2.18884e-15 -3.72705e-15 0.373851 -2.26911e-17 -4.04784e-17)
(3.12675e-15 4.49321e-30 0 34.6073 1.86373e-16 1.53057e-16 0.373851 3.1266e-17 -4.32819e-17)
(0 1.32326e-29 5.169e-32 34.5127 -2.29304e-15 -3.75069e-15 0.379671 -2.74134e-17 -4.14138e-17)
(1.66391e-15 -8.82175e-30 -1.723e-32 34.5127 3.25981e-16 1.80348e-16 0.379671 3.46876e-17 -4.2039e-17)
(6.094e-16 -4.33005e-30 -6.7657e-32 34.3949 -2.63862e-15 -3.76235e-15 0.385294 -3.13032e-17 -4.22655e-17)
(1.76617e-15 4.33005e-30 8.45713e-32 34.3949 6.327e-16 1.9594e-16 0.385294 3.83089e-17 -4.03982e-17)
(-5.98233e-16 4.2507e-30 8.30215e-32 34.2496 -2.71228e-15 -3.76002e-15 0.390655 -3.01306e-17 -4.29211e-17)
(1.87013e-15 0 -4.98129e-32 34.2496 7.88018e-17 1.94865e-16 0.390655 4.14385e-17 -3.85017e-17)
(-4.93942e-16 -5.42973e-30 -3.9664e-32 34.0723 -3.06705e-15 -3.74008e-15 0.395682 -4.07463e-17 -4.33935e-17)
(0 8.34562e-30 9.78002e-32 34.0723 3.68997e-17 2.17056e-16 0.395682 4.26728e-17 -3.62474e-17)
(5.76509e-16 -1.63854e-29 -1.28011e-31 33.8583 -3.70958e-15 -3.70513e-15 0.400298 -4.65116e-17 -4.37093e-17)
(1.50652e-15 1.63854e-29 1.28011e-31 33.8583 8.98277e-16 2.34818e-16 0.400298 4.80722e-17 -3.35446e-17)
(5.83928e-16 -5.12469e-30 -3.76066e-32 33.603 -3.59128e-15 -3.65366e-15 0.404422 -3.94223e-17 -4.37846e-17)
(-5.65945e-16 8.04256e-30 6.28325e-32 33.603 7.39802e-16 2.28261e-16 0.404422 5.66293e-17 -3.04766e-17)
(-5.75531e-16 2.91902e-30 2.50239e-32 33.3021 -3.084e-15 -3.58069e-15 0.407974 -3.57742e-17 -4.35597e-17)
(0 3.94759e-30 3.08406e-32 33.3021 4.01704e-16 2.39248e-16 0.407974 6.15238e-17 -2.70809e-17)
(0 7.75051e-30 6.05508e-32 32.952 -3.19869e-15 -3.48686e-15 0.410879 -4.37844e-17 -4.30812e-17)
(-5.45393e-16 -3.87525e-30 -3.02754e-32 32.952 7.66061e-16 2.65582e-16 0.410879 6.79723e-17 -2.31645e-17)
(-1.70244e-15 2.57443e-29 3.21702e-31 32.5496 -3.59934e-15 -3.37314e-15 0.413067 -4.73586e-17 -4.22955e-17)
(-2.52657e-15 -1.90212e-29 -2.37765e-31 32.5496 1.27405e-15 2.78199e-16 0.413067 7.649e-17 -1.87799e-17)
(6.6011e-16 -2.91991e-30 -5.33391e-32 32.093 -3.62364e-15 -3.24007e-15 0.41448 -4.60667e-17 -4.12414e-17)
(1.58926e-15 0 2.9176e-32 32.093 1.65443e-15 2.86459e-16 0.41448 8.80627e-17 -1.39453e-17)
(0 7.33219e-30 8.59241e-32 31.5817 -3.49877e-15 -3.08996e-15 0.415075 -4.58327e-17 -3.99095e-17)
(-2.06383e-15 -3.66609e-30 -2.86414e-32 31.5817 1.15594e-15 2.74306e-16 0.415075 1.02966e-16 -8.66021e-18)
(-7.17624e-16 1.01209e-29 1.35817e-31 31.0162 -3.04568e-15 -2.92268e-15 0.414825 -3.5566e-17 -3.82777e-17)
(0 -7.19783e-30 -1.12466e-31 31.0162 3.83439e-16 2.70127e-16 0.414825 1.12629e-16 -3.05124e-18)
(-7.46561e-16 -6.09259e-31 -3.01488e-32 30.3985 -2.60393e-15 -2.1642e-15 0.413724 -3.54069e-17 -2.0547e-17)
(0 7.06593e-30 1.38006e-31 30.3985 2.38878e-16 2.89906e-16 0.413724 1.17833e-16 3.08059e-18)
(0 -1.38729e-29 -5.30064e-32 29.7322 -3.28431e-15 3.74709e-30 0.411784 -5.59733e-17 0)
(3.10215e-15 1.38729e-29 2.46765e-31 29.7322 1.95361e-16 3.08172e-16 0.411784 1.25907e-16 4.45815e-18)
(-9.5833e-16 3.40467e-30 7.9797e-32 29.0218 -4.17073e-15 2.05141e-15 0.409034 -6.20462e-17 -2.78612e-17)
(0 0 0 29.0218 5.79329e-16 3.2158e-16 0.409034 1.3125e-16 4.63897e-18)
(8.33362e-16 4.1722e-31 -1.60338e-32 28.273 -3.89922e-15 2.18208e-15 0.405524 -5.01868e-17 -3.01815e-17)
(2.39268e-15 -3.34228e-30 1.11668e-32 28.273 1.50858e-15 3.10155e-16 0.405524 1.42077e-16 4.29389e-18)
(-1.78561e-15 -1.01971e-29 -1.41395e-31 27.4921 -3.14595e-15 2.30327e-15 0.401314 -4.20699e-17 -3.2711e-17)
(3.44834e-15 1.31241e-29 1.95104e-31 27.4921 -4.42483e-16 2.83963e-16 0.401314 1.61135e-16 4.03789e-18)
(-1.79721e-15 -1.31746e-29 -1.67408e-31 26.6858 -2.26111e-15 2.38988e-15 0.396476 -2.5377e-17 -3.49091e-17)
(0 1.61046e-29 2.01307e-31 26.6858 -1.14897e-15 2.36771e-16 0.396476 1.56615e-16 7.77805e-18)
(0 9.48567e-30 2.2232e-31 25.8613 -2.03041e-15 2.46296e-15 0.39109 -3.65634e-17 -3.65571e-17)
(3.67545e-15 -9.48567e-30 -2.1456e-31 25.8613 -1.07463e-16 2.05627e-16 0.39109 1.67857e-16 3.4713e-17)
(-2.76731e-15 1.51617e-29 9.9757e-32 25.0253 -3.34365e-15 2.56832e-15 0.385239 -6.74553e-17 -3.8471e-17)
(3.78725e-15 -3.10395e-30 -7.27488e-32 25.0253 -3.40674e-16 2.00959e-16 0.385239 1.80344e-16 5.73515e-17)
(0 -3.04707e-30 -4.76105e-32 24.1845 -3.95852e-15 2.61347e-15 0.379005 -5.75541e-17 -2.27717e-17)
(0 3.04707e-30 4.76105e-32 24.1845 7.28628e-16 1.68502e-16 0.379005 1.86618e-16 6.62832e-17)
(1.68391e-15 -2.99123e-30 -4.6738e-32 23.3447 -3.76318e-15 2.61136e-15 0.372469 -6.365e-17 2.52697e-18)
(-1.68391e-15 2.99123e-30 4.6738e-32 23.3447 1.04049e-15 1.3896e-16 0.372469 1.9543e-16 7.53009e-17)
(-1.0284e-15 1.17386e-29 4.58816e-32 22.5115 -3.59665e-15 2.63588e-15 0.365707 -5.42106e-17 2.81973e-17)
(-4.11359e-15 -5.87284e-30 -4.58816e-32 22.5115 6.66044e-16 1.34743e-16 0.365707 1.98922e-16 8.45406e-17)
(1.05473e-15 5.71491e-30 6.75612e-32 21.6895 -2.73967e-15 2.64505e-15 0.35879 -3.71532e-17 5.41617e-17)
(4.21893e-15 -2.88261e-30 -4.50408e-32 21.6895 3.3314e-16 1.46096e-16 0.35879 2.11786e-16 9.40767e-17)
(1.0806e-15 1.12206e-29 1.32646e-31 20.8828 -3.32546e-15 2.65016e-15 0.35178 -7.63737e-17 8.04085e-17)
(-4.32241e-15 -1.41489e-29 -1.32646e-31 20.8828 -8.83916e-16 1.29267e-16 0.35178 2.25758e-16 1.03933e-16)
(-1.10599e-15 2.93149e-30 -2.17026e-32 20.0947 -4.17538e-15 2.64668e-15 0.344733 -6.82903e-17 1.06445e-16)
(4.42396e-15 0 4.34052e-32 20.0947 -1.01642e-15 1.25725e-16 0.344733 2.19054e-16 1.138e-16)
(0 -1.36351e-29 -1.17177e-31 19.3276 -3.17263e-15 2.64958e-15 0.337697 -4.35119e-17 1.32559e-16)
(9.04709e-15 1.36351e-29 1.17177e-31 19.3276 -8.72933e-17 1.39786e-16 0.337697 2.28554e-16 1.2413e-16)
(1.15529e-15 -1.89974e-29 -1.46401e-31 18.5837 -2.72547e-15 2.61755e-15 0.330714 -5.46289e-17 1.58923e-16)
(4.62115e-15 1.07082e-29 1.25487e-31 18.5837 -1.4025e-15 1.3249e-16 0.330714 2.4271e-16 1.3469e-16)
(-1.17919e-15 5.56544e-30 5.13281e-32 17.8643 -2.70303e-15 2.58987e-15 0.323817 -4.43214e-17 1.85071e-16)
(-4.71677e-15 0 -3.07969e-32 17.8643 -2.77127e-15 1.18354e-16 0.323817 2.34641e-16 1.45589e-16)
(1.45232e-15 -1.03194e-29 -4.031e-32 17.1705 -1.91222e-15 2.52895e-15 0.317034 -2.6894e-17 2.11579e-16)
(0 1.03194e-29 4.031e-32 17.1705 -1.9336e-15 9.86004e-17 0.317034 2.30563e-16 1.56604e-16)
(-2.65123e-15 1.81327e-29 4.94642e-32 16.5026 -1.72612e-15 2.54581e-15 0.310388 -3.88493e-17 2.37175e-16)
(0 -7.5977e-30 -2.96785e-32 16.5026 -4.72314e-16 1.02911e-16 0.310388 2.40473e-16 1.67869e-16)
(1.39958e-15 -9.94464e-30 -2.42789e-32 15.861 -2.97265e-15 2.5957e-15 0.303896 -7.66401e-17 2.64243e-16)
(0 9.94464e-30 3.88462e-32 15.861 5.51919e-16 6.81085e-17 0.303896 2.46433e-16 1.79645e-16)
(0 1.46436e-29 3.81344e-32 15.2454 -3.45009e-15 2.48494e-15 0.29757 -5.93267e-17 2.91226e-16)
(-5.07971e-15 -1.95248e-29 -5.72016e-32 15.2454 2.24904e-16 3.0016e-17 0.29757 2.54576e-16 1.91273e-16)
(-5.73296e-17 9.03815e-30 3.15863e-32 14.6557 -2.2018e-15 2.49175e-15 0.291422 -2.8888e-17 3.10031e-16)
(0 -4.79176e-30 -1.98877e-32 14.6557 -5.15275e-16 4.8132e-17 0.291422 2.68145e-16 2.03301e-16)
(-1.31248e-15 2.93492e-30 -6.89055e-33 14.0912 -2.52202e-15 2.54659e-15 0.285455 -7.47949e-17 3.25648e-16)
(0 0 1.95232e-32 14.0912 -3.16535e-16 7.61482e-17 0.285455 2.74448e-16 2.15829e-16)
(-1.3664e-15 -1.26026e-29 -2.48024e-32 13.5513 -4.04957e-15 2.4947e-15 0.279675 -9.42811e-17 3.41188e-16)
(5.33235e-15 1.38533e-29 2.25476e-32 13.5513 -6.9495e-17 1.10208e-16 0.279675 2.90917e-16 2.28931e-16)
(-1.35327e-15 2.94137e-30 0 13.0352 -3.7795e-15 2.05894e-15 0.274082 -6.60321e-17 3.56661e-16)
(0 0 0 13.0352 -6.30738e-16 1.30121e-16 0.274082 3.11299e-16 2.42701e-16)
(-2.74608e-15 2.15356e-29 1.73831e-32 12.5422 -1.82259e-15 9.36211e-16 0.268677 -1.97198e-17 3.68049e-16)
(-5.49216e-15 -1.78003e-29 -1.73831e-32 12.5422 -1.9511e-15 1.1124e-16 0.268677 3.16955e-16 2.56979e-16)
(-1.06685e-15 1.01552e-29 0 12.0713 -6.63836e-16 1.95408e-16 0.263458 -9.45154e-18 3.71648e-16)
(-3.11037e-15 -1.74741e-29 -8.53226e-33 12.0713 -3.17579e-15 1.26001e-16 0.263458 3.09732e-16 2.71546e-16)
(-2.41419e-15 8.57693e-30 -8.37591e-33 11.6217 -8.36855e-16 1.7129e-16 0.258422 -2.83056e-17 3.74911e-16)
(0 -4.28847e-30 0 11.6217 -2.24224e-15 1.30331e-16 0.258422 3.01449e-16 2.87127e-16)
(-4.90034e-16 -6.73337e-30 -8.22242e-33 11.1925 -1.07839e-15 1.56553e-16 0.253565 -2.09608e-17 3.78139e-16)
(9.06999e-15 8.41976e-30 0 11.1925 -5.06308e-16 1.105e-16 0.253565 3.14794e-16 3.02963e-16)
(-1.44824e-15 1.12165e-29 8.07175e-33 10.7827 -2.51531e-16 1.30658e-16 0.248883 -2.93045e-18 3.81264e-16)
(5.79295e-15 -8.26547e-30 -8.07175e-33 10.7827 -1.51217e-15 8.22914e-17 0.248883 3.32588e-16 3.19523e-16)
(2.28389e-15 -8.11401e-30 0 10.3914 -1.02174e-16 1.26524e-16 0.244372 -1.9105e-18 3.84323e-16)
(-2.28389e-15 8.11401e-30 0 10.3914 -2.60857e-15 3.87897e-17 0.244372 3.35765e-16 3.36142e-16)
(-3.72573e-15 2.94734e-30 0 10.0178 -1.79693e-16 1.00402e-16 0.240025 -6.82449e-18 3.87586e-16)
(5.93477e-15 3.98266e-30 7.77864e-33 10.0178 -1.58716e-15 2.44292e-17 0.240025 3.25769e-16 3.53179e-16)
(-2.20095e-15 3.90968e-30 7.63609e-33 9.66093 -4.699e-16 4.91366e-17 0.235839 -1.64117e-17 3.90511e-16)
(0 0 -7.63609e-33 9.66093 -1.44182e-15 -3.61249e-18 0.235839 3.28302e-16 3.70633e-16)
(-1.51785e-15 1.4013e-45 -5.60729e-31 9.32009 1.54074e-33 6.24399e-17 0.231807 -3.15544e-30 3.9347e-16)
(0 0 -7.49617e-33 9.32009 -2.07417e-15 -1.84749e-17 0.231807 3.3986e-16 3.88246e-16)
(-2.12103e-15 1.13031e-29 1.47176e-32 8.99442 3.08423e-16 3.97671e-17 0.227923 -1.73594e-17 3.97507e-16)
(0 -7.53541e-30 -1.47176e-32 8.99442 -1.74438e-15 -2.533e-17 0.227923 3.35028e-16 4.06181e-16)
(2.08216e-15 -1.84933e-29 -6.09228e-31 8.68316 -7.66458e-16 4.26478e-30 0.224183 -3.84789e-17 4.00309e-16)
(4.12108e-15 1.84933e-29 1.44479e-32 8.68316 -2.0169e-15 -3.48562e-17 0.224183 3.19108e-16 4.24311e-16)
(0 2.8026e-45 -5.42676e-31 8.38559 -5.91264e-30 4.82675e-18 0.22058 -3.15544e-30 4.03964e-16)
(0 -1.45235e-29 -1.41832e-32 8.38559 -3.17084e-15 -5.25581e-17 0.22058 3.06069e-16 4.42923e-16)
(-1.58265e-15 -6.27643e-31 0 8.10101 1.29284e-15 2.66541e-17 0.21711 -3.13675e-17 4.08293e-16)
(6.33062e-15 7.1287e-30 6.96163e-33 8.10101 -2.65203e-15 -5.41897e-17 0.21711 2.94564e-16 4.61742e-16)
(3.93956e-15 -1.39961e-29 -6.83406e-33 7.82875 4.0143e-17 -2.48759e-17 0.213767 -3.85549e-17 4.12392e-16)
(2.45317e-15 1.39961e-29 6.83406e-33 7.82875 -1.64136e-15 -4.48462e-17 0.213767 2.95836e-16 4.81176e-16)
(-1.61346e-15 2.00998e-29 1.34176e-32 7.56819 -2.42927e-15 -8.26857e-17 0.210545 -9.97423e-17 4.16651e-16)
(-6.45385e-15 -1.71746e-29 -1.34176e-32 7.56819 -9.83116e-16 -9.49053e-17 0.210545 3.07559e-16 5.0074e-16)
(1.89825e-15 -1.34879e-29 -4.39284e-32 7.31873 -3.61608e-15 -7.85708e-17 0.207441 -1.06859e-16 4.20752e-16)
(-8.41227e-15 1.34879e-29 0 7.31873 1.07073e-15 -1.97389e-16 0.207441 3.16536e-16 5.19885e-16)
(-3.28663e-15 2.5631e-30 0 7.0798 -3.17158e-15 -4.06448e-30 0.204448 -7.73971e-17 4.26094e-16)
(6.57325e-15 3.31018e-30 0 7.0798 1.38104e-15 -1.63196e-16 0.204448 3.50998e-16 5.38169e-16)
(-3.3158e-15 -7.00649e-46 0 6.85087 2.95013e-30 4.98228e-18 0.201563 -3.15544e-30 4.32233e-16)
(0 0 0 6.85087 -4.46599e-16 -6.03497e-17 0.201563 3.67169e-16 5.58076e-16)
(0 -9.56994e-30 -6.23043e-33 6.63144 3.06544e-16 8.49932e-18 0.19878 -6.23583e-18 4.38777e-16)
(6.68909e-15 9.56994e-30 6.23043e-33 6.63144 -1.32668e-15 -2.06166e-17 0.19878 3.89986e-16 5.78735e-16)
(-5.21222e-15 2.17389e-29 -6.11626e-33 6.42103 1.93389e-16 -1.4709e-17 0.196097 -1.23279e-17 4.45636e-16)
(-6.74575e-15 -1.56576e-29 0 6.42103 -1.23807e-15 -4.24986e-17 0.196097 4.03917e-16 6.00461e-16)
(1.7004e-15 -5.90526e-30 -6.00418e-33 6.21917 1.88538e-28 -4.08709e-17 0.193507 -3.15544e-30 4.5283e-16)
(0 3.07414e-30 6.00418e-33 6.21917 -1.50379e-15 -7.54831e-17 0.193507 4.06504e-16 6.21275e-16)
(1.71418e-15 -8.98108e-30 -5.89415e-33 6.02546 5.8965e-16 -3.15027e-17 0.191008 -3.36646e-17 4.60359e-16)
(-6.85671e-15 6.03561e-30 5.89415e-33 6.02546 -2.05729e-15 -3.55264e-17 0.191008 4.23011e-16 6.42729e-16)
(-3.45553e-15 -8.56682e-31 -1.95098e-31 5.83949 2.26979e-16 8.01187e-30 0.188596 -3.68899e-18 4.6861e-16)
(-1.66774e-15 0 0 5.83949 -1.83451e-15 -5.17799e-17 0.188596 4.2357e-16 6.65207e-16)
(-1.63718e-15 5.81644e-30 5.68012e-33 5.66086 2.75319e-15 2.58328e-17 0.186266 -8.58054e-17 4.78542e-16)
(1.63718e-15 -8.72466e-30 -5.68012e-33 5.66086 -3.20478e-15 1.88215e-17 0.186266 4.2422e-16 6.87522e-16)
(1.75441e-15 -7.22647e-32 0 5.48924 1.48404e-15 -7.55609e-17 0.184016 -9.66207e-17 4.86558e-16)
(-1.72497e-14 -2.85493e-30 0 5.48924 -3.59111e-15 -1.51179e-17 0.184016 3.9104e-16 7.12502e-16)
(1.76748e-15 -2.18974e-29 -6.00943e-31 5.32427 1.52689e-16 3.99977e-30 0.181843 -2.62317e-18 4.95326e-16)
(0 8.40784e-30 5.47385e-33 5.32427 -1.60805e-15 -1.52855e-16 0.181843 3.75309e-16 7.35266e-16)
(0 -1.65075e-29 0 5.16564 1.68536e-15 -2.19431e-17 0.179742 -3.81124e-17 5.0533e-16)
(7.12157e-15 1.65075e-29 0 5.16564 -1.73401e-15 -7.00504e-17 0.179742 3.8409e-16 7.58272e-16)
(1.79315e-15 -1.10258e-29 1.05502e-32 5.01304 2.2091e-15 -7.94393e-17 0.177712 -8.02556e-17 5.15161e-16)
(7.17259e-15 8.10252e-30 0 5.01304 -3.03318e-15 -3.18058e-17 0.177712 3.92419e-16 7.8344e-16)
(-2.11893e-15 -2.06749e-29 -1.03568e-32 4.86619 1.17531e-15 -1.51563e-16 0.175749 -7.72442e-17 5.24987e-16)
(0 1.85594e-29 1.55352e-32 4.86619 -3.80914e-15 -1.50532e-16 0.175749 3.7185e-16 8.08454e-16)
(-7.0597e-16 -1.75673e-29 5.08352e-33 4.72482 3.82814e-16 -1.97414e-16 0.17385 -7.48512e-18 5.3454e-16)
(7.27284e-15 2.08221e-29 0 4.72482 -2.45617e-15 -1.95248e-16 0.17385 3.61894e-16 8.31901e-16)
(1.83053e-15 -2.47636e-29 -9.98073e-33 4.58868 1.1126e-15 -1.34032e-16 0.172013 -2.09661e-17 5.45062e-16)
(1.46442e-14 1.53304e-29 9.98073e-33 4.58868 -1.90936e-15 -1.67342e-16 0.172013 3.92909e-16 8.56009e-16)
(-1.84271e-15 -2.1002e-30 0 4.45751 2.2453e-15 -6.92921e-17 0.170236 -9.68884e-17 5.57984e-16)
(0 7.52474e-30 0 4.45751 -3.42477e-15 -1.22618e-16 0.170236 3.76874e-16 8.80139e-16)
(-3.70952e-15 5.83231e-30 0 4.33111 1.71919e-15 -8.56045e-17 0.168515 -7.53151e-17 5.71768e-16)
(7.41905e-15 0 0 4.33111 -2.54466e-15 -9.33882e-17 0.168515 3.57217e-16 9.05585e-16)
(-1.86669e-15 -1.91886e-30 0 4.20924 2.10757e-15 -8.54961e-17 0.16685 -5.90044e-17 5.85649e-16)
(7.46674e-15 9.66865e-30 4.72102e-33 4.20924 -3.21939e-15 -4.1739e-17 0.16685 3.77133e-16 9.30751e-16)
(-2.67161e-15 4.74574e-30 4.63451e-33 4.09171 2.70858e-15 -9.60815e-17 0.165237 -1.09387e-16 6.00601e-16)
(0 0 -9.26902e-33 4.09171 -3.89865e-15 1.64092e-17 0.165237 3.46225e-16 9.58167e-16)
(1.89017e-15 -7.55878e-30 -4.54958e-33 3.97831 2.8726e-15 -1.01193e-16 0.163674 -1.10464e-16 6.15505e-16)
(7.56068e-15 4.65877e-30 4.54958e-33 3.97831 -2.73849e-15 -1.30268e-15 0.163674 3.31822e-16 9.85832e-16)
(4.47633e-15 -1.20391e-29 1.06073e-32 3.86888 2.78519e-15 -7.87003e-17 0.162161 -1.27197e-16 6.31505e-16)
(5.03235e-15 9.14681e-30 -1.06073e-32 3.86888 -3.95753e-15 -3.02954e-15 0.162161 3.37612e-16 9.86164e-16)
(-1.91319e-15 2.88831e-30 0 3.76323 3.01012e-15 -3.89989e-17 0.160693 -1.07196e-16 6.48021e-16)
(7.65277e-15 4.4896e-30 -8.76874e-33 3.76323 -4.78942e-15 -3.38136e-15 0.160693 3.04075e-16 9.78424e-16)
(1.92454e-15 -1.16904e-29 5.16484e-32 3.66121 3.58257e-15 -8.61385e-17 0.159271 -1.51467e-16 6.6583e-16)
(0 8.81465e-30 -5.16484e-32 3.66121 -3.76642e-15 -3.57921e-15 0.159271 2.43496e-16 9.72472e-16)
(-1.93578e-15 1.58502e-29 -8.45032e-32 3.56265 4.03319e-15 -1.17436e-16 0.157892 -1.61733e-16 6.82277e-16)
(5.3075e-15 -8.65313e-30 5.07019e-32 3.56265 -3.04983e-15 -3.74362e-15 0.157892 2.28623e-16 9.60327e-16)
(1.94693e-15 -1.13529e-29 3.31819e-32 3.46741 4.12306e-15 -1.82071e-16 0.156555 -1.97667e-16 7.01197e-16)
(0 8.49456e-30 -3.31819e-32 3.46741 -4.375e-15 -3.7267e-15 0.156555 2.20445e-16 9.49952e-16)
(-1.95797e-15 1.11953e-29 -1.30295e-31 3.37534 3.09555e-15 -2.86162e-16 0.155257 -1.76054e-16 7.1792e-16)
(7.83187e-15 -4.16945e-30 9.77215e-32 3.37534 -4.73019e-15 -3.77163e-15 0.155257 1.45175e-16 9.37125e-16)
(1.96892e-15 9.41556e-30 -9.59308e-32 3.28632 3.22199e-15 -2.65811e-16 0.153998 -1.09305e-16 7.36888e-16)
(7.87566e-15 -8.18609e-30 6.39539e-32 3.28632 -3.53801e-15 -3.62061e-15 0.153998 1.28303e-16 9.25256e-16)
(0 1.20541e-29 -1.25564e-31 3.20022 3.89589e-15 -2.39555e-16 0.152777 -1.94698e-16 7.57241e-16)
(5.65713e-15 -8.03609e-30 1.25564e-31 3.20022 -5.39704e-15 -3.5745e-15 0.152777 1.16613e-16 9.16059e-16)
(0 1.18332e-29 -1.23263e-31 3.11692 3.27299e-15 -2.73105e-16 0.151591 -1.7863e-16 7.7978e-16)
(-7.96215e-15 -7.88883e-30 1.23263e-31 3.11692 -6.81528e-15 -3.80404e-15 0.151591 9.01714e-18 9.05106e-16)
(0 1.54885e-29 -3.0251e-31 3.03631 3.46696e-15 -2.46937e-16 0.150439 -1.40638e-16 8.02184e-16)
(8.00486e-15 -1.54885e-29 3.0251e-31 3.03631 -5.63866e-15 -3.85282e-15 0.150439 -6.34905e-17 8.89323e-16)
(-2.01181e-15 -1.61843e-29 3.5636e-31 2.95826 3.94036e-15 -2.42143e-16 0.149321 -2.04836e-16 8.27851e-16)
(2.13987e-15 2.28071e-29 -4.75147e-31 2.95826 -5.74575e-15 -3.72437e-15 0.149321 -1.10031e-16 8.49565e-16)
(-2.02232e-15 2.8179e-30 0 2.8827 4.50056e-15 -2.75534e-16 0.148235 -1.94356e-16 8.52818e-16)
(8.08929e-15 3.73152e-30 -1.74915e-31 2.8827 -5.9685e-15 -3.68431e-15 0.148235 -2.07609e-16 7.95889e-16)
(0 -7.32629e-30 1.14473e-31 2.8095 5.39465e-15 -3.09561e-16 0.147179 -2.70922e-16 8.80254e-16)
(0 3.66314e-30 -2.28946e-31 2.8095 -5.90396e-15 -3.80738e-15 0.147179 -2.92859e-16 7.39649e-16)
(0 1.07881e-29 -2.24751e-31 2.73859 4.18898e-15 -4.32269e-16 0.146154 -2.96573e-16 9.06108e-16)
(-2.02438e-15 -7.19204e-30 2.24751e-31 2.73859 -5.10602e-15 -4.09352e-15 0.146154 -3.58918e-16 6.73579e-16)
(4.04067e-15 -2.39811e-29 5.51582e-31 2.66987 5.45442e-15 -3.60167e-16 0.145157 -1.5078e-16 9.32607e-16)
(8.21355e-15 1.76506e-29 -5.51582e-31 2.66987 -4.10547e-15 -4.04293e-15 0.145157 -4.00607e-16 6.03582e-16)
(1.1273e-16 4.18151e-30 -1.08295e-31 2.60325 7.5393e-15 -2.32123e-16 0.144188 -4.47115e-16 9.64411e-16)
(4.35265e-15 0 2.1659e-31 2.60325 -5.31231e-15 -4.00856e-15 0.144188 -4.69827e-16 5.42703e-16)
(0 -6.80386e-30 0 2.53867 6.04244e-15 -2.00529e-16 0.143246 -3.9036e-16 9.98844e-16)
(8.29493e-15 6.80386e-30 -1.0631e-31 2.53867 -6.81857e-15 -4.01876e-15 0.143246 -5.48297e-16 4.66474e-16)
(-4.1676e-15 5.4912e-30 0 2.47603 4.46682e-15 -1.84184e-16 0.142329 -2.92898e-16 1.0344e-15)
(8.33519e-15 0 0 2.47603 -5.3925e-15 -3.81428e-15 0.142329 -6.36621e-16 3.95687e-16)
(5.78494e-15 -1.58584e-29 8.19599e-31 2.41527 3.05849e-15 7.13001e-17 0.141438 -2.21642e-16 1.07131e-15)
(4.68405e-15 1.31136e-29 -8.19599e-31 2.41527 -3.63056e-15 -3.96539e-15 0.141438 -7.07859e-16 3.23323e-16)
(0 1.60916e-29 -4.0229e-31 2.35631 3.35794e-15 2.52021e-16 0.140571 -1.36924e-16 1.11791e-15)
(-8.41493e-15 -1.60916e-29 4.0229e-31 2.35631 -4.42932e-15 -4.32801e-15 0.140571 -7.74258e-16 2.47739e-16)
(-1.77855e-15 9.47803e-30 0 2.2991 4.10095e-15 2.03925e-16 0.139727 -2.66168e-16 1.16382e-15)
(0 -9.47803e-30 1.97459e-31 2.2991 -4.28289e-15 -4.54377e-15 0.139727 -8.3506e-16 1.66273e-16)
(-4.24683e-15 2.09456e-29 -9.69203e-31 2.24355 4.01167e-15 2.06327e-16 0.138905 -2.33517e-16 1.21181e-15)
(0 -1.55073e-29 9.69203e-31 2.24355 -3.55399e-15 -4.43068e-15 0.138905 -8.6458e-16 7.36188e-17)
(-2.13316e-15 1.18407e-29 -5.70866e-31 2.18962 6.06879e-15 -2.07301e-16 0.138105 -2.65006e-16 1.26048e-15)
(-3.42793e-15 -3.04462e-30 5.70866e-31 2.18962 -4.41339e-15 -4.31987e-15 0.138105 -8.88187e-16 -5.86404e-18)
(-3.36512e-15 1.7933e-29 -7.47206e-31 2.13725 9.83288e-15 -4.84921e-16 0.137327 -5.04999e-16 1.29906e-15)
(-8.57141e-15 -1.49441e-29 9.34008e-31 2.13725 -5.96867e-15 -4.55381e-15 0.137327 -9.88088e-16 -9.55683e-17)
(4.30498e-15 6.68201e-31 -1.83379e-31 2.08638 1.10152e-14 -1.26319e-16 0.136568 -7.64618e-16 1.34159e-15)
(0 -5.86811e-30 3.66757e-31 2.08638 -7.61938e-15 -4.73344e-15 0.136568 -1.11004e-15 -2.00713e-16)
(1.08121e-15 1.20999e-29 -5.40054e-31 2.03695 1.02796e-14 -2.41739e-16 0.135829 -6.80695e-16 1.39444e-15)
(8.64827e-15 -1.72817e-29 8.58433e-31 2.03695 -8.09446e-15 -4.12427e-15 0.135829 -1.2161e-15 -2.36124e-16)
(-2.17159e-15 2.57017e-30 0 1.98892 9.75389e-15 -1.72955e-16 0.13511 -6.94135e-16 1.43587e-15)
(8.68637e-15 2.82751e-30 -4.26226e-31 1.98892 -7.97638e-15 -3.66044e-15 0.13511 -1.29664e-15 -2.62777e-16)
(4.36213e-15 -2.34486e-30 -3.46962e-31 1.94223 5.70766e-15 -5.83917e-17 0.134408 -6.34062e-16 1.49284e-15)
(0 -2.7757e-30 5.20443e-31 1.94223 -6.48888e-15 -4.24602e-15 0.134408 -1.39884e-15 -3.27042e-16)
(2.19049e-15 -1.0797e-29 0 1.89684 4.03025e-15 -1.50247e-16 0.133725 -1.53552e-16 1.53907e-15)
(8.76194e-15 5.44967e-30 -4.70913e-31 1.89684 -4.08981e-15 -4.73309e-15 0.133725 -1.50221e-15 -3.42174e-16)
(-2.19986e-15 1.05957e-29 -3.34363e-31 1.8527 3.90845e-15 2.84428e-17 0.133059 -4.18621e-16 1.59617e-15)
(0 -5.3498e-30 3.34363e-31 1.8527 -2.37319e-15 -4.67346e-15 0.133059 -1.6156e-15 -3.30698e-16)
(0 -7.87765e-30 9.84707e-31 1.80978 3.3485e-15 -1.83877e-16 0.132409 -1.41634e-16 1.65293e-15)
(1.76734e-14 1.05035e-29 -1.48283e-30 1.80978 -1.48223e-15 -4.68038e-15 0.132409 -1.65309e-15 -3.56094e-16)
(-5.12076e-15 -1.0323e-29 1.6111e-30 1.76803 4.36427e-15 -8.26645e-17 0.131775 -3.51491e-16 1.70501e-15)
(2.90231e-15 1.28888e-29 -1.6111e-30 1.76803 -2.27068e-15 -4.81162e-15 0.131775 -1.66874e-15 -3.62952e-16)
(-2.84912e-15 -1.01221e-29 1.58158e-30 1.7274 4.9723e-15 -2.48914e-17 0.131157 -3.0017e-16 1.77072e-15)
(2.06706e-14 1.01221e-29 -2.343e-30 1.7274 -2.7898e-15 -4.77447e-15 0.131157 -1.73115e-15 -3.63805e-16)
(-2.23687e-15 1.49439e-29 -1.5526e-30 1.68787 5.837e-15 -1.0004e-16 0.130554 -4.58152e-16 1.8303e-15)
(0 -1.24208e-29 1.5526e-30 1.68787 -3.54051e-15 -4.86118e-15 0.130554 -1.77178e-15 -3.90199e-16)
(2.74566e-15 -4.87727e-30 6.09659e-31 1.6494 4.28813e-15 2.14575e-16 0.129965 -4.46812e-16 1.89646e-15)
(8.98404e-15 4.87727e-30 -1.39238e-30 1.6494 -3.24388e-15 -5.1311e-15 0.129965 -1.88016e-15 -4.20546e-16)
(-4.4024e-16 -2.16754e-29 2.09471e-30 1.61195 3.91327e-15 3.06859e-16 0.129391 -2.28485e-16 1.97136e-15)
(2.07362e-14 1.91516e-29 -3.24983e-30 1.61195 -3.0185e-15 -4.87547e-15 0.129391 -1.9564e-15 -3.63387e-16)
(-2.26416e-15 2.48711e-30 0 1.57548 4.96825e-15 8.99012e-18 0.12883 -4.0277e-16 2.04559e-15)
(9.05666e-15 0 -9.21001e-31 1.57548 -2.99671e-15 -4.62399e-15 0.12883 -2.03056e-15 -3.94791e-16)
(-3.24291e-16 1.13688e-29 -5.76754e-31 1.53997 4.86896e-15 -7.15922e-17 0.128282 -4.11624e-16 2.11351e-15)
(6.49525e-15 -4.61403e-30 2.20608e-31 1.53997 -2.36923e-15 -5.23662e-15 0.128282 -2.05956e-15 -4.80321e-16)
(-4.56431e-15 9.44506e-30 -1.13237e-30 1.50538 4.66992e-15 -1.03728e-17 0.127747 -4.01215e-16 2.11286e-15)
(9.12862e-15 0 3.76424e-31 1.50538 -2.43224e-15 -5.27913e-15 0.127747 -2.14758e-15 -4.16965e-16)
(-2.50315e-15 -8.89296e-30 1.66743e-30 1.47169 5.58198e-15 -1.32846e-16 0.127225 -3.92965e-16 2.07275e-15)
(1.83287e-14 8.89296e-30 -3.32454e-30 1.47169 -1.51046e-15 -4.73506e-15 0.127225 -2.25044e-15 -4.03278e-16)
(0 8.73e-30 -1.09125e-30 1.43887 7.32619e-15 -1.38295e-16 0.126714 -5.75828e-16 2.03098e-15)
(6.74269e-15 -4.365e-30 2.31882e-31 1.43887 -2.93671e-15 -4.88783e-15 0.126714 -2.28364e-15 -4.59891e-16)
(-4.7211e-15 1.0946e-29 -1.07125e-30 1.40688 7.62474e-15 -1.12368e-16 0.126215 -7.18478e-16 1.99849e-15)
(0 -4.28501e-30 1.07125e-30 1.40688 -5.34898e-15 -5.33176e-15 0.126215 -2.35545e-15 -4.99031e-16)
(2.31768e-15 1.83692e-30 -1.05162e-30 1.37571 6.79677e-15 2.31075e-17 0.125726 -6.51702e-16 1.97277e-15)
(0 -4.20649e-30 2.10325e-30 1.37571 -5.59102e-15 -5.28447e-15 0.125726 -2.47457e-15 -4.68478e-16)
(0 8.25882e-30 -1.03235e-30 1.34532 6.41821e-15 -6.83264e-17 0.125249 -5.92504e-16 1.95016e-15)
(0 -4.12941e-30 1.03235e-30 1.34532 -4.29512e-15 -4.95579e-15 0.125249 -2.59499e-15 -4.55945e-16)
(-2.33522e-15 1.45033e-29 -3.54702e-30 1.3157 6.24231e-15 -3.36324e-16 0.124782 -6.04976e-16 1.8997e-15)
(0 -1.21612e-29 4.05374e-30 1.3157 -4.36441e-15 -4.53051e-15 0.124782 -2.67569e-15 -4.04558e-16)
(-4.58418e-15 1.02871e-29 -9.94864e-31 1.28681 5.70437e-15 -1.60397e-16 0.124324 -5.8109e-16 1.86872e-15)
(-9.37579e-15 -3.97946e-30 2.33992e-30 1.28681 -5.08656e-15 -3.7067e-15 0.124324 -2.87295e-15 -3.12158e-16)
(-2.35264e-15 -5.49204e-30 1.95327e-30 1.25864 5.2096e-15 1.6265e-16 0.123877 -5.22662e-16 1.84398e-15)
(1.88211e-14 7.81307e-30 -4.76495e-30 1.25864 -3.43407e-15 -3.29034e-15 0.123877 -2.99553e-15 -3.36929e-16)
(0 -1.15048e-29 2.87621e-30 1.23117 4.82012e-15 2.61643e-16 0.123438 -5.04509e-16 1.82972e-15)
(9.44517e-15 1.15048e-29 -4.34254e-30 1.23117 -3.26569e-15 -3.41722e-15 0.123438 -3.06034e-15 -3.49647e-16)
(-2.36992e-15 9.83742e-30 -1.41175e-30 1.20436 4.71022e-15 -9.29776e-18 0.123009 -4.63386e-16 1.81648e-15)
(7.36034e-15 -3.76467e-30 -5.98854e-31 1.20436 -3.7246e-15 -3.4296e-15 0.123009 -3.23884e-15 -3.52182e-16)
(0 7.39137e-30 -1.38588e-30 1.17821 5.29489e-15 -1.18376e-16 0.122588 -5.00821e-16 1.76572e-15)
(7.43355e-15 -3.69569e-30 -2.23517e-31 1.17821 -4.16182e-15 -3.41545e-15 0.122588 -3.34804e-15 -3.59846e-16)
(-2.38707e-15 -8.63113e-30 3.17447e-30 1.1527 5.73587e-15 2.2794e-17 0.122175 -6.0386e-16 1.73082e-15)