/*--------------------------------*- C++ -*----------------------------------*\
| =========                 |                                                 |
| \\      /  F ield         | OpenFOAM: The Open Source CFD Toolbox           |
|  \\    /   O peration     | Version:  2106                                  |
|   \\  /    A nd           | Website:  www.openfoam.com                      |
|    \\/     M anipulation  |                                                 |
\*---------------------------------------------------------------------------*/
FoamFile
{
    version     2.0;
    format      ascii;
    arch        "LSB;label=32;scalar=64";
    class       volScalarField;
    location    "10000";
    object      p;
}
// * * * * * * * * * * * * * * * * * * * * * * * * * * * * * * * * * * * * * //

dimensions      [0 2 -2 0 0 0 0];

internalField   nonuniform List<scalar> 
2000
(
1.2926e-15
6.48812e-15
2.81708e-15
6.48865e-15
2.96137e-15
6.48915e-15
2.71956e-15
6.48991e-15
2.56624e-15
6.49091e-15
2.46467e-15
6.49216e-15
2.37045e-15
6.49366e-15
2.27742e-15
6.4954e-15
2.18704e-15
6.49739e-15
2.09925e-15
6.49964e-15
2.01335e-15
6.50206e-15
1.92891e-15
6.50468e-15
1.84562e-15
6.50748e-15
1.76343e-15
6.51041e-15
1.68222e-15
6.51357e-15
1.60195e-15
6.51684e-15
1.52283e-15
6.52012e-15
1.44472e-15
6.52352e-15
1.36773e-15
6.52697e-15
1.29166e-15
6.53032e-15
1.21657e-15
6.53364e-15
1.14233e-15
6.53709e-15
1.06892e-15
6.54052e-15
9.96478e-16
6.54377e-15
9.24765e-16
6.54703e-15
8.5372e-16
6.55023e-15
7.83443e-16
6.55325e-15
7.13889e-16
6.55612e-15
6.4471e-16
6.55892e-15
5.76054e-16
6.56146e-15
5.076e-16
6.56376e-15
4.39522e-16
6.5657e-15
3.71571e-16
6.56742e-15
3.03496e-16
6.56902e-15
2.35126e-16
6.57031e-15
1.66624e-16
6.57139e-15
9.78224e-17
6.57214e-15
2.8641e-17
6.5725e-15
-4.11645e-17
6.57259e-15
-1.11664e-16
6.57217e-15
-1.83181e-16
6.5717e-15
-2.55686e-16
6.57095e-15
-3.2859e-16
6.56949e-15
-4.02463e-16
6.56742e-15
-4.77231e-16
6.56438e-15
-5.53187e-16
6.56074e-15
-6.30239e-16
6.55613e-15
-7.0808e-16
6.55114e-15
-7.87185e-16
6.5458e-15
-8.67015e-16
6.54011e-15
-9.48044e-16
6.53328e-15
-1.02969e-15
6.52549e-15
-1.11332e-15
6.51721e-15
-1.19699e-15
6.50755e-15
-1.28093e-15
6.49629e-15
-1.36658e-15
6.4841e-15
-1.45281e-15
6.47077e-15
-1.53916e-15
6.45681e-15
-1.62638e-15
6.44224e-15
-1.71451e-15
6.42636e-15
-1.80282e-15
6.40891e-15
-1.89212e-15
6.38966e-15
-1.98165e-15
6.37049e-15
-2.07227e-15
6.35067e-15
-2.16181e-15
6.32859e-15
-2.25195e-15
6.30482e-15
-2.34161e-15
6.27941e-15
-2.43079e-15
6.25122e-15
-2.52074e-15
6.22086e-15
-2.60788e-15
6.18837e-15
-2.69465e-15
6.15379e-15
-2.78172e-15
6.11843e-15
-2.86792e-15
6.08175e-15
-2.95329e-15
6.04191e-15
-3.03462e-15
5.99567e-15
-3.11521e-15
5.94763e-15
-3.19514e-15
5.89856e-15
-3.27315e-15
5.84789e-15
-3.35204e-15
5.79434e-15
-3.42849e-15
5.73799e-15
-3.50185e-15
5.67894e-15
-3.57504e-15
5.61728e-15
-3.64968e-15
5.55747e-15
-3.7208e-15
5.49019e-15
-3.78925e-15
5.41914e-15
-3.85662e-15
5.34819e-15
-3.92157e-15
5.27523e-15
-3.98345e-15
5.19659e-15
-4.04318e-15
5.11543e-15
-4.10092e-15
5.03502e-15
-4.15524e-15
4.94926e-15
-4.20632e-15
4.85984e-15
-4.25591e-15
4.7701e-15
-4.30585e-15
4.67862e-15
-4.3531e-15
4.58395e-15
-4.39621e-15
4.48953e-15
-4.4387e-15
4.39726e-15
-4.48083e-15
4.30067e-15
-4.52116e-15
4.2033e-15
-4.56166e-15
4.10366e-15
-4.59746e-15
4.00366e-15
-4.63052e-15
3.90527e-15
-4.6611e-15
3.807e-15
-4.68774e-15
3.70557e-15
-4.71246e-15
3.60472e-15
-4.732e-15
3.50469e-15
-4.75021e-15
3.40754e-15
-4.7638e-15
3.30994e-15
-4.77668e-15
3.20851e-15
-4.78007e-15
3.10893e-15
-4.78704e-15
3.00778e-15
-4.7906e-15
2.91083e-15
-4.79293e-15
2.82024e-15
-4.78881e-15
2.72889e-15
-4.78041e-15
2.63328e-15
-4.77182e-15
2.53363e-15
-4.75582e-15
2.4358e-15
-4.74029e-15
2.33815e-15
-4.73707e-15
2.23709e-15
-4.72362e-15
2.13284e-15
-4.72336e-15
2.04489e-15
-4.72909e-15
1.96593e-15
-4.73751e-15
1.88475e-15
-4.73745e-15
1.80169e-15
-4.73327e-15
1.72103e-15
-4.73332e-15
1.6392e-15
-4.73025e-15
1.55658e-15
-4.72855e-15
1.47354e-15
-4.72877e-15
1.38648e-15
-4.72353e-15
1.29176e-15
-4.71331e-15
1.20563e-15
-4.70259e-15
1.12048e-15
-4.69192e-15
1.02065e-15
-4.67776e-15
9.22418e-16
-4.66459e-15
8.30081e-16
-4.65293e-15
7.35889e-16
-4.64327e-15
6.36089e-16
-4.6321e-15
5.39057e-16
-4.61991e-15
4.49153e-16
-4.61536e-15
3.46359e-16
-4.61085e-15
2.30902e-16
-4.60684e-15
1.27452e-16
-4.59566e-15
2.80586e-17
-4.58603e-15
-7.93808e-17
-4.57838e-15
-1.86545e-16
-4.56907e-15
-2.89192e-16
-4.55445e-15
-3.87181e-16
-4.53903e-15
-4.88671e-16
-4.51909e-15
-5.97794e-16
-4.49491e-15
-6.98199e-16
-4.49152e-15
-8.14748e-16
-4.48451e-15
-9.31006e-16
-4.4742e-15
-1.05537e-15
-4.43598e-15
-1.17997e-15
-4.41104e-15
-1.28888e-15
-4.4077e-15
-1.38256e-15
-4.40151e-15
-1.47762e-15
-4.39278e-15
-1.56589e-15
-4.38191e-15
-1.67242e-15
-4.3773e-15
-1.77287e-15
-4.35432e-15
-1.85925e-15
-4.32963e-15
-1.94853e-15
-4.32798e-15
-2.04129e-15
-4.32481e-15
-2.12129e-15
-4.31213e-15
-2.18866e-15
-4.29852e-15
-2.29322e-15
-4.29204e-15
-2.40286e-15
-4.26777e-15
-2.49402e-15
-4.25835e-15
-2.57609e-15
-4.25548e-15
-2.65807e-15
-4.25915e-15
-2.75727e-15
-4.25276e-15
-2.85829e-15
-4.26868e-15
-2.95424e-15
-4.24962e-15
-3.02981e-15
-4.25228e-15
-3.09464e-15
-4.23564e-15
-3.18236e-15
-4.24779e-15
-3.27014e-15
-4.24767e-15
-3.35915e-15
-4.24268e-15
-3.42667e-15
-4.21608e-15
-3.51461e-15
-4.17432e-15
-3.58526e-15
-4.19608e-15
-3.67386e-15
-4.21585e-15
-3.75003e-15
-4.21711e-15
-3.8313e-15
-4.23089e-15
-3.91962e-15
-4.23974e-15
-3.96925e-15
-4.25853e-15
-3.99795e-15
-4.27199e-15
-4.03819e-15
-4.2958e-15
-4.10681e-15
-4.29752e-15
-4.20558e-15
-4.32198e-15
-4.27483e-15
-4.35235e-15
-4.33204e-15
-4.38796e-15
-4.34741e-15
-4.42972e-15
-4.36693e-15
-4.46293e-15
-4.42082e-15
-4.47173e-15
-4.44759e-15
-4.51754e-15
-4.43306e-15
-4.58761e-15
-4.452e-15
-4.63889e-15
-4.44053e-15
-4.67457e-15
-4.50208e-15
-4.75542e-15
-4.57639e-15
-4.79141e-15
-4.63377e-15
-4.82754e-15
-4.70566e-15
-4.84713e-15
-4.79506e-15
-4.93744e-15
-4.86108e-15
-4.99611e-15
-4.87242e-15
-5.05699e-15
-4.94512e-15
-5.12025e-15
-5.04945e-15
-5.14044e-15
-5.11424e-15
-5.17351e-15
-5.15785e-15
-5.20362e-15
-5.22637e-15
-5.25614e-15
-5.29371e-15
-5.37419e-15
-5.36034e-15
-5.4041e-15
-5.39368e-15
-5.46344e-15
-5.47969e-15
-5.55146e-15
-5.56569e-15
-5.5847e-15
-5.59774e-15
-5.6486e-15
-5.60318e-15
-5.71785e-15
-5.68679e-15
-5.79113e-15
-5.76497e-15
-5.81537e-15
-5.81092e-15
-5.92328e-15
-5.88194e-15
-6.03673e-15
-5.97749e-15
-6.07913e-15
-6.0145e-15
-6.10636e-15
-6.0465e-15
-6.16872e-15
-6.15222e-15
-6.26089e-15
-6.28215e-15
-6.37975e-15
-6.36393e-15
-6.50341e-15
-6.44715e-15
-6.58881e-15
-6.57514e-15
-6.68119e-15
-6.6728e-15
-6.77939e-15
-6.76735e-15
-6.93445e-15
-6.85932e-15
-7.07916e-15
-6.96526e-15
-7.12318e-15
-7.02771e-15
-7.28291e-15
-6.99531e-15
-7.37084e-15
-7.02857e-15
-7.42446e-15
-7.13656e-15
-7.50352e-15
-7.20097e-15
-7.56574e-15
-7.28707e-15
-7.61334e-15
-7.40104e-15
-7.60966e-15
-7.50987e-15
-7.55445e-15
-7.56066e-15
-7.58106e-15
-7.57749e-15
-7.62037e-15
-7.60535e-15
-7.67534e-15
-7.66448e-15
-7.77195e-15
-7.68476e-15
-7.75815e-15
-7.69448e-15
-7.73879e-15
-7.69977e-15
-7.74472e-15
-7.74733e-15
1.0806e-15
9.88972e-16
1.08099e-15
9.89122e-16
1.08136e-15
9.8926e-16
1.08187e-15
9.89454e-16
1.08255e-15
9.897e-16
1.0834e-15
9.90028e-16
1.08443e-15
9.90438e-16
1.08562e-15
9.90921e-16
1.08698e-15
9.91498e-16
1.08849e-15
9.92217e-16
1.09016e-15
9.92998e-16
1.09199e-15
9.93816e-16
1.09396e-15
9.94773e-16
1.09606e-15
9.95804e-16
1.0984e-15
9.96847e-16
1.10084e-15
9.9797e-16
1.10336e-15
9.99164e-16
1.10603e-15
1.00039e-15
1.10874e-15
1.00179e-15
1.11155e-15
1.00331e-15
1.11445e-15
1.00492e-15
1.1175e-15
1.00661e-15
1.12059e-15
1.00852e-15
1.12369e-15
1.01058e-15
1.1269e-15
1.01274e-15
1.13016e-15
1.01503e-15
1.13349e-15
1.01748e-15
1.1368e-15
1.01987e-15
1.1402e-15
1.02241e-15
1.14359e-15
1.02525e-15
1.14709e-15
1.02826e-15
1.15061e-15
1.03127e-15
1.15416e-15
1.03436e-15
1.15768e-15
1.03777e-15
1.16126e-15
1.04109e-15
1.16491e-15
1.04473e-15
1.16881e-15
1.04861e-15
1.17257e-15
1.05281e-15
1.17634e-15
1.05726e-15
1.18025e-15
1.06153e-15
1.18421e-15
1.06604e-15
1.18815e-15
1.07099e-15
1.19225e-15
1.07584e-15
1.19618e-15
1.08114e-15
1.20011e-15
1.08689e-15
1.20424e-15
1.09274e-15
1.2088e-15
1.09868e-15
1.21321e-15
1.1043e-15
1.21747e-15
1.11101e-15
1.22159e-15
1.11865e-15
1.22556e-15
1.12554e-15
1.22939e-15
1.13252e-15
1.23242e-15
1.14068e-15
1.23508e-15
1.14871e-15
1.23759e-15
1.15752e-15
1.23995e-15
1.16711e-15
1.24193e-15
1.17705e-15
1.24304e-15
1.18757e-15
1.24476e-15
1.19793e-15
1.24558e-15
1.20863e-15
1.24601e-15
1.21967e-15
1.245e-15
1.23236e-15
1.24384e-15
1.24488e-15
1.2431e-15
1.25802e-15
1.2417e-15
1.27067e-15
1.23907e-15
1.28452e-15
1.23575e-15
1.29958e-15
1.23292e-15
1.31295e-15
1.23002e-15
1.32456e-15
1.22647e-15
1.33737e-15
1.22165e-15
1.35327e-15
1.21618e-15
1.3692e-15
1.21006e-15
1.38326e-15
1.20329e-15
1.39601e-15
1.19785e-15
1.40807e-15
1.19182e-15
1.41743e-15
1.18454e-15
1.43072e-15
1.17532e-15
1.446e-15
1.16968e-15
1.45365e-15
1.16283e-15
1.45977e-15
1.1548e-15
1.46857e-15
1.14559e-15
1.47867e-15
1.13449e-15
1.48648e-15
1.12222e-15
1.49048e-15
1.11102e-15
1.49282e-15
1.10023e-15
1.49796e-15
1.08761e-15
1.50521e-15
1.07394e-15
1.5085e-15
1.06003e-15
1.5093e-15
1.04747e-15
1.50914e-15
1.03635e-15
1.50802e-15
1.02357e-15
1.50273e-15
1.00754e-15
1.49966e-15
9.94763e-16
1.49399e-15
9.78799e-16
1.48241e-15
9.61317e-16
1.47476e-15
9.42355e-16
1.4678e-15
9.21952e-16
1.45651e-15
9.01847e-16
1.44256e-15
8.80414e-16
1.42422e-15
8.59429e-16
1.40488e-15
8.38983e-16
1.3915e-15
8.1916e-16
1.37546e-15
8.00055e-16
1.35149e-15
7.72927e-16
1.33013e-15
7.48435e-16
1.31143e-15
7.21319e-16
1.28832e-15
6.91631e-16
1.26257e-15
6.59422e-16
1.23602e-15
6.24747e-16
1.21418e-15
6.00485e-16
1.18798e-15
5.6471e-16
1.15743e-15
5.32217e-16
1.12809e-15
4.93804e-16
1.1019e-15
4.55095e-16
1.07708e-15
4.18029e-16
1.04619e-15
3.75122e-16
1.02062e-15
3.35867e-16
9.90991e-16
2.96532e-16
9.53553e-16
2.57204e-16
9.12148e-16
2.21822e-16
8.74522e-16
1.82789e-16
8.40768e-16
1.47938e-16
7.99342e-16
1.13539e-16
7.50233e-16
7.19191e-17
7.05145e-16
3.09924e-17
6.56307e-16
-5.16258e-18
6.07677e-16
-4.03135e-17
5.63242e-16
-7.82685e-17
5.19113e-16
-1.26854e-16
4.71383e-16
-1.70071e-16
4.12154e-16
-2.11729e-16
3.61385e-16
-2.55686e-16
3.15167e-16
-3.05857e-16
2.6962e-16
-3.58164e-16
2.20866e-16
-4.04456e-16
1.64986e-16
-4.44563e-16
1.0608e-16
-4.90429e-16
4.82484e-17
-5.45981e-16
-1.2488e-17
-5.9077e-16
-7.60456e-17
-6.40861e-16
-1.42375e-16
-6.87892e-16
-1.86856e-16
-7.2354e-16
-2.33765e-16
-7.76269e-16
-2.87065e-16
-8.25481e-16
-3.4245e-16
-8.71008e-16
-3.95619e-16
-9.33247e-16
-4.3403e-16
-9.79346e-16
-4.69592e-16
-1.02574e-15
-5.01916e-16
-1.08068e-15
-5.47042e-16
-1.12771e-15
-6.12857e-16
-1.16656e-15
-6.82649e-16
-1.20511e-15
-7.23221e-16
-1.2515e-15
-7.75453e-16
-1.29741e-15
-8.14091e-16
-1.35113e-15
-8.79985e-16
-1.39592e-15
-9.48058e-16
-1.43144e-15
-9.93306e-16
-1.47402e-15
-1.04023e-15
-1.51523e-15
-1.1132e-15
-1.55461e-15
-1.17068e-15
-1.60019e-15
-1.22073e-15
-1.63535e-15
-1.29601e-15
-1.68426e-15
-1.37999e-15
-1.72158e-15
-1.43144e-15
-1.75527e-15
-1.48322e-15
-1.78495e-15
-1.51842e-15
-1.81855e-15
-1.56107e-15
-1.85585e-15
-1.61886e-15
-1.89638e-15
-1.65856e-15
-1.93994e-15
-1.72065e-15
-1.9778e-15
-1.78821e-15
-2.00933e-15
-1.84462e-15
-2.06647e-15
-1.88133e-15
-2.13314e-15
-1.91367e-15
-2.17719e-15
-1.97297e-15
-2.22286e-15
-2.05045e-15
-2.27742e-15
-2.11341e-15
-2.32433e-15
-2.17749e-15
-2.3713e-15
-2.20184e-15
-2.43508e-15
-2.22536e-15
-2.50081e-15
-2.27833e-15
-2.55257e-15
-2.3592e-15
-2.58956e-15
-2.45166e-15
-2.65851e-15
-2.52418e-15
-2.75922e-15
-2.55995e-15
-2.78191e-15
-2.60438e-15
-2.83741e-15
-2.65729e-15
-2.89381e-15
-2.71779e-15
-2.95085e-15
-2.80071e-15
-3.00798e-15
-2.90543e-15
-3.07933e-15
-2.9698e-15
-3.1493e-15
-3.07148e-15
-3.23237e-15
-3.14907e-15
-3.2974e-15
-3.23375e-15
-3.35921e-15
-3.27909e-15
-3.41863e-15
-3.33063e-15
-3.47553e-15
-3.38826e-15
-3.55966e-15
-3.48251e-15
-3.62431e-15
-3.55335e-15
-3.69973e-15
-3.60046e-15
-3.78616e-15
-3.68204e-15
-3.86895e-15
-3.72128e-15
-3.92037e-15
-3.80508e-15
-3.98428e-15
-3.91824e-15
-4.04164e-15
-4.0031e-15
-4.11991e-15
-4.1069e-15
-4.18728e-15
-4.21584e-15
-4.27005e-15
-4.28706e-15
-4.35471e-15
-4.31945e-15
-4.45957e-15
-4.39657e-15
-4.51484e-15
-4.51526e-15
-4.60293e-15
-4.62178e-15
-4.60477e-15
-4.7034e-15
-4.6567e-15
-4.73812e-15
-4.72911e-15
-4.77953e-15
-4.79366e-15
-4.87922e-15
-4.93195e-15
-4.98453e-15
-5.03509e-15
-5.09583e-15
-5.07483e-15
-5.18611e-15
-5.21076e-15
-5.25982e-15
-5.31304e-15
-5.28435e-15
-5.38789e-15
-5.3866e-15
-5.45699e-15
-5.45836e-15
-5.57423e-15
-5.5549e-15
-5.66399e-15
-5.67587e-15
-5.75016e-15
-5.77061e-15
-5.88319e-15
-5.8638e-15
-5.96126e-15
-6.02915e-15
-6.1009e-15
-6.20181e-15
-6.22061e-15
-6.31012e-15
-6.34784e-15
-6.40524e-15
-6.51267e-15
-6.50794e-15
-6.62086e-15
-6.63448e-15
-6.79255e-15
-6.7624e-15
-6.89168e-15
-6.83881e-15
-6.99172e-15
-6.9182e-15
-7.14549e-15
-7.04934e-15
-7.21704e-15
-7.15502e-15
-7.24897e-15
-7.19584e-15
-7.33327e-15
-7.26605e-15
-7.37876e-15
-7.40534e-15
-7.44272e-15
-7.44318e-15
-7.47074e-15
-7.46848e-15
-7.51053e-15
-7.50474e-15
-7.53894e-15
-7.57485e-15
-7.51939e-15
-7.59596e-15
-7.56615e-15
-7.60166e-15
-7.62551e-15
-7.65076e-15
-7.70925e-15
-7.69996e-15
-7.75479e-15
-7.75599e-15
-7.68004e-15
-7.72738e-15
-7.68486e-15
-7.71771e-15
-7.68387e-15
-7.72431e-15
-7.67734e-15
-7.70117e-15
-7.61663e-15
-7.63927e-15
-7.62025e-15
-7.60838e-15
-7.58361e-15
-7.6025e-15
-7.6119e-15
-7.60441e-15
-7.68689e-15
-7.61033e-15
-7.68683e-15
-7.63528e-15
-7.69971e-15
-7.63606e-15
-7.63738e-15
-7.61106e-15
-7.60929e-15
-7.58741e-15
-7.61249e-15
-7.58814e-15
-7.64783e-15
-7.58841e-15
-7.62266e-15
-7.58154e-15
-7.60709e-15
-7.56926e-15
-7.6013e-15
-7.60009e-15
-7.62454e-15
-7.60001e-15
-7.61999e-15
-7.61663e-15
-7.63503e-15
-7.62876e-15
-7.64616e-15
-7.6639e-15
-7.67813e-15
-7.6487e-15
-7.68523e-15
-7.63045e-15
-7.67257e-15
-7.63223e-15
-7.69203e-15
-7.60229e-15
-7.72183e-15
-7.61565e-15
-7.73632e-15
-7.67139e-15
-7.70263e-15
-7.6938e-15
-7.66833e-15
-7.66216e-15
-7.63611e-15
-7.63035e-15
-7.63211e-15
-7.56891e-15
-7.66095e-15
-7.52645e-15
-7.67494e-15
-7.52413e-15
-7.61694e-15
-7.5347e-15
-7.59301e-15
-7.5085e-15
-7.60347e-15
-7.50233e-15
-7.59179e-15
-7.51568e-15
-7.58419e-15
-7.50883e-15
-7.59481e-15
-7.56992e-15
-7.62008e-15
-7.58514e-15
-7.5724e-15
-7.59727e-15
-7.59533e-15
-7.61056e-15
-7.58624e-15
-7.60982e-15
-7.58843e-15
-7.60909e-15
-7.57189e-15
-7.59315e-15
-7.61152e-15
-7.57772e-15
-7.60554e-15
-7.58979e-15
-7.59786e-15
-7.58459e-15
-7.6044e-15
-7.56289e-15
-7.62673e-15
-7.53846e-15
-7.62056e-15
-7.55598e-15
-7.6001e-15
-7.60149e-15
-7.6088e-15
-7.66272e-15
-7.6301e-15
-7.63444e-15
-7.61969e-15
-7.57658e-15
-7.641e-15
-7.54917e-15
-7.64929e-15
-7.56597e-15
-7.64437e-15
-7.59609e-15
-7.64102e-15
-7.59368e-15
-7.63938e-15
-7.55862e-15
-7.64014e-15
-7.52142e-15
-7.62853e-15
-7.52807e-15
-7.61987e-15
-7.54751e-15
-7.62897e-15
-7.54902e-15
-7.64005e-15
-7.54865e-15
-7.65335e-15
-7.54654e-15
-7.65306e-15
-7.55854e-15
-7.65457e-15
-7.58526e-15
-7.68965e-15
-7.61141e-15
-7.72643e-15
-7.62069e-15
-7.72487e-15
-7.6042e-15
-7.73375e-15
-7.6103e-15
-7.74491e-15
-7.63111e-15
-7.74993e-15
-7.65082e-15
-7.7565e-15
-7.65335e-15
-7.75646e-15
-7.67941e-15
-7.76567e-15
-7.72944e-15
-7.77528e-15
-7.73862e-15
-7.79356e-15
-7.73172e-15
-7.78802e-15
-7.73314e-15
-7.80789e-15
-7.74297e-15
-7.82049e-15
-7.75271e-15
-7.82595e-15
-7.77043e-15
-7.82406e-15
-7.7715e-15
-7.81465e-15
-7.7725e-15
-7.81408e-15
-7.77358e-15
-7.82232e-15
-7.77477e-15
-7.82284e-15
-7.76777e-15
-7.83224e-15
-7.75247e-15
-7.84247e-15
-7.72028e-15
-7.83738e-15
-7.71201e-15
-7.83354e-15
-7.72762e-15
-7.83077e-15
-7.7259e-15
-7.82897e-15
-7.73166e-15
-7.83625e-15
-7.73674e-15
-7.82776e-15
-7.74111e-15
-7.82822e-15
-7.74489e-15
-7.82928e-15
-7.75639e-15
-7.83906e-15
-7.76742e-15
-7.84106e-15
-7.76976e-15
-7.84346e-15
-7.77994e-15
-7.84619e-15
-7.78149e-15
-7.8492e-15
-7.77854e-15
-7.8443e-15
-7.77516e-15
-7.84376e-15
-7.78782e-15
-7.85159e-15
-7.79195e-15
-7.85961e-15
-7.79166e-15
-7.85965e-15
-7.7951e-15
-7.86392e-15
-7.7941e-15
-7.86428e-15
-7.78865e-15
-7.86481e-15
-7.79094e-15
-7.86549e-15
-7.78881e-15
-7.86629e-15
-7.7904e-15
-7.86718e-15
-7.80377e-15
-7.8681e-15
-7.81285e-15
-7.865e-15
-7.81771e-15
-7.86587e-15
-7.81439e-15
-7.87071e-15
-7.80292e-15
-7.87157e-15
-7.80723e-15
-7.87642e-15
-7.80734e-15
-7.88525e-15
-7.80724e-15
-7.88227e-15
-7.80296e-15
-7.87937e-15
-7.78663e-15
-7.88442e-15
-7.78973e-15
-7.89347e-15
-7.79646e-15
-7.8948e-15
-7.799e-15
-7.89235e-15
-7.78965e-15
-7.89778e-15
-7.79169e-15
-7.89947e-15
-7.8012e-15
-7.90129e-15
-7.80277e-15
-7.8994e-15
-7.80031e-15
-7.89764e-15
-7.80528e-15
-7.90356e-15
-7.81006e-15
-7.91145e-15
-7.8109e-15
-7.91943e-15
-7.8022e-15
-7.93125e-15
-7.79148e-15
-7.93395e-15
-7.78987e-15
-7.93683e-15
-7.7954e-15
-7.94173e-15
-7.79702e-15
-7.94315e-15
-7.79477e-15
-7.94294e-15
-7.79414e-15
-7.94652e-15
-7.79691e-15
-7.94668e-15
-7.79766e-15
-7.94524e-15
-7.8e-15
-7.9475e-15
-7.80037e-15
-7.94991e-15
-7.79704e-15
-7.95421e-15
-7.79182e-15
-7.95518e-15
-7.78644e-15
-7.95288e-15
-7.78091e-15
-7.95247e-15
-7.78206e-15
-7.95391e-15
-7.78302e-15
-7.95214e-15
-7.7838e-15
-7.95385e-15
-7.77941e-15
-7.9524e-15
-7.77323e-15
-7.95273e-15
-7.76366e-15
-7.95159e-15
-7.76212e-15
-7.94738e-15
-7.76042e-15
-7.94494e-15
-7.75698e-15
-7.94266e-15
-7.75342e-15
-7.94208e-15
-7.74974e-15
-7.94163e-15
-7.74595e-15
-7.94131e-15
-7.74358e-15
-7.93959e-15
-7.7426e-15
-7.93725e-15
-7.7415e-15
-7.93505e-15
-7.74324e-15
-7.93371e-15
-7.74337e-15
-7.93175e-15
-7.74119e-15
-7.92776e-15
-7.74036e-15
-7.92391e-15
-7.74014e-15
-7.92369e-15
-7.74122e-15
-7.92217e-15
-7.74218e-15
-7.92074e-15
-7.74167e-15
-7.91941e-15
-7.73771e-15
-7.91684e-15
-7.73505e-15
-7.91373e-15
-7.7343e-15
-7.91137e-15
-7.73477e-15
-7.90974e-15
-7.73453e-15
-7.90631e-15
-7.73484e-15
-7.90362e-15
-7.73322e-15
-7.90162e-15
-7.73339e-15
-7.89911e-15
-7.73529e-15
-7.89669e-15
-7.73474e-15
-7.89493e-15
-7.73241e-15
-7.89325e-15
-7.73178e-15
-7.89163e-15
-7.73166e-15
-7.88954e-15
-7.73039e-15
-7.88806e-15
-7.72803e-15
-7.88638e-15
-7.72804e-15
-7.88528e-15
-7.72904e-15
-7.88525e-15
-7.72795e-15
-7.88476e-15
-7.72634e-15
-7.88358e-15
-7.72619e-15
-7.88292e-15
-7.72553e-15
-7.88325e-15
-7.72461e-15
-7.8836e-15
-7.72367e-15
-7.88329e-15
-7.72317e-15
-7.88301e-15
-7.72309e-15
-7.88233e-15
-7.72319e-15
-7.88191e-15
-7.72347e-15
-7.88151e-15
-7.72434e-15
-7.88135e-15
-7.72476e-15
-7.88081e-15
-7.72415e-15
-7.88031e-15
-7.72391e-15
-7.88002e-15
-7.72423e-15
-7.87995e-15
-7.72433e-15
-7.8799e-15
-7.72441e-15
-7.87986e-15
-7.72428e-15
-7.87985e-15
-7.72449e-15
-7.87994e-15
-7.72512e-15
-7.87986e-15
-7.72545e-15
-7.87981e-15
-7.72542e-15
-7.87969e-15
-7.72563e-15
-7.87974e-15
-7.72591e-15
-7.87982e-15
-7.72599e-15
-7.87998e-15
-7.72631e-15
-7.87983e-15
-7.7267e-15
-7.87969e-15
-7.72699e-15
-7.87981e-15
-7.72718e-15
-7.87995e-15
-7.72719e-15
-7.88009e-15
-7.72728e-15
-7.88016e-15
-7.72743e-15
-7.8802e-15
-7.72741e-15
-7.88029e-15
-7.72728e-15
-7.88031e-15
-7.72732e-15
-7.88029e-15
-7.72747e-15
-7.88032e-15
-7.72758e-15
-7.88037e-15
-7.72763e-15
-7.88046e-15
-7.72762e-15
-7.88048e-15
-7.72766e-15
-7.8805e-15
-7.72773e-15
-7.88053e-15
-7.72774e-15
-7.88052e-15
-7.72773e-15
-7.88056e-15
-7.72777e-15
-7.88061e-15
-7.72784e-15
-7.88062e-15
-7.7279e-15
-7.88063e-15
-7.72793e-15
-7.88062e-15
-7.72801e-15
-7.88065e-15
-7.72803e-15
-7.88065e-15
-7.72803e-15
-7.88063e-15
-7.72807e-15
-7.8806e-15
-7.7281e-15
-7.88057e-15
-7.72812e-15
-7.8806e-15
-7.72813e-15
-7.8806e-15
-7.72815e-15
-7.88061e-15
-7.72814e-15
-7.88061e-15
-7.72815e-15
-7.88062e-15
-7.72815e-15
-7.88062e-15
-7.72815e-15
-7.69847e-15
-7.69404e-15
-7.6812e-15
-7.6784e-15
-7.66478e-15
-7.65553e-15
-7.6481e-15
-7.66864e-15
-7.69173e-15
-7.68001e-15
-7.6231e-15
-7.61596e-15
-7.57997e-15
-7.57079e-15
-7.60518e-15
-7.56653e-15
-7.64103e-15
-7.55022e-15
-7.62674e-15
-7.50969e-15
-7.65364e-15
-7.53248e-15
-7.57897e-15
-7.52266e-15
-7.57653e-15
-7.54108e-15
-7.57494e-15
-7.54721e-15
-7.57515e-15
-7.54526e-15
-7.57719e-15
-7.55993e-15
-7.5764e-15
-7.56975e-15
-7.54766e-15
-7.60315e-15
-7.55745e-15
-7.67303e-15
-7.70268e-15
-7.68751e-15
-7.72641e-15
-7.67999e-15
-7.71104e-15
-7.67049e-15
-7.7055e-15
-7.65844e-15
-7.70927e-15
-7.64023e-15
-7.66957e-15
-7.64002e-15
-7.65896e-15
-7.63699e-15
-7.67699e-15
-7.63182e-15
-7.6991e-15
-7.65064e-15
-7.7251e-15
-7.66646e-15
-7.72886e-15
-7.64883e-15
-7.63045e-15
-7.6492e-15
-7.63965e-15
-7.65068e-15
-7.64809e-15
-7.65402e-15
-7.60032e-15
-7.66146e-15
-7.63e-15
-7.62261e-15
-7.63012e-15
-7.58682e-15
-7.60533e-15
-7.57822e-15
-7.61165e-15
-7.57015e-15
-7.62119e-15
-7.53252e-15
-7.62317e-15
-7.51842e-15
-7.64787e-15
-7.58556e-15
-7.66353e-15
-7.62021e-15
-7.63888e-15
-7.60916e-15
-7.64744e-15
-7.61151e-15
-7.67442e-15
-7.6566e-15
-7.68989e-15
-7.65728e-15
-7.69471e-15
-7.61242e-15
-7.69166e-15
-7.62412e-15
-7.70895e-15
-7.64889e-15
-7.67063e-15
-7.61146e-15
-7.667e-15
-7.60239e-15
-7.69817e-15
-7.56068e-15
-7.69048e-15
-7.57512e-15
-7.6888e-15
-7.60082e-15
-7.66123e-15
-7.57669e-15
-7.65323e-15
-7.54773e-15
-7.68063e-15
-7.52894e-15
-7.66744e-15
-7.53533e-15
-7.65906e-15
-7.55281e-15
-7.63847e-15
-7.56672e-15
-7.61995e-15
-7.56219e-15
-7.63446e-15
-7.53962e-15
-7.6199e-15
-7.56165e-15
-7.60664e-15
-7.56676e-15
-7.62605e-15
-7.55535e-15
-7.6314e-15
-7.5422e-15
-7.639e-15
-7.51068e-15
-7.64967e-15
-7.50774e-15
-7.67971e-15
-7.50108e-15
-7.68176e-15
-7.50596e-15
-7.68786e-15
-7.52245e-15
-7.71358e-15
-7.55086e-15
-7.72619e-15
-7.55103e-15
-7.73405e-15
-7.5392e-15
-7.74551e-15
-7.53126e-15
-7.76898e-15
-7.5513e-15
-7.77182e-15
-7.57497e-15
-7.77803e-15
-7.61117e-15
-7.78708e-15
-7.63602e-15
-7.7904e-15
-7.6168e-15
-7.7964e-15
-7.59409e-15
-7.79706e-15
-7.60044e-15
-7.79224e-15
-7.62793e-15
-7.78124e-15
-7.66075e-15
-7.78801e-15
-7.68324e-15
-7.80411e-15
-7.67913e-15
-7.79677e-15
-7.673e-15
-7.79901e-15
-7.67316e-15
-7.81082e-15
-7.66311e-15
-7.81586e-15
-7.65919e-15
-7.82246e-15
-7.66141e-15
-7.82231e-15
-7.66987e-15
-7.81521e-15
-7.67666e-15
-7.801e-15
-7.69031e-15
-7.81247e-15
-7.70283e-15
-7.82479e-15
-7.70603e-15
-7.83805e-15
-7.71644e-15
-7.81916e-15
-7.72581e-15
-7.83405e-15
-7.72614e-15
-7.84147e-15
-7.74216e-15
-7.84136e-15
-7.74915e-15
-7.85839e-15
-7.75545e-15
-7.86789e-15
-7.76927e-15
-7.87808e-15
-7.78243e-15
-7.88481e-15
-7.78265e-15
-7.89224e-15
-7.77818e-15
-7.89633e-15
-7.7895e-15
-7.89294e-15
-7.79613e-15
-7.91063e-15
-7.79816e-15
-7.92491e-15
-7.81191e-15
-7.9317e-15
-7.81696e-15
-7.93918e-15
-7.81337e-15
-7.94737e-15
-7.80928e-15
-7.95633e-15
-7.80058e-15
-7.97016e-15
-7.79937e-15
-7.97678e-15
-7.79749e-15
-7.98026e-15
-7.79895e-15
-7.9806e-15
-7.80371e-15
-7.98981e-15
-7.79978e-15
-7.99187e-15
-7.79516e-15
-7.99079e-15
-7.80586e-15
-7.99051e-15
-7.80796e-15
-7.99097e-15
-7.80552e-15
-7.9961e-15
-7.80254e-15
-7.99799e-15
-7.799e-15
-8.0006e-15
-7.8028e-15
-7.99606e-15
-7.80215e-15
-7.99606e-15
-7.79712e-15
-7.99281e-15
-7.78772e-15
-7.98631e-15
-7.78947e-15
-7.98039e-15
-7.79846e-15
-7.98267e-15
-7.7955e-15
-7.97779e-15
-7.78832e-15
-7.97721e-15
-7.78457e-15
-7.97709e-15
-7.78422e-15
-7.97929e-15
-7.78536e-15
-7.97441e-15
-7.78236e-15
-7.96622e-15
-7.78461e-15
-7.97325e-15
-7.78839e-15
-7.97874e-15
-7.78446e-15
-7.97537e-15
-7.78207e-15
-7.97416e-15
-7.78485e-15
-7.9769e-15
-7.78915e-15
-7.98351e-15
-7.78954e-15
-7.98142e-15
-7.79325e-15
-7.97783e-15
-7.79845e-15
-7.97982e-15
-7.79632e-15
-7.98204e-15
-7.79573e-15
-7.98274e-15
-7.79842e-15
-7.98367e-15
-7.79394e-15
-7.98309e-15
-7.79102e-15
-7.98274e-15
-7.79304e-15
-7.98599e-15
-7.79485e-15
-7.98269e-15
-7.79815e-15
-7.98294e-15
-7.79959e-15
-7.98338e-15
-7.79921e-15
-7.98234e-15
-7.79703e-15
-7.98149e-15
-7.79636e-15
-7.97758e-15
-7.79717e-15
-7.98025e-15
-7.79306e-15
-7.98147e-15
-7.79201e-15
-7.98126e-15
-7.79242e-15
-7.97656e-15
-7.79271e-15
-7.97511e-15
-7.79441e-15
-7.97456e-15
-7.79373e-15
-7.97339e-15
-7.79295e-15
-7.96938e-15
-7.79357e-15
-7.96774e-15
-7.79263e-15
-7.96549e-15
-7.78943e-15
-7.96266e-15
-7.78906e-15
-7.95997e-15
-7.78791e-15
-7.9574e-15
-7.7867e-15
-7.95427e-15
-7.78474e-15
-7.95263e-15
-7.78137e-15
-7.94975e-15
-7.77865e-15
-7.94699e-15
-7.77657e-15
-7.94434e-15
-7.7751e-15
-7.94181e-15
-7.77425e-15
-7.94002e-15
-7.77462e-15
-7.93833e-15
-7.77242e-15
-7.93611e-15
-7.77021e-15
-7.93399e-15
-7.7704e-15
-7.93137e-15
-7.77174e-15
-7.92884e-15
-7.77066e-15
-7.92873e-15
-7.7684e-15
-7.9298e-15
-7.76671e-15
-7.92924e-15
-7.765e-15
-7.92928e-15
-7.76383e-15
-7.92829e-15
-7.76318e-15
-7.9279e-15
-7.76303e-15
-7.92679e-15
-7.76181e-15
-7.92599e-15
-7.76057e-15
-7.92576e-15
-7.76008e-15
-7.92483e-15
-7.76054e-15
-7.92349e-15
-7.76048e-15
-7.92268e-15
-7.75968e-15
-7.92192e-15
-7.75911e-15
-7.92121e-15
-7.75874e-15
-7.92011e-15
-7.75857e-15
-7.9195e-15
-7.75795e-15
-7.91956e-15
-7.7569e-15
-7.91924e-15
-7.75625e-15
-7.91855e-15
-7.75682e-15
-7.9175e-15
-7.75735e-15
-7.91689e-15
-7.75727e-15
-7.91689e-15
-7.75697e-15
-7.91635e-15
-7.75685e-15
-7.91603e-15
-7.75689e-15
-7.91574e-15
-7.7571e-15
-7.91538e-15
-7.75693e-15
-7.91497e-15
-7.75657e-15
-7.91484e-15
-7.75628e-15
-7.91498e-15
-7.75616e-15
-7.91506e-15
-7.75602e-15
-7.91499e-15
-7.75578e-15
-7.91486e-15
-7.75553e-15
-7.91482e-15
-7.75526e-15
-7.91455e-15
-7.75515e-15
-7.91455e-15
-7.75511e-15
-7.91473e-15
-7.75514e-15
-7.91475e-15
-7.75508e-15
-7.91471e-15
-7.755e-15
-7.91468e-15
-7.75487e-15
-7.91467e-15
-7.75473e-15
-7.91483e-15
-7.75453e-15
-7.91502e-15
-7.75436e-15
-7.91508e-15
-7.75427e-15
-7.91511e-15
-7.75417e-15
-7.9152e-15
-7.75401e-15
-7.91531e-15
-7.75384e-15
-7.91532e-15
-7.75385e-15
-7.91526e-15
-7.75375e-15
-7.9154e-15
-7.75357e-15
-7.91545e-15
-7.75353e-15
-7.91538e-15
-7.75351e-15
-7.91535e-15
-7.75342e-15
-7.91538e-15
-7.7533e-15
-7.91538e-15
-7.75326e-15
-7.91537e-15
-7.7532e-15
-7.91543e-15
-7.75317e-15
-7.91543e-15
-7.75311e-15
-7.91544e-15
-7.75305e-15
-7.91545e-15
-7.75303e-15
-7.91546e-15
-7.753e-15
-7.9155e-15
-7.75295e-15
-7.91554e-15
-7.75292e-15
-7.91556e-15
-7.75289e-15
-7.91555e-15
-7.75289e-15
-7.91556e-15
-7.75289e-15
-7.91556e-15
-7.75288e-15
)
;

boundaryField
{
    walls
    {
        type            zeroGradient;
    }
    inlet
    {
        type            cyclic;
    }
    outlet
    {
        type            cyclic;
    }
    sides
    {
        type            empty;
    }
}


// ************************************************************************* //
