/*--------------------------------*- C++ -*----------------------------------*\
| =========                 |                                                 |
| \\      /  F ield         | OpenFOAM: The Open Source CFD Toolbox           |
|  \\    /   O peration     | Version:  2106                                  |
|   \\  /    A nd           | Website:  www.openfoam.com                      |
|    \\/     M anipulation  |                                                 |
\*---------------------------------------------------------------------------*/
FoamFile
{
    version     2.0;
    format      ascii;
    arch        "LSB;label=32;scalar=64";
    class       surfaceScalarField;
    location    "10000";
    object      phi;
}
// * * * * * * * * * * * * * * * * * * * * * * * * * * * * * * * * * * * * * //

dimensions      [0 3 -1 0 0 0 0];

oriented        oriented;

internalField   nonuniform List<scalar> 
3996
(
2.99769e-08
-5.25189e-18
1.41462e-23
-2.73225e-22
9.95142e-23
9.21678e-08
-5.25207e-18
1.72721e-22
-4.52403e-22
1.9506e-22
1.5783e-07
-5.25226e-18
1.91641e-22
-6.70502e-22
2.06311e-22
2.27114e-07
-5.25253e-18
2.03916e-22
-8.18296e-22
2.18288e-22
3.00178e-07
-5.25271e-18
2.219e-22
-1.06219e-21
2.31041e-22
3.77185e-07
-5.25304e-18
2.44187e-22
-1.28406e-21
2.44625e-22
4.58305e-07
-5.25348e-18
2.69072e-22
-1.36493e-21
2.59099e-22
5.43715e-07
-5.25386e-18
2.96075e-22
-1.44675e-21
2.74521e-22
6.33597e-07
-5.25435e-18
3.25104e-22
-1.65577e-21
2.90956e-22
7.28143e-07
-5.25501e-18
3.561e-22
-1.66046e-21
3.08467e-22
8.27549e-07
-5.25576e-18
3.89042e-22
-1.88547e-21
3.27124e-22
9.32019e-07
-5.25643e-18
4.23951e-22
-1.7667e-21
3.47006e-22
1.04176e-06
-5.25699e-18
4.60876e-22
-1.80774e-21
3.68177e-22
1.157e-06
-5.25777e-18
4.99873e-22
-1.98962e-21
3.90723e-22
1.27795e-06
-5.25849e-18
5.41003e-22
-2.19293e-21
4.14726e-22
1.40484e-06
-5.26005e-18
5.84334e-22
-1.91764e-21
4.40258e-22
1.53791e-06
-5.26127e-18
6.29939e-22
-2.08582e-21
4.67381e-22
1.67738e-06
-5.26318e-18
6.77845e-22
-2.00589e-21
4.96176e-22
1.8235e-06
-5.26441e-18
7.28098e-22
-1.48972e-21
5.26684e-22
1.97649e-06
-5.26606e-18
7.80677e-22
-1.15893e-21
5.58935e-22
2.13657e-06
-5.2676e-18
8.35565e-22
-1.25171e-21
5.9296e-22
2.30399e-06
-5.26873e-18
8.92669e-22
-1.1598e-21
6.28795e-22
2.47892e-06
-5.27111e-18
9.51873e-22
-1.21529e-22
6.66408e-22
2.66158e-06
-5.27266e-18
1.01306e-21
-4.43046e-22
7.05735e-22
2.85213e-06
-5.27468e-18
1.07598e-21
-6.82429e-22
7.46766e-22
3.0507e-06
-5.27765e-18
1.14037e-21
2.7583e-22
7.89407e-22
3.25743e-06
-5.28063e-18
1.20595e-21
1.01986e-21
8.33492e-22
3.47238e-06
-5.28246e-18
1.27234e-21
9.00483e-22
8.78871e-22
3.6956e-06
-5.28531e-18
1.33904e-21
1.63523e-21
9.25349e-22
3.9271e-06
-5.28771e-18
1.40565e-21
2.83066e-21
9.72641e-22
4.16683e-06
-5.29112e-18
1.47162e-21
4.21597e-21
1.02049e-21
4.41472e-06
-5.29401e-18
1.53656e-21
5.17494e-21
1.06866e-21
4.67066e-06
-5.29681e-18
1.59991e-21
5.39718e-21
1.11694e-21
4.93451e-06
-5.2982e-18
1.66121e-21
5.86036e-21
1.16507e-21
5.20611e-06
-5.3012e-18
1.71994e-21
5.40063e-21
1.21291e-21
5.48527e-06
-5.30501e-18
1.77581e-21
5.99007e-21
1.26027e-21
5.77181e-06
-5.30912e-18
1.82855e-21
7.80521e-21
1.30695e-21
6.06551e-06
-5.31146e-18
1.87802e-21
7.34857e-21
1.35284e-21
6.36621e-06
-5.31394e-18
1.92396e-21
7.35276e-21
1.398e-21
6.67371e-06
-5.31534e-18
1.96638e-21
5.76822e-21
1.44239e-21
6.98787e-06
-5.31838e-18
2.00511e-21
5.01464e-21
1.48607e-21
7.30854e-06
-5.32314e-18
2.04039e-21
6.2632e-21
1.5291e-21
7.63561e-06
-5.32635e-18
2.07232e-21
7.573e-21
1.5715e-21
7.969e-06
-5.33089e-18
2.10103e-21
8.45352e-21
1.61325e-21
8.30864e-06
-5.33291e-18
2.1266e-21
7.69259e-21
1.65454e-21
8.65451e-06
-5.33634e-18
2.1489e-21
8.26919e-21
1.69582e-21
9.0066e-06
-5.34226e-18
2.16813e-21
6.17961e-21
1.73689e-21
9.36493e-06
-5.34394e-18
2.18483e-21
6.37478e-21
1.77819e-21
9.72954e-06
-5.34795e-18
2.19871e-21
4.2852e-21
1.81963e-21
1.01005e-05
-5.35042e-18
2.21019e-21
1.45054e-21
1.8613e-21
1.04779e-05
-5.35409e-18
2.21933e-21
-3.89043e-22
1.90344e-21
1.08619e-05
-5.35394e-18
2.22658e-21
-2.59631e-21
1.94595e-21
1.12525e-05
-5.35882e-18
2.23202e-21
-3.56444e-22
1.98859e-21
1.16499e-05
-5.3643e-18
2.236e-21
1.25953e-22
2.0312e-21
1.20542e-05
-5.36625e-18
2.23841e-21
-4.4644e-22
2.07369e-21
1.24656e-05
-5.36808e-18
2.23878e-21
-7.75623e-22
2.11637e-21
1.28844e-05
-5.37519e-18
2.23696e-21
-1.42306e-21
2.15958e-21
1.33105e-05
-5.37982e-18
2.23332e-21
-2.93162e-21
2.2037e-21
1.37443e-05
-5.38213e-18
2.22708e-21
-3.83794e-21
2.24886e-21
1.4186e-05
-5.38233e-18
2.21855e-21
-1.02871e-20
2.29453e-21
1.46357e-05
-5.38423e-18
2.20747e-21
-1.21144e-20
2.34126e-21
1.50936e-05
-5.38536e-18
2.19418e-21
-1.4394e-20
2.38842e-21
1.556e-05
-5.3862e-18
2.17802e-21
-1.54803e-20
2.43649e-21
1.6035e-05
-5.38695e-18
2.15923e-21
-1.95121e-20
2.48474e-21
1.6519e-05
-5.38596e-18
2.13777e-21
-2.21535e-20
2.53332e-21
1.70121e-05
-5.38721e-18
2.11347e-21
-2.36878e-20
2.58154e-21
1.75146e-05
-5.38947e-18
2.08622e-21
-2.73588e-20
2.62969e-21
1.80266e-05
-5.384e-18
2.05582e-21
-2.97998e-20
2.67856e-21
1.85486e-05
-5.38959e-18
2.02143e-21
-3.36665e-20
2.72753e-21
1.90806e-05
-5.38965e-18
1.98518e-21
-3.78184e-20
2.77566e-21
1.9623e-05
-5.38552e-18
1.94635e-21
-4.30586e-20
2.82225e-21
2.0176e-05
-5.38598e-18
1.90391e-21
-4.69627e-20
2.86842e-21
2.07399e-05
-5.38958e-18
1.85795e-21
-4.91552e-20
2.91493e-21
2.1315e-05
-5.39858e-18
1.80913e-21
-4.24285e-20
2.95997e-21
2.19015e-05
-5.40365e-18
1.75764e-21
-4.26623e-20
3.00157e-21
2.24996e-05
-5.40538e-18
1.70233e-21
-4.28247e-20
3.04258e-21
2.31098e-05
-5.40455e-18
1.64311e-21
-4.79418e-20
3.08085e-21
2.37322e-05
-5.40369e-18
1.57927e-21
-4.80195e-20
3.1182e-21
2.43671e-05
-5.4031e-18
1.50861e-21
-5.0976e-20
3.15693e-21
2.50149e-05
-5.4026e-18
1.4336e-21
-5.68498e-20
3.19484e-21
2.56759e-05
-5.40166e-18
1.3542e-21
-5.6113e-20
3.23025e-21
2.63503e-05
-5.39014e-18
1.26958e-21
-7.0519e-20
3.2628e-21
2.70385e-05
-5.39086e-18
1.1784e-21
-7.34597e-20
3.29605e-21
2.77409e-05
-5.39043e-18
1.08257e-21
-7.4575e-20
3.32613e-21
2.84576e-05
-5.38454e-18
9.81257e-22
-8.21917e-20
3.35262e-21
2.91891e-05
-5.3799e-18
8.72959e-22
-9.00027e-20
3.3764e-21
2.99356e-05
-5.37659e-18
7.59555e-22
-9.51587e-20
3.39579e-21
3.06976e-05
-5.37725e-18
6.41489e-22
-1.02039e-19
3.41066e-21
3.14754e-05
-5.37542e-18
5.19408e-22
-1.04863e-19
3.42134e-21
3.22693e-05
-5.36815e-18
3.90586e-22
-1.15296e-19
3.42652e-21
3.30797e-05
-5.36328e-18
2.53474e-22
-1.18657e-19
3.42807e-21
3.3907e-05
-5.35922e-18
1.10871e-22
-1.29408e-19
3.42629e-21
3.47516e-05
-5.35083e-18
-3.7596e-23
-1.4162e-19
3.42129e-21
3.56137e-05
-5.34511e-18
-1.9263e-22
-1.4127e-19
3.41463e-21
3.64939e-05
-5.33692e-18
-3.51427e-22
-1.5816e-19
3.40306e-21
3.73925e-05
-5.33019e-18
-5.16347e-22
-1.69948e-19
3.38689e-21
3.83099e-05
-5.31637e-18
-6.85251e-22
-1.8071e-19
3.36427e-21
3.92466e-05
-5.30974e-18
-8.6537e-22
-1.87158e-19
3.33842e-21
4.0203e-05
-5.29249e-18
-1.05283e-21
-1.98576e-19
3.30547e-21
4.11794e-05
-5.28801e-18
-1.24821e-21
-2.15792e-19
3.26748e-21
4.21764e-05
-5.27801e-18
-1.44988e-21
-2.22477e-19
3.22574e-21
4.31944e-05
-5.26701e-18
-1.65405e-21
-2.41541e-19
3.17124e-21
4.42338e-05
-5.25449e-18
-1.86358e-21
-2.60308e-19
3.11626e-21
4.52951e-05
-5.2481e-18
-2.07758e-21
-2.77708e-19
3.06239e-21
4.63788e-05
-5.23054e-18
-2.28507e-21
-2.96605e-19
3.0019e-21
4.74854e-05
-5.21993e-18
-2.50001e-21
-3.17378e-19
2.94076e-21
4.86153e-05
-5.19832e-18
-2.70857e-21
-3.37916e-19
2.88306e-21
4.97691e-05
-5.18295e-18
-2.907e-21
-3.5128e-19
2.82184e-21
5.09473e-05
-5.16917e-18
-3.09708e-21
-3.67838e-19
2.7561e-21
5.21505e-05
-5.14233e-18
-3.27363e-21
-3.82596e-19
2.68209e-21
5.3379e-05
-5.1211e-18
-3.45779e-21
-4.08973e-19
2.60417e-21
5.46336e-05
-5.10221e-18
-3.6273e-21
-4.3326e-19
2.53127e-21
5.59147e-05
-5.09894e-18
-3.79623e-21
-4.40798e-19
2.45675e-21
5.7223e-05
-5.08166e-18
-3.94575e-21
-4.58747e-19
2.36328e-21
5.85589e-05
-5.063e-18
-4.09436e-21
-4.73565e-19
2.26037e-21
5.99232e-05
-5.04916e-18
-4.24324e-21
-4.92911e-19
2.15969e-21
6.13163e-05
-5.03083e-18
-4.3809e-21
-5.07241e-19
2.05574e-21
6.2739e-05
-4.98294e-18
-4.5152e-21
-5.30252e-19
1.93722e-21
6.41918e-05
-4.95232e-18
-4.66469e-21
-5.51862e-19
1.80277e-21
6.56754e-05
-4.8955e-18
-4.80382e-21
-5.97646e-19
1.65695e-21
6.71905e-05
-4.8574e-18
-4.98629e-21
-6.30179e-19
1.5348e-21
6.87377e-05
-4.81403e-18
-5.19753e-21
-6.62269e-19
1.42958e-21
7.03177e-05
-4.81314e-18
-5.44603e-21
-6.74528e-19
1.34365e-21
7.19312e-05
-4.80156e-18
-5.67846e-21
-6.89579e-19
1.25521e-21
7.35789e-05
-4.7789e-18
-5.90063e-21
-6.90608e-19
1.15359e-21
7.52615e-05
-4.7687e-18
-6.13435e-21
-7.03635e-19
1.03023e-21
7.69798e-05
-4.73427e-18
-6.37537e-21
-7.17898e-19
9.04684e-22
7.87345e-05
-4.71059e-18
-6.65339e-21
-7.37358e-19
7.85313e-22
8.05264e-05
-4.69154e-18
-6.93727e-21
-7.4129e-19
6.58666e-22
8.23563e-05
-4.66859e-18
-7.20201e-21
-7.69739e-19
5.09191e-22
8.4225e-05
-4.63977e-18
-7.47321e-21
-7.86938e-19
4.0749e-22
8.61333e-05
-4.61807e-18
-7.75238e-21
-7.84141e-19
3.10136e-22
8.80821e-05
-4.59052e-18
-7.99971e-21
-8.07356e-19
1.62042e-22
9.00721e-05
-4.56399e-18
-8.21474e-21
-8.13828e-19
3.14449e-23
9.21043e-05
-4.52351e-18
-8.41023e-21
-8.31359e-19
-8.19499e-23
9.41795e-05
-4.47493e-18
-8.62017e-21
-8.58368e-19
-1.64917e-22
9.62987e-05
-4.4418e-18
-8.84716e-21
-8.91426e-19
-2.30483e-22
9.84628e-05
-4.40165e-18
-9.03834e-21
-9.24795e-19
-2.6715e-22
0.000100673
-4.36525e-18
-9.22438e-21
-9.40824e-19
-2.52584e-22
0.000102929
-4.33038e-18
-9.42835e-21
-9.70355e-19
-2.71928e-22
0.000105234
-4.29629e-18
-9.59451e-21
-9.94977e-19
-3.0518e-22
0.000107587
-4.26779e-18
-9.76416e-21
-1.02346e-18
-4.01144e-22
0.00010999
-4.23797e-18
-9.98832e-21
-1.03507e-18
-4.74656e-22
0.000112444
-4.20479e-18
-1.01939e-20
-1.06335e-18
-6.21741e-22
0.000114949
-4.15971e-18
-1.03837e-20
-1.10192e-18
-7.85958e-22
0.000117508
-4.13168e-18
-1.05727e-20
-1.13073e-18
-9.69474e-22
0.000120121
-4.09222e-18
-1.06013e-20
-1.16237e-18
-1.24067e-21
0.000122789
-4.05795e-18
-1.06546e-20
-1.19423e-18
-1.53941e-21
0.000125513
-4.02169e-18
-1.06682e-20
-1.22537e-18
-1.85358e-21
0.000128295
-3.94345e-18
-1.06082e-20
-1.24138e-18
-2.07771e-21
0.000131135
-3.89495e-18
-1.07409e-20
-1.27012e-18
-2.32799e-21
0.000134036
-3.86466e-18
-1.09304e-20
-1.29059e-18
-2.53999e-21
0.000136998
-3.83463e-18
-1.10818e-20
-1.31952e-18
-3.00799e-21
0.000140022
-3.7683e-18
-1.12105e-20
-1.37206e-18
-3.42533e-21
0.00014311
-3.70899e-18
-1.1434e-20
-1.42605e-18
-3.82345e-21
0.000146263
-3.6442e-18
-1.16028e-20
-1.44466e-18
-3.95106e-21
0.000149482
-3.59831e-18
-1.19266e-20
-1.47245e-18
-4.03882e-21
0.000152769
-3.55667e-18
-1.21683e-20
-1.50602e-18
-4.15466e-21
0.000156126
-3.50562e-18
-1.23341e-20
-1.52402e-18
-4.3015e-21
0.000159553
-3.45375e-18
-1.24967e-20
-1.56638e-18
-4.15117e-21
0.000163052
-3.40225e-18
-1.26328e-20
-1.5747e-18
-3.83055e-21
0.000166625
-3.32943e-18
-1.27885e-20
-1.58025e-18
-3.75708e-21
0.000170273
-3.27505e-18
-1.30893e-20
-1.6299e-18
-3.67451e-21
0.000173997
-3.24358e-18
-1.32817e-20
-1.65136e-18
-3.36097e-21
0.0001778
-3.21726e-18
-1.34569e-20
-1.63631e-18
-3.24536e-21
0.000181682
-3.15204e-18
-1.35024e-20
-1.63861e-18
-3.56272e-21
0.000185646
-3.12766e-18
-1.3814e-20
-1.68916e-18
-4.14636e-21
0.000189694
-3.05696e-18
-1.3958e-20
-1.70325e-18
-4.58944e-21
0.000193826
-3.01789e-18
-1.43953e-20
-1.73048e-18
-5.01381e-21
0.000198044
-2.96233e-18
-1.48381e-20
-1.76096e-18
-5.71058e-21
0.000202351
-2.95701e-18
-1.54288e-20
-1.77089e-18
-6.40343e-21
0.000206748
-2.89848e-18
-1.58378e-20
-1.80434e-18
-7.24667e-21
0.000211237
-2.91125e-18
-1.64513e-20
-1.81508e-18
-8.03833e-21
0.00021582
-2.87058e-18
-1.65614e-20
-1.81795e-18
-8.87465e-21
0.000220498
-2.85089e-18
-1.65621e-20
-1.82095e-18
-9.71495e-21
0.000225274
-2.80956e-18
-1.66907e-20
-1.83057e-18
-1.02495e-20
0.00023015
-2.80364e-18
-1.71825e-20
-1.80456e-18
-1.03076e-20
0.000235128
-2.79342e-18
-1.74494e-20
-1.80147e-18
-1.0862e-20
0.000240209
-2.77742e-18
-1.75175e-20
-1.80082e-18
-1.1207e-20
0.000245396
-2.75545e-18
-1.73035e-20
-1.86285e-18
-1.2362e-20
0.000250692
-2.61274e-18
-1.66549e-20
-1.913e-18
-1.34017e-20
0.000256097
-2.60506e-18
-1.69741e-20
-1.98147e-18
-1.47899e-20
0.000261614
-2.56972e-18
-1.73612e-20
-1.9784e-18
-1.5372e-20
0.000267246
-2.47918e-18
-1.7634e-20
-1.99129e-18
-1.63628e-20
0.000272995
-2.45567e-18
-1.80359e-20
-1.97916e-18
-1.73127e-20
0.000278863
-2.41127e-18
-1.78811e-20
-1.99558e-18
-1.88096e-20
0.000284853
-2.41682e-18
-1.9298e-20
-2.05222e-18
-2.00575e-20
0.000290967
-2.33684e-18
-1.96623e-20
-2.03067e-18
-2.09767e-20
0.000297207
-2.37217e-18
-2.06325e-20
-2.01091e-18
-2.34365e-20
0.000303576
-2.28814e-18
-2.06464e-20
-2.05909e-18
-2.52247e-20
0.000310076
-2.25435e-18
-2.14645e-20
-2.04398e-18
-2.53577e-20
0.000316711
-2.17967e-18
-2.2098e-20
-2.12781e-18
-2.55335e-20
0.000323482
-2.14742e-18
-2.28301e-20
-2.11728e-18
-2.32196e-20
0.000330392
-2.13e-18
-2.35204e-20
-2.07124e-18
-2.05656e-20
0.000337444
-2.16165e-18
-2.39175e-20
-2.09331e-18
-2.00517e-20
0.000344641
-2.06695e-18
-2.34285e-20
-2.08376e-18
-1.94645e-20
0.000351986
-2.02018e-18
-2.46578e-20
-2.11827e-18
-1.89817e-20
0.000359481
-1.98156e-18
-2.60797e-20
-2.12737e-18
-1.7879e-20
0.000367129
-1.9288e-18
-2.61847e-20
-2.01084e-18
-1.54847e-20
0.000374933
-1.86409e-18
-2.76186e-20
-1.89705e-18
-1.53051e-20
0.000382897
-1.95287e-18
-2.97027e-20
-1.77543e-18
-1.69233e-20
0.000391023
-1.86889e-18
-2.85931e-20
-1.75859e-18
-1.92185e-20
0.000399313
-1.83501e-18
-2.89221e-20
-1.72956e-18
-2.16233e-20
0.000407772
-1.71977e-18
-2.92844e-20
-1.69642e-18
-2.28724e-20
0.000416403
-1.68403e-18
-3.19107e-20
-1.68947e-18
-2.11002e-20
0.000425208
-1.6132e-18
-3.2768e-20
-1.62735e-18
-1.95613e-20
0.00043419
-1.55001e-18
-3.39441e-20
-1.61196e-18
-2.14095e-20
0.000443354
-1.61739e-18
-3.42442e-20
-1.50058e-18
-2.45218e-20
0.000452702
-1.57126e-18
-3.09596e-20
-1.46883e-18
-2.95607e-20
0.000462237
-1.50063e-18
-2.9045e-20
-1.40124e-18
-3.33384e-20
0.000471963
-1.46175e-18
-2.71292e-20
-1.39391e-18
-3.59476e-20
0.000481884
-1.32217e-18
-2.73444e-20
-1.45644e-18
-3.40642e-20
0.000492002
-1.43018e-18
-3.23882e-20
-1.47926e-18
-3.17943e-20
0.000502321
-1.44633e-18
-3.78313e-20
-1.36157e-18
-2.91936e-20
0.000512844
-1.38284e-18
-4.06347e-20
-1.37751e-18
-3.60434e-20
0.000523575
-1.51523e-18
-4.46001e-20
-1.36812e-18
-4.332e-20
0.000534518
-1.40648e-18
-4.1119e-20
-1.42992e-18
-4.35539e-20
0.000545675
-1.39823e-18
-3.82617e-20
-1.43624e-18
-4.03133e-20
0.00055705
-1.38627e-18
-3.68508e-20
-1.44188e-18
-3.85482e-20
0.000568647
-1.3703e-18
-3.84514e-20
-1.40094e-18
-3.53127e-20
0.000580469
-1.35749e-18
-3.18049e-20
-1.34693e-18
-3.5289e-20
0.000592519
-1.23672e-18
-2.67905e-20
-1.31286e-18
-4.05786e-20
0.000604801
-1.34986e-18
-2.86706e-20
-1.29622e-18
-4.13233e-20
0.000617318
-1.30377e-18
-2.77902e-20
-1.2913e-18
-3.86248e-20
0.000630074
-1.26831e-18
-2.39137e-20
-1.22341e-18
-3.5714e-20
0.00064307
-1.24973e-18
-2.10459e-20
-1.15859e-18
-3.78801e-20
0.000656312
-1.08956e-18
-2.09454e-20
-1.13613e-18
-4.21379e-20
0.000669801
-1.12341e-18
-2.40766e-20
-1.21246e-18
-4.18542e-20
0.00068354
-1.13025e-18
-2.823e-20
-1.17362e-18
-2.43441e-20
0.000697532
-1.09511e-18
-2.69446e-20
-1.10515e-18
-1.79632e-20
0.00071178
-1.06194e-18
-2.59709e-20
-9.99232e-19
-1.74057e-20
0.000726286
-9.27814e-19
-2.82217e-20
-1.12777e-18
-2.10866e-20
0.000741052
-9.87495e-19
-3.10324e-20
-1.07371e-18
-2.23211e-20
0.00075608
-1.15852e-18
-3.18292e-20
-1.12213e-18
-2.65198e-20
0.000771372
-1.0372e-18
-1.88171e-20
-1.21377e-18
-2.66756e-20
0.000786928
-1.07028e-18
-2.60082e-20
-1.17521e-18
-1.82461e-20
0.000802749
-1.11304e-18
-2.66025e-20
-1.06556e-18
-1.9149e-20
0.000818836
-1.06693e-18
-1.02544e-20
-1.04831e-18
-2.12023e-20
0.000835189
-9.71707e-19
-1.61957e-20
-1.01173e-18
-8.43531e-21
0.000851807
-1.10319e-18
-3.23112e-20
-1.01397e-18
-1.01479e-20
0.000868688
-1.13026e-18
-2.30667e-20
-9.42307e-19
-1.28236e-20
0.00088583
-1.23351e-18
-2.979e-20
-9.66499e-19
1.51151e-21
0.000903231
-1.07739e-18
-1.31723e-20
-9.63928e-19
1.00477e-21
0.000920886
-9.77573e-19
-1.54794e-20
-9.73075e-19
-5.75212e-21
0.000938792
-9.14141e-19
-1.13216e-20
-8.68805e-19
-8.43736e-21
0.000956943
-7.48613e-19
-1.01611e-20
-1.12454e-18
-1.77808e-20
0.000975333
-9.57654e-19
-4.54863e-20
-9.33798e-19
-6.11287e-21
0.000993953
-9.82685e-19
-2.64357e-20
-8.95212e-19
-8.4977e-21
0.0010128
-9.07853e-19
-3.15232e-22
-8.128e-19
4.46929e-23
0.00103185
1.57915e-20
-9.04481e-19
4.56733e-22
-8.32982e-19
2.99769e-08
8.68864e-24
1.05885e-22
9.21678e-08
1.42612e-22
3.63986e-22
1.5783e-07
2.67954e-22
6.27007e-22
2.27114e-07
4.02665e-22
9.31631e-22
3.00178e-07
6.0739e-22
1.15405e-21
3.77185e-07
8.21529e-22
1.38878e-21
4.58305e-07
1.08021e-21
1.68809e-21
5.43715e-07
1.42407e-21
2.01494e-21
6.33597e-07
1.72162e-21
2.26728e-21
7.28143e-07
2.1012e-21
2.67518e-21
8.27549e-07
2.39145e-21
3.21217e-21
9.32019e-07
2.79859e-21
3.57315e-21
1.04176e-06
3.02155e-21
4.2819e-21
1.157e-06
3.01613e-21
4.90997e-21
1.27795e-06
3.45139e-21
5.47451e-21
1.40484e-06
3.93279e-21
6.26241e-21
1.53791e-06
4.43743e-21
7.01595e-21
1.67738e-06
5.31829e-21
7.5276e-21
1.8235e-06
6.0517e-21
8.14389e-21
1.97649e-06
6.94457e-21
8.5613e-21
2.13657e-06
7.447e-21
9.47468e-21
2.30399e-06
8.30588e-21
1.00044e-20
2.47892e-06
9.35396e-21
1.03386e-20
2.66158e-06
1.03812e-20
1.08999e-20
2.85213e-06
1.16438e-20
1.17012e-20
3.0507e-06
1.2688e-20
1.26741e-20
3.25743e-06
1.40297e-20
1.41264e-20
3.47238e-06
1.51289e-20
1.5203e-20
3.6956e-06
1.64622e-20
1.62575e-20
3.9271e-06
1.74418e-20
1.78091e-20
4.16683e-06
1.91834e-20
1.9684e-20
4.41472e-06
2.032e-20
2.22392e-20
4.67066e-06
2.16578e-20
2.31308e-20
4.93451e-06
2.26103e-20
2.53721e-20
5.20611e-06
2.37112e-20
2.64971e-20
5.48527e-06
2.46886e-20
2.76898e-20
5.77181e-06
2.64993e-20
3.03791e-20
6.06551e-06
2.76727e-20
3.23782e-20
6.36621e-06
2.96492e-20
3.47576e-20
6.67371e-06
3.00274e-20
3.74819e-20
6.98787e-06
3.23847e-20
3.98054e-20
7.30854e-06
3.35308e-20
4.17288e-20
7.63561e-06
3.71813e-20
4.1836e-20
7.969e-06
3.93543e-20
4.23445e-20
8.30864e-06
3.96672e-20
4.67858e-20
8.65451e-06
3.98107e-20
4.78038e-20
9.0066e-06
4.24795e-20
5.00737e-20
9.36493e-06
4.38209e-20
5.26882e-20
9.72954e-06
4.61473e-20
5.41607e-20
1.01005e-05
4.74027e-20
5.70376e-20
1.04779e-05
5.00298e-20
6.07067e-20
1.08619e-05
5.54524e-20
6.12599e-20
1.12525e-05
5.77969e-20
6.36202e-20
1.16499e-05
5.87099e-20
6.52425e-20
1.20542e-05
6.01457e-20
6.84248e-20
1.24656e-05
6.17174e-20
7.17516e-20
1.28844e-05
6.30028e-20
7.6527e-20
1.33105e-05
6.13831e-20
8.12664e-20
1.37443e-05
6.46747e-20
8.31658e-20
1.4186e-05
6.68031e-20
8.59396e-20
1.46357e-05
6.96636e-20
8.87623e-20
1.50936e-05
6.90116e-20
9.40559e-20
1.556e-05
7.10478e-20
9.83055e-20
1.6035e-05
7.37122e-20
1.02607e-19
1.6519e-05
7.76613e-20
1.02113e-19
1.70121e-05
7.89006e-20
1.06025e-19
1.75146e-05
7.88712e-20
1.12006e-19
1.80266e-05
8.17644e-20
1.12872e-19
1.85486e-05
8.45651e-20
1.11414e-19
1.90806e-05
8.8172e-20
1.12175e-19
1.9623e-05
9.13018e-20
1.15303e-19
2.0176e-05
9.19133e-20
1.21948e-19
2.07399e-05
9.40414e-20
1.25657e-19
2.1315e-05
9.20449e-20
1.28139e-19
2.19015e-05
9.01212e-20
1.35261e-19
2.24996e-05
9.18124e-20
1.37048e-19
2.31098e-05
9.17543e-20
1.41425e-19
2.37322e-05
8.39726e-20
1.52928e-19
2.43671e-05
8.64815e-20
1.57421e-19
2.50149e-05
8.82673e-20
1.60448e-19
2.56759e-05
8.90015e-20
1.65358e-19
2.63503e-05
9.40821e-20
1.66966e-19
2.70385e-05
9.34291e-20
1.69685e-19
2.77409e-05
9.40934e-20
1.73578e-19
2.84576e-05
9.53625e-20
1.77716e-19
2.91891e-05
9.86199e-20
1.8065e-19
2.99356e-05
1.0073e-19
1.88631e-19
3.06976e-05
9.93046e-20
1.96885e-19
3.14754e-05
9.27786e-20
2.02794e-19
3.22693e-05
9.08629e-20
2.05554e-19
3.30797e-05
9.50461e-20
2.14796e-19
3.3907e-05
9.50978e-20
2.17937e-19
3.47516e-05
9.52257e-20
2.22686e-19
3.56137e-05
9.78396e-20
2.33871e-19
3.64939e-05
9.975e-20
2.3557e-19
3.73925e-05
1.07063e-19
2.35044e-19
3.83099e-05
1.0463e-19
2.39095e-19
3.92466e-05
1.01161e-19
2.43677e-19
4.0203e-05
1.04945e-19
2.4724e-19
4.11794e-05
9.70734e-20
2.50282e-19
4.21764e-05
9.88337e-20
2.5138e-19
4.31944e-05
9.60641e-20
2.55028e-19
4.42338e-05
9.73847e-20
2.58986e-19
4.52951e-05
1.06761e-19
2.56144e-19
4.63788e-05
1.00622e-19
2.5675e-19
4.74854e-05
1.01248e-19
2.55665e-19
4.86153e-05
1.09526e-19
2.52581e-19
4.97691e-05
1.03131e-19
2.60739e-19
5.09473e-05
9.7994e-20
2.55656e-19
5.21505e-05
8.07083e-20
2.58235e-19
5.3379e-05
9.33678e-20
2.64194e-19
5.46336e-05
9.32614e-20
2.61418e-19
5.59147e-05
9.9539e-20
2.55365e-19
5.7223e-05
9.79645e-20
2.54584e-19
5.85589e-05
9.88191e-20
2.65842e-19
5.99232e-05
1.0215e-19
2.68562e-19
6.13163e-05
9.42273e-20
2.71038e-19
6.2739e-05
8.94332e-20
2.67071e-19
6.41918e-05
8.75256e-20
2.73183e-19
6.56754e-05
7.47969e-20
2.81575e-19
6.71905e-05
6.84477e-20
2.92039e-19
6.87377e-05
6.36064e-20
2.95163e-19
7.03177e-05
6.20223e-20
2.89141e-19
7.19312e-05
6.62774e-20
2.75786e-19
7.35789e-05
6.524e-20
2.76652e-19
7.52615e-05
5.77899e-20
2.77584e-19
7.69798e-05
5.68555e-20
2.80641e-19
7.87345e-05
6.36497e-20
2.76871e-19
8.05264e-05
7.67536e-20
2.68809e-19
8.23563e-05
7.40465e-20
2.69884e-19
8.4225e-05
6.88926e-20
2.70851e-19
8.61333e-05
7.24898e-20
2.66295e-19
8.80821e-05
7.88754e-20
2.55416e-19
9.00721e-05
6.90173e-20
2.46528e-19
9.21043e-05
4.66443e-20
2.51646e-19
9.41795e-05
2.95632e-20
2.57838e-19
9.62987e-05
2.43922e-20
2.57862e-19
9.84628e-05
1.88706e-20
2.61065e-19
0.000100673
3.68948e-21
2.49963e-19
0.000102929
9.2816e-21
2.49019e-19
0.000105234
3.32913e-21
2.29811e-19
0.000107587
-2.16787e-20
2.29947e-19
0.00010999
-2.10743e-20
2.15043e-19
0.000112444
-2.36999e-20
2.11984e-19
0.000114949
-2.97897e-20
1.94985e-19
0.000117508
-1.12741e-20
1.68004e-19
0.000120121
-4.09048e-20
1.60975e-19
0.000122789
-4.546e-20
1.48011e-19
0.000125513
-3.76327e-20
1.53321e-19
0.000128295
-7.14191e-20
1.3476e-19
0.000131135
-8.92297e-20
1.53807e-19
0.000134036
-9.25014e-20
1.22832e-19
0.000136998
-1.00843e-19
1.48489e-19
0.000140022
-1.00069e-19
1.14532e-19
0.00014311
-8.61218e-20
1.2752e-19
0.000146263
-1.34827e-19
1.30813e-19
0.000149482
-1.40509e-19
1.21774e-19
0.000152769
-1.41975e-19
8.92201e-20
0.000156126
-1.41022e-19
1.15753e-19
0.000159553
-1.35644e-19
1.12403e-19
0.000163052
-1.4691e-19
7.12749e-20
0.000166625
-1.5881e-19
6.96369e-20
0.000170273
-1.42787e-19
9.49715e-20
0.000173997
-1.59414e-19
8.13372e-20
0.0001778
-1.5104e-19
6.7976e-20
0.000181682
-1.68124e-19
7.33596e-20
0.000185646
-1.52225e-19
5.0861e-20
0.000189694
-1.57615e-19
4.64085e-20
0.000193826
-1.51858e-19
2.90426e-20
0.000198044
-1.43063e-19
2.45987e-20
0.000202351
-1.395e-19
-2.78935e-21
0.000206748
-1.38337e-19
-6.49325e-21
0.000211237
-1.09547e-19
-9.51953e-21
0.00021582
-9.08323e-20
-2.21053e-20
0.000220498
-1.34476e-19
-1.58643e-20
0.000225274
-1.69687e-19
-2.56227e-22
0.00023015
-1.73441e-19
-4.67938e-20
0.000235128
-1.73998e-19
-2.60264e-20
0.000240209
-1.76706e-19
-7.32175e-20
0.000245396
-1.70958e-19
-7.55336e-20
0.000250692
-1.56721e-19
-1.12685e-19
0.000256097
-1.99459e-19
-1.00221e-19
0.000261614
-2.07205e-19
-1.23353e-19
0.000267246
-1.67044e-19
-7.82667e-20
0.000272995
-1.19783e-19
-1.03585e-19
0.000278863
-2.20506e-19
-1.26804e-19
0.000284853
-1.92804e-19
-1.31719e-19
0.000290967
-2.01975e-19
-1.84268e-19
0.000297207
-2.11768e-19
-1.44575e-19
0.000303576
-2.34721e-19
-1.50463e-19
0.000310076
-2.48676e-19
-2.12748e-19
0.000316711
-2.42587e-19
-2.03741e-19
0.000323482
-2.61592e-19
-1.95593e-19
0.000330392
-2.83667e-19
-2.57105e-19
0.000337444
-3.28613e-19
-2.77706e-19
0.000344641
-3.55378e-19
-3.17719e-19
0.000351986
-3.33023e-19
-3.38403e-19
0.000359481
-2.74164e-19
-2.8106e-19
0.000367129
-3.30563e-19
-2.76846e-19
0.000374933
-3.21268e-19
-3.20428e-19
0.000382897
-3.21922e-19
-3.27496e-19
0.000391023
-3.7576e-19
-3.5734e-19
0.000399313
-4.00962e-19
-3.53125e-19
0.000407772
-4.3862e-19
-2.93636e-19
0.000416403
-4.23127e-19
-3.44322e-19
0.000425208
-4.48828e-19
-3.85827e-19
0.00043419
-4.22106e-19
-4.06069e-19
0.000443354
-4.06678e-19
-4.22006e-19
0.000452702
-4.30401e-19
-4.4734e-19
0.000462237
-4.11525e-19
-4.71489e-19
0.000471963
-4.9673e-19
-4.19857e-19
0.000481884
-5.53897e-19
-4.86638e-19
0.000492002
-7.0842e-19
-4.69026e-19
0.000502321
-6.5009e-19
-5.56355e-19
0.000512844
-6.09179e-19
-6.08529e-19
0.000523575
-5.82378e-19
-5.47739e-19
0.000534518
-5.35961e-19
-5.82822e-19
0.000545675
-5.66058e-19
-6.29778e-19
0.00055705
-6.31356e-19
-6.07766e-19
0.000568647
-4.8219e-19
-5.97929e-19
0.000580469
-5.40733e-19
-6.78749e-19
0.000592519
-5.52956e-19
-6.44905e-19
0.000604801
-5.82079e-19
-5.59953e-19
0.000617318
-4.71143e-19
-4.8319e-19
0.000630074
-4.75121e-19
-4.84423e-19
0.00064307
-5.23387e-19
-4.66089e-19
0.000656312
-4.2361e-19
-4.6304e-19
0.000669801
-4.64198e-19
-3.1284e-19
0.00068354
-3.66714e-19
-3.13451e-19
0.000697532
-3.15148e-19
-2.5807e-19
0.00071178
-2.99722e-19
-2.26968e-19
0.000726286
-1.31021e-19
-2.68231e-19
0.000741052
-1.66629e-19
-2.38225e-19
0.00075608
-1.66826e-19
-2.43704e-19
0.000771372
-2.46128e-19
-1.97916e-19
0.000786928
-2.37046e-19
-3.22898e-19
0.000802749
-1.83357e-19
-3.74653e-19
0.000818836
-4.04745e-19
-2.68378e-19
0.000835189
-4.6255e-19
-3.92223e-19
0.000851807
-4.35244e-19
-4.86526e-19
0.000868688
-7.04867e-19
-3.92858e-19
0.00088583
-6.07611e-19
-5.99158e-19
0.000903231
-6.75289e-19
-6.48812e-19
0.000920886
-6.35588e-19
-7.37299e-19
0.000938792
-6.68712e-19
-7.45593e-19
0.000956943
-7.79542e-19
-7.41669e-19
0.000975333
-5.3986e-19
-6.49253e-19
0.000993953
-5.04494e-19
-5.49695e-19
0.0010128
-4.38358e-19
-4.63772e-19
0.00103185
-6.52385e-19
-5.08852e-19
0.00103185
-8.64326e-19
1.81927e-21
-8.29388e-19
-3.20937e-21
0.0010128
-7.13836e-19
7.27285e-21
-6.05857e-19
-2.12609e-22
0.000993953
-7.08859e-19
-4.81051e-22
-7.26481e-19
-1.86695e-20
0.000975333
-6.78645e-19
-3.32068e-21
-6.93689e-19
-1.81931e-20
0.000956943
-7.50747e-19
8.28695e-21
-6.44527e-19
-8.89491e-21
0.000938792
-6.32033e-19
5.07962e-21
-6.50521e-19
-9.90176e-21
0.000920886
-6.48343e-19
-8.92441e-21
-7.03887e-19
-7.95294e-21
0.000903231
-6.07973e-19
1.22477e-21
-6.22312e-19
-4.18168e-21
0.00088583
-5.89739e-19
2.02321e-21
-6.74182e-19
-1.80598e-20
0.000868688
-6.53889e-19
-8.83367e-21
-6.30874e-19
-3.8295e-20
0.000851807
-6.11669e-19
3.97518e-22
-6.79324e-19
-4.61512e-20
0.000835189
-7.2596e-19
-1.11322e-20
-6.46815e-19
-3.96203e-20
0.000818837
-6.94341e-19
-5.41118e-21
-6.03077e-19
-2.36242e-20
0.000802749
-6.78479e-19
-7.12545e-22
-6.34391e-19
-2.23055e-20
0.000786928
-5.68182e-19
4.37093e-21
-6.56165e-19
-2.46673e-20
0.000771372
-5.43367e-19
-1.58298e-22
-6.3004e-19
-1.48307e-20
0.00075608
-4.73191e-19
-5.03228e-22
-4.74651e-19
-4.46457e-21
0.000741052
-5.11745e-19
-2.68445e-21
-5.29482e-19
7.15218e-22
0.000726286
-4.01908e-19
4.34183e-21
-5.73466e-19
9.10894e-21
0.00071178
-4.97745e-19
1.66193e-20
-3.14954e-19
1.43129e-20
0.000697532
-3.94125e-19
1.69611e-20
-4.50165e-19
6.52765e-21
0.00068354
-3.63849e-19
9.79972e-21
-4.15649e-19
3.61347e-21
0.000669801
-3.62761e-19
5.11535e-21
-4.02848e-19
3.23344e-21
0.000656312
-3.5765e-19
-2.93447e-22
-3.29674e-19
2.40353e-21
0.00064307
-3.51726e-19
-3.18124e-21
-3.64993e-19
-2.29619e-22
0.000630074
-3.66279e-19
-7.09261e-21
-3.70497e-19
-1.46828e-23
0.000617318
-3.58783e-19
-4.24746e-21
-3.82068e-19
-1.34281e-21
0.000604801
-3.44476e-19
-2.33548e-21
-3.87133e-19
-4.04565e-21
0.000592519
-4.96871e-19
-2.7309e-21
-4.64279e-19
-6.56681e-21
0.000580469
-4.70542e-19
5.62355e-21
-4.53335e-19
-9.85677e-21
0.000568647
-4.59447e-19
2.53452e-21
-4.03708e-19
-7.35014e-21
0.00055705
-4.29101e-19
3.10953e-21
-4.84677e-19
-6.52149e-21
0.000545675
-3.15319e-19
1.6711e-22
-5.3005e-19
-2.5636e-21
0.000534518
-3.28931e-19
-6.24998e-21
-4.03472e-19
2.41635e-21
0.000523575
-4.86456e-19
-8.27264e-21
-3.5672e-19
-1.29112e-22
0.000512844
-4.67547e-19
-6.08169e-21
-4.35903e-19
-3.09775e-21
0.000502321
-4.36107e-19
-4.31219e-21
-3.91803e-19
-7.58462e-22
0.000492002
-3.59154e-19
-5.85751e-21
-3.38035e-19
4.67209e-22
0.000481884
-3.57752e-19
-7.00372e-21
-3.62213e-19
-1.25724e-22
0.000471963
-3.37349e-19
-7.02392e-21
-2.74035e-19
1.33841e-21
0.000462237
-3.50489e-19
-6.80953e-21
-2.93685e-19
1.43747e-21
0.000452702
-3.56361e-19
-3.92767e-21
-2.8516e-19
3.19265e-22
0.000443354
-2.90618e-19
-1.8877e-21
-2.94904e-19
-7.64214e-22
0.00043419
-2.89873e-19
-4.6903e-22
-2.91747e-19
-2.34439e-22
0.000425208
-2.89194e-19
1.09657e-21
-2.8075e-19
2.00237e-21
0.000416403
-2.96647e-19
2.69289e-21
-2.80038e-19
2.95592e-21
0.000407772
-2.20526e-19
4.28658e-21
-2.92449e-19
3.18308e-21
0.000399313
-2.17625e-19
4.05942e-21
-2.8635e-19
4.14017e-21
0.000391023
-2.19282e-19
4.65586e-21
-2.74664e-19
5.71756e-21
0.000382897
-2.39495e-19
3.90959e-21
-3.07006e-19
3.84124e-21
0.000374933
-2.19537e-19
3.73489e-21
-2.98157e-19
2.49576e-21
0.000367129
-2.59965e-19
3.32486e-21
-2.07841e-19
6.25297e-22
0.000359481
-2.34335e-19
2.09854e-21
-2.18749e-19
-1.05998e-22
0.000351986
-1.59674e-19
1.43977e-21
-1.95571e-19
-1.18471e-21
0.000344641
-1.7234e-19
-2.28181e-22
-2.1698e-19
-2.12156e-21
0.000337444
-2.1834e-19
-3.54729e-22
-2.04733e-19
-2.06296e-21
0.000330392
-1.49698e-19
1.35053e-21
-1.52852e-19
-1.29503e-21
0.000323482
-1.27005e-19
1.07904e-21
-1.7301e-19
-8.30008e-23
0.000316711
-1.29317e-19
1.15834e-21
-1.4896e-19
4.78669e-22
0.000310076
-1.29744e-19
7.0148e-22
-1.4771e-19
7.40969e-22
0.000303576
-1.31399e-19
2.97198e-22
-1.71792e-19
1.24786e-21
0.000297207
-1.29956e-19
3.69742e-22
-2.03611e-19
2.01163e-21
0.000290967
-1.72768e-19
-4.78452e-23
-1.14864e-19
4.01494e-21
0.000284853
-1.35604e-19
1.77474e-22
-1.09689e-19
4.20437e-21
0.000278863
-1.27461e-19
2.17668e-22
-8.26319e-20
3.68156e-21
0.000272995
-1.30645e-19
2.41385e-22
-8.26638e-20
3.10099e-21
0.000267246
-9.60756e-20
2.00661e-22
-8.98837e-20
2.05529e-21
0.000261614
-8.37697e-20
5.60323e-22
-1.43118e-19
1.54686e-21
0.000256097
-9.48836e-20
8.2344e-22
-1.14682e-19
9.49853e-22
0.000250692
-6.37926e-20
7.34262e-22
-1.13079e-19
4.18313e-22
0.000245396