/*--------------------------------*- C++ -*----------------------------------*\
| =========                 |                                                 |
| \\      /  F ield         | OpenFOAM: The Open Source CFD Toolbox           |
|  \\    /   O peration     | Version:  2106                                  |
|   \\  /    A nd           | Website:  www.openfoam.com                      |
|    \\/     M anipulation  |                                                 |
\*---------------------------------------------------------------------------*/
FoamFile
{
    version     2.0;
    format      ascii;
    arch        "LSB;label=32;scalar=64";
    class       volSymmTensorField;
    location    "10000";
    object      turbulenceProperties:R;
}
// * * * * * * * * * * * * * * * * * * * * * * * * * * * * * * * * * * * * * //

dimensions      [0 2 -2 0 0 0 0];

internalField   nonuniform List<symmTensor> 
2000
(
(2.27733e-07 -1.50575e-11 -2.78686e-14 2.27733e-07 4.42658e-27 2.27733e-07)
(2.27733e-07 -1.50575e-11 -2.78686e-14 2.27733e-07 -4.71173e-30 2.27733e-07)
(3.94397e-08 -1.5022e-11 -8.39331e-14 3.94397e-08 -3.7412e-27 3.94397e-08)
(3.94397e-08 -1.5022e-11 -8.39331e-14 3.94397e-08 -8.76858e-30 3.94397e-08)
(5.41108e-08 -6.10228e-11 -4.73075e-13 5.41108e-08 1.89244e-27 5.41108e-08)
(5.41108e-08 -6.10228e-11 -4.73075e-13 5.41108e-08 -5.10436e-29 5.41108e-08)
(1.6832e-07 -4.04171e-10 -3.1918e-12 1.6832e-07 9.25038e-26 1.6832e-07)
(1.6832e-07 -4.04171e-10 -3.1918e-12 1.6832e-07 -6.05783e-28 1.6832e-07)
(4.3511e-07 -1.85099e-09 -1.48903e-11 4.3511e-07 1.23529e-25 4.3511e-07)
(4.3511e-07 -1.85099e-09 -1.48903e-11 4.3511e-07 -3.15996e-27 4.3511e-07)
(9.34617e-07 -6.28636e-09 -5.15147e-11 9.34617e-07 4.65908e-25 9.34617e-07)
(9.34617e-07 -6.28636e-09 -5.15147e-11 9.34617e-07 -1.18532e-26 9.34617e-07)
(1.76439e-06 -1.73858e-08 -1.4513e-10 1.76439e-06 1.33922e-24 1.76439e-06)
(1.76439e-06 -1.73858e-08 -1.4513e-10 1.76439e-06 -3.45382e-26 1.76439e-06)
(3.0386e-06 -4.15451e-08 -3.53275e-10 3.0386e-06 3.39524e-24 3.0386e-06)
(3.0386e-06 -4.15451e-08 -3.53275e-10 3.0386e-06 -8.55379e-26 3.0386e-06)
(4.88869e-06 -8.90612e-08 -7.71456e-10 4.88869e-06 7.64183e-24 4.88869e-06)
(4.88869e-06 -8.90612e-08 -7.71456e-10 4.88869e-06 -2.05025e-25 4.88869e-06)
(7.46439e-06 -1.75602e-07 -1.54946e-09 7.46439e-06 1.55719e-23 7.46439e-06)
(7.46439e-06 -1.75602e-07 -1.54946e-09 7.46439e-06 -4.5271e-25 7.46439e-06)
(1.09349e-05 -3.24003e-07 -2.91222e-09 1.09349e-05 2.94713e-23 1.09349e-05)
(1.09349e-05 -3.24003e-07 -2.91222e-09 1.09349e-05 -8.94278e-25 1.09349e-05)
(1.54902e-05 -5.66419e-07 -5.18604e-09 1.54902e-05 5.26503e-23 1.54902e-05)
(1.54902e-05 -5.66419e-07 -5.18604e-09 1.54902e-05 -1.69023e-24 1.54902e-05)
(2.13421e-05 -9.46865e-07 -8.83092e-09 2.13421e-05 8.98633e-23 2.13421e-05)
(2.13421e-05 -9.46865e-07 -8.83092e-09 2.13421e-05 -2.95742e-24 2.13421e-05)
(2.87257e-05 -1.52415e-06 -1.44797e-08 2.87257e-05 1.47694e-22 2.87257e-05)
(2.87257e-05 -1.52415e-06 -1.44797e-08 2.87257e-05 -4.99308e-24 2.87257e-05)
(3.79e-05 -2.37517e-06 -2.29845e-08 3.79e-05 2.34812e-22 3.79e-05)
(3.79e-05 -2.37517e-06 -2.29845e-08 3.79e-05 -9.2321e-24 3.79e-05)
(4.9149e-05 -3.59855e-06 -3.54704e-08 4.9149e-05 3.62833e-22 4.9149e-05)
(4.9149e-05 -3.59855e-06 -3.54704e-08 4.9149e-05 -1.54949e-23 4.9149e-05)
(6.27815e-05 -5.31843e-06 -5.33963e-08 6.27815e-05 5.46085e-22 6.27815e-05)
(6.27815e-05 -5.31843e-06 -5.33963e-08 6.27815e-05 -2.31206e-23 6.27815e-05)
(7.91311e-05 -7.68835e-06 -7.86209e-08 7.91311e-05 8.02046e-22 7.91311e-05)
(7.91311e-05 -7.68835e-06 -7.86209e-08 7.91311e-05 -3.80642e-23 7.91311e-05)
(9.85551e-05 -1.08948e-05 -1.13471e-07 9.85551e-05 1.15221e-21 9.85551e-05)
(9.85551e-05 -1.08948e-05 -1.13471e-07 9.85551e-05 -6.08249e-23 9.85551e-05)
(0.000121432 -1.51603e-05 -1.60812e-07 0.000121432 1.62456e-21 0.000121432)
(0.000121432 -1.51603e-05 -1.60812e-07 0.000121432 -8.19433e-23 0.000121432)
(0.000148158 -2.07452e-05 -2.24103e-07 0.000148158 2.24776e-21 0.000148158)
(0.000148158 -2.07452e-05 -2.24103e-07 0.000148158 -1.10492e-22 0.000148158)
(0.000179142 -2.79477e-05 -3.0745e-07 0.000179142 3.05943e-21 0.000179142)
(0.000179142 -2.79477e-05 -3.0745e-07 0.000179142 -1.74131e-22 0.000179142)
(0.000214801 -3.71022e-05 -4.15622e-07 0.000214801 4.09226e-21 0.000214801)
(0.000214801 -3.71022e-05 -4.15622e-07 0.000214801 -2.52687e-22 0.000214801)
(0.000255545 -4.85741e-05 -5.54042e-07 0.000255545 5.37534e-21 0.000255545)
(0.000255545 -4.85741e-05 -5.54042e-07 0.000255545 -3.35135e-22 0.000255545)
(0.000301775 -6.27512e-05 -7.28731e-07 0.000301775 6.96316e-21 0.000301775)
(0.000301775 -6.27512e-05 -7.28731e-07 0.000301775 -4.78343e-22 0.000301775)
(0.000353862 -8.00317e-05 -9.46194e-07 0.000353862 8.86785e-21 0.000353862)
(0.000353862 -8.00317e-05 -9.46194e-07 0.000353862 -6.68675e-22 0.000353862)
(0.00041214 -0.000100808 -1.21326e-06 0.00041214 1.10792e-20 0.00041214)
(0.00041214 -0.000100808 -1.21326e-06 0.00041214 -8.54665e-22 0.00041214)
(0.000476883 -0.000125449 -1.53684e-06 0.000476883 1.36232e-20 0.000476883)
(0.000476883 -0.000125449 -1.53684e-06 0.000476883 -1.133e-21 0.000476883)
(0.000548295 -0.000154276 -1.92367e-06 0.000548295 1.65299e-20 0.000548295)
(0.000548295 -0.000154276 -1.92367e-06 0.000548295 -1.56164e-21 0.000548295)
(0.000626495 -0.000187543 -2.37999e-06 0.000626495 1.97081e-20 0.000626495)
(0.000626495 -0.000187543 -2.37999e-06 0.000626495 -2.04363e-21 0.000626495)
(0.0007115 -0.000225416 -2.91123e-06 0.0007115 2.30813e-20 0.0007115)
(0.0007115 -0.000225416 -2.91123e-06 0.0007115 -2.63057e-21 0.0007115)
(0.000803217 -0.000267957 -3.52173e-06 0.000803217 2.66058e-20 0.000803217)
(0.000803217 -0.000267957 -3.52173e-06 0.000803217 -3.20099e-21 0.000803217)
(0.00090144 -0.00031511 -4.21444e-06 0.00090144 3.00544e-20 0.00090144)
(0.00090144 -0.00031511 -4.21444e-06 0.00090144 -3.88863e-21 0.00090144)
(0.00100585 -0.000366702 -4.99081e-06 0.00100585 2.65342e-20 0.00100585)
(0.00100585 -0.000366702 -4.99081e-06 0.00100585 -4.9186e-21 0.00100585)
(0.001116 -0.000422441 -5.8507e-06 0.001116 7.9528e-22 0.001116)
(0.001116 -0.000422441 -5.8507e-06 0.001116 -6.16747e-21 0.001116)
(0.00123138 -0.000481933 -6.79238e-06 0.00123138 -3.30351e-20 0.00123138)
(0.00123138 -0.000481933 -6.79238e-06 0.00123138 -7.51964e-21 0.00123138)
(0.00135136 -0.000544698 -7.81268e-06 0.00135136 -4.10722e-20 0.00135136)
(0.00135136 -0.000544698 -7.81268e-06 0.00135136 -8.71253e-21 0.00135136)
(0.00147525 -0.00061019 -8.90721e-06 0.00147525 -5.01877e-20 0.00147525)
(0.00147525 -0.00061019 -8.90721e-06 0.00147525 -9.87901e-21 0.00147525)
(0.00160234 -0.000677827 -1.00706e-05 0.00160234 -6.00589e-20 0.00160234)
(0.00160234 -0.000677827 -1.00706e-05 0.00160234 -9.99209e-21 0.00160234)
(0.00173187 -0.000747011 -1.12967e-05 0.00173187 -7.00871e-20 0.00173187)
(0.00173187 -0.000747011 -1.12967e-05 0.00173187 -1.07882e-20 0.00173187)
(0.0018631 -0.000817155 -1.25792e-05 0.0018631 -8.16611e-20 0.0018631)
(0.0018631 -0.000817155 -1.25792e-05 0.0018631 -1.24507e-20 0.0018631)
(0.00199527 -0.000887698 -1.39115e-05 0.00199527 -9.38157e-20 0.00199527)
(0.00199527 -0.000887698 -1.39115e-05 0.00199527 -1.30348e-20 0.00199527)
(0.00212771 -0.000958125 -1.52871e-05 0.00212771 -1.04564e-19 0.00212771)
(0.00212771 -0.000958125 -1.52871e-05 0.00212771 -1.37242e-20 0.00212771)
(0.00225974 -0.00102797 -1.66998e-05 0.00225974 -1.1789e-19 0.00225974)
(0.00225974 -0.00102797 -1.66998e-05 0.00225974 -1.52366e-20 0.00225974)
(0.00239078 -0.00109684 -1.8144e-05 0.00239078 -1.31881e-19 0.00239078)
(0.00239078 -0.00109684 -1.8144e-05 0.00239078 -1.80981e-20 0.00239078)
(0.00252029 -0.00116438 -1.96145e-05 0.00252029 -1.43509e-19 0.00252029)
(0.00252029 -0.00116438 -1.96145e-05 0.00252029 -1.97954e-20 0.00252029)
(0.0026478 -0.00123032 -2.11067e-05 0.0026478 -1.57865e-19 0.0026478)
(0.0026478 -0.00123032 -2.11067e-05 0.0026478 -2.11095e-20 0.0026478)
(0.00277292 -0.00129444 -2.26167e-05 0.00277292 -1.74538e-19 0.00277292)
(0.00277292 -0.00129444 -2.26167e-05 0.00277292 -2.4669e-20 0.00277292)
(0.0028953 -0.00135656 -2.41412e-05 0.0028953 -1.87086e-19 0.0028953)
(0.0028953 -0.00135656 -2.41412e-05 0.0028953 -2.73886e-20 0.0028953)
(0.00301468 -0.00141656 -2.56773e-05 0.00301468 -2.01851e-19 0.00301468)
(0.00301468 -0.00141656 -2.56773e-05 0.00301468 -2.7991e-20 0.00301468)
(0.00313083 -0.00147438 -2.72227e-05 0.00313083 -2.14844e-19 0.00313083)
(0.00313083 -0.00147438 -2.72227e-05 0.00313083 -2.82642e-20 0.00313083)
(0.00324359 -0.00152995 -2.87759e-05 0.00324359 -2.32419e-19 0.00324359)
(0.00324359 -0.00152995 -2.87759e-05 0.00324359 -3.18349e-20 0.00324359)
(0.00335284 -0.00158326 -3.03353e-05 0.00335284 -2.51455e-19 0.00335284)
(0.00335284 -0.00158326 -3.03353e-05 0.00335284 -3.13979e-20 0.00335284)
(0.00345851 -0.00163433 -3.19e-05 0.00345851 -2.6003e-19 0.00345851)
(0.00345851 -0.00163433 -3.19e-05 0.00345851 -3.05088e-20 0.00345851)
(0.00356055 -0.00168319 -3.34695e-05 0.00356055 -2.82857e-19 0.00356055)
(0.00356055 -0.00168319 -3.34695e-05 0.00356055 -3.63241e-20 0.00356055)
(0.00365896 -0.00172987 -3.50433e-05 0.00365896 -3.03444e-19 0.00365896)
(0.00365896 -0.00172987 -3.50433e-05 0.00365896 -4.30402e-20 0.00365896)
(0.00375375 -0.00177443 -3.66213e-05 0.00375375 -3.14317e-19 0.00375375)
(0.00375375 -0.00177443 -3.66213e-05 0.00375375 -5.25244e-20 0.00375375)
(0.00384495 -0.00181694 -3.82037e-05 0.00384495 -2.77786e-19 0.00384495)
(0.00384495 -0.00181694 -3.82037e-05 0.00384495 -6.15284e-20 0.00384495)
(0.00393264 -0.00185747 -3.97906e-05 0.00393264 -1.3573e-19 0.00393264)
(0.00393264 -0.00185747 -3.97906e-05 0.00393264 -6.34148e-20 0.00393264)
(0.00401687 -0.00189609 -4.13824e-05 0.00401687 -2.92089e-20 0.00401687)
(0.00401687 -0.00189609 -4.13824e-05 0.00401687 -6.84422e-20 0.00401687)
(0.00409772 -0.00193288 -4.29797e-05 0.00409772 -2.37806e-20 0.00409772)
(0.00409772 -0.00193288 -4.29797e-05 0.00409772 -7.18118e-20 0.00409772)
(0.00417529 -0.00196791 -4.4583e-05 0.00417529 -2.38404e-20 0.00417529)
(0.00417529 -0.00196791 -4.4583e-05 0.00417529 -7.47772e-20 0.00417529)
(0.00424967 -0.00200127 -4.61929e-05 0.00424967 -2.37063e-20 0.00424967)
(0.00424967 -0.00200127 -4.61929e-05 0.00424967 -7.70019e-20 0.00424967)
(0.00432096 -0.00203302 -4.78101e-05 0.00432096 -2.438e-20 0.00432096)
(0.00432096 -0.00203302 -4.78101e-05 0.00432096 -7.32799e-20 0.00432096)
(0.00438927 -0.00206325 -4.94355e-05 0.00438927 -1.92733e-20 0.00438927)
(0.00438927 -0.00206325 -4.94355e-05 0.00438927 -7.21266e-20 0.00438927)
(0.00445469 -0.00209202 -5.10697e-05 0.00445469 -7.0864e-21 0.00445469)
(0.00445469 -0.00209202 -5.10697e-05 0.00445469 -7.03098e-20 0.00445469)
(0.00451733 -0.00211941 -5.27135e-05 0.00451733 -1.4199e-20 0.00451733)
(0.00451733 -0.00211941 -5.27135e-05 0.00451733 -7.30839e-20 0.00451733)
(0.0045773 -0.00214549 -5.43677e-05 0.0045773 -5.34502e-21 0.0045773)
(0.0045773 -0.00214549 -5.43677e-05 0.0045773 -7.38738e-20 0.0045773)
(0.00463469 -0.00217031 -5.60333e-05 0.00463469 9.61759e-21 0.00463469)
(0.00463469 -0.00217031 -5.60333e-05 0.00463469 -7.10472e-20 0.00463469)
(0.00468962 -0.00219394 -5.77108e-05 0.00468962 -1.26283e-21 0.00468962)
(0.00468962 -0.00219394 -5.77108e-05 0.00468962 -6.63265e-20 0.00468962)
(0.00474217 -0.00221644 -5.94013e-05 0.00474217 1.28961e-21 0.00474217)
(0.00474217 -0.00221644 -5.94013e-05 0.00474217 -6.57664e-20 0.00474217)
(0.00479244 -0.00223786 -6.11055e-05 0.00479244 1.81318e-20 0.00479244)
(0.00479244 -0.00223786 -6.11055e-05 0.00479244 -7.17458e-20 0.00479244)
(0.00484053 -0.00225826 -6.28242e-05 0.00484053 5.44343e-20 0.00484053)
(0.00484053 -0.00225826 -6.28242e-05 0.00484053 -6.34533e-20 0.00484053)
(0.00488652 -0.00227768 -6.45582e-05 0.00488652 5.77081e-20 0.00488652)
(0.00488652 -0.00227768 -6.45582e-05 0.00488652 -3.708e-20 0.00488652)
(0.0049305 -0.00229618 -6.63083e-05 0.0049305 2.51021e-20 0.0049305)
(0.0049305 -0.00229618 -6.63083e-05 0.0049305 -6.09096e-20 0.0049305)
(0.00497255 -0.0023138 -6.80753e-05 0.00497255 -1.6827e-21 0.00497255)
(0.00497255 -0.0023138 -6.80753e-05 0.00497255 -1.03624e-19 0.00497255)
(0.00501275 -0.00233057 -6.986e-05 0.00501275 -7.95488e-22 0.00501275)
(0.00501275 -0.00233057 -6.986e-05 0.00501275 -1.29812e-19 0.00501275)
(0.00505118 -0.00234655 -7.16632e-05 0.00505118 9.8806e-21 0.00505118)
(0.00505118 -0.00234655 -7.16632e-05 0.00505118 -1.3208e-19 0.00505118)
(0.00508791 -0.00236177 -7.34856e-05 0.00508791 1.5521e-20 0.00508791)
(0.00508791 -0.00236177 -7.34856e-05 0.00508791 -1.25707e-19 0.00508791)
(0.00512301 -0.00237626 -7.53279e-05 0.00512301 2.57001e-20 0.00512301)
(0.00512301 -0.00237626 -7.53279e-05 0.00512301 -1.52812e-19 0.00512301)
(0.00515654 -0.00239006 -7.71909e-05 0.00515654 1.50988e-21 0.00515654)
(0.00515654 -0.00239006 -7.71909e-05 0.00515654 -1.52171e-19 0.00515654)
(0.00518857 -0.0024032 -7.90754e-05 0.00518857 2.54601e-20 0.00518857)
(0.00518857 -0.0024032 -7.90754e-05 0.00518857 -1.88084e-19 0.00518857)
(0.00521916 -0.00241571 -8.0982e-05 0.00521916 7.57738e-20 0.00521916)
(0.00521916 -0.00241571 -8.0982e-05 0.00521916 -1.65436e-19 0.00521916)
(0.00524836 -0.00242761 -8.29115e-05 0.00524836 1.19604e-21 0.00524836)
(0.00524836 -0.00242761 -8.29115e-05 0.00524836 -1.01428e-19 0.00524836)
(0.00527623 -0.00243893 -8.48646e-05 0.00527623 2.83549e-20 0.00527623)
(0.00527623 -0.00243893 -8.48646e-05 0.00527623 -1.48273e-19 0.00527623)
(0.00530282 -0.00244971 -8.68419e-05 0.00530282 7.80376e-20 0.00530282)
(0.00530282 -0.00244971 -8.68419e-05 0.00530282 -1.7622e-19 0.00530282)
(0.00532818 -0.00245995 -8.88442e-05 0.00532818 1.15666e-19 0.00532818)
(0.00532818 -0.00245995 -8.88442e-05 0.00532818 -1.1188e-19 0.00532818)
(0.00535236 -0.00246969 -9.08722e-05 0.00535236 1.07102e-19 0.00535236)
(0.00535236 -0.00246969 -9.08722e-05 0.00535236 -8.71067e-20 0.00535236)
(0.00537539 -0.00247893 -9.29264e-05 0.00537539 8.37342e-20 0.00537539)
(0.00537539 -0.00247893 -9.29264e-05 0.00537539 -1.21857e-19 0.00537539)
(0.00539733 -0.00248771 -9.50077e-05 0.00539733 9.27445e-20 0.00539733)
(0.00539733 -0.00248771 -9.50077e-05 0.00539733 -1.41899e-19 0.00539733)
(0.00541821 -0.00249605 -9.71166e-05 0.00541821 9.2739e-20 0.00541821)
(0.00541821 -0.00249605 -9.71166e-05 0.00541821 -1.52046e-19 0.00541821)
(0.00543807 -0.00250395 -9.92538e-05 0.00543807 8.59588e-20 0.00543807)
(0.00543807 -0.00250395 -9.92538e-05 0.00543807 -1.99515e-19 0.00543807)
(0.00545694 -0.00251143 -0.00010142 0.00545694 1.26113e-19 0.00545694)
(0.00545694 -0.00251143 -0.00010142 0.00545694 -2.22579e-19 0.00545694)
(0.00547487 -0.00251851 -0.000103616 0.00547487 1.33991e-19 0.00547487)
(0.00547487 -0.00251851 -0.000103616 0.00547487 6.14611e-19 0.00547487)
(0.00549187 -0.00252521 -0.000105842 0.00549187 1.34388e-19 0.00549187)
(0.00549187 -0.00252521 -0.000105842 0.00549187 1.75702e-18 0.00549187)
(0.00550799 -0.00253153 -0.000108099 0.00550799 9.83455e-20 0.00550799)
(0.00550799 -0.00253153 -0.000108099 0.00550799 2.0701e-18 0.00550799)
(0.00552325 -0.00253749 -0.000110387 0.00552325 1.64679e-19 0.00552325)
(0.00552325 -0.00253749 -0.000110387 0.00552325 2.3119e-18 0.00552325)
(0.00553767 -0.00254311 -0.000112707 0.00553767 1.99278e-19 0.00553767)
(0.00553767 -0.00254311 -0.000112707 0.00553767 2.50909e-18 0.00553767)
(0.00555129 -0.00254839 -0.000115061 0.00555129 2.7909e-19 0.00555129)
(0.00555129 -0.00254839 -0.000115061 0.00555129 2.57694e-18 0.00555129)
(0.00556413 -0.00255334 -0.000117447 0.00556413 3.49651e-19 0.00556413)
(0.00556413 -0.00255334 -0.000117447 0.00556413 2.74329e-18 0.00556413)
(0.0055762 -0.00255797 -0.000119868 0.0055762 2.91979e-19 0.0055762)
(0.0055762 -0.00255797 -0.000119868 0.0055762 2.7183e-18 0.0055762)
(0.00558754 -0.0025623 -0.000122323 0.00558754 3.4769e-19 0.00558754)
(0.00558754 -0.0025623 -0.000122323 0.00558754 2.7686e-18 0.00558754)
(0.00559817 -0.00256633 -0.000124813 0.00559817 3.71937e-19 0.00559817)
(0.00559817 -0.00256633 -0.000124813 0.00559817 3.12464e-18 0.00559817)
(0.00560809 -0.00257007 -0.000127339 0.00560809 3.28061e-19 0.00560809)
(0.00560809 -0.00257007 -0.000127339 0.00560809 3.31494e-18 0.00560809)
(0.00561734 -0.00257352 -0.000129901 0.00561734 3.88846e-19 0.00561734)
(0.00561734 -0.00257352 -0.000129901 0.00561734 3.33571e-18 0.00561734)
(0.00562593 -0.0025767 -0.0001325 0.00562593 4.20011e-19 0.00562593)
(0.00562593 -0.0025767 -0.0001325 0.00562593 3.4788e-18 0.00562593)
(0.00563388 -0.00257961 -0.000135136 0.00563388 5.32984e-19 0.00563388)
(0.00563388 -0.00257961 -0.000135136 0.00563388 3.76474e-18 0.00563388)
(0.00564119 -0.00258226 -0.000137811 0.00564119 6.87237e-19 0.00564119)
(0.00564119 -0.00258226 -0.000137811 0.00564119 4.19828e-18 0.00564119)
(0.0056479 -0.00258465 -0.000140524 0.0056479 4.94639e-19 0.0056479)
(0.0056479 -0.00258465 -0.000140524 0.0056479 4.30172e-18 0.0056479)
(0.005654 -0.0025868 -0.000143276 0.005654 6.74944e-19 0.005654)
(0.005654 -0.0025868 -0.000143276 0.005654 4.45007e-18 0.005654)
(0.00565951 -0.00258869 -0.000146068 0.00565951 6.02532e-19 0.00565951)
(0.00565951 -0.00258869 -0.000146068 0.00565951 4.65705e-18 0.00565951)
(0.00566445 -0.00259035 -0.000148901 0.00566445 4.99109e-19 0.00566445)
(0.00566445 -0.00259035 -0.000148901 0.00566445 4.6564e-18 0.00566445)
(0.00566883 -0.00259177 -0.000151774 0.00566883 1.61328e-19 0.00566883)
(0.00566883 -0.00259177 -0.000151774 0.00566883 5.01475e-18 0.00566883)
(0.00567266 -0.00259295 -0.000154688 0.00567266 -1.26656e-19 0.00567266)
(0.00567266 -0.00259295 -0.000154688 0.00567266 5.61468e-18 0.00567266)
(0.00567594 -0.00259391 -0.000157644 0.00567594 7.02244e-20 0.00567594)
(0.00567594 -0.00259391 -0.000157644 0.00567594 6.06857e-18 0.00567594)
(0.00567869 -0.00259465 -0.000160642 0.00567869 3.1445e-20 0.00567869)
(0.00567869 -0.00259465 -0.000160642 0.00567869 6.12392e-18 0.00567869)
(0.00568092 -0.00259516 -0.000163683 0.00568092 5.59781e-19 0.00568092)
(0.00568092 -0.00259516 -0.000163683 0.00568092 6.17262e-18 0.00568092)
(0.00568264 -0.00259545 -0.000166768 0.00568264 1.20215e-18 0.00568264)
(0.00568264 -0.00259545 -0.000166768 0.00568264 6.73002e-18 0.00568264)
(0.00568384 -0.00259553 -0.000169896 0.00568384 1.10836e-18 0.00568384)
(0.00568384 -0.00259553 -0.000169896 0.00568384 7.26951e-18 0.00568384)
(0.00568455 -0.0025954 -0.000173068 0.00568455 1.17533e-18 0.00568455)
(0.00568455 -0.0025954 -0.000173068 0.00568455 6.80449e-18 0.00568455)
(0.00568476 -0.00259505 -0.000176286 0.00568476 1.13134e-18 0.00568476)
(0.00568476 -0.00259505 -0.000176286 0.00568476 6.46779e-18 0.00568476)
(0.00568449 -0.0025945 -0.000179548 0.00568449 9.25006e-19 0.00568449)
(0.00568449 -0.0025945 -0.000179548 0.00568449 7.54061e-18 0.00568449)
(0.00568374 -0.00259374 -0.000182856 0.00568374 4.15415e-19 0.00568374)
(0.00568374 -0.00259374 -0.000182856 0.00568374 8.52616e-18 0.00568374)
(0.00568251 -0.00259277 -0.000186209 0.00568251 5.46037e-19 0.00568251)
(0.00568251 -0.00259277 -0.000186209 0.00568251 8.80125e-18 0.00568251)
(0.00568082 -0.00259161 -0.000189609 0.00568082 4.66132e-19 0.00568082)
(0.00568082 -0.00259161 -0.000189609 0.00568082 9.06954e-18 0.00568082)
(0.00567865 -0.00259024 -0.000193056 0.00567865 6.36057e-19 0.00567865)
(0.00567865 -0.00259024 -0.000193056 0.00567865 9.494e-18 0.00567865)
(0.00567603 -0.00258867 -0.00019655 0.00567603 4.87133e-19 0.00567603)
(0.00567603 -0.00258867 -0.00019655 0.00567603 9.74924e-18 0.00567603)
(0.00567295 -0.00258689 -0.000200092 0.00567295 8.55504e-19 0.00567295)
(0.00567295 -0.00258689 -0.000200092 0.00567295 1.01659e-17 0.00567295)
(0.00566941 -0.00258492 -0.000203681 0.00566941 3.63959e-19 0.00566941)
(0.00566941 -0.00258492 -0.000203681 0.00566941 1.0988e-17 0.00566941)
(0.00566542 -0.00258275 -0.000207318 0.00566542 -1.25576e-19 0.00566542)
(0.00566542 -0.00258275 -0.000207318 0.00566542 1.09464e-17 0.00566542)
(0.00566099 -0.00258039 -0.000211003 0.00566099 6.4495e-19 0.00566099)
(0.00566099 -0.00258039 -0.000211003 0.00566099 1.08991e-17 0.00566099)
(0.00565611 -0.00257782 -0.000214738 0.00565611 8.08877e-19 0.00565611)
(0.00565611 -0.00257782 -0.000214738 0.00565611 1.22134e-17 0.00565611)
(0.00565079 -0.00257506 -0.000218521 0.00565079 7.04049e-19 0.00565079)
(0.00565079 -0.00257506 -0.000218521 0.00565079 1.27039e-17 0.00565079)
(0.00564502 -0.0025721 -0.000222353 0.00564502 9.18968e-19 0.00564502)
(0.00564502 -0.0025721 -0.000222353 0.00564502 1.22087e-17 0.00564502)
(0.00563882 -0.00256894 -0.000226234 0.00563882 1.27499e-18 0.00563882)
(0.00563882 -0.00256894 -0.000226234 0.00563882 1.28039e-17 0.00563882)
(0.00563217 -0.00256559 -0.000230165 0.00563217 1.51513e-18 0.00563217)
(0.00563217 -0.00256559 -0.000230165 0.00563217 1.40184e-17 0.00563217)
(0.00562509 -0.00256203 -0.000234145 0.00562509 1.17065e-18 0.00562509)
(0.00562509 -0.00256203 -0.000234145 0.00562509 1.44499e-17 0.00562509)
(0.00561758 -0.00255828 -0.000238175 0.00561758 1.25664e-18 0.00561758)
(0.00561758 -0.00255828 -0.000238175 0.00561758 1.43587e-17 0.00561758)
(0.00560962 -0.00255433 -0.000242254 0.00560962 1.82746e-18 0.00560962)
(0.00560962 -0.00255433 -0.000242254 0.00560962 1.39903e-17 0.00560962)
(0.00560123 -0.00255017 -0.000246383 0.00560123 1.46946e-18 0.00560123)
(0.00560123 -0.00255017 -0.000246383 0.00560123 1.30394e-17 0.00560123)
(0.0055924 -0.00254582 -0.000250562 0.0055924 7.28187e-19 0.0055924)
(0.0055924 -0.00254582 -0.000250562 0.0055924 1.27143e-17 0.0055924)
(0.00558314 -0.00254126 -0.00025479 0.00558314 5.01301e-19 0.00558314)
(0.00558314 -0.00254126 -0.00025479 0.00558314 1.33704e-17 0.00558314)
(0.00557344 -0.0025365 -0.000259068 0.00557344 9.95518e-19 0.00557344)
(0.00557344 -0.0025365 -0.000259068 0.00557344 1.40444e-17 0.00557344)
(0.0055633 -0.00253154 -0.000263395 0.0055633 1.33042e-18 0.0055633)
(0.0055633 -0.00253154 -0.000263395 0.0055633 1.45322e-17 0.0055633)
(0.00555272 -0.00252637 -0.000267772 0.00555272 1.27352e-18 0.00555272)
(0.00555272 -0.00252637 -0.000267772 0.00555272 1.53403e-17 0.00555272)
(0.0055417 -0.00252099 -0.000272197 0.0055417 1.10065e-18 0.0055417)
(0.0055417 -0.00252099 -0.000272197 0.0055417 1.64334e-17 0.0055417)
(0.00553024 -0.00251541 -0.000276671 0.00553024 9.47142e-19 0.00553024)
(0.00553024 -0.00251541 -0.000276671 0.00553024 1.73771e-17 0.00553024)
(0.00551834 -0.00250961 -0.000281194 0.00551834 8.04726e-19 0.00551834)
(0.00551834 -0.00250961 -0.000281194 0.00551834 9.54055e-18 0.00551834)
(0.005506 -0.00250361 -0.000285764 0.005506 1.44591e-18 0.005506)
(0.005506 -0.00250361 -0.000285764 0.005506 2.56421e-18 0.005506)
(0.0054932 -0.00249739 -0.000290382 0.0054932 3.57597e-18 0.0054932)
(0.0054932 -0.00249739 -0.000290382 0.0054932 2.77457e-19 0.0054932)
(0.00547996 -0.00249095 -0.000295046 0.00547996 3.29372e-18 0.00547996)
(0.00547996 -0.00249095 -0.000295046 0.00547996 -5.38293e-19 0.00547996)
(0.00546627 -0.0024843 -0.000299757 0.00546627 -5.73149e-19 0.00546627)
(0.00546627 -0.0024843 -0.000299757 0.00546627 -1.16304e-18 0.00546627)
(0.00545212 -0.00247742 -0.000304514 0.00545212 -1.47418e-18 0.00545212)
(0.00545212 -0.00247742 -0.000304514 0.00545212 -2.80039e-18 0.00545212)
(0.00543752 -0.00247033 -0.000309316 0.00543752 2.123e-18 0.00543752)
(0.00543752 -0.00247033 -0.000309316 0.00543752 -3.09562e-18 0.00543752)
(0.00542246 -0.00246301 -0.000314161 0.00542246 5.61928e-18 0.00542246)
(0.00542246 -0.00246301 -0.000314161 0.00542246 -1.1525e-19 0.00542246)
(0.00540694 -0.00245546 -0.000319051 0.00540694 3.75935e-18 0.00540694)
(0.00540694 -0.00245546 -0.000319051 0.00540694 1.09582e-18 0.00540694)
(0.00539095 -0.00244768 -0.000323982 0.00539095 2.23942e-18 0.00539095)
(0.00539095 -0.00244768 -0.000323982 0.00539095 1.32707e-18 0.00539095)
(0.00537449 -0.00243967 -0.000328955 0.00537449 2.08963e-18 0.00537449)
(0.00537449 -0.00243967 -0.000328955 0.00537449 9.47561e-19 0.00537449)
(0.00535756 -0.00243143 -0.000333968 0.00535756 1.53814e-18 0.00535756)
(0.00535756 -0.00243143 -0.000333968 0.00535756 9.33141e-20 0.00535756)
(0.00534015 -0.00242295 -0.000339019 0.00534015 8.7258e-19 0.00534015)
(0.00534015 -0.00242295 -0.000339019 0.00534015 -2.46489e-19 0.00534015)
(0.00532226 -0.00241423 -0.000344109 0.00532226 1.6641e-18 0.00532226)
(0.00532226 -0.00241423 -0.000344109 0.00532226 -1.07186e-19 0.00532226)
(0.00530389 -0.00240526 -0.000349234 0.00530389 6.07199e-18 0.00530389)
(0.00530389 -0.00240526 -0.000349234 0.00530389 1.54608e-18 0.00530389)
(0.00528503 -0.00239605 -0.000354394 0.00528503 4.70666e-18 0.00528503)
(0.00528503 -0.00239605 -0.000354394 0.00528503 3.00716e-18 0.00528503)
(0.00526568 -0.00238659 -0.000359587 0.00526568 2.38047e-18 0.00526568)
(0.00526568 -0.00238659 -0.000359587 0.00526568 4.71594e-18 0.00526568)
(0.00524583 -0.00237688 -0.000364811 0.00524583 1.08713e-18 0.00524583)
(0.00524583 -0.00237688 -0.000364811 0.00524583 3.84842e-18 0.00524583)
(0.00522548 -0.00236691 -0.000370065 0.00522548 1.67123e-18 0.00522548)
(0.00522548 -0.00236691 -0.000370065 0.00522548 1.51453e-18 0.00522548)
(0.00520462 -0.00235668 -0.000375345 0.00520462 1.49661e-18 0.00520462)
(0.00520462 -0.00235668 -0.000375345 0.00520462 1.60888e-18 0.00520462)
(0.00518324 -0.00234619 -0.000380651 0.00518324 2.9937e-18 0.00518324)
(0.00518324 -0.00234619 -0.000380651 0.00518324 3.25856e-18 0.00518324)
(0.00516136 -0.00233544 -0.000385979 0.00516136 5.23809e-18 0.00516136)
(0.00516136 -0.00233544 -0.000385979 0.00516136 5.97934e-18 0.00516136)
(0.00513894 -0.00232441 -0.000391328 0.00513894 3.55175e-18 0.00513894)
(0.00513894 -0.00232441 -0.000391328 0.00513894 5.49474e-18 0.00513894)
(0.005116 -0.0023131 -0.000396694 0.005116 2.17055e-18 0.005116)
(0.005116 -0.0023131 -0.000396694 0.005116 4.03921e-18 0.005116)
(0.00509253 -0.00230152 -0.000402075 0.00509253 1.84237e-18 0.00509253)
(0.00509253 -0.00230152 -0.000402075 0.00509253 6.02036e-18 0.00509253)
(0.00506851 -0.00228966 -0.000407468 0.00506851 8.79273e-19 0.00506851)
(0.00506851 -0.00228966 -0.000407468 0.00506851 8.3253e-18 0.00506851)
(0.00504395 -0.00227751 -0.00041287 0.00504395 -1.24115e-19 0.00504395)
(0.00504395 -0.00227751 -0.00041287 0.00504395 2.6736e-17 0.00504395)
(0.00501884 -0.00226507 -0.000418277 0.00501884 4.22914e-18 0.00501884)
(0.00501884 -0.00226507 -0.000418277 0.00501884 3.0331e-17 0.00501884)
(0.00499317 -0.00225234 -0.000423686 0.00499317 1.67878e-18 0.00499317)
(0.00499317 -0.00225234 -0.000423686 0.00499317 3.05147e-17 0.00499317)
(0.00496694 -0.00223931 -0.000429094 0.00496694 7.66611e-19 0.00496694)
(0.00496694 -0.00223931 -0.000429094 0.00496694 3.13611e-17 0.00496694)
(0.00494013 -0.00222597 -0.000434495 0.00494013 -1.04306e-19 0.00494013)
(0.00494013 -0.00222597 -0.000434495 0.00494013 3.27333e-17 0.00494013)
(0.00491275 -0.00221233 -0.000439887 0.00491275 -5.09491e-18 0.00491275)
(0.00491275 -0.00221233 -0.000439887 0.00491275 3.436e-17 0.00491275)
(0.00488478 -0.00219837 -0.000445265 0.00488478 -1.17361e-18 0.00488478)
(0.00488478 -0.00219837 -0.000445265 0.00488478 3.63677e-17 0.00488478)
(0.00485622 -0.0021841 -0.000450624 0.00485622 1.11627e-17 0.00485622)
(0.00485622 -0.0021841 -0.000450624 0.00485622 3.55854e-17 0.00485622)
(0.00482707 -0.0021695 -0.000455959 0.00482707 9.0775e-18 0.00482707)
(0.00482707 -0.0021695 -0.000455959 0.00482707 3.54172e-17 0.00482707)
(0.0047973 -0.00215457 -0.000461266 0.0047973 -8.4976e-19 0.0047973)
(0.0047973 -0.00215457 -0.000461266 0.0047973 3.99212e-17 0.0047973)
(0.00476693 -0.00213932 -0.000466538 0.00476693 5.14905e-18 0.00476693)
(0.00476693 -0.00213932 -0.000466538 0.00476693 4.0731e-17 0.00476693)
(0.00473593 -0.00212372 -0.00047177 0.00473593 3.52685e-18 0.00473593)
(0.00473593 -0.00212372 -0.00047177 0.00473593 3.7065e-17 0.00473593)
(0.00470431 -0.00210778 -0.000476957 0.00470431 3.55241e-18 0.00470431)
(0.00470431 -0.00210778 -0.000476957 0.00470431 3.51998e-17 0.00470431)
(0.00467206 -0.0020915 -0.000482092 0.00467206 1.74191e-18 0.00467206)
(0.00467206 -0.0020915 -0.000482092 0.00467206 3.10377e-17 0.00467206)
(0.00463916 -0.00207486 -0.000487168 0.00463916 3.37694e-18 0.00463916)
(0.00463916 -0.00207486 -0.000487168 0.00463916 2.81885e-17 0.00463916)
(0.00460561 -0.00205786 -0.000492178 0.00460561 3.29684e-19 0.00460561)
(0.00460561 -0.00205786 -0.000492178 0.00460561 3.43513e-17 0.00460561)
(0.0045714 -0.00204049 -0.000497115 0.0045714 1.88654e-18 0.0045714)
(0.0045714 -0.00204049 -0.000497115 0.0045714 3.02141e-17 0.0045714)
(0.00453653 -0.00202275 -0.000501972 0.00453653 2.96438e-18 0.00453653)
(0.00453653 -0.00202275 -0.000501972 0.00453653 2.18239e-17 0.00453653)
(0.00450098 -0.00200464 -0.000506741 0.00450098 3.39915e-18 0.00450098)
(0.00450098 -0.00200464 -0.000506741 0.00450098 1.14764e-17 0.00450098)
(0.00446476 -0.00198614 -0.000511412 0.00446476 4.56483e-18 0.00446476)
(0.00446476 -0.00198614 -0.000511412 0.00446476 2.97542e-19 0.00446476)
(0.00442784 -0.00196725 -0.000515978 0.00442784 2.33892e-18 0.00442784)
(0.00442784 -0.00196725 -0.000515978 0.00442784 3.8618e-18 0.00442784)
(0.00439023 -0.00194796 -0.000520428 0.00439023 -8.18361e-19 0.00439023)
(0.00439023 -0.00194796 -0.000520428 0.00439023 1.98038e-18 0.00439023)
(0.00435192 -0.00192827 -0.000524754 0.00435192 -8.35756e-19 0.00435192)
(0.00435192 -0.00192827 -0.000524754 0.00435192 -3.15324e-18 0.00435192)
(0.0043129 -0.00190818 -0.000528945 0.0043129 3.8182e-18 0.0043129)
(0.0043129 -0.00190818 -0.000528945 0.0043129 -1.10664e-17 0.0043129)
(0.00427315 -0.00188766 -0.000532991 0.00427315 1.09906e-17 0.00427315)
(0.00427315 -0.00188766 -0.000532991 0.00427315 -1.14419e-17 0.00427315)
(0.00423269 -0.00186673 -0.000536879 0.00423269 8.22126e-18 0.00423269)
(0.00423269 -0.00186673 -0.000536879 0.00423269 6.55841e-18 0.00423269)
(0.00419149 -0.00184536 -0.0005406 0.00419149 1.14765e-17 0.00419149)
(0.00419149 -0.00184536 -0.0005406 0.00419149 4.48162e-18 0.00419149)
(0.00414956 -0.00182355 -0.000544139 0.00414956 5.35334e-18 0.00414956)
(0.00414956 -0.00182355 -0.000544139 0.00414956 1.20275e-17 0.00414956)