/*--------------------------------*- C++ -*----------------------------------*\
| =========                 |                                                 |
| \\      /  F ield         | OpenFOAM: The Open Source CFD Toolbox           |
|  \\    /   O peration     | Version:  2106                                  |
|   \\  /    A nd           | Website:  www.openfoam.com                      |
|    \\/     M anipulation  |                                                 |
\*---------------------------------------------------------------------------*/
FoamFile
{
    version     2.0;
    format      ascii;
    arch        "LSB;label=32;scalar=64";
    class       volVectorField;
    location    "10000";
    object      U;
}
// * * * * * * * * * * * * * * * * * * * * * * * * * * * * * * * * * * * * * //

dimensions      [0 1 -1 0 0 0 0];

internalField   nonuniform List<vector> 
2000
(
(0.00323963 -1.02954e-15 -1.58808e-18)
(0.00323963 6.73886e-19 -2.61239e-21)
(0.00977814 -2.26333e-15 2.2308e-18)
(0.00977814 -9.15471e-19 6.75354e-21)
(0.0164374 -2.27482e-15 1.83273e-18)
(0.0164374 -2.35722e-19 8.73391e-21)
(0.0232197 -2.09284e-15 1.81752e-18)
(0.0232197 -3.12107e-19 1.82521e-20)
(0.0301273 -2.08111e-15 1.54527e-18)
(0.0301273 -3.75896e-19 2.93117e-20)
(0.0371623 -2.09456e-15 1.1e-18)
(0.0371623 -4.61338e-19 4.19321e-20)
(0.0443273 -2.09965e-15 5.74782e-19)
(0.0443273 -5.2457e-19 5.59225e-20)
(0.0516244 -2.10039e-15 -2.08049e-21)
(0.0516244 -5.37279e-19 7.03128e-20)
(0.0590562 -2.10083e-15 -6.21891e-19)
(0.0590562 -5.86657e-19 8.54598e-20)
(0.0666249 -2.10147e-15 -1.27837e-18)
(0.0666249 -6.42764e-19 1.03695e-19)
(0.0743329 -2.10202e-15 -1.96711e-18)
(0.0743329 -6.93513e-19 1.2329e-19)
(0.0821827 -2.10245e-15 -2.6861e-18)
(0.0821827 -6.98742e-19 1.44567e-19)
(0.0901763 -2.10275e-15 -3.43446e-18)
(0.0901763 -6.84418e-19 1.67577e-19)
(0.0983161 -2.10303e-15 -4.21226e-18)
(0.0983161 -7.40856e-19 1.90793e-19)
(0.106604 -2.10337e-15 -5.02009e-18)
(0.106604 -7.8776e-19 2.16244e-19)
(0.115042 -2.10379e-15 -5.85772e-18)
(0.115042 -7.88436e-19 2.49795e-19)
(0.123631 -2.10436e-15 -6.72599e-18)
(0.123631 -8.03084e-19 2.81862e-19)
(0.132372 -2.105e-15 -7.62439e-18)
(0.132372 -7.61324e-19 3.16011e-19)
(0.141265 -2.10565e-15 -8.55278e-18)
(0.141265 -6.4989e-19 3.58512e-19)
(0.150312 -2.10622e-15 -9.50989e-18)
(0.150312 -5.4468e-19 4.03256e-19)
(0.159509 -2.10683e-15 -1.04951e-17)
(0.159509 -4.5006e-19 4.42479e-19)
(0.168855 -2.10739e-15 -1.1507e-17)
(0.168855 -4.45657e-19 4.85295e-19)
(0.178347 -2.10808e-15 -1.25424e-17)
(0.178347 -2.70565e-19 5.4103e-19)
(0.187979 -2.10886e-15 -1.3599e-17)
(0.187979 -9.38749e-20 5.9421e-19)
(0.197746 -2.10961e-15 -1.46721e-17)
(0.197746 -2.28817e-19 6.51431e-19)
(0.207638 -2.11063e-15 -1.57569e-17)
(0.207638 -6.98688e-20 7.19536e-19)
(0.217645 -2.1118e-15 -1.68496e-17)
(0.217645 3.01059e-19 7.8945e-19)
(0.227756 -2.11278e-15 -1.79442e-17)
(0.227756 3.70237e-19 8.56159e-19)
(0.237955 -2.11368e-15 -1.90332e-17)
(0.237955 5.4703e-19 9.3547e-19)
(0.248227 -2.11477e-15 -2.01103e-17)
(0.248227 8.47277e-19 1.0212e-18)
(0.258554 -2.11595e-15 -2.11677e-17)
(0.258554 1.3552e-18 1.11156e-18)
(0.268916 -2.11711e-15 -2.21987e-17)
(0.268916 1.91425e-18 1.2059e-18)
(0.279292 -2.11825e-15 -2.31964e-17)
(0.279292 2.11092e-18 1.29161e-18)
(0.289663 -2.11914e-15 -2.41534e-17)
(0.289663 2.16947e-18 1.38669e-18)
(0.300006 -2.12003e-15 -2.4667e-17)
(0.300006 2.27412e-18 1.48923e-18)
(0.310301 -2.12143e-15 -2.39705e-17)
(0.310301 2.30439e-18 1.60068e-18)
(0.320527 -2.12298e-15 -2.3216e-17)
(0.320527 2.68702e-18 1.71665e-18)
(0.330665 -2.12423e-15 -2.23982e-17)
(0.330665 3.394e-18 1.824e-18)
(0.340698 -2.12528e-15 -2.15255e-17)
(0.340698 2.34612e-18 1.92495e-18)
(0.350609 -2.12592e-15 -2.06115e-17)
(0.350609 2.54677e-18 2.00074e-18)
(0.360387 -2.12683e-15 -1.96498e-17)
(0.360387 2.25979e-18 2.08156e-18)
(0.370018 -2.12852e-15 -1.86189e-17)
(0.370018 2.28544e-18 2.15655e-18)
(0.379493 -2.12996e-15 -1.75849e-17)
(0.379493 2.84036e-18 2.21453e-18)
(0.388805 -2.13155e-15 -1.65169e-17)
(0.388805 3.12031e-18 2.26835e-18)
(0.397947 -2.1329e-15 -1.54237e-17)
(0.397947 3.38628e-18 2.32502e-18)
(0.406917 -2.13383e-15 -1.43077e-17)
(0.406917 3.39616e-18 2.39044e-18)
(0.415711 -2.13574e-15 -1.31688e-17)
(0.415711 2.6271e-18 2.4348e-18)
(0.42433 -2.13745e-15 -1.20139e-17)
(0.42433 2.52145e-18 2.49959e-18)
(0.432772 -2.13854e-15 -1.08295e-17)
(0.432772 2.55129e-18 2.55815e-18)
(0.44104 -2.1399e-15 -9.66013e-18)
(0.44104 1.24788e-18 2.61875e-18)
(0.449135 -2.14101e-15 -8.45674e-18)
(0.449135 1.32645e-20 2.66645e-18)
(0.457061 -2.14168e-15 -7.30064e-18)
(0.457061 -5.50273e-19 2.71073e-18)
(0.464821 -2.14265e-15 -6.03572e-18)
(0.464821 -4.2938e-19 2.76436e-18)
(0.472418 -2.14457e-15 -4.78732e-18)
(0.472418 -1.31037e-20 2.7763e-18)
(0.479858 -2.14605e-15 -3.585e-18)
(0.479858 -2.13235e-19 2.79402e-18)
(0.487143 -2.14678e-15 -2.28265e-18)
(0.487143 -5.31957e-19 2.82478e-18)
(0.49428 -2.14864e-15 -9.78373e-19)
(0.49428 -5.34305e-19 2.87212e-18)
(0.501271 -2.151e-15 3.18448e-19)
(0.501271 -6.0505e-19 2.93988e-18)
(0.508124 -2.15265e-15 1.20471e-18)
(0.508124 -1.20917e-18 3.01035e-18)
(0.51484 -2.15315e-15 1.32431e-18)
(0.51484 -2.7245e-18 3.06005e-18)
(0.521427 -2.15338e-15 1.41986e-18)
(0.521427 -4.7138e-18 3.14959e-18)
(0.527887 -2.15409e-15 1.51663e-18)
(0.527887 -5.22831e-18 3.20607e-18)
(0.534227 -2.15461e-15 1.59877e-18)
(0.534227 -5.28866e-18 3.27609e-18)
(0.540449 -2.15469e-15 1.66874e-18)
(0.540449 -7.00537e-18 3.30153e-18)
(0.546558 -2.15473e-15 1.74903e-18)
(0.546558 -8.38134e-18 3.32208e-18)
(0.552559 -2.15491e-15 1.78976e-18)
(0.552559 -8.91639e-18 3.33095e-18)
(0.558455 -2.15532e-15 1.80934e-18)
(0.558455 -1.01636e-17 3.31743e-18)
(0.56425 -2.15488e-15 1.90098e-18)
(0.56425 -1.15194e-17 3.30781e-18)
(0.569948 -2.15493e-15 1.85893e-18)
(0.569948 -1.23882e-17 3.28494e-18)
(0.575552 -2.15589e-15 1.86053e-18)
(0.575552 -1.41533e-17 3.26244e-18)
(0.581067 -2.1551e-15 1.90097e-18)
(0.581067 -1.65993e-17 3.21501e-18)
(0.586495 -2.15414e-15 1.89611e-18)
(0.586495 -1.77235e-17 3.18944e-18)
(0.591839 -2.15507e-15 1.86651e-18)
(0.591839 -1.8858e-17 3.1532e-18)
(0.597102 -2.15756e-15 1.77968e-18)
(0.597102 -1.90932e-17 3.05585e-18)
(0.602288 -2.16023e-15 1.75163e-18)
(0.602288 -1.73104e-17 2.87054e-18)
(0.6074 -2.16217e-15 1.75348e-18)
(0.6074 -1.7099e-17 2.81971e-18)
(0.612439 -2.16201e-15 1.76236e-18)
(0.612439 -1.79823e-17 2.78123e-18)
(0.617408 -2.1617e-15 1.76626e-18)
(0.617408 -1.91036e-17 2.78902e-18)
(0.622311 -2.16172e-15 1.73946e-18)
(0.622311 -1.98827e-17 2.71513e-18)
(0.627148 -2.16087e-15 1.70215e-18)
(0.627148 -2.14663e-17 2.67108e-18)
(0.631924 -2.16078e-15 1.68943e-18)
(0.631924 -2.31661e-17 2.65874e-18)
(0.636638 -2.15864e-15 1.80216e-18)
(0.636638 -2.4444e-17 2.58636e-18)
(0.641295 -2.15622e-15 1.73049e-18)
(0.641295 -2.84976e-17 2.69155e-18)
(0.645895 -2.15616e-15 1.67487e-18)
(0.645895 -3.04812e-17 2.55867e-18)
(0.650442 -2.1552e-15 1.68415e-18)
(0.650442 -3.12489e-17 2.42897e-18)
(0.654935 -2.1532e-15 1.63594e-18)
(0.654935 -3.35298e-17 2.43735e-18)
(0.659378 -2.15127e-15 1.54211e-18)
(0.659378 -3.66641e-17 2.37159e-18)
(0.663772 -2.15108e-15 1.35989e-18)
(0.663772 -4.04532e-17 2.16266e-18)
(0.668118 -2.15055e-15 1.17691e-18)
(0.668118 -4.11795e-17 2.01093e-18)
(0.672418 -2.14813e-15 1.10837e-18)
(0.672418 -4.40713e-17 1.84721e-18)
(0.676674 -2.14625e-15 1.04394e-18)
(0.676674 -4.7761e-17 1.77641e-18)
(0.680887 -2.14477e-15 9.40618e-19)
(0.680887 -4.90248e-17 1.66421e-18)
(0.685058 -2.14204e-15 8.73975e-19)
(0.685058 -5.42101e-17 1.69459e-18)
(0.689189 -2.13928e-15 7.45082e-19)
(0.689189 -5.69126e-17 1.69725e-18)
(0.693281 -2.1361e-15 6.65264e-19)
(0.693281 -5.98729e-17 -1.02322e-18)
(0.697335 -2.13342e-15 5.79316e-19)
(0.697335 -6.5268e-17 -4.69044e-18)
(0.701352 -2.12963e-15 5.8244e-19)
(0.701352 -7.01408e-17 -8.27508e-18)
(0.705334 -2.12559e-15 3.89295e-19)
(0.705334 -7.34832e-17 -1.25168e-17)
(0.709281 -2.12065e-15 3.22228e-19)
(0.709281 -7.69298e-17 -1.66059e-17)
(0.713195 -2.11624e-15 -2.61053e-20)
(0.713195 -8.34307e-17 -2.09687e-17)
(0.717077 -2.11351e-15 -3.3835e-19)
(0.717077 -8.78351e-17 -2.53166e-17)
(0.720927 -2.10864e-15 -6.51484e-19)
(0.720927 -9.175e-17 -2.94852e-17)
(0.724746 -2.10418e-15 -9.1198e-19)
(0.724746 -1.00817e-16 -3.38854e-17)
(0.728536 -2.10066e-15 -1.31959e-18)
(0.728536 -1.08374e-16 -3.87767e-17)
(0.732297 -2.09554e-15 -1.52421e-18)
(0.732297 -1.1483e-16 -4.34651e-17)
(0.73603 -2.09068e-15 -1.93492e-18)
(0.73603 -1.22946e-16 -4.82123e-17)
(0.739736 -2.08391e-15 -2.23423e-18)
(0.739736 -1.30225e-16 -5.29731e-17)
(0.743415 -2.0765e-15 -2.7507e-18)
(0.743415 -1.38475e-16 -5.82257e-17)
(0.747069 -2.07273e-15 -3.39295e-18)
(0.747069 -1.43871e-16 -6.39392e-17)
(0.750698 -2.06155e-15 -3.73036e-18)
(0.750698 -1.49678e-16 -6.92505e-17)
(0.754303 -2.05179e-15 -4.03769e-18)
(0.754303 -1.58663e-16 -7.50829e-17)
(0.757884 -2.04447e-15 -4.29755e-18)
(0.757884 -1.68991e-16 -8.06235e-17)
(0.761442 -2.03893e-15 -4.56889e-18)
(0.761442 -1.74164e-16 -8.60805e-17)
(0.764978 -2.0355e-15 -4.0811e-18)
(0.764978 -1.79658e-16 -9.22779e-17)
(0.768492 -2.02885e-15 -3.81688e-18)
(0.768492 -1.87438e-16 -9.90357e-17)
(0.771985 -2.02301e-15 -3.45867e-18)
(0.771985 -1.92689e-16 -1.0613e-16)
(0.775458 -2.01639e-15 -3.17696e-18)
(0.775458 -1.98478e-16 -1.12788e-16)
(0.778911 -2.00376e-15 -4.12571e-18)
(0.778911 -2.0667e-16 -1.19797e-16)
(0.782344 -1.98465e-15 -4.73619e-18)
(0.782344 -2.17735e-16 -1.27466e-16)
(0.785758 -1.96763e-15 -4.53276e-18)
(0.785758 -2.31704e-16 -1.35334e-16)
(0.789154 -1.95027e-15 -5.55574e-18)
(0.789154 -2.44789e-16 -1.41237e-16)
(0.792532 -1.93442e-15 -5.1082e-18)
(0.792532 -2.58878e-16 -1.47806e-16)
(0.795892 -1.93058e-15 -5.76856e-18)
(0.795892 -2.67248e-16 -1.55982e-16)
(0.799235 -1.92012e-15 -5.6318e-18)
(0.799235 -2.73311e-16 -1.64537e-16)
(0.802561 -1.91658e-15 -5.66776e-18)
(0.802561 -2.75758e-16 -1.72804e-16)
(0.805872 -1.90779e-15 -6.31174e-18)
(0.805872 -2.78751e-16 -1.81706e-16)
(0.809166 -1.90029e-15 -5.96743e-18)
(0.809166 -2.84264e-16 -1.9078e-16)
(0.812445 -1.88883e-15 -6.41377e-18)
(0.812445 -2.89364e-16 -1.99875e-16)
(0.815709 -1.87766e-15 -6.35051e-18)
(0.815709 -2.98021e-16 -2.0963e-16)
(0.818958 -1.87195e-15 -5.55973e-18)
(0.818958 -3.02131e-16 -2.20144e-16)
(0.822193 -1.86188e-15 -5.11941e-18)
(0.822193 -3.10199e-16 -2.29229e-16)
(0.825413 -1.85159e-15 -5.53077e-18)
(0.825413 -3.14374e-16 -2.39098e-16)
(0.82862 -1.84156e-15 -5.41335e-18)
(0.82862 -3.20103e-16 -2.51106e-16)
(0.831814 -1.83174e-15 -5.57748e-18)
(0.831814 -3.24706e-16 -2.61531e-16)
(0.834995 -1.81734e-15 -5.99106e-18)
(0.834995 -3.26621e-16 -2.71613e-16)
(0.838163 -1.79938e-15 -6.18564e-18)
(0.838163 -3.37748e-16 -2.8311e-16)
(0.841318 -1.78309e-15 -6.49719e-18)
(0.841318 -3.50679e-16 -2.95586e-16)
(0.844461 -1.76827e-15 -6.07304e-18)
(0.844461 -3.63344e-16 -3.07298e-16)
(0.847592 -1.75315e-15 -6.82675e-18)
(0.847592 -3.70661e-16 -3.18696e-16)
(0.850712 -1.73862e-15 -7.67176e-18)
(0.850712 -3.84136e-16 -3.2881e-16)
(0.85382 -1.72555e-15 -7.59449e-18)
(0.85382 -3.95257e-16 -3.36614e-16)
(0.856917 -1.71294e-15 -6.86385e-18)
(0.856917 -4.01017e-16 -3.45037e-16)
(0.860003 -1.70136e-15 -6.28188e-18)
(0.860003 -4.11703e-16 -3.53778e-16)
(0.863078 -1.68884e-15 -6.92272e-18)
(0.863078 -4.2005e-16 -3.62583e-16)
(0.866143 -1.67374e-15 -6.89257e-18)
(0.866143 -4.33438e-16 -3.71579e-16)
(0.869197 -1.65838e-15 -6.80115e-18)
(0.869197 -4.46283e-16 -3.81065e-16)
(0.872241 -1.64403e-15 -6.22939e-18)
(0.872241 -4.5864e-16 -3.91096e-16)
(0.875276 -1.63038e-15 -5.93045e-18)
(0.875276 -4.72387e-16 -4.01471e-16)
(0.8783 -1.6158e-15 -5.10307e-18)
(0.8783 -4.82444e-16 -3.95093e-16)
(0.881315 -1.5928e-15 -6.10107e-18)
(0.881315 -4.93081e-16 -3.83651e-16)
(0.884321 -1.56675e-15 -8.37976e-18)
(0.884321 -5.0342e-16 -3.70341e-16)
(0.887317 -1.55286e-15 -7.83008e-18)
(0.887317 -5.11149e-16 -3.55519e-16)
(0.890305 -1.53515e-15 -3.60826e-18)
(0.890305 -5.22998e-16 -3.40144e-16)
(0.893283 -1.51973e-15 7.47303e-20)
(0.893283 -5.39579e-16 -3.1999e-16)
(0.896253 -1.497e-15 -4.93154e-18)
(0.896253 -5.5796e-16 -3.0226e-16)
(0.899214 -1.47105e-15 -7.62775e-18)
(0.899214 -5.75969e-16 -2.87254e-16)
(0.902166 -1.44777e-15 -7.20226e-18)
(0.902166 -5.81521e-16 -2.70495e-16)
(0.90511 -1.43056e-15 -6.85311e-18)
(0.90511 -5.95542e-16 -2.55394e-16)
(0.908045 -1.4129e-15 -7.59982e-18)
(0.908045 -6.10528e-16 -2.3564e-16)
(0.910973 -1.38655e-15 -5.67874e-18)
(0.910973 -6.14118e-16 -2.16203e-16)
(0.913892 -1.37078e-15 -2.30923e-18)
(0.913892 -6.28429e-16 -1.95034e-16)
(0.916803 -1.3459e-15 -5.25378e-18)
(0.916803 -6.31608e-16 -1.7402e-16)
(0.919707 -1.32228e-15 -9.76615e-18)
(0.919707 -6.43579e-16 -1.54784e-16)
(0.922602 -1.30073e-15 -9.6066e-18)
(0.922602 -6.56669e-16 -1.35575e-16)
(0.92549 -1.2901e-15 -9.02699e-18)
(0.92549 -6.54813e-16 -1.19596e-16)
(0.92837 -1.27446e-15 -8.98173e-18)
(0.92837 -6.57034e-16 -9.68196e-17)
(0.931242 -1.25269e-15 -8.18325e-18)
(0.931242 -6.66127e-16 -7.41177e-17)
(0.934106 -1.23599e-15 -5.66593e-18)
(0.934106 -6.75804e-16 -5.00551e-17)
(0.936963 -1.21489e-15 -1.01238e-17)
(0.936963 -6.85249e-16 -2.84165e-17)
(0.939813 -1.19555e-15 -1.14495e-17)
(0.939813 -6.9973e-16 -9.26714e-18)
(0.942654 -1.18325e-15 -1.22963e-17)
(0.942654 -7.08513e-16 1.58435e-17)
(0.945489 -1.1703e-15 -1.25718e-17)
(0.945489 -7.17085e-16 4.16322e-17)
(0.948315 -1.15784e-15 -1.09074e-17)
(0.948315 -7.2549e-16 6.4253e-17)
(0.951135 -1.158e-15 -1.03099e-17)
(0.951135 -7.24484e-16 8.58034e-17)
(0.953946 -1.13368e-15 -1.06089e-17)
(0.953946 -7.26916e-16 8.23249e-17)
(0.95675 -1.13202e-15 -1.18086e-17)
(0.95675 -7.30759e-16 7.81888e-17)
(0.959547 -1.13176e-15 -1.41716e-17)
(0.959547 -7.29927e-16 7.59415e-17)
(0.962336 -1.11454e-15 -1.35928e-17)
(0.962336 -7.18276e-16 7.10328e-17)
(0.965117 -1.1091e-15 -7.12403e-18)
(0.965117 -7.18363e-16 6.57443e-17)
(0.967891 -1.10757e-15 1.3843e-18)
(0.967891 -7.29993e-16 5.8334e-17)
(0.970657 -1.07342e-15 -3.66977e-18)
(0.970657 -7.53454e-16 5.07772e-17)
(0.973415 -1.04487e-15 -1.27752e-17)
(0.973415 -7.83474e-16 4.99582e-17)
(0.976165 -1.04546e-15 -1.46291e-17)
(0.976165 -7.90804e-16 4.68816e-17)
(0.978907 -1.00735e-15 -1.05542e-17)
(0.978907 -7.99162e-16 3.84531e-17)
(0.981641 -9.86981e-16 -1.12083e-17)
(0.981641 -7.95596e-16 3.35913e-17)
(0.984367 -9.74511e-16 -1.05442e-17)
(0.984367 -7.91372e-16 2.83171e-17)
(0.987084 -9.64967e-16 -1.47758e-17)
(0.987084 -8.0576e-16 2.57233e-17)
(0.989793 -9.50101e-16 -1.05787e-17)
(0.989793 -8.17448e-16 2.128e-17)
(0.992494 -9.53998e-16 -1.66832e-17)
(0.992494 -8.14196e-16 1.46036e-17)
(0.995185 -9.32586e-16 -1.13367e-17)
(0.995185 -8.13684e-16 -1.83631e-18)
(0.997868 -9.08965e-16 -1.12502e-17)
(0.997868 -8.22208e-16 -6.83761e-18)
(1.00054 -8.87081e-16 -7.40768e-18)
(1.00054 -8.33974e-16 -1.65362e-17)
(1.00321 -8.63386e-16 -6.89963e-18)
(1.00321 -8.44168e-16 -1.03528e-17)
(1.00586 -8.56878e-16 -7.61975e-18)
(1.00586 -8.37082e-16 -7.44863e-18)
(1.00851 -8.62305e-16 -1.39898e-17)
(1.00851 -8.41052e-16 -8.73453e-18)
(1.01114 -8.43739e-16 -5.26201e-18)
(1.01114 -8.29155e-16 -1.35855e-18)
(1.01376 -8.19859e-16 -1.63234e-18)
(1.01376 -8.37663e-16 7.83621e-18)
(1.01638 -8.04492e-16 -2.52003e-18)
(1.01638 -8.5634e-16 3.96073e-17)
(1.01898 -7.79137e-16 -2.66073e-18)
(1.01898 -8.24678e-16 4.75132e-17)
(1.02157 -7.57526e-16 8.87061e-19)
(1.02157 -7.90398e-16 4.03351e-17)
(1.02415 -7.67365e-16 -1.57113e-17)
(1.02415 -7.33625e-16 5.52862e-17)
(1.02672 -7.6337e-16 -1.40597e-17)
(1.02672 -7.00921e-16 3.62097e-17)
(1.02928 -7.35592e-16 -1.48495e-17)
(1.02928 -6.96843e-16 1.40815e-17)
(1.03182 -7.14023e-16 -3.95944e-18)
(1.03182 -6.95133e-16 -4.95836e-18)
(1.03435 -6.83869e-16 -6.84685e-18)
(1.03435 -6.68348e-16 1.60331e-17)
(1.03687 -6.55677e-16 -5.00069e-18)
(1.03687 -6.50564e-16 2.17613e-17)
(1.03937 -6.34672e-16 -2.98407e-18)
(1.03937 -6.6557e-16 4.20271e-18)
(1.04186 -6.32248e-16 -1.79159e-17)
(1.04186 -6.24078e-16 6.51712e-18)
(1.04433 -6.37895e-16 -1.55867e-17)
(1.04433 -5.85151e-16 2.91724e-19)
(1.04679 -6.16577e-16 -1.1362e-17)
(1.04679 -5.77984e-16 5.34123e-18)
(1.04923 -5.86889e-16 -9.1476e-18)
(1.04923 -5.54856e-16 1.95271e-18)
(1.05165 -5.59047e-16 1.05967e-17)
(1.05165 -5.66876e-16 -6.56428e-18)
(1.05406 -5.69025e-16 -5.01082e-18)
(1.05406 -5.91439e-16 -1.03957e-17)
(1.05644 -5.69315e-16 -2.88202e-19)
(1.05644 -5.5844e-16 1.12219e-17)
(1.05881 -5.73818e-16 1.58548e-17)
(1.05881 -5.57102e-16 1.38408e-17)
(1.06116 -5.81356e-16 -5.9663e-18)
(1.06116 -5.56437e-16 4.38045e-18)
(1.06349 -5.82951e-16 9.65248e-18)
(1.06349 -5.56827e-16 -2.6315e-17)
(1.06579 -5.6332e-16 8.80029e-18)
(1.06579 -5.75481e-16 5.66005e-19)
(1.06807 -5.54758e-16 8.2291e-18)
(1.06807 -5.79134e-16 4.10915e-18)
(1.07033 -5.25792e-16 1.00585e-17)
(1.07033 -5.66893e-16 1.64781e-19)
(1.07256 -5.44444e-16 1.23263e-17)
(1.07256 -5.55938e-16 2.10541e-17)
(1.07476 -5.17961e-16 3.57411e-17)
(1.07476 -5.34562e-16 1.18971e-17)
(1.07693 -5.12261e-16 1.74273e-17)
(1.07693 -5.21417e-16 -8.01264e-18)
(1.07908 -5.22524e-16 1.99083e-17)
(1.07908 -5.03693e-16 6.34491e-19)
(1.08119 -5.12671e-16 3.14972e-17)
(1.08119 -4.97701e-16 4.13104e-17)
(1.08327 -5.03821e-16 3.67683e-17)
(1.08327 -4.93648e-16 6.29219e-17)
(1.08532 -4.69306e-16 6.83848e-17)
(1.08532 -4.51303e-16 5.57833e-17)
(1.08733 -4.37427e-16 6.70254e-17)
(1.08733 -4.48133e-16 4.47159e-17)
(1.0893 -4.2229e-16 7.08036e-17)
(1.0893 -4.85389e-16 7.02774e-17)
(1.09123 -4.50786e-16 7.37244e-17)
(1.09123 -4.6146e-16 7.5347e-17)
(1.09311 -4.25397e-16 7.57576e-17)
(1.09311 -3.99107e-16 8.24975e-17)
(1.09495 -3.97341e-16 1.06553e-16)
(1.09495 -4.25375e-16 7.00187e-17)
(1.09674 -3.8928e-16 9.08302e-17)
(1.09674 -4.44879e-16 6.9327e-17)
(1.09848 -4.01772e-16 4.14932e-17)
(1.09848 -4.42248e-16 4.65342e-17)
(1.10016 -4.34072e-16 7.7321e-17)
(1.10016 -4.64381e-16 2.14994e-17)
(1.10178 -4.19272e-16 6.60947e-17)
(1.10178 -4.75677e-16 5.2667e-17)
(1.10333 -4.28844e-16 4.65899e-17)
(1.10333 -4.59854e-16 6.40811e-17)
(1.10482 -4.33319e-16 5.95557e-17)
(1.10482 -4.20906e-16 4.05892e-17)
(1.10624 -4.0583e-16 6.67568e-17)
(1.10624 -4.01549e-16 4.89786e-17)
(1.10757 -4.13861e-16 3.36518e-17)
(1.10757 -4.11996e-16 7.79054e-17)
(1.10882 -4.84933e-16 7.12833e-31)
(1.10882 -3.94714e-16 6.74331e-17)
(1.10998 -4.28687e-16 -1.29372e-17)
(1.10998 -3.76073e-16 3.6132e-17)
(1.11105 -4.683e-16 2.52912e-17)
(1.11105 -3.89618e-16 6.79209e-18)
(1.11201 -4.13599e-16 2.09176e-18)
(1.11201 -3.81366e-16 -8.13722e-18)
(1.11286 -3.67245e-16 3.86183e-18)
(1.11286 -3.61429e-16 2.44908e-17)
(1.11359 -3.31512e-16 5.09093e-17)
(1.11359 -4.08206e-16 -4.40989e-17)
(1.11419 -3.9465e-16 -6.43038e-18)
(1.11419 -4.21149e-16 6.95373e-17)
(1.11465 -3.80624e-16 -1.84911e-17)
(1.11465 -3.54677e-16 4.60294e-17)
(1.11497 -3.72217e-16 -3.66266e-17)
(1.11497 -3.4483e-16 -2.28665e-17)
(1.11514 -3.63553e-16 -6.00981e-17)
(1.11514 -3.46409e-16 -4.32835e-17)
(0.00323963 3.89697e-19 7.6815e-19)
(0.00323963 2.03932e-19 5.83948e-18)
(0.00977814 -3.87229e-19 1.57342e-17)
(0.00977814 -6.89154e-20 -3.58157e-18)
(0.0164374 6.02669e-20 1.70513e-17)
(0.0164374 1.87187e-19 -3.70601e-18)
(0.0232197 1.22175e-19 1.64139e-17)
(0.0232197 3.00204e-19 -3.8288e-18)
(0.0301273 1.93575e-19 1.61828e-17)
(0.0301273 4.09751e-19 -3.94918e-18)
(0.0371623 2.86657e-19 1.61994e-17)
(0.0371623 5.04255e-19 -4.06614e-18)
(0.0443273 3.8591e-19 1.62335e-17)
(0.0443273 6.0935e-19 -4.17886e-18)
(0.0516244 5.17173e-19 1.62498e-17)
(0.0516244 7.25434e-19 -4.2866e-18)
(0.0590562 6.42265e-19 1.62572e-17)
(0.0590562 8.60499e-19 -4.38844e-18)
(0.0666249 7.75199e-19 1.62533e-17)
(0.0666249 1.00035e-18 -4.48333e-18)
(0.0743329 9.14743e-19 1.62355e-17)
(0.0743329 1.16077e-18 -4.57073e-18)
(0.0821827 1.05051e-18 1.62002e-17)
(0.0821827 1.36069e-18 -4.64949e-18)
(0.0901763 1.1774e-18 1.61413e-17)
(0.0901763 1.5853e-18 -4.71858e-18)
(0.0983161 1.21654e-18 1.46142e-17)
(0.0983161 1.83829e-18 -4.77714e-18)
(0.106604 1.31638e-18 1.24419e-17)
(0.106604 2.05543e-18 -4.82374e-18)
(0.115042 1.48255e-18 1.01073e-17)
(0.115042 2.36008e-18 -4.85688e-18)
(0.123631 1.6799e-18 7.61041e-18)
(0.123631 2.63897e-18 -4.87586e-18)
(0.132372 1.9742e-18 4.94127e-18)
(0.132372 2.87796e-18 -4.87851e-18)
(0.141265 2.27594e-18 2.09697e-18)
(0.141265 3.1531e-18 -4.86283e-18)
(0.150312 2.58639e-18 -9.33509e-19)
(0.150312 3.31698e-18 -4.82771e-18)
(0.159509 2.87628e-18 -4.15103e-18)
(0.159509 3.57666e-18 -4.77067e-18)
(0.168855 3.18226e-18 -7.56603e-18)
(0.168855 3.91441e-18 -4.68919e-18)
(0.178347 3.53095e-18 -8.8922e-18)
(0.178347 4.10146e-18 -4.58085e-18)
(0.187979 3.94094e-18 -9.1695e-18)
(0.187979 4.23772e-18 -4.44438e-18)
(0.197746 4.42358e-18 -8.06801e-18)
(0.197746 4.4961e-18 -4.27617e-18)
(0.207638 4.86069e-18 -6.91183e-18)
(0.207638 4.87709e-18 -4.074e-18)
(0.217645 5.30356e-18 -5.70601e-18)
(0.217645 5.36187e-18 -3.83711e-18)
(0.227756 5.82882e-18 -4.44333e-18)
(0.227756 5.78214e-18 -3.56425e-18)
(0.237955 6.3363e-18 -3.13284e-18)
(0.237955 6.2502e-18 -3.25192e-18)
(0.248227 6.78581e-18 -1.77061e-18)
(0.248227 6.80172e-18 -2.8992e-18)
(0.258554 7.33014e-18 -3.67853e-19)
(0.258554 7.45107e-18 -2.50609e-18)
(0.268916 7.88386e-18 1.07258e-18)
(0.268916 8.38237e-18 -2.07192e-18)
(0.279292 8.40295e-18 2.54219e-18)
(0.279292 9.15196e-18 -1.59674e-18)
(0.289663 8.84733e-18 4.04555e-18)
(0.289663 9.61378e-18 -1.07863e-18)
(0.300006 9.21098e-18 5.56949e-18)
(0.300006 1.03166e-17 -5.20098e-19)
(0.310301 9.6265e-18 7.11548e-18)
(0.310301 1.08206e-17 8.18255e-20)
(0.320527 1.02289e-17 8.64426e-18)
(0.320527 1.15207e-17 7.24359e-19)
(0.330665 1.08381e-17 1.01895e-17)
(0.330665 1.27195e-17 1.40305e-18)
(0.340698 1.14549e-17 1.17399e-17)
(0.340698 1.33153e-17 2.1194e-18)
(0.350609 1.19312e-17 1.32789e-17)
(0.350609 1.42389e-17 2.86857e-18)
(0.360387 1.24709e-17 1.48088e-17)
(0.360387 1.57746e-17 3.65359e-18)
(0.370018 1.30762e-17 1.63418e-17)
(0.370018 1.63764e-17 4.47177e-18)
(0.379493 1.40558e-17 1.78376e-17)
(0.379493 1.67026e-17 5.31556e-18)
(0.388805 1.53446e-17 1.93367e-17)
(0.388805 1.67719e-17 6.18571e-18)
(0.397947 1.57966e-17 2.08398e-17)
(0.397947 1.77924e-17 7.08265e-18)
(0.406917 1.6075e-17 2.23486e-17)
(0.406917 1.91796e-17 8.00285e-18)
(0.415711 1.65526e-17 2.38133e-17)
(0.415711 1.92783e-17 8.94518e-18)
(0.42433 1.71963e-17 2.52698e-17)
(0.42433 2.0334e-17 9.91343e-18)
(0.432772 1.81063e-17 2.67219e-17)
(0.432772 2.17197e-17 1.09109e-17)
(0.44104 1.88219e-17 2.81673e-17)
(0.44104 2.22162e-17 1.19402e-17)
(0.449135 1.95844e-17 2.96146e-17)
(0.449135 2.3043e-17 1.29939e-17)
(0.457061 2.12313e-17 3.10181e-17)
(0.457061 2.45976e-17 1.40762e-17)
(0.464821 2.27008e-17 3.246e-17)
(0.464821 2.50726e-17 1.52001e-17)
(0.472418 2.32099e-17 3.39099e-17)
(0.472418 2.54707e-17 1.6351e-17)
(0.479858 2.37746e-17 3.45881e-17)
(0.479858 2.70277e-17 1.75361e-17)
(0.487143 2.44635e-17 3.48474e-17)
(0.487143 2.79768e-17 1.87582e-17)
(0.49428 2.48939e-17 3.50972e-17)
(0.49428 2.9626e-17 2.0021e-17)
(0.501271 2.492e-17 3.53477e-17)
(0.501271 3.17349e-17 2.13302e-17)
(0.508124 2.5291e-17 3.56002e-17)
(0.508124 3.29047e-17 2.26876e-17)
(0.51484 2.62657e-17 3.58405e-17)
(0.51484 3.36977e-17 2.40946e-17)
(0.521427 2.66299e-17 3.60712e-17)
(0.521427 3.48587e-17 2.55631e-17)
(0.527887 2.76385e-17 3.62973e-17)
(0.527887 3.67077e-17 2.70903e-17)
(0.534227 2.78648e-17 3.65276e-17)
(0.534227 3.85475e-17 2.86762e-17)
(0.540449 2.89361e-17 3.67636e-17)
(0.540449 4.05819e-17 3.03127e-17)
(0.546558 3.02672e-17 3.70096e-17)
(0.546558 4.09582e-17 3.19959e-17)
(0.552559 3.1217e-17 3.72613e-17)
(0.552559 4.17466e-17 3.37323e-17)
(0.558455 3.15332e-17 3.75376e-17)
(0.558455 4.41496e-17 3.55071e-17)
(0.56425 3.22795e-17 3.78498e-17)
(0.56425 4.50222e-17 3.73103e-17)
(0.569948 3.33657e-17 3.8172e-17)
(0.569948 4.4299e-17 3.91461e-17)
(0.575552 3.45176e-17 3.85358e-17)
(0.575552 4.47602e-17 4.10298e-17)
(0.581067 3.5845e-17 3.89283e-17)
(0.581067 4.60557e-17 4.29592e-17)
(0.586495 3.67545e-17 3.9343e-17)
(0.586495 4.73071e-17 4.49281e-17)
(0.591839 3.72768e-17 3.97986e-17)
(0.591839 4.96139e-17 4.69208e-17)
(0.597102 3.73712e-17 4.02955e-17)
(0.597102 5.07468e-17 4.89327e-17)
(0.602288 3.64188e-17 4.08578e-17)
(0.602288 5.24103e-17 5.09463e-17)
(0.6074 3.63736e-17 4.14698e-17)
(0.6074 5.38159e-17 5.29879e-17)
(0.612439 3.68216e-17 4.21153e-17)
(0.612439 5.69809e-17 5.50923e-17)
(0.617408 3.49739e-17 4.27974e-17)
(0.617408 5.94953e-17 5.72571e-17)
(0.622311 3.41211e-17 4.35436e-17)
(0.622311 6.05331e-17 5.94124e-17)
(0.627148 3.50779e-17 4.43337e-17)
(0.627148 6.37674e-17 6.16018e-17)
(0.631924 3.55435e-17 4.51716e-17)
(0.631924 6.55232e-17 6.38619e-17)
(0.636638 3.68106e-17 4.6052e-17)
(0.636638 6.6866e-17 6.61658e-17)
(0.641295 3.72949e-17 4.69253e-17)
(0.641295 6.76016e-17 6.85586e-17)
(0.645895 3.73167e-17 4.78577e-17)
(0.645895 6.80121e-17 7.0968e-17)
(0.650442 3.81692e-17 4.88488e-17)
(0.650442 6.9658e-17 7.33982e-17)
(0.654935 3.87258e-17 4.98802e-17)
(0.654935 7.27717e-17 7.59067e-17)
(0.659378 3.99615e-17 5.09565e-17)
(0.659378 7.38491e-17 7.84738e-17)
(0.663772 3.99397e-17 5.20941e-17)
(0.663772 7.66427e-17 8.10275e-17)
(0.668118 3.81516e-17 5.33292e-17)
(0.668118 8.04703e-17 8.35899e-17)
(0.672418 3.70334e-17 5.46901e-17)
(0.672418 8.17587e-17 8.61667e-17)
(0.676674 3.74055e-17 5.61329e-17)
(0.676674 8.34827e-17 8.87821e-17)
(0.680887 3.8062e-17 5.76243e-17)
(0.680887 8.67381e-17 9.14109e-17)
(0.685058 3.82577e-17 5.91862e-17)
(0.685058 8.88326e-17 9.41221e-17)
(0.689189 3.85585e-17 6.08055e-17)
(0.689189 9.00949e-17 9.6886e-17)
(0.693281 3.92623e-17 6.24852e-17)
(0.693281 9.36341e-17 9.96396e-17)
(0.697335 4.14506e-17 6.42228e-17)
(0.697335 9.56755e-17 1.02533e-16)
(0.701352 4.2268e-17 6.60006e-17)
(0.701352 9.44904e-17 1.05522e-16)
(0.705334 4.10077e-17 6.78384e-17)
(0.705334 9.63455e-17 1.0855e-16)
(0.709281 4.12516e-17 6.97975e-17)
(0.709281 9.89743e-17 1.11601e-16)
(0.713195 4.03786e-17 7.18181e-17)
(0.713195 9.79481e-17 1.14681e-16)
(0.717077 3.9155e-17 7.40272e-17)
(0.717077 1.00665e-16 1.17842e-16)
(0.720927 3.89392e-17 7.63756e-17)
(0.720927 1.03411e-16 1.21091e-16)
(0.724746 3.88335e-17 7.889e-17)
(0.724746 1.01719e-16 1.24396e-16)
(0.728536 4.10543e-17 8.1538e-17)
(0.728536 1.02025e-16 1.27709e-16)
(0.732297 4.18598e-17 8.43093e-17)
(0.732297 1.03827e-16 1.28422e-16)
(0.73603 4.07363e-17 8.72167e-17)
(0.73603 1.02185e-16 1.27801e-16)
(0.739736 4.20516e-17 9.02597e-17)
(0.739736 1.00939e-16 1.26938e-16)
(0.743415 4.26318e-17 9.33615e-17)
(0.743415 1.02583e-16 1.25584e-16)
(0.747069 3.97955e-17 9.66537e-17)
(0.747069 1.03811e-16 1.24297e-16)
(0.750698 3.57163e-17 1.00171e-16)
(0.750698 1.02695e-16 1.23521e-16)
(0.754303 3.46153e-17 1.03922e-16)
(0.754303 1.03833e-16 1.2173e-16)
(0.757884 3.67623e-17 1.07738e-16)
(0.757884 1.05329e-16 1.20192e-16)
(0.761442 3.89042e-17 1.117e-16)
(0.761442 1.03378e-16 1.18413e-16)
(0.764978 3.94795e-17 1.15872e-16)
(0.764978 1.02232e-16 1.17052e-16)
(0.768492 3.94132e-17 1.20199e-16)
(0.768492 1.03932e-16 1.15663e-16)
(0.771985 4.02874e-17 1.2464e-16)
(0.771985 1.06231e-16 1.13492e-16)
(0.775458 3.93794e-17 1.29225e-16)
(0.775458 1.09659e-16 1.12202e-16)
(0.778911 3.67996e-17 1.34031e-16)
(0.778911 1.07861e-16 1.1024e-16)
(0.782344 3.47176e-17 1.38895e-16)
(0.782344 1.06731e-16 1.07395e-16)
(0.785758 3.26062e-17 1.43976e-16)
(0.785758 1.10094e-16 1.04217e-16)
(0.789154 2.8859e-17 1.49143e-16)
(0.789154 1.15125e-16 1.01847e-16)
(0.792532 2.61426e-17 1.54393e-16)
(0.792532 1.18995e-16 1.00665e-16)
(0.795892 2.55184e-17 1.59675e-16)
(0.795892 1.17027e-16 9.82906e-17)
(0.799235 2.56578e-17 1.65248e-16)
(0.799235 1.1175e-16 9.49347e-17)
(0.802561 2.56796e-17 1.70961e-16)
(0.802561 1.10448e-16 9.23276e-17)
(0.805872 2.37981e-17 1.76813e-16)
(0.805872 1.11877e-16 8.90744e-17)
(0.809166 2.32763e-17 1.83039e-16)
(0.809166 1.11148e-16 8.58176e-17)
(0.812445 2.48907e-17 1.89444e-16)
(0.812445 1.12186e-16 8.35401e-17)
(0.815709 2.75621e-17 1.95996e-16)
(0.815709 1.10005e-16 8.14858e-17)
(0.818958 3.05318e-17 2.02696e-16)
(0.818958 1.06491e-16 7.9761e-17)
(0.822193 2.94509e-17 2.09678e-16)
(0.822193 1.07144e-16 7.67559e-17)
(0.825413 2.82387e-17 2.16882e-16)
(0.825413 1.08419e-16 7.49594e-17)
(0.82862 3.04162e-17 2.16699e-16)
(0.82862 1.05345e-16 7.32307e-17)
(0.831814 2.98457e-17 2.12853e-16)
(0.831814 9.96618e-17 7.19438e-17)
(0.834995 2.36352e-17 2.09089e-16)
(0.834995 9.82562e-17 7.08135e-17)
(0.838163 1.543e-17 2.06035e-16)
(0.838163 1.02203e-16 6.84881e-17)
(0.841318 1.04576e-17 2.03774e-16)
(0.841318 1.03222e-16 6.4922e-17)
(0.844461 7.78198e-18 2.01089e-16)
(0.844461 1.03845e-16 6.18536e-17)
(0.847592 5.01192e-18 1.96797e-16)
(0.847592 1.03093e-16 5.96904e-17)
(0.850712 2.9034e-18 1.94544e-16)
(0.850712 9.68413e-17 5.52907e-17)
(0.85382 8.1151e-19 1.91993e-16)
(0.85382 9.57041e-17 4.96676e-17)
(0.856917 -3.58177e-18 1.89836e-16)
(0.856917 9.49833e-17 4.59217e-17)
(0.860003 -8.12017e-18 1.8793e-16)
(0.860003 8.78184e-17 4.11344e-17)
(0.863078 -9.10821e-18 1.83495e-16)
(0.863078 8.52459e-17 3.66748e-17)
(0.866143 -9.93415e-18 1.79975e-16)
(0.866143 8.15881e-17 3.1009e-17)
(0.869197 -8.07576e-18 1.76808e-16)
(0.869197 7.19304e-17 2.43797e-17)
(0.872241 -1.12485e-17 1.72233e-16)
(0.872241 6.66977e-17 2.01103e-17)
(0.875276 -1.81503e-17 1.69838e-16)
(0.875276 6.19031e-17 1.4203e-17)
(0.8783 -1.6509e-17 1.67186e-16)
(0.8783 6.32927e-17 8.15977e-18)
(0.881315 -2.05248e-17 1.63121e-16)
(0.881315 5.68175e-17 1.99513e-18)
(0.884321 -3.28081e-17 1.60001e-16)
(0.884321 5.12452e-17 -8.25936e-18)
(0.887317 -3.70127e-17 1.57122e-16)
(0.887317 5.78217e-17 -1.97114e-17)
(0.890305 -3.91046e-17 1.54262e-16)
(0.890305 5.60485e-17 -2.86635e-17)
(0.893283 -3.93791e-17 1.46469e-16)
(0.893283 5.38858e-17 -3.51785e-17)
(0.896253 -3.53176e-17 1.38872e-16)
(0.896253 4.93777e-17 -3.66931e-17)
(0.899214 -4.45151e-17 1.32756e-16)
(0.899214 4.74406e-17 -4.29759e-17)
(0.902166 -5.59101e-17 1.26047e-16)
(0.902166 5.23349e-17 -4.87508e-17)
(0.90511 -5.71762e-17 1.21848e-16)
(0.90511 4.61006e-17 -4.92301e-17)
(0.908045 -5.80847e-17 1.1649e-16)