/*--------------------------------*- C++ -*----------------------------------*\
| =========                 |                                                 |
| \\      /  F ield         | OpenFOAM: The Open Source CFD Toolbox           |
|  \\    /   O peration     | Version:  2106                                  |
|   \\  /    A nd           | Website:  www.openfoam.com                      |
|    \\/     M anipulation  |                                                 |
\*---------------------------------------------------------------------------*/
FoamFile
{
    version     2.0;
    format      ascii;
    arch        "LSB;label=32;scalar=64";
    class       volTensorField;
    location    "10040";
    object      grad(U);
}
// * * * * * * * * * * * * * * * * * * * * * * * * * * * * * * * * * * * * * //

dimensions      [0 0 -1 0 0 0 0];

internalField   nonuniform List<tensor> 
2000
(
(0 -2.25098e-25 -1.8584e-27 10.5608 -2.28717e-12 -1.26531e-13 0.019546 -2.11466e-15 -7.95017e-17)
(0 -2.04069e-28 -5.31714e-27 10.5608 0 -2.14595e-14 0.019546 -5.10172e-29 -1.9854e-17)
(0 0 4.83866e-31 10.5589 0 -4.11843e-14 0.0589956 0 -1.5528e-16)
(0 -1.91553e-29 -3.99069e-31 10.5589 -3.00884e-15 -4.80524e-14 0.0589956 -6.81239e-18 -1.92373e-16)
(2.5162e-17 -3.13405e-30 -4.89428e-32 10.5569 2.97814e-12 -1.9421e-14 0.0818417 -1.59554e-14 -1.4297e-16)
(-2.75674e-17 6.26809e-30 1.95878e-31 10.5569 -2.5881e-15 -3.74762e-15 0.0818417 -1.13845e-17 -1.99479e-16)
(-7.87445e-18 -1.16625e-26 -2.36037e-31 10.5549 6.05921e-28 -1.87503e-14 0.0833536 0 -1.50537e-16)
(3.14978e-17 6.15323e-30 2.88433e-31 10.5549 -3.10573e-15 -3.76186e-15 0.0833536 -1.81878e-17 -2.0675e-16)
(0 9.06071e-30 1.88765e-31 10.5529 6.44249e-14 -1.94877e-14 0.0848933 -1.1719e-15 -1.60223e-16)
(0 -3.02024e-30 0 10.5529 -3.1245e-15 -3.77271e-15 0.0848933 -2.50935e-17 -2.14177e-16)
(0 1.48245e-29 7.41223e-31 10.5508 -1.90668e-14 -2.02088e-14 0.0864611 -1.5245e-16 -1.68029e-16)
(-7.64707e-17 -1.48245e-29 -7.41223e-31 10.5508 -3.17073e-15 -3.78138e-15 0.0864611 -3.22766e-17 -2.21763e-16)
(5.12031e-17 -4.82666e-28 -1.8191e-31 10.5488 -1.16278e-27 -2.07525e-14 0.0880577 0 -1.75339e-16)
(9.95822e-17 5.82112e-30 0 10.5488 -3.18894e-15 -3.78743e-15 0.0880577 -3.97534e-17 -2.29504e-16)
(0 0 0 10.5467 5.46339e-15 -2.12573e-14 0.0896836 -3.64098e-17 -1.82946e-16)
(2.46241e-16 5.71445e-30 1.78577e-31 10.5467 -3.20226e-15 -3.79093e-15 0.0896836 -4.744e-17 -2.37398e-16)
(-3.67734e-17 2.39294e-30 -1.02187e-31 10.5446 5.77694e-15 -2.17711e-14 0.0913391 -5.58356e-17 -1.90849e-16)
(0 2.80487e-30 1.75304e-31 10.5446 -3.20681e-15 -3.79231e-15 0.0913391 -5.52841e-17 -2.4544e-16)
(0 -8.26041e-30 -3.44184e-31 10.5424 4.8794e-15 -2.22914e-14 0.093025 -4.32143e-17 -1.99023e-16)
(0 8.26041e-30 3.44184e-31 10.5424 -3.18528e-15 -3.79138e-15 0.093025 -6.33056e-17 -2.53639e-16)
(1.90208e-16 -2.43271e-29 -1.01363e-30 10.5402 4.93225e-15 -1.83946e-14 0.0947417 -4.20985e-17 -1.2798e-16)
(0 2.43271e-29 1.01363e-30 10.5402 -3.18475e-15 -3.78681e-15 0.0947417 -7.13338e-17 -2.61984e-16)
(5.54255e-17 5.56924e-30 6.24418e-32 10.538 5.22102e-15 -1.19943e-14 0.0964898 -4.57929e-17 -8.93021e-17)
(2.21702e-16 -5.30696e-30 0 10.538 -3.16195e-15 -3.77984e-15 0.0964898 -7.96109e-17 -2.70463e-16)
(0 2.60486e-30 -3.25607e-31 10.5358 5.40394e-15 -9.86591e-15 0.0982697 -4.89736e-17 -9.30947e-17)
(0 -2.60486e-30 3.25607e-31 10.5358 -3.16455e-15 -3.7718e-15 0.0982697 -8.82179e-17 -2.79082e-16)
(-1.58412e-16 2.02879e-29 1.06631e-30 10.5335 5.45316e-15 -1.01043e-14 0.100082 -5.09309e-17 -9.71972e-17)
(0 -1.53427e-29 -7.99102e-31 10.5335 -3.16515e-15 -3.75993e-15 0.100082 -9.71527e-17 -2.87843e-16)
(-1.63452e-16 1.49379e-29 5.80205e-31 10.5311 5.35965e-15 -1.03575e-14 0.101928 -5.17544e-17 -1.01504e-16)
(0 -7.5308e-30 0 10.5311 -3.09895e-15 -3.74509e-15 0.101928 -1.06169e-16 -2.96727e-16)
(3.42052e-16 -9.7782e-30 -8.81878e-31 10.5288 5.21014e-15 -1.06124e-14 0.103807 -5.104e-17 -1.05887e-16)
(-5.01173e-16 7.3928e-30 4.6205e-31 10.5288 -3.05354e-15 -3.72863e-15 0.103807 -1.15035e-16 -3.05741e-16)
(8.51149e-17 -7.25733e-30 -3.02389e-31 10.5264 5.21716e-15 -1.08725e-14 0.10572 -5.0756e-17 -1.10556e-16)
(0 9.67644e-30 3.02389e-31 10.5264 -3.047e-15 -3.70868e-15 0.10572 -1.24035e-16 -3.14878e-16)
(1.91889e-16 -2.37634e-29 -1.1238e-30 10.5239 5.35679e-15 -1.11522e-14 0.107668 -5.31044e-17 -1.156e-16)
(3.83778e-16 1.66235e-29 5.93695e-31 10.5239 -3.0804e-15 -3.68449e-15 0.107668 -1.33213e-16 -3.24126e-16)
(-1.0314e-16 7.04338e-30 1.19224e-31 10.5214 5.38565e-15 -1.14475e-14 0.109652 -5.55259e-17 -1.20877e-16)
(-1.64048e-16 -2.33126e-30 0 10.5214 -3.11882e-15 -3.6571e-15 0.109652 -1.42351e-16 -3.33483e-16)
(2.7151e-16 -6.95657e-30 -4.0803e-31 10.5189 5.32356e-15 -1.17507e-14 0.111671 -5.57071e-17 -1.26394e-16)
(2.80832e-16 9.15417e-30 5.72136e-31 10.5189 -3.06458e-15 -3.62573e-15 0.111671 -1.51853e-16 -3.4294e-16)
(-1.17932e-16 2.37806e-30 1.24834e-31 10.5163 5.28906e-15 -1.20666e-14 0.113727 -5.62998e-17 -1.32267e-16)
(9.43455e-16 0 0 10.5163 -3.00946e-15 -3.58917e-15 0.113727 -1.60874e-16 -3.52477e-16)
(0 4.41088e-30 2.7568e-31 10.5136 5.28462e-15 -1.23985e-14 0.115821 -5.706e-17 -1.3847e-16)
(5.02131e-16 0 0 10.5136 -3.06496e-15 -3.5491e-15 0.115821 -1.69892e-16 -3.62085e-16)
(1.5235e-16 -2.16502e-30 -5.41256e-31 10.5109 5.2539e-15 -1.27414e-14 0.117952 -5.83233e-17 -1.44947e-16)
(5.33095e-16 4.33005e-30 2.70628e-31 10.5109 -3.06799e-15 -3.5064e-15 0.117952 -1.79896e-16 -3.71753e-16)
(0 6.37605e-30 5.31338e-31 10.5081 5.14981e-15 -1.30968e-14 0.120122 -5.85206e-17 -1.51816e-16)
(5.64629e-16 -2.12535e-30 0 10.5081 -3.02542e-15 -3.45917e-15 0.120122 -1.89932e-16 -3.81483e-16)
(-1.49186e-16 -1.80054e-30 -1.22865e-31 10.5053 4.99365e-15 -1.34667e-14 0.122331 -5.81411e-17 -1.59023e-16)
(0 8.34562e-30 5.21601e-31 10.5053 -2.8397e-15 -3.48667e-15 0.122331 -2.00432e-16 -3.91235e-16)
(2.88255e-16 -1.43372e-29 -1.28011e-30 10.5024 4.89796e-15 -1.38448e-14 0.124579 -5.70883e-17 -1.66508e-16)
(3.41194e-16 1.43372e-29 1.28011e-30 10.5024 -2.65029e-15 -4.13332e-15 0.124579 -2.10676e-16 -4.01472e-16)
(1.17284e-16 -5.67311e-30 -6.08377e-31 10.4994 5.02464e-15 -1.42341e-14 0.126869 -5.80615e-17 -1.74425e-16)
(0 1.00532e-29 5.0266e-31 10.4994 -2.78381e-15 -4.75674e-15 0.126869 -2.20715e-16 -4.15439e-16)
(-1.74169e-16 2.3673e-30 1.49742e-31 10.4964 5.36855e-15 -1.46448e-14 0.129199 -6.23015e-17 -1.82893e-16)
(0 3.94759e-30 2.46724e-31 10.4964 -2.87398e-15 -4.81126e-15 0.129199 -2.31683e-16 -4.26621e-16)
(-2.72697e-16 5.81288e-30 2.42203e-31 10.4933 5.50285e-15 -1.50766e-14 0.131571 -6.87168e-17 -1.91829e-16)
(0 -1.93763e-30 -2.42203e-31 10.4933 -2.93227e-15 -4.8622e-15 0.131571 -2.42885e-16 -4.36842e-16)
(-7.26998e-16 2.51885e-29 1.82303e-30 10.4901 5.33573e-15 -1.55302e-14 0.133986 -6.80175e-17 -2.01373e-16)
(-4.98696e-16 -1.90212e-29 -1.18882e-30 10.4901 -2.86636e-15 -4.90936e-15 0.133986 -2.5498e-16 -4.47067e-16)
(2.00555e-16 1.37294e-30 -1.63564e-31 10.4868 5.23371e-15 -1.59912e-14 0.136444 -6.70365e-17 -2.11058e-16)
(8.0222e-16 -3.73453e-30 0 10.4868 -2.53404e-15 -4.95511e-15 0.136444 -2.66269e-16 -4.572e-16)
(0 7.33219e-30 4.58262e-31 10.4834 5.02236e-15 -1.64574e-14 0.138945 -6.79251e-17 -2.21319e-16)
(0 -3.66609e-30 0 10.4834 -2.51571e-15 -5.00489e-15 0.138945 -2.75938e-16 -4.67287e-16)
(-4.72215e-16 5.95775e-30 6.2399e-31 10.4799 4.86303e-15 -1.69447e-14 0.141491 -6.39595e-17 -2.32172e-16)
(2.53251e-16 -3.59891e-30 -4.49864e-31 10.4799 -2.78431e-15 -5.0556e-15 0.141491 -2.86824e-16 -4.77297e-16)
(-2.28422e-16 -4.70895e-30 1.79833e-31 10.4764 5.00943e-15 -1.74543e-14 0.144082 -6.61815e-17 -2.43678e-16)
(0 7.06593e-30 4.41621e-31 10.4764 -2.77895e-15 -5.1088e-15 0.144082 -2.99061e-16 -4.87188e-16)
(0 -1.73411e-29 -1.30058e-30 10.4727 5.08787e-15 -1.79812e-14 0.146719 -7.03974e-17 -2.55688e-16)
(9.52214e-16 1.73411e-29 1.30058e-30 10.4727 -2.61e-15 -5.15673e-15 0.146719 -3.10557e-16 -4.96966e-16)
(0 6.80934e-30 8.51168e-31 10.4688 5.03149e-15 -1.63752e-14 0.149403 -7.08734e-17 -2.07013e-16)
(-2.39582e-16 -3.40467e-30 0 10.4688 -2.58732e-15 -5.20028e-15 0.149403 -3.22463e-16 -5.06597e-16)
(2.5785e-16 9.91191e-31 -3.85499e-28 10.4649 4.90236e-15 -6.62643e-29 0.152133 -7.14407e-17 0)
(1.0314e-15 -3.34228e-30 0 10.4649 -2.47502e-15 -5.24246e-15 0.152133 -3.34569e-16 -5.16056e-16)
(-2.68021e-16 -1.07746e-29 -5.87994e-31 10.4608 4.67874e-15 1.21102e-15 0.154911 -6.97888e-17 -1.70447e-17)
(1.07208e-15 1.31241e-29 8.20259e-31 10.4608 -2.4855e-15 -5.27992e-15 0.154911 -3.45538e-16 -5.25301e-16)
(1.74925e-16 -1.05354e-29 -1.71911e-31 10.4566 4.64752e-15 1.28828e-15 0.157738 -6.75085e-17 -1.85115e-17)
(-4.53303e-16 1.93255e-29 8.05228e-31 10.4566 -2.68376e-15 -5.33341e-15 0.157738 -3.59386e-16 -5.34256e-16)
(0 1.58094e-29 1.58094e-30 10.4521 4.70862e-15 1.35221e-15 0.160613 -7.14766e-17 -2.00185e-17)
(1.1557e-15 -1.58094e-29 -1.58094e-30 10.4521 -2.52298e-15 -5.38748e-15 0.160613 -3.73792e-16 -5.43101e-16)
(-5.99325e-16 1.08961e-29 1.61897e-30 10.4475 4.65068e-15 1.40004e-15 0.163537 -7.19303e-17 -2.11742e-17)
(1.19865e-15 -3.10395e-30 0 10.4475 -2.31532e-15 -5.43164e-15 0.163537 -3.84436e-16 -5.51635e-16)
(0 -6.09414e-30 -3.80884e-31 10.4427 4.58613e-15 1.43207e-15 0.166512 -7.23558e-17 -2.22707e-17)
(0 9.14121e-30 3.80884e-31 10.4427 -2.30544e-15 -5.47397e-15 0.166512 -3.97718e-16 -5.59887e-16)
(0 -5.98247e-30 -7.47808e-31 10.4377 4.63147e-15 1.46135e-15 0.169537 -7.25817e-17 -2.29937e-17)
(0 8.9737e-30 7.47808e-31 10.4377 -2.31846e-15 -5.50586e-15 0.169537 -4.11351e-16 -5.67774e-16)
(-1.1596e-15 1.11471e-29 5.89681e-31 10.4325 5.01605e-15 1.47726e-15 0.172612 -7.65556e-17 -2.40614e-17)
(-1.33228e-15 -2.93642e-30 0 10.4325 -2.30263e-15 -5.53815e-15 0.172612 -4.24749e-16 -5.75329e-16)
(3.44613e-16 3.43126e-30 1.39251e-31 10.4269 5.02079e-15 1.46125e-15 0.175738 -8.80463e-17 -2.43868e-17)
(1.37845e-15 -2.88261e-30 0 10.4269 -2.14375e-15 -5.56631e-15 0.175738 -4.35425e-16 -5.82467e-16)
(3.56366e-16 1.46456e-29 4.8787e-31 10.4211 4.22871e-15 1.45855e-15 0.178916 -7.96001e-17 -2.44281e-17)
(-1.42546e-15 -1.69787e-29 -7.07447e-31 10.4211 -1.9802e-15 -5.59727e-15 0.178916 -4.43803e-16 -5.8906e-16)
(-3.68333e-16 2.33404e-30 -4.76507e-31 10.4149 3.621e-15 1.45746e-15 0.182145 -6.41584e-17 -2.5213e-17)
(1.47333e-15 2.77793e-30 1.04172e-30 10.4149 -1.66951e-15 -5.65016e-15 0.182145 -4.57079e-16 -5.95165e-16)
(0 -1.36351e-29 -6.81757e-31 10.4084 3.49139e-15 1.41758e-15 0.185425 -6.13369e-17 -2.53105e-17)
(3.04413e-15 1.63622e-29 6.81757e-31 10.4084 -1.19848e-15 -5.66796e-15 0.185425 -4.69829e-16 -6.01048e-16)
(7.69682e-16 -2.10705e-29 -1.21901e-30 10.4015 3.39591e-15 1.37979e-15 0.188757 -6.19563e-17 -2.47418e-17)
(1.19492e-15 1.87394e-29 1.0039e-30 10.4015 -1.33221e-15 -5.65417e-15 0.188757 -4.79458e-16 -6.06211e-16)
(-4.05548e-16 1.02145e-29 5.4217e-31 10.3941 3.40809e-15 1.34615e-15 0.19214 -6.01816e-17 -2.48922e-17)
(-2.36191e-15 -2.628e-30 0 10.3941 -1.87512e-15 -5.68007e-15 0.19214 -4.9094e-16 -6.10613e-16)
(0 -5.15968e-30 -9.67441e-31 10.3862 3.61005e-15 1.29014e-15 0.195573 -6.47414e-17 -2.44297e-17)
(0 5.15968e-30 9.67441e-31 10.3862 -1.77498e-15 -5.71719e-15 0.195573 -5.02814e-16 -6.14392e-16)
(-4.31492e-16 1.24557e-29 1.16089e-30 10.3778 3.44783e-15 1.21499e-15 0.199057 -7.00581e-17 -2.372e-17)
(-7.12854e-16 -5.06514e-30 0 10.3778 -1.19059e-15 -5.70994e-15 0.199057 -5.11138e-16 -6.17499e-16)
(6.99792e-16 -4.97232e-30 -6.2154e-31 10.3688 2.9013e-15 1.16237e-15 0.202589 -6.09556e-17 -2.24663e-17)
(-6.99792e-16 7.45848e-30 6.2154e-31 10.3688 -1.01221e-15 -5.71678e-15 0.202589 -5.21118e-16 -6.19559e-16)
(0 9.7624e-30 6.1015e-31 10.359 2.84619e-15 1.11578e-15 0.20617 -5.13315e-17 -2.25566e-17)
(-1.8335e-15 -1.2203e-29 -6.1015e-31 10.359 -1.29331e-15 -5.7297e-15 0.20617 -5.33019e-16 -6.21112e-16)
(-8.76583e-16 7.2615e-30 9.90056e-31 10.3485 3.20833e-15 1.0357e-15 0.209798 -6.1058e-17 -2.14575e-17)
(0 -4.79176e-30 0 10.3485 -1.39364e-15 -5.7084e-15 0.209798 -5.44119e-16 -6.21722e-16)
(-4.86225e-16 -2.38438e-30 2.06998e-31 10.3372 2.8733e-15 9.47393e-16 0.21347 -6.79569e-17 -2.0158e-17)
(0 9.4079e-30 5.87994e-31 10.3372 -9.72269e-16 -5.70599e-15 0.21347 -5.55843e-16 -6.2139e-16)
(-3.51152e-16 -9.21107e-30 -7.41928e-31 10.3249 2.51534e-15 8.45306e-16 0.217186 -4.95134e-17 -1.86167e-17)
(2.00209e-15 9.2355e-30 5.77219e-31 10.3249 -5.16328e-16 -5.70553e-15 0.217186 -5.61363e-16 -6.20141e-16)
(-5.1507e-16 2.31882e-30 2.05672e-31 10.3116 2.80971e-15 7.33376e-16 0.220942 -5.5449e-17 -1.66201e-17)
(0 0 0 10.3116 -8.51258e-16 -5.67841e-15 0.220942 -5.66818e-16 -6.17799e-16)
(-1.05975e-15 2.24322e-29 9.6671e-31 10.2971 3.05422e-15 6.30173e-16 0.224737 -6.40024e-17 -1.45184e-17)
(-2.1195e-15 -1.78003e-29 -5.56258e-31 10.2971 -1.38303e-15 -5.64914e-15 0.224737 -5.79745e-16 -6.14189e-16)
(5.44938e-16 8.60791e-30 -2.04828e-31 10.2813 3.35045e-15 5.25939e-16 0.228566 -6.82195e-17 -1.27382e-17)
(-2.17975e-15 -1.31056e-29 0 10.2813 -1.53895e-15 -5.62436e-15 0.228566 -5.93341e-16 -6.0957e-16)
(-6.03548e-16 6.4327e-30 5.36058e-31 10.2641 3.30295e-15 3.90574e-16 0.232425 -7.95956e-17 -1.04273e-17)
(0 0 0 10.2641 -1.03312e-15 -5.59441e-15 0.232425 -6.08157e-16 -6.03848e-16)
(-1.1517e-15 -3.80136e-30 -1.16805e-31 10.2453 2.70302e-15 2.14261e-16 0.236311 -6.8637e-17 -7.08228e-18)
(4.6068e-15 6.31482e-30 5.26235e-31 10.2453 -4.74593e-16 -5.56468e-15 0.236311 -6.16479e-16 -5.97168e-16)
(-5.91706e-16 1.26416e-29 7.21729e-31 10.2248 2.37154e-15 4.34199e-17 0.240219 -5.48932e-17 -2.679e-18)
(2.36682e-15 -1.03318e-29 -5.16592e-31 10.2248 -1.00502e-15 -5.4974e-15 0.240219 -6.23383e-16 -5.89183e-16)
(0 -6.08551e-30 0 10.2024 2.55233e-15 -9.11437e-17 0.244142 -5.56316e-17 -3.66764e-18)
(0 8.11401e-30 0 10.2024 -1.14481e-15 -5.42902e-15 0.244142 -6.32682e-16 -5.79297e-16)
(-1.18473e-15 4.29644e-30 7.02302e-31 10.1779 2.73516e-15 -2.49938e-16 0.248075 -6.56242e-17 -8.46318e-18)
(2.4969e-15 1.99133e-30 0 10.1779 -7.40478e-16 -5.36899e-15 0.248075 -6.4167e-16 -5.68151e-16)
(0 3.90968e-30 4.8871e-31 10.1511 2.10054e-15 -4.30821e-16 0.25201 -6.66521e-17 -1.27994e-17)
(-5.50239e-16 0 4.8871e-31 10.1511 -6.80778e-16 -5.25462e-15 0.25201 -6.50746e-16 -5.55627e-16)
(-6.57834e-16 9.98282e-30 2.04523e-31 10.1218 1.46584e-15 -5.55768e-16 0.25594 -3.65435e-17 -1.51105e-17)
(0 -3.83804e-30 0 10.1218 -5.23129e-16 -5.16087e-15 0.25594 -6.5451e-16 -5.41197e-16)
(0 9.41926e-30 4.70963e-31 10.0898 1.75146e-15 -6.90904e-16 0.259856 -3.70167e-17 -2.02539e-17)
(0 -5.65156e-30 0 10.0898 -5.78302e-16 -5.12291e-15 0.259856 -6.59854e-16 -5.25122e-16)
(0 -1.84933e-29 0 10.0549 1.88581e-15 -8.80556e-16 0.263749 -5.26567e-17 -2.56474e-17)
(2.77016e-15 1.84933e-29 0 10.0549 -9.08059e-16 -5.02954e-15 0.263749 -6.73445e-16 -5.07658e-16)
(0 1.81544e-29 0 10.0168 1.40297e-15 -1.0755e-15 0.267608 -4.54725e-17 -3.14542e-17)
(0 -1.81544e-29 0 10.0168 -1.18051e-15 -4.88554e-15 0.267608 -6.85277e-16 -4.88525e-16)
(-7.28346e-16 2.30481e-30 2.06094e-31 9.97529 1.54275e-15 -1.30618e-15 0.271423 -2.87907e-17 -3.91944e-17)
(2.91338e-15 3.56435e-30 0 9.97529 -8.5089e-16 -4.7198e-15 0.271423 -7.02156e-16 -4.68237e-16)
(0 -1.74952e-29 -8.74759e-31 9.93011 2.14186e-15 -5.24072e-15 0.275182 -5.48094e-17 -2.51225e-16)
(2.98663e-15 1.74952e-29 8.74759e-31 9.93011 -4.67518e-16 -4.52768e-15 0.275182 -7.1882e-16 -4.45362e-16)
(-1.73208e-15 1.94718e-29 1.03399e-30 9.88104 1.7158e-15 -1.05885e-14 0.278873 -6.31592e-17 -3.43317e-16)
(-2.09412e-15 -1.71746e-29 -8.58729e-31 9.88104 -8.67628e-16 -4.32567e-15 0.278873 -7.25433e-16 -4.1946e-16)
(9.49126e-16 -6.74395e-30 -4.21497e-31 9.82781 8.04858e-16 -1.21788e-14 0.282483 -3.27634e-17 -3.52369e-16)
(-3.13636e-15 1.01159e-29 4.21497e-31 9.82781 -3.50264e-16 -4.14415e-15 0.282483 -7.3824e-16 -3.91424e-16)
(-1.60641e-15 1.2986e-30 3.96236e-31 9.77021 4.74365e-16 -1.23431e-14 0.285999 -1.30242e-17 -3.65905e-16)
(3.21281e-15 3.31018e-30 0 9.77021 3.50878e-16 -8.24542e-15 0.285999 -7.37426e-16 -3.61944e-16)
(-1.64515e-15 7.85797e-30 4.031e-31 9.70801 9.84663e-16 -1.2569e-14 0.289407 -1.45898e-17 -3.79157e-16)
(0 -3.24953e-30 0 9.70801 -5.28933e-18 -1.35741e-14 0.289407 -7.49346e-16 -3.93794e-16)
(0 -9.56994e-30 -7.97495e-31 9.64099 2.28084e-15 -1.2801e-14 0.292692 -4.41908e-17 -3.93831e-16)
(3.3688e-15 9.56994e-30 7.97495e-31 9.64099 -5.18286e-16 -1.46399e-14 0.292692 -7.53511e-16 -4.44207e-16)
(-1.74352e-15 1.79468e-29 9.8583e-31 9.56898 2.98227e-15 -1.30662e-14 0.295842 -9.39738e-17 -4.09909e-16)
(-3.44829e-15 -1.25261e-29 0 9.56898 -1.14441e-15 -1.44682e-14 0.295842 -7.63533e-16 -4.93647e-16)
(8.82186e-16 -1.15091e-29 -2.05029e-31 9.49179 1.8035e-15 -1.32419e-14 0.298841 -8.93977e-17 -4.19782e-16)
(0 9.22242e-30 0 9.49179 -7.04688e-16 -1.42086e-14 0.298841 -7.9054e-16 -5.42199e-16)
(1.75197e-15 -1.13484e-29 -2.07871e-31 9.40931 6.75716e-17 -1.32456e-14 0.301677 -2.29765e-17 -4.25593e-16)
(-4.45955e-15 9.05342e-30 0 9.40931 -2.81285e-18 -1.39738e-14 0.301677 -7.83815e-16 -5.90578e-16)
(-1.84618e-15 8.26766e-44 4.20147e-31 9.32142 2.87454e-28 -1.32364e-14 0.304335 3.15544e-30 -4.34992e-16)
(-8.33871e-16 -2.96251e-30 0 9.32142 1.94009e-16 -1.38006e-14 0.304335 -7.86709e-16 -6.41172e-16)
(0 4.28846e-30 0 9.22806 4.52349e-16 -1.32499e-14 0.306804 -7.48905e-18 -4.42532e-16)
(0 -8.72466e-30 -7.27055e-31 9.22806 2.60307e-16 -1.3456e-14 0.306804 -7.80273e-16 -6.91242e-16)
(9.64841e-16 3.41605e-30 1.21124e-30 9.12921 1.50043e-16 -1.31303e-14 0.309072 -2.66684e-17 -4.43243e-16)
(-7.71873e-15 -5.70985e-30 0 9.12921 5.16461e-17 -1.31165e-14 0.309072 -7.76594e-16 -7.38787e-16)
(9.86002e-16 -1.06976e-29 -2.20169e-31 9.02488 -1.0695e-15 -1.2881e-14 0.311129 -5.69147e-17 -4.41914e-16)
(0 8.40784e-30 0 9.02488 5.94014e-16 -1.28879e-14 0.311129 -7.85876e-16 -7.8804e-16)
(1.54882e-15 -1.37563e-29 -6.87814e-31 8.91514 -1.65906e-15 -1.26644e-14 0.312965 -5.92443e-17 -4.44643e-16)
(2.48053e-15 1.37563e-29 6.87814e-31 8.91514 8.5834e-16 -1.25962e-14 0.312965 -7.81107e-16 -8.39918e-16)
(1.02883e-15 -4.98934e-30 -1.57695e-30 8.8001 -1.93694e-15 -1.25032e-14 0.314573 -7.90592e-17 -4.46965e-16)
(4.11532e-15 5.40168e-30 0 8.8001 -1.98755e-16 -1.2087e-14 0.314573 -7.82369e-16 -8.93089e-16)
(-6.08357e-16 -1.39804e-29 -2.19046e-30 8.67992 -2.15293e-15 -1.22395e-14 0.315946 -7.73125e-17 -4.4206e-16)
(0 1.59081e-29 0 8.67992 -1.08615e-15 -1.15276e-14 0.315946 -7.97693e-16 -9.42988e-16)
(-6.7924e-16 -7.02367e-30 4.66306e-31 8.55479 -1.24443e-28 -1.2008e-14 0.317081 0 -4.46524e-16)
(4.28893e-15 1.56166e-29 0 8.55479 -6.15185e-16 -1.11276e-14 0.317081 -8.01592e-16 -9.92685e-16)
(1.09411e-15 -2.57669e-29 -2.36065e-31 8.42497 6.0102e-16 -1.18903e-14 0.317975 -1.13257e-17 -4.49757e-16)
(8.75288e-15 1.78855e-29 0 8.42497 -9.98977e-16 -1.07087e-14 0.317975 -7.93059e-16 -1.04283e-15)
(2.95933e-16 -2.17974e-31 -1.01452e-30 8.29075 1.53328e-15 -1.17056e-14 0.318627 -6.30218e-17 -4.49038e-16)
(-1.41202e-15 7.52474e-30 1.25412e-30 8.29075 -2.91766e-15 -1.02814e-14 0.318627 -8.10866e-16 -1.0913e-15)
(-2.27627e-15 4.57958e-30 4.85414e-31 8.15244 1.71819e-15 -1.15189e-14 0.319038 -5.46319e-17 -4.51968e-16)
(4.55254e-15 0 0 8.15244 -3.05902e-15 -9.85166e-15 0.319038 -8.50305e-16 -1.13971e-15)
(-1.16025e-15 4.6999e-30 2.45864e-31 8.0104 2.17208e-15 -1.1391e-14 0.319211 -7.99947e-17 -4.55673e-16)
(4.641e-15 2.41716e-30 0 8.0104 -2.23732e-15 -9.30493e-15 0.319211 -8.59245e-16 -1.18656e-15)
(-1.33581e-15 9.49148e-30 1.18643e-30 7.86502 1.64772e-15 -1.11184e-14 0.31915 -9.31925e-17 -4.46668e-16)
(0 -2.37287e-30 0 7.86502 -1.4155e-15 -8.81417e-15 0.31915 -8.7797e-16 -1.23038e-15)
(2.51592e-15 -1.16032e-29 -2.56807e-31 7.71669 1.00142e-15 -1.06114e-14 0.318861 -4.00524e-17 -4.30533e-16)
(3.50704e-15 9.31755e-30 0 7.71669 -3.87112e-16 -8.42701e-15 0.318861 -9.02477e-16 -1.27483e-15)
(1.22679e-15 -1.37163e-29 -1.40373e-30 7.56584 7.64651e-16 -1.02079e-14 0.318353 -4.27702e-17 -4.29195e-16)
(4.90716e-15 1.14335e-29 1.14335e-30 7.56584 -8.86754e-16 -7.92646e-15 0.318353 -8.90013e-16 -1.32115e-15)
(-1.24898e-15 2.28365e-30 2.64812e-31 7.4129 4.80244e-16 -9.92366e-15 0.317633 -2.14338e-17 -4.22142e-16)
(4.99592e-15 2.2448e-30 0 7.4129 -2.23919e-15 -7.38123e-15 0.317633 -8.79099e-16 -1.36469e-15)
(1.27115e-15 -1.3301e-29 -2.68509e-31 7.2583 7.90344e-16 -9.63516e-15 0.316711 -1.97533e-17 -4.19919e-16)
(0 1.10183e-29 0 7.2583 -2.87034e-15 -6.86644e-15 0.316711 -9.12732e-16 -1.40577e-15)
(-2.5111e-15 1.09299e-29 2.73304e-31 7.10247 1.09053e-15 -9.34486e-15 0.315599 -4.95962e-17 -4.11963e-16)
(5.17311e-15 -4.32656e-30 0 7.10247 -2.95573e-15 -6.3654e-15 0.315599 -9.27669e-16 -1.43505e-15)
(1.31536e-15 -8.64633e-30 -2.78008e-31 6.94583 1.5796e-15 -9.01972e-15 0.314307 -4.74724e-17 -4.0598e-16)
(0 6.37092e-30 0 6.94583 -3.0437e-15 -5.87991e-15 0.314307 -9.33278e-16 -1.46011e-15)
(-2.51096e-15 1.06046e-29 2.82906e-31 6.7888 1.54699e-15 -8.73518e-15 0.312848 -9.62326e-17 -4.00955e-16)
(5.34947e-15 -4.16945e-30 0 6.7888 -1.83857e-15 -5.40318e-15 0.312848 -9.71975e-16 -1.48188e-15)
(1.3593e-15 3.86731e-30 1.75755e-30 6.63176 2.36927e-16 -8.37376e-15 0.311234 -4.62205e-17 -3.86948e-16)
(3.13302e-15 -2.04652e-30 0 6.63176 8.48929e-17 -4.94675e-15 0.311234 -9.63633e-16 -1.50176e-15)
(0 1.4013e-45 0 6.47509 4.56185e-30 -7.79932e-15 0.309478 0 -3.60482e-16)
(5.52456e-15 -4.01804e-30 0 6.47509 -2.04596e-16 -4.40731e-15 0.309478 -9.2968e-16 -1.5233e-15)
(0 -2.87496e-30 0 6.31916 2.47187e-16 -7.09462e-15 0.307592 -6.03466e-18 -3.3207e-16)
(-5.61151e-15 -1.97221e-30 1.97221e-30 6.31916 -1.36328e-15 -4.01734e-15 0.307592 -9.51562e-16 -1.54298e-15)
(0 1.35525e-29 0 6.16428 1.71787e-15 -6.56383e-15 0.305589 -9.44363e-17 -3.20772e-16)
(5.69799e-15 -1.35525e-29 0 6.16428 -1.51003e-15 -3.7604e-15 0.305589 -9.71346e-16 -1.57004e-15)
(6.93878e-16 -1.67517e-29 3.10559e-31 6.01076 1.08034e-15 -6.17728e-15 0.303481 -7.6283e-17 -3.05047e-16)
(0 1.71053e-29 0 6.01076 -1.87975e-15 -3.41913e-15 0.303481 -9.61055e-16 -1.59544e-15)
(-1.46736e-15 -1.47317e-30 3.14662e-31 5.85887 1.06182e-15 -5.73532e-15 0.30128 -3.27891e-17 -2.86813e-16)
(5.86943e-15 7.46305e-30 0 5.85887 -2.68715e-15 -3.13441e-15 0.30128 -9.96225e-16 -1.62333e-15)
(2.06217e-15 -3.66314e-30 -1.83157e-30 5.70888 2.80912e-15 -5.30807e-15 0.298997 -7.72285e-17 -2.71196e-16)
(-2.06217e-15 7.32629e-30 0 5.70888 -3.66855e-15 -2.79742e-15 0.298997 -1.05012e-15 -1.65602e-15)
(0 7.19204e-30 0 5.56099 4.27331e-15 -4.87276e-15 0.296644 -2.1947e-16 -2.50558e-16)
(0 -3.59602e-30 1.79801e-30 5.56099 -3.28585e-15 -2.47855e-15 0.296644 -1.06916e-15 -1.68683e-15)
(3.51786e-15 -1.6332e-29 -3.21435e-31 5.41541 4.08617e-15 -4.5946e-15 0.294231 -2.38439e-16 -2.5078e-16)
(6.12229e-15 1.41205e-29 0 5.41541 -3.00286e-15 -2.11787e-15 0.294231 -1.05932e-15 -1.71782e-15)
(-3.99534e-16 8.18438e-30 4.87548e-30 5.27231 4.55241e-15 -4.53536e-15 0.291768 -2.0713e-16 -2.53353e-16)
(6.20533e-15 -3.46543e-30 0 5.27231 -4.17643e-15 -1.81727e-15 0.291768 -1.1027e-15 -1.74978e-15)
(0 0 0 5.13182 4.23768e-15 -4.53813e-15 0.289264 -2.99731e-16 -2.60547e-16)
(6.2877e-15 3.40193e-30 0 5.13182 -4.30905e-15 -1.70797e-15 0.289264 -1.16446e-15 -1.78528e-15)
(-3.1847e-15 4.39137e-30 6.51589e-31 4.99409 2.98301e-15 -4.49649e-15 0.286727 -1.78966e-16 -2.58052e-16)
(6.36939e-15 0 0 4.99409 -4.05749e-15 -1.54564e-15 0.286727 -1.20294e-15 -1.81643e-15)
(1.6126e-15 -1.20249e-29 -3.60612e-30 4.85919 2.53335e-15 -4.44361e-15 0.284167 -1.64962e-16 -2.64094e-16)
(6.4504e-15 9.83518e-30 3.27839e-30 4.85919 -4.00729e-15 -1.07063e-15 0.284167 -1.25364e-15 -1.84685e-15)
(-1.81175e-15 9.65496e-30 0 4.72722 1.12306e-15 -4.14601e-15 0.281589 -1.32386e-16 -2.31825e-16)
(-4.71895e-15 -9.65496e-30 0 4.72722 -2.65679e-15 -5.1212e-16 0.281589 -1.30568e-15 -1.86353e-15)
(0 -5.79808e-30 0 4.59824 2.66088e-17 -3.44735e-15 0.279002 -8.11032e-19 -1.88071e-16)
(0 -3.15934e-30 0 4.59824 -1.10334e-15 -5.14149e-16 0.279002 -1.32325e-15 -1.88455e-15)
(-3.34458e-15 1.67726e-29 2.23852e-30 4.47229 1.81322e-15 -3.09418e-15 0.276411 -8.31464e-17 -1.96289e-16)
(0 -1.24058e-29 -1.55073e-30 4.47229 -1.04505e-15 -5.96348e-16 0.276411 -1.31858e-15 -1.91919e-15)
(-3.4058e-15 8.25413e-30 3.46795e-31 4.34939 2.89429e-15 -2.97419e-15 0.273823 -1.42597e-16 -1.79835e-16)
(0 -3.04462e-30 1.52231e-30 4.34939 -1.86644e-15 -4.07793e-16 0.273823 -1.28658e-15 -1.94455e-15)
(-1.68256e-15 1.7933e-29 1.49441e-30 4.22957 4.01341e-15 -2.42242e-15 0.271241 -2.24326e-16 -1.31912e-16)
(-6.84476e-15 -1.49441e-29 0 4.22957 -1.25465e-15 -2.00273e-16 0.271241 -1.29893e-15 -1.96953e-15)
(3.46074e-15 -1.338e-30 7.48038e-31 4.11282 5.04685e-15 -1.69682e-15 0.26867 -2.93545e-16 -9.04651e-17)
(-3.30345e-15 -2.93406e-30 0 4.11282 -1.5494e-15 -1.1358e-16 0.26867 -1.28624e-15 -1.99953e-15)
(2.55811e-16 7.3012e-30 7.28889e-31 3.99913 4.87754e-15 -1.5458e-15 0.266116 -3.69716e-16 -1.16498e-16)
(8.61892e-15 -1.15212e-29 -1.44015e-30 3.99913 -2.92874e-15 -3.12184e-16 0.266116 -1.33214e-15 -2.04485e-15)
(-1.76818e-15 4.93311e-30 3.55678e-31 3.88848 3.44859e-15 -1.63559e-15 0.263581 -2.81752e-16 -1.0622e-16)
(7.07273e-15 0 0 3.88848 -2.97721e-15 -2.34882e-16 0.263581 -1.38627e-15 -2.09576e-15)
(3.57364e-15 1.33806e-30 -7.18571e-31 3.78085 3.45976e-15 -1.20068e-15 0.261068 -1.87168e-16 -5.99713e-17)
(-3.12516e-15 -5.55139e-30 0 3.78085 -3.64289e-15 3.77584e-17 0.261068 -1.42382e-15 -2.13858e-15)
(1.80528e-15 -4.80161e-30 -3.56001e-31 3.67619 4.6518e-15 -8.01143e-16 0.258581 -2.93933e-16 -5.32168e-17)
(7.22112e-15 5.44967e-30 0 3.67619 -4.47176e-15 1.30459e-16 0.258581 -1.49513e-15 -2.18769e-15)
(-1.82357e-15 1.00779e-29 3.5368e-31 3.57448 5.1569e-15 -7.12748e-16 0.256121 -3.64302e-16 -4.93835e-17)
(0 -5.3498e-30 1.33745e-30 3.57448 -3.62543e-15 1.26029e-16 0.256121 -1.571e-15 -2.23427e-15)
(0 2.62588e-30 -1.31294e-30 3.47565 4.01194e-15 -5.88632e-16 0.253692 -3.78423e-16 -3.68459e-17)
(1.47334e-14 2.62588e-30 0 3.47565 -2.8749e-15 1.30587e-16 0.253692 -1.58632e-15 -2.28103e-15)
(-4.76192e-15 -8.25413e-30 3.50676e-31 3.37965 2.26867e-15 -3.9789e-16 0.251295 -2.0851e-16 -2.24763e-17)
(0 1.03111e-29 2.57777e-30 3.37965 -3.7084e-15 1.79564e-16 0.251295 -1.63236e-15 -2.32788e-15)
(0 -1.01221e-29 0 3.28644 2.73095e-15 -2.85526e-16 0.24893 -1.2976e-16 -2.09713e-17)
(1.21699e-14 1.01221e-29 2.53053e-30 3.28644 -3.16127e-15 2.63599e-16 0.24893 -1.70118e-15 -2.38175e-15)
(-1.89497e-15 1.19647e-29 1.93176e-31 3.19594 3.47656e-15 -1.53188e-16 0.246601 -2.8739e-16 -5.93823e-18)
(0 -9.93663e-30 0 3.19594 -4.92522e-15 4.0396e-16 0.246601 -1.68846e-15 -2.42865e-15)
(0 -2.43864e-30 -3.42282e-31 3.1081 2.3744e-15 1.00466e-29 0.244307 -2.51341e-16 0)
(7.64961e-15 4.87727e-30 2.43864e-30 3.1081 -4.50391e-15 5.18536e-16 0.244307 -1.83541e-15 -2.4815e-15)
(1.92967e-15 -1.4007e-29 -2.72491e-30 3.02286 2.10502e-15 6.70601e-16 0.24205 -1.22507e-16 -4.61413e-17)
(1.54373e-14 1.19697e-29 2.39395e-30 3.02286 -2.14989e-15 6.29854e-16 0.24205 -1.87739e-15 -2.53031e-15)
(-1.94677e-15 2.01519e-30 3.25061e-31 2.94015 3.61885e-15 4.94446e-16 0.23983 -2.17064e-16 -6.19041e-17)
(7.78708e-15 2.35008e-30 0 2.94015 -2.86492e-15 9.23281e-16 0.23983 -1.94045e-15 -2.57049e-15)
(-6.33755e-16 4.94206e-30 3.83173e-31 2.8599 4.65575e-15 4.48915e-16 0.237647 -3.77561e-16 -1.8738e-17)
(7.85486e-15 -2.30702e-30 0 2.8599 -3.82645e-15 9.75897e-16 0.237647 -1.97572e-15 -2.60136e-15)
(-3.96101e-15 8.45464e-30 6.21722e-31 2.78205 4.64431e-15 1.0643e-15 0.235503 -3.99984e-16 -9.69953e-17)
(7.92201e-15 0 0 2.78205 -3.6355e-15 1.09894e-15 0.235503 -2.05307e-15 -2.6537e-15)
(0 -2.22324e-30 2.22324e-30 2.70653 4.62246e-15 8.48563e-16 0.233396 -3.89824e-16 -8.38983e-17)
(1.34739e-14 6.66972e-30 2.22324e-30 2.70653 -1.53221e-15 1.02954e-15 0.233396 -2.11927e-15 -2.68542e-15)
(0 2.1825e-30 2.1825e-30 2.63328 4.87095e-15 8.63372e-16 0.231328 -4.11235e-16 -6.29248e-17)
(5.5972e-15 0 0 2.63328 -2.31945e-15 7.65858e-16 0.231328 -2.1194e-15 -2.73091e-15)
(-4.4422e-15 8.36041e-30 2.44124e-30 2.56223 5.24877e-15 1.12085e-15 0.229299 -4.48778e-16 -8.96979e-17)
(0 -2.14251e-30 0 2.56223 -5.624e-15 9.32382e-16 0.229299 -2.15419e-15 -2.77179e-15)
(-3.21906e-16 6.50099e-30 -2.9202e-31 2.49332 5.66208e-15 1.15603e-15 0.227307 -4.95292e-16 -1.12018e-16)
(2.36804e-15 -1.05162e-29 -2.10325e-30 2.49332 -4.48031e-15 1.18279e-15 0.227307 -2.30895e-15 -2.81465e-15)
(0 4.12941e-30 0 2.42648 5.0156e-15 1.15223e-15 0.225353 -5.42088e-16 -9.95812e-17)
(-2.32465e-15 0 0 2.42648 -2.96217e-15 1.43339e-15 0.225353 -2.38216e-15 -2.83435e-15)
(-2.07809e-15 1.20102e-29 2.30891e-30 2.36164 3.33199e-15 1.3943e-15 0.223436 -3.92224e-16 -1.15524e-16)
(0 -1.01343e-29 0 2.36164 -4.36556e-15 1.52472e-15 0.223436 -2.47503e-15 -2.8546e-15)
(-2.09385e-15 9.85642e-30 2.73363e-31 2.29876 2.53428e-15 1.90008e-15 0.221557 -2.39576e-16 -1.49765e-16)
(-1.06156e-14 -3.97946e-30 0 2.29876 -2.90472e-15 1.49705e-15 0.221557 -2.54949e-15 -2.87784e-15)
(-2.10948e-15 -2.01113e-30 2.57795e-31 2.23776 2.80298e-15 2.20764e-15 0.219714 -2.51136e-16 -2.18703e-16)
(1.68758e-14 5.8598e-30 1.95327e-30 2.23776 -1.91886e-15 1.75686e-15 0.219714 -2.53219e-15 -2.92811e-15)
(0 -7.6699e-30 -1.91747e-30 2.17858 3.89566e-15 1.91316e-15 0.217907 -3.02084e-16 -2.16627e-16)
(8.49991e-15 7.6699e-30 1.91747e-30 2.17858 -3.45485e-15 1.94245e-15 0.217907 -2.57726e-15 -2.96312e-15)
(-2.14034e-15 5.60252e-30 2.48127e-31 2.12117 4.71332e-15 1.91458e-15 0.216136 -4.82148e-16 -1.67235e-16)
(8.56137e-15 0 0 2.12117 -3.94724e-15 1.71458e-15 0.216136 -2.72318e-15 -2.98748e-15)
(0 5.54353e-30 0 2.06548 4.2599e-15 2.37954e-15 0.2144 -4.8235e-16 -2.25084e-16)
(6.54184e-15 -1.84784e-30 0 2.06548 -2.90834e-15 1.85796e-15 0.2144 -2.7912e-15 -3.00768e-15)
(-4.21306e-15 -1.80332e-30 -1.59401e-30 2.01144 4.25659e-15 2.35842e-15 0.212699 -4.04918e-16 -2.71362e-16)
(8.68278e-15 7.25593e-30 1.81398e-30 2.01144 -2.64441e-15 2.12688e-15 0.212699 -2.85948e-15 -3.02755e-15)
(0 -1.06845e-29 -1.78074e-30 1.95901 4.40964e-15 1.96622e-15 0.211031 -4.99817e-16 -2.29039e-16)
(8.74274e-15 1.06845e-29 1.78074e-30 1.95901 -3.54328e-15 1.99541e-15 0.211031 -2.95646e-15 -3.03809e-15)