/*--------------------------------*- C++ -*----------------------------------*\
| =========                 |                                                 |
| \\      /  F ield         | OpenFOAM: The Open Source CFD Toolbox           |
|  \\    /   O peration     | Version:  2106                                  |
|   \\  /    A nd           | Website:  www.openfoam.com                      |
|    \\/     M anipulation  |                                                 |
\*---------------------------------------------------------------------------*/
FoamFile
{
    version     2.0;
    format      ascii;
    arch        "LSB;label=32;scalar=64";
    class       volTensorField;
    location    "10040";
    object      grad(U);
}
// * * * * * * * * * * * * * * * * * * * * * * * * * * * * * * * * * * * * * //

dimensions      [0 0 -1 0 0 0 0];

internalField   nonuniform List<tensor> 
800
(
(0 -1.69017e-26 1.0707e-27 13.3705 -2.55597e-40 2.58339e-15 0.0613706 -6.10739e-42 2.31739e-17)
(0 7.86915e-30 -5.12314e-33 13.3705 3.37356e-16 -1.67431e-14 0.0613706 -8.2744e-18 5.0791e-17)
(0 9.38935e-31 5.59526e-28 13.3642 -8.26919e-13 4.40624e-14 0.186976 -2.0763e-15 4.23656e-16)
(0 -6.25957e-31 4.5932e-28 13.3642 2.88953e-15 -1.16341e-14 0.186976 1.36999e-17 9.58573e-18)
(7.81148e-17 -1.49102e-26 8.31526e-29 13.3576 0 -7.88861e-31 0.275433 0 1.97215e-31)
(-3.62777e-17 1.43401e-29 0 13.3576 2.14374e-15 -2.16747e-35 0.275433 2.31812e-17 -6.22327e-44)
(0 0 -1.42587e-31 13.3507 3.89871e-13 5.3918e-15 0.288395 -1.25395e-14 4.36701e-16)
(0 0 1.42587e-31 13.3507 2.63735e-15 1.74901e-14 0.288395 3.93271e-17 1.2762e-16)
(-4.14188e-17 -5.24632e-31 3.42071e-32 13.3435 3.63973e-15 1.77238e-14 0.30196 -4.95106e-16 3.44899e-16)
(0 4.3554e-30 -2.72213e-31 13.3435 2.56088e-15 6.46574e-15 0.30196 5.64962e-17 2.16461e-16)
(0 1.03936e-29 1.62856e-28 13.3359 -1.21261e-14 1.05312e-15 0.316154 -2.04361e-16 1.21964e-17)
(-2.41606e-16 -1.04033e-29 6.496e-31 13.3359 2.47208e-15 -1.39028e-16 0.316154 5.7369e-17 2.35336e-16)
(-8.02781e-17 3.7114e-30 -4.82957e-31 13.328 -5.97067e-15 7.4905e-15 0.331006 -8.25677e-17 3.59396e-16)
(-1.39629e-16 0 1.24015e-31 13.328 2.37176e-15 -1.61542e-16 0.331006 5.77425e-17 2.55419e-16)
(-1.0109e-16 -1.68035e-31 1.57623e-31 13.3196 -3.61223e-15 1.86969e-14 0.346544 -1.01524e-16 5.967e-16)
(0 5.68216e-30 -4.73513e-31 13.3196 2.45127e-15 -1.69972e-16 0.346544 6.71013e-17 2.76731e-16)
(-1.2288e-16 3.53315e-30 -9.80409e-31 13.3108 -4.18205e-15 2.36029e-14 0.362799 -1.2169e-16 6.61961e-16)
(9.83043e-16 7.39878e-32 6.77987e-31 13.3108 2.56942e-15 -1.78458e-16 0.362799 6.98151e-17 2.99495e-16)
(7.28651e-16 -5.17737e-30 8.62896e-31 13.3015 -4.51916e-15 2.49772e-14 0.3798 -1.30681e-16 7.33393e-16)
(-2.42884e-16 1.72579e-30 -6.47172e-31 13.3015 2.15729e-15 -2.15e-16 0.3798 5.00998e-17 3.2353e-16)
(4.63688e-16 -4.94205e-30 2.05919e-31 13.2916 -4.43209e-15 2.64006e-14 0.397579 -1.28344e-16 8.11687e-16)
(-1.14202e-15 4.87383e-30 -2.05919e-31 13.2916 1.80198e-15 -2.51422e-16 0.397579 5.5358e-17 3.48593e-16)
(-1.9459e-16 6.45062e-30 -1.08057e-30 13.281 -4.16712e-15 2.78758e-14 0.416164 -1.2681e-16 8.97383e-16)
(7.78361e-16 -1.49419e-30 3.93119e-31 13.281 1.88719e-15 -2.55126e-16 0.416164 6.0327e-17 3.75073e-16)
(0 6.00402e-30 -1.12575e-30 13.2694 -3.87663e-15 2.9403e-14 0.435584 -1.21777e-16 9.91135e-16)
(8.8309e-16 -4.39609e-30 3.75251e-31 13.2694 1.48966e-15 -2.61997e-16 0.435584 3.46441e-17 4.03038e-16)
(-2.48183e-16 7.47224e-30 -8.49554e-31 13.2567 -3.41166e-15 3.09845e-14 0.455863 -1.07179e-16 1.0937e-15)
(0 -2.86556e-30 3.58196e-31 13.2567 1.10302e-15 -2.90292e-16 0.455863 3.96046e-17 4.3226e-16)
(0 2.73532e-30 -1.02574e-30 13.2423 -3.15631e-15 2.71132e-14 0.477018 -1.15243e-16 8.08705e-16)
(-3.84962e-16 0 3.41915e-31 13.2423 1.06444e-15 -3.31968e-16 0.477018 3.52408e-17 4.62704e-16)
(0 2.611e-30 -1.3055e-30 13.2258 -3.09834e-15 2.22177e-14 0.499058 -1.13252e-16 8.30636e-16)
(0 0 6.52749e-31 13.2258 8.41351e-16 -3.6076e-16 0.499058 2.66187e-17 4.93717e-16)
(0 0 -1.24616e-30 13.2062 -2.78766e-15 2.23312e-14 0.521976 -1.01899e-16 8.96529e-16)
(-7.01526e-16 0 1.24616e-30 13.2062 8.20332e-16 -4.03581e-16 0.521976 3.70138e-17 5.26346e-16)
(-7.42579e-16 5.88666e-30 -1.73745e-30 13.1824 -2.24817e-15 2.29921e-14 0.545744 -7.95799e-17 9.66399e-16)
(-1.48516e-15 -9.75863e-30 1.18952e-30 13.1824 1.56795e-16 -4.93083e-16 0.545744 3.17329e-18 5.59707e-16)
(4.0575e-16 2.7804e-30 -1.40607e-30 13.1528 -1.34873e-15 2.36218e-14 0.570302 -3.3738e-17 1.03861e-15)
(-3.246e-15 -2.75937e-31 0 13.1528 -4.36118e-30 -5.4024e-16 0.570302 0 5.92798e-16)
(-1.05197e-15 1.47641e-29 -4.1159e-30 13.1154 -9.33638e-16 2.42159e-14 0.595548 -4.95813e-17 1.11466e-15)
(6.10152e-16 -1.30062e-29 3.79346e-30 13.1154 -8.94174e-16 -5.51926e-16 0.595548 2.34046e-17 6.2742e-16)
(1.06199e-15 -5.8935e-30 2.42118e-30 13.0673 -1.20133e-15 2.46413e-14 0.621322 -6.25363e-17 1.18042e-15)
(-2.50068e-15 3.9826e-30 -2.06917e-30 13.0673 -1.49009e-15 -6.3141e-16 0.621322 5.6817e-17 6.62259e-16)
(5.55947e-16 -5.92537e-30 1.97512e-30 13.005 -1.13929e-15 2.48025e-14 0.647394 -4.82223e-17 1.23943e-15)
(1.5203e-15 6.06551e-30 -2.4689e-30 13.005 -1.14632e-15 -6.1936e-16 0.647394 8.24735e-17 6.97065e-16)
(-5.60368e-16 -1.22416e-31 -4.14645e-31 12.9242 -6.77928e-16 2.48708e-14 0.673446 -2.03822e-17 1.30265e-15)
(6.72441e-15 2.26726e-30 0 12.9242 -1.05767e-15 -5.64799e-16 0.673446 1.27459e-16 7.33247e-16)
(1.01312e-15 -9.56396e-46 1.79966e-30 12.8196 -3.53112e-30 2.46321e-14 0.699061 -1.57772e-30 1.33412e-15)
(-1.01312e-15 3.59932e-30 -1.79966e-30 12.8196 -2.18462e-15 -7.57436e-16 0.699061 2.74495e-16 7.67871e-16)
(0 0 -8.5893e-31 12.6856 1.15903e-15 2.39198e-14 0.72372 -4.52353e-17 1.3479e-15)
(0 0 8.5893e-31 12.6856 -2.35388e-15 -9.51144e-16 0.72372 3.22524e-16 7.99842e-16)
(6.95641e-16 -1.74431e-30 -2.97525e-31 12.5159 1.61742e-15 2.29603e-14 0.746814 -8.56462e-17 1.34883e-15)
(-9.23115e-16 0 8.19891e-31 12.5159 -2.29447e-15 -9.83104e-16 0.746814 3.08737e-16 8.28343e-16)
(1.76232e-15 -3.1305e-30 1.56525e-30 12.3046 1.6205e-15 2.15428e-14 0.76767 -1.04765e-16 1.30075e-15)
(-1.76232e-15 4.69575e-30 -1.56525e-30 12.3046 -3.53807e-15 -9.65073e-16 0.76767 2.8469e-16 8.52967e-16)
(-7.95346e-16 4.72076e-30 -3.62822e-30 12.0468 2.30696e-15 1.81377e-14 0.785603 -9.43847e-17 1.03096e-15)
(3.18138e-15 -1.49411e-30 2.24116e-30 12.0468 -4.78412e-15 -8.89587e-16 0.785603 2.39934e-16 8.78664e-16)
(-8.47863e-16 -6.8448e-30 3.5964e-30 11.7392 3.54834e-15 1.44296e-14 0.79998 -2.05572e-16 9.14907e-16)
(6.7829e-15 1.14096e-29 -4.99169e-30 11.7392 -4.07223e-15 -8.23177e-16 0.79998 2.0184e-16 9.0117e-16)
(9.01941e-16 1.02878e-30 -1.99414e-30 11.3808 3.76826e-15 1.1734e-14 0.810296 -2.75213e-16 7.41051e-16)
(0 -2.72275e-30 2.72275e-30 11.3808 -4.58577e-15 -7.35492e-16 0.810296 2.00576e-16 9.17039e-16)
(1.46311e-15 -1.2995e-29 6.49749e-30 10.9739 3.34546e-15 9.18508e-15 0.816233 -2.57468e-16 6.17353e-16)
(6.19564e-15 1.2995e-29 -6.49749e-30 10.9739 -4.67588e-15 -8.18112e-16 0.816233 1.05274e-16 9.35788e-16)
(1.01378e-15 -4.16311e-30 7.95968e-31 10.5235 4.10907e-15 6.97422e-15 0.817705 -2.37893e-16 4.61867e-16)
(4.0551e-15 2.48087e-30 0 10.5235 -4.8475e-15 -8.48633e-16 0.817705 5.72791e-17 9.4003e-16)
(1.33313e-15 -4.73622e-30 2.36811e-30 10.0374 5.26736e-15 4.54892e-15 0.814862 -4.03953e-16 2.73663e-16)
(0 4.73622e-30 -3.55216e-30 10.0374 -5.86318e-15 -7.55297e-16 0.814862 -4.21732e-17 9.36893e-16)
(-1.1284e-15 -5.15169e-30 3.66602e-30 9.52512 5.42099e-15 2.27252e-15 0.808065 -4.53976e-16 1.09765e-16)
(3.24105e-15 9.0419e-30 -5.65119e-30 9.52512 -4.73059e-15 -8.491e-16 0.808065 -1.36448e-16 9.27708e-16)
(-2.37178e-15 3.224e-30 -3.50325e-46 8.99721 6.42838e-15 -1.63527e-30 0.797827 -4.70139e-16 0)
(4.74355e-15 0 0 8.99721 -5.74584e-15 -7.80305e-16 0.797827 -2.20994e-16 9.09881e-16)
(-1.15949e-15 2.05966e-30 -2.4298e-30 8.46397 8.88006e-15 -2.48981e-16 0.784752 -6.82353e-16 1.16408e-17)
(0 0 1.02983e-30 8.46397 -8.08686e-15 -6.80246e-16 0.784752 -3.67312e-16 8.84768e-16)
(-3.12751e-15 1.03165e-29 -7.02282e-30 7.9348 8.80921e-15 -1.76731e-15 0.769472 -9.85391e-16 8.99672e-17)
(7.41212e-15 -9.83023e-30 5.89814e-30 7.9348 -9.16791e-15 -4.22955e-16 0.769472 -5.76649e-16 8.49007e-16)
(1.35537e-15 -7.11298e-30 4.5562e-30 7.41763 9.04856e-15 -2.83215e-15 0.752589 -7.3467e-16 2.60242e-16)
(5.42149e-15 5.63006e-30 -3.75337e-30 7.41763 -9.12346e-15 -2.21719e-16 0.752589 -7.76581e-16 8.26968e-16)
(3.42701e-15 -4.9684e-30 3.4621e-30 6.91865 7.83483e-15 -3.33743e-15 0.734649 -1.13176e-15 3.22499e-16)
(3.62341e-15 3.58278e-30 -3.58278e-30 6.91865 -7.48492e-15 -2.54343e-16 0.734649 -9.966e-16 7.14453e-16)
(1.46363e-15 3.67874e-30 -9.63145e-31 6.44233 5.19303e-15 -3.67396e-15 0.716116 -5.39108e-16 3.96848e-16)
(0 -1.70997e-30 0 6.44233 -5.64354e-15 -5.20611e-16 0.716116 -1.16804e-15 5.98021e-16)
(1.83775e-15 -6.52898e-30 4.89674e-30 5.99157 5.88719e-15 -3.85143e-15 0.697371 -6.3285e-16 4.31554e-16)
(0 3.26449e-30 -5.71286e-30 5.99157 -5.69593e-15 -5.73605e-16 0.697371 -1.25684e-15 4.57298e-16)
(-3.13381e-15 5.87496e-30 -5.28963e-30 5.56793 6.36597e-15 -4.92331e-15 0.678711 -7.59382e-16 4.78416e-16)
(0 -3.11612e-30 1.55806e-30 5.56793 -6.3835e-15 -1.23487e-16 0.678711 -1.42945e-15 3.2762e-16)
(1.61654e-15 1.4427e-31 -1.13166e-31 5.17194 5.91659e-15 -5.77763e-15 0.660362 -8.15737e-16 7.44932e-16)
(-6.46618e-15 0 0 5.17194 -5.31377e-15 -1.9989e-16 0.660362 -1.68574e-15 2.13294e-16)
(3.26322e-15 -4.17414e-30 2.01832e-30 4.80332 5.83322e-15 -5.23517e-15 0.642486 -7.14262e-16 7.51591e-16)
(5.06101e-15 0 -1.41964e-30 4.80332 -4.38795e-15 -1.35826e-16 0.642486 -1.77757e-15 9.36968e-17)
(1.71183e-15 -1.28895e-30 1.26021e-30 4.46123 6.83025e-15 -5.50779e-15 0.625195 -8.72111e-16 6.66875e-16)
(-8.37304e-15 0 -6.7756e-31 4.46123 -5.03046e-15 -1.4448e-16 0.625195 -1.95051e-15 -7.75384e-18)
(0 5.17411e-30 -1.94029e-30 4.14449 7.01551e-15 -6.23341e-15 0.608561 -1.07405e-15 9.04205e-16)
(-2.91276e-15 -5.17411e-30 1.29353e-30 4.14449 -5.17809e-15 -3.38151e-16 0.608561 -2.15057e-15 -6.91561e-17)
(-1.80196e-15 1.20903e-30 -1.70325e-30 3.85165 6.53655e-15 -6.12323e-15 0.592623 -1.01362e-15 9.53115e-16)
(0 0 0 3.85165 -6.41303e-15 -4.95938e-17 0.592623 -2.37175e-15 -3.86781e-18)
(0 0 1.76792e-30 3.58118 6.25105e-15 -5.84427e-15 0.577398 -1.02579e-15 9.57175e-16)
(0 0 3.50325e-46 3.58118 -6.15883e-15 5.11527e-31 0.577398 -2.78792e-15 -2.45348e-46)
(-3.77454e-15 6.7694e-30 -6.98317e-30 3.3315 5.19726e-15 -5.79652e-15 0.562884 -1.01692e-15 9.52704e-16)
(7.54908e-15 -4.50018e-30 6.08249e-30 3.3315 -4.68052e-15 2.53312e-17 0.562884 -2.95485e-15 -2.01036e-17)
(2.41823e-15 0 -2.14782e-30 3.10104 4.41812e-15 -5.49457e-15 0.549067 -7.56428e-16 1.03376e-15)
(-7.71298e-15 0 1.19421e-31 3.10104 -4.72669e-15 4.52369e-31 0.549067 -3.19283e-15 2.46519e-32)
(3.93634e-15 1.86006e-30 -2.4502e-30 2.88831 5.76706e-15 -5.2674e-15 0.535925 -8.29959e-16 9.3471e-16)
(7.87268e-15 -4.10039e-30 3.07529e-30 2.88831 -2.56105e-15 2.03903e-15 0.535925 -3.39374e-15 -1.34087e-16)
(-2.2034e-15 -1.95701e-30 9.78506e-31 2.69187 6.92132e-15 -4.52009e-15 0.52343 -1.34912e-15 1.04716e-15)
(5.82496e-15 3.91402e-30 -1.95701e-30 2.69187 -1.41292e-15 3.5596e-15 0.52343 -3.5134e-15 1.15474e-17)
(0 3.73612e-30 -4.67016e-30 2.51038 6.25898e-15 -2.44392e-15 0.51155 -1.37607e-15 7.24663e-16)
(0 -3.73612e-30 4.67016e-30 2.51038 -3.15675e-15 5.30777e-15 0.51155 -3.66714e-15 2.74519e-16)
(0 3.56631e-30 -5.34947e-30 2.34259 5.11743e-15 -1.59825e-15 0.50025 -1.20101e-15 2.72677e-16)
(0 -3.56631e-30 5.34947e-30 2.34259 -1.48786e-15 5.47416e-15 0.50025 -3.86043e-15 4.47007e-16)
(1.9164e-15 0 -8.51054e-31 2.18736 4.73409e-15 -2.0964e-15 0.489495 -1.00531e-15 4.21264e-16)
(6.55691e-15 0 0 2.18736 3.52423e-16 5.72351e-15 0.489495 -4.02023e-15 5.37815e-16)
(4.30743e-15 -9.06873e-32 -1.19664e-30 2.04363 5.72475e-15 -1.09658e-15 0.479251 -1.14047e-15 5.30095e-16)
(0 -1.62475e-30 2.43712e-30 2.04363 -1.74445e-15 6.03779e-15 0.479251 -4.02979e-15 6.64204e-16)
(-2.18833e-15 7.56688e-31 2.75888e-31 1.91043 5.30142e-15 -3.33379e-30 0.469482 -1.58423e-15 0)
(1.75066e-14 1.5509e-30 -2.32635e-30 1.91043 -1.30087e-15 5.72098e-15 0.469482 -4.19437e-15 7.83414e-16)
(2.2222e-15 -8.1105e-31 9.13013e-31 1.78688 1.74883e-15 -1.41141e-15 0.460156 -1.03638e-15 4.57752e-16)
(8.88879e-15 0 -7.40204e-31 1.78688 -2.996e-16 5.03358e-15 0.460156 -4.09202e-15 9.61406e-16)
(9.26701e-16 -2.18953e-44 1.93799e-30 1.67218 7.02558e-30 -1.06699e-16 0.451239 0 2.72406e-16)
(0 4.23936e-30 -2.11968e-30 1.67218 -1.11047e-15 4.98376e-15 0.451239 -4.2594e-15 1.09505e-15)
(0 -1.34889e-30 2.38242e-31 1.5656 4.28347e-15 -1.77494e-30 0.4427 -9.10673e-16 1.97215e-31)
(1.83029e-14 1.34889e-30 0 1.5656 5.21947e-16 5.12424e-15 0.4427 -4.48659e-15 1.09742e-15)
(2.31972e-15 -1.94746e-30 1.32961e-30 1.46647 3.92369e-15 -3.00833e-15 0.43451 -1.55056e-15 8.98293e-16)
(9.27886e-15 0 -1.28758e-30 1.46647 2.03629e-15 4.92209e-15 0.43451 -4.30794e-15 1.1265e-15)
(0 -2.45812e-30 1.22906e-30 1.37418 1.77747e-15 -2.18164e-15 0.426639 -7.79076e-16 6.16962e-16)
(9.40383e-15 2.45812e-30 -1.22906e-30 1.37418 4.0092e-16 4.48567e-15 0.426639 -4.32133e-15 1.29656e-15)
(0 0 1.1732e-30 1.28818 -4.6527e-16 -1.78214e-15 0.419061 -6.52709e-16 3.4817e-16)
(-9.52645e-15 0 -1.22741e-30 1.28818 6.67533e-17 4.04578e-15 0.419061 -4.49169e-15 1.31148e-15)
(2.41171e-15 -1.88463e-30 -1.11987e-30 1.20798 -2.41092e-30 -9.33944e-16 0.41175 0 4.2928e-17)
(9.64682e-15 2.23975e-30 -1.4013e-45 1.20798 8.11106e-16 -9.86076e-31 0.41175 -4.526e-15 2.59928e-46)
(2.44126e-15 1.54352e-30 0 1.13311 5.07547e-15 2.15766e-16 0.40468 -2.01345e-15 -2.80639e-16)
(0 0 -1.06897e-30 1.13311 -1.95564e-17 -3.78769e-15 0.40468 -4.56825e-15 2.39144e-16)
(-1.72581e-16 5.87756e-31 1.02039e-30 1.06317 3.51704e-15 8.31753e-16 0.397829 -1.63547e-15 -5.75344e-16)
(1.97623e-14 -8.18957e-31 0 1.06317 5.61144e-16 -1.38258e-15 0.397829 -3.94188e-15 -2.14835e-16)
(-2.49882e-15 6.18443e-31 5.333e-32 0.99776 2.66516e-15 -2.69708e-31 0.391173 -1.00517e-15 -3.84283e-16)
(-9.99527e-15 6.63037e-31 0 0.99776 6.62391e-16 -1.90438e-15 0.391173 -3.50868e-15 -5.09412e-16)
(2.09359e-15 -1.85948e-30 9.29739e-31 0.936549 2.53047e-15 -1.18106e-15 0.384691 -1.10511e-15 -1.11331e-15)
(0 0 -9.29739e-31 0.936549 2.69513e-16 -1.7448e-15 0.384691 -2.34075e-15 -1.1994e-15)
(-9.10572e-15 1.0907e-30 0 0.879218 1.65586e-15 -7.61217e-16 0.378361 -9.88908e-16 -1.06589e-15)
(0 0 0 0.879218 -1.18484e-15 -1.8217e-15 0.378361 -1.64628e-15 -1.34751e-15)
(-2.58155e-15 6.45321e-31 -8.47144e-31 0.825475 1.68898e-15 -1.14507e-16 0.372162 -4.35585e-16 -1.25825e-15)
(-1.03262e-14 3.29518e-30 8.47144e-31 0.825475 -1.6675e-15 -1.48714e-15 0.372162 -3.79097e-16 -1.48577e-15)
(0 0 8.75812e-47 0.775056 1.43817e-15 -6.81246e-46 0.366074 -1.646e-15 -8.60357e-16)
(-3.64179e-15 0 0 0.775056 5.55627e-30 -1.57147e-16 0.366074 -7.88861e-31 -1.34702e-15)
(-8.74516e-15 -5.03363e-31 -1.54377e-30 0.727717 1.74959e-17 -1.98373e-15 0.360076 -7.79027e-16 -7.89946e-16)
(3.47626e-15 1.54377e-30 1.54377e-30 0.727717 8.5334e-16 1.05632e-15 0.360076 -1.1004e-15 -1.32239e-15)
(5.97852e-15 -5.72963e-31 1.4736e-30 0.683233 -9.89956e-16 -2.0246e-15 0.354148 -8.33212e-16 -1.23493e-15)
(-3.31826e-15 0 -2.63477e-31 0.683233 -1.8564e-15 4.44213e-45 0.354148 -1.69296e-15 -9.49277e-16)
(-2.20385e-15 -3.52268e-31 7.03313e-31 0.641399 -1.42481e-15 7.61725e-16 0.348269 -1.70393e-15 -2.00458e-15)
(1.07426e-14 -2.55372e-30 0 0.641399 -2.52188e-15 -3.98566e-16 0.348269 -1.05452e-15 -9.79552e-16)
(2.71063e-15 7.72155e-31 3.22232e-31 0.602023 -6.52532e-16 -5.61623e-31 0.342417 -2.02203e-15 -1.16096e-15)
(2.1685e-14 0 0 0.602023 0 2.13487e-15 0.342417 -1.57772e-30 -8.63956e-16)
(2.88606e-15 0 0 0.564928 3.49518e-17 -1.50553e-15 0.33657 -1.93994e-16 -1.80951e-15)
(1.09408e-14 -2.20821e-30 0 0.564928 2.22178e-15 2.95823e-31 0.33657 -1.83292e-15 5.86079e-47)
(-2.75936e-15 7.14013e-31 0 0.529951 -1.02233e-16 1.63683e-16 0.330704 -1.71522e-16 -9.03603e-16)
(-2.75488e-15 0 0 0.529951 7.81575e-16 -2.10811e-15 0.330704 -8.1429e-16 6.36801e-16)
(5.25933e-15 0 0 0.496939 2.29539e-30 -1.95748e-15 0.324794 2.10139e-46 -1.1921e-15)
(1.70057e-14 -4.69028e-30 0 0.496939 1.01562e-15 -1.27634e-15 0.324794 -9.08589e-16 -3.17733e-16)
(-2.8065e-15 6.84996e-31 0 0.465748 7.70994e-16 -7.44542e-16 0.318811 -6.76899e-16 -7.04341e-16)
(1.1226e-14 -1.95294e-30 0 0.465748 4.07813e-16 -2.45724e-16 0.318811 -1.44151e-15 -3.70736e-16)
(-2.82947e-15 6.53693e-31 0 0.436246 1.05494e-15 -1.33266e-16 0.312725 -3.81885e-16 6.48622e-17)
(-1.13179e-14 3.02015e-30 -7.13187e-31 0.436246 7.06542e-16 1.97215e-31 0.312725 -3.69286e-16 0)
(-4.5743e-15 0 5.07849e-31 0.408306 1.16325e-15 -1.96282e-15 0.306502 -1.59981e-15 -7.05278e-16)
(1.14081e-14 -2.07744e-30 -4.58044e-31 0.408306 1.1088e-15 -1.62953e-15 0.306502 -1.77063e-15 6.17973e-16)
(0 9.69533e-31 -4.84767e-31 0.381807 2.34006e-16 -1.68889e-16 0.300102 -3.93496e-16 -2.19195e-16)
(0 -2.11059e-31 4.84767e-31 0.381807 6.96181e-16 -2.32642e-15 0.300102 -2.76586e-16 -9.37418e-16)
(-2.89593e-15 1.64707e-30 1.09095e-31 0.356637 5.86041e-16 -9.86076e-32 0.293483 -2.43915e-16 0)
(-1.57516e-14 -2.15157e-31 -4.62733e-31 0.356637 -2.16937e-30 -8.57081e-16 0.293483 -1.55037e-15 9.7223e-17)
(0 -8.83403e-31 -4.41701e-31 0.332684 6.78469e-16 -1.34028e-15 0.286592 -1.43299e-15 -1.09461e-16)
(-1.1669e-14 3.78022e-30 4.41701e-31 0.332684 -1.23398e-15 -8.51237e-17 0.286592 -1.48208e-15 2.95298e-17)
(2.93814e-15 -1.42889e-30 4.21625e-31 0.309843 -6.30623e-16 -6.54422e-16 0.27937 -1.76352e-15 -2.15772e-16)
(-1.17525e-14 4.07751e-30 -4.21625e-31 0.309843 -1.16779e-15 1.70527e-15 0.27937 -6.31881e-16 -6.63655e-16)
(6.58363e-15 -6.5806e-31 -4.02462e-31 0.288009 -9.35948e-16 1.55043e-15 0.271745 -1.51926e-15 -6.87892e-16)
(1.18343e-14 -7.00649e-46 0 0.288009 1.77494e-30 0 0.271745 -8.34463e-46 1.27012e-46)
(5.95713e-15 -2.29815e-30 1.42279e-30 0.267076 1.92285e-30 1.97215e-31 0.263633 0 0)
(0 0 0 0.267076 1.46278e-15 -1.42572e-15 0.263633 -2.17526e-15 5.22361e-16)
(9.60409e-15 -6.69044e-31 1.77745e-31 0.246939 1.85596e-15 -4.01619e-16 0.254929 -1.74289e-15 2.10928e-16)
(-6.60603e-15 0 0 0.246939 2.45476e-16 -5.60054e-16 0.254929 -7.24295e-16 8.29016e-16)
(3.15289e-15 3.06151e-31 0 0.227488 5.29421e-16 -8.14527e-16 0.245508 -2.16591e-15 1.2127e-16)
(0 -1.30846e-43 0 0.227488 2.94874e-29 -5.9642e-16 0.245508 0 4.91562e-16)
(0 2.24049e-31 1.54366e-31 0.208605 -1.70131e-29 -1.60956e-15 0.235211 -2.50175e-15 1.15845e-16)
(0 0 0 0.208605 -5.2594e-16 1.4396e-15 0.235211 -1.29768e-15 6.10023e-17)
(5.74559e-15 0 -6.37888e-31 0.190163 -1.31945e-15 1.68708e-15 0.22384 -8.76554e-16 -1.87443e-15)
(-5.74559e-15 -1.25591e-43 9.56832e-31 0.190163 -2.83059e-29 5.19881e-15 0.22384 -1.7705e-46 1.38683e-15)
(0 1.24365e-43 1.21779e-30 0.17202 -2.79754e-29 3.58633e-15 0.211141 -7.88861e-31 1.27168e-15)
(-2.74222e-15 1.21779e-30 -2.60182e-30 0.17202 1.62965e-15 -3.9443e-31 0.211141 -2.7727e-15 0)
(8.7923e-15 -8.26756e-31 0 0.154011 2.09204e-15 -1.52591e-15 0.196788 -2.20054e-15 8.33167e-17)
(9.73186e-15 -1.86018e-30 4.42739e-31 0.154011 1.81322e-15 -1.51632e-16 0.196788 -1.65469e-15 1.00489e-16)
(0 0 0 0.135944 1.33178e-15 -6.70811e-16 0.180359 -3.37246e-15 3.36565e-16)
(-4.99722e-15 0 -5.54803e-31 0.135944 5.39555e-16 -3.6028e-15 0.180359 -3.26888e-15 1.2407e-15)
(-3.11845e-15 4.76508e-31 0 0.117592 3.48545e-16 3.51145e-15 0.161311 -2.53509e-16 -4.65928e-16)
(1.24738e-14 -3.49334e-31 -5.29586e-31 0.117592 -9.77559e-17 -1.02907e-15 0.161311 -1.69761e-15 -6.79518e-16)
(-3.13275e-15 0 1.75162e-46 0.0986892 -6.71317e-31 -4.93038e-31 0.13896 -3.6859e-15 0)
(0 -6.80506e-44 -1.01103e-30 0.0986892 1.53674e-29 2.31304e-15 0.13896 -9.93842e-47 -8.27754e-16)
(4.34633e-15 -1.32157e-30 0 0.0789425 2.23324e-29 -2.21369e-15 0.112487 -7.88861e-31 -2.29644e-16)
(2.51685e-14 0 -2.62743e-44 0.0789425 4.10559e-16 -5.88717e-30 0.112487 -3.60092e-15 0)
(-3.15824e-15 3.43437e-31 0 0.0580613 4.37446e-16 4.46446e-15 0.0809978 -2.04877e-15 4.51032e-16)
(1.2633e-14 4.60607e-31 -4.60607e-31 0.0580613 5.02378e-16 -5.84304e-16 0.0809978 -3.4116e-15 3.54632e-16)
(-3.96021e-15 8.00492e-44 -3.50325e-45 0.0358261 1.80328e-29 -8.2029e-31 0.0436801 0 0)
(0 0 0 0.0358261 4.05702e-16 1.07802e-15 0.0436801 -3.68367e-15 -6.68025e-16)
(1.84094e-18 5.86134e-31 0 5.42899e-12 -1.97215e-31 -4.20786e-15 4.98446e-12 -2.11177e-15 3.39778e-16)
(0 4.19688e-31 0 5.80641e-12 2.5392e-16 -1.07238e-15 5.32907e-12 -9.45893e-16 -5.30708e-16)
(0 -1.28079e-33 -3.07389e-32 13.3705 5.14144e-16 7.51645e-15 -0.0613706 8.04121e-15 -2.31739e-17)
(0 1.28079e-33 -7.80306e-29 13.3705 1.9812e-16 2.21354e-14 -0.0613706 8.2744e-18 -5.0791e-17)
(0 -2.44514e-33 -7.82446e-32 13.3642 1.49987e-15 2.41763e-14 -0.186976 2.0763e-15 -9.04481e-16)
(-4.40478e-17 0 -7.82446e-32 13.3642 4.12224e-16 1.39716e-14 -0.186976 -1.36999e-17 -9.58573e-18)
(1.19534e-17 -2.33401e-33 -7.46883e-32 13.3576 1.40035e-15 1.58694e-15 -0.275433 1.64505e-14 -1.03486e-15)
(0 2.33401e-33 7.46883e-32 13.3576 3.85078e-16 3.26917e-15 -0.275433 -2.31812e-17 2.49892e-18)
(0 0 0 13.3507 1.66828e-15 -1.54656e-15 -0.288395 1.25395e-14 -9.76986e-16)
(0 0 -7.12936e-32 13.3507 5.17501e-16 3.35068e-15 -0.288395 -3.93271e-17 -1.2762e-16)
(4.14188e-17 -8.50665e-33 0 13.3435 1.63514e-15 -1.02223e-15 -0.30196 1.24067e-14 -1.07916e-15)
(-1.65675e-16 8.50665e-33 -7.66708e-32 13.3435 6.48961e-16 3.42526e-15 -0.30196 -5.64962e-17 -7.83436e-17)
(0 -2.436e-32 0 13.3359 1.57641e-15 -8.46109e-16 -0.316154 1.24861e-14 -1.16115e-15)
(-2.41606e-16 2.436e-32 -8.40394e-32 13.3359 7.83559e-16 3.50045e-15 -0.316154 -7.48386e-17 -8.39445e-17)
(0 0 0 13.328 1.56889e-15 -7.036e-15 -0.331006 1.2528e-14 -1.1586e-15)
(0 0 -6.20075e-32 13.328 8.83468e-16 3.57097e-15 -0.331006 -9.42247e-17 -8.9486e-17)
(0 -1.47973e-32 5.91892e-32 13.3196 1.65514e-15 -1.4512e-14 -0.346544 1.25388e-14 -1.16692e-15)
(-5.37642e-16 0 -2.19001e-31 13.3196 8.67802e-16 3.63508e-15 -0.346544 -1.1435e-16 -9.54657e-17)
(-8.68773e-18 -7.06237e-32 2.25996e-31 13.3108 1.79032e-15 -1.64749e-14 -0.362799 1.2553e-14 -1.21267e-15)
(0 4.23742e-32 -3.38994e-31 13.3108 7.47076e-16 3.69085e-15 -0.362799 -1.36457e-16 -1.01252e-16)
(1.45695e-16 -2.69655e-32 -5.27371e-30 13.3015 1.70527e-15 -1.05519e-14 -0.3798 1.25707e-14 -1.26191e-15)
(-5.82781e-16 4.04482e-32 -3.89754e-31 13.3015 8.42693e-16 3.73295e-15 -0.3798 -1.5851e-16 -1.07178e-16)
(0 2.57399e-32 -2.05919e-31 13.2916 1.35542e-15 -2.59439e-15 -0.397579 1.25923e-14 -1.40846e-15)
(-4.46483e-16 0 1.27014e-31 13.2916 1.12411e-15 3.77622e-15 -0.397579 -1.78252e-16 -1.13714e-16)
(0 -2.45699e-32 2.94839e-31 13.281 1.23237e-15 -1.28191e-15 -0.416164 1.26157e-14 -1.6019e-15)
(-7.78361e-16 4.91399e-32 -5.84026e-31 13.281 1.30966e-15 3.80909e-15 -0.416164 -2.0135e-16 -1.19689e-16)
(-2.20772e-16 -2.34532e-32 2.34532e-31 13.2694 1.53199e-15 -1.29545e-15 -0.435584 1.26372e-14 -1.81609e-15)
(8.8309e-16 0 -3.37792e-32 13.2694 1.22789e-15 3.82572e-15 -0.435584 -2.27261e-16 -1.25893e-16)
(-2.48183e-16 -6.71617e-32 4.92519e-31 13.2567 1.67133e-15 -1.08e-15 -0.455863 1.26532e-14 -2.05324e-15)
(-9.92732e-16 6.71617e-32 -6.5902e-31 13.2567 8.89885e-16 3.83967e-15 -0.455863 -2.44739e-16 -1.32319e-16)
(3.84962e-16 -8.54787e-32 4.70133e-31 13.2423 1.57737e-15 -7.18212e-16 -0.477018 1.26664e-14 -2.31922e-15)
(-1.49248e-15 8.54787e-32 -6.50969e-31 13.2423 8.27929e-16 3.82264e-15 -0.477018 -2.60711e-16 -1.3694e-16)
(6.1384e-16 0 0 13.2258 1.41823e-15 -5.04225e-16 -0.499058 1.2681e-14 -2.51626e-15)
(0 0 0 13.2258 1.25033e-15 3.80991e-15 -0.499058 -2.78082e-16 -1.44258e-16)
(-3.38368e-16 0 0 13.2062 9.24334e-16 -3.90322e-16 -0.521976 1.26974e-14 -2.71978e-15)
(1.35347e-15 0 2.86257e-31 13.2062 1.41763e-15 3.81857e-15 -0.521976 -2.99374e-16 -1.50976e-16)
(-7.2938e-17 3.71725e-32 5.20415e-31 13.1824 8.17585e-16 -2.96202e-16 -0.545744 1.27171e-14 -2.94053e-15)
(-1.48516e-15 0 -5.96459e-31 13.1824 1.08942e-15 3.77682e-15 -0.545744 -3.21332e-16 -1.54863e-16)
(4.0575e-16 3.5483e-32 -2.12898e-31 13.1528 1.35614e-15 -1.77163e-16 -0.570302 1.27261e-14 -3.17954e-15)
(6.39205e-16 0 3.5483e-31 13.1528 1.19012e-15 3.73224e-15 -0.570302 -3.31389e-16 -1.61825e-16)
(4.41819e-16 -6.77404e-32 -1.1922e-44 13.1154 1.67124e-15 8.59242e-29 -0.595548 1.27165e-14 -3.43806e-15)
(0 6.77404e-32 -4.74183e-31 13.1154 1.17868e-15 3.67893e-15 -0.595548 -2.67673e-16 -1.65113e-16)
(1.06199e-15 1.29323e-31 -6.3878e-31 13.0673 1.31101e-15 3.27524e-17 -0.621322 1.27098e-14 -3.71691e-15)
(-1.91827e-15 -9.05089e-32 5.13853e-32 13.0673 1.19865e-15 3.62441e-15 -0.621322 -2.90807e-16 -1.72407e-16)
(5.19061e-16 8.26238e-31 0 13.005 4.30477e-16 -1.25383e-15 -0.647394 1.27142e-14 -4.01412e-15)
(0 -6.17226e-32 -1.23445e-31 13.005 1.91964e-15 3.53009e-15 -0.647394 -2.62931e-16 -1.71795e-16)
(1.12074e-15 5.89172e-32 -3.53503e-31 12.9242 3.56114e-16 -3.44409e-15 -0.673446 1.27237e-14 -4.29048e-15)
(0 -5.89172e-32 3.53503e-31 12.9242 1.78572e-15 3.33879e-15 -0.673446 -1.57958e-16 -1.6921e-16)
(0 0 -2.24957e-31 12.8196 7.98829e-16 -4.25826e-15 -0.699061 1.27222e-14 -4.56118e-15)
(0 0 5.62393e-31 12.8196 9.27057e-16 3.24889e-15 -0.699061 -1.18416e-16 -1.78695e-16)
(0 0 0 12.6856 1.23685e-15 -4.23865e-15 -0.72372 1.26959e-14 -4.83565e-15)
(-9.6707e-16 0 0 12.6856 7.63601e-16 3.11159e-15 -0.72372 -1.45792e-16 -1.69948e-16)
(-9.23115e-16 -1.02486e-31 1.12735e-30 12.5159 1.27926e-15 -4.20101e-15 -0.746814 1.26547e-14 -5.11287e-15)
(0 0 -1.22984e-30 12.5159 1.0141e-15 2.79544e-15 -0.746814 -1.71432e-16 -1.58102e-16)
(7.44567e-16 0 -6.84797e-31 12.3046 8.60291e-16 -4.30664e-15 -0.76767 1.26108e-14 -5.38639e-15)
(0 0 6.84797e-31 12.3046 1.317e-15 2.60014e-15 -0.76767 -1.76456e-16 -1.61916e-16)
(1.68222e-15 0 5.6029e-31 12.0468 -2.16679e-28 -4.30377e-15 -0.785603 1.25787e-14 -5.64267e-15)
(1.49917e-15 2.7712e-32 3.34701e-32 12.0468 2.20834e-15 2.38772e-15 -0.785603 -1.90012e-16 -1.45484e-16)
(-8.47863e-16 0 9.80511e-31 11.7392 -6.91565e-16 -4.08466e-15 -0.79998 1.25446e-14 -5.83061e-15)
(-8.02878e-16 0 -8.02236e-31 11.7392 2.88105e-15 1.96445e-15 -0.79998 -1.99258e-16 -1.19183e-16)
(1.80388e-15 -1.70172e-31 -1.27629e-30 11.3808 1.81869e-16 -3.86325e-15 -0.810296 1.24815e-14 -5.99128e-15)
(3.60777e-15 2.43242e-31 1.71698e-30 11.3808 1.91725e-15 1.71241e-15 -0.810296 -6.89446e-17 -1.23163e-16)
(1.91469e-15 0 1.62437e-31 10.9739 -3.7979e-17 -3.60419e-15 -0.816233 1.24046e-14 -6.10795e-15)
(0 0 -1.62437e-31 10.9739 7.7867e-16 1.44774e-15 -0.816233 -4.59233e-17 -9.06435e-17)
(1.3966e-15 0 1.12414e-30 10.5235 -1.21358e-15 -3.21241e-15 -0.817705 1.23597e-14 -6.19742e-15)
(-1.3966e-15 -1.55054e-31 -1.62807e-30 10.5235 1.07967e-15 8.81505e-16 -0.817705 -5.72791e-17 -4.51637e-17)
(0 0 -6.29029e-31 10.0374 -1.29171e-15 -2.73679e-15 -0.814862 1.22916e-14 -6.25318e-15)
(0 1.48007e-31 9.99046e-31 10.0374 1.09611e-15 4.55731e-16 -0.814862 4.21732e-17 -2.85777e-17)
(1.1284e-15 -2.82559e-31 -9.88958e-31 9.52512 -5.99435e-16 -2.39674e-15 -0.808065 1.21975e-14 -6.27021e-15)
(0 2.82559e-31 1.57861e-30 9.52512 5.27606e-16 1.97117e-16 -0.808065 1.36448e-16 -8.3972e-18)
(0 0 1.71944e-30 8.99721 -2.10738e-16 -2.08341e-15 -0.797827 1.20858e-14 -6.24696e-15)
(0 0 0 8.99721 6.05008e-16 -1.37486e-46 -0.797827 2.20994e-16 -2.21479e-30)
(1.24306e-15 0 0 8.46397 4.23961e-16 -1.48128e-15 -0.784752 1.19187e-14 -6.20196e-15)
(-1.15949e-15 8.56288e-31 -2.25275e-31 8.46397 4.6972e-16 -6.16484e-16 -0.784752 3.67312e-16 -4.134e-17)
(-9.13935e-16 0 1.95069e-30 7.9348 1.38767e-15 -1.4056e-15 -0.769472 1.16484e-14 -6.15265e-15)
(5.19854e-15 -1.22878e-31 -1.53623e-30 7.9348 8.07583e-16 -7.26503e-16 -0.769472 5.76649e-16 -7.47277e-17)
(-7.57589e-16 -2.34586e-31 -9.9699e-31 7.41763 1.28953e-15 -1.93898e-15 -0.752589 1.14202e-14 -6.0452e-15)
(5.42149e-15 1.17293e-31 2.40273e-29 7.41763 9.48298e-16 -1.31429e-15 -0.752589 7.76581e-16 -6.74386e-17)
(2.82017e-15 0 3.63876e-31 6.91865 1.4049e-16 -1.63241e-15 -0.734649 1.11162e-14 -5.90713e-15)
(-2.01692e-15 0 -4.89833e-31 6.91865 -2.46519e-32 -4.00302e-15 -0.734649 9.966e-16 -4.25172e-16)
(2.92726e-15 0 0 6.44233 -1.00595e-15 -9.13432e-16 -0.716116 1.09958e-14 -5.77826e-15)
(0 -2.13746e-31 -1.60309e-31 6.44233 9.88301e-16 -4.03573e-15 -0.716116 1.16804e-15 -4.35809e-16)
(-3.21822e-16 -1.02015e-31 8.16123e-31 5.99157 -8.85728e-16 -8.14596e-16 -0.697371 1.08805e-14 -5.64877e-15)
(4.22595e-15 6.03849e-30 -5.10077e-31 5.99157 9.66368e-16 -4.0141e-15 -0.697371 1.25684e-15 -4.57298e-16)
(1.5669e-15 0 0 5.56793 -1.02915e-16 -8.90776e-16 -0.678711 1.06992e-14 -5.50259e-15)
(0 7.93503e-31 0 5.56793 -1.29176e-29 -3.73467e-15 -0.678711 1.42945e-15 -3.2762e-16)
(-3.23309e-15 0 0 5.17194 -2.43025e-16 -9.70179e-16 -0.660362 1.04929e-14 -5.28784e-15)
(-1.67449e-15 0 0 5.17194 -1.21874e-16 -3.41103e-15 -0.660362 1.68574e-15 -2.13294e-16)
(1.66485e-15 -1.77456e-31 -7.09822e-31 4.80332 -9.30143e-16 -1.00112e-15 -0.642486 1.03329e-14 -5.06551e-15)
(9.85614e-15 9.86751e-31 8.87278e-31 4.80332 -9.86076e-32 -3.0621e-15 -0.642486 1.77757e-15 -9.36968e-17)
(0 2.54085e-31 5.0817e-31 4.46123 -1.3949e-15 -9.17581e-16 -0.625195 1.016e-14 -4.86533e-15)
(-8.37304e-15 -2.54085e-31 -3.3878e-31 4.46123 -2.09636e-16 -2.60844e-15 -0.625195 1.95051e-15 7.75384e-18)
(1.75752e-15 -2.42536e-31 -8.08454e-31 4.14449 -1.18238e-15 -9.63335e-16 -0.608561 9.94569e-15 -4.60758e-15)
(7.03007e-15 2.44729e-30 8.08454e-31 4.14449 -3.25838e-16 -2.41213e-15 -0.608561 2.15057e-15 1.01756e-16)
(1.80196e-15 2.31513e-31 1.08039e-30 3.85165 -1.42309e-17 -8.92105e-16 -0.592623 9.7256e-15 -4.32909e-15)
(-7.20783e-15 1.016e-30 -1.08039e-30 3.85165 -1.52581e-15 -2.30823e-15 -0.592623 2.37175e-15 2.12897e-16)
(1.84519e-15 -2.2099e-31 -8.11038e-31 3.58118 2.85389e-16 -1.94925e-16 -0.577398 9.43539e-15 -4.06069e-15)
(0 2.2099e-31 4.4198e-31 3.58118 -1.049e-15 -5.93487e-17 -0.577398 2.78792e-15 2.99847e-16)
(-6.30792e-15 3.51576e-31 1.96883e-30 3.3315 -6.22838e-16 -5.96351e-16 -0.562884 9.19266e-15 -3.81853e-15)
(0 -1.64027e-30 -1.16411e-31 3.3315 -3.8327e-29 -2.76101e-30 -0.562884 2.95485e-15 2.09708e-16)