/*--------------------------------*- C++ -*----------------------------------*\
| =========                 |                                                 |
| \\      /  F ield         | OpenFOAM: The Open Source CFD Toolbox           |
|  \\    /   O peration     | Version:  2106                                  |
|   \\  /    A nd           | Website:  www.openfoam.com                      |
|    \\/     M anipulation  |                                                 |
\*---------------------------------------------------------------------------*/
FoamFile
{
    version     2.0;
    format      ascii;
    arch        "LSB;label=32;scalar=64";
    class       volScalarField;
    location    "10040";
    object      p;
}
// * * * * * * * * * * * * * * * * * * * * * * * * * * * * * * * * * * * * * //

dimensions      [0 2 -2 0 0 0 0];

internalField   nonuniform List<scalar> 
800
(
1.24183e-15
2.14685e-15
2.65614e-15
2.14508e-15
2.69121e-15
2.14228e-15
2.33398e-15
2.1379e-15
2.03946e-15
2.13189e-15
1.80176e-15
2.12427e-15
1.57805e-15
2.11501e-15
1.36191e-15
2.10409e-15
1.15688e-15
2.0915e-15
9.64202e-16
2.07747e-15
7.84029e-16
2.06188e-15
6.15717e-16
2.04456e-15
4.58434e-16
2.02569e-15
3.12043e-16
2.00564e-15
1.75753e-16
1.98417e-15
4.93391e-17
1.96124e-15
-6.73674e-17
1.93706e-15
-1.74725e-16
1.91155e-15
-2.73531e-16
1.88429e-15
-3.64216e-16
1.85524e-15
-4.47427e-16
1.82533e-15
-5.22804e-16
1.79367e-15
-5.90621e-16
1.76066e-15
-6.52029e-16
1.72754e-15
-7.06591e-16
1.69276e-15
-7.555e-16
1.65572e-15
-7.9902e-16
1.61676e-15
-8.36034e-16
1.57587e-15
-8.68833e-16
1.53414e-15
-8.97131e-16
1.49093e-15
-9.21169e-16
1.44534e-15
-9.398e-16
1.39727e-15
-9.5501e-16
1.34813e-15
-9.66034e-16
1.29556e-15
-9.7362e-16
1.23985e-15
-9.77905e-16
1.18284e-15
-9.80069e-16
1.12201e-15
-9.8473e-16
1.06205e-15
-9.85675e-16
1.00219e-15
-9.83394e-16
9.41561e-16
-9.80834e-16
8.79236e-16
-9.72283e-16
8.14203e-16
-9.65793e-16
7.46599e-16
-9.59361e-16
6.76546e-16
-9.46624e-16
6.09652e-16
-9.33357e-16
5.39184e-16
-9.22832e-16
4.66493e-16
-9.1258e-16
3.94477e-16
-8.99891e-16
3.26209e-16
-8.94404e-16
2.6182e-16
-8.80759e-16
1.88622e-16
-8.65141e-16
1.18984e-16
-8.60947e-16
5.2573e-17
-8.55006e-16
-1.42683e-17
-8.54358e-16
-8.2101e-17
-8.51974e-16
-1.58824e-16
-8.50773e-16
-2.34979e-16
-8.65253e-16
-2.96857e-16
-8.73066e-16
-3.60059e-16
-8.65894e-16
-4.33621e-16
-8.81889e-16
-4.96131e-16
-8.96613e-16
-5.56791e-16
-9.09121e-16
-6.09178e-16
-9.27656e-16
-6.88728e-16
-9.24593e-16
-7.91203e-16
-9.54864e-16
-8.63045e-16
-9.82028e-16
-9.07317e-16
-1.02458e-15
-9.80104e-16
-1.07086e-15
-1.03854e-15
-1.11968e-15
-1.09351e-15
-1.15244e-15
-1.12674e-15
-1.20967e-15
-1.1756e-15
-1.27275e-15
-1.2193e-15
-1.32382e-15
-1.27609e-15
-1.34366e-15
-1.30534e-15
-1.39626e-15
-1.28385e-15
-1.40817e-15
-1.30073e-15
-1.48343e-15
-1.41784e-15
-1.50488e-15
-1.47089e-15
-1.52707e-15
-1.48791e-15
-1.59203e-15
-1.57427e-15
-1.66917e-15
-1.66449e-15
-1.69624e-15
-1.66518e-15
-1.73883e-15
-1.71326e-15
-1.79653e-15
-1.7554e-15
-1.82773e-15
-1.79962e-15
-1.78655e-15
-1.75222e-15
-1.72466e-15
-1.7004e-15
-1.73975e-15
-1.69334e-15
-1.69435e-15
-1.66468e-15
-1.74076e-15
-1.67726e-15
-1.73733e-15
-1.51854e-15
-1.72473e-15
-1.53571e-15
-1.68517e-15
-1.61337e-15
-1.70284e-15
-1.72903e-15
-1.80216e-15
-1.76321e-15
-1.92931e-15
-1.85896e-15
-1.92667e-15
-1.96949e-15
-1.8781e-15
-2.00482e-15
-2.11142e-15
-2.10886e-15
9.46966e-16
9.09595e-16
9.46187e-16
9.09435e-16
9.44893e-16
9.09149e-16
9.42789e-16
9.08734e-16
9.39932e-16
9.08081e-16
9.36316e-16
9.07146e-16
9.31945e-16
9.06001e-16
9.26908e-16
9.04482e-16
9.21217e-16
9.02679e-16
9.14629e-16
9.00745e-16
9.07479e-16
8.98528e-16
8.99729e-16
8.95892e-16
8.9155e-16
8.92851e-16
8.82606e-16
8.89662e-16
8.7303e-16
8.86195e-16
8.62951e-16
8.82104e-16
8.5228e-16
8.77958e-16
8.41049e-16
8.73523e-16
8.29701e-16
8.68298e-16
8.17776e-16
8.62885e-16
8.0525e-16
8.56903e-16
7.9211e-16
8.50534e-16
7.78856e-16
8.42936e-16
7.65456e-16
8.34801e-16
7.51887e-16
8.27047e-16
7.37981e-16
8.18098e-16
7.23008e-16
8.08258e-16
7.0742e-16
7.98643e-16
6.91904e-16
7.88067e-16
6.76285e-16
7.74857e-16
6.5986e-16
7.61687e-16
6.42736e-16
7.47933e-16
6.25008e-16
7.32448e-16
6.07304e-16
7.15681e-16
5.88097e-16
6.9863e-16
5.68001e-16
6.79591e-16
5.48223e-16
6.5791e-16
5.25475e-16
6.37474e-16
4.98587e-16
6.17198e-16
4.73468e-16
5.93571e-16
4.49122e-16
5.67734e-16
4.23241e-16
5.40923e-16
3.95912e-16
5.13212e-16
3.65895e-16
4.83381e-16
3.3598e-16
4.5428e-16
3.04909e-16
4.20523e-16
2.72807e-16
3.86462e-16
2.42804e-16
3.52381e-16
2.12184e-16
3.15511e-16
1.78018e-16
2.75976e-16
1.37175e-16
2.40376e-16
1.02564e-16
1.99564e-16
6.79021e-17
1.57055e-16
3.35358e-17
1.13103e-16
-3.68992e-18
6.44e-17
-5.79715e-17
2.18991e-17
-1.00718e-16
-2.41362e-17
-1.42676e-16
-6.54851e-17
-1.75798e-16
-1.16618e-16
-2.06653e-16
-1.77844e-16
-2.66123e-16
-2.25776e-16
-3.22919e-16
-2.58487e-16
-3.52997e-16
-3.06437e-16
-3.88174e-16
-3.70216e-16
-4.43875e-16
-4.33347e-16
-4.85561e-16
-4.76359e-16
-5.20863e-16
-5.23712e-16
-6.12175e-16
-6.03141e-16
-6.9749e-16
-6.66927e-16
-7.50402e-16
-7.30452e-16
-7.87104e-16
-8.13103e-16
-8.79991e-16
-8.82302e-16
-9.73813e-16
-9.34641e-16
-1.01297e-15
-1.00411e-15
-1.03067e-15
-1.07395e-15
-1.12244e-15
-1.11168e-15
-1.21475e-15
-1.19787e-15
-1.29287e-15
-1.27204e-15
-1.37882e-15
-1.32707e-15
-1.46375e-15
-1.42269e-15
-1.55288e-15
-1.52431e-15
-1.69456e-15
-1.61243e-15
-1.67299e-15
-1.61874e-15
-1.71604e-15
-1.69831e-15
-1.76244e-15
-1.6675e-15
-1.73813e-15
-1.68198e-15
-1.71855e-15
-1.69693e-15
-1.69225e-15
-1.68716e-15
-1.65918e-15
-1.67065e-15
-1.65067e-15
-1.65384e-15
-1.68332e-15
-1.69334e-15
-1.74752e-15
-1.6876e-15
-1.74434e-15
-1.5803e-15
-1.70964e-15
-1.6546e-15
-1.73978e-15
-1.69689e-15
-1.83616e-15
-1.80605e-15
-1.85811e-15
-1.90725e-15
-1.90586e-15
-1.97053e-15
-1.98595e-15
-1.98996e-15
-2.14587e-15
-2.14567e-15
-2.18017e-15
-2.179e-15
-2.23823e-15
-2.23616e-15
-2.28215e-15
-2.28523e-15
-2.35825e-15
-2.35147e-15
-2.42854e-15
-2.42403e-15
-2.47671e-15
-2.48428e-15
-2.49908e-15
-2.543e-15
-2.69297e-15
-2.63259e-15
-2.82416e-15
-2.7904e-15
-2.83789e-15
-2.86294e-15
-2.89231e-15
-2.87984e-15
-2.95508e-15
-2.93565e-15
-2.98128e-15
-2.92213e-15
-3.03376e-15
-3.0257e-15
-3.07387e-15
-3.00605e-15
-3.12371e-15
-3.13202e-15
-3.16376e-15
-3.1506e-15
-3.16278e-15
-3.15871e-15
-3.16447e-15
-3.16411e-15
-3.26186e-15
-3.21069e-15
-3.28386e-15
-3.24068e-15
-3.30278e-15
-3.24317e-15
-3.27894e-15
-3.23617e-15
-3.24747e-15
-3.19974e-15
-3.27067e-15
-3.23905e-15
-3.30378e-15
-3.272e-15
-3.3226e-15
-3.27978e-15
-3.33039e-15
-3.28252e-15
-3.30671e-15
-3.27858e-15
-3.30932e-15
-3.27068e-15
-3.31705e-15
-3.29625e-15
-3.32751e-15
-3.29983e-15
-3.32416e-15
-3.30123e-15
-3.3157e-15
-3.29236e-15
-3.3017e-15
-3.28313e-15
-3.29907e-15
-3.27341e-15
-3.29016e-15
-3.2714e-15
-3.27488e-15
-3.27771e-15
-3.26038e-15
-3.27678e-15
-3.25402e-15
-3.2695e-15
-3.24752e-15
-3.27199e-15
-3.24847e-15
-3.25277e-15
-3.24201e-15
-3.23513e-15
-3.2364e-15
-3.24133e-15
-3.23121e-15
-3.2485e-15
-3.23324e-15
-3.24247e-15
-3.23167e-15
-3.24118e-15
-3.22673e-15
-3.24083e-15
-3.22529e-15
-3.23811e-15
-3.23386e-15
-3.23625e-15
-3.23278e-15
-3.23494e-15
-3.23507e-15
-3.23413e-15
-3.24057e-15
-3.2276e-15
-3.23732e-15
-3.22441e-15
-3.23738e-15
-3.22436e-15
-3.23773e-15
-3.22156e-15
-3.23561e-15
-3.2175e-15
-3.23515e-15
-3.21487e-15
-3.23497e-15
-3.21356e-15
-3.23252e-15
-3.21222e-15
-3.22787e-15
-3.21579e-15
-3.22348e-15
-3.21926e-15
-3.22278e-15
-3.21682e-15
-3.22217e-15
-3.21332e-15
-3.22164e-15
-3.20989e-15
-3.22176e-15
-3.21091e-15
-3.22085e-15
-3.213e-15
-3.22e-15
-3.21346e-15
-3.21759e-15
-3.21338e-15
-3.21628e-15
-3.21492e-15
-3.21658e-15
-3.21595e-15
-3.2169e-15
-3.21592e-15
-3.21669e-15
-3.21536e-15
-3.21648e-15
-3.21593e-15
-3.21627e-15
-3.21625e-15
-3.21637e-15
-3.21629e-15
-3.21617e-15
-3.21634e-15
-3.21564e-15
-3.21674e-15
-3.21593e-15
-3.21699e-15
-3.21607e-15
-3.2171e-15
-3.21603e-15
-3.21686e-15
-3.21618e-15
-3.21662e-15
-3.21635e-15
-3.21639e-15
-3.21631e-15
-3.21573e-15
-3.21639e-15
-3.21581e-15
-3.21636e-15
-3.21601e-15
-3.21633e-15
-3.21599e-15
-3.21631e-15
-3.21611e-15
-3.21628e-15
-3.21623e-15
-3.21633e-15
-3.21622e-15
-3.21645e-15
-3.21622e-15
-3.21643e-15
-3.216e-15
-3.2164e-15
-3.21577e-15
-3.21642e-15
-3.21575e-15
-3.21649e-15
-3.21567e-15
-3.21647e-15
-3.2156e-15
-3.21645e-15
-3.21558e-15
-3.21648e-15
-3.21555e-15
-3.21649e-15
-3.21554e-15
-3.2165e-15
-3.21553e-15
-2.19429e-15
-2.19112e-15
-2.25904e-15
-2.24079e-15
-2.22813e-15
-2.26499e-15
-2.37852e-15
-2.32569e-15
-2.47352e-15
-2.43389e-15
-2.50897e-15
-2.50001e-15
-2.57001e-15
-2.56365e-15
-2.66973e-15
-2.62978e-15
-2.73139e-15
-2.77992e-15
-2.8354e-15
-2.90182e-15
-2.88837e-15
-2.90867e-15
-2.92558e-15
-2.93819e-15
-3.00133e-15
-2.97542e-15
-3.09511e-15
-3.06681e-15
-3.16285e-15
-3.15242e-15
-3.1495e-15
-3.16011e-15
-3.13737e-15
-3.17784e-15
-3.15541e-15
-3.16543e-15
-3.16839e-15
-3.20697e-15
-3.21776e-15
-3.21832e-15
-3.21256e-15
-3.18354e-15
-3.20573e-15
-3.20383e-15
-3.23333e-15
-3.21862e-15
-3.23643e-15
-3.22807e-15
-3.21822e-15
-3.23847e-15
-3.2776e-15
-3.25225e-15
-3.27489e-15
-3.26003e-15
-3.2915e-15
-3.28458e-15
-3.26567e-15
-3.28766e-15
-3.29461e-15
-3.29397e-15
-3.30279e-15
-3.30139e-15
-3.27195e-15
-3.28967e-15
-3.27501e-15
-3.27933e-15
-3.27555e-15
-3.2594e-15
-3.27577e-15
-3.26447e-15
-3.27588e-15
-3.2591e-15
-3.25887e-15
-3.24357e-15
-3.25071e-15
-3.23517e-15
-3.2429e-15
-3.23337e-15
-3.23527e-15
-3.23008e-15
-3.22761e-15
-3.21767e-15
-3.2201e-15
-3.1961e-15
-3.2131e-15
-3.1808e-15
-3.20684e-15
-3.17901e-15
-3.20855e-15
-3.17545e-15
-3.21446e-15
-3.17732e-15
-3.20672e-15
-3.18093e-15
-3.19945e-15
-3.17275e-15
-3.19603e-15
-3.18046e-15
-3.19934e-15
-3.18382e-15
-3.20577e-15
-3.1799e-15
-3.20909e-15
-3.17522e-15
-3.20954e-15
-3.17591e-15
-3.21023e-15
-3.17579e-15
-3.21115e-15
-3.18079e-15
-3.21223e-15
-3.18226e-15
-3.21207e-15
-3.18595e-15
-3.21071e-15
-3.18781e-15
-3.21077e-15
-3.18933e-15
-3.21091e-15
-3.19055e-15
-3.20987e-15
-3.19275e-15
-3.20891e-15
-3.19593e-15
-3.20683e-15
-3.19653e-15
-3.20825e-15
-3.19358e-15
-3.20856e-15
-3.19394e-15
-3.20945e-15
-3.19475e-15
-3.20927e-15
-3.19709e-15
-3.20965e-15
-3.19772e-15
-3.20952e-15
-3.19721e-15
-3.20941e-15
-3.1977e-15
-3.20879e-15
-3.19761e-15
-3.20818e-15
-3.19746e-15
-3.20812e-15
-3.19727e-15
-3.20808e-15
-3.19759e-15
-3.20776e-15
-3.19789e-15
-3.20714e-15
-3.19816e-15
-3.20775e-15
-3.19748e-15
-3.20774e-15
-3.19739e-15
-3.20774e-15
-3.19727e-15
-3.20775e-15
-3.19695e-15
-3.20777e-15
-3.19623e-15
-3.20779e-15
-3.19602e-15
-3.20783e-15
-3.19578e-15
-3.20787e-15
-3.19572e-15
-3.2077e-15
-3.19586e-15
-3.20764e-15
-3.19587e-15
-3.20771e-15
-3.19576e-15
-3.20778e-15
-3.19562e-15
-3.20799e-15
-3.19573e-15
-3.20821e-15
-3.19576e-15
-3.20824e-15
-3.19579e-15
-3.20849e-15
-3.19558e-15
-3.20852e-15
-3.19551e-15
-3.2086e-15
-3.19551e-15
-3.20868e-15
-3.19551e-15
-3.20864e-15
-3.19549e-15
-3.20862e-15
-3.1955e-15
-3.20865e-15
-3.19547e-15
-3.20863e-15
-3.19544e-15
-3.20863e-15
-3.19543e-15
)
;

boundaryField
{
    walls
    {
        type            zeroGradient;
    }
    inlet
    {
        type            cyclic;
    }
    outlet
    {
        type            cyclic;
    }
    sides
    {
        type            empty;
    }
}


// ************************************************************************* //
