/*--------------------------------*- C++ -*----------------------------------*\
| =========                 |                                                 |
| \\      /  F ield         | OpenFOAM: The Open Source CFD Toolbox           |
|  \\    /   O peration     | Version:  2106                                  |
|   \\  /    A nd           | Website:  www.openfoam.com                      |
|    \\/     M anipulation  |                                                 |
\*---------------------------------------------------------------------------*/
FoamFile
{
    version     2.0;
    format      ascii;
    arch        "LSB;label=32;scalar=64";
    class       surfaceScalarField;
    location    "10040";
    object      phi;
}
// * * * * * * * * * * * * * * * * * * * * * * * * * * * * * * * * * * * * * //

dimensions      [0 3 -1 0 0 0 0];

oriented        oriented;

internalField   nonuniform List<scalar> 
3996
(
9.04312e-09
-4.33812e-18
-1.42689e-22
-2.75123e-22
-9.18628e-24
2.78043e-08
-4.33569e-18
-8.40133e-22
-1.76959e-21
-9.06705e-23
4.76128e-08
-4.33324e-18
-8.53943e-22
-3.27041e-21
-9.57789e-23
6.85141e-08
-4.3307e-18
-8.76841e-22
-4.83658e-21
-1.01127e-22
9.05557e-08
-4.32812e-18
-8.99542e-22
-6.38438e-21
-1.06721e-22
1.13787e-07
-4.32547e-18
-9.21062e-22
-7.99813e-21
-1.12569e-22
1.38259e-07
-4.3228e-18
-9.42415e-22
-9.64048e-21
-1.18679e-22
1.64026e-07
-4.32e-18
-9.6397e-22
-1.13433e-20
-1.2506e-22
1.91143e-07
-4.31717e-18
-9.85706e-22
-1.30766e-20
-1.3172e-22
2.19667e-07
-4.3143e-18
-1.0076e-21
-1.47812e-20
-1.38667e-22
2.49658e-07
-4.31148e-18
-1.02966e-21
-1.65703e-20
-1.4591e-22
2.8118e-07
-4.3084e-18
-1.05188e-21
-1.83766e-20
-1.53455e-22
3.14296e-07
-4.30537e-18
-1.07422e-21
-2.01679e-20
-1.61313e-22
3.49074e-07
-4.30211e-18
-1.09668e-21
-2.20772e-20
-1.69494e-22
3.85585e-07
-4.29892e-18
-1.11921e-21
-2.39208e-20
-1.78001e-22
4.239e-07
-4.29578e-18
-1.14179e-21
-2.57762e-20
-1.86846e-22
4.64095e-07
-4.29258e-18
-1.16438e-21
-2.76344e-20
-1.96037e-22
5.0625e-07
-4.28915e-18
-1.18695e-21
-2.96929e-20
-2.0558e-22
5.50446e-07
-4.28566e-18
-1.20948e-21
-3.15931e-20
-2.15478e-22
5.96767e-07
-4.28221e-18
-1.23192e-21
-3.36391e-20
-2.25742e-22
6.45301e-07
-4.27866e-18
-1.25426e-21
-3.5678e-20
-2.36371e-22
6.96142e-07
-4.275e-18
-1.27644e-21
-3.7774e-20
-2.47368e-22
7.49382e-07
-4.27139e-18
-1.29844e-21
-3.98869e-20
-2.5874e-22
8.05123e-07
-4.26771e-18
-1.32021e-21
-4.20732e-20
-2.70491e-22
8.63465e-07
-4.2641e-18
-1.34171e-21
-4.41468e-20
-2.82618e-22
9.24517e-07
-4.26057e-18
-1.3629e-21
-4.59283e-20
-2.95135e-22
9.88388e-07
-4.25686e-18
-1.38371e-21
-4.8148e-20
-3.08054e-22
1.05519e-06
-4.25273e-18
-1.40411e-21
-5.02806e-20
-3.21344e-22
1.12506e-06
-4.24833e-18
-1.42407e-21
-5.25716e-20
-3.35013e-22
1.19809e-06
-4.24422e-18
-1.44354e-21
-5.48604e-20
-3.49055e-22
1.27444e-06
-4.23992e-18
-1.46246e-21
-5.69147e-20
-3.63459e-22
1.35423e-06
-4.2358e-18
-1.48079e-21
-5.89425e-20
-3.78218e-22
1.4376e-06
-4.23182e-18
-1.49845e-21
-6.13102e-20
-3.93317e-22
1.52469e-06
-4.22752e-18
-1.51539e-21
-6.36708e-20
-4.08747e-22
1.61566e-06
-4.2231e-18
-1.53157e-21
-6.59578e-20
-4.24474e-22
1.71066e-06
-4.21865e-18
-1.54693e-21
-6.81342e-20
-4.40518e-22
1.80985e-06
-4.21416e-18
-1.56143e-21
-7.04415e-20
-4.56839e-22
1.9134e-06
-4.2099e-18
-1.57498e-21
-7.27875e-20
-4.7343e-22
2.02149e-06
-4.2056e-18
-1.58752e-21
-7.51703e-20
-4.90251e-22
2.13428e-06
-4.20118e-18
-1.59896e-21
-7.77284e-20
-5.07296e-22
2.25198e-06
-4.19664e-18
-1.60923e-21
-7.98055e-20
-5.24537e-22
2.37477e-06
-4.19197e-18
-1.61828e-21
-8.22087e-20
-5.41962e-22
2.50286e-06
-4.18777e-18
-1.62604e-21
-8.44171e-20
-5.59495e-22
2.63645e-06
-4.18221e-18
-1.63241e-21
-8.67072e-20
-5.77127e-22
2.77576e-06
-4.17658e-18
-1.63749e-21
-8.94808e-20
-5.94781e-22
2.92102e-06
-4.17261e-18
-1.64116e-21
-9.10688e-20
-6.12333e-22
3.07245e-06
-4.16863e-18
-1.64328e-21
-9.28347e-20
-6.29808e-22
3.2303e-06
-4.16461e-18
-1.64378e-21
-9.46894e-20
-6.47123e-22
3.39482e-06
-4.16117e-18
-1.64251e-21
-9.55511e-20
-6.64271e-22
3.56626e-06
-4.15679e-18
-1.63954e-21
-9.79366e-20
-6.81208e-22
3.74489e-06
-4.15308e-18
-1.63485e-21
-1.00073e-19
-6.97601e-22
3.93099e-06
-4.14804e-18
-1.62821e-21
-1.01812e-19
-7.1341e-22
4.12484e-06
-4.14532e-18
-1.61956e-21
-1.0236e-19
-7.28666e-22
4.32673e-06
-4.14209e-18
-1.60862e-21
-1.04339e-19
-7.43239e-22
4.53697e-06
-4.13732e-18
-1.59544e-21
-1.05922e-19
-7.57016e-22
4.75588e-06
-4.13384e-18
-1.58017e-21
-1.07497e-19
-7.6994e-22
4.98377e-06
-4.1311e-18
-1.56263e-21
-1.07664e-19
-7.81691e-22
5.22098e-06
-4.12666e-18
-1.54252e-21
-1.09421e-19
-7.92318e-22
5.46784e-06
-4.12304e-18
-1.52016e-21
-1.10738e-19
-8.01542e-22
5.72472e-06
-4.11826e-18
-1.49517e-21
-1.12986e-19
-8.09382e-22
5.99197e-06
-4.11363e-18
-1.46767e-21
-1.14481e-19
-8.15532e-22
6.26996e-06
-4.10934e-18
-1.43773e-21
-1.14967e-19
-8.1996e-22
6.55907e-06
-4.10613e-18
-1.40532e-21
-1.17205e-19
-8.2242e-22
6.85969e-06
-4.10284e-18
-1.37035e-21
-1.18122e-19
-8.22443e-22
7.17221e-06
-4.09784e-18
-1.33275e-21
-1.19581e-19
-8.2002e-22
7.49703e-06
-4.09446e-18
-1.29279e-21
-1.20901e-19
-8.14939e-22
7.83457e-06
-4.09387e-18
-1.25028e-21
-1.20873e-19
-8.07048e-22
8.18523e-06
-4.08981e-18
-1.20523e-21
-1.21643e-19
-7.96011e-22
8.54945e-06
-4.08667e-18
-1.15813e-21
-1.2385e-19
-7.81365e-22
8.92763e-06
-4.08452e-18
-1.1093e-21
-1.25416e-19
-7.62928e-22
9.32021e-06
-4.08221e-18
-1.05824e-21
-1.27523e-19
-7.40647e-22
9.72762e-06
-4.07822e-18
-1.00502e-21
-1.28374e-19
-7.14106e-22
1.01503e-05
-4.07403e-18
-9.50743e-22
-1.30031e-19
-6.82458e-22
1.05886e-05
-4.07493e-18
-8.94857e-22
-1.29453e-19
-6.45583e-22
1.10431e-05
-4.07311e-18
-8.36934e-22
-1.28797e-19
-6.0372e-22
1.15141e-05
-4.07132e-18
-7.77895e-22
-1.29686e-19
-5.56099e-22
1.2002e-05
-4.06822e-18
-7.17506e-22
-1.29942e-19
-5.04014e-22
1.25073e-05
-4.05878e-18
-6.56086e-22
-1.33301e-19
-4.46146e-22
1.30304e-05
-4.0562e-18
-5.9552e-22
-1.35385e-19
-3.808e-22
1.35716e-05
-4.05862e-18
-5.33949e-22
-1.327e-19
-3.09289e-22
1.41314e-05
-4.05779e-18
-4.70462e-22
-1.34097e-19
-2.33751e-22
1.47101e-05
-4.05653e-18
-4.06451e-22
-1.34593e-19
-1.52828e-22
1.53081e-05
-4.0557e-18
-3.41855e-22
-1.31594e-19
-6.62329e-23
1.59257e-05
-4.05978e-18
-2.76674e-22
-1.30609e-19
2.39417e-23
1.65633e-05
-4.06247e-18
-2.10855e-22
-1.28772e-19
1.18351e-22
1.72212e-05
-4.06547e-18
-1.46036e-22
-1.31313e-19
2.1647e-22
1.78997e-05
-4.07275e-18
-8.13076e-23
-1.3149e-19
3.18899e-22
1.85991e-05
-4.07356e-18
-1.62659e-23
-1.3394e-19
4.27628e-22
1.93197e-05
-4.07128e-18
4.75101e-23
-1.36795e-19
5.4156e-22
2.00619e-05
-4.06786e-18
1.09114e-22
-1.42769e-19
6.62558e-22
2.08258e-05
-4.06344e-18
1.67124e-22
-1.51849e-19
7.9015e-22
2.16117e-05
-4.05904e-18
2.2279e-22
-1.5762e-19
9.2582e-22
2.24199e-05
-4.05178e-18
2.74935e-22
-1.61004e-19
1.06832e-21
2.32507e-05
-4.05386e-18
3.19365e-22
-1.58551e-19
1.21548e-21
2.41044e-05
-4.04837e-18
3.61949e-22
-1.63472e-19
1.36526e-21
2.49811e-05
-4.04888e-18
3.98484e-22
-1.69212e-19
1.52141e-21
2.58812e-05
-4.04556e-18
4.29795e-22
-1.77309e-19
1.68359e-21
2.68048e-05
-4.04264e-18
4.54406e-22
-1.85852e-19
1.85194e-21
2.77524e-05
-4.03978e-18
4.71506e-22
-1.94718e-19
2.02801e-21
2.87242e-05
-4.03145e-18
4.82234e-22
-2.01163e-19
2.20983e-21
2.97204e-05
-4.03277e-18
4.83805e-22
-1.99616e-19
2.39365e-21
3.07413e-05
-4.03539e-18
4.79317e-22
-2.0163e-19
2.57324e-21
3.17874e-05
-4.03324e-18
4.72962e-22
-2.00909e-19
2.75037e-21
3.28589e-05
-4.023e-18
4.63146e-22
-2.1003e-19
2.92007e-21
3.39561e-05
-4.02334e-18
4.51492e-22
-2.13116e-19
3.07928e-21
3.50794e-05
-4.01788e-18
4.27773e-22
-2.22994e-19
3.23092e-21
3.62292e-05
-4.0152e-18
3.98454e-22
-2.35568e-19
3.37095e-21
3.74059e-05
-3.98939e-18
3.65244e-22
-2.44379e-19
3.5002e-21
3.86099e-05
-3.9855e-18
3.0598e-22
-2.53514e-19
3.6247e-21
3.98416e-05
-3.96474e-18
2.28159e-22
-2.73267e-19
3.74211e-21
4.11015e-05
-3.94779e-18
1.23698e-22
-2.85609e-19
3.86496e-21
4.23901e-05
-3.94064e-18
2.51075e-24
-3.00075e-19
3.98641e-21
4.37077e-05
-3.92666e-18
-1.37951e-22
-3.20986e-19
4.11022e-21
4.5055e-05
-3.9249e-18
-2.97515e-22
-3.26933e-19
4.23415e-21
4.64325e-05
-3.92568e-18
-4.62173e-22
-3.25774e-19
4.34185e-21
4.78407e-05
-3.91625e-18
-6.30732e-22
-3.33952e-19
4.43217e-21
4.92801e-05
-3.90666e-18
-7.91717e-22
-3.42004e-19
4.51535e-21
5.07514e-05
-3.88678e-18
-9.59268e-22
-3.51909e-19
4.59547e-21
5.22551e-05
-3.87332e-18
-1.14388e-21
-3.50454e-19
4.66779e-21
5.3792e-05
-3.84278e-18
-1.32888e-21
-3.65095e-19
4.7126e-21
5.53625e-05
-3.8341e-18
-1.52172e-21
-3.82289e-19
4.73233e-21
5.69675e-05
-3.81756e-18
-1.70083e-21
-3.95877e-19
4.73154e-21
5.86075e-05
-3.8022e-18
-1.86673e-21
-4.13293e-19
4.71963e-21
6.02833e-05
-3.77387e-18
-2.02179e-21
-4.30012e-19
4.71531e-21
6.19957e-05
-3.75301e-18
-2.19153e-21
-4.42752e-19
4.71185e-21
6.37452e-05
-3.74684e-18
-2.38267e-21
-4.58876e-19
4.68841e-21
6.55328e-05
-3.73849e-18
-2.56477e-21
-4.79892e-19
4.6435e-21
6.73592e-05
-3.70814e-18
-2.76362e-21
-4.99026e-19
4.60182e-21
6.92252e-05
-3.70431e-18
-3.01106e-21
-5.16168e-19
4.53075e-21
7.11316e-05
-3.69706e-18
-3.2496e-21
-5.31815e-19
4.43443e-21
7.30793e-05
-3.67476e-18
-3.49246e-21
-5.52596e-19
4.34705e-21
7.50691e-05
-3.65013e-18
-3.75488e-21
-5.6315e-19
4.24915e-21
7.7102e-05
-3.6258e-18
-4.02267e-21
-5.91836e-19
4.11835e-21
7.91787e-05
-3.6001e-18
-4.28445e-21
-5.90288e-19
3.99987e-21
8.13004e-05
-3.57894e-18
-4.56142e-21
-6.10429e-19
3.86414e-21
8.34678e-05
-3.54232e-18
-4.8561e-21
-6.41753e-19
3.75088e-21
8.5682e-05
-3.51467e-18
-5.18574e-21
-6.7293e-19
3.6577e-21
8.7944e-05
-3.47733e-18
-5.52626e-21
-6.76823e-19
3.57322e-21
9.02548e-05
-3.46439e-18
-5.8226e-21
-7.07368e-19
3.41116e-21
9.26154e-05
-3.44465e-18
-6.13749e-21
-7.14043e-19
3.30911e-21
9.50269e-05
-3.43313e-18
-6.45167e-21
-7.34762e-19
3.17947e-21
9.74904e-05
-3.41194e-18
-6.72235e-21
-7.63058e-19
3.03029e-21
0.000100007
-3.3683e-18
-6.98495e-21
-7.86097e-19
2.90232e-21
0.000102578
-3.35243e-18
-7.26939e-21
-8.00073e-19
2.81322e-21
0.000105204
-3.31806e-18
-7.53813e-21
-8.17765e-19
2.73401e-21
0.000107887
-3.28697e-18
-7.83882e-21
-8.47669e-19
2.63521e-21
0.000110627
-3.26568e-18
-8.087e-21
-8.74985e-19
2.58545e-21
0.000113426
-3.23437e-18
-8.28753e-21
-9.05175e-19
2.46795e-21
0.000116286
-3.20522e-18
-8.45859e-21
-9.31246e-19
2.35937e-21
0.000119207
-3.16084e-18
-8.57981e-21
-9.32609e-19
2.30214e-21
0.000122191
-3.11122e-18
-8.78473e-21
-9.71403e-19
2.22621e-21
0.00012524
-3.07987e-18
-9.03041e-21
-1.00049e-18
2.24874e-21
0.000128353
-3.06809e-18
-9.34524e-21
-1.01893e-18
2.14728e-21
0.000131534
-3.01006e-18
-9.48508e-21
-1.0504e-18
1.86671e-21
0.000134783
-2.97567e-18
-9.77216e-21
-1.09439e-18
1.60523e-21
0.000138102
-2.94799e-18
-1.00303e-20
-1.0966e-18
1.4671e-21
0.000141492
-2.91084e-18
-1.02352e-20
-1.12077e-18
1.24085e-21
0.000144955
-2.88704e-18
-1.04931e-20
-1.13676e-18
8.9052e-22
0.000148492
-2.84969e-18
-1.07342e-20
-1.16139e-18
4.76e-22
0.000152105
-2.80542e-18
-1.09567e-20
-1.20013e-18
9.20821e-23
0.000155795
-2.76411e-18
-1.12e-20
-1.19418e-18
-1.51585e-22
0.000159565
-2.69577e-18
-1.13972e-20
-1.21155e-18
-7.12725e-22
0.000163416
-2.66927e-18
-1.17485e-20
-1.22052e-18
-1.11599e-21
0.000167349
-2.61707e-18
-1.20892e-20
-1.26519e-18
-1.5011e-21
0.000171366
-2.57889e-18
-1.25327e-20
-1.24822e-18
-1.88561e-21
0.000175469
-2.56298e-18
-1.3079e-20
-1.25834e-18
-2.55403e-21
0.00017966
-2.55516e-18
-1.36403e-20
-1.25935e-18
-3.20212e-21
0.00018394
-2.51014e-18
-1.38122e-20
-1.26292e-18
-3.74555e-21
0.000188312
-2.49181e-18
-1.4029e-20
-1.28044e-18
-4.20141e-21
0.000192778
-2.43432e-18
-1.42377e-20
-1.29828e-18
-4.70254e-21
0.000197339
-2.39811e-18
-1.45755e-20
-1.31827e-18
-5.02449e-21
0.000201997
-2.33887e-18
-1.49169e-20
-1.31524e-18
-5.29528e-21
0.000206754
-2.33343e-18
-1.55262e-20
-1.32504e-18
-5.72634e-21
0.000211613
-2.27009e-18
-1.59993e-20
-1.34094e-18
-6.11575e-21
0.000216575
-2.24502e-18
-1.64908e-20
-1.32651e-18
-6.62473e-21
0.000221643
-2.19408e-18
-1.70099e-20
-1.33002e-18
-7.44293e-21
0.000226819
-2.17127e-18
-1.75624e-20
-1.31554e-18
-8.37446e-21
0.000232105
-2.11768e-18
-1.79472e-20
-1.33241e-18
-9.27298e-21
0.000237503
-2.09876e-18
-1.89738e-20
-1.34024e-18
-9.91773e-21
0.000243015
-2.09577e-18
-1.96836e-20
-1.29229e-18
-1.0561e-20
0.000248645
-2.06447e-18
-1.95915e-20
-1.24015e-18
-1.17335e-20
0.000254394
-1.96345e-18
-1.9055e-20
-1.28962e-18
-1.34868e-20
0.000260264
-1.91942e-18
-1.85832e-20
-1.34044e-18
-1.47914e-20
0.000266259
-1.87743e-18
-1.80035e-20
-1.36491e-18
-1.58578e-20
0.00027238
-1.83721e-18
-1.68488e-20
-1.40854e-18
-1.70567e-20
0.000278631
-1.79575e-18
-1.58719e-20
-1.46635e-18
-1.83517e-20
0.000285013
-1.80435e-18
-1.65291e-20
-1.4372e-18
-1.84719e-20
0.00029153
-1.77855e-18
-1.62695e-20
-1.46234e-18
-1.9892e-20
0.000298184
-1.75371e-18
-1.64096e-20
-1.49527e-18
-2.10596e-20
0.000304978
-1.69318e-18
-1.69704e-20
-1.48313e-18
-2.20065e-20
0.000311915
-1.66346e-18
-1.82565e-20
-1.48467e-18
-2.25771e-20
0.000318997
-1.65436e-18
-1.92833e-20
-1.50235e-18
-2.34167e-20
0.000326228
-1.64467e-18
-1.96958e-20
-1.50247e-18
-2.26815e-20
0.00033361
-1.60613e-18
-1.92872e-20
-1.52085e-18
-2.24646e-20
0.000341146
-1.64055e-18
-2.00789e-20
-1.51419e-18
-2.21485e-20
0.000348839
-1.55998e-18
-1.93573e-20
-1.56325e-18
-2.2074e-20
0.000356693
-1.51137e-18
-1.99282e-20
-1.53047e-18
-1.93632e-20
0.00036471
-1.5008e-18
-2.17729e-20
-1.54895e-18
-1.79266e-20
0.000372894
-1.46081e-18
-2.26575e-20
-1.48144e-18
-1.67127e-20
0.000381247
-1.49192e-18
-2.3412e-20
-1.41433e-18
-1.78335e-20
0.000389773
-1.46175e-18
-2.28223e-20
-1.39955e-18
-1.99317e-20
0.000398476
-1.44078e-18
-2.209e-20
-1.38709e-18
-1.9938e-20
0.000407357
-1.38298e-18
-2.04778e-20
-1.4011e-18
-1.9468e-20
0.000416422
-1.30879e-18
-1.8835e-20
-1.25567e-18
-1.76872e-20
0.000425673
-1.29348e-18
-1.99032e-20
-1.25213e-18
-1.70217e-20
0.000435113
-1.20557e-18
-2.00661e-20
-1.16269e-18
-1.71879e-20
0.000444747
-1.19332e-18
-2.02848e-20
-1.1414e-18
-2.13277e-20
0.000454577
-1.13494e-18
-2.20817e-20
-1.13225e-18
-2.61244e-20
0.000464607
-1.07694e-18
-2.26297e-20
-1.08514e-18
-3.03118e-20
0.00047484
-1.04244e-18
-2.37859e-20
-1.09736e-18
-3.59828e-20
0.000485281
-1.00048e-18
-2.46987e-20
-1.03634e-18
-3.72737e-20
0.000495932
-9.34268e-19
-2.75615e-20
-1.00378e-18
-3.79579e-20
0.000506798
-1.09062e-18
-3.10592e-20
-1.06837e-18
-3.70986e-20
0.000517881
-1.13944e-18
-2.91432e-20
-9.92085e-19
-3.53143e-20
0.000529186
-1.11728e-18
-2.87583e-20
-1.03865e-18
-3.48243e-20
0.000540716
-1.18965e-18
-2.83797e-20
-1.0533e-18
-3.10886e-20
0.000552475
-1.12587e-18
-2.60565e-20
-1.08218e-18
-2.62283e-20
0.000564466
-1.14624e-18
-2.52271e-20
-1.13904e-18
-2.17852e-20
0.000576692
-1.11151e-18
-2.67952e-20
-1.09615e-18
-1.99661e-20
0.000589158
-1.15255e-18
-3.29712e-20
-1.14784e-18
-2.79956e-20
0.000601867
-1.0407e-18
-3.29858e-20
-1.01625e-18
-3.21863e-20
0.000614821
-1.08899e-18
-3.94209e-20
-9.99656e-19
-4.66106e-20
0.000628026
-1.12187e-18
-4.57522e-20
-1.06657e-18
-5.22428e-20
0.000641483
-1.10288e-18
-4.58468e-20
-1.07758e-18
-5.36162e-20
0.000655196
-9.63867e-19
-4.11692e-20
-1.07802e-18
-4.81251e-20
0.000669168
-9.14186e-19
-3.80718e-20
-1.01168e-18
-4.40438e-20
0.000683402
-8.71889e-19
-4.09737e-20
-1.08673e-18
-4.35189e-20
0.000697901
-1.00258e-18
-5.00604e-20
-9.48252e-19
-2.8684e-20
0.000712666
-9.76446e-19
-4.89898e-20
-9.95491e-19
-1.89696e-20
0.000727701
-9.71906e-19
-4.74534e-20
-8.71133e-19
-1.40731e-20
0.000743008
-8.98356e-19
-4.26977e-20
-8.64483e-19
-2.53051e-20
0.000758588
-7.88287e-19
-4.67325e-20
-9.17104e-19
-3.39683e-20
0.000774442
-7.98886e-19
-6.05555e-20
-9.61122e-19
-4.1651e-20
0.000790572
-8.69436e-19
-7.35217e-20
-9.47656e-19
-4.10069e-20
0.000806978
-7.56626e-19
-6.39815e-20
-1.0667e-18
-3.90159e-20
0.00082366
-9.8682e-19
-6.72152e-20
-9.49848e-19
-3.11003e-20
0.000840617
-8.579e-19
-5.59201e-20
-9.16374e-19
-2.06856e-20
0.00085785
-8.46338e-19
-4.33947e-20
-9.19878e-19
-7.73975e-21
0.000875354
-9.94633e-19
-4.7182e-20
-9.4447e-19
2.49914e-21
0.000893128
-1.06928e-18
-5.00427e-20
-7.62376e-19
1.11595e-20
0.000911168
-1.05243e-18
-3.54441e-20
-7.02677e-19
-3.6746e-21
0.00092947
-1.16027e-18
-2.10926e-20
-7.65876e-19
-1.51227e-20
0.000948027
-7.92135e-19
7.18107e-21
-8.47436e-19
-2.60017e-20
0.000966832
-7.40017e-19
8.5124e-21
-7.05672e-19
-2.69032e-20
0.000985878
-7.33031e-19
6.34938e-21
-7.45579e-19
-4.20635e-20
0.00100515
-6.88026e-19
-1.01749e-21
-8.35041e-19
-4.6437e-20
0.00102465
-7.66038e-19
-6.0728e-21
-7.73387e-19
-2.83343e-20
0.00104436
-6.96738e-19
9.19216e-21
-8.09809e-19
-2.15824e-20
0.00106425
-4.98779e-19
4.6983e-21
-5.9141e-19
-1.94769e-20
0.00108433
-2.19808e-20
-5.67013e-19
-3.79865e-20
-6.52186e-19
9.04312e-09
-1.23706e-22
-2.66987e-23
2.78043e-08
-8.7258e-22
-2.02874e-22
4.76128e-08
-1.62838e-21
-4.03975e-22
6.85141e-08
-2.40738e-21
-5.8637e-22
9.05557e-08
-3.21788e-21
-7.98987e-22
1.13787e-07
-4.04755e-21
-1.01955e-21
1.38259e-07
-4.8687e-21
-1.26075e-21
1.64026e-07
-5.6959e-21
-1.52561e-21
1.91143e-07
-6.5137e-21
-1.82239e-21
2.19667e-07
-7.37647e-21
-2.05715e-21
2.49658e-07
-8.24845e-21
-2.27928e-21
2.8118e-07
-9.09618e-21
-2.62704e-21
3.14296e-07
-9.92204e-21
-3.02135e-21
3.49074e-07
-1.08521e-20
-3.35148e-21
3.85585e-07
-1.17498e-20
-3.76953e-21
4.239e-07
-1.26326e-20
-4.13148e-21
4.64095e-07
-1.36133e-20
-4.48731e-21
5.0625e-07
-1.45783e-20
-4.87796e-21
5.50446e-07
-1.55972e-20
-5.15634e-21
5.96767e-07
-1.67149e-20
-5.44492e-21
6.45301e-07
-1.77847e-20
-5.69249e-21
6.96142e-07
-1.89182e-20
-5.96852e-21
7.49382e-07
-2.01067e-20
-6.39339e-21
8.05123e-07
-2.12748e-20
-6.71616e-21
8.63465e-07
-2.22958e-20
-7.31636e-21
9.24517e-07
-2.33045e-20
-8.01958e-21
9.88388e-07
-2.44041e-20
-8.41097e-21
1.05519e-06
-2.55274e-20
-9.00966e-21
1.12506e-06
-2.66955e-20
-9.69135e-21
1.19809e-06
-2.79716e-20
-1.03115e-20
1.27444e-06
-2.92026e-20
-1.09483e-20
1.35423e-06
-3.04301e-20
-1.13624e-20
1.4376e-06
-3.17256e-20
-1.20747e-20
1.52469e-06
-3.31704e-20
-1.23769e-20
1.61566e-06
-3.43368e-20
-1.3377e-20
1.71066e-06
-3.60495e-20
-1.37809e-20
1.80985e-06
-3.69221e-20
-1.46632e-20
1.9134e-06
-3.82602e-20
-1.53931e-20
2.02149e-06
-3.96697e-20
-1.63666e-20
2.13428e-06
-4.0824e-20
-1.71998e-20
2.25198e-06
-4.22672e-20
-1.80035e-20
2.37477e-06
-4.33981e-20
-1.89336e-20
2.50286e-06
-4.43949e-20
-2.01079e-20
2.63645e-06
-4.60424e-20
-2.07909e-20
2.77576e-06
-4.71634e-20
-2.09428e-20
2.92102e-06
-4.90983e-20
-2.13913e-20
3.07245e-06
-5.04051e-20
-2.25303e-20
3.2303e-06
-5.06087e-20
-2.46804e-20
3.39482e-06
-5.29273e-20
-2.59778e-20
3.56626e-06
-5.48089e-20
-2.60263e-20
3.74489e-06
-5.5745e-20
-2.63947e-20
3.93099e-06
-5.55122e-20
-2.80401e-20
4.12484e-06
-5.6105e-20
-2.88028e-20
4.32673e-06
-5.73094e-20
-3.03107e-20
4.53697e-06
-5.88279e-20
-3.18495e-20
4.75588e-06
-6.06842e-20
-3.2197e-20
4.98377e-06
-6.08617e-20
-3.31337e-20
5.22098e-06
-6.26794e-20
-3.4255e-20
5.46784e-06
-6.29694e-20
-3.58228e-20
5.72472e-06
-6.36357e-20
-3.67984e-20
5.99197e-06
-6.48036e-20
-3.87196e-20
6.26996e-06
-6.55684e-20
-4.00892e-20
6.55907e-06
-6.6757e-20
-4.05503e-20
6.85969e-06
-6.76368e-20
-4.07426e-20
7.17221e-06
-6.84152e-20
-4.21184e-20
7.49703e-06
-6.89661e-20
-4.32434e-20
7.83457e-06
-7.15227e-20
-4.2847e-20
8.18523e-06
-7.23369e-20
-4.36743e-20
8.54945e-06
-7.5047e-20
-4.59491e-20
8.92763e-06
-7.51025e-20
-4.77144e-20
9.32021e-06
-7.45111e-20
-5.16257e-20
9.72762e-06
-7.75617e-20
-5.27842e-20
1.01503e-05
-7.72196e-20
-5.34655e-20
1.05886e-05
-7.96062e-20
-5.44051e-20
1.10431e-05
-8.17911e-20
-5.40985e-20
1.15141e-05
-8.17457e-20
-6.00291e-20
1.2002e-05
-8.21441e-20
-6.02401e-20
1.25073e-05
-8.29489e-20
-6.06636e-20
1.30304e-05
-8.2493e-20
-6.21457e-20
1.35716e-05
-8.27365e-20
-6.2514e-20
1.41314e-05
-8.27299e-20
-6.31234e-20
1.47101e-05
-8.22657e-20
-6.14513e-20
1.53081e-05
-8.14943e-20
-6.19113e-20
1.59257e-05
-8.07978e-20
-6.30456e-20
1.65633e-05
-7.99585e-20
-6.54313e-20
1.72212e-05
-7.50674e-20
-7.00436e-20
1.78997e-05
-7.334e-20
-6.53085e-20
1.85991e-05
-7.12637e-20
-6.64742e-20
1.93197e-05
-7.07032e-20
-6.40307e-20
2.00619e-05
-7.31747e-20
-6.4416e-20
2.08258e-05
-7.08364e-20
-6.28385e-20
2.16117e-05
-7.03453e-20
-6.05524e-20
2.24199e-05
-7.50471e-20
-6.24405e-20
2.32507e-05
-7.37166e-20
-6.28289e-20
2.41044e-05
-7.10414e-20
-5.76544e-20
2.49811e-05
-6.9902e-20
-5.44502e-20
2.58812e-05
-6.85851e-20
-5.36172e-20
2.68048e-05
-6.95285e-20
-4.65389e-20
2.77524e-05
-6.96588e-20
-4.30124e-20
2.87242e-05
-6.99455e-20
-4.19261e-20
2.97204e-05
-7.44809e-20
-3.93487e-20
3.07413e-05
-7.4201e-20
-3.56945e-20
3.17874e-05
-7.05434e-20
-3.2892e-20
3.28589e-05
-5.30218e-20
-3.6197e-20
3.39561e-05
-5.9685e-20
-2.76932e-20
3.50794e-05
-5.25327e-20
-3.32116e-20
3.62292e-05
-4.83862e-20
-3.24504e-20
3.74059e-05
-5.02446e-20
-1.73836e-20
3.86099e-05
-6.07834e-20
-1.48493e-20
3.98416e-05
-6.39477e-20
-1.22711e-20
4.11015e-05
-5.46793e-20
-1.00752e-20
4.23901e-05
-5.44812e-20
-4.57635e-21
4.37077e-05
-4.89403e-20
-5.24761e-21
4.5055e-05
-4.30096e-20
-4.69135e-21
4.64325e-05
-4.22611e-20
4.30565e-22
4.78407e-05
-2.37903e-20
6.84479e-21
4.92801e-05
-2.58778e-20
1.82708e-20
5.07514e-05
-3.76046e-20
2.53248e-20
5.22551e-05
-4.21597e-20
3.00489e-20
5.3792e-05
-2.97583e-20
2.33311e-20
5.53625e-05
-1.94657e-20
2.20927e-20
5.69675e-05
-8.22941e-21
2.59499e-20
5.86075e-05
-3.83564e-21
3.20595e-20
6.02833e-05
-3.94934e-21
3.81745e-20
6.19957e-05
-1.02186e-20
4.02887e-20
6.37452e-05
-1.19696e-21
3.99453e-20
6.55328e-05
-2.44794e-21
5.46428e-20
6.73592e-05
-4.19622e-21
5.74789e-20
6.92252e-05
4.75862e-22
5.36778e-20
7.11316e-05
-4.75655e-22
5.78062e-20
7.30793e-05
9.12676e-22
5.60661e-20
7.50691e-05
2.20165e-21
6.20421e-20
7.7102e-05
1.72696e-21
6.2441e-20
7.91787e-05
-1.2022e-20
6.30838e-20
8.13004e-05
-3.04349e-20
7.38988e-20
8.34678e-05
-3.75496e-20
8.3227e-20
8.5682e-05
-3.79236e-20
8.2209e-20
8.7944e-05
-1.42699e-22
6.36709e-20
9.02548e-05
-1.78995e-20
8.26136e-20
9.26154e-05
-3.0722e-20
9.61666e-20
9.50269e-05
-3.77754e-20
9.60792e-20
9.74904e-05
-4.37266e-20
9.1068e-20
0.000100007
-3.78611e-20
9.52881e-20
0.000102578
-4.81286e-20
1.00813e-19
0.000105204
-5.83667e-20
8.99297e-20
0.000107887
-4.84778e-20
9.28154e-20
0.000110627
-5.32476e-20
7.00002e-20
0.000113426
-5.04274e-20
6.81613e-20
0.000116286
-4.68754e-20
6.90809e-20
0.000119207
-7.54134e-20
6.68708e-20
0.000122191
-7.56511e-20
8.41424e-20
0.00012524
-9.09599e-20
7.67288e-20
0.000128353
-6.42995e-20
6.2152e-20
0.000131534
-7.05325e-20
5.64034e-20
0.000134783
-6.14079e-20
4.5962e-20
0.000138102
-6.75359e-20
4.61627e-20
0.000141492
-8.39302e-20
3.61591e-20
0.000144955
-8.46142e-20
3.3305e-20
0.000148492
-7.11385e-20
2.30346e-20
0.000152105
-7.3689e-20
4.71354e-20
0.000155795
-7.48427e-20
2.95021e-20
0.000159565
-7.97328e-20
5.0896e-20
0.000163416
-8.49642e-20
6.69051e-20
0.000167349
-8.04066e-20
5.05749e-20
0.000171366
-9.43577e-20
4.63142e-20
0.000175469
-1.24327e-19
5.81161e-20
0.00017966
-1.01891e-19
3.98883e-20
0.00018394
-1.071e-19
1.30557e-20
0.000188312
-1.21555e-19
-9.26069e-21
0.000192778
-1.09342e-19
-1.34421e-20
0.000197339
-1.04781e-19
-4.48065e-20
0.000201997
-1.12835e-19
-4.92402e-20
0.000206754
-1.22065e-19
-3.51056e-20
0.000211613
-1.09565e-19
-5.60914e-20
0.000216575
-1.45621e-19
-7.1498e-20
0.000221643
-1.48623e-19
-7.87984e-20
0.000226819
-1.48661e-19
-6.20312e-20
0.000232105
-1.85201e-19
-7.01551e-20
0.000237503
-1.72849e-19
-8.6848e-20
0.000243015
-1.63825e-19
-8.91629e-20
0.000248645
-1.60167e-19
-7.4526e-20
0.000254394
-1.3486e-19
-8.43488e-20
0.000260264
-1.45407e-19
-1.05773e-19
0.000266259
-9.60963e-20
-8.89e-20
0.00027238
-8.53119e-20
-1.20313e-19
0.000278631
-1.68081e-19
-8.86116e-20
0.000285013
-1.15533e-19
-1.14297e-19
0.00029153
-1.3588e-19
-7.49362e-20
0.000298184
-1.60036e-19
-1.04229e-19
0.000304978
-1.79708e-19
-9.73057e-20
0.000311915
-1.70032e-19
-1.3939e-19
0.000318997
-1.5892e-19
-8.99837e-20
0.000326228
-1.32617e-19
-1.29849e-19
0.00033361
-2.00859e-19
-1.2561e-19
0.000341146
-1.84376e-19
-1.45951e-19
0.000348839
-1.71561e-19
-9.90349e-20
0.000356693
-1.89174e-19
-1.29297e-19
0.00036471
-1.60007e-19
-1.33756e-19
0.000372894
-1.42282e-19
-1.73001e-19
0.000381247
-1.34376e-19
-2.10839e-19
0.000389773
-1.40596e-19
-2.10817e-19
0.000398476
-1.57551e-19
-2.25297e-19
0.000407357
-1.78455e-19
-2.24558e-19
0.000416422
-2.70998e-19
-1.83762e-19
0.000425673
-2.75433e-19
-2.57234e-19
0.000435113
-2.42198e-19
-2.95312e-19
0.000444747
-3.24704e-19
-2.51556e-19
0.000454577
-2.58992e-19
-2.29332e-19
0.000464607
-2.54943e-19
-2.87853e-19
0.00047484
-2.38967e-19
-2.63781e-19
0.000485281
-2.78057e-19
-2.61709e-19
0.000495932
-2.65778e-19
-2.08346e-19
0.000506798
-3.12581e-19
-2.58767e-19
0.000517881
-4.32719e-19
-2.06323e-19
0.000529186
-4.20461e-19
-2.2318e-19
0.000540716
-4.66212e-19
-3.25352e-19
0.000552475
-4.41042e-19
-3.45698e-19
0.000564466
-4.43704e-19
-3.71289e-19
0.000576692
-4.23038e-19
-4.88103e-19
0.000589158
-2.96103e-19
-3.50846e-19
0.000601867
-3.51554e-19
-4.11911e-19
0.000614821
-4.59971e-19
-3.33179e-19
0.000628026
-4.49493e-19
-3.74004e-19
0.000641483
-4.20239e-19
-2.51479e-19
0.000655196
-3.31289e-19
-3.25642e-19
0.000669168
-3.53464e-19
-3.40519e-19
0.000683402
-3.82192e-19
-2.4305e-19
0.000697901
-3.23372e-19
-2.54306e-19
0.000712666
-2.90798e-19
-2.81319e-19
0.000727701
-2.31807e-19
-3.63694e-19
0.000743008
-2.48951e-19
-3.40562e-19
0.000758588
-2.32504e-19
-3.0654e-19
0.000774442
-2.3597e-19
-1.84135e-19
0.000790572
-2.67957e-20
-1.54239e-19
0.000806978
-4.08306e-20
-1.72941e-19
0.00082366
-1.10283e-19
-3.63454e-20
0.000840617
-3.90138e-20
-8.4822e-20
0.00085785
-2.14706e-19
-1.77868e-19
0.000875354
-3.45042e-19
-1.71945e-19
0.000893128
-2.67686e-19
-2.76555e-19
0.000911168
-3.22039e-19
-3.30266e-19
0.00092947
-3.7838e-19
-4.31942e-19
0.000948027
-3.14965e-19
-3.88021e-19
0.000966832
-3.53135e-19
-4.53888e-19
0.000985878
-4.16662e-19
-4.49976e-19
0.00100515
-3.60698e-19
-3.23683e-19
0.00102465
-3.65944e-19
-4.16298e-19
0.00104436
-5.21377e-19
-5.75555e-19
0.00106425
-4.89308e-19
-5.00031e-19
0.00108433
-5.3072e-19
-4.75252e-19
0.00108433
-6.27085e-19
-3.85823e-20
-6.17583e-19
-4.08269e-20
0.00106425
-4.8368e-19
-2.83991e-20
-4.08755e-19
-2.48026e-20
0.00104436
-5.33569e-19
-2.42025e-20
-3.78004e-19
-3.44995e-20
0.00102465
-5.66741e-19
-2.36723e-20
-4.03506e-19
-2.78256e-20
0.00100515
-4.58474e-19
2.92859e-21
-3.63463e-19
-1.89158e-20
0.000985878
-2.61653e-19
1.83399e-20
-4.06491e-19
-1.9905e-20
0.000966832
-4.25943e-19
-2.53134e-21
-4.35154e-19
-9.78113e-21
0.000948027
-3.78559e-19
4.35136e-21
-3.92379e-19
-5.85157e-22
0.00092947
-3.41444e-19
1.03755e-20
-4.63077e-19
-4.23473e-21
0.000911168
-4.61817e-19
-3.59928e-21
-5.31428e-19
-3.85352e-21
0.000893128
-3.94036e-19
2.31711e-21
-5.51557e-19
-1.20346e-21
0.000875354
-5.6127e-19
-6.93428e-21
-3.71068e-19
-2.57257e-21
0.00085785
-4.27027e-19
5.35491e-21
-4.10155e-19
-3.51684e-21
0.000840617
-3.91915e-19
-1.053e-21
-4.99356e-19
1.76091e-21
0.00082366
-3.43972e-19
-7.58575e-21
-4.41982e-19
1.1775e-20
0.000806978
-4.56136e-19
-1.52697e-20
-2.88242e-19
1.14224e-20
0.000790572
-3.43451e-19
-1.31103e-20
-3.38294e-19
-1.99532e-21
0.000774442
-3.55323e-19
-1.4627e-20
-3.55949e-19
-2.77493e-21
0.000758587
-3.13952e-19
-1.66766e-20
-3.73389e-19
8.26186e-22
0.000743008
-3.52034e-19
-1.36354e-20
-3.45917e-19
8.82246e-21
0.000727701
-4.06358e-19
-7.74403e-21
-3.09412e-19
8.95795e-21
0.000712666
-2.70396e-19
-4.68824e-21
-3.00086e-19
5.48481e-21
0.000697901
-3.00343e-19
-1.69322e-21
-3.48786e-19
-4.3613e-21
0.000683402
-2.91583e-19
3.08318e-21
-2.47737e-19
-3.48074e-22
0.000669168
-3.20777e-19
6.39072e-21
-2.27134e-19
-2.55386e-21
0.000655196
-2.58376e-19
1.10963e-20
-2.24922e-19
-4.07006e-21
0.000641483
-2.50784e-19
8.54373e-21
-2.31431e-19
-5.77473e-21
0.000628026
-2.65426e-19
8.47634e-21
-3.04867e-19
-1.09996e-20
0.000614822
-3.09849e-19
4.27839e-21
-4.1536e-19
-9.82667e-21
0.000601867
-3.25441e-19
2.11395e-21
-3.81172e-19
-4.3794e-21
0.000589158
-3.46118e-19
4.30609e-21
-3.52771e-19
-1.78632e-21
0.000576692
-2.74754e-19
1.14647e-20
-3.97611e-19
2.75178e-21
0.000564466
-2.54294e-19
1.11337e-20
-2.83756e-19
1.05253e-20
0.000552475
-3.31757e-19
6.07624e-21
-3.15846e-19
8.87711e-21
0.000540716
-3.10721e-19
5.01845e-21
-3.05778e-19
5.72143e-21
0.000529186
-3.15307e-19
4.35716e-21
-3.3714e-19
4.49593e-21
0.000517881
-2.8143e-19
2.87042e-21
-3.13468e-19
-1.3965e-21
0.000506798
-4.11763e-19
3.11988e-21
-3.81645e-19
-8.25501e-22
0.000495932
-3.17388e-19
7.45565e-21
-4.31859e-19
4.74317e-22
0.000485281
-3.98912e-19
6.43374e-21
-3.72886e-19
1.25559e-21
0.00047484
-3.75377e-19
7.72252e-21
-4.19997e-19
7.19542e-22
0.000464607
-3.65085e-19
6.53479e-21
-4.19361e-19
1.4725e-21
0.000454577
-3.43569e-19
5.62761e-21
-3.06207e-19
3.91613e-22
0.000444747
-3.13032e-19
6.44431e-21
-3.64296e-19
-1.78625e-21
0.000435113
-3.16063e-19
5.06757e-21
-2.41261e-19
2.21589e-21
0.000425673
-2.75556e-19
4.61756e-21
-2.44568e-19
1.39382e-21
0.000416422
-2.16951e-19
4.04511e-21
-2.52574e-19
-2.03097e-21
0.000407357
-2.242e-19
2.4321e-21
-2.91398e-19
-2.72193e-21
0.000398476
-2.02339e-19
2.41742e-21
-2.96741e-19
-1.58743e-21
0.000389773
-1.73534e-19
1.96113e-21
-3.15882e-19
-7.84228e-22
0.000381247
-1.77159e-19
-2.45643e-22
-2.21646e-19
3.19364e-21
0.000372894
-1.04977e-19
-9.80989e-22
-1.16113e-19
4.11407e-21
0.00036471
-1.39589e-19
-2.33797e-21
-1.08646e-19
3.27063e-21
0.000356693
-8.76847e-20
-1.9142e-21
-1.16966e-19
1.88673e-21
0.000348839
-5.50688e-20
-2.83871e-21
-1.04999e-19
5.10622e-22
0.000341146
-1.40622e-19
-3.62283e-21
-1.24704e-19
1.48459e-22
0.00033361
-1.0318e-19
-2.54319e-21
-7.84499e-20
5.0878e-22
0.000326228
-8.05941e-20
-2.44575e-21
-5.34984e-20
-5.71535e-22
0.000318997
-2.30889e-20
-2.23022e-21
-7.37803e-20
-9.23096e-22
0.000311915
-1.39112e-19
-3.56e-21
-7.25673e-20
-5.66456e-22
0.000304978
-1.89457e-19
-3.12888e-21
-8.86825e-20
3.21454e-22
0.000298184
-1.2654e-19
-1.66966e-21
-7.60861e-20
1.48648e-21
0.00029153
-1.23937e-19
-1.42096e-21
-1.02051e-19
1.42031e-21
0.000285013
-1.05504e-19