/*--------------------------------*- C++ -*----------------------------------*\
| =========                 |                                                 |
| \\      /  F ield         | OpenFOAM: The Open Source CFD Toolbox           |
|  \\    /   O peration     | Version:  2106                                  |
|   \\  /    A nd           | Website:  www.openfoam.com                      |
|    \\/     M anipulation  |                                                 |
\*---------------------------------------------------------------------------*/
FoamFile
{
    version     2.0;
    format      ascii;
    arch        "LSB;label=32;scalar=64";
    class       surfaceScalarField;
    location    "10040";
    object      phi;
}
// * * * * * * * * * * * * * * * * * * * * * * * * * * * * * * * * * * * * * //

dimensions      [0 3 -1 0 0 0 0];

oriented        oriented;

internalField   nonuniform List<scalar> 
1596
(
7.04068e-08
-3.10716e-18
1.69612e-22
5.22052e-23
9.81459e-23
2.24721e-07
-3.1128e-18
2.06731e-21
3.22951e-21
3.7539e-22
4.01021e-07
-3.11891e-18
2.25408e-21
6.64146e-21
4.30356e-22
6.0177e-07
-3.1253e-18
2.38096e-21
1.01929e-20
4.9245e-22
8.29684e-07
-3.13196e-18
2.51052e-21
1.37082e-20
5.62467e-22
1.08776e-06
-3.13883e-18
2.64366e-21
1.73672e-20
6.41284e-22
1.37929e-06
-3.14593e-18
2.7744e-21
2.08509e-20
7.29844e-22
1.70791e-06
-3.15364e-18
2.90099e-21
2.47763e-20
8.29159e-22
2.07764e-06
-3.16144e-18
3.02296e-21
2.91903e-20
9.40284e-22
2.49287e-06
-3.16973e-18
3.13907e-21
3.29292e-20
1.06411e-21
2.95847e-06
-3.17791e-18
3.24725e-21
3.60282e-20
1.20183e-21
3.47977e-06
-3.18547e-18
3.34481e-21
4.00453e-20
1.3549e-21
4.06263e-06
-3.19387e-18
3.42847e-21
4.29553e-20
1.52436e-21
4.7135e-06
-3.2005e-18
3.49557e-21
4.46352e-20
1.71144e-21
5.43946e-06
-3.20717e-18
3.54229e-21
4.80399e-20
1.91737e-21
6.24824e-06
-3.21511e-18
3.56422e-21
4.91881e-20
2.14318e-21
7.14832e-06
-3.22155e-18
3.55775e-21
5.10078e-20
2.39012e-21
8.14895e-06
-3.22769e-18
3.51711e-21
5.25325e-20
2.65926e-21
9.26015e-06
-3.2317e-18
3.4369e-21
5.31319e-20
2.95057e-21
1.04928e-05
-3.23253e-18
3.31162e-21
4.93202e-20
3.26318e-21
1.18585e-05
-3.23774e-18
3.13332e-21
4.53151e-20
3.59936e-21
1.33698e-05
-3.24136e-18
2.89832e-21
4.26549e-20
3.9571e-21
1.50398e-05
-3.24237e-18
2.59661e-21
3.76772e-20
4.3373e-21
1.6882e-05
-3.24392e-18
2.2194e-21
2.98638e-20
4.73848e-21
1.89104e-05
-3.23737e-18
1.76363e-21
2.18623e-20
5.1505e-21
2.1139e-05
-3.23157e-18
1.22174e-21
1.4872e-20
5.56405e-21
2.35813e-05
-3.2289e-18
5.94116e-22
2.62599e-21
5.96864e-21
2.62503e-05
-3.21603e-18
-1.18531e-22
-1.66763e-20
6.35471e-21
2.91579e-05
-3.20378e-18
-9.26941e-22
-3.84268e-20
6.72071e-21
3.23146e-05
-3.18052e-18
-1.82242e-21
-6.57512e-20
7.07562e-21
3.57297e-05
-3.17263e-18
-2.79068e-21
-7.42099e-20
7.38656e-21
3.94111e-05
-3.15086e-18
-3.79796e-21
-1.02687e-19
7.60952e-21
4.33659e-05
-3.1217e-18
-4.843e-21
-1.33399e-19
7.76533e-21
4.76004e-05
-3.09324e-18
-5.92298e-21
-1.52457e-19
7.83603e-21
5.21208e-05
-3.06032e-18
-7.00685e-21
-1.89876e-19
7.77988e-21
5.69339e-05
-3.00974e-18
-8.08032e-21
-2.28381e-19
7.62989e-21
6.20472e-05
-2.93706e-18
-9.16658e-21
-2.93289e-19
7.37605e-21
6.74693e-05
-2.89542e-18
-1.02799e-20
-3.51681e-19
7.04443e-21
7.32104e-05
-2.83869e-18
-1.13151e-20
-4.08723e-19
6.66563e-21
7.92821e-05
-2.8051e-18
-1.24014e-20
-4.34216e-19
6.21606e-21
8.56977e-05
-2.77013e-18
-1.34696e-20
-4.77955e-19
5.63785e-21
9.24721e-05
-2.7036e-18
-1.45155e-20
-5.36687e-19
4.9926e-21
9.96218e-05
-2.65764e-18
-1.5596e-20
-5.70883e-19
4.32046e-21
0.000107165
-2.61952e-18
-1.6582e-20
-6.14947e-19
3.60753e-21
0.000115121
-2.55179e-18
-1.74361e-20
-6.60439e-19
2.89861e-21
0.000123512
-2.48937e-18
-1.82958e-20
-6.98321e-19
2.23725e-21
0.000132359
-2.42088e-18
-1.91031e-20
-7.65836e-19
1.42884e-21
0.000141688
-2.36503e-18
-1.99727e-20
-8.3534e-19
6.18735e-22
0.000151523
-2.28881e-18
-2.0673e-20
-8.88255e-19
-6.76969e-23
0.000161893
-2.25823e-18
-2.15931e-20
-9.25335e-19
-5.89848e-22
0.000172825
-2.19862e-18
-2.20541e-20
-9.68452e-19
-1.48155e-21
0.00018435
-2.09235e-18
-2.25738e-20
-9.78361e-19
-2.12881e-21
0.000196501
-2.0239e-18
-2.31491e-20
-1.02192e-18
-3.14664e-21
0.000209311
-1.9474e-18
-2.36419e-20
-1.05504e-18
-4.09157e-21
0.000222815
-1.88591e-18
-2.41333e-20
-1.01725e-18
-4.8546e-21
0.000237051
-1.81525e-18
-2.36883e-20
-1.05163e-18
-7.01637e-21
0.000252058
-1.68593e-18
-2.33698e-20
-1.10108e-18
-8.89177e-21
0.000267877
-1.69255e-18
-2.45593e-20
-1.09222e-18
-1.02202e-20
0.000284552
-1.7009e-18
-2.50323e-20
-1.08685e-18
-1.15662e-20
0.000302128
-1.55744e-18
-2.46738e-20
-1.12057e-18
-1.33264e-20
0.000320653
-1.52487e-18
-2.60354e-20
-1.03752e-18
-1.49185e-20
0.000340176
-1.46742e-18
-2.72888e-20
-1.07692e-18
-1.85929e-20
0.000360751
-1.4634e-18
-3.16547e-20
-1.04613e-18
-2.00001e-20
0.000382433
-1.45867e-18
-3.34042e-20
-1.01653e-18
-2.13724e-20
0.000405279
-1.31734e-18
-3.16994e-20
-1.02611e-18
-2.44861e-20
0.000429351
-1.25163e-18
-3.27737e-20
-1.06283e-18
-2.88245e-20
0.000454711
-1.18006e-18
-3.55974e-20
-9.66239e-19
-3.18869e-20
0.000481427
-1.1185e-18
-3.41748e-20
-9.85582e-19
-3.72064e-20
0.000509568
-1.08628e-18
-3.10946e-20
-1.00578e-18
-4.29257e-20
0.000539208
-1.01277e-18
-3.308e-20
-1.13415e-18
-4.77549e-20
0.000570422
-9.81047e-19
-4.21248e-20
-1.05053e-18
-4.42731e-20
0.000603292
-9.97147e-19
-4.4721e-20
-1.0422e-18
-4.08643e-20
0.000637901
-1.01093e-18
-4.44831e-20
-1.06159e-18
-3.93311e-20
0.000674336
-1.09392e-18
-5.12393e-20
-1.18923e-18
-3.74625e-20
0.00071269
-1.04507e-18
-5.52895e-20
-1.24169e-18
-2.46795e-20
0.000753057
-1.08371e-18
-5.36784e-20
-1.05726e-18
-9.28868e-21
0.000795537
-1.06592e-18
-3.97419e-20
-9.75641e-19
-3.30303e-21
0.000840235
-1.06192e-18
-2.65373e-20
-9.84965e-19
-6.59258e-21
0.000887257
-1.04485e-18
-1.14716e-20
-1.05258e-18
-4.70362e-21
0.000936718
-9.54143e-19
-3.95593e-21
-8.94728e-19
1.92108e-20
0.000988733
-9.03727e-19
-7.41251e-21
-7.99068e-19
1.76727e-20
0.00104342
-1.0006e-18
1.23004e-20
-7.9819e-19
5.36255e-21
0.00110091
-8.02166e-19
8.59365e-21
-8.43578e-19
1.41275e-21
0.00116133
-8.17148e-19
-6.23339e-21
-8.69382e-19
6.81591e-21
0.00122481
-8.35234e-19
-2.87406e-22
-9.37853e-19
-3.68867e-20
0.00129149
-1.00833e-18
-2.59662e-20
-9.30954e-19
-2.31573e-20
0.0013615
-9.18753e-19
-2.41764e-22
-8.5403e-19
-6.13155e-21
0.00143498
-7.81422e-19
9.49369e-21
-8.02922e-19
7.42366e-21
0.00151207
-7.44292e-19
8.34036e-21
-8.58633e-19
7.06729e-21
0.00159292
-6.18701e-19
-2.2412e-20
-7.20234e-19
1.04073e-20
0.00167764
-9.56983e-19
-9.83842e-20
-1.10259e-18
-9.31136e-21
0.00176637
-7.84938e-19
-1.79563e-20
-7.24633e-19
1.16608e-19
0.00185922
-5.72191e-19
3.86825e-20
-4.95378e-19
9.61518e-20
0.00195629
-4.87736e-19
8.72989e-20
-3.11339e-19
1.04141e-19
0.00205764
-4.62e-19
5.88284e-20
-4.13797e-19
1.23886e-20
0.0021633
-3.79843e-19
7.10454e-20
-5.56561e-19
1.44701e-20
0.00227324
-5.38635e-19
-2.76712e-20
-3.02437e-19
7.31365e-20
0.00238736
-6.53064e-19
-5.15615e-20
-4.4876e-19
-7.71424e-21
0.00250547
-5.26085e-20
1.051e-19
-3.09167e-19
-4.80256e-20
0.00262728
3.21974e-20
-2.0348e-19
3.94174e-20
-2.64189e-19
7.04068e-08
1.65347e-22
1.07452e-22
2.24721e-07
2.05461e-21
6.98419e-22
4.01021e-07
4.24632e-21
1.14262e-21
6.0177e-07
6.39543e-21
1.86063e-21
8.29684e-07
8.7741e-21
2.75153e-21
1.08776e-06
1.0941e-20
3.96487e-21
1.37929e-06
1.33784e-20
5.2217e-21
1.70791e-06
1.5837e-20
6.87727e-21
2.07764e-06
1.91112e-20
7.83865e-21
2.49287e-06
2.20615e-20
9.10383e-21
2.95847e-06
2.46286e-20
1.14672e-20
3.47977e-06
2.63789e-20
1.41531e-20
4.06263e-06
2.9732e-20
1.64839e-20
4.7135e-06
3.38198e-20
1.7801e-20
5.43946e-06
3.67184e-20
2.04454e-20
6.24824e-06
4.04805e-20
2.25835e-20
7.14832e-06
4.2365e-20
2.63065e-20
8.14895e-06
4.38921e-20
2.93096e-20
9.26015e-06
4.80851e-20
3.18621e-20
1.04928e-05
5.24319e-20
3.58236e-20
1.18585e-05
5.74706e-20
3.80223e-20
1.33698e-05
5.81602e-20
4.56263e-20
1.50398e-05
5.87345e-20
5.20354e-20
1.6882e-05
6.13184e-20
5.30267e-20
1.89104e-05
6.63433e-20
5.55329e-20
2.1139e-05
7.19359e-20
6.0042e-20
2.35813e-05
7.47729e-20
6.48491e-20
2.62503e-05
7.29073e-20
7.04394e-20
2.91579e-05
6.72592e-20
9.12886e-20
3.23146e-05
7.24177e-20
9.519e-20
3.57297e-05
7.09486e-20
9.59935e-20
3.94111e-05
6.55136e-20
1.04014e-19
4.33659e-05
5.6964e-20
1.11179e-19
4.76004e-05
5.58324e-20
1.10282e-19
5.21208e-05
5.51257e-20
1.14806e-19
5.69339e-05
5.36354e-20
1.22942e-19
6.20472e-05
6.4319e-20
1.19795e-19
6.74693e-05
8.08162e-20
1.311e-19
7.32104e-05
7.31312e-20
1.2701e-19
7.92821e-05
6.74776e-20
1.38835e-19
8.56977e-05
5.60597e-20
1.49661e-19
9.24721e-05
5.91676e-20
1.39931e-19
9.96218e-05
6.24926e-20
1.44439e-19
0.000107165
5.13395e-20
1.42749e-19
0.000115121
3.53311e-20
1.50249e-19
0.000123512
2.87057e-20
1.40293e-19
0.000132359
1.9939e-20
1.21722e-19
0.000141688
3.69426e-20
1.08547e-19
0.000151523
1.61892e-20
1.21464e-19
0.000161893
2.22394e-20
1.00103e-19
0.000172825
-2.04782e-20
1.11846e-19
0.00018435
-6.15671e-21
7.43273e-20
0.000196501
-9.40305e-21
7.94487e-20
0.000209311
-1.94735e-20
7.22671e-20
0.000222815
2.62424e-20
1.54229e-20
0.000237051
6.05524e-21
4.41936e-20
0.000252058
-2.90329e-20
3.85328e-20
0.000267877
-3.80586e-20
4.41976e-20
0.000284552
-3.7585e-20
2.5612e-20
0.000302128
-2.67952e-20
-3.06971e-21
0.000320653
-6.46731e-20
-4.38607e-20
0.000340176
-2.09321e-19
-4.99876e-20
0.000360751
-1.88653e-19
-6.02905e-20
0.000382433
-1.70806e-19
-9.63028e-20
0.000405279
-1.8167e-19
-1.34079e-19
0.000429351
-1.99664e-19
-1.73356e-19
0.000454711
-9.48853e-20
-1.35787e-19
0.000481427
-8.52927e-20
-1.53201e-19
0.000509568
-1.83742e-19
-1.97474e-19
0.000539208
-2.22542e-19
-1.88693e-19
0.000570422
-1.20563e-19
-1.43747e-19
0.000603292
-1.76998e-19
-2.05207e-19
0.000637901
-3.19134e-19
-2.34095e-19
0.000674336
-3.67251e-19
-2.72702e-19
0.00071269
-3.06612e-19
-3.93931e-19
0.000753057
-2.50585e-19
-3.17851e-19
0.000795537
-2.49239e-19
-2.5051e-19
0.000840235
-2.88543e-19
-2.77793e-19
0.000887257
-3.962e-19
-3.30432e-19
0.000936718
-4.6313e-19
-4.40281e-19
0.000988733
-3.59839e-19
-4.90062e-19
0.00104342
-7.09574e-19
-5.69054e-19
0.00110091
-6.58795e-19
-6.58462e-19
0.00116133
-5.86399e-19
-8.65735e-19
0.00122481
-7.2146e-19
-5.4254e-19
0.00129149
-7.41121e-19
-6.74592e-19
0.0013615
-8.35104e-19
-7.73442e-19
0.00143498
-7.54504e-19
-7.56889e-19
0.00151207
-7.88023e-19
-8.07596e-19
0.00159292
-7.3295e-19
-7.5679e-19
0.00167764
-6.88365e-19
-8.01275e-19
0.00176637
-6.60973e-19
-7.53977e-19
0.00185922
-4.54182e-19
-3.65484e-19
0.00195629
-5.46324e-19
-4.50616e-19
0.00205764
-4.35143e-19
-4.20366e-19
0.0021633
-4.80933e-19
-4.41005e-19
0.00227324
-5.23736e-19
-3.95272e-19
0.00238736
-4.67408e-19
-5.34679e-19
0.00250547
-1.88437e-19
-2.58274e-19
0.00262728
-2.90504e-19
-2.3384e-19
0.00262728
-3.35272e-19
-6.78328e-21
-2.82427e-19
1.00302e-19
0.00250547
-3.10864e-19
1.66629e-20
-1.07171e-19
4.68015e-22
0.00238736
2.65676e-20
-9.11205e-21
-2.05184e-19
-1.06832e-19
0.00227324
-6.07491e-20
5.53271e-20
-1.17718e-19
-6.94961e-20
0.0021633
-2.25166e-19
6.65133e-20
-1.59947e-20
-1.09186e-20
0.00205764
-5.30281e-19
-2.39163e-21
-4.02348e-19
-5.56878e-20
0.00195629
-6.10774e-20
1.36742e-19
-5.52307e-19
-5.15677e-20
0.00185922
-2.89718e-19
2.25899e-20
-2.75857e-19
8.79418e-21
0.00176637
-4.17445e-19
-1.854e-20
-3.51052e-19
-5.55181e-21
0.00167764
-3.95898e-19
-1.25922e-20
-3.93797e-19
4.37619e-20
0.00159292
-3.57562e-19
-2.46591e-20
-3.22987e-19
6.88929e-21
0.00151207
-2.9942e-19
-2.26909e-20
-3.17749e-19
-2.08047e-20
0.00143498
-3.20027e-19
1.69655e-21
-1.60334e-19
5.76315e-21
0.0013615
-2.98758e-19
2.11662e-20
-3.88609e-19
1.9223e-22
0.00129149
-2.32577e-19
4.19996e-20
-1.54251e-19
5.11173e-20
0.00122481
-2.16902e-19
1.38052e-20
-3.45447e-19
5.02817e-21
0.00116133
-2.31869e-19
-1.5068e-21
-2.06645e-19
-1.05156e-20
0.00110091
-1.82298e-19
-1.56477e-20
-2.13378e-19
-1.52746e-20
0.00104342
-9.45043e-20
-3.26447e-20
-3.11879e-19
-1.35863e-20
0.000988733
-1.79344e-19
-4.92602e-20
-1.11891e-19
-7.32535e-21
0.000936718
-1.70758e-19
-3.83543e-20
-7.75626e-20
-2.15231e-20
0.000887257
-1.77368e-19
-2.91041e-20
-8.8882e-20
-1.88435e-20
0.000840235
-1.47068e-19
-1.18602e-20
-2.20226e-19
-9.9968e-21
0.000795537
-5.31602e-20
6.61502e-23
-2.49886e-20
6.78571e-21
0.000753057
-8.20588e-20
-6.88126e-21
-2.49906e-20
-2.30881e-21
0.00071269
3.6317e-22
2.50373e-21
-8.20084e-20
-9.61301e-21
0.000674336
-8.27869e-20
-3.77981e-21
-5.6412e-20
-5.06282e-21
0.000637901
-1.13519e-19
3.10131e-22
7.87769e-22
5.42412e-21
0.000603292
-7.14675e-20
3.16328e-21
-5.71792e-20
8.76761e-21
0.000570422
-9.58299e-20
9.00209e-21
-5.82153e-20
1.31848e-20
0.000539208
-4.20241e-20
8.72633e-21
-1.1192e-19
1.12923e-20
0.000509568
-7.57863e-20
2.3209e-21
-3.34666e-20
7.32858e-21
0.000481427
-8.20967e-20
8.84716e-22
-4.7779e-20
1.71091e-21
0.000454711
-1.33649e-19
3.11326e-22
-6.77442e-20
-1.35188e-21
0.000429351
-1.12111e-19
5.5156e-22
-7.37982e-20
-1.03019e-21
0.000405279
-1.12172e-19
3.58054e-22
-7.70322e-20
-1.45601e-21
0.000382433
-1.13524e-19
-1.29735e-21
-7.46826e-20
-2.97407e-21
0.000360751
-9.14808e-20
-1.78391e-21
-3.71632e-20
-3.46038e-21
0.000340176
-1.06982e-19
-2.19009e-21
-6.56752e-20
-4.24008e-21
0.000320653
-1.14775e-19
-2.03685e-21
-4.62757e-20
-4.79118e-21
0.000302128
-2.17133e-20
-1.86536e-21
-8.28538e-20
-6.21e-21
0.000284552
-6.407e-20
-3.346e-21
-6.28247e-20
-6.44832e-21
0.000267877
-5.69679e-20
-3.66191e-21
-7.62236e-20
-6.01187e-21
0.000252058
-6.23472e-20
-3.94945e-21
-5.2386e-20
-5.52979e-21
0.000237051
-4.79824e-20
-3.46775e-21
-6.76387e-20
-5.29145e-21
0.000222815
-2.84005e-20
-3.18737e-21
-6.54814e-20
-4.6118e-21
0.000209311
-3.276e-20
-3.26116e-21
-6.73742e-20
-3.9277e-21
0.000196501
-2.97442e-20
-3.07014e-21
-5.40043e-20
-3.6863e-21
0.00018435
-4.88597e-21
-2.75322e-21
-2.88318e-20
-3.06712e-21
0.000172825
-1.51982e-20
-2.58519e-21
-2.8796e-20
-2.48763e-21
0.000161893
4.89877e-21
-2.05271e-21
-7.93806e-21
-2.15272e-21
0.000151523
3.4694e-20
-1.5974e-21
-4.25191e-20
-2.03053e-21
0.000141688
-5.93464e-21
-1.45531e-21
-3.58416e-20
-1.72907e-21
0.000132359
3.5263e-21
-1.19072e-21
-2.43899e-20
-1.4209e-21
0.000123512
-9.31011e-21
-1.01533e-21
-2.6341e-20
-1.12349e-21
0.000115121
-8.69402e-21
-8.69608e-22
-2.9487e-20
-8.76418e-22
0.000107165
-8.89587e-21
-7.29647e-22
-2.39495e-20
-6.56425e-22
9.96218e-05
-8.93307e-21
-6.47567e-22
-1.95571e-20
-4.64203e-22
9.24721e-05
-2.39044e-20
-5.64496e-22
-1.63621e-20
-3.15392e-22
8.56977e-05
-4.79098e-20
-4.6727e-22
1.37462e-20
-1.86966e-22
7.92821e-05
-5.14525e-20
-3.12107e-22
1.34236e-20
-1.75863e-22
7.32104e-05
-2.0638e-20
-1.80375e-22
-2.11757e-20
-1.5354e-22
6.74693e-05
-2.0938e-20
-1.61983e-22
-1.22384e-20
-7.62807e-23
6.20472e-05
-2.20053e-20
-1.16671e-22
-1.70295e-20
-7.57646e-23
5.69339e-05
-1.65652e-20
-8.69248e-23
-6.6165e-21
-4.78884e-23
5.21208e-05
-2.67653e-20
-6.14667e-23
1.44794e-21
-7.15529e-23
4.76004e-05
-2.29025e-20
-3.09162e-23
1.38155e-21
-9.59846e-23
4.33659e-05
-2.95297e-20
-1.46493e-24
8.08306e-22
-1.15922e-22
3.94111e-05
-2.6022e-20
2.24446e-23
6.20984e-21
-1.34919e-22
3.57297e-05
-1.5285e-20
3.69197e-23
1.64851e-22
-1.52549e-22
3.23146e-05
-9.39114e-21
3.28939e-23
-6.19524e-21
-1.60002e-22
2.91579e-05
-8.16276e-21
2.42761e-23
-7.50173e-21
-1.5474e-22
2.62503e-05
-8.09524e-21
2.39429e-23
-3.71534e-21
-1.44435e-22
2.35813e-05
-1.08559e-20
2.36969e-23
-3.79848e-21
-1.36528e-22
2.1139e-05
-7.74493e-21
2.46343e-23
-2.39592e-21
-1.27878e-22
1.89104e-05
-7.98844e-21
2.00863e-23
-4.05051e-21
-1.18812e-22
1.6882e-05
-7.95048e-21
1.9966e-23
-1.33255e-21
-1.10783e-22
1.50398e-05
-4.58565e-21
1.91506e-23
-5.33194e-23
-1.01047e-22
1.33698e-05
-1.60286e-21
1.69358e-23
-3.26015e-23
-9.26297e-23
1.18585e-05
-2.34288e-21
1.47326e-23
-1.07442e-21
-8.4972e-23
1.04928e-05
-5.38368e-22
1.37261e-23
-2.61145e-21
-7.68617e-23
9.26015e-06
4.82355e-22
1.15839e-23
-2.64381e-21
-6.79123e-23
8.14894e-06
-9.14219e-22
9.34073e-24
-1.97151e-21
-5.963e-23
7.14833e-06
-6.49474e-22
8.12425e-24
-7.13699e-23
-5.18823e-23
6.24824e-06
-6.32779e-22
7.05189e-24
-5.57805e-23
-4.58152e-23
5.43946e-06
-5.4921e-22
6.30866e-24
-2.12397e-22
-4.06777e-23
4.7135e-06
1.50839e-22
5.58129e-24
2.0345e-23
-3.57782e-23
4.06263e-06
1.06719e-22
4.81394e-24
-3.54824e-22
-3.15784e-23
3.47977e-06
3.82499e-22
4.36244e-24
-6.47768e-22
-2.76597e-23
2.95847e-06
2.0695e-22
3.8806e-24
-2.66117e-22
-2.41682e-23
2.49288e-06
7.67842e-23
3.42547e-24
-5.95717e-22
-2.11396e-23
2.07764e-06
1.41374e-22
3.09337e-24
-5.6542e-22
-1.84582e-23
1.70792e-06
2.93802e-23
2.74189e-24
-5.92667e-22
-1.60445e-23
1.37929e-06
3.48869e-23
2.43772e-24
-6.65859e-22
-1.39614e-23
1.08776e-06
-2.04088e-23
2.16501e-24
-2.83812e-22
-1.21484e-23
8.29683e-07
-1.51962e-23
1.88473e-24
-1.12323e-22
-1.05769e-23
6.01771e-07
2.55314e-23
1.63929e-24
-7.31106e-23
-9.20945e-24
4.01021e-07
2.03823e-23
1.42091e-24
-3.56592e-23
-8.01876e-24
2.2472e-07
8.2016e-24
1.22568e-24
-4.32596e-24
-6.98011e-24
7.04068e-08
-3.54242e-25
-1.66003e-24
0.00262728
-3.05494e-19
-3.88219e-19
0.00250547
-3.06471e-19
-2.07894e-19
0.00238736
1.39539e-19
-1.53203e-19
0.00227324
2.09489e-20
3.34014e-20
0.0021633
-2.36295e-19
3.8193e-21
0.00205764
-1.64359e-19
-3.33509e-19
0.00195629
-2.79867e-19
-3.59936e-19
0.00185922
-4.26495e-19
-2.67465e-19
0.00176637
-3.88219e-19
-1.93644e-19
0.00167764
-3.08068e-19
-4.13839e-19
0.00159292
-2.8251e-19
-3.48204e-19
0.00151207
-2.84107e-19
-3.11906e-19
0.00143498
-3.31569e-19
-3.08615e-19
0.0013615
-2.29445e-19
-1.94813e-19
0.00129149
-3.42013e-19
-2.91177e-19
0.00122481
-2.78803e-19
-3.77532e-19
0.00116133
-3.10631e-19
-2.7738e-19
0.00110091
-2.8969e-19
-2.43139e-19
0.00104342
-2.66889e-19
-2.91737e-19
0.000988733
-2.11021e-19
-2.81893e-19
0.000936718
-2.07385e-19
-1.72155e-19
0.000887257
-1.57022e-19
-1.46166e-19
0.000840235
-1.58063e-19
-1.33979e-19
0.000795537
-2.34996e-19
-1.70617e-19
0.000753057
-6.91088e-20
-1.79396e-19
0.00071269
-1.61001e-19
-1.17413e-19
0.000674336
-9.55776e-20
-5.51134e-20
0.000637901
-1.44713e-19
-9.04054e-20
0.000603292
-2.86551e-20
-3.98776e-20
0.000570422
-9.18731e-20
-5.92142e-20
0.000539208
-1.10694e-19
-1.16147e-19
0.000509568
-1.88843e-20
-7.31981e-20
0.000481427
4.71719e-21
-5.194e-20
0.000454711
-1.77961e-20
-5.41951e-21
0.000429351
-5.99826e-21
-3.02403e-20
0.000405279
-7.13068e-20
-4.85447e-20
0.000382433
-6.15164e-20
-4.18215e-20
0.000360751
-5.48106e-20
-7.30148e-20
0.000340176
-5.56376e-20
-9.08783e-20
0.000320653
-6.95915e-20
-1.00563e-19
0.000302128
-7.12329e-20
-1.03988e-19
0.000284552
-5.51426e-20
-8.1087e-20
0.000267877
-5.32519e-20
-8.44746e-20
0.000252058
-2.74936e-20
-6.18171e-20
0.000237051
-5.00373e-20
-7.41483e-20
0.000222815
-8.82346e-20
-7.24196e-20
0.000209311
-8.97181e-20
-1.0352e-19
0.000196501
-6.99373e-20
-7.51888e-20
0.00018435
-5.42234e-20
-4.05661e-20
0.000172825
-3.02191e-20
-3.73012e-20
0.000161893
-2.27379e-20
-3.44514e-20
0.000151523
-3.02547e-20
-4.18969e-20
0.000141688
-4.32643e-20
-3.02585e-20
0.000132359
-3.54224e-20
-6.43109e-21
0.000123512
-4.62693e-20
-6.56999e-21
0.000115121
-3.80357e-20
-1.10324e-20
0.000107165
-3.41295e-20
-6.18164e-21
9.96218e-05
-2.36548e-20
-1.48812e-20
9.24721e-05
-2.86669e-20
-1.55414e-20
8.56977e-05
-2.66487e-20
-1.28393e-20
7.92821e-05
-2.58595e-20
-1.80453e-21
7.32104e-05
-2.56283e-20
-2.40717e-21
6.74693e-05
-1.06165e-20
-1.41746e-20
6.20472e-05
-1.14292e-20
5.9363e-22
5.69339e-05
-3.51821e-21
-4.73043e-21
5.21208e-05
-9.57256e-21
-2.64049e-21
4.76004e-05
-3.76159e-21
-5.02723e-21
4.33659e-05
-9.84468e-21
-7.65682e-21
3.94111e-05
-1.02176e-20
-3.60174e-21
3.57297e-05
-1.46866e-20
-2.45721e-21
3.23146e-05
-1.67726e-20
-2.36331e-21
2.91579e-05
-1.10847e-20
-2.49084e-21
2.62503e-05
-1.04328e-20
-1.80565e-21
2.35813e-05
-8.95261e-21
-4.65195e-21
2.1139e-05
-1.07678e-20
-4.73279e-21
1.89104e-05
-5.87579e-21
-5.31203e-21
1.6882e-05
-6.34761e-21
6.41088e-22
1.50398e-05
-5.28534e-21
-1.77468e-21
1.33698e-05
-3.49868e-21
-3.82305e-21
1.18585e-05
-3.05138e-21
-3.51791e-21
1.04928e-05
-3.85713e-21
-1.85229e-21
9.26015e-06
-3.25811e-21
-1.23516e-21
8.14894e-06
-2.88081e-21
2.1934e-22
7.14833e-06
-2.92424e-21
2.86603e-22
6.24824e-06
-2.02581e-21
-2.44666e-22
5.43946e-06
-1.5513e-21
3.64853e-22
4.7135e-06
-7.55597e-22
-3.92651e-22
4.06263e-06
3.86518e-22
-5.20854e-22
3.47977e-06
6.79417e-22
-7.50544e-22
2.95847e-06
6.62462e-22
-2.35659e-22
2.49288e-06
8.42949e-22
-3.36602e-22
2.07764e-06
4.58289e-22
1.51665e-22
1.70792e-06
3.48068e-22
8.72403e-23
1.37929e-06
3.34523e-22
-1.1181e-22
1.08776e-06
-4.60046e-24
2.16925e-23
8.29683e-07
1.50957e-23
4.72474e-23
6.01771e-07
4.10116e-24
4.22255e-25
4.01021e-07
-7.84782e-23
1.65178e-24
2.2472e-07
-2.83371e-24
1.24619e-24
7.04068e-08
)
;

boundaryField
{
    walls
    {
        type            calculated;
        value           uniform 0;
    }
    inlet
    {
        type            cyclic;
        value           nonuniform List<scalar> 
400
(
-7.04068e-08
-2.24721e-07
-4.01021e-07
-6.0177e-07
-8.29684e-07
-1.08776e-06
-1.37929e-06
-1.70791e-06
-2.07764e-06
-2.49287e-06
-2.95847e-06
-3.47977e-06
-4.06263e-06
-4.7135e-06
-5.43946e-06
-6.24824e-06
-7.14832e-06
-8.14895e-06
-9.26015e-06
-1.04928e-05
-1.18585e-05
-1.33698e-05
-1.50398e-05
-1.6882e-05
-1.89104e-05
-2.1139e-05
-2.35813e-05
-2.62503e-05
-2.91579e-05
-3.23146e-05
-3.57297e-05
-3.94111e-05
-4.33659e-05
-4.76004e-05
-5.21208e-05
-5.69339e-05
-6.20472e-05
-6.74693e-05
-7.32104e-05
-7.92821e-05
-8.56977e-05
-9.24721e-05
-9.96218e-05
-0.000107165
-0.000115121
-0.000123512
-0.000132359
-0.000141688
-0.000151523
-0.000161893
-0.000172825
-0.00018435
-0.000196501
-0.000209311
-0.000222815
-0.000237051
-0.000252058
-0.000267877
-0.000284552
-0.000302128
-0.000320653
-0.000340176
-0.000360751
-0.000382433
-0.000405279
-0.000429351
-0.000454711
-0.000481427
-0.000509568
-0.000539208
-0.000570422
-0.000603292
-0.000637901
-0.000674336
-0.00071269
-0.000753057
-0.000795537
-0.000840235
-0.000887257
-0.000936718
-0.000988733
-0.00104342
-0.00110091
-0.00116133
-0.00122481
-0.00129149
-0.0013615
-0.00143498
-0.00151207
-0.00159292
-0.00167764
-0.00176637
-0.00185922
-0.00195629
-0.00205764
-0.0021633
-0.00227324
-0.00238736
-0.00250547
-0.00262728
-7.04068e-08
-2.24721e-07
-4.01021e-07
-6.0177e-07
-8.29684e-07
-1.08776e-06
-1.37929e-06
-1.70791e-06
-2.07764e-06
-2.49287e-06
-2.95847e-06
-3.47977e-06
-4.06263e-06
-4.7135e-06
-5.43946e-06
-6.24824e-06
-7.14832e-06
-8.14895e-06
-9.26015e-06
-1.04928e-05
-1.18585e-05
-1.33698e-05
-1.50398e-05
-1.6882e-05
-1.89104e-05
-2.1139e-05
-2.35813e-05
-2.62503e-05
-2.91579e-05
-3.23146e-05
-3.57297e-05
-3.94111e-05
-4.33659e-05
-4.76004e-05
-5.21208e-05
-5.69339e-05
-6.20472e-05
-6.74693e-05
-7.32104e-05
-7.92821e-05
-8.56977e-05
-9.24721e-05
-9.96218e-05
-0.000107165
-0.000115121
-0.000123512
-0.000132359
-0.000141688
-0.000151523
-0.000161893
-0.000172825
-0.00018435
-0.000196501
-0.000209311
-0.000222815
-0.000237051
-0.000252058
-0.000267877
-0.000284552
-0.000302128
-0.000320653
-0.000340176
-0.000360751
-0.000382433
-0.000405279
-0.000429351
-0.000454711
-0.000481427
-0.000509568
-0.000539208
-0.000570422
-0.000603292
-0.000637901
-0.000674336
-0.00071269
-0.000753057
-0.000795537
-0.000840235
-0.000887257
-0.000936718
-0.000988733
-0.00104342
-0.00110091
-0.00116133
-0.00122481
-0.00129149
-0.0013615
-0.00143498
-0.00151207
-0.00159292
-0.00167764
-0.00176637
-0.00185922
-0.00195629
-0.00205764
-0.0021633
-0.00227324
-0.00238736
-0.00250547
-0.00262728
-0.00262728
-0.00250547
-0.00238736
-0.00227324
-0.0021633
-0.00205764
-0.00195629
-0.00185922
-0.00176637
-0.00167764
-0.00159292
-0.00151207
-0.00143498
-0.0013615
-0.00129149
-0.00122481
-0.00116133
-0.00110091
-0.00104342
-0.000988733
-0.000936718
-0.000887257
-0.000840235
-0.000795537
-0.000753057
-0.00071269
-0.000674336
-0.000637901
-0.000603292
-0.000570422
-0.000539208
-0.000509568
-0.000481427
-0.000454711
-0.000429351
-0.000405279
-0.000382433
-0.000360751
-0.000340176
-0.000320653
-0.000302128
-0.000284552
-0.000267877
-0.000252058
-0.000237051
-0.000222815
-0.000209311
-0.000196501
-0.00018435
-0.000172825
-0.000161893
-0.000151523
-0.000141688
-0.000132359
-0.000123512
-0.000115121
-0.000107165
-9.96218e-05
-9.24721e-05
-8.56977e-05
-7.92821e-05
-7.32104e-05
-6.74693e-05
-6.20472e-05
-5.69339e-05
-5.21208e-05
-4.76004e-05
-4.33659e-05
-3.94111e-05
-3.57297e-05
-3.23146e-05
-2.91579e-05
-2.62503e-05
-2.35813e-05
-2.1139e-05
-1.89104e-05
-1.6882e-05
-1.50398e-05
-1.33698e-05
-1.18585e-05
-1.04928e-05
-9.26015e-06
-8.14894e-06
-7.14833e-06
-6.24824e-06
-5.43946e-06
-4.7135e-06
-4.06263e-06
-3.47977e-06
-2.95847e-06
-2.49288e-06
-2.07764e-06
-1.70792e-06
-1.37929e-06
-1.08776e-06
-8.29683e-07
-6.01771e-07
-4.01021e-07
-2.2472e-07
-7.04068e-08
-0.00262728
-0.00250547
-0.00238736
-0.00227324
-0.0021633
-0.00205764
-0.00195629
-0.00185922
-0.00176637
-0.00167764
-0.00159292
-0.00151207
-0.00143498
-0.0013615
-0.00129149
-0.00122481
-0.00116133
-0.00110091
-0.00104342
-0.000988733
-0.000936718
-0.000887257
-0.000840235
-0.000795537
-0.000753057
-0.00071269
-0.000674336
-0.000637901
-0.000603292
-0.000570422
-0.000539208
-0.000509568
-0.000481427
-0.000454711
-0.000429351
-0.000405279
-0.000382433
-0.000360751
-0.000340176
-0.000320653
-0.000302128
-0.000284552
-0.000267877
-0.000252058
-0.000237051
-0.000222815
-0.000209311
-0.000196501
-0.00018435
-0.000172825
-0.000161893
-0.000151523
-0.000141688
-0.000132359
-0.000123512
-0.000115121
-0.000107165
-9.96218e-05
-9.24721e-05
-8.56977e-05
-7.92821e-05
-7.32104e-05
-6.74693e-05
-6.20472e-05
-5.69339e-05
-5.21208e-05
-4.76004e-05
-4.33659e-05
-3.94111e-05
-3.57297e-05
-3.23146e-05
-2.91579e-05
-2.62503e-05
-2.35813e-05
-2.1139e-05
-1.89104e-05
-1.6882e-05
-1.50398e-05
-1.33698e-05
-1.18585e-05
-1.04928e-05
-9.26015e-06
-8.14894e-06
-7.14833e-06
-6.24824e-06
-5.43946e-06
-4.7135e-06
-4.06263e-06
-3.47977e-06
-2.95847e-06
-2.49288e-06
-2.07764e-06
-1.70792e-06
-1.37929e-06
-1.08776e-06
-8.29683e-07
-6.01771e-07
-4.01021e-07
-2.2472e-07
-7.04068e-08
)
;
    }
    outlet
    {
        type            cyclic;
        value           nonuniform List<scalar> 
400
(
7.04068e-08
2.24721e-07
4.01021e-07
6.0177e-07
8.29684e-07
1.08776e-06
1.37929e-06
1.70791e-06
2.07764e-06
2.49287e-06
2.95847e-06
3.47977e-06
4.06263e-06
4.7135e-06
5.43946e-06
6.24824e-06
7.14832e-06
8.14895e-06
9.26015e-06
1.04928e-05
1.18585e-05
1.33698e-05
1.50398e-05
1.6882e-05
1.89104e-05
2.1139e-05
2.35813e-05
2.62503e-05
2.91579e-05
3.23146e-05
3.57297e-05
3.94111e-05
4.33659e-05
4.76004e-05
5.21208e-05
5.69339e-05
6.20472e-05
6.74693e-05
7.32104e-05
7.92821e-05
8.56977e-05
9.24721e-05
9.96218e-05
0.000107165
0.000115121
0.000123512
0.000132359
0.000141688
0.000151523
0.000161893
0.000172825
0.00018435
0.000196501
0.000209311
0.000222815
0.000237051
0.000252058
0.000267877
0.000284552
0.000302128
0.000320653
0.000340176
0.000360751
0.000382433
0.000405279
0.000429351
0.000454711
0.000481427
0.000509568
0.000539208
0.000570422
0.000603292
0.000637901
0.000674336
0.00071269
0.000753057
0.000795537
0.000840235
0.000887257
0.000936718
0.000988733
0.00104342
0.00110091
0.00116133
0.00122481
0.00129149
0.0013615
0.00143498
0.00151207
0.00159292
0.00167764
0.00176637
0.00185922
0.00195629
0.00205764
0.0021633
0.00227324
0.00238736
0.00250547
0.00262728
7.04068e-08
2.24721e-07
4.01021e-07
6.0177e-07
8.29684e-07
1.08776e-06
1.37929e-06
1.70791e-06
2.07764e-06
2.49287e-06
2.95847e-06
3.47977e-06
4.06263e-06
4.7135e-06
5.43946e-06
6.24824e-06
7.14832e-06
8.14895e-06
9.26015e-06
1.04928e-05
1.18585e-05
1.33698e-05
1.50398e-05
1.6882e-05
1.89104e-05
2.1139e-05
2.35813e-05
2.62503e-05
2.91579e-05
3.23146e-05
3.57297e-05
3.94111e-05
4.33659e-05
4.76004e-05
5.21208e-05
5.69339e-05
6.20472e-05
6.74693e-05
7.32104e-05
7.92821e-05
8.56977e-05
9.24721e-05
9.96218e-05
0.000107165
0.000115121
0.000123512
0.000132359
0.000141688
0.000151523
0.000161893
0.000172825
0.00018435
0.000196501
0.000209311
0.000222815
0.000237051
0.000252058
0.000267877
0.000284552
0.000302128
0.000320653
0.000340176
0.000360751
0.000382433
0.000405279
0.000429351
0.000454711
0.000481427
0.000509568
0.000539208
0.000570422
0.000603292
0.000637901
0.000674336
0.00071269
0.000753057
0.000795537
0.000840235
0.000887257
0.000936718
0.000988733
0.00104342
0.00110091
0.00116133
0.00122481
0.00129149
0.0013615
0.00143498
0.00151207
0.00159292
0.00167764
0.00176637
0.00185922
0.00195629
0.00205764
0.0021633
0.00227324
0.00238736
0.00250547
0.00262728
0.00262728
0.00250547
0.00238736
0.00227324
0.0021633
0.00205764
0.00195629
0.00185922
0.00176637
0.00167764
0.00159292
0.00151207
0.00143498
0.0013615
0.00129149
0.00122481
0.00116133
0.00110091
0.00104342
0.000988733
0.000936718
0.000887257
0.000840235
0.000795537
0.000753057
0.00071269
0.000674336
0.000637901
0.000603292
0.000570422
0.000539208
0.000509568
0.000481427
0.000454711
0.000429351
0.000405279
0.000382433
0.000360751
0.000340176
0.000320653
0.000302128
0.000284552
0.000267877
0.000252058
0.000237051
0.000222815
0.000209311
0.000196501
0.00018435
0.000172825
0.000161893
0.000151523
0.000141688
0.000132359
0.000123512
0.000115121
0.000107165
9.96218e-05
9.24721e-05
8.56977e-05
7.92821e-05
7.32104e-05
6.74693e-05
6.20472e-05
5.69339e-05
5.21208e-05
4.76004e-05
4.33659e-05
3.94111e-05
3.57297e-05
3.23146e-05
2.91579e-05
2.62503e-05
2.35813e-05
2.1139e-05
1.89104e-05
1.6882e-05
1.50398e-05
1.33698e-05
1.18585e-05
1.04928e-05
9.26015e-06
8.14894e-06
7.14833e-06
6.24824e-06
5.43946e-06
4.7135e-06
4.06263e-06
3.47977e-06
2.95847e-06
2.49288e-06
2.07764e-06
1.70792e-06
1.37929e-06
1.08776e-06
8.29683e-07
6.01771e-07
4.01021e-07
2.2472e-07
7.04068e-08
0.00262728
0.00250547
0.00238736
0.00227324
0.0021633
0.00205764
0.00195629
0.00185922
0.00176637
0.00167764
0.00159292
0.00151207
0.00143498
0.0013615
0.00129149
0.00122481
0.00116133
0.00110091
0.00104342
0.000988733
0.000936718
0.000887257
0.000840235
0.000795537
0.000753057
0.00071269
0.000674336
0.000637901
0.000603292
0.000570422
0.000539208
0.000509568
0.000481427