/*--------------------------------*- C++ -*----------------------------------*\
| =========                 |                                                 |
| \\      /  F ield         | OpenFOAM: The Open Source CFD Toolbox           |
|  \\    /   O peration     | Version:  2106                                  |
|   \\  /    A nd           | Website:  www.openfoam.com                      |
|    \\/     M anipulation  |                                                 |
\*---------------------------------------------------------------------------*/
FoamFile
{
    version     2.0;
    format      ascii;
    arch        "LSB;label=32;scalar=64";
    class       volSymmTensorField;
    location    "10040";
    object      turbulenceProperties:R;
}
// * * * * * * * * * * * * * * * * * * * * * * * * * * * * * * * * * * * * * //

dimensions      [0 2 -2 0 0 0 0];

internalField   nonuniform List<symmTensor> 
2000
(
(2.06926e-08 -7.30892e-14 -1.35274e-16 2.06926e-08 8.90334e-28 2.06926e-08)
(2.06926e-08 -7.30892e-14 -1.35274e-16 2.06926e-08 1.48517e-28 2.06926e-08)
(3.10336e-09 -6.31451e-14 -3.52811e-16 3.10336e-09 2.46294e-28 3.10336e-09)
(3.10336e-09 -6.31451e-14 -3.52811e-16 3.10336e-09 2.87409e-28 3.10336e-09)
(1.43286e-09 -8.63233e-14 -6.69217e-16 1.43286e-09 2.89271e-28 1.43286e-09)
(1.43286e-09 -8.63233e-14 -6.69217e-16 1.43286e-09 3.07373e-29 1.43286e-09)
(2.35967e-09 -3.02695e-13 -2.39043e-15 2.35967e-09 5.37724e-28 2.35967e-09)
(2.35967e-09 -3.02695e-13 -2.39043e-15 2.35967e-09 1.08405e-28 2.35967e-09)
(5.41285e-09 -1.23017e-12 -9.89618e-15 5.41285e-09 2.40833e-27 5.41285e-09)
(5.41285e-09 -1.23017e-12 -9.89618e-15 5.41285e-09 4.42718e-28 5.41285e-09)
(1.1356e-08 -4.08085e-12 -3.34414e-14 1.1356e-08 7.87533e-27 1.1356e-08)
(1.1356e-08 -4.08085e-12 -3.34414e-14 1.1356e-08 1.47505e-27 1.1356e-08)
(2.13095e-08 -1.12197e-11 -9.36588e-14 2.13095e-08 2.20725e-26 2.13095e-08)
(2.13095e-08 -1.12197e-11 -9.36588e-14 2.13095e-08 4.07062e-27 2.13095e-08)
(3.66301e-08 -2.67653e-11 -2.27598e-13 3.66301e-08 5.40389e-26 3.66301e-08)
(3.66301e-08 -2.67653e-11 -2.27598e-13 3.66301e-08 9.74097e-27 3.66301e-08)
(5.88945e-08 -5.73564e-11 -4.96833e-13 5.88945e-08 1.18726e-25 5.88945e-08)
(5.88945e-08 -5.73564e-11 -4.96833e-13 5.88945e-08 2.09287e-26 5.88945e-08)
(8.9906e-08 -1.13116e-10 -9.98127e-13 8.9906e-08 2.39643e-25 8.9906e-08)
(8.9906e-08 -1.13116e-10 -9.98127e-13 8.9906e-08 4.13594e-26 8.9906e-08)
(1.3171e-07 -2.08847e-10 -1.87724e-12 1.3171e-07 3.65311e-25 1.3171e-07)
(1.3171e-07 -2.08847e-10 -1.87724e-12 1.3171e-07 7.64463e-26 1.3171e-07)
(1.86609e-07 -3.65494e-10 -3.34659e-12 1.86609e-07 4.1759e-25 1.86609e-07)
(1.86609e-07 -3.65494e-10 -3.34659e-12 1.86609e-07 1.33859e-25 1.86609e-07)
(2.57187e-07 -6.11929e-10 -5.70762e-12 2.57187e-07 5.75868e-25 2.57187e-07)
(2.57187e-07 -6.11929e-10 -5.70762e-12 2.57187e-07 2.24194e-25 2.57187e-07)
(3.4633e-07 -9.87103e-10 -9.37882e-12 3.4633e-07 9.51656e-25 3.4633e-07)
(3.4633e-07 -9.87103e-10 -9.37882e-12 3.4633e-07 3.61452e-25 3.4633e-07)
(4.57247e-07 -1.54263e-09 -1.49306e-11 4.57247e-07 1.52477e-24 4.57247e-07)
(4.57247e-07 -1.54263e-09 -1.49306e-11 4.57247e-07 5.64142e-25 4.57247e-07)
(5.93504e-07 -2.34586e-09 -2.31286e-11 5.93504e-07 2.37586e-24 5.93504e-07)
(5.93504e-07 -2.34586e-09 -2.31286e-11 5.93504e-07 8.56386e-25 5.93504e-07)
(7.59046e-07 -3.48355e-09 -3.49866e-11 7.59046e-07 3.61491e-24 7.59046e-07)
(7.59046e-07 -3.48355e-09 -3.49866e-11 7.59046e-07 1.26838e-24 7.59046e-07)
(9.58233e-07 -5.0662e-09 -5.18314e-11 9.58233e-07 5.39422e-24 9.58233e-07)
(9.58233e-07 -5.0662e-09 -5.18314e-11 9.58233e-07 1.83784e-24 9.58233e-07)
(1.19587e-06 -7.2331e-09 -7.53818e-11 1.19587e-06 7.90791e-24 1.19587e-06)
(1.19587e-06 -7.2331e-09 -7.53818e-11 1.19587e-06 2.61199e-24 1.19587e-06)
(1.47724e-06 -1.01584e-08 -1.07845e-10 1.47724e-06 1.14018e-23 1.47724e-06)
(1.47724e-06 -1.01584e-08 -1.07845e-10 1.47724e-06 3.64813e-24 1.47724e-06)
(1.80815e-06 -1.4058e-08 -1.52029e-10 1.80815e-06 1.62058e-23 1.80815e-06)
(1.80815e-06 -1.4058e-08 -1.52029e-10 1.80815e-06 5.013e-24 1.80815e-06)
(2.19496e-06 -1.91978e-08 -2.11488e-10 2.19496e-06 2.27438e-23 2.19496e-06)
(2.19496e-06 -1.91978e-08 -2.11488e-10 2.19496e-06 6.79085e-24 2.19496e-06)
(2.64466e-06 -2.59031e-08 -2.90681e-10 2.64466e-06 3.15435e-23 2.64466e-06)
(2.64466e-06 -2.59031e-08 -2.90681e-10 2.64466e-06 9.08452e-24 2.64466e-06)
(3.16487e-06 -3.45696e-08 -3.95177e-10 3.16487e-06 4.32784e-23 3.16487e-06)
(3.16487e-06 -3.45696e-08 -3.95177e-10 3.16487e-06 1.20048e-23 3.16487e-06)
(3.76392e-06 -4.56763e-08 -5.31886e-10 3.76392e-06 5.8805e-23 3.76392e-06)
(3.76392e-06 -4.56763e-08 -5.31886e-10 3.76392e-06 1.60313e-23 3.76392e-06)
(4.4509e-06 -5.98e-08 -7.09348e-10 4.4509e-06 7.91564e-23 4.4509e-06)
(4.4509e-06 -5.98e-08 -7.09348e-10 4.4509e-06 2.47345e-23 4.4509e-06)
(5.23571e-06 -7.76322e-08 -9.3806e-10 5.23571e-06 1.05675e-22 5.23571e-06)
(5.23571e-06 -7.76322e-08 -9.3806e-10 5.23571e-06 3.6803e-23 5.23571e-06)
(6.12914e-06 -9.99986e-08 -1.23087e-09 6.12914e-06 1.40113e-22 6.12914e-06)
(6.12914e-06 -9.99986e-08 -1.23087e-09 6.12914e-06 4.80439e-23 6.12914e-06)
(7.14291e-06 -1.27881e-07 -1.60345e-09 7.14291e-06 1.84575e-22 7.14291e-06)
(7.14291e-06 -1.27881e-07 -1.60345e-09 7.14291e-06 6.22155e-23 7.14291e-06)
(8.28978e-06 -1.62444e-07 -2.07484e-09 8.28978e-06 2.41546e-22 8.28978e-06)
(8.28978e-06 -1.62444e-07 -2.07484e-09 8.28978e-06 7.99724e-23 8.28978e-06)
(9.58357e-06 -2.05063e-07 -2.66807e-09 9.58357e-06 3.1401e-22 9.58357e-06)
(9.58357e-06 -2.05063e-07 -2.66807e-09 9.58357e-06 1.02101e-22 9.58357e-06)
(1.10393e-05 -2.57356e-07 -3.41094e-09 1.10393e-05 4.05677e-22 1.10393e-05)
(1.10393e-05 -2.57356e-07 -3.41094e-09 1.10393e-05 1.29638e-22 1.10393e-05)
(1.26732e-05 -3.21225e-07 -4.3369e-09 1.26732e-05 5.21338e-22 1.26732e-05)
(1.26732e-05 -3.21225e-07 -4.3369e-09 1.26732e-05 1.63753e-22 1.26732e-05)
(1.45029e-05 -3.98895e-07 -5.48604e-09 1.45029e-05 6.67104e-22 1.45029e-05)
(1.45029e-05 -3.98895e-07 -5.48604e-09 1.45029e-05 2.05908e-22 1.45029e-05)
(1.65475e-05 -4.92966e-07 -6.90633e-09 1.65475e-05 8.49721e-22 1.65475e-05)
(1.65475e-05 -4.92966e-07 -6.90633e-09 1.65475e-05 2.57355e-22 1.65475e-05)
(1.88276e-05 -6.06465e-07 -8.65496e-09 1.88276e-05 9.52729e-22 1.88276e-05)
(1.88276e-05 -6.06465e-07 -8.65496e-09 1.88276e-05 3.19935e-22 1.88276e-05)
(2.13653e-05 -7.42908e-07 -1.08e-08 2.13653e-05 5.07161e-24 2.13653e-05)
(2.13653e-05 -7.42908e-07 -1.08e-08 2.13653e-05 3.95916e-22 2.13653e-05)
(2.41848e-05 -9.0637e-07 -1.34222e-08 2.41848e-05 -9.8881e-23 2.41848e-05)
(2.41848e-05 -9.0637e-07 -1.34222e-08 2.41848e-05 4.87414e-22 2.41848e-05)
(2.7312e-05 -1.10157e-06 -1.66172e-08 2.7312e-05 -1.28604e-22 2.7312e-05)
(2.7312e-05 -1.10157e-06 -1.66172e-08 2.7312e-05 5.99719e-22 2.7312e-05)
(3.07747e-05 -1.33393e-06 -2.04979e-08 3.07747e-05 -1.63451e-22 3.07747e-05)
(3.07747e-05 -1.33393e-06 -2.04979e-08 3.07747e-05 7.35271e-22 3.07747e-05)
(3.46031e-05 -1.60974e-06 -2.51975e-08 3.46031e-05 -2.04633e-22 3.46031e-05)
(3.46031e-05 -1.60974e-06 -2.51975e-08 3.46031e-05 8.9613e-22 3.46031e-05)
(3.88295e-05 -1.93617e-06 -3.08726e-08 3.88295e-05 -2.52102e-22 3.88295e-05)
(3.88295e-05 -1.93617e-06 -3.08726e-08 3.88295e-05 1.08866e-21 3.88295e-05)
(4.34888e-05 -2.32147e-06 -3.77069e-08 4.34888e-05 -3.08879e-22 4.34888e-05)
(4.34888e-05 -2.32147e-06 -3.77069e-08 4.34888e-05 1.31605e-21 4.34888e-05)
(4.86183e-05 -2.77508e-06 -4.59156e-08 4.86183e-05 -3.72595e-22 4.86183e-05)
(4.86183e-05 -2.77508e-06 -4.59156e-08 4.86183e-05 1.58616e-21 4.86183e-05)
(5.42581e-05 -3.30777e-06 -5.57501e-08 5.42581e-05 -4.35626e-22 5.42581e-05)
(5.42581e-05 -3.30777e-06 -5.57501e-08 5.42581e-05 1.90395e-21 5.42581e-05)
(6.04514e-05 -3.9318e-06 -6.75038e-08 6.04514e-05 -5.20267e-22 6.04514e-05)
(6.04514e-05 -3.9318e-06 -6.75038e-08 6.04514e-05 2.27925e-21 6.04514e-05)
(6.72442e-05 -4.66113e-06 -8.15179e-08 6.72442e-05 -6.23563e-22 6.72442e-05)
(6.72442e-05 -4.66113e-06 -8.15179e-08 6.72442e-05 2.73326e-21 6.72442e-05)
(7.46859e-05 -5.51158e-06 -9.81887e-08 7.46859e-05 -7.18176e-22 7.46859e-05)
(7.46859e-05 -5.51158e-06 -9.81887e-08 7.46859e-05 3.25015e-21 7.46859e-05)
(8.28293e-05 -6.50104e-06 -1.17975e-07 8.28293e-05 -8.23664e-22 8.28293e-05)
(8.28293e-05 -6.50104e-06 -1.17975e-07 8.28293e-05 3.83359e-21 8.28293e-05)
(9.17306e-05 -7.64975e-06 -1.41409e-07 9.17306e-05 -9.46433e-22 9.17306e-05)
(9.17306e-05 -7.64975e-06 -1.41409e-07 9.17306e-05 4.54168e-21 9.17306e-05)
(0.00010145 -8.98049e-06 -1.69103e-07 0.00010145 -1.05954e-21 0.00010145)
(0.00010145 -8.98049e-06 -1.69103e-07 0.00010145 5.37815e-21 0.00010145)
(0.000112052 -1.05189e-05 -2.01762e-07 0.000112052 -1.16049e-21 0.000112052)
(0.000112052 -1.05189e-05 -2.01762e-07 0.000112052 6.30564e-21 0.000112052)
(0.000123604 -1.22935e-05 -2.40197e-07 0.000123604 -1.30587e-21 0.000123604)
(0.000123604 -1.22935e-05 -2.40197e-07 0.000123604 7.39587e-21 0.000123604)
(0.000136179 -1.43367e-05 -2.85335e-07 0.000136179 -1.47318e-21 0.000136179)
(0.000136179 -1.43367e-05 -2.85335e-07 0.000136179 8.66748e-21 0.000136179)
(0.000149853 -1.6684e-05 -3.38238e-07 0.000149853 -1.57134e-21 0.000149853)
(0.000149853 -1.6684e-05 -3.38238e-07 0.000149853 1.00804e-20 0.000149853)
(0.000164708 -1.93754e-05 -4.00116e-07 0.000164708 -1.64836e-21 0.000164708)
(0.000164708 -1.93754e-05 -4.00116e-07 0.000164708 1.17368e-20 0.000164708)
(0.00018083 -2.24549e-05 -4.72343e-07 0.00018083 -1.73071e-21 0.00018083)
(0.00018083 -2.24549e-05 -4.72343e-07 0.00018083 1.36294e-20 0.00018083)
(0.000198308 -2.59713e-05 -5.56477e-07 0.000198308 -1.70746e-21 0.000198308)
(0.000198308 -2.59713e-05 -5.56477e-07 0.000198308 1.57296e-20 0.000198308)
(0.000217239 -2.99782e-05 -6.54282e-07 0.000217239 -1.64831e-21 0.000217239)
(0.000217239 -2.99782e-05 -6.54282e-07 0.000217239 1.81343e-20 0.000217239)
(0.000237723 -3.45344e-05 -7.67742e-07 0.000237723 -1.53746e-21 0.000237723)
(0.000237723 -3.45344e-05 -7.67742e-07 0.000237723 2.0885e-20 0.000237723)
(0.000259862 -3.97043e-05 -8.99086e-07 0.000259862 -1.20295e-21 0.000259862)
(0.000259862 -3.97043e-05 -8.99086e-07 0.000259862 2.39933e-20 0.000259862)
(0.000283768 -4.55579e-05 -1.05081e-06 0.000283768 -6.47549e-22 0.000283768)
(0.000283768 -4.55579e-05 -1.05081e-06 0.000283768 2.74858e-20 0.000283768)
(0.000309552 -5.21709e-05 -1.22569e-06 0.000309552 5.85412e-23 0.000309552)
(0.000309552 -5.21709e-05 -1.22569e-06 0.000309552 3.12306e-20 0.000309552)
(0.000337332 -5.96249e-05 -1.42682e-06 0.000337332 8.57785e-22 0.000337332)
(0.000337332 -5.96249e-05 -1.42682e-06 0.000337332 3.54258e-20 0.000337332)
(0.000367229 -6.80074e-05 -1.65761e-06 0.000367229 2.10855e-21 0.000367229)
(0.000367229 -6.80074e-05 -1.65761e-06 0.000367229 4.01625e-20 0.000367229)
(0.000399368 -7.74116e-05 -1.92181e-06 0.000399368 3.7937e-21 0.000399368)
(0.000399368 -7.74116e-05 -1.92181e-06 0.000399368 4.50339e-20 0.000399368)
(0.000433874 -8.79363e-05 -2.22355e-06 0.000433874 5.14588e-21 0.000433874)
(0.000433874 -8.79363e-05 -2.22355e-06 0.000433874 5.05228e-20 0.000433874)
(0.000470876 -9.96851e-05 -2.56731e-06 0.000470876 7.19168e-21 0.000470876)
(0.000470876 -9.96851e-05 -2.56731e-06 0.000470876 5.71323e-20 0.000470876)
(0.000510505 -0.000112766 -2.95796e-06 0.000510505 1.0466e-20 0.000510505)
(0.000510505 -0.000112766 -2.95796e-06 0.000510505 6.39594e-20 0.000510505)
(0.000552889 -0.000127292 -3.40072e-06 0.000552889 1.42452e-20 0.000552889)
(0.000552889 -0.000127292 -3.40072e-06 0.000552889 7.07931e-20 0.000552889)
(0.000598157 -0.000143377 -3.90122e-06 0.000598157 1.91879e-20 0.000598157)
(0.000598157 -0.000143377 -3.90122e-06 0.000598157 7.7931e-20 0.000598157)
(0.000646436 -0.000161138 -4.46543e-06 0.000646436 8.59314e-20 0.000646436)
(0.000646436 -0.000161138 -4.46543e-06 0.000646436 8.51358e-20 0.000646436)
(0.000697847 -0.00018069 -5.09963e-06 0.000697847 1.94783e-19 0.000697847)
(0.000697847 -0.00018069 -5.09963e-06 0.000697847 9.23672e-20 0.000697847)
(0.000752509 -0.00020215 -5.81045e-06 0.000752509 2.51182e-19 0.000752509)
(0.000752509 -0.00020215 -5.81045e-06 0.000752509 1.00427e-19 0.000752509)
(0.000810532 -0.000225629 -6.60475e-06 0.000810532 2.85348e-19 0.000810532)
(0.000810532 -0.000225629 -6.60475e-06 0.000810532 2.07446e-19 0.000810532)
(0.000872018 -0.000251235 -7.4896e-06 0.000872018 3.25652e-19 0.000872018)
(0.000872018 -0.000251235 -7.4896e-06 0.000872018 3.70679e-19 0.000872018)
(0.000937057 -0.000279067 -8.47222e-06 0.000937057 3.71814e-19 0.000937057)
(0.000937057 -0.000279067 -8.47222e-06 0.000937057 4.45574e-19 0.000937057)
(0.00100573 -0.000309214 -9.55991e-06 0.00100573 4.25262e-19 0.00100573)
(0.00100573 -0.000309214 -9.55991e-06 0.00100573 4.92203e-19 0.00100573)
(0.0010781 -0.000341757 -1.07599e-05 0.0010781 4.80002e-19 0.0010781)
(0.0010781 -0.000341757 -1.07599e-05 0.0010781 5.40051e-19 0.0010781)
(0.00115421 -0.00037676 -1.20795e-05 0.00115421 5.31291e-19 0.00115421)
(0.00115421 -0.00037676 -1.20795e-05 0.00115421 5.90913e-19 0.00115421)
(0.00123411 -0.000414271 -1.35255e-05 0.00123411 5.88263e-19 0.00123411)
(0.00123411 -0.000414271 -1.35255e-05 0.00123411 6.48301e-19 0.00123411)
(0.00131779 -0.000454322 -1.51048e-05 0.00131779 6.52694e-19 0.00131779)
(0.00131779 -0.000454322 -1.51048e-05 0.00131779 7.00889e-19 0.00131779)
(0.00140524 -0.000496924 -1.68235e-05 0.00140524 7.16164e-19 0.00140524)
(0.00140524 -0.000496924 -1.68235e-05 0.00140524 7.56232e-19 0.00140524)
(0.00149645 -0.000542067 -1.86875e-05 0.00149645 7.77096e-19 0.00149645)
(0.00149645 -0.000542067 -1.86875e-05 0.00149645 8.21296e-19 0.00149645)
(0.00159134 -0.00058972 -2.0702e-05 0.00159134 8.41645e-19 0.00159134)
(0.00159134 -0.00058972 -2.0702e-05 0.00159134 8.84884e-19 0.00159134)
(0.00168984 -0.000639829 -2.28717e-05 0.00168984 9.1482e-19 0.00168984)
(0.00168984 -0.000639829 -2.28717e-05 0.00168984 9.35693e-19 0.00168984)
(0.00179186 -0.000692319 -2.52002e-05 0.00179186 9.82398e-19 0.00179186)
(0.00179186 -0.000692319 -2.52002e-05 0.00179186 9.83075e-19 0.00179186)
(0.00189726 -0.000747091 -2.76907e-05 0.00189726 1.04866e-18 0.00189726)
(0.00189726 -0.000747091 -2.76907e-05 0.00189726 1.04178e-18 0.00189726)
(0.00200589 -0.000804025 -3.03455e-05 0.00200589 1.13581e-18 0.00200589)
(0.00200589 -0.000804025 -3.03455e-05 0.00200589 1.09765e-18 0.00200589)
(0.00211758 -0.000862983 -3.31659e-05 0.00211758 1.22499e-18 0.00211758)
(0.00211758 -0.000862983 -3.31659e-05 0.00211758 1.1546e-18 0.00211758)
(0.00223215 -0.000923809 -3.61524e-05 0.00223215 1.31148e-18 0.00223215)
(0.00223215 -0.000923809 -3.61524e-05 0.00223215 1.21271e-18 0.00223215)
(0.00234937 -0.000986331 -3.93048e-05 0.00234937 1.41244e-18 0.00234937)
(0.00234937 -0.000986331 -3.93048e-05 0.00234937 1.25153e-18 0.00234937)
(0.00246901 -0.00105036 -4.2622e-05 0.00246901 1.4973e-18 0.00246901)
(0.00246901 -0.00105036 -4.2622e-05 0.00246901 1.29437e-18 0.00246901)
(0.00259085 -0.00111571 -4.61022e-05 0.00259085 1.54003e-18 0.00259085)
(0.00259085 -0.00111571 -4.61022e-05 0.00259085 1.34889e-18 0.00259085)
(0.00271461 -0.00118217 -4.97429e-05 0.00271461 1.60168e-18 0.00271461)
(0.00271461 -0.00118217 -4.97429e-05 0.00271461 1.37758e-18 0.00271461)
(0.00284003 -0.00124954 -5.35409e-05 0.00284003 1.67637e-18 0.00284003)
(0.00284003 -0.00124954 -5.35409e-05 0.00284003 1.39238e-18 0.00284003)
(0.00296684 -0.0013176 -5.74925e-05 0.00296684 1.75265e-18 0.00296684)
(0.00296684 -0.0013176 -5.74925e-05 0.00296684 1.41215e-18 0.00296684)
(0.00309476 -0.00138615 -6.15936e-05 0.00309476 1.83346e-18 0.00309476)
(0.00309476 -0.00138615 -6.15936e-05 0.00309476 1.42335e-18 0.00309476)
(0.00322351 -0.00145499 -6.58398e-05 0.00322351 1.89936e-18 0.00322351)
(0.00322351 -0.00145499 -6.58398e-05 0.00322351 1.4272e-18 0.00322351)
(0.00335281 -0.00152391 -7.02262e-05 0.00335281 1.98242e-18 0.00335281)
(0.00335281 -0.00152391 -7.02262e-05 0.00335281 1.43105e-18 0.00335281)
(0.00348239 -0.00159272 -7.47478e-05 0.00348239 2.02219e-18 0.00348239)
(0.00348239 -0.00159272 -7.47478e-05 0.00348239 1.41947e-18 0.00348239)
(0.00361197 -0.00166125 -7.93997e-05 0.00361197 2.00099e-18 0.00361197)
(0.00361197 -0.00166125 -7.93997e-05 0.00361197 1.36926e-18 0.00361197)
(0.0037413 -0.00172932 -8.41766e-05 0.0037413 1.94318e-18 0.0037413)
(0.0037413 -0.00172932 -8.41766e-05 0.0037413 1.3598e-18 0.0037413)
(0.00387012 -0.00179677 -8.90734e-05 0.00387012 1.94076e-18 0.00387012)
(0.00387012 -0.00179677 -8.90734e-05 0.00387012 1.37921e-18 0.00387012)
(0.00399819 -0.00186345 -9.40851e-05 0.00399819 1.93873e-18 0.00399819)
(0.00399819 -0.00186345 -9.40851e-05 0.00399819 1.35794e-18 0.00399819)
(0.00412529 -0.00192924 -9.92068e-05 0.00412529 1.89935e-18 0.00412529)
(0.00412529 -0.00192924 -9.92068e-05 0.00412529 1.36015e-18 0.00412529)
(0.00425118 -0.001994 -0.000104434 0.00425118 1.88098e-18 0.00425118)
(0.00425118 -0.001994 -0.000104434 0.00425118 1.34387e-18 0.00425118)
(0.00437568 -0.00205763 -0.000109762 0.00437568 1.88419e-18 0.00437568)
(0.00437568 -0.00205763 -0.000109762 0.00437568 1.31269e-18 0.00437568)
(0.00449859 -0.00212004 -0.000115186 0.00449859 1.89205e-18 0.00449859)
(0.00449859 -0.00212004 -0.000115186 0.00449859 1.24381e-18 0.00449859)
(0.00461975 -0.00218114 -0.000120703 0.00461975 1.96195e-18 0.00461975)
(0.00461975 -0.00218114 -0.000120703 0.00461975 1.20798e-18 0.00461975)
(0.00473899 -0.00224085 -0.000126309 0.00473899 2.11249e-18 0.00473899)
(0.00473899 -0.00224085 -0.000126309 0.00473899 1.25427e-18 0.00473899)
(0.00485617 -0.00229913 -0.000132001 0.00485617 2.15244e-18 0.00485617)
(0.00485617 -0.00229913 -0.000132001 0.00485617 1.26537e-18 0.00485617)
(0.00497116 -0.00235591 -0.000137774 0.00497116 2.23441e-18 0.00497116)
(0.00497116 -0.00235591 -0.000137774 0.00497116 1.12689e-18 0.00497116)
(0.00508384 -0.00241117 -0.000143628 0.00508384 2.18224e-18 0.00508384)
(0.00508384 -0.00241117 -0.000143628 0.00508384 9.27189e-19 0.00508384)
(0.00519413 -0.00246486 -0.000149558 0.00519413 1.84837e-18 0.00519413)
(0.00519413 -0.00246486 -0.000149558 0.00519413 9.84927e-19 0.00519413)
(0.00530192 -0.00251697 -0.000155562 0.00530192 1.78818e-18 0.00530192)
(0.00530192 -0.00251697 -0.000155562 0.00530192 1.07771e-18 0.00530192)
(0.00540716 -0.00256747 -0.000161639 0.00540716 1.83986e-18 0.00540716)
(0.00540716 -0.00256747 -0.000161639 0.00540716 1.0002e-18 0.00540716)
(0.00550976 -0.00261637 -0.000167787 0.00550976 1.63725e-18 0.00550976)
(0.00550976 -0.00261637 -0.000167787 0.00550976 9.27395e-19 0.00550976)
(0.00560968 -0.00266365 -0.000174004 0.00560968 1.28905e-18 0.00560968)
(0.00560968 -0.00266365 -0.000174004 0.00560968 9.06587e-19 0.00560968)
(0.00570689 -0.00270933 -0.000180288 0.00570689 1.29772e-18 0.00570689)
(0.00570689 -0.00270933 -0.000180288 0.00570689 1.114e-18 0.00570689)
(0.00580134 -0.0027534 -0.000186639 0.00580134 1.35766e-18 0.00580134)
(0.00580134 -0.0027534 -0.000186639 0.00580134 1.14793e-18 0.00580134)
(0.00589302 -0.00279589 -0.000193056 0.00589302 1.02629e-18 0.00589302)
(0.00589302 -0.00279589 -0.000193056 0.00589302 1.02497e-18 0.00589302)
(0.00598191 -0.00283679 -0.000199538 0.00598191 8.45033e-19 0.00598191)
(0.00598191 -0.00283679 -0.000199538 0.00598191 1.05307e-18 0.00598191)
(0.006068 -0.00287614 -0.000206084 0.006068 8.6663e-19 0.006068)
(0.006068 -0.00287614 -0.000206084 0.006068 1.16267e-18 0.006068)
(0.00615129 -0.00291396 -0.000212694 0.00615129 8.10772e-19 0.00615129)
(0.00615129 -0.00291396 -0.000212694 0.00615129 1.22048e-18 0.00615129)
(0.0062318 -0.00295026 -0.000219367 0.0062318 5.29355e-19 0.0062318)
(0.0062318 -0.00295026 -0.000219367 0.0062318 1.26822e-18 0.0062318)
(0.00630952 -0.00298506 -0.000226103 0.00630952 3.77204e-19 0.00630952)
(0.00630952 -0.00298506 -0.000226103 0.00630952 1.30575e-18 0.00630952)
(0.00638449 -0.00301841 -0.000232902 0.00638449 4.16105e-19 0.00638449)
(0.00638449 -0.00301841 -0.000232902 0.00638449 1.21315e-18 0.00638449)
(0.0064567 -0.00305031 -0.000239765 0.0064567 2.46667e-19 0.0064567)
(0.0064567 -0.00305031 -0.000239765 0.0064567 1.29239e-18 0.0064567)
(0.0065262 -0.00308081 -0.00024669 0.0065262 -5.58601e-19 0.0065262)
(0.0065262 -0.00308081 -0.00024669 0.0065262 1.27145e-18 0.0065262)
(0.006593 -0.00310992 -0.000253678 0.006593 -2.93398e-19 0.006593)
(0.006593 -0.00310992 -0.000253678 0.006593 1.0759e-18 0.006593)
(0.00665714 -0.00313768 -0.00026073 0.00665714 -7.8285e-20 0.00665714)
(0.00665714 -0.00313768 -0.00026073 0.00665714 1.09694e-18 0.00665714)
(0.00671865 -0.00316411 -0.000267845 0.00671865 -7.55542e-19 0.00671865)
(0.00671865 -0.00316411 -0.000267845 0.00671865 1.08516e-18 0.00671865)
(0.00677756 -0.00318925 -0.000275023 0.00677756 -5.40555e-19 0.00677756)
(0.00677756 -0.00318925 -0.000275023 0.00677756 1.28408e-18 0.00677756)
(0.0068339 -0.00321312 -0.000282265 0.0068339 -5.51695e-19 0.0068339)
(0.0068339 -0.00321312 -0.000282265 0.0068339 1.65159e-18 0.0068339)
(0.00688772 -0.00323574 -0.000289572 0.00688772 -8.48733e-19 0.00688772)
(0.00688772 -0.00323574 -0.000289572 0.00688772 1.54297e-18 0.00688772)
(0.00693906 -0.00325715 -0.000296942 0.00693906 -8.63159e-19 0.00693906)
(0.00693906 -0.00325715 -0.000296942 0.00693906 1.47116e-18 0.00693906)
(0.00698794 -0.00327737 -0.000304377 0.00698794 -8.24105e-19 0.00698794)
(0.00698794 -0.00327737 -0.000304377 0.00698794 1.28148e-18 0.00698794)
(0.00703442 -0.00329644 -0.000311877 0.00703442 -1.39872e-18 0.00703442)
(0.00703442 -0.00329644 -0.000311877 0.00703442 1.32647e-18 0.00703442)
(0.00707852 -0.00331436 -0.000319442 0.00707852 -2.39412e-18 0.00707852)
(0.00707852 -0.00331436 -0.000319442 0.00707852 1.51742e-18 0.00707852)
(0.00712029 -0.00333118 -0.000327072 0.00712029 -2.9125e-18 0.00712029)
(0.00712029 -0.00333118 -0.000327072 0.00712029 1.15418e-18 0.00712029)
(0.00715976 -0.00334691 -0.000334767 0.00715976 -2.47506e-18 0.00715976)
(0.00715976 -0.00334691 -0.000334767 0.00715976 9.75246e-19 0.00715976)
(0.00719699 -0.00336158 -0.000342527 0.00719699 -2.27009e-18 0.00719699)
(0.00719699 -0.00336158 -0.000342527 0.00719699 1.59841e-18 0.00719699)
(0.00723199 -0.00337522 -0.000350353 0.00723199 -3.10021e-18 0.00723199)
(0.00723199 -0.00337522 -0.000350353 0.00723199 1.52502e-18 0.00723199)
(0.00726482 -0.00338783 -0.000358244 0.00726482 -3.29024e-18 0.00726482)
(0.00726482 -0.00338783 -0.000358244 0.00726482 1.23391e-18 0.00726482)
(0.0072955 -0.00339944 -0.000366201 0.0072955 -2.54463e-18 0.0072955)
(0.0072955 -0.00339944 -0.000366201 0.0072955 1.66769e-18 0.0072955)
(0.00732408 -0.00341008 -0.000374222 0.00732408 -2.98102e-18 0.00732408)
(0.00732408 -0.00341008 -0.000374222 0.00732408 2.54446e-18 0.00732408)
(0.00735059 -0.00341977 -0.000382309 0.00735059 -3.51718e-18 0.00735059)
(0.00735059 -0.00341977 -0.000382309 0.00735059 3.25766e-18 0.00735059)
(0.00737507 -0.00342851 -0.00039046 0.00737507 -3.09102e-18 0.00737507)
(0.00737507 -0.00342851 -0.00039046 0.00737507 3.40488e-18 0.00737507)
(0.00739755 -0.00343634 -0.000398675 0.00739755 -3.82558e-18 0.00739755)
(0.00739755 -0.00343634 -0.000398675 0.00739755 4.2438e-18 0.00739755)
(0.00741805 -0.00344326 -0.000406955 0.00741805 -4.06998e-18 0.00741805)
(0.00741805 -0.00344326 -0.000406955 0.00741805 4.01176e-18 0.00741805)
(0.00743662 -0.00344929 -0.000415297 0.00743662 -5.09718e-18 0.00743662)
(0.00743662 -0.00344929 -0.000415297 0.00743662 3.21211e-18 0.00743662)
(0.00745329 -0.00345446 -0.000423702 0.00745329 -7.09635e-18 0.00745329)
(0.00745329 -0.00345446 -0.000423702 0.00745329 3.95421e-18 0.00745329)
(0.00746808 -0.00345876 -0.000432168 0.00746808 -5.34774e-18 0.00746808)
(0.00746808 -0.00345876 -0.000432168 0.00746808 7.56425e-18 0.00746808)
(0.00748102 -0.00346222 -0.000440695 0.00748102 -3.11511e-18 0.00748102)
(0.00748102 -0.00346222 -0.000440695 0.00748102 9.98938e-18 0.00748102)
(0.00749214 -0.00346485 -0.000449282 0.00749214 -3.40063e-18 0.00749214)
(0.00749214 -0.00346485 -0.000449282 0.00749214 9.67254e-18 0.00749214)
(0.00750147 -0.00346666 -0.000457928 0.00750147 -3.89693e-18 0.00750147)
(0.00750147 -0.00346666 -0.000457928 0.00750147 1.20562e-17 0.00750147)
(0.00750903 -0.00346767 -0.00046663 0.00750903 -1.68335e-18 0.00750903)
(0.00750903 -0.00346767 -0.00046663 0.00750903 1.43944e-17 0.00750903)
(0.00751485 -0.00346787 -0.000475389 0.00751485 7.90009e-19 0.00751485)
(0.00751485 -0.00346787 -0.000475389 0.00751485 1.42089e-17 0.00751485)
(0.00751895 -0.00346729 -0.000484201 0.00751895 1.20889e-18 0.00751895)
(0.00751895 -0.00346729 -0.000484201 0.00751895 1.2991e-17 0.00751895)
(0.00752135 -0.00346594 -0.000493066 0.00752135 9.43068e-19 0.00752135)
(0.00752135 -0.00346594 -0.000493066 0.00752135 1.3607e-17 0.00752135)
(0.00752207 -0.00346381 -0.000501981 0.00752207 2.65786e-18 0.00752207)
(0.00752207 -0.00346381 -0.000501981 0.00752207 1.35217e-17 0.00752207)
(0.00752113 -0.00346093 -0.000510945 0.00752113 2.03765e-18 0.00752113)
(0.00752113 -0.00346093 -0.000510945 0.00752113 1.22882e-17 0.00752113)
(0.00751855 -0.00345729 -0.000519954 0.00751855 1.37063e-18 0.00751855)
(0.00751855 -0.00345729 -0.000519954 0.00751855 1.33889e-17 0.00751855)
(0.00751435 -0.00345291 -0.000529006 0.00751435 3.46169e-18 0.00751435)
(0.00751435 -0.00345291 -0.000529006 0.00751435 1.64138e-17 0.00751435)
(0.00750855 -0.00344779 -0.000538099 0.00750855 1.94391e-18 0.00750855)
(0.00750855 -0.00344779 -0.000538099 0.00750855 1.91863e-17 0.00750855)
(0.00750116 -0.00344193 -0.00054723 0.00750116 7.0816e-19 0.00750116)
(0.00750116 -0.00344193 -0.00054723 0.00750116 1.87074e-17 0.00750116)
(0.00749219 -0.00343534 -0.000556395 0.00749219 4.27694e-19 0.00749219)
(0.00749219 -0.00343534 -0.000556395 0.00749219 1.62768e-17 0.00749219)
(0.00748166 -0.00342803 -0.000565591 0.00748166 1.22123e-18 0.00748166)
(0.00748166 -0.00342803 -0.000565591 0.00748166 1.7393e-17 0.00748166)
(0.00746958 -0.00342 -0.000574815 0.00746958 -7.66321e-19 0.00746958)
(0.00746958 -0.00342 -0.000574815 0.00746958 1.83557e-17 0.00746958)
(0.00745597 -0.00341125 -0.000584061 0.00745597 7.24446e-19 0.00745597)
(0.00745597 -0.00341125 -0.000584061 0.00745597 1.61313e-17 0.00745597)
(0.00744083 -0.00340178 -0.000593327 0.00744083 1.89697e-18 0.00744083)
(0.00744083 -0.00340178 -0.000593327 0.00744083 1.70196e-17 0.00744083)
(0.00742417 -0.0033916 -0.000602608 0.00742417 -5.34557e-19 0.00742417)
(0.00742417 -0.0033916 -0.000602608 0.00742417 1.78505e-17 0.00742417)
(0.00740601 -0.00338071 -0.000611899 0.00740601 -1.3353e-18 0.00740601)
(0.00740601 -0.00338071 -0.000611899 0.00740601 1.89589e-17 0.00740601)
(0.00738635 -0.00336911 -0.000621195 0.00738635 3.40543e-18 0.00738635)
(0.00738635 -0.00336911 -0.000621195 0.00738635 2.03229e-17 0.00738635)
(0.00736519 -0.0033568 -0.00063049 0.00736519 2.09203e-18 0.00736519)
(0.00736519 -0.0033568 -0.00063049 0.00736519 2.16629e-17 0.00736519)
(0.00734255 -0.00334379 -0.000639779 0.00734255 7.77264e-19 0.00734255)
(0.00734255 -0.00334379 -0.000639779 0.00734255 2.18236e-17 0.00734255)
(0.00731842 -0.00333006 -0.000649055 0.00731842 3.01805e-18 0.00731842)
(0.00731842 -0.00333006 -0.000649055 0.00731842 2.06865e-17 0.00731842)
(0.00729282 -0.00331563 -0.000658313 0.00729282 1.5735e-18 0.00729282)
(0.00729282 -0.00331563 -0.000658313 0.00729282 2.37746e-17 0.00729282)
(0.00726575 -0.00330048 -0.000667545 0.00726575 -5.70742e-18 0.00726575)
(0.00726575 -0.00330048 -0.000667545 0.00726575 2.5207e-17 0.00726575)
(0.00723721 -0.00328463 -0.000676744 0.00723721 -2.38687e-18 0.00723721)
(0.00723721 -0.00328463 -0.000676744 0.00723721 2.53583e-17 0.00723721)
(0.0072072 -0.00326806 -0.000685903 0.0072072 3.38254e-18 0.0072072)
(0.0072072 -0.00326806 -0.000685903 0.0072072 2.62748e-17 0.0072072)
(0.00717573 -0.00325077 -0.000695014 0.00717573 4.374e-18 0.00717573)
(0.00717573 -0.00325077 -0.000695014 0.00717573 2.33147e-17 0.00717573)
(0.0071428 -0.00323277 -0.000704067 0.0071428 1.94942e-18 0.0071428)
(0.0071428 -0.00323277 -0.000704067 0.0071428 2.40865e-17 0.0071428)
(0.0071084 -0.00321404 -0.000713054 0.0071084 -6.72119e-18 0.0071084)
(0.0071084 -0.00321404 -0.000713054 0.0071084 3.12989e-17 0.0071084)
(0.00707253 -0.00319459 -0.000721966 0.00707253 3.93195e-18 0.00707253)
(0.00707253 -0.00319459 -0.000721966 0.00707253 2.97735e-17 0.00707253)
(0.00703521 -0.00317441 -0.000730793 0.00703521 4.68111e-18 0.00703521)
(0.00703521 -0.00317441 -0.000730793 0.00703521 3.09077e-17 0.00703521)
(0.00699641 -0.0031535 -0.000739523 0.00699641 -2.3887e-18 0.00699641)
(0.00699641 -0.0031535 -0.000739523 0.00699641 3.21116e-17 0.00699641)
(0.00695615 -0.00313185 -0.000748147 0.00695615 2.48654e-18 0.00695615)
(0.00695615 -0.00313185 -0.000748147 0.00695615 2.06804e-17 0.00695615)
(0.00691442 -0.00310946 -0.000756652 0.00691442 6.64866e-18 0.00691442)
(0.00691442 -0.00310946 -0.000756652 0.00691442 1.49747e-17 0.00691442)
(0.00687122 -0.00308632 -0.000765027 0.00687122 8.28326e-18 0.00687122)
(0.00687122 -0.00308632 -0.000765027 0.00687122 1.5723e-17 0.00687122)
(0.00682654 -0.00306243 -0.000773258 0.00682654 3.95158e-18 0.00682654)
(0.00682654 -0.00306243 -0.000773258 0.00682654 1.29122e-17 0.00682654)
(0.00678038 -0.00303778 -0.000781331 0.00678038 -2.40464e-18 0.00678038)
(0.00678038 -0.00303778 -0.000781331 0.00678038 1.06185e-17 0.00678038)
(0.00673274 -0.00301236 -0.000789234 0.00673274 -1.02853e-18 0.00673274)
(0.00673274 -0.00301236 -0.000789234 0.00673274 8.60347e-18 0.00673274)
(0.00668361 -0.00298618 -0.000796951 0.00668361 -6.64134e-19 0.00668361)
(0.00668361 -0.00298618 -0.000796951 0.00668361 9.51213e-18 0.00668361)
(0.00663299 -0.00295921 -0.000804466 0.00663299 3.59772e-19 0.00663299)
(0.00663299 -0.00295921 -0.000804466 0.00663299 6.11444e-18 0.00663299)
(0.00658087 -0.00293145 -0.000811763 0.00658087 8.44042e-18 0.00658087)
(0.00658087 -0.00293145 -0.000811763 0.00658087 -3.27659e-18 0.00658087)
(0.00652726 -0.00290291 -0.000818825 0.00652726 8.11612e-18 0.00652726)
(0.00652726 -0.00290291 -0.000818825 0.00652726 -4.95722e-18 0.00652726)
(0.00647214 -0.00287356 -0.000825635 0.00647214 1.36917e-18 0.00647214)