/*--------------------------------*- C++ -*----------------------------------*\
| =========                 |                                                 |
| \\      /  F ield         | OpenFOAM: The Open Source CFD Toolbox           |
|  \\    /   O peration     | Version:  2106                                  |
|   \\  /    A nd           | Website:  www.openfoam.com                      |
|    \\/     M anipulation  |                                                 |
\*---------------------------------------------------------------------------*/
FoamFile
{
    version     2.0;
    format      ascii;
    arch        "LSB;label=32;scalar=64";
    class       volVectorField;
    location    "10040";
    object      U;
}
// * * * * * * * * * * * * * * * * * * * * * * * * * * * * * * * * * * * * * //

dimensions      [0 1 -1 0 0 0 0];

internalField   nonuniform List<vector> 
2000
(
(0.000977299 -2.11523e-16 -9.82918e-18)
(0.000977299 1.13564e-19 -1.98554e-18)
(0.00294978 -2.88178e-15 -5.5774e-17)
(0.00294978 -6.23999e-19 -1.92386e-17)
(0.00495871 -1.59503e-15 -5.9656e-17)
(0.00495871 -1.0177e-18 -1.99501e-17)
(0.00700475 -1.7513e-15 -6.32302e-17)
(0.00700475 -1.61995e-18 -2.06781e-17)
(0.00908859 -1.72201e-15 -6.69937e-17)
(0.00908859 -2.23289e-18 -2.1422e-17)
(0.0112109 -1.72593e-15 -7.09992e-17)
(0.0112109 -2.86539e-18 -2.21819e-17)
(0.0133725 -1.72975e-15 -7.52e-17)
(0.0133725 -3.52038e-18 -2.29574e-17)
(0.0155739 -1.72883e-15 -7.95835e-17)
(0.0155739 -4.1843e-18 -2.37483e-17)
(0.017816 -1.72744e-15 -8.41571e-17)
(0.017816 -4.86963e-18 -2.45546e-17)
(0.0200995 -1.72636e-15 -8.89283e-17)
(0.0200995 -5.56056e-18 -2.5376e-17)
(0.0224251 -1.72531e-15 -9.39039e-17)
(0.0224251 -6.26221e-18 -2.62121e-17)
(0.0247936 -1.72416e-15 -9.71034e-17)
(0.0247936 -6.97893e-18 -2.70624e-17)
(0.0272059 -1.72294e-15 -9.93359e-17)
(0.0272059 -7.69658e-18 -2.79269e-17)
(0.0296626 -1.72166e-15 -1.01663e-16)
(0.0296626 -8.44152e-18 -2.88055e-17)
(0.0321647 -1.72037e-15 -1.04093e-16)
(0.0321647 -9.1865e-18 -2.96969e-17)
(0.0347129 -1.71909e-15 -1.06631e-16)
(0.0347129 -9.92747e-18 -3.06014e-17)
(0.037308 -1.71783e-15 -1.09278e-16)
(0.037308 -1.06781e-17 -3.15184e-17)
(0.039951 -1.7165e-15 -1.12042e-16)
(0.039951 -1.14437e-17 -3.24469e-17)
(0.0426427 -1.71511e-15 -1.14932e-16)
(0.0426427 -1.22398e-17 -3.3386e-17)
(0.045384 -1.71372e-15 -1.17954e-16)
(0.045384 -1.30543e-17 -3.43353e-17)
(0.0481758 -1.71231e-15 -1.21114e-16)
(0.0481758 -1.38515e-17 -3.52931e-17)
(0.051019 -1.71088e-15 -1.2442e-16)
(0.051019 -1.46669e-17 -3.62584e-17)
(0.0539145 -1.70942e-15 -1.27882e-16)
(0.0539145 -1.55247e-17 -3.72302e-17)
(0.0568633 -1.70796e-15 -1.31506e-16)
(0.0568633 -1.63725e-17 -3.82079e-17)
(0.0598664 -1.70651e-15 -1.35301e-16)
(0.0598664 -1.72384e-17 -3.91894e-17)
(0.0629246 -1.70508e-15 -1.39277e-16)
(0.0629246 -1.80099e-17 -4.022e-17)
(0.0660391 -1.70363e-15 -1.43439e-16)
(0.0660391 -1.87961e-17 -4.1622e-17)
(0.0692108 -1.70207e-15 -1.478e-16)
(0.0692108 -1.96774e-17 -4.30681e-17)
(0.0724408 -1.70035e-15 -1.52372e-16)
(0.0724408 -2.05486e-17 -4.45565e-17)
(0.0757301 -1.69865e-15 -1.57168e-16)
(0.0757301 -2.14997e-17 -4.6089e-17)
(0.0790797 -1.69698e-15 -1.62202e-16)
(0.0790797 -2.23617e-17 -4.76636e-17)
(0.0824908 -1.69528e-15 -1.67479e-16)
(0.0824908 -2.31324e-17 -4.92837e-17)
(0.0859645 -1.69368e-15 -1.73012e-16)
(0.0859645 -2.40147e-17 -5.09506e-17)
(0.0895017 -1.69203e-15 -1.78816e-16)
(0.0895017 -2.49958e-17 -5.2666e-17)
(0.0931038 -1.69027e-15 -1.84908e-16)
(0.0931038 -2.59077e-17 -5.44323e-17)
(0.0967718 -1.68849e-15 -1.913e-16)
(0.0967718 -2.68074e-17 -5.62458e-17)
(0.100507 -1.68671e-15 -1.96476e-16)
(0.100507 -2.77375e-17 -5.81098e-17)
(0.10431 -1.68496e-15 -1.9605e-16)
(0.10431 -2.85894e-17 -6.00224e-17)
(0.108183 -1.68328e-15 -1.95587e-16)
(0.108183 -2.95623e-17 -6.19844e-17)
(0.112126 -1.68149e-15 -1.95086e-16)
(0.112126 -3.05959e-17 -6.40093e-17)
(0.116142 -1.67969e-15 -1.94557e-16)
(0.116142 -3.14819e-17 -6.60868e-17)
(0.12023 -1.67788e-15 -1.94e-16)
(0.12023 -3.23919e-17 -6.82226e-17)
(0.124393 -1.67607e-15 -1.93425e-16)
(0.124393 -3.33034e-17 -7.04121e-17)
(0.128631 -1.67415e-15 -1.92824e-16)
(0.128631 -3.42582e-17 -7.26544e-17)
(0.132947 -1.67195e-15 -1.92214e-16)
(0.132947 -3.5191e-17 -7.49531e-17)
(0.13734 -1.66996e-15 -1.91603e-16)
(0.13734 -3.60479e-17 -7.73036e-17)
(0.141813 -1.66836e-15 -1.90973e-16)
(0.141813 -3.68753e-17 -7.97155e-17)
(0.146367 -1.66682e-15 -1.9034e-16)
(0.146367 -3.74928e-17 -8.22008e-17)
(0.151002 -1.66528e-15 -1.89722e-16)
(0.151002 -3.79317e-17 -8.47194e-17)
(0.155721 -1.66377e-15 -1.89099e-16)
(0.155721 -3.86938e-17 -8.72859e-17)
(0.160525 -1.66215e-15 -1.88489e-16)
(0.160525 -3.96512e-17 -8.99234e-17)
(0.165414 -1.6604e-15 -1.87896e-16)
(0.165414 -4.03477e-17 -9.26215e-17)
(0.17039 -1.65888e-15 -1.87334e-16)
(0.17039 -4.07805e-17 -9.53514e-17)
(0.175455 -1.65759e-15 -1.8677e-16)
(0.175455 -4.13289e-17 -9.81579e-17)
(0.180609 -1.65607e-15 -1.86234e-16)
(0.180609 -4.20579e-17 -1.01004e-16)
(0.185854 -1.65437e-15 -1.8573e-16)
(0.185854 -4.27288e-17 -1.03894e-16)
(0.191191 -1.65313e-15 -1.85264e-16)
(0.191191 -4.30499e-17 -1.06845e-16)
(0.196621 -1.65174e-15 -1.84849e-16)
(0.196621 -4.32662e-17 -1.09844e-16)
(0.202144 -1.65014e-15 -1.84486e-16)
(0.202144 -4.39584e-17 -1.12876e-16)
(0.207763 -1.64844e-15 -1.84167e-16)
(0.207763 -4.47636e-17 -1.15956e-16)
(0.213477 -1.64645e-15 -1.83907e-16)
(0.213477 -4.56554e-17 -1.19076e-16)
(0.219288 -1.64473e-15 -1.8373e-16)
(0.219288 -4.59177e-17 -1.22238e-16)
(0.225195 -1.64336e-15 -1.83663e-16)
(0.225195 -4.61984e-17 -1.2544e-16)
(0.231201 -1.64197e-15 -1.8368e-16)
(0.231201 -4.70943e-17 -1.28643e-16)
(0.237304 -1.64033e-15 -1.83772e-16)
(0.237304 -4.7553e-17 -1.31884e-16)
(0.243506 -1.63866e-15 -1.83983e-16)
(0.243506 -4.79893e-17 -1.35133e-16)
(0.249807 -1.63775e-15 -1.84303e-16)
(0.249807 -4.8391e-17 -1.38355e-16)
(0.256205 -1.63682e-15 -1.84681e-16)
(0.256205 -4.86442e-17 -1.41608e-16)
(0.262701 -1.63551e-15 -1.85187e-16)
(0.262701 -4.91322e-17 -1.44902e-16)
(0.269295 -1.63437e-15 -1.85828e-16)
(0.269295 -4.98282e-17 -1.48155e-16)
(0.275985 -1.63365e-15 -1.86615e-16)
(0.275985 -5.06993e-17 -1.5138e-16)
(0.282771 -1.63228e-15 -1.87595e-16)
(0.282771 -5.0972e-17 -1.5453e-16)
(0.28965 -1.6307e-15 -1.93875e-16)
(0.28965 -5.13435e-17 -1.5761e-16)
(0.296622 -1.62988e-15 -2.02458e-16)
(0.296622 -5.21926e-17 -1.60592e-16)
(0.303684 -1.62956e-15 -2.11267e-16)
(0.303684 -5.18325e-17 -1.63527e-16)
(0.310834 -1.62919e-15 -2.20415e-16)
(0.310834 -5.16842e-17 -1.72643e-16)
(0.31807 -1.62809e-15 -2.29894e-16)
(0.31807 -5.18432e-17 -1.83657e-16)
(0.325387 -1.62574e-15 -2.3974e-16)
(0.325387 -5.24708e-17 -1.9474e-16)
(0.332783 -1.6235e-15 -2.49987e-16)
(0.332783 -5.36075e-17 -2.05903e-16)
(0.340254 -1.62293e-15 -2.60482e-16)
(0.340254 -5.35636e-17 -2.16994e-16)
(0.347796 -1.62341e-15 -2.71122e-16)
(0.347796 -5.36128e-17 -2.28199e-16)
(0.355404 -1.62322e-15 -2.81997e-16)
(0.355404 -5.32445e-17 -2.39423e-16)
(0.363074 -1.62255e-15 -2.9306e-16)
(0.363074 -5.31847e-17 -2.50475e-16)
(0.370801 -1.62298e-15 -3.04141e-16)
(0.370801 -5.31577e-17 -2.61544e-16)
(0.378579 -1.6244e-15 -3.15189e-16)
(0.378579 -5.21552e-17 -2.72616e-16)
(0.386403 -1.62588e-15 -3.26305e-16)
(0.386403 -5.16602e-17 -2.83587e-16)
(0.394268 -1.62786e-15 -3.37479e-16)
(0.394268 -5.2522e-17 -2.9416e-16)
(0.402166 -1.62979e-15 -3.48531e-16)
(0.402166 -5.3635e-17 -3.04519e-16)
(0.410093 -1.62951e-15 -3.59694e-16)
(0.410093 -5.36499e-17 -3.14744e-16)
(0.418043 -1.62793e-15 -3.70938e-16)
(0.418043 -5.55348e-17 -3.24697e-16)
(0.426009 -1.62656e-15 -3.82163e-16)
(0.426009 -5.92677e-17 -3.34478e-16)
(0.433984 -1.62456e-15 -3.93463e-16)
(0.433984 -6.15026e-17 -3.43958e-16)
(0.441965 -1.62223e-15 -4.04854e-16)
(0.441965 -6.37242e-17 -3.53009e-16)
(0.449943 -1.62123e-15 -4.16021e-16)
(0.449943 -6.43602e-17 -3.61841e-16)
(0.457915 -1.62016e-15 -4.26785e-16)
(0.457915 -6.452e-17 -3.70425e-16)
(0.465874 -1.61963e-15 -4.37514e-16)
(0.465874 -6.62417e-17 -3.78526e-16)
(0.473815 -1.61913e-15 -4.48068e-16)
(0.473815 -6.93354e-17 -3.86254e-16)
(0.481732 -1.61789e-15 -4.58566e-16)
(0.481732 -7.2514e-17 -3.93525e-16)
(0.489622 -1.61671e-15 -4.68865e-16)
(0.489622 -7.59161e-17 -4.00418e-16)
(0.49748 -1.6143e-15 -4.79014e-16)
(0.49748 -7.94157e-17 -4.06852e-16)
(0.505301 -1.61315e-15 -4.89038e-16)
(0.505301 -8.01367e-17 -4.12893e-16)
(0.513082 -1.61376e-15 -4.98712e-16)
(0.513082 -7.92006e-17 -4.18486e-16)
(0.520819 -1.61361e-15 -5.07724e-16)
(0.520819 -8.06491e-17 -4.2345e-16)
(0.528509 -1.61125e-15 -5.16026e-16)
(0.528509 -8.25329e-17 -4.28292e-16)
(0.536149 -1.60934e-15 -5.24045e-16)
(0.536149 -8.44043e-17 -4.32799e-16)
(0.543736 -1.60852e-15 -5.31671e-16)
(0.543736 -8.73045e-17 -4.36951e-16)
(0.551268 -1.60659e-15 -5.38842e-16)
(0.551268 -9.13494e-17 -4.40885e-16)
(0.558743 -1.6011e-15 -5.45622e-16)
(0.558743 -9.69628e-17 -4.443e-16)
(0.566159 -1.59514e-15 -5.51885e-16)
(0.566159 -1.00126e-16 -4.47521e-16)
(0.573514 -1.58997e-15 -5.58155e-16)
(0.573514 -1.05172e-16 -4.50071e-16)
(0.580809 -1.58247e-15 -5.64489e-16)
(0.580809 -1.11745e-16 -4.5257e-16)
(0.58804 -1.578e-15 -5.71002e-16)
(0.58804 -1.1736e-16 -4.54904e-16)
(0.595208 -1.57387e-15 -5.77454e-16)
(0.595208 -1.23449e-16 -4.57025e-16)
(0.602313 -1.57056e-15 -5.84056e-16)
(0.602313 -1.29127e-16 -4.58038e-16)
(0.609352 -1.57054e-15 -5.89852e-16)
(0.609352 -1.31367e-16 -4.58553e-16)
(0.616327 -1.56846e-15 -5.94554e-16)
(0.616327 -1.32479e-16 -4.59611e-16)
(0.623238 -1.5649e-15 -5.99461e-16)
(0.623238 -1.34621e-16 -4.60402e-16)
(0.630083 -1.55929e-15 -6.03957e-16)
(0.630083 -1.38398e-16 -4.60898e-16)
(0.636864 -1.55195e-15 -6.07254e-16)
(0.636864 -1.38631e-16 -4.61044e-16)
(0.643581 -1.54271e-15 -6.09516e-16)
(0.643581 -1.43526e-16 -4.61271e-16)
(0.650234 -1.53567e-15 -6.12428e-16)
(0.650234 -1.48422e-16 -4.62093e-16)
(0.656823 -1.53099e-15 -6.15084e-16)
(0.656823 -1.53669e-16 -4.62063e-16)
(0.66335 -1.52364e-15 -6.16583e-16)
(0.66335 -1.61081e-16 -4.61961e-16)
(0.669815 -1.51453e-15 -6.17914e-16)
(0.669815 -1.69481e-16 -4.616e-16)
(0.676218 -1.50507e-15 -6.19148e-16)
(0.676218 -1.74097e-16 -4.6151e-16)
(0.68256 -1.49986e-15 -6.20069e-16)
(0.68256 -1.80036e-16 -4.61118e-16)
(0.688842 -1.49661e-15 -6.20631e-16)
(0.688842 -1.87969e-16 -4.60841e-16)
(0.695066 -1.48943e-15 -6.21156e-16)
(0.695066 -1.92031e-16 -4.60111e-16)
(0.701231 -1.48315e-15 -6.21304e-16)
(0.701231 -2.07164e-16 -4.59274e-16)
(0.707338 -1.48008e-15 -6.20151e-16)
(0.707338 -2.09699e-16 -4.5806e-16)
(0.71339 -1.47466e-15 -6.18603e-16)
(0.71339 -2.15845e-16 -4.56739e-16)
(0.719385 -1.46522e-15 -6.18134e-16)
(0.719385 -2.21433e-16 -4.54266e-16)
(0.725326 -1.45522e-15 -6.1571e-16)
(0.725326 -2.31862e-16 -4.52674e-16)
(0.731214 -1.44547e-15 -6.13612e-16)
(0.731214 -2.36841e-16 -4.49579e-16)
(0.737049 -1.43519e-15 -6.12039e-16)
(0.737049 -2.38467e-16 -4.48231e-16)
(0.742832 -1.42397e-15 -6.09797e-16)
(0.742832 -2.4714e-16 -4.46194e-16)
(0.748565 -1.41159e-15 -6.06996e-16)
(0.748565 -2.63819e-16 -4.44039e-16)
(0.754247 -1.39804e-15 -6.04507e-16)
(0.754247 -2.67533e-16 -4.40768e-16)
(0.759881 -1.38823e-15 -6.01618e-16)
(0.759881 -2.77694e-16 -4.37352e-16)
(0.765467 -1.38224e-15 -5.97874e-16)
(0.765467 -2.88278e-16 -4.3352e-16)
(0.771006 -1.37596e-15 -5.92407e-16)
(0.771006 -2.91685e-16 -4.30111e-16)
(0.776499 -1.36841e-15 -5.86991e-16)
(0.776499 -2.97762e-16 -4.24842e-16)
(0.781946 -1.35636e-15 -5.8281e-16)
(0.781946 -3.09084e-16 -4.20363e-16)
(0.78735 -1.3443e-15 -5.77183e-16)
(0.78735 -3.17933e-16 -4.16072e-16)
(0.79271 -1.33418e-15 -5.70399e-16)
(0.79271 -3.24216e-16 -4.10671e-16)
(0.798027 -1.32168e-15 -5.64673e-16)
(0.798027 -3.31984e-16 -4.04777e-16)
(0.803303 -1.31034e-15 -5.59774e-16)
(0.803303 -3.43411e-16 -3.99889e-16)
(0.808538 -1.30008e-15 -5.52968e-16)
(0.808538 -3.57893e-16 -3.95496e-16)
(0.813733 -1.28829e-15 -5.46748e-16)
(0.813733 -3.66305e-16 -3.9126e-16)
(0.818889 -1.27298e-15 -5.40945e-16)
(0.818889 -3.76931e-16 -3.86542e-16)
(0.824006 -1.25258e-15 -5.31714e-16)
(0.824006 -3.8224e-16 -3.83578e-16)
(0.829085 -1.23846e-15 -5.24067e-16)
(0.829085 -3.92746e-16 -3.7715e-16)
(0.834128 -1.22958e-15 -5.13315e-16)
(0.834128 -4.04513e-16 -3.71281e-16)
(0.839134 -1.21506e-15 -5.01223e-16)
(0.839134 -4.15525e-16 -3.65576e-16)
(0.844105 -1.19829e-15 -4.94296e-16)
(0.844105 -4.2694e-16 -3.68767e-16)
(0.84904 -1.18523e-15 -4.8803e-16)
(0.84904 -4.3954e-16 -3.68234e-16)
(0.853942 -1.17129e-15 -4.81238e-16)
(0.853942 -4.41645e-16 -3.68546e-16)
(0.85881 -1.15878e-15 -4.7334e-16)
(0.85881 -4.5187e-16 -3.74191e-16)
(0.863645 -1.14907e-15 -4.73221e-16)
(0.863645 -4.64095e-16 -3.79474e-16)
(0.868448 -1.13206e-15 -4.72637e-16)
(0.868448 -4.68659e-16 -3.82222e-16)
(0.873219 -1.11353e-15 -4.71792e-16)
(0.873219 -4.79107e-16 -3.83327e-16)
(0.877959 -1.09104e-15 -4.69925e-16)
(0.877959 -4.81684e-16 -3.86856e-16)
(0.882669 -1.07238e-15 -4.72544e-16)
(0.882669 -4.87048e-16 -3.86348e-16)
(0.887348 -1.05689e-15 -4.71191e-16)
(0.887348 -4.96866e-16 -3.85546e-16)
(0.891998 -1.03866e-15 -4.71587e-16)
(0.891998 -5.01266e-16 -3.86993e-16)
(0.896619 -1.02963e-15 -4.74909e-16)
(0.896619 -5.04399e-16 -3.92598e-16)
(0.901211 -1.02372e-15 -4.755e-16)
(0.901211 -5.05308e-16 -4.00492e-16)
(0.905776 -1.01164e-15 -4.72871e-16)
(0.905776 -5.03414e-16 -4.0396e-16)
(0.910312 -1.00021e-15 -4.72731e-16)
(0.910312 -5.07165e-16 -4.03107e-16)
(0.914822 -9.85628e-16 -4.69597e-16)
(0.914822 -5.15324e-16 -4.08014e-16)
(0.919304 -9.67116e-16 -4.65794e-16)
(0.919304 -5.24829e-16 -4.07868e-16)
(0.92376 -9.46297e-16 -4.65167e-16)
(0.92376 -5.27514e-16 -4.03795e-16)
(0.92819 -9.34228e-16 -4.63455e-16)
(0.92819 -5.27835e-16 -4.04228e-16)
(0.932595 -9.22473e-16 -4.59452e-16)
(0.932595 -5.30464e-16 -4.01972e-16)
(0.936974 -9.01806e-16 -4.55721e-16)
(0.936974 -5.32188e-16 -4.03924e-16)
(0.941328 -8.87441e-16 -4.60717e-16)
(0.941328 -5.32339e-16 -4.03331e-16)
(0.945657 -8.73567e-16 -4.58999e-16)
(0.945657 -5.33245e-16 -4.06766e-16)
(0.949962 -8.5525e-16 -4.574e-16)
(0.949962 -5.29064e-16 -4.05753e-16)
(0.954242 -8.45076e-16 -4.59655e-16)
(0.954242 -5.33963e-16 -4.05771e-16)
(0.958499 -8.40474e-16 -4.53239e-16)
(0.958499 -5.24187e-16 -4.10674e-16)
(0.962732 -8.30127e-16 -4.43073e-16)
(0.962732 -5.0407e-16 -4.14045e-16)
(0.966941 -8.0804e-16 -4.42921e-16)
(0.966941 -5.0794e-16 -4.20492e-16)
(0.971127 -7.76e-16 -4.41301e-16)
(0.971127 -5.23201e-16 -4.25081e-16)
(0.975289 -7.56489e-16 -4.40422e-16)
(0.975289 -5.45541e-16 -4.19549e-16)
(0.979429 -7.4269e-16 -4.30572e-16)
(0.979429 -5.55539e-16 -4.22626e-16)
(0.983545 -7.27268e-16 -4.16982e-16)
(0.983545 -5.70844e-16 -4.34316e-16)
(0.987639 -7.19589e-16 -4.33969e-16)
(0.987639 -5.78864e-16 -4.36093e-16)
(0.99171 -7.16466e-16 -4.29533e-16)
(0.99171 -5.81578e-16 -4.48937e-16)
(0.995758 -7.06681e-16 -4.26362e-16)
(0.995758 -5.95411e-16 -4.55264e-16)
(0.999783 -6.90012e-16 -4.31329e-16)
(0.999783 -5.94832e-16 -4.51582e-16)
(1.00379 -6.71053e-16 -4.35384e-16)
(1.00379 -5.95629e-16 -4.47468e-16)
(1.00777 -6.64053e-16 -4.43364e-16)
(1.00777 -5.97975e-16 -4.54857e-16)
(1.01172 -6.584e-16 -4.41995e-16)
(1.01172 -5.97074e-16 -4.51409e-16)
(1.01566 -6.5135e-16 -4.3414e-16)
(1.01566 -6.05577e-16 -4.50829e-16)
(1.01957 -6.47775e-16 -4.35698e-16)
(1.01957 -6.16068e-16 -4.49757e-16)
(1.02346 -6.37406e-16 -4.30429e-16)
(1.02346 -6.08029e-16 -4.58794e-16)
(1.02732 -6.16869e-16 -4.3104e-16)
(1.02732 -6.13029e-16 -4.50129e-16)
(1.03116 -6.0242e-16 -4.413e-16)
(1.03116 -6.25211e-16 -4.4343e-16)
(1.03498 -5.90099e-16 -4.40431e-16)
(1.03498 -6.01448e-16 -4.37051e-16)
(1.03878 -5.89078e-16 -4.32709e-16)
(1.03878 -5.87141e-16 -4.34076e-16)
(1.04255 -5.95168e-16 -4.24005e-16)
(1.04255 -5.62827e-16 -4.39421e-16)
(1.04629 -5.83533e-16 -4.12016e-16)
(1.04629 -5.48213e-16 -4.36734e-16)
(1.05001 -5.6213e-16 -3.92197e-16)
(1.05001 -5.54568e-16 -4.44621e-16)
(1.05371 -5.37512e-16 -3.96406e-16)
(1.05371 -5.44948e-16 -4.43446e-16)
(1.05738 -5.22478e-16 -4.11282e-16)
(1.05738 -4.98357e-16 -4.15506e-16)
(1.06102 -5.00942e-16 -4.11025e-16)
(1.06102 -4.66698e-16 -4.28225e-16)
(1.06464 -4.78865e-16 -4.04172e-16)
(1.06464 -4.80248e-16 -4.55508e-16)
(1.06823 -4.65634e-16 -4.22592e-16)
(1.06823 -4.562e-16 -4.53678e-16)
(1.0718 -4.41218e-16 -4.08893e-16)
(1.0718 -4.32778e-16 -4.59951e-16)
(1.07533 -4.21069e-16 -4.07419e-16)
(1.07533 -4.40655e-16 -4.84581e-16)
(1.07884 -4.05676e-16 -4.19631e-16)
(1.07884 -4.19056e-16 -4.74976e-16)
(1.08231 -3.8854e-16 -4.41763e-16)
(1.08231 -4.08653e-16 -4.79314e-16)
(1.08576 -3.68036e-16 -4.40806e-16)
(1.08576 -4.21445e-16 -4.37222e-16)
(1.08917 -4.43955e-16 -4.13915e-16)
(1.08917 -4.00948e-16 -4.6343e-16)
(1.09255 -4.56385e-16 -4.33754e-16)
(1.09255 -4.17954e-16 -4.9572e-16)
(1.0959 -4.35002e-16 -4.49356e-16)
(1.0959 -4.19982e-16 -4.71373e-16)
(1.09921 -4.60275e-16 -4.57811e-16)
(1.09921 -4.04064e-16 -4.31397e-16)
(1.10249 -4.5482e-16 -4.26584e-16)
(1.10249 -4.51667e-16 -4.26431e-16)
(1.10573 -4.4899e-16 -4.53025e-16)
(1.10573 -4.56505e-16 -3.94709e-16)
(1.10893 -4.04123e-16 -4.63838e-16)
(1.10893 -4.42656e-16 -4.08443e-16)
(1.11209 -4.41676e-16 -4.41985e-16)
(1.11209 -4.40599e-16 -4.40864e-16)
(1.11521 -4.25453e-16 -4.67926e-16)
(1.11521 -4.09924e-16 -5.11147e-16)
(1.11829 -4.6098e-16 -4.91558e-16)
(1.11829 -4.14211e-16 -4.83906e-16)
(1.12132 -4.4686e-16 -4.99204e-16)
(1.12132 -4.18325e-16 -4.67173e-16)
(1.1243 -4.07759e-16 -4.73434e-16)
(1.1243 -4.25828e-16 -4.63798e-16)
(1.12724 -3.77319e-16 -4.90481e-16)
(1.12724 -4.29363e-16 -4.3415e-16)
(1.13012 -3.58382e-16 -5.30876e-16)
(1.13012 -4.24857e-16 -4.18586e-16)
(1.13295 -3.74171e-16 -5.5679e-16)
(1.13295 -3.8817e-16 -3.69652e-16)
(1.13572 -4.0476e-16 -5.28691e-16)
(1.13572 -3.96417e-16 -3.36857e-16)
(1.13843 -3.92807e-16 -5.05101e-16)
(1.13843 -3.91732e-16 -3.03214e-16)
(1.14107 -3.67189e-16 -4.76731e-16)
(1.14107 -3.26962e-16 -3.502e-16)
(1.14365 -3.38987e-16 -5.08453e-16)
(1.14365 -3.55336e-16 -3.94941e-16)
(1.14616 -3.21216e-16 -5.37304e-16)
(1.14616 -3.79299e-16 -4.2879e-16)
(1.14859 -3.41328e-16 -5.45436e-16)
(1.14859 -3.85082e-16 -4.24948e-16)
(1.15094 -3.22531e-16 -5.19621e-16)
(1.15094 -3.98593e-16 -3.71092e-16)
(1.15321 -4.01136e-16 -5.45145e-16)
(1.15321 -3.92178e-16 -3.99413e-16)
(1.15538 -3.66602e-16 -4.85031e-16)
(1.15538 -3.87832e-16 -4.04647e-16)
(1.15746 -3.35966e-16 -4.22297e-16)
(1.15746 -3.68957e-16 -3.07847e-16)
(1.15943 -4.15478e-16 -4.12928e-16)
(1.15943 -3.59094e-16 -3.10575e-16)
(1.1613 -4.00842e-16 -4.43694e-16)
(1.1613 -3.50258e-16 -3.15871e-16)
(1.16305 -4.33414e-16 -3.52702e-16)
(1.16305 -3.04217e-16 -3.46498e-16)
(1.16467 -4.38335e-16 -2.53067e-16)
(1.16467 -2.90823e-16 -2.48981e-16)
(1.16615 -3.90593e-16 -1.25699e-16)
(1.16615 -3.35628e-16 -1.81413e-16)
(1.16749 -3.14642e-16 -1.25761e-16)
(1.16749 -3.06609e-16 -1.96509e-16)
(1.16867 -2.85831e-16 -1.4402e-16)
(1.16867 -2.91073e-16 -2.5829e-16)
(1.16969 -2.87997e-16 -1.95833e-16)
(1.16969 -3.53412e-16 -1.94863e-16)
(1.17053 -3.40253e-16 -2.09721e-16)
(1.17053 -3.2182e-16 -2.1509e-16)
(1.17118 -2.75021e-16 -1.42693e-16)
(1.17118 -2.97674e-16 -2.09758e-16)
(1.17162 -2.35504e-16 -1.46391e-16)
(1.17162 -2.83546e-16 -1.62695e-16)
(1.17185 -2.2196e-16 -1.38727e-16)
(1.17185 -2.49836e-16 -1.55811e-16)
(0.000977299 5.71526e-20 1.879e-18)
(0.000977299 -1.62581e-21 1.41294e-22)
(0.00294978 -3.07222e-19 9.69463e-18)
(0.00294978 -5.72405e-20 1.30687e-21)
(0.00495871 -5.05521e-19 1.00535e-17)
(0.00495871 -1.20747e-19 2.15153e-21)
(0.00700475 -8.0571e-19 1.04211e-17)
(0.00700475 -1.98829e-19 3.12686e-21)
(0.00908859 -1.12021e-18 1.07972e-17)
(0.00908859 -2.76451e-19 4.28162e-21)
(0.0112109 -1.44708e-18 1.11816e-17)
(0.0112109 -3.62267e-19 5.5512e-21)
(0.0133725 -1.77834e-18 1.15745e-17)
(0.0133725 -4.54965e-19 6.9672e-21)
(0.0155739 -2.10707e-18 1.19757e-17)
(0.0155739 -5.59692e-19 8.59275e-21)
(0.017816 -2.43773e-18 1.23855e-17)
(0.017816 -6.58776e-19 1.05161e-20)
(0.0200995 -2.77523e-18 1.2804e-17)
(0.0200995 -7.7e-19 1.20969e-20)
(0.0224251 -3.12033e-18 1.32306e-17)
(0.0224251 -8.71167e-19 1.37708e-20)
(0.0247936 -3.46104e-18 1.3665e-17)
(0.0247936 -9.8216e-19 1.6111e-20)
(0.0272059 -3.79849e-18 1.41078e-17)
(0.0272059 -1.12521e-18 1.87264e-20)
(0.0296626 -4.15198e-18 1.45592e-17)
(0.0296626 -1.27375e-18 2.11811e-20)
(0.0321647 -4.51208e-18 1.50184e-17)
(0.0321647 -1.43035e-18 2.42475e-20)
(0.0347129 -4.87038e-18 1.54857e-17)
(0.0347129 -1.57607e-18 2.73489e-20)
(0.037308 -5.24303e-18 1.5961e-17)
(0.037308 -1.72535e-18 3.05875e-20)
(0.039951 -5.62819e-18 1.64438e-17)
(0.039951 -1.87759e-18 3.43154e-20)
(0.0426427 -6.02956e-18 1.69342e-17)
(0.0426427 -1.99535e-18 3.76886e-20)
(0.045384 -6.45545e-18 1.74314e-17)
(0.045384 -2.13108e-18 4.13098e-20)
(0.0481758 -6.89547e-18 1.79348e-17)
(0.0481758 -2.23587e-18 4.54122e-20)
(0.051019 -7.33227e-18 1.84444e-17)
(0.051019 -2.32237e-18 4.9891e-20)
(0.0539145 -7.80344e-18 1.89598e-17)
(0.0539145 -2.46483e-18 5.49471e-20)
(0.0568633 -8.27818e-18 1.94806e-17)
(0.0568633 -2.62071e-18 5.96684e-20)
(0.0598664 -8.70548e-18 2.00055e-17)
(0.0598664 -2.80484e-18 6.59159e-20)
(0.0629246 -9.11451e-18 2.05359e-17)
(0.0629246 -3.05765e-18 7.27958e-20)
(0.0660391 -9.54305e-18 2.10718e-17)
(0.0660391 -3.27545e-18 7.81222e-20)
(0.0692108 -9.98041e-18 2.161e-17)
(0.0692108 -3.49091e-18 4.0595e-19)
(0.0724408 -1.04321e-17 2.21505e-17)
(0.0724408 -3.73984e-18 8.72268e-19)
(0.0757301 -1.09233e-17 2.26932e-17)
(0.0757301 -3.9983e-18 1.38228e-18)
(0.0790797 -1.14268e-17 2.32365e-17)
(0.0790797 -4.26514e-18 1.94366e-18)
(0.0824908 -1.19252e-17 2.37806e-17)
(0.0824908 -4.46133e-18 2.55493e-18)
(0.0859645 -1.24325e-17 2.43237e-17)
(0.0859645 -4.66765e-18 3.22089e-18)
(0.0895017 -1.29728e-17 2.48652e-17)
(0.0895017 -4.91023e-18 3.94714e-18)
(0.0931038 -1.35068e-17 2.54007e-17)
(0.0931038 -5.14794e-18 4.73574e-18)
(0.0967718 -1.40816e-17 2.59347e-17)
(0.0967718 -5.43892e-18 5.58617e-18)
(0.100507 -1.45753e-17 2.64589e-17)
(0.100507 -5.71943e-18 6.50424e-18)
(0.10431 -1.50108e-17 2.69809e-17)
(0.10431 -5.96441e-18 7.49225e-18)
(0.108183 -1.5564e-17 2.74963e-17)
(0.108183 -6.37634e-18 8.55875e-18)
(0.112126 -1.60816e-17 2.80055e-17)
(0.112126 -6.78324e-18 9.69925e-18)
(0.116142 -1.66057e-17 2.8512e-17)
(0.116142 -6.96172e-18 1.09233e-17)
(0.12023 -1.7152e-17 2.90132e-17)
(0.12023 -7.37991e-18 1.2234e-17)
(0.124393 -1.75597e-17 2.95079e-17)
(0.124393 -7.83171e-18 1.36347e-17)
(0.128631 -1.80657e-17 2.99969e-17)
(0.128631 -8.21662e-18 1.51215e-17)
(0.132947 -1.86476e-17 3.04739e-17)
(0.132947 -8.35157e-18 1.67064e-17)
(0.13734 -1.92075e-17 3.0939e-17)
(0.13734 -8.33237e-18 1.83976e-17)
(0.141813 -1.99076e-17 3.13835e-17)
(0.141813 -8.8326e-18 2.0199e-17)
(0.146367 -2.02419e-17 3.18123e-17)
(0.146367 -9.49012e-18 2.20959e-17)
(0.151002 -2.06553e-17 3.2241e-17)
(0.151002 -1.00141e-17 2.40983e-17)
(0.155721 -2.15349e-17 3.26446e-17)
(0.155721 -1.04002e-17 2.62245e-17)
(0.160525 -2.21058e-17 3.30119e-17)
(0.160525 -1.06302e-17 2.84841e-17)
(0.165414 -2.22336e-17 3.33547e-17)
(0.165414 -1.07661e-17 3.08716e-17)
(0.17039 -2.23182e-17 3.36919e-17)
(0.17039 -1.13313e-17 3.33956e-17)
(0.175455 -2.27038e-17 3.40037e-17)
(0.175455 -1.1973e-17 3.60467e-17)
(0.180609 -2.32237e-17 3.42925e-17)
(0.180609 -1.23539e-17 3.88314e-17)
(0.185854 -2.38503e-17 3.45562e-17)
(0.185854 -1.28556e-17 4.17553e-17)
(0.191191 -2.43416e-17 3.47803e-17)
(0.191191 -1.30864e-17 4.48305e-17)
(0.196621 -2.46874e-17 3.49848e-17)
(0.196621 -1.34157e-17 4.80638e-17)
(0.202144 -2.50998e-17 3.5153e-17)
(0.202144 -1.4016e-17 5.14574e-17)
(0.207763 -2.53513e-17 3.52993e-17)
(0.207763 -1.45705e-17 5.49994e-17)
(0.213477 -2.56601e-17 3.54155e-17)
(0.213477 -1.51603e-17 5.86907e-17)
(0.219288 -2.60857e-17 3.55087e-17)
(0.219288 -1.57302e-17 6.2521e-17)
(0.225195 -2.6489e-17 3.55783e-17)
(0.225195 -1.61399e-17 6.65219e-17)
(0.231201 -2.69015e-17 3.5608e-17)
(0.231201 -1.61739e-17 7.07128e-17)
(0.237304 -2.72404e-17 3.55894e-17)
(0.237304 -1.6614e-17 7.50686e-17)
(0.243506 -2.75257e-17 3.55274e-17)
(0.243506 -1.70853e-17 7.95707e-17)
(0.249807 -2.80924e-17 3.54178e-17)
(0.249807 -1.70599e-17 8.42349e-17)
(0.256205 -2.87444e-17 3.52108e-17)
(0.256205 -1.73413e-17 8.90959e-17)
(0.262701 -2.94223e-17 3.4925e-17)
(0.262701 -1.82123e-17 9.41359e-17)
(0.269295 -3.00436e-17 3.4572e-17)
(0.269295 -1.86995e-17 9.93025e-17)
(0.275985 -3.0017e-17 3.41889e-17)
(0.275985 -1.95163e-17 1.04556e-16)
(0.282771 -3.03405e-17 3.37801e-17)
(0.282771 -2.091e-17 1.09994e-16)
(0.28965 -3.09018e-17 3.32535e-17)
(0.28965 -2.11997e-17 1.15664e-16)
(0.296622 -3.12694e-17 3.26409e-17)
(0.296622 -2.16314e-17 1.2145e-16)
(0.303684 -3.22352e-17 3.1918e-17)
(0.303684 -2.19101e-17 1.27332e-16)
(0.310834 -3.2633e-17 3.72671e-17)
(0.310834 -2.32504e-17 1.33264e-16)
(0.31807 -3.26857e-17 4.48061e-17)
(0.31807 -2.35079e-17 1.39236e-16)
(0.325387 -3.32001e-17 5.25086e-17)
(0.325387 -2.38824e-17 1.45376e-16)
(0.332783 -3.3152e-17 6.02701e-17)
(0.332783 -2.54466e-17 1.51683e-16)
(0.340254 -3.31098e-17 6.81361e-17)
(0.340254 -2.48179e-17 1.57936e-16)
(0.347796 -3.31026e-17 7.62488e-17)
(0.347796 -2.50581e-17 1.64082e-16)
(0.355404 -3.28788e-17 8.45759e-17)
(0.355404 -2.47829e-17 1.70299e-16)
(0.363074 -3.29749e-17 9.29325e-17)
(0.363074 -2.44747e-17 1.76596e-16)
(0.370801 -3.26633e-17 1.01301e-16)
(0.370801 -2.54299e-17 1.8274e-16)
(0.378579 -3.20633e-17 1.09738e-16)
(0.378579 -2.59555e-17 1.88624e-16)
(0.386403 -3.10642e-17 1.18373e-16)
(0.386403 -2.65767e-17 1.94279e-16)
(0.394268 -2.96385e-17 1.27222e-16)
(0.394268 -2.72472e-17 1.99861e-16)
(0.402166 -2.89405e-17 1.35874e-16)
(0.402166 -2.65243e-17 2.05251e-16)
(0.410093 -2.85121e-17 1.44615e-16)
(0.410093 -2.5656e-17 2.10461e-16)
(0.418043 -2.86878e-17 1.53379e-16)
(0.418043 -2.55519e-17 2.15567e-16)
(0.426009 -2.88682e-17 1.62078e-16)
(0.426009 -2.57628e-17 2.20507e-16)
(0.433984 -2.83188e-17 1.70732e-16)
(0.433984 -2.44219e-17 2.25302e-16)
(0.441965 -2.89965e-17 1.79371e-16)
(0.441965 -2.40728e-17 2.29971e-16)
(0.449943 -2.97909e-17 1.87919e-16)
(0.449943 -2.58875e-17 2.34358e-16)
(0.457915 -2.90246e-17 1.96241e-16)
(0.457915 -2.44813e-17 2.3831e-16)
(0.465874 -2.80608e-17 2.04483e-16)
(0.465874 -2.16681e-17 2.42058e-16)
(0.473815 -2.77061e-17 2.12595e-16)
(0.473815 -2.19378e-17 2.45677e-16)
(0.481732 -2.7621e-17 2.20433e-16)
(0.481732 -2.02529e-17 2.5002e-16)
(0.489622 -2.76437e-17 2.27941e-16)
(0.489622 -1.74117e-17 2.54407e-16)
(0.49748 -2.79457e-17 2.35064e-16)
(0.49748 -1.77818e-17 2.58663e-16)
(0.505301 -2.88111e-17 2.42114e-16)
(0.505301 -1.62265e-17 2.62717e-16)
(0.513082 -2.98209e-17 2.49312e-16)
(0.513082 -1.37674e-17 2.66155e-16)
(0.520819 -2.90622e-17 2.56321e-16)
(0.520819 -1.45071e-17 2.69152e-16)
(0.528509 -2.50153e-17 2.62707e-16)
(0.528509 -1.46017e-17 2.71288e-16)
(0.536149 -2.25914e-17 2.69759e-16)
(0.536149 -1.17013e-17 2.73254e-16)
(0.543736 -2.20701e-17 2.76252e-16)
(0.543736 -1.2318e-17 2.74617e-16)
(0.551268 -2.01447e-17 2.82708e-16)
(0.551268 -1.36628e-17 2.75284e-16)
(0.558743 -1.99647e-17 2.89076e-16)
(0.558743 -9.95288e-18 2.75617e-16)
(0.566159 -2.22805e-17 2.95189e-16)
(0.566159 -5.80603e-18 2.75739e-16)
(0.573514 -2.4605e-17 3.0031e-16)
(0.573514 -5.09856e-18 2.75092e-16)
(0.580809 -2.41709e-17 3.05471e-16)
(0.580809 -4.701e-18 2.74042e-16)
(0.58804 -2.20556e-17 3.10437e-16)
(0.58804 -2.934e-18 2.73261e-16)
(0.595208 -2.04721e-17 3.14892e-16)
(0.595208 -1.91496e-18 2.7234e-16)
(0.602313 -1.84548e-17 3.19224e-16)
(0.602313 -1.44148e-18 2.71685e-16)
(0.609352 -1.69354e-17 3.23389e-16)
(0.609352 -9.58081e-19 2.70098e-16)
(0.616327 -1.3138e-17 3.2712e-16)
(0.616327 6.21471e-19 2.67691e-16)
(0.623238 -9.33463e-18 3.31585e-16)
(0.623238 5.96313e-18 2.65947e-16)
(0.630083 -1.22401e-17 3.35789e-16)
(0.630083 8.50443e-18 2.63945e-16)
(0.636864 -1.65722e-17 3.39164e-16)
(0.636864 1.00072e-17 2.61091e-16)
(0.643581 -1.46644e-17 3.41609e-16)
(0.643581 1.03123e-17 2.56786e-16)
(0.650234 -9.7511e-18 3.45513e-16)
(0.650234 9.79508e-18 2.52517e-16)
(0.656823 -5.74166e-18 3.50194e-16)
(0.656823 1.12869e-17 2.48205e-16)
(0.66335 -2.22806e-18 3.54736e-16)
(0.66335 1.15672e-17 2.43193e-16)
(0.669815 -1.41434e-18 3.58122e-16)
(0.669815 1.23817e-17 2.38173e-16)
(0.676218 -3.12873e-18 3.61739e-16)
(0.676218 1.54653e-17 2.33407e-16)
(0.68256 -3.17341e-18 3.65133e-16)
(0.68256 1.68e-17 2.2833e-16)
(0.688842 -4.69577e-19 3.68621e-16)
(0.688842 1.78514e-17 2.22666e-16)
(0.695066 -6.62349e-19 3.71706e-16)
(0.695066 2.31845e-17 2.17246e-16)
(0.701231 -1.09768e-18 3.74664e-16)
(0.701231 2.36226e-17 2.11124e-16)
(0.707338 -1.592e-19 3.77054e-16)
(0.707338 2.19598e-17 2.05029e-16)
(0.71339 8.53082e-19 3.78181e-16)
(0.71339 2.18002e-17 1.9969e-16)
(0.719385 1.44635e-18 3.79556e-16)
(0.719385 2.38609e-17 1.9413e-16)
(0.725326 1.0319e-18 3.82011e-16)
(0.725326 2.6555e-17 1.87304e-16)
(0.731214 -2.18213e-18 3.84009e-16)
(0.731214 2.49142e-17 1.81038e-16)
(0.737049 -8.33016e-18 3.85192e-16)
(0.737049 2.65269e-17 1.75139e-16)
(0.742832 -1.36999e-17 3.85565e-16)
(0.742832 3.17212e-17 1.69015e-16)
(0.748565 -1.56776e-17 3.85372e-16)
(0.748565 3.29232e-17 1.62574e-16)
(0.754247 -7.7919e-18 3.85117e-16)
(0.754247 2.93167e-17 1.57333e-16)
(0.759881 -2.71539e-18 3.86834e-16)
(0.759881 3.01901e-17 1.51892e-16)
(0.765467 -9.013e-18 3.85919e-16)
(0.765467 3.3329e-17 1.45736e-16)
(0.771006 -1.49307e-17 3.84775e-16)
(0.771006 3.84656e-17 1.373e-16)
(0.776499 -1.64834e-17 3.85754e-16)
(0.776499 4.00367e-17 1.2853e-16)
(0.781946 -1.61646e-17 3.87292e-16)
(0.781946 3.67659e-17 1.21615e-16)
(0.78735 -1.74948e-17 3.86772e-16)
(0.78735 3.88124e-17 1.15304e-16)
(0.79271 -2.11121e-17 3.84756e-16)
(0.79271 3.82682e-17 1.07915e-16)
(0.798027 -2.13945e-17 3.83998e-16)
(0.798027 3.63388e-17 1.00968e-16)
(0.803303 -2.07808e-17 3.84118e-16)
(0.803303 3.24751e-17 9.5918e-17)
(0.808538 -2.13548e-17 3.85695e-16)
(0.808538 2.70141e-17 8.81485e-17)
(0.813733 -1.904e-17 3.8732e-16)
(0.813733 2.99038e-17 8.12784e-17)
(0.818889 -2.36499e-17 3.88058e-16)
(0.818889 2.68417e-17 7.59133e-17)
(0.824006 -3.08736e-17 3.85424e-16)
(0.824006 2.41471e-17 6.79621e-17)