/*--------------------------------*- C++ -*----------------------------------*\
| =========                 |                                                 |
| \\      /  F ield         | OpenFOAM: The Open Source CFD Toolbox           |
|  \\    /   O peration     | Version:  2106                                  |
|   \\  /    A nd           | Website:  www.openfoam.com                      |
|    \\/     M anipulation  |                                                 |
\*---------------------------------------------------------------------------*/
FoamFile
{
    version     2.0;
    format      ascii;
    arch        "LSB;label=32;scalar=64";
    class       volVectorField;
    location    "10040";
    object      U;
}
// * * * * * * * * * * * * * * * * * * * * * * * * * * * * * * * * * * * * * //

dimensions      [0 1 -1 0 0 0 0];

internalField   nonuniform List<vector> 
800
(
(0.00306853 -8.03928e-16 5.92753e-19)
(0.00306853 -8.01865e-19 1.82148e-22)
(0.00934882 -2.08316e-16 6.83419e-17)
(0.00934882 1.15704e-18 -1.57327e-17)
(0.015925 -1.64629e-15 7.89333e-17)
(0.015925 1.94927e-18 -1.85292e-17)
(0.0228108 -1.25605e-15 7.40723e-17)
(0.0228108 3.33006e-18 -7.22503e-18)
(0.0300207 -1.24367e-15 8.49899e-17)
(0.0300207 4.73281e-18 -1.71843e-19)
(0.0375697 -1.25252e-15 9.36123e-17)
(0.0375697 6.16168e-18 -2.42927e-19)
(0.0454735 -1.25763e-15 9.39173e-17)
(0.0454735 7.5959e-18 -3.33302e-19)
(0.0537487 -1.2597e-15 1.02902e-16)
(0.0537487 9.03947e-18 -4.39283e-19)
(0.0624123 -1.26223e-15 1.1782e-16)
(0.0624123 1.0717e-17 -5.4944e-19)
(0.0714823 -1.26528e-15 1.34369e-16)
(0.0714823 1.24624e-17 -6.77322e-19)
(0.0809773 -1.26854e-15 1.52703e-16)
(0.0809773 1.37149e-17 -8.50409e-19)
(0.0909167 -1.27175e-15 1.72996e-16)
(0.0909167 1.50988e-17 -1.04525e-18)
(0.101321 -1.27492e-15 1.9543e-16)
(0.101321 1.6607e-17 -1.24102e-18)
(0.11221 -1.27797e-15 2.20209e-16)
(0.11221 1.74731e-17 -1.46614e-18)
(0.123607 -1.28065e-15 2.47551e-16)
(0.123607 1.84632e-17 -1.72967e-18)
(0.135532 -1.28353e-15 2.67769e-16)
(0.135532 1.93442e-17 -2.05185e-18)
(0.148009 -1.28636e-15 2.88535e-16)
(0.148009 2.00097e-17 -2.39543e-18)
(0.161058 -1.28891e-15 3.10948e-16)
(0.161058 2.0935e-17 -2.83372e-18)
(0.174702 -1.2909e-15 3.35108e-16)
(0.174702 2.10144e-17 -3.39624e-18)
(0.188959 -1.29174e-15 3.61073e-16)
(0.188959 2.04293e-17 -3.97963e-18)
(0.203848 -1.29298e-15 3.8894e-16)
(0.203848 1.90088e-17 -4.62358e-18)
(0.219381 -1.29454e-15 4.1845e-16)
(0.219381 1.6947e-17 -5.4532e-18)
(0.235566 -1.29575e-15 4.49436e-16)
(0.235566 1.62461e-17 -6.12986e-18)
(0.252402 -1.29626e-15 4.82002e-16)
(0.252402 1.4215e-17 -6.89771e-18)
(0.269879 -1.29513e-15 5.15355e-16)
(0.269879 1.03589e-17 -8.16799e-18)
(0.287972 -1.29298e-15 5.49053e-16)
(0.287972 7.64405e-18 -9.56656e-18)
(0.306642 -1.29037e-15 5.82773e-16)
(0.306642 3.59058e-18 -1.10568e-17)
(0.325834 -1.28801e-15 6.15292e-16)
(0.325834 -3.30541e-18 -1.25349e-17)
(0.345474 -1.28287e-15 6.41066e-16)
(0.345474 -1.18651e-17 -1.39214e-17)
(0.365473 -1.27599e-15 6.63939e-16)
(0.365473 -1.69729e-17 -1.53141e-17)
(0.385731 -1.26955e-15 6.82465e-16)
(0.385731 -2.82267e-17 -1.65182e-17)
(0.406137 -1.2636e-15 6.97899e-16)
(0.406137 -3.41743e-17 -1.83601e-17)
(0.426579 -1.2535e-15 7.09446e-16)
(0.426579 -4.72074e-17 -1.9803e-17)
(0.446951 -1.24215e-15 7.16287e-16)
(0.446951 -5.79633e-17 -2.14359e-17)
(0.467152 -1.2304e-15 7.19031e-16)
(0.467152 -6.73274e-17 -2.34285e-17)
(0.487098 -1.21334e-15 7.1874e-16)
(0.487098 -8.37708e-17 -2.49063e-17)
(0.506717 -1.18871e-15 7.16491e-16)
(0.506717 -1.05253e-16 -2.66143e-17)
(0.525954 -1.17034e-15 7.09985e-16)
(0.525954 -1.28721e-16 -2.71322e-17)
(0.544768 -1.14205e-15 7.01923e-16)
(0.544768 -1.52065e-16 -2.77544e-17)
(0.563135 -1.12857e-15 6.92001e-16)
(0.563135 -1.68803e-16 -2.85023e-17)
(0.581037 -1.11275e-15 6.81213e-16)
(0.581037 -1.83806e-16 -3.07204e-17)
(0.598472 -1.09376e-15 6.69252e-16)
(0.598472 -2.02492e-16 -3.18613e-17)
(0.61544 -1.07337e-15 6.50629e-16)
(0.61544 -2.23309e-16 -3.20521e-17)
(0.631949 -1.05551e-15 6.31839e-16)
(0.631949 -2.36726e-16 -3.31773e-17)
(0.648011 -1.03371e-15 6.15167e-16)
(0.648011 -2.53143e-16 -3.34076e-17)
(0.663641 -1.00686e-15 5.92562e-16)
(0.663641 -2.72543e-16 -3.42175e-17)
(0.678855 -9.81518e-16 5.68734e-16)
(0.678855 -2.91685e-16 -3.59464e-17)
(0.69367 -9.55873e-16 5.44805e-16)
(0.69367 -3.22837e-16 -3.60431e-17)
(0.708105 -9.3045e-16 5.20987e-16)
(0.708105 -3.41719e-16 -3.55405e-17)
(0.722177 -9.1154e-16 4.95143e-16)
(0.722177 -3.62954e-16 -3.5845e-17)
(0.735904 -8.90791e-16 4.71775e-16)
(0.735904 -3.84101e-16 -2.59571e-17)
(0.749302 -8.57063e-16 4.45596e-16)
(0.749302 -3.86578e-16 -1.67054e-17)
(0.762388 -8.22661e-16 4.2748e-16)
(0.762388 -3.98219e-16 9.46704e-18)
(0.775177 -7.92636e-16 4.20663e-16)
(0.775177 -4.19344e-16 3.80731e-17)
(0.787683 -7.67503e-16 4.10131e-16)
(0.787683 -4.13666e-16 6.86373e-17)
(0.79992 -7.38991e-16 3.96879e-16)
(0.79992 -4.15532e-16 1.02921e-16)
(0.811901 -6.99385e-16 3.97454e-16)
(0.811901 -4.34748e-16 1.40279e-16)
(0.823639 -6.73476e-16 3.86011e-16)
(0.823639 -4.31156e-16 1.73878e-16)
(0.835142 -6.77326e-16 3.792e-16)
(0.835142 -4.38909e-16 2.05722e-16)
(0.846423 -6.54559e-16 3.84846e-16)
(0.846423 -4.46281e-16 2.41902e-16)
(0.857491 -6.15795e-16 3.62389e-16)
(0.857491 -4.30928e-16 2.78905e-16)
(0.868354 -5.96318e-16 3.39846e-16)
(0.868354 -4.15829e-16 3.15516e-16)
(0.87902 -5.88207e-16 3.28462e-16)
(0.87902 -4.25215e-16 3.49125e-16)
(0.889496 -6.04524e-16 3.10436e-16)
(0.889496 -4.1426e-16 3.81912e-16)
(0.89979 -5.54188e-16 3.12876e-16)
(0.89979 -4.11456e-16 3.27379e-16)
(0.909907 -5.13301e-16 3.143e-16)
(0.909907 -4.14754e-16 3.14643e-16)
(0.919853 -4.88172e-16 3.28881e-16)
(0.919853 -4.00455e-16 3.01269e-16)
(0.929632 -4.60544e-16 3.10921e-16)
(0.929632 -4.02026e-16 2.76728e-16)
(0.939249 -4.35822e-16 3.04689e-16)
(0.939249 -3.94665e-16 2.65434e-16)
(0.948708 -4.24932e-16 2.94305e-16)
(0.948708 -4.28701e-16 2.36791e-16)
(0.958012 -3.97028e-16 3.02518e-16)
(0.958012 -4.38178e-16 2.32183e-16)
(0.967164 -3.91192e-16 2.81075e-16)
(0.967164 -4.10668e-16 2.33179e-16)
(0.976166 -3.96859e-16 2.52865e-16)
(0.976166 -4.17689e-16 2.5912e-16)
(0.98502 -4.17415e-16 2.28237e-16)
(0.98502 -4.60013e-16 2.55939e-16)
(0.993726 -4.35826e-16 2.75393e-16)
(0.993726 -4.86377e-16 2.48097e-16)
(1.00229 -4.35704e-16 2.02243e-16)
(1.00229 -4.40554e-16 3.19015e-16)
(1.0107 -4.34756e-16 2.32552e-16)
(1.0107 -4.20196e-16 2.64688e-16)
(1.01897 -4.39044e-16 2.06076e-16)
(1.01897 -4.16329e-16 2.53649e-16)
(1.02709 -4.22122e-16 1.67711e-16)
(1.02709 -3.86084e-16 2.22113e-16)
(1.03506 -4.12575e-16 1.81563e-16)
(1.03506 -4.03342e-16 2.46457e-16)
(1.04288 -3.72579e-16 1.62112e-16)
(1.04288 -3.59077e-16 2.31008e-16)
(1.05054 -3.69314e-16 1.0628e-16)
(1.05054 -3.624e-16 1.4803e-16)
(1.05804 -3.63217e-16 1.57901e-16)
(1.05804 -3.24457e-16 1.40332e-16)
(1.06538 -3.27392e-16 1.26743e-16)
(1.06538 -3.41671e-16 1.11875e-16)
(1.07254 -3.34635e-16 9.95536e-17)
(1.07254 -3.78723e-16 1.37887e-16)
(1.07953 -3.56539e-16 9.74328e-17)
(1.07953 -3.9452e-16 1.90385e-16)
(1.08632 -3.79447e-16 1.75615e-16)
(1.08632 -3.40139e-16 1.55763e-16)
(1.09291 -3.35875e-16 1.70342e-16)
(1.09291 -3.22031e-16 1.18857e-16)
(1.09929 -2.81727e-16 1.48684e-16)
(1.09929 -3.27802e-16 1.27407e-16)
(1.10542 -2.74445e-16 1.25491e-16)
(1.10542 -3.2646e-16 8.48538e-17)
(1.1113 -3.36989e-16 1.69698e-17)
(1.1113 -3.58902e-16 2.14387e-16)
(1.1169 -3.53038e-16 2.34957e-16)
(1.1169 -2.89585e-16 4.00088e-16)
(1.12218 -2.98025e-16 2.38862e-16)
(1.12218 -2.56657e-16 3.97576e-16)
(1.1271 -2.13713e-16 1.31238e-16)
(1.1271 -1.68126e-16 2.65294e-16)
(1.13161 -2.07375e-16 1.96305e-16)
(1.13161 -1.64935e-16 1.47786e-16)
(1.13564 -1.66809e-16 3.8962e-16)
(1.13564 -1.89098e-16 1.9426e-16)
(1.13911 -2.95683e-16 1.31854e-16)
(1.13911 -1.85179e-16 3.26015e-16)
(1.14193 -2.44464e-16 2.2098e-16)
(1.14193 -1.55732e-16 1.4029e-16)
(1.14395 -2.60669e-16 5.09842e-16)
(1.14395 -1.4357e-16 2.84832e-16)
(1.14504 -7.43192e-17 2.69567e-16)
(1.14504 -1.19922e-16 2.30098e-16)
(0.00306853 -1.93247e-19 1.72463e-18)
(0.00306853 -2.5575e-20 5.07891e-18)
(0.00934882 6.8556e-19 2.21062e-17)
(0.00934882 2.12954e-19 1.66913e-17)
(0.015925 1.24135e-18 2.45529e-17)
(0.015925 3.68854e-19 1.82794e-17)
(0.0228108 2.10321e-18 2.36263e-17)
(0.0228108 6.02645e-19 1.9987e-17)
(0.0300207 3.00267e-18 2.29262e-17)
(0.0300207 9.16809e-19 2.1818e-17)
(0.0375697 3.91104e-18 2.25026e-17)
(0.0375697 1.32218e-18 2.37766e-17)
(0.0454735 4.82855e-18 2.19431e-17)
(0.0454735 1.82657e-18 2.58752e-17)
(0.0537487 5.81616e-18 1.37895e-17)
(0.0537487 2.39557e-18 2.81123e-17)
(0.0624123 6.93536e-18 3.44699e-18)
(0.0624123 2.92874e-18 3.0499e-17)
(0.0714823 8.20354e-18 -8.17762e-18)
(0.0714823 3.38864e-18 3.30303e-17)
(0.0809773 9.3104e-18 -1.18575e-17)
(0.0809773 4.11036e-18 3.57097e-17)
(0.0909167 1.01788e-17 -1.28053e-17)
(0.0909167 5.03614e-18 3.85526e-17)
(0.101321 1.12007e-17 -1.38217e-17)
(0.101321 6.11905e-18 4.15448e-17)
(0.11221 1.26457e-17 -1.48841e-17)
(0.11221 7.00083e-18 4.46921e-17)
(0.123607 1.4007e-17 -1.56289e-17)
(0.123607 7.60788e-18 4.80001e-17)
(0.135532 1.54236e-17 -1.6143e-17)
(0.135532 8.46398e-18 5.14236e-17)
(0.148009 1.66171e-17 -1.65564e-17)
(0.148009 9.9277e-18 5.50301e-17)
(0.161058 1.7195e-17 -1.68953e-17)
(0.161058 1.11982e-17 5.88045e-17)
(0.174702 1.82836e-17 -1.7154e-17)
(0.174702 1.21245e-17 6.2676e-17)
(0.188959 2.00869e-17 -1.72676e-17)
(0.188959 1.37374e-17 6.67217e-17)
(0.203848 2.19983e-17 -1.72485e-17)
(0.203848 1.47281e-17 7.08495e-17)
(0.219381 2.31191e-17 -1.70386e-17)
(0.219381 1.65459e-17 7.51597e-17)
(0.235566 2.33815e-17 -2.03878e-17)
(0.235566 1.94325e-17 7.94546e-17)
(0.252402 2.40378e-17 -2.58841e-17)
(0.252402 2.10774e-17 8.36848e-17)
(0.269879 2.55383e-17 -3.17899e-17)
(0.269879 2.18935e-17 8.81522e-17)
(0.287972 2.75155e-17 -3.77658e-17)
(0.287972 2.32297e-17 9.24009e-17)
(0.306642 2.92899e-17 -4.41343e-17)
(0.306642 2.48785e-17 9.63534e-17)
(0.325834 3.01403e-17 -5.10255e-17)
(0.325834 2.72988e-17 1.00401e-16)
(0.345474 2.84065e-17 -5.80055e-17)
(0.345474 3.20491e-17 1.04038e-16)
(0.365473 2.78326e-17 -6.48113e-17)
(0.365473 3.70305e-17 1.07018e-16)
(0.385731 2.90924e-17 -7.167e-17)
(0.385731 3.87542e-17 1.10097e-16)
(0.406137 2.76285e-17 -7.81566e-17)
(0.406137 3.99022e-17 1.12363e-16)
(0.426579 2.43393e-17 -8.41272e-17)
(0.426579 4.29901e-17 1.13492e-16)
(0.446951 2.24075e-17 -8.92661e-17)
(0.446951 4.43185e-17 1.14207e-16)
(0.467152 2.18169e-17 -9.43357e-17)
(0.467152 4.52279e-17 1.14417e-16)
(0.487098 2.14727e-17 -9.85441e-17)
(0.487098 4.70396e-17 1.13383e-16)
(0.506717 2.38627e-17 -1.01226e-16)
(0.506717 4.75886e-17 1.11515e-16)
(0.525954 2.83175e-17 -1.05465e-16)
(0.525954 5.10631e-17 1.09829e-16)
(0.544768 3.0425e-17 -1.1121e-16)
(0.544768 5.24049e-17 9.91997e-17)
(0.563135 2.89903e-17 -1.14175e-16)
(0.563135 5.19987e-17 8.83045e-17)
(0.581037 2.46934e-17 -1.16335e-16)
(0.581037 5.81224e-17 7.64502e-17)
(0.598472 2.3845e-17 -1.18993e-16)
(0.598472 5.95477e-17 6.46234e-17)
(0.61544 2.40826e-17 -1.21845e-16)
(0.61544 5.47354e-17 5.33815e-17)
(0.631949 2.22227e-17 -1.25288e-16)
(0.631949 5.89689e-17 4.2547e-17)
(0.648011 1.77116e-17 -1.28634e-16)
(0.648011 5.80919e-17 3.26323e-17)
(0.663641 1.22892e-17 -1.31805e-16)
(0.663641 5.74855e-17 2.40419e-17)
(0.678855 8.95803e-18 -1.35825e-16)
(0.678855 5.45106e-17 1.46567e-17)
(0.69367 1.23342e-17 -1.38736e-16)
(0.69367 4.40447e-17 6.05836e-18)
(0.708105 1.11845e-17 -1.39134e-16)
(0.708105 4.62342e-17 1.45697e-17)
(0.722177 6.93094e-18 -1.43943e-16)
(0.722177 4.36706e-17 1.43321e-17)
(0.735904 6.31632e-19 -1.53091e-16)
(0.735904 4.47271e-17 1.25484e-17)
(0.749302 -6.36694e-18 -1.58885e-16)
(0.749302 3.52375e-17 1.78601e-17)
(0.762388 -2.39167e-18 -1.62782e-16)
(0.762388 3.15057e-17 1.79848e-17)
(0.775177 -3.6521e-18 -1.66949e-16)
(0.775177 3.33004e-17 6.62757e-18)
(0.787683 -2.20609e-18 -1.73083e-16)
(0.787683 1.16424e-17 -1.48557e-17)
(0.79992 6.89414e-18 -1.89629e-16)
(0.79992 1.25526e-17 -3.65005e-17)
(0.811901 -4.28938e-18 -1.98656e-16)
(0.811901 1.53108e-17 -6.19377e-17)
(0.823639 -1.45857e-17 -2.15713e-16)
(0.823639 2.19536e-17 -7.7737e-17)
(0.835142 -1.26328e-17 -2.21037e-16)
(0.835142 1.29695e-17 -9.62179e-17)
(0.846423 -2.61341e-17 -2.13175e-16)
(0.846423 -2.37825e-18 -1.32159e-16)
(0.857491 -1.47546e-17 -2.42274e-16)
(0.857491 1.34203e-19 -1.66255e-16)
(0.868354 -5.42562e-17 -2.7815e-16)
(0.868354 -1.63044e-17 -1.85859e-16)
(0.87902 -7.9738e-17 -2.93645e-16)
(0.87902 -2.39535e-17 -2.08211e-16)
(0.889496 -7.4485e-17 -3.06143e-16)
(0.889496 -3.834e-17 -2.46245e-16)
(0.89979 -7.54841e-17 -3.4094e-16)
(0.89979 -4.53691e-17 -3.03465e-16)
(0.909907 -7.37685e-17 -3.71834e-16)
(0.909907 -5.31992e-17 -3.36126e-16)
(0.919853 -5.798e-17 -3.67309e-16)
(0.919853 -6.98551e-17 -3.5221e-16)
(0.929632 -4.17603e-17 -4.22251e-16)
(0.929632 -5.72982e-17 -3.96667e-16)
(0.939249 -5.60349e-17 -4.11278e-16)
(0.939249 -6.91945e-17 -4.00185e-16)
(0.948708 -8.3629e-17 -4.2013e-16)
(0.948708 -8.33451e-17 -3.85368e-16)
(0.958012 -8.87913e-17 -3.88554e-16)
(0.958012 -6.22865e-17 -3.66885e-16)
(0.967164 -6.1557e-17 -3.6007e-16)
(0.967164 -6.63092e-17 -3.65418e-16)
(0.976166 -9.93252e-17 -3.76357e-16)
(0.976166 -8.47207e-17 -3.54047e-16)
(0.98502 -1.32851e-16 -4.28695e-16)
(0.98502 -1.05475e-16 -3.53895e-16)
(0.993726 -1.77493e-16 -3.91489e-16)
(0.993726 -1.33656e-16 -3.34493e-16)
(1.00229 -1.1912e-16 -3.83194e-16)
(1.00229 -1.40534e-16 -2.42937e-16)
(1.0107 -9.68969e-17 -3.22912e-16)
(1.0107 -1.2134e-16 -2.01008e-16)
(1.01897 -1.06507e-16 -3.25286e-16)
(1.01897 -9.69927e-17 -2.85422e-16)
(1.02709 -1.3916e-16 -2.38145e-16)
(1.02709 -1.09877e-16 -2.59187e-16)
(1.03506 -1.7789e-16 -1.75077e-16)
(1.03506 -1.77649e-16 -1.92919e-16)
(1.04288 -1.67874e-16 -2.3264e-16)
(1.04288 -1.92223e-16 -1.60239e-16)
(1.05054 -3.79152e-16 -1.282e-16)
(1.05054 -1.91539e-16 -2.41772e-16)
(1.05804 -2.78356e-16 -1.32588e-16)
(1.05804 -3.52662e-16 -1.3061e-16)
(1.06538 -2.64811e-16 -1.37689e-16)
(1.06538 -3.28381e-16 -1.08922e-16)
(1.07254 -2.63714e-16 -1.21131e-16)
(1.07254 -2.67097e-16 -2.04253e-16)
(1.07953 -2.69569e-16 -1.66222e-16)
(1.07953 -2.37304e-16 -1.84925e-16)
(1.08632 -3.34446e-16 -1.09731e-16)
(1.08632 -3.04975e-16 -1.03527e-16)
(1.09291 -3.20511e-16 -8.05199e-17)
(1.09291 -3.03964e-16 -3.59557e-17)
(1.09929 -2.90642e-16 -1.36557e-16)
(1.09929 -3.00946e-16 -7.82506e-17)
(1.10542 -3.27745e-16 -1.13906e-16)
(1.10542 -3.1771e-16 -7.87536e-17)
(1.1113 -2.68833e-16 -2.04413e-16)
(1.1113 -3.11796e-16 -7.57038e-17)
(1.1169 -3.07998e-16 -1.07789e-16)
(1.1169 -3.4129e-16 -2.71256e-16)
(1.12218 -2.199e-16 -2.3053e-16)
(1.12218 -2.43911e-16 -3.0777e-16)
(1.1271 -2.10092e-16 -9.7582e-17)
(1.1271 -1.58761e-16 -1.41224e-16)
(1.13161 -2.00574e-16 -2.42898e-16)
(1.13161 -1.63158e-16 -2.15738e-16)
(1.13564 -2.01781e-16 -1.13618e-16)
(1.13564 -1.72487e-16 -2.77036e-16)
(1.13911 -2.07198e-16 -1.54818e-16)
(1.13911 -1.74913e-16 -1.93448e-16)
(1.14193 -2.07886e-16 -1.75877e-16)
(1.14193 -1.85428e-16 -1.04826e-16)
(1.14395 -1.36512e-16 -4.8915e-16)
(1.14395 -2.24798e-16 -3.51635e-16)
(1.14504 -1.36858e-16 -2.35589e-16)
(1.14504 -1.1451e-16 -2.83169e-16)
(1.14504 -1.33601e-16 1.29236e-16)
(1.14504 -1.20815e-16 1.87683e-16)
(1.14395 -1.18109e-16 1.44497e-16)
(1.14395 -6.60947e-17 1.61918e-16)
(1.14193 -5.16192e-17 3.19075e-16)
(1.14193 -5.15889e-17 1.41411e-16)
(1.13911 1.1529e-17 1.68904e-16)
(1.13911 -5.15943e-17 2.40929e-16)
(1.13564 -4.36598e-17 1.45664e-16)
(1.13564 -9.8988e-18 2.43357e-16)
(1.13161 -1.56353e-16 1.0707e-16)
(1.13161 -8.1777e-17 1.50492e-16)
(1.1271 -2.32735e-16 4.1481e-16)
(1.1271 -2.15034e-16 1.72515e-16)
(1.12218 -6.63081e-17 3.16997e-16)
(1.12218 -1.63453e-16 3.42037e-16)
(1.1169 -2.15399e-16 1.71293e-16)
(1.1169 -1.32415e-16 1.7964e-16)
(1.1113 -1.77553e-16 1.48023e-16)
(1.1113 -1.42826e-16 1.67964e-16)
(1.10542 -1.54129e-16 1.56573e-16)
(1.10542 -1.49196e-16 1.45435e-16)
(1.09929 -1.42556e-16 1.41088e-16)
(1.09929 -1.37312e-16 1.65318e-16)
(1.09291 -1.12841e-16 1.37259e-16)
(1.09291 -2.05102e-16 1.71217e-16)
(1.08632 -1.32829e-16 1.25049e-16)
(1.08632 -1.27864e-16 1.42784e-16)
(1.07953 -1.0358e-16 2.27638e-16)
(1.07953 -1.76865e-16 2.30059e-16)
(1.07254 -8.84194e-17 7.62349e-17)
(1.07254 -1.42738e-16 1.25412e-16)
(1.06538 -1.28597e-16 3.66711e-17)
(1.06538 -1.08023e-16 5.28871e-17)
(1.05804 -8.0054e-17 3.16032e-17)
(1.05804 -5.86758e-17 2.04315e-17)
(1.05054 -1.03243e-16 1.3816e-16)
(1.05054 -1.59063e-16 8.78079e-17)
(1.04288 -7.88498e-17 1.25465e-16)
(1.04288 -8.25881e-17 1.47089e-16)
(1.03506 -6.5655e-17 6.51274e-17)
(1.03506 -3.62859e-17 8.74483e-17)
(1.02709 -4.05851e-17 5.97931e-17)
(1.02709 -3.25614e-17 8.60391e-17)
(1.01897 -6.41804e-17 6.32664e-17)
(1.01897 -4.66457e-17 6.8019e-17)
(1.0107 -3.70536e-17 5.39793e-17)
(1.0107 -4.39091e-17 6.50092e-17)
(1.00229 -3.4251e-17 8.50229e-17)
(1.00229 -1.45783e-17 7.75966e-17)
(0.993726 -1.26676e-17 7.37214e-17)
(0.993726 -2.36151e-17 7.17184e-17)
(0.98502 -1.39282e-17 5.23832e-17)
(0.98502 -2.45837e-17 7.76596e-17)
(0.976166 -3.11561e-18 4.41686e-17)
(0.976166 -7.86106e-18 7.87086e-17)
(0.967164 -2.9881e-17 8.00869e-17)
(0.967164 -5.13646e-18 4.86938e-17)
(0.958012 -3.49207e-17 5.38139e-17)
(0.958012 -4.78093e-17 6.04178e-17)
(0.948708 -2.73057e-17 5.59592e-17)
(0.948708 -3.69524e-17 5.5734e-17)
(0.939249 -2.94648e-17 6.37303e-17)
(0.939249 -3.14866e-17 6.45994e-17)
(0.929632 -2.94679e-17 5.41091e-17)
(0.929632 -1.25242e-17 4.98937e-17)
(0.919853 -4.09552e-17 4.68988e-17)
(0.919853 -2.19438e-17 4.73807e-17)
(0.909907 -5.23164e-17 3.87818e-17)
(0.909907 -3.1726e-17 2.96154e-17)
(0.89979 -4.25459e-17 2.45094e-17)
(0.89979 -2.41023e-17 2.90155e-17)
(0.889496 -4.4018e-17 2.86768e-17)
(0.889496 -3.64957e-17 2.63977e-17)
(0.87902 -4.2271e-17 2.44432e-17)
(0.87902 -2.33975e-17 1.88675e-17)
(0.868354 -3.60057e-17 1.65176e-17)
(0.868354 -6.34292e-18 1.59177e-17)
(0.857491 -4.57437e-17 1.91924e-17)
(0.857491 -2.99563e-17 1.27115e-17)
(0.846423 -2.80953e-17 2.53143e-17)
(0.846423 -5.18286e-18 7.28181e-18)
(0.835142 -1.75577e-17 5.26478e-18)
(0.835142 -2.29804e-17 1.9412e-17)
(0.823639 -2.28655e-17 1.26951e-17)
(0.823639 -2.5143e-17 1.59491e-17)
(0.811901 -2.25722e-17 6.01528e-18)
(0.811901 -3.00115e-17 1.62256e-17)
(0.79992 -2.41535e-17 1.38919e-17)
(0.79992 -1.38971e-17 1.53583e-17)
(0.787683 -1.52959e-17 1.12057e-17)
(0.787683 -2.44086e-17 1.59562e-17)
(0.775177 -1.11101e-17 7.53913e-18)
(0.775177 -2.60592e-17 1.18918e-17)
(0.762388 -1.14562e-17 9.17733e-18)
(0.762388 -2.08155e-17 1.59226e-17)
(0.749302 -1.15871e-18 8.8446e-18)
(0.749302 -1.45078e-17 1.34687e-17)
(0.735904 -5.07019e-18 6.27819e-18)
(0.735904 -1.09472e-17 1.25913e-17)
(0.722177 6.51336e-19 1.76718e-18)
(0.722177 -1.09627e-17 1.51047e-17)
(0.708105 8.50264e-18 4.89792e-18)
(0.708105 -2.52782e-18 1.66982e-17)
(0.69367 3.54646e-18 4.07349e-18)
(0.69367 -1.65265e-17 2.08414e-17)
(0.678855 1.45974e-19 6.03686e-18)
(0.678855 -1.2173e-17 2.06622e-17)
(0.663641 -2.77713e-18 4.50578e-18)
(0.663641 -1.06651e-17 1.97149e-17)
(0.648011 8.30857e-19 6.66557e-18)
(0.648011 -9.70793e-18 2.07113e-17)
(0.631949 -1.88626e-18 9.59258e-18)
(0.631949 -1.22031e-17 1.91236e-17)
(0.61544 -4.04548e-18 1.0469e-17)
(0.61544 -8.94576e-18 1.94025e-17)
(0.598472 -4.58038e-19 1.07044e-17)
(0.598472 -5.75348e-18 1.97108e-17)
(0.581037 -1.45527e-17 1.14547e-17)
(0.581037 -1.97353e-19 1.89306e-17)
(0.563135 -2.04319e-17 1.09496e-17)
(0.563135 4.35598e-18 1.5113e-17)
(0.544768 -1.45302e-17 9.37593e-18)
(0.544768 -1.53448e-18 1.12482e-17)
(0.525954 -8.15301e-18 7.87223e-18)
(0.525954 -6.59893e-18 1.14165e-17)
(0.506717 -8.59904e-18 8.91549e-18)
(0.506717 -4.30194e-18 1.21601e-17)
(0.487098 -7.63145e-18 9.92404e-18)
(0.487098 -4.95558e-18 1.18155e-17)
(0.467152 -6.73293e-18 9.50264e-18)
(0.467152 -2.57914e-18 1.06666e-17)
(0.446951 -1.00298e-17 9.41592e-18)
(0.446951 7.4662e-19 8.35511e-18)
(0.426579 -1.24795e-17 9.25848e-18)
(0.426579 1.1368e-18 6.88195e-18)
(0.406137 -1.10938e-17 9.4521e-18)
(0.406137 1.22063e-18 5.2396e-18)
(0.385731 -8.32514e-18 8.47239e-18)
(0.385731 1.2122e-18 3.66056e-18)
(0.365473 -5.05667e-18 7.86795e-18)
(0.365473 -1.5469e-18 3.10522e-18)
(0.345474 -4.05675e-18 7.52835e-18)
(0.345474 -2.62677e-18 2.81911e-18)
(0.325834 -3.26955e-18 7.24727e-18)
(0.325834 -2.18492e-18 2.48137e-18)
(0.306642 -3.70084e-18 6.6165e-18)
(0.306642 -1.82501e-18 1.94755e-18)
(0.287972 -3.81737e-18 6.08902e-18)
(0.287972 -1.23561e-18 1.48509e-18)
(0.269879 -3.358e-18 5.60382e-18)
(0.269879 -1.40471e-18 1.15543e-18)
(0.252402 -3.17487e-18 5.15365e-18)
(0.252402 -1.17734e-18 1.11697e-18)
(0.235566 -2.47142e-18 4.79084e-18)
(0.235566 -2.07189e-19 9.78976e-19)
(0.219381 -1.01368e-18 4.40722e-18)
(0.219381 -1.02557e-19 8.0519e-19)
(0.203848 -7.03248e-19 3.9952e-18)
(0.203848 1.88679e-19 6.56989e-19)
(0.188959 -4.96006e-19 3.61624e-18)
(0.188959 -6.13076e-19 6.21773e-19)
(0.174702 -9.2793e-20 3.22864e-18)
(0.174702 -1.24343e-18 5.30642e-19)
(0.161058 -1.84674e-19 2.86377e-18)
(0.161058 -8.47921e-19 4.67164e-19)
(0.148009 -2.99126e-19 2.6484e-18)
(0.148009 -2.68832e-19 4.06884e-19)
(0.135532 -2.78503e-19 2.40589e-18)
(0.135532 -1.78168e-19 3.28779e-19)
(0.123607 -2.44879e-19 2.18286e-18)
(0.123607 -2.54591e-20 2.59355e-19)
(0.11221 -1.43042e-19 1.99494e-18)
(0.11221 4.51992e-21 2.27161e-19)
(0.101321 7.85136e-20 1.81059e-18)
(0.101321 -1.58218e-19 1.94397e-19)
(0.0909167 9.74539e-20 1.63908e-18)
(0.0909167 -1.33453e-19 1.5746e-19)
(0.0809773 9.39766e-20 1.49207e-18)
(0.0809773 -2.16877e-19 1.38741e-19)
(0.0714822 -6.37149e-20 1.35623e-18)
(0.0714822 -1.96951e-19 1.26129e-19)
(0.0624123 5.86387e-20 1.24234e-18)
(0.0624123 -1.547e-19 1.21822e-19)
(0.0537487 3.69148e-20 1.13783e-18)
(0.0537487 -2.59317e-19 1.14375e-19)
(0.0454735 1.64586e-20 1.03955e-18)
(0.0454735 -2.91268e-19 1.04811e-19)
(0.0375697 4.52175e-21 9.46929e-19)
(0.0375697 -1.73259e-19 9.83827e-20)
(0.0300207 -8.51601e-21 8.64093e-19)
(0.0300207 -7.03925e-20 8.85873e-20)
(0.0228108 -3.90387e-21 7.86636e-19)
(0.0228108 -3.22987e-20 7.90638e-20)
(0.015925 8.86438e-21 7.16966e-19)
(0.015925 -2.30741e-20 7.31943e-20)
(0.00934882 9.56107e-21 6.53301e-19)
(0.00934882 -8.17965e-21 6.77494e-20)
(0.00306853 -3.35342e-21 5.11124e-20)
(0.00306853 1.15059e-21 1.01273e-20)
(1.14504 -1.42408e-16 -2.2718e-16)
(1.14504 -1.81027e-16 -1.10557e-16)
(1.14395 -1.2398e-16 -6.60725e-17)
(1.14395 -8.93985e-17 -1.23634e-16)
(1.14193 -1.19592e-16 -3.21043e-16)
(1.14193 -7.47274e-17 -1.88577e-16)
(1.13911 3.85032e-17 -2.4817e-16)
(1.13911 -2.9102e-17 -2.73559e-16)
(1.13564 -2.12368e-17 -1.0368e-16)
(1.13564 4.36257e-17 -1.98198e-16)
(1.13161 -1.18936e-16 -2.4374e-16)
(1.13161 -6.12913e-17 -2.18122e-16)
(1.1271 -1.17705e-16 -2.27696e-16)
(1.1271 -1.72482e-16 -2.26517e-16)
(1.12218 -1.38333e-16 -1.39879e-16)
(1.12218 -1.15765e-16 -3.26543e-16)
(1.1169 -1.59722e-16 -1.90184e-16)
(1.1169 -1.07117e-16 -3.35592e-16)
(1.1113 -1.35507e-16 -1.74831e-16)
(1.1113 -1.96105e-16 -8.06076e-17)
(1.10542 -9.79968e-17 -1.56965e-16)
(1.10542 -1.33262e-16 -1.04853e-16)
(1.09929 -1.28486e-16 -1.76731e-16)
(1.09929 -1.33904e-16 -1.48705e-16)
(1.09291 -1.30505e-16 -1.85572e-16)
(1.09291 -1.33582e-16 -2.30386e-16)
(1.08632 -1.10929e-16 -1.74312e-16)
(1.08632 -1.21984e-16 -2.03952e-16)
(1.07953 -1.64625e-16 -6.96445e-17)
(1.07953 -1.19515e-16 -1.60997e-16)
(1.07254 -1.19077e-16 -5.90484e-17)
(1.07254 -1.35142e-16 -6.14138e-17)
(1.06538 -1.26386e-16 -6.04612e-17)
(1.06538 -1.27157e-16 -8.03666e-17)
(1.05804 -1.19187e-16 -4.8958e-17)
(1.05804 -9.47774e-17 -9.96273e-17)
(1.05054 -1.18301e-16 -1.41336e-16)
(1.05054 -1.25967e-16 -1.04274e-16)
(1.04288 -6.8898e-17 -1.29533e-16)
(1.04288 -9.1239e-17 -2.98847e-17)
(1.03506 -7.63225e-17 -1.258e-16)
(1.03506 -7.68922e-17 -7.6897e-17)
(1.02709 -7.31457e-17 -1.27175e-16)
(1.02709 -6.85917e-17 -7.61194e-17)
(1.01897 -6.43214e-17 -8.49054e-17)
(1.01897 -4.93973e-17 -4.54153e-17)
(1.0107 -7.41092e-17 -1.71531e-17)
(1.0107 -5.60286e-17 -3.47702e-17)
(1.00229 -6.25023e-17 -7.1715e-17)
(1.00229 -8.05317e-17 -6.01468e-17)
(0.993726 -4.2126e-17 -8.8424e-17)
(0.993726 -5.36838e-17 -6.24598e-17)
(0.98502 -4.90781e-17 -7.02315e-17)
(0.98502 -3.23418e-17 -4.66542e-17)
(0.976166 -4.84554e-17 -6.84059e-17)
(0.976166 -3.67547e-17 -2.64598e-17)
(0.967164 -2.35103e-17 -4.43528e-17)
(0.967164 -2.65574e-17 -3.23568e-17)
(0.958012 -2.65339e-17 -4.24202e-17)
(0.958012 -1.65293e-17 -1.2832e-17)
(0.948708 -3.97126e-17 -3.75e-17)
(0.948708 -3.42316e-17 -1.93985e-17)
(0.939249 1.64755e-17 -5.51745e-17)
(0.939249 -3.87259e-17 -3.15529e-17)
(0.929632 -2.91359e-18 -6.17045e-17)
(0.929632 -1.8334e-17 -4.0909e-17)
(0.919853 -1.7208e-19 -4.75476e-17)
(0.919853 5.5554e-18 -4.26599e-17)
(0.909907 -6.907e-18 -3.65063e-17)
(0.909907 -1.26204e-17 -3.07717e-17)
(0.89979 -1.22251e-17 -3.11091e-17)
(0.89979 -1.21668e-17 -2.43306e-17)
(0.889496 -2.80434e-17 -3.05097e-17)
(0.889496 -1.24622e-17 -3.24866e-17)
(0.87902 -2.48821e-17 -2.75817e-17)
(0.87902 -2.38934e-17 -3.95023e-17)
(0.868354 -1.95585e-17 -2.07429e-17)
(0.868354 -3.37747e-17 -4.27023e-17)
(0.857491 -2.50425e-17 -2.07958e-17)
(0.857491 -4.21002e-17 -3.81306e-17)
(0.846423 -3.04748e-17 -2.07232e-17)
(0.846423 -3.90822e-17 -4.42994e-17)
(0.835142 -2.66987e-17 -2.65703e-17)
(0.835142 -3.03466e-17 -4.51592e-17)
(0.823639 -1.78212e-17 -3.34487e-17)
(0.823639 -1.88266e-17 -3.9953e-17)
(0.811901 -1.39714e-17 -3.31499e-17)
(0.811901 -2.80035e-17 -4.96176e-17)
(0.79992 -1.6752e-17 -3.21317e-17)
(0.79992 -1.93996e-17 -5.16588e-17)
(0.787683 -1.35469e-17 -3.25773e-17)
(0.787683 -3.49853e-17 -4.783e-17)
(0.775177 -3.6573e-17 -3.09092e-17)
(0.775177 -2.9483e-17 -4.4383e-17)
(0.762388 -3.32667e-17 -3.09415e-17)
(0.762388 -2.72041e-17 -4.43026e-17)
(0.749302 -2.47808e-17 -2.54927e-17)
(0.749302 -2.93208e-17 -4.12057e-17)
(0.735904 -1.64215e-17 -3.00924e-17)
(0.735904 -1.24748e-17 -3.59223e-17)
(0.722177 -8.30124e-18 -2.98276e-17)
(0.722177 -1.42099e-17 -3.69878e-17)
(0.708105 -1.10564e-17 -3.123e-17)
(0.708105 -1.64438e-17 -3.51163e-17)
(0.69367 -1.53109e-17 -3.15912e-17)
(0.69367 -1.5075e-17 -3.15103e-17)
(0.678855 -1.56074e-17 -2.96608e-17)
(0.678855 -1.99842e-17 -2.78468e-17)
(0.663641 -1.66549e-17 -2.76163e-17)
(0.663641 -5.7583e-19 -2.52894e-17)
(0.648011 -1.75573e-17 -2.82528e-17)
(0.648011 -1.78102e-18 -2.16639e-17)
(0.631949 -1.30752e-17 -2.63753e-17)
(0.631949 -4.10257e-18 -1.79474e-17)
(0.61544 -1.07645e-17 -2.68612e-17)
(0.61544 -4.89045e-18 -1.43696e-17)
(0.598472 -1.08055e-17 -2.64703e-17)
(0.598472 -6.20118e-18 -1.27508e-17)
(0.581037 -1.10217e-17 -2.5085e-17)
(0.581037 -4.94708e-18 -1.10853e-17)
(0.563135 -1.13409e-17 -2.21066e-17)
(0.563135 -4.84084e-18 -1.17511e-17)
(0.544768 -1.02239e-17 -1.90776e-17)
(0.544768 -1.07833e-18 -1.19561e-17)
(0.525954 -7.05696e-18 -1.86163e-17)
(0.525954 -1.88135e-18 -1.06073e-17)
(0.506717 -4.66388e-18 -1.85459e-17)
(0.506717 1.29329e-19 -9.24902e-18)
(0.487098 -2.33576e-18 -1.76255e-17)
(0.487098 2.3771e-19 -7.47099e-18)
(0.467152 -2.60835e-18 -1.64728e-17)
(0.467152 -2.18911e-18 -7.61897e-18)
(0.446951 -2.84246e-18 -1.4609e-17)
(0.446951 -2.36618e-18 -7.68294e-18)
(0.426579 -2.86379e-18 -1.31289e-17)
(0.426579 -1.37362e-18 -6.8023e-18)
(0.406137 -3.68507e-18 -1.1622e-17)
(0.406137 -1.56039e-18 -6.36235e-18)
(0.385731 -4.88472e-18 -1.03344e-17)
(0.385731 -1.04561e-18 -6.68378e-18)
(0.365473 -6.44413e-18 -9.89028e-18)
(0.365473 -5.55204e-19 -6.56787e-18)
(0.345474 -5.56608e-18 -9.44413e-18)
(0.345474 -1.32595e-18 -6.20272e-18)
(0.325834 -4.59881e-18 -8.65122e-18)
(0.325834 -1.45251e-19 -5.67715e-18)
(0.306642 -3.96889e-18 -7.72729e-18)
(0.306642 -1.12473e-18 -5.52244e-18)
(0.287972 -3.72086e-18 -6.8366e-18)
(0.287972 -2.13952e-18 -5.17738e-18)
(0.269879 -3.39652e-18 -6.16475e-18)
(0.269879 -2.3045e-18 -4.7258e-18)
(0.252402 -2.51422e-18 -5.53621e-18)
(0.252402 3.63228e-19 -4.37362e-18)
(0.235566 -2.18725e-18 -4.884e-18)
(0.235566 -9.28436e-20 -4.1651e-18)
(0.219381 -1.79382e-18 -4.43028e-18)
(0.219381 -1.44513e-18 -3.91411e-18)
(0.203848 -1.23562e-18 -3.9622e-18)
(0.203848 -1.27551e-18 -3.6604e-18)
(0.188959 -1.45014e-18 -3.56961e-18)
(0.188959 -6.79581e-19 -3.36485e-18)
(0.174702 -1.41311e-18 -3.22132e-18)
(0.174702 -7.39779e-19 -3.10773e-18)
(0.161058 -1.19702e-18 -2.92399e-18)
(0.161058 -3.6566e-20 -2.8189e-18)
(0.148009 -1.21492e-18 -2.62821e-18)
(0.148009 -4.37889e-20 -2.4986e-18)
(0.135532 -9.80089e-19 -2.3632e-18)
(0.135532 -6.2036e-21 -2.28988e-18)
(0.123607 -7.64748e-19 -2.11664e-18)
(0.123607 5.39258e-20 -2.10035e-18)
(0.11221 -4.20713e-19 -1.92192e-18)
(0.11221 6.27675e-20 -1.90148e-18)
(0.101321 -1.1403e-20 -1.74526e-18)
(0.101321 -5.15316e-20 -1.75408e-18)
(0.0909167 1.59797e-19 -1.56064e-18)
(0.0909167 -2.77473e-19 -1.61386e-18)
(0.0809773 2.99895e-19 -1.40233e-18)
(0.0809773 -2.37499e-19 -1.46524e-18)
(0.0714822 3.19591e-19 -1.27128e-18)
(0.0714822 -9.19622e-20 -1.33077e-18)
(0.0624123 2.59496e-19 -1.15198e-18)
(0.0624123 -3.9175e-20 -1.20589e-18)
(0.0537487 1.62742e-19 -1.04462e-18)
(0.0537487 1.59841e-19 -1.0904e-18)
(0.0454735 1.32551e-19 -9.47206e-19)
(0.0454735 -2.09506e-20 -9.94668e-19)
(0.0375697 6.43688e-20 -8.59384e-19)
(0.0375697 -9.74554e-21 -9.04765e-19)
(0.0300207 3.38425e-21 -7.80205e-19)
(0.0300207 2.68581e-20 -8.20767e-19)
(0.0228108 6.13251e-22 -7.08035e-19)
(0.0228108 6.13263e-21 -7.46734e-19)
(0.015925 -1.6485e-20 -6.45411e-19)
(0.015925 2.1387e-21 -6.79239e-19)
(0.00934882 -1.41878e-20 -5.89326e-19)
(0.00934882 -8.7427e-21 -6.19096e-19)
(0.00306853 -1.38787e-21 -8.49818e-20)
(0.00306853 4.72704e-21 -1.47691e-19)
)
;

boundaryField
{
    walls
    {
        type            fixedValue;
        value           uniform (0 0 0);
    }
    inlet
    {
        type            cyclic;
    }
    outlet
    {
        type            cyclic;
    }
    sides
    {
        type            empty;
    }
}


// ************************************************************************* //
