/*--------------------------------*- C++ -*----------------------------------*\
| =========                 |                                                 |
| \\      /  F ield         | OpenFOAM: The Open Source CFD Toolbox           |
|  \\    /   O peration     | Version:  2106                                  |
|   \\  /    A nd           | Website:  www.openfoam.com                      |
|    \\/     M anipulation  |                                                 |
\*---------------------------------------------------------------------------*/
FoamFile
{
    version     2.0;
    format      ascii;
    arch        "LSB;label=32;scalar=64";
    class       volVectorField;
    location    "10040";
    object      grad(T);
}
// * * * * * * * * * * * * * * * * * * * * * * * * * * * * * * * * * * * * * //

dimensions      [0 -1 0 1 0 0 0];

internalField   nonuniform List<vector> 
2000
(
(4.57698e-16 874.935 1.61919)
(-4.57698e-16 874.935 1.61919)
(0 874.933 4.88778)
(0 874.933 4.88778)
(-1.98998e-16 874.928 6.78345)
(0 874.928 6.78345)
(-6.52137e-16 874.918 6.90996)
(2.60855e-15 874.918 6.90996)
(0 874.894 7.03868)
(0 874.894 7.03868)
(0 874.84 7.16946)
(-6.33602e-15 874.84 7.16946)
(0 874.725 7.30198)
(1.15294e-14 874.725 7.30198)
(0 874.494 7.4357)
(2.04097e-14 874.494 7.4357)
(-3.04857e-15 874.065 7.56971)
(0 874.065 7.56971)
(0 873.316 7.70266)
(0 873.316 7.70266)
(1.21733e-14 872.075 7.83265)
(0 872.075 7.83265)
(4.59804e-15 870.122 7.95713)
(6.44193e-15 870.122 7.95713)
(0 867.179 8.07289)
(0 867.179 8.07289)
(-5.67996e-15 862.921 8.17605)
(-5.75813e-15 862.921 8.17605)
(-1.75406e-14 856.993 8.26232)
(-1.13052e-14 856.993 8.26232)
(1.78977e-14 849.036 8.32722)
(-1.61004e-14 849.036 8.32722)
(0 838.724 8.36651)
(0 838.724 8.36651)
(1.59022e-14 825.807 8.37667)
(4.24996e-14 825.807 8.37667)
(-8.53533e-15 810.148 8.35535)
(-1.04991e-14 810.148 8.35535)
(9.12255e-15 791.751 8.30166)
(3.64902e-14 791.751 8.30166)
(-9.71044e-15 770.769 8.21631)
(7.76835e-14 770.769 8.21631)
(0 747.489 8.10152)
(2.13211e-14 747.489 8.10152)
(9.7504e-15 722.308 7.96069)
(4.35128e-14 722.308 7.96069)
(0 695.687 7.79807)
(2.66691e-14 695.687 7.79807)
(-3.08119e-14 668.107 7.61828)
(1.87927e-14 668.107 7.61828)
(0 640.039 7.42592)
(5.0298e-14 640.039 7.42592)
(-1.31176e-14 611.904 7.22533)
(0 611.904 7.22533)
(-1.36474e-14 584.066 7.02033)
(0 584.066 7.02033)
(0 556.816 6.81415)
(-1.74526e-14 556.816 6.81415)
(-3.17972e-14 530.38 6.60944)
(-5.86577e-14 530.38 6.60944)
(1.5151e-14 504.919 6.40826)
(6.06038e-14 504.919 6.40826)
(0 480.54 6.21215)
(0 480.54 6.21215)
(-1.60802e-14 457.304 6.02223)
(0 457.304 6.02223)
(-3.24346e-14 435.24 5.83922)
(1.59111e-14 435.24 5.83922)
(0 414.345 5.6636)
(6.78123e-14 414.345 5.6636)
(1.53333e-14 394.601 5.49559)
(-1.53333e-14 394.601 5.49559)
(1.7773e-14 375.97 5.33523)
(7.10919e-14 375.97 5.33523)
(-1.81644e-14 358.409 5.18246)
(7.26575e-14 358.409 5.18246)
(-1.85441e-14 341.868 5.03711)
(0 341.868 5.03711)
(0 326.292 4.89895)
(7.56514e-14 326.292 4.89895)
(-3.8542e-14 311.627 4.7677)
(7.7084e-14 311.627 4.7677)
(0 297.817 4.64306)
(0 297.817 4.64306)
(2.69426e-14 284.81 4.52472)
(0 284.81 4.52472)
(-2.02873e-14 272.554 4.41235)
(-1.07598e-13 272.554 4.41235)
(2.06083e-14 261 4.30563)
(8.2433e-14 261 4.30563)
(2.09211e-14 250.101 4.20426)
(-8.36843e-14 250.101 4.20426)
(-2.12262e-14 239.813 4.10794)
(8.49047e-14 239.813 4.10794)
(-2.45629e-14 230.097 4.01636)
(1.96754e-13 230.097 4.01636)
(2.18147e-14 220.912 3.92927)
(8.72588e-14 220.912 3.92927)
(-2.20989e-14 212.224 3.8464)
(-1.12066e-13 212.224 3.8464)
(4.64743e-14 204 3.76749)
(0 204 3.76749)
(-2.26486e-14 196.209 3.69233)
(-2.28113e-14 196.209 3.69233)
(4.47867e-14 188.823 3.62068)
(0 188.823 3.62068)
(0 181.814 3.55235)
(-9.27017e-14 181.814 3.55235)
(4.50111e-14 175.159 3.48714)
(-4.31603e-14 175.159 3.48714)
(-2.36816e-14 168.835 3.42488)
(0 168.835 3.42488)
(-2.70585e-14 162.821 3.36539)
(9.57099e-14 162.821 3.36539)
(-2.41689e-14 157.098 3.30851)
(0 157.098 3.30851)
(-4.8812e-14 151.648 3.25411)
(-9.76241e-14 151.648 3.25411)
(2.4639e-14 146.454 3.20204)
(-9.85562e-14 146.454 3.20204)
(-3.86271e-14 141.5 3.15218)
(0 141.5 3.15218)
(-8.81063e-14 136.772 3.1044)
(2.38667e-13 136.772 3.1044)
(-2.53153e-14 132.257 3.0586)
(1.01261e-13 132.257 3.0586)
(0 127.943 3.01466)
(0 127.943 3.01466)
(-6.16213e-14 123.817 2.97249)
(1.02995e-13 123.817 2.97249)
(0 119.87 2.932)
(0 119.87 2.932)
(-2.61694e-14 116.091 2.8931)
(-3.457e-14 116.091 2.8931)
(0 112.471 2.85571)
(-3.39365e-14 112.471 2.85571)
(0 109.001 2.81976)
(1.06314e-13 109.001 2.81976)
(3.27041e-14 105.674 2.78517)
(-3.27041e-14 105.674 2.78517)
(-2.69768e-14 102.481 2.75187)
(1.07907e-13 102.481 2.75187)
(0 99.4152 2.71982)
(1.08689e-13 99.4152 2.71982)
(3.57379e-15 96.4707 2.68893)
(-1.404e-13 96.4707 2.68893)
(0 93.641 2.65917)
(-1.10224e-13 93.641 2.65917)
(-5.54888e-14 90.9202 2.63048)
(1.10978e-13 90.9202 2.63048)
(-5.58616e-14 88.3028 2.6028)
(0 88.3028 2.6028)
(0 85.7839 2.5761)
(1.1246e-13 85.7839 2.5761)
(-5.65037e-14 83.3585 2.55033)
(-1.1319e-13 83.3585 2.55033)
(2.84778e-14 81.0223 2.52544)
(0 81.0223 2.52544)
(2.86564e-14 78.7709 2.5014)
(-1.14626e-13 78.7709 2.5014)
(-5.76664e-14 76.6003 2.47818)
(0 76.6003 2.47818)
(0 74.5069 2.45573)
(0 74.5069 2.45573)
(2.91817e-14 72.487 2.43403)
(-2.84883e-13 72.487 2.43403)
(2.93535e-14 70.5374 2.41304)
(0 70.5374 2.41304)
(0 68.6548 2.39274)
(1.18095e-13 68.6548 2.39274)
(2.96925e-14 66.8364 2.37309)
(1.1877e-13 66.8364 2.37309)
(-5.97196e-14 65.0793 2.35407)
(0 65.0793 2.35407)
(-6.00514e-14 63.3808 2.33566)
(1.20103e-13 63.3808 2.33566)
(-1.58377e-14 61.7384 2.31783)
(2.8755e-13 61.7384 2.31783)
(-3.03535e-14 60.1498 2.30055)
(0 60.1498 2.30055)
(-6.10309e-14 58.6127 2.28381)
(1.22062e-13 58.6127 2.28381)
(-3.06762e-14 57.1249 2.26759)
(1.22705e-13 57.1249 2.26759)
(-4.27458e-14 55.6844 2.25187)
(-4.27458e-14 55.6844 2.25187)
(3.09941e-14 54.2894 2.23662)
(1.23976e-13 54.2894 2.23662)
(3.11513e-14 52.9379 2.22183)
(1.24605e-13 52.9379 2.22183)
(-3.13075e-14 51.6283 2.20749)
(1.2523e-13 51.6283 2.20749)
(3.14626e-14 50.3588 2.19358)
(0 50.3588 2.19358)
(7.35356e-15 49.128 2.18007)
(8.74965e-14 49.128 2.18007)
(3.17698e-14 47.9343 2.16697)
(0 47.9343 2.16697)
(-3.19219e-14 46.7764 2.15425)
(9.01325e-14 46.7764 2.15425)
(6.894e-14 45.6527 2.1419)
(9.14254e-14 45.6527 2.1419)
(0 44.5622 2.1299)
(9.27022e-14 44.5622 2.1299)
(0 43.5035 2.11826)
(-1.29491e-13 43.5035 2.11826)
(0 42.4754 2.10694)
(1.30085e-13 42.4754 2.10694)
(1.56891e-15 41.4769 2.09595)
(0 41.4769 2.09595)
(-3.2816e-14 40.5068 2.08527)
(1.31264e-13 40.5068 2.08527)
(3.29947e-14 39.5642 2.07489)
(0 39.5642 2.07489)
(0 38.6481 2.0648)
(-3.23901e-14 38.6481 2.0648)
(3.32521e-14 37.7576 2.05499)
(1.96602e-13 37.7576 2.05499)
(2.18219e-15 36.8916 2.04546)
(1.33584e-13 36.8916 2.04546)
(0 36.0495 2.03619)
(1.34157e-13 36.0495 2.03619)
(-6.73636e-14 35.2304 2.02717)
(1.34727e-13 35.2304 2.02717)
(3.38237e-14 34.4334 2.01841)
(1.35295e-13 34.4334 2.01841)
(0 33.6579 2.00988)
(-1.3586e-13 33.6579 2.00988)
(0 32.9031 2.00158)
(0 32.9031 2.00158)
(-6.84911e-14 32.1684 1.99351)
(0 32.1684 1.99351)
(2.0462e-14 31.453 1.98566)
(-5.48469e-14 31.453 1.98566)
(-5.38419e-14 30.7564 1.97802)
(-1.38095e-13 30.7564 1.97802)
(1.22179e-13 30.0779 1.97058)
(-5.28553e-14 30.0779 1.97058)
(6.95996e-14 29.417 1.96334)
(8.73126e-14 29.417 1.96334)
(-3.4937e-14 28.7731 1.95629)
(1.39748e-13 28.7731 1.95629)
(7.01475e-14 28.1456 1.94943)
(0 28.1456 1.94943)
(3.52099e-14 27.534 1.94275)
(1.4084e-13 27.534 1.94275)
(-3.53456e-14 26.9379 1.93624)
(0 26.9379 1.93624)
(-4.73037e-14 26.3567 1.92991)
(2.83847e-13 26.3567 1.92991)
(-3.56156e-14 25.79 1.92373)
(0 25.79 1.92373)
(0 25.2373 1.91772)
(2.86e-13 25.2373 1.91772)
(-3.58838e-14 24.6983 1.91186)
(0 24.6983 1.91186)
(0 24.1724 1.90615)
(1.44069e-13 24.1724 1.90615)
(-6.97523e-15 23.6594 1.90059)
(3.32328e-13 23.6594 1.90059)
(-3.6283e-14 23.1588 1.89517)
(1.45132e-13 23.1588 1.89517)
(-5.14432e-15 22.6703 1.88988)
(1.45661e-13 22.6703 1.88988)
(-3.22962e-14 22.1934 1.88472)
(1.0539e-13 22.1934 1.88472)
(-4.00503e-14 21.7279 1.87969)
(2.93428e-13 21.7279 1.87969)
(0 21.2735 1.87478)
(1.07922e-13 21.2735 1.87478)
(-3.69404e-14 20.8297 1.87)
(-3.8596e-14 20.8297 1.87)
(7.49595e-14 20.3964 1.86533)
(-3.78887e-14 20.3964 1.86533)
(0 19.9731 1.86077)
(-3.71944e-14 19.9731 1.86077)
(-3.73306e-14 19.5597 1.85631)
(0 19.5597 1.85631)
(-1.61626e-15 19.1558 1.85196)
(-1.85684e-13 19.1558 1.85196)
(-3.75891e-14 18.7611 1.84771)
(3.00713e-13 18.7611 1.84771)
(-3.45421e-14 18.3755 1.84356)
(1.85414e-13 18.3755 1.84356)
(-3.93722e-15 17.9987 1.8395)
(1.17476e-13 17.9987 1.8395)
(0 17.6303 1.83553)
(1.18611e-13 17.6303 1.83553)
(-3.81025e-14 17.2702 1.83164)
(1.5241e-13 17.2702 1.83164)
(0 16.9182 1.82784)
(1.5292e-13 16.9182 1.82784)
(-3.83575e-14 16.574 1.82412)
(0 16.574 1.82412)
(-3.84845e-14 16.2375 1.82047)
(0 16.2375 1.82047)
(-9.93066e-14 15.9083 1.81689)
(6.06952e-14 15.9083 1.81689)
(-2.08451e-14 15.5864 1.81338)
(-1.54952e-13 15.5864 1.81338)
(0 15.2714 1.80994)
(0 15.2714 1.80994)
(0 14.9634 1.80656)
(0 14.9634 1.80656)
(9.54832e-14 14.6619 1.80323)
(0 14.6619 1.80323)
(-9.45759e-14 14.367 1.79996)
(1.56967e-13 14.367 1.79996)
(-9.36872e-14 14.0783 1.79675)
(2.11788e-13 14.0783 1.79675)
(-3.94921e-14 13.7958 1.79358)
(0 13.7958 1.79358)
(0 13.5193 1.79046)
(1.58468e-13 13.5193 1.79046)
(-3.97417e-14 13.2485 1.78737)
(-2.10355e-13 13.2485 1.78737)
(-1.05806e-14 12.9835 1.78433)
(2.09911e-13 12.9835 1.78433)
(8.95127e-14 12.724 1.78132)
(1.59961e-13 12.724 1.78132)
(4.01144e-14 12.4698 1.77834)
(0 12.4698 1.77834)
(0 12.2209 1.77539)
(1.60953e-13 12.2209 1.77539)
(-4.03618e-14 11.9771 1.77246)
(0 11.9771 1.77246)
(0 11.7383 1.76955)
(1.61941e-13 11.7383 1.76955)
(-4.06084e-14 11.5043 1.76666)
(-4.51482e-14 11.5043 1.76666)
(0 11.2751 1.76378)
(4.43209e-14 11.2751 1.76378)
(0 11.0505 1.76091)
(1.63417e-13 11.0505 1.76091)
(-4.27114e-14 10.8303 1.75804)
(2.06618e-13 10.8303 1.75804)
(-4.10991e-14 10.6145 1.75518)
(0 10.6145 1.75518)
(-4.12213e-14 10.403 1.75231)
(0 10.403 1.75231)
(-8.17494e-14 10.1956 1.74943)
(4.04062e-14 10.1956 1.74943)
(4.32644e-14 9.99232 1.74654)
(1.6586e-13 9.99232 1.74654)
(-8.58212e-14 9.79295 1.74363)
(1.66347e-13 9.79295 1.74363)
(0 9.59742 1.7407)
(1.28607e-13 9.59742 1.7407)
(-4.30441e-15 9.40564 1.73775)
(-3.75249e-14 9.40564 1.73775)
(-7.87875e-14 9.21751 1.73476)
(0 9.21751 1.73476)
(0 9.03295 1.73174)
(0 9.03295 1.73174)
(-3.54995e-14 8.85185 1.72867)
(2.04266e-13 8.85185 1.72867)
(-4.2312e-14 8.67413 1.72556)
(-1.69248e-13 8.67413 1.72556)
(0 8.49971 1.7224)
(0 8.49971 1.7224)
(-1.09719e-13 8.3285 1.71918)
(-3.40417e-13 8.3285 1.71918)
(-4.26719e-14 8.16042 1.71589)
(0 8.16042 1.71589)
(0 7.99539 1.71253)
(0 7.99539 1.71253)
(0 7.83332 1.70909)
(1.08101e-13 7.83332 1.70909)
(-8.60596e-14 7.67415 1.70557)
(3.44239e-13 7.67415 1.70557)
(0 7.51779 1.70196)
(1.72595e-13 7.51779 1.70196)
(-4.32673e-14 7.36417 1.69825)
(0 7.36417 1.69825)
(0 7.21322 1.69443)
(-1.73543e-13 7.21322 1.69443)
(-4.35038e-14 7.06487 1.6905)
(0 7.06487 1.6905)
(0 6.91905 1.68645)
(1.74487e-13 6.91905 1.68645)
(0 6.77569 1.68226)
(1.74957e-13 6.77569 1.68226)
(4.38566e-14 6.63471 1.67793)
(3.50853e-13 6.63471 1.67793)
(4.39736e-14 6.49607 1.67345)
(1.75895e-13 6.49607 1.67345)
(0 6.35968 1.66881)
(1.76362e-13 6.35968 1.66881)
(4.42069e-14 6.22549 1.664)
(1.76827e-13 6.22549 1.664)
(-4.4323e-14 6.09342 1.65901)
(3.54584e-13 6.09342 1.65901)
(-4.44388e-14 5.96343 1.65382)
(-1.77755e-13 5.96343 1.65382)
(4.90467e-14 5.83545 1.64842)
(0 5.83545 1.64842)
(5.16264e-14 5.7094 1.6428)
(-9.62959e-14 5.7094 1.6428)
(4.96269e-15 5.58525 1.63694)
(-9.45313e-14 5.58525 1.63694)
(-4.48988e-14 5.46291 1.63084)
(1.79595e-13 5.46291 1.63084)
(0 5.34234 1.62447)
(-4.55493e-14 5.34234 1.62447)
(-4.51264e-14 5.22347 1.61782)
(0 5.22347 1.61782)
(4.38952e-14 5.10625 1.61087)
(-8.77904e-14 5.10625 1.61087)
(4.53525e-14 4.99061 1.6036)
(3.6282e-13 4.99061 1.6036)
(9.09296e-14 4.8765 1.596)
(-2.66462e-13 4.8765 1.596)
(9.11533e-14 4.76385 1.58803)
(0 4.76385 1.58803)
(9.1376e-14 4.65261 1.57969)
(3.65504e-13 4.65261 1.57969)
(4.57988e-14 4.54271 1.57094)
(1.83195e-13 4.54271 1.57094)
(4.59091e-14 4.4341 1.56176)
(1.05067e-13 4.4341 1.56176)
(-4.60188e-14 4.32671 1.55212)
(1.84075e-13 4.32671 1.55212)
(2.95886e-14 4.22047 1.542)
(-7.57164e-14 4.22047 1.542)
(0 4.11534 1.53136)
(1.84945e-13 4.11534 1.53136)
(-1.97215e-14 4.01124 1.52017)
(1.1241e-13 4.01124 1.52017)
(-4.64513e-14 3.9081 1.50839)
(0 3.9081 1.50839)
(0 3.80586 1.49599)
(3.72462e-13 3.80586 1.49599)
(0 3.70445 1.48292)
(-6.90287e-14 3.70445 1.48292)
(4.67681e-14 3.6038 1.46913)
(-2.54836e-13 3.6038 1.46913)
(4.68721e-14 3.50382 1.45459)
(0 3.50382 1.45459)
(-2.86473e-14 3.40445 1.43924)
(0 3.40445 1.43924)
(3.00482e-14 3.3056 1.42301)
(0 3.3056 1.42301)
(-6.29316e-14 3.20719 1.40585)
(2.51645e-13 3.20719 1.40585)
(0 3.10912 1.38769)
(1.89114e-13 3.10912 1.38769)
(4.73774e-14 3.01131 1.36846)
(1.8951e-13 3.01131 1.36846)
(0 2.91365 1.34808)
(-1.89901e-13 2.91365 1.34808)
(-4.75717e-14 2.81605 1.32645)
(0 2.81605 1.32645)
(9.70613e-15 2.71837 1.30349)
(1.33295e-13 2.71837 1.30349)
(0 2.62052 1.27909)
(1.91043e-13 2.62052 1.27909)
(7.43652e-15 2.52236 1.25313)
(-1.91413e-13 2.52236 1.25313)
(4.79439e-14 2.42375 1.22549)
(3.83552e-13 2.42375 1.22549)
(0 2.32454 1.19603)
(1.3885e-13 2.32454 1.19603)
(-4.81204e-14 2.22459 1.1646)
(0 2.22459 1.1646)
(-3.14116e-15 2.12371 1.13103)
(2.44171e-13 2.12371 1.13103)
(2.11678e-15 2.02174 1.09514)
(1.93157e-13 2.02174 1.09514)
(-4.83707e-14 1.91848 1.05673)
(1.93483e-13 1.91848 1.05673)
(4.85757e-14 1.81373 1.01558)
(0 1.81373 1.01558)
(4.85263e-14 1.70726 0.971454)
(0 1.70726 0.971454)
(-9.72006e-14 1.59887 0.924104)
(1.94401e-13 1.59887 0.924104)
(0 1.4883 0.873256)
(4.59539e-14 1.4883 0.873256)
(4.51119e-14 1.37534 0.818621)
(0 1.37534 0.818621)
(-3.97658e-14 1.25973 0.759898)
(2.83789e-13 1.25973 0.759898)
(-4.88661e-14 1.14126 0.696777)
(1.95464e-13 1.14126 0.696777)
(-9.16009e-14 1.0197 0.628947)
(0 1.0197 0.628947)
(0 0.894879 0.5561)
(0 0.894879 0.5561)
(0 0.766645 0.477949)
(-1.96108e-13 0.766645 0.477949)
(-4.90718e-14 0.634904 0.394229)
(0 0.634904 0.394229)
(-9.47779e-15 0.499626 0.30472)
(1.96446e-13 0.499626 0.30472)
(0 0.360855 0.209246)
(1.96584e-13 0.360855 0.209246)
(-4.91746e-14 0.218716 0.107692)
(0 0.218716 0.107692)
(-4.9197e-14 4.31121e-07 1.59569e-07)
(3.93686e-13 4.31203e-07 1.596e-07)
(0 874.935 -1.61919)
(0 874.935 -1.61919)
(-8.98622e-16 874.933 -4.88778)
(0 874.933 -4.88778)
(-3.97995e-16 874.928 -6.78345)
(0 874.928 -6.78345)
(6.52137e-16 874.918 -6.90996)
(0 874.918 -6.90996)
(-2.2275e-15 874.894 -7.03868)
(0 874.894 -7.03868)
(1.58401e-15 874.84 -7.16946)
(0 874.84 -7.16946)
(-3.277e-15 874.725 -7.30198)
(-6.554e-15 874.725 -7.30198)
(8.31938e-15 874.494 -7.4357)
(-3.21695e-15 874.494 -7.4357)
(-9.36458e-15 874.065 -7.56971)
(1.21943e-14 874.065 -7.56971)
(3.55538e-15 873.316 -7.70266)
(-2.04218e-14 873.316 -7.70266)
(2.05698e-15 872.075 -7.83265)
(-1.62873e-14 872.075 -7.83265)
(4.59804e-15 870.122 -7.95713)
(0 870.122 -7.95713)
(6.59713e-15 867.179 -8.07289)
(-3.22677e-14 867.179 -8.07289)
(1.15163e-14 862.921 -8.17605)
(-3.42361e-14 862.921 -8.17605)
(6.23532e-15 856.993 -8.26232)
(-3.62465e-14 856.993 -8.26232)
(-1.10981e-14 849.036 -8.32722)
(0 849.036 -8.32722)
(7.37199e-15 838.724 -8.36651)
(-4.03827e-14 838.724 -8.36651)
(7.95112e-15 825.807 -8.37667)
(3.18045e-14 825.807 -8.37667)
(8.53533e-15 810.148 -8.35535)
(0 810.148 -8.35535)
(1.82451e-14 791.751 -8.30166)
(0 791.751 -8.30166)
(1.98283e-14 770.769 -8.21631)
(2.87239e-14 770.769 -8.21631)
(1.02965e-14 747.489 -8.10152)
(4.1186e-14 747.489 -8.10152)
(-1.08782e-14 722.308 -7.96069)
(0 722.308 -7.96069)
(2.29063e-14 695.687 -7.79807)
(0 695.687 -7.79807)
(-6.77347e-15 668.107 -7.61828)
(1.87927e-14 668.107 -7.61828)
(0 640.039 -7.42592)
(1.84483e-14 640.039 -7.42592)
(-1.81102e-14 611.904 -7.22533)
(-1.81102e-14 611.904 -7.22533)
(2.72949e-14 584.066 -7.02033)
(0 584.066 -7.02033)
(1.41632e-14 556.816 -6.81415)
(5.66527e-14 556.816 -6.81415)
(2.93288e-14 530.38 -6.60944)
(0 530.38 -6.60944)
(1.5151e-14 504.919 -6.40826)
(0 504.919 -6.40826)
(3.21335e-14 480.54 -6.21215)
(-1.65106e-14 480.54 -6.21215)
(1.60802e-14 457.304 -6.02223)
(-6.4321e-14 457.304 -6.02223)
(0 435.24 -5.83922)
(-9.79162e-14 435.24 -5.83922)
(1.56195e-14 414.345 -5.6636)
(0 414.345 -5.6636)
(1.73694e-14 394.601 -5.49559)
(-6.94775e-14 394.601 -5.49559)
(2.04936e-14 375.97 -5.33523)
(0 375.97 -5.33523)
(-1.81644e-14 358.409 -5.18246)
(-7.26575e-14 358.409 -5.18246)
(-1.85441e-14 341.868 -5.03711)
(-1.77365e-13 341.868 -5.03711)
(-1.89128e-14 326.292 -4.89895)
(-2.84798e-14 326.292 -4.89895)
(-1.9271e-14 311.627 -4.7677)
(0 311.627 -4.7677)
(-1.96191e-14 297.817 -4.64306)
(-1.56953e-13 297.817 -4.64306)
(3.99154e-14 284.81 -4.52472)
(0 284.81 -4.52472)
(2.02873e-14 272.554 -4.41235)
(-8.11491e-14 272.554 -4.41235)
(4.12165e-14 261 -4.30563)
(5.64688e-14 261 -4.30563)
(4.64095e-14 250.101 -4.20426)
(-1.09173e-13 250.101 -4.20426)
(-4.24524e-14 239.813 -4.10794)
(-8.49047e-14 239.813 -4.10794)
(4.30479e-14 230.097 -4.01636)
(8.60957e-14 230.097 -4.01636)
(0 220.912 -3.92927)
(0 220.912 -3.92927)
(1.57206e-15 212.224 -3.8464)
(-2.00462e-13 212.224 -3.8464)
(2.23767e-14 204 -3.76749)
(-1.35981e-13 204 -3.76749)
(2.26486e-14 196.209 -3.69233)
(0 196.209 -3.69233)
(0 188.823 -3.62068)
(-1.83318e-13 188.823 -3.62068)
(2.31754e-14 181.814 -3.55235)
(0 181.814 -3.55235)
(4.68619e-14 175.159 -3.48714)
(0 175.159 -3.48714)
(0 168.835 -3.42488)
(-1.37096e-13 168.835 -3.42488)
(3.13099e-15 162.821 -3.36539)
(0 162.821 -3.36539)
(6.49997e-14 157.098 -3.30851)
(-1.37506e-13 157.098 -3.30851)
(0 151.648 -3.25411)
(-9.76241e-14 151.648 -3.25411)
(3.93481e-14 146.454 -3.20204)
(-1.37904e-13 146.454 -3.20204)
(2.48682e-14 141.5 -3.15218)
(0 141.5 -3.15218)
(0 136.772 -3.1044)
(0 136.772 -3.1044)
(2.53153e-14 132.257 -3.0586)
(-3.72244e-14 132.257 -3.0586)
(6.20759e-14 127.943 -3.01466)
(-3.65423e-14 127.943 -3.01466)
(0 123.817 -2.97249)
(-1.02995e-13 123.817 -2.97249)
(0 119.87 -2.932)
(0 119.87 -2.932)
(2.61694e-14 116.091 -2.8931)
(-1.04677e-13 116.091 -2.8931)
(6.7873e-14 112.471 -2.85571)
(-1.73374e-13 112.471 -2.85571)
(0 109.001 -2.81976)
(3.33146e-14 109.001 -2.81976)
(-2.67789e-14 105.674 -2.78517)
(2.14231e-13 105.674 -2.78517)
(0 102.481 -2.75187)
(0 102.481 -2.75187)
(2.71722e-14 99.4152 -2.71982)
(-1.08689e-13 99.4152 -2.71982)
(2.73652e-14 96.4707 -2.68893)
(-1.09461e-13 96.4707 -2.68893)
(3.0372e-14 93.641 -2.65917)
(-2.20447e-13 93.641 -2.65917)
(-2.77444e-14 90.9202 -2.63048)
(-2.98155e-14 90.9202 -2.63048)
(0 88.3028 -2.6028)
(2.92691e-14 88.3028 -2.6028)
(-2.87328e-14 85.7839 -2.5761)
(1.41193e-13 85.7839 -2.5761)
(2.81151e-14 83.3585 -2.55033)
(-5.09171e-13 83.3585 -2.55033)
(5.69557e-14 81.0223 -2.52544)
(-1.13911e-13 81.0223 -2.52544)
(-2.86564e-14 78.7709 -2.5014)
(0 78.7709 -2.5014)
(-2.88332e-14 76.6003 -2.47818)
(-1.15333e-13 76.6003 -2.47818)
(-5.62673e-15 74.5069 -2.45573)
(-1.68423e-13 74.5069 -2.45573)
(-2.91817e-14 72.487 -2.43403)
(-2.59168e-13 72.487 -2.43403)
(5.8707e-14 70.5374 -2.41304)
(-1.17414e-13 70.5374 -2.41304)
(2.95238e-14 68.6548 -2.39274)
(1.18095e-13 68.6548 -2.39274)
(-4.8654e-14 66.8364 -2.37309)
(1.1877e-13 66.8364 -2.37309)
(2.98598e-14 65.0793 -2.35407)
(-1.67202e-13 65.0793 -2.35407)
(-6.00514e-14 63.3808 -2.33566)
(1.20103e-13 63.3808 -2.33566)
(7.62183e-14 61.7384 -2.31783)
(-4.6028e-14 61.7384 -2.31783)
(1.48311e-14 60.1498 -2.30055)
(0 60.1498 -2.30055)
(0 58.6127 -2.28381)
(0 58.6127 -2.28381)
(3.06762e-14 57.1249 -2.26759)
(1.22705e-13 57.1249 -2.26759)
(0 55.6844 -2.25187)
(-1.23343e-13 55.6844 -2.25187)
(0 54.2894 -2.23662)
(-4.19625e-14 54.2894 -2.23662)
(3.11513e-14 52.9379 -2.22183)
(8.34117e-14 52.9379 -2.22183)
(0 51.6283 -2.20749)
(-4.04387e-14 51.6283 -2.20749)
(0 50.3588 -2.19358)
(-2.51701e-13 50.3588 -2.19358)
(3.89702e-14 49.128 -2.18007)
(-3.89702e-14 49.128 -2.18007)
(3.17698e-14 47.9343 -2.16697)
(-1.27079e-13 47.9343 -2.16697)
(3.19219e-14 46.7764 -2.15425)
(0 46.7764 -2.15425)
(3.20731e-14 45.6527 -2.1419)
(2.93452e-13 45.6527 -2.1419)
(3.22234e-14 44.5622 -2.1299)
(0 44.5622 -2.1299)
(3.23728e-14 43.5035 -2.11826)
(-1.65019e-13 43.5035 -2.11826)
(-3.72328e-14 42.4754 -2.10694)
(1.30085e-13 42.4754 -2.10694)
(0 41.4769 -2.09595)
(0 41.4769 -2.09595)
(-3.2816e-14 40.5068 -2.08527)
(-1.31264e-13 40.5068 -2.08527)
(0 39.5642 -2.07489)
(0 39.5642 -2.07489)
(0 38.6481 -2.0648)
(0 38.6481 -2.0648)
(0 37.7576 -2.05499)
(3.17965e-14 37.7576 -2.05499)
(3.12139e-14 36.8916 -2.04546)
(-1.64798e-13 36.8916 -2.04546)
(-6.12837e-14 36.0495 -2.03619)
(-3.06419e-14 36.0495 -2.03619)
(3.00804e-14 35.2304 -2.02717)
(-3.00804e-14 35.2304 -2.02717)
(3.38237e-14 34.4334 -2.01841)
(-2.95292e-14 34.4334 -2.01841)
(-3.39649e-14 33.6579 -2.00988)
(0 33.6579 -2.00988)
(-5.64869e-15 32.9031 -2.00158)
(-2.84568e-14 32.9031 -2.00158)
(6.31016e-15 32.1684 -1.99351)
(0 32.1684 -1.99351)
(0 31.453 -1.98566)
(-5.48469e-14 31.453 -1.98566)
(-6.90476e-14 30.7564 -1.97802)
(-2.7619e-13 30.7564 -1.97802)
(0 30.0779 -1.97058)
(0 30.0779 -1.97058)
(3.47998e-14 29.417 -1.96334)
(0 29.417 -1.96334)
(-5.09359e-14 28.7731 -1.95629)
(1.39748e-13 28.7731 -1.95629)
(0 28.1456 -1.94943)
(-1.40295e-13 28.1456 -1.94943)
(0 27.534 -1.94275)
(-1.89926e-13 27.534 -1.94275)
(1.28411e-14 26.9379 -1.93624)
(-1.89569e-13 26.9379 -1.93624)
(0 26.3567 -1.92991)
(9.46198e-14 26.3567 -1.92991)
(3.56156e-14 25.79 -1.92373)
(4.64369e-14 25.79 -1.92373)
(2.5914e-14 25.2373 -1.91772)
(1.88586e-13 25.2373 -1.91772)
(-3.58838e-14 24.6983 -1.91186)
(9.87848e-14 24.6983 -1.91186)
(0 24.1724 -1.90615)
(0 24.1724 -1.90615)
(7.92759e-14 23.6594 -1.90059)
(-4.31256e-14 23.6594 -1.90059)
(3.6283e-14 23.1588 -1.89517)
(1.45132e-13 23.1588 -1.89517)
(3.64152e-14 22.6703 -1.88988)
(1.45661e-13 22.6703 -1.88988)
(3.65471e-14 22.1934 -1.88472)
(0 22.1934 -1.88472)
(4.00503e-14 21.7279 -1.87969)
(-1.46714e-13 21.7279 -1.87969)
(1.15443e-13 21.2735 -1.87478)
(-3.93164e-14 21.2735 -1.87478)
(1.65558e-15 20.8297 -1.87)
(-3.8596e-14 20.8297 -1.87)
(0 20.3964 -1.86533)
(0 20.3964 -1.86533)
(6.45375e-18 19.9731 -1.86077)
(0 19.9731 -1.86077)
(1.11174e-13 19.5597 -1.85631)
(0 19.5597 -1.85631)
(0 19.1558 -1.85196)
(0 19.1558 -1.85196)
(3.75891e-14 18.7611 -1.84771)
(3.71087e-13 18.7611 -1.84771)
(0 18.3755 -1.84356)
(0 18.3755 -1.84356)
(-7.17556e-14 17.9987 -1.8395)
(-3.39092e-14 17.9987 -1.8395)
(-3.79746e-14 17.6303 -1.83553)
(0 17.6303 -1.83553)
(3.26778e-14 17.2702 -1.83164)
(0 17.2702 -1.83164)
(3.82301e-14 16.9182 -1.82784)
(0 16.9182 -1.82784)
(6.29823e-14 16.574 -1.82412)
(0 16.574 -1.82412)
(7.69691e-14 16.2375 -1.82047)
(-1.53938e-13 16.2375 -1.82047)
(7.72227e-14 15.9083 -1.81689)
(-1.54445e-13 15.9083 -1.81689)
(-3.87379e-14 15.5864 -1.81338)
(-4.05272e-13 15.5864 -1.81338)
(-3.88642e-14 15.2714 -1.80994)
(-5.84911e-14 15.2714 -1.80994)
(0 14.9634 -1.80656)
(1.55961e-13 14.9634 -1.80656)
(0 14.6619 -1.80323)
(-5.63671e-14 14.6619 -1.80323)
(3.92417e-14 14.367 -1.79996)
(0 14.367 -1.79996)
(-3.9367e-14 14.0783 -1.79675)
(-1.57468e-13 14.0783 -1.79675)
(0 13.7958 -1.79358)
(0 13.7958 -1.79358)
(3.9617e-14 13.5193 -1.79046)
(1.58468e-13 13.5193 -1.79046)
(7.94834e-14 13.2485 -1.78737)
(-1.58967e-13 13.2485 -1.78737)
(0 12.9835 -1.78433)
(-2.09911e-13 12.9835 -1.78433)
(8.95127e-14 12.724 -1.78132)
(-4.95223e-14 12.724 -1.78132)
(-4.86148e-14 12.4698 -1.77834)
(-1.60458e-13 12.4698 -1.77834)
(0 12.2209 -1.77539)
(-3.21905e-13 12.2209 -1.77539)
(0 11.9771 -1.77246)
(-4.68495e-14 11.9771 -1.77246)
(8.09703e-14 11.7383 -1.76955)
(1.61941e-13 11.7383 -1.76955)
(4.06084e-14 11.5043 -1.76666)
(-4.51482e-14 11.5043 -1.76666)
(4.43209e-14 11.2751 -1.76378)
(1.62925e-13 11.2751 -1.76378)
(4.08541e-14 11.0505 -1.76091)
(-1.63417e-13 11.0505 -1.76091)
(0 10.8303 -1.75804)
(-2.06618e-13 10.8303 -1.75804)
(0 10.6145 -1.75518)
(4.19287e-14 10.6145 -1.75518)
(4.12213e-14 10.403 -1.75231)
(-2.06046e-13 10.403 -1.75231)
(8.26866e-14 10.1956 -1.74943)
(-1.65373e-13 10.1956 -1.74943)
(8.11308e-14 9.99232 -1.74654)
(1.26195e-13 9.99232 -1.74654)
(4.42345e-14 9.79295 -1.74363)
(1.27408e-13 9.79295 -1.74363)
(4.17081e-14 9.59742 -1.7407)
(0 9.59742 -1.7407)
(-4.30441e-15 9.40564 -1.73775)
(0 9.40564 -1.73775)
(7.87875e-14 9.21751 -1.73476)
(-2.04638e-13 9.21751 -1.73476)
(4.20711e-14 9.03295 -1.73174)
(1.32122e-13 9.03295 -1.73174)
(8.43833e-14 8.85185 -1.72867)
(0 8.85185 -1.72867)
(0 8.67413 -1.72556)
(1.69248e-13 8.67413 -1.72556)
(-4.24322e-14 8.49971 -1.7224)
(-2.03939e-13 8.49971 -1.7224)
(8.51043e-14 8.3285 -1.71918)
(-1.70209e-13 8.3285 -1.71918)
(-4.26719e-14 8.16042 -1.71589)
(-4.07311e-13 8.16042 -1.71589)
(4.27914e-14 7.99539 -1.71253)
(-1.71166e-13 7.99539 -1.71253)
(-6.35418e-14 7.83332 -1.70909)
(1.71643e-13 7.83332 -1.70909)
(2.36822e-14 7.67415 -1.70557)
(1.72119e-13 7.67415 -1.70557)
(1.04383e-13 7.51779 -1.70196)
(-1.72595e-13 7.51779 -1.70196)
(-1.6845e-14 7.36417 -1.69825)
(0 7.36417 -1.69825)
(0 7.21322 -1.69443)
(-1.73543e-13 7.21322 -1.69443)
(0 7.06487 -1.6905)
(-1.74015e-13 7.06487 -1.6905)
(5.68679e-14 6.91905 -1.68645)
(-2.31354e-13 6.91905 -1.68645)
(0 6.77569 -1.68226)
(0 6.77569 -1.68226)
(4.38566e-14 6.63471 -1.67793)
(0 6.63471 -1.67793)
(4.39736e-14 6.49607 -1.67345)
(1.75895e-13 6.49607 -1.67345)
(4.40904e-14 6.35968 -1.66881)
(0 6.35968 -1.66881)
(0 6.22549 -1.664)
(1.76827e-13 6.22549 -1.664)
(0 6.09342 -1.65901)
(-1.0179e-13 6.09342 -1.65901)
(0 5.96343 -1.65382)
(-1.77755e-13 5.96343 -1.65382)
(-4.90467e-14 5.83545 -1.64842)
(0 5.83545 -1.64842)
(-4.46695e-14 5.7094 -1.6428)
(0 5.7094 -1.6428)
(2.48135e-15 5.58525 -1.63694)
(-2.26403e-13 5.58525 -1.63694)
(-4.48988e-14 5.46291 -1.63084)
(-2.25995e-13 5.46291 -1.63084)
(9.10986e-14 5.34234 -1.62447)
(-9.10986e-14 5.34234 -1.62447)
(4.47146e-14 5.22347 -1.61782)
(-3.61012e-13 5.22347 -1.61782)
(0 5.10625 -1.61087)
(-2.68749e-13 5.10625 -1.61087)
(0 4.99061 -1.6036)
(0 4.99061 -1.6036)
(0 4.8765 -1.596)
(-2.2416e-13 4.8765 -1.596)
(3.74755e-14 4.76385 -1.58803)
(0 4.76385 -1.58803)
(5.06108e-14 4.65261 -1.57969)
(1.01222e-13 4.65261 -1.57969)
(9.15976e-14 4.54271 -1.57094)
(0 4.54271 -1.57094)
(9.18182e-14 4.4341 -1.56176)
(-2.22921e-13 4.4341 -1.56176)
(8.45837e-14 4.32671 -1.55212)
(-7.71298e-14 4.32671 -1.55212)
(-4.61279e-14 4.22047 -1.542)
(-7.57164e-14 4.22047 -1.542)
(0 4.11534 -1.53136)
(1.84945e-13 4.11534 -1.53136)
(-4.63442e-14 4.01124 -1.52017)
(1.85377e-13 4.01124 -1.52017)
(0 3.9081 -1.50839)
(-2.57435e-13 3.9081 -1.50839)
(0 3.80586 -1.49599)
(-1.86231e-13 3.80586 -1.49599)
(-1.15692e-13 3.70445 -1.48292)
(-1.86653e-13 3.70445 -1.48292)
(9.35362e-14 3.6038 -1.46913)
(-1.87072e-13 3.6038 -1.46913)
(4.68721e-14 3.50382 -1.45459)
(0 3.50382 -1.45459)
(0 3.40445 -1.43924)
(1.22598e-13 3.40445 -1.43924)
(0 3.3056 -1.42301)
(0 3.3056 -1.42301)
(0 3.20719 -1.40585)
(-3.14577e-13 3.20719 -1.40585)
(0 3.10912 -1.38769)
(-6.17784e-14 3.10912 -1.38769)
(-1.32689e-14 3.01131 -1.36846)
(1.8951e-13 3.01131 -1.36846)
(1.0701e-13 2.91365 -1.34808)
(-4.39337e-13 2.91365 -1.34808)
(0 2.81605 -1.32645)
(0 2.81605 -1.32645)
(-6.70792e-14 2.71837 -1.30349)
(0 2.71837 -1.30349)
(1.04083e-13 2.62052 -1.27909)
(-2.47365e-13 2.62052 -1.27909)
(-1.03143e-13 2.52236 -1.25313)
(1.91413e-13 2.52236 -1.25313)
(9.58879e-14 2.42375 -1.22549)
(1.37499e-13 2.42375 -1.22549)
(4.27842e-14 2.32454 -1.19603)
(0 2.32454 -1.19603)
(-4.18511e-15 2.22459 -1.1646)
(-5.23055e-14 2.22459 -1.1646)
(4.82059e-14 2.12371 -1.13103)
(0 2.12371 -1.13103)
(-2.11678e-15 2.02174 -1.09514)
(-2.43564e-13 2.02174 -1.09514)
(4.83707e-14 1.91848 -1.05673)
(1.93483e-13 1.91848 -1.05673)
(0 1.81373 -1.01558)
(-1.93799e-13 1.81373 -1.01558)
(4.85263e-14 1.70726 -0.971454)
(-1.94105e-13 1.70726 -0.971454)
(4.86003e-14 1.59887 -0.924104)
(4.68118e-14 1.59887 -0.924104)
(4.59539e-14 1.4883 -0.873256)
(1.94686e-13 1.4883 -0.873256)
(0 1.37534 -0.818621)
(-3.89917e-13 1.37534 -0.818621)
(0 1.25973 -0.759898)
(-1.95218e-13 1.25973 -0.759898)
(4.88661e-14 1.14126 -0.696777)
(-1.95464e-13 1.14126 -0.696777)
(4.89238e-14 1.0197 -0.628947)
(1.10341e-13 1.0197 -0.628947)
(4.89776e-14 0.894879 -0.5561)
(-3.91821e-13 0.894879 -0.5561)
(9.80541e-14 0.766645 -0.477949)
(-1.96108e-13 0.766645 -0.477949)
(0 0.634904 -0.394229)
(0 0.634904 -0.394229)
(-8.87454e-14 0.499626 -0.30472)
(1.96446e-13 0.499626 -0.30472)
(7.78151e-14 0.360855 -0.209246)
(-2.74399e-13 0.360855 -0.209246)
(-4.91746e-14 0.218716 -0.107692)
(1.20309e-13 0.218716 -0.107692)
(4.9197e-14 4.3099e-07 -1.59521e-07)
(2.71998e-13 4.31125e-07 -1.59571e-07)
(4.92521e-14 -7.44937e-08 2.75745e-08)
(1.96788e-13 -4.72918e-08 1.7504e-08)
(-7.63891e-14 -0.218716 0.107692)
(3.17008e-13 -0.218716 0.107692)
(-4.9146e-14 -0.360855 0.209246)
(0 -0.360855 0.209246)
(3.96338e-14 -0.499625 0.304719)
(1.56813e-13 -0.499625 0.304719)
(0 -0.634904 0.394229)
(3.92574e-13 -0.634904 0.394229)
(-4.9027e-14 -0.766645 0.477948)
(-1.96108e-13 -0.766645 0.477948)
(0 -0.894879 0.5561)
(0 -0.894879 0.5561)
(-4.89238e-14 -1.0197 0.628946)
(-1.95695e-13 -1.0197 0.628946)
(0 -1.14125 0.696777)
(0 -1.14125 0.696777)
(4.88046e-14 -1.25973 0.759898)
(0 -1.25973 0.759898)
(-9.02237e-14 -1.37534 0.818621)
(2.85182e-13 -1.37534 0.818621)
(0 -1.4883 0.873256)
(1.94686e-13 -1.4883 0.873256)
(0 -1.59887 0.924105)
(0 -1.59887 0.924105)
(4.68448e-14 -1.70726 0.971454)
(-2.89476e-13 -1.70726 0.971454)
(9.68994e-14 -1.81373 1.01558)
(0 -1.81373 1.01558)
(0 -1.91848 1.05673)
(0 -1.91848 1.05673)
(9.65787e-14 -2.02174 1.09514)
(1.42751e-13 -2.02174 1.09514)
(-4.82059e-14 -2.12371 1.13103)
(-2.95518e-13 -2.12371 1.13103)
(-9.62409e-14 -2.22459 1.1646)
(0 -2.22459 1.1646)
(5.24884e-15 -2.32454 1.19603)
(1.3885e-13 -2.32454 1.19603)
(-9.58879e-14 -2.42375 1.22549)
(-1.91776e-13 -2.42375 1.22549)