/*--------------------------------*- C++ -*----------------------------------*\
| =========                 |                                                 |
| \\      /  F ield         | OpenFOAM: The Open Source CFD Toolbox           |
|  \\    /   O peration     | Version:  2106                                  |
|   \\  /    A nd           | Website:  www.openfoam.com                      |
|    \\/     M anipulation  |                                                 |
\*---------------------------------------------------------------------------*/
FoamFile
{
    version     2.0;
    format      ascii;
    arch        "LSB;label=32;scalar=64";
    class       volScalarField;
    location    "10040";
    object      p;
}
// * * * * * * * * * * * * * * * * * * * * * * * * * * * * * * * * * * * * * //

dimensions      [0 2 -2 0 0 0 0];

internalField   nonuniform List<scalar> 
2000
(
4.62995e-16
3.16243e-15
9.92441e-16
3.16179e-15
9.76372e-16
3.16083e-15
7.96246e-16
3.15935e-15
6.44838e-16
3.15732e-15
5.15454e-16
3.15468e-15
3.88544e-16
3.15142e-15
2.62252e-16
3.14755e-15
1.38362e-16
3.14308e-15
1.75657e-17
3.13797e-15
-1.00043e-16
3.13223e-15
-2.14463e-16
3.12581e-15
-3.25894e-16
3.11874e-15
-4.34484e-16
3.11098e-15
-5.40535e-16
3.10253e-15
-6.44374e-16
3.09335e-15
-7.46141e-16
3.08339e-15
-8.46182e-16
3.0726e-15
-9.44964e-16
3.06098e-15
-1.04289e-15
3.04844e-15
-1.14036e-15
3.03494e-15
-1.23781e-15
3.02045e-15
-1.33571e-15
3.00494e-15
-1.43415e-15
2.9882e-15
-1.53372e-15
2.97014e-15
-1.63463e-15
2.95072e-15
-1.73713e-15
2.92988e-15
-1.84128e-15
2.90753e-15
-1.94734e-15
2.88357e-15
-2.05543e-15
2.85783e-15
-2.16614e-15
2.83034e-15
-2.27886e-15
2.80108e-15
-2.39388e-15
2.76989e-15
-2.51134e-15
2.73677e-15
-2.63116e-15
2.70156e-15
-2.75353e-15
2.66443e-15
-2.87816e-15
2.62524e-15
-3.00534e-15
2.5841e-15
-3.13465e-15
2.54079e-15
-3.26638e-15
2.49527e-15
-3.40044e-15
2.44769e-15
-3.53697e-15
2.3982e-15
-3.6753e-15
2.3464e-15
-3.81511e-15
2.29206e-15
-3.95734e-15
2.23556e-15
-4.10107e-15
2.17668e-15
-4.24663e-15
2.11519e-15
-4.39327e-15
2.05151e-15
-4.54155e-15
1.98658e-15
-4.69092e-15
1.91975e-15
-4.84203e-15
1.84982e-15
-4.9933e-15
1.77678e-15
-5.14717e-15
1.70137e-15
-5.3005e-15
1.62335e-15
-5.45501e-15
1.54353e-15
-5.61119e-15
1.46007e-15
-5.76652e-15
1.37379e-15
-5.9209e-15
1.28499e-15
-6.07535e-15
1.19341e-15
-6.23038e-15
1.09909e-15
-6.3836e-15
1.00029e-15
-6.53729e-15
8.97007e-16
-6.69082e-15
7.9349e-16
-6.84291e-15
6.86774e-16
-6.99412e-15
5.78158e-16
-7.14505e-15
4.67087e-16
-7.29437e-15
3.5169e-16
-7.44336e-15
2.32644e-16
-7.59135e-15
1.11325e-16
-7.73766e-15
-1.21825e-17
-7.88361e-15
-1.38467e-16
-8.02854e-15
-2.65379e-16
-8.17106e-15
-3.94877e-16
-8.31469e-15
-5.2758e-16
-8.4545e-15
-6.65549e-16
-8.59552e-15
-8.03688e-16
-8.73637e-15
-9.41841e-16
-8.87638e-15
-1.08059e-15
-9.02083e-15
-1.21977e-15
-9.16312e-15
-1.36225e-15
-9.30254e-15
-1.50792e-15
-9.44373e-15
-1.65359e-15
-9.58839e-15
-1.79754e-15
-9.73044e-15
-1.94816e-15
-9.87233e-15
-2.10221e-15
-1.0015e-14
-2.2548e-15
-1.01553e-14
-2.40572e-15
-1.02951e-14
-2.5612e-15
-1.04329e-14
-2.71785e-15
-1.05703e-14
-2.87386e-15
-1.07077e-14
-3.03064e-15
-1.08451e-14
-3.18635e-15
-1.09827e-14
-3.3424e-15
-1.11225e-14
-3.50027e-15
-1.12596e-14
-3.65634e-15
-1.13959e-14
-3.81036e-15
-1.15316e-14
-3.96375e-15
-1.16634e-14
-4.12143e-15
-1.17935e-14
-4.28319e-15
-1.19201e-14
-4.44706e-15
-1.20453e-14
-4.61456e-15
-1.21659e-14
-4.78015e-15
-1.22873e-14
-4.94532e-15
-1.24062e-14
-5.11693e-15
-1.25266e-14
-5.28938e-15
-1.26433e-14
-5.4642e-15
-1.2762e-14
-5.6375e-15
-1.28776e-14
-5.81625e-15
-1.2994e-14
-6.00203e-15
-1.31041e-14
-6.18912e-15
-1.32194e-14
-6.37909e-15
-1.33364e-14
-6.56798e-15
-1.34536e-14
-6.75547e-15
-1.35695e-14
-6.93939e-15
-1.36826e-14
-7.13246e-15
-1.37914e-14
-7.33631e-15
-1.3898e-14
-7.53008e-15
-1.40028e-14
-7.72471e-15
-1.41136e-14
-7.91992e-15
-1.42119e-14
-8.11921e-15
-1.43132e-14
-8.31089e-15
-1.44178e-14
-8.49462e-15
-1.45185e-14
-8.68533e-15
-1.46081e-14
-8.87126e-15
-1.46983e-14
-9.06745e-15
-1.47933e-14
-9.25057e-15
-1.48936e-14
-9.42795e-15
-1.50035e-14
-9.59145e-15
-1.51041e-14
-9.76768e-15
-1.52038e-14
-9.94081e-15
-1.5299e-14
-1.01065e-14
-1.53902e-14
-1.02721e-14
-1.54857e-14
-1.04488e-14
-1.55742e-14
-1.06324e-14
-1.56718e-14
-1.07992e-14
-1.57594e-14
-1.09721e-14
-1.58453e-14
-1.11585e-14
-1.5926e-14
-1.13386e-14
-1.60096e-14
-1.1516e-14
-1.60926e-14
-1.17099e-14
-1.61714e-14
-1.19241e-14
-1.62579e-14
-1.21192e-14
-1.63448e-14
-1.23029e-14
-1.64243e-14
-1.24947e-14
-1.65048e-14
-1.26943e-14
-1.65941e-14
-1.28782e-14
-1.6685e-14
-1.30539e-14
-1.67737e-14
-1.3237e-14
-1.68606e-14
-1.34194e-14
-1.69461e-14
-1.3601e-14
-1.70541e-14
-1.37975e-14
-1.71535e-14
-1.40008e-14
-1.72605e-14
-1.42032e-14
-1.73282e-14
-1.44125e-14
-1.74195e-14
-1.46135e-14
-1.75265e-14
-1.48064e-14
-1.76339e-14
-1.49992e-14
-1.77343e-14
-1.51841e-14
-1.78281e-14
-1.54084e-14
-1.79308e-14
-1.56178e-14
-1.80191e-14
-1.5805e-14
-1.8101e-14
-1.60019e-14
-1.8192e-14
-1.62015e-14
-1.82997e-14
-1.63887e-14
-1.8401e-14
-1.65561e-14
-1.84961e-14
-1.67429e-14
-1.8593e-14
-1.69342e-14
-1.8676e-14
-1.71076e-14
-1.87606e-14
-1.72717e-14
-1.88468e-14
-1.74348e-14
-1.89345e-14
-1.7621e-14
-1.90157e-14
-1.78004e-14
-1.91131e-14
-1.79818e-14
-1.91801e-14
-1.81433e-14
-1.92701e-14
-1.82864e-14
-1.93445e-14
-1.84505e-14
-1.94487e-14
-1.86214e-14
-1.95364e-14
-1.87853e-14
-1.963e-14
-1.89283e-14
-1.96991e-14
-1.90818e-14
-1.97809e-14
-1.92329e-14
-1.98747e-14
-1.93986e-14
-1.99795e-14
-1.95659e-14
-2.00797e-14
-1.97063e-14
-2.01606e-14
-1.98656e-14
-2.02507e-14
-1.99864e-14
-2.03342e-14
-2.00701e-14
-2.04269e-14
-2.01915e-14
-2.05285e-14
-2.03218e-14
-2.06236e-14
-2.04624e-14
-2.07261e-14
-2.05854e-14
-2.0821e-14
-2.07065e-14
-2.09225e-14
-2.07971e-14
-2.10164e-14
-2.09008e-14
-2.11174e-14
-2.10329e-14
-2.1196e-14
-2.11224e-14
-2.13099e-14
-2.11851e-14
-2.14328e-14
-2.12912e-14
-2.15521e-14
-2.13539e-14
-2.16422e-14
-2.14706e-14
-2.17316e-14
-2.16137e-14
-2.18326e-14
-2.1701e-14
-2.19179e-14
-2.18307e-14
-2.19994e-14
-2.19639e-14
-2.2131e-14
-2.20754e-14
-2.2217e-14
-2.21503e-14
-2.23424e-14
-2.22431e-14
-2.24265e-14
-2.23793e-14
-2.25086e-14
-2.24385e-14
-2.25898e-14
-2.2516e-14
-2.26572e-14
-2.25985e-14
-2.27368e-14
-2.26601e-14
-2.28442e-14
-2.27253e-14
-2.28491e-14
-2.27761e-14
-2.29102e-14
-2.28158e-14
-2.29513e-14
-2.28437e-14
-2.29493e-14
-2.28593e-14
-2.29573e-14
-2.28636e-14
-2.29988e-14
-2.29087e-14
-2.30226e-14
-2.29164e-14
-2.29828e-14
-2.29099e-14
-2.30546e-14
-2.29435e-14
-2.30898e-14
-2.29893e-14
-2.30893e-14
-2.29975e-14
-2.30796e-14
-2.30187e-14
-2.3107e-14
-2.30552e-14
-2.3144e-14
-2.31084e-14
-2.31902e-14
-2.3133e-14
-2.32232e-14
-2.31523e-14
-2.31984e-14
-2.3211e-14
-2.32007e-14
-2.32219e-14
-2.3227e-14
-2.32117e-14
-2.32828e-14
-2.32239e-14
-2.33524e-14
-2.32297e-14
-2.33106e-14
-2.31955e-14
-2.33873e-14
-2.30957e-14
-2.3385e-14
-2.30614e-14
-2.33579e-14
-2.30815e-14
-2.33623e-14
-2.30651e-14
-2.3336e-14
-2.30724e-14
-2.32811e-14
-2.31103e-14
-2.31994e-14
-2.31556e-14
-2.30826e-14
-2.31223e-14
-2.30607e-14
-2.30707e-14
-2.30306e-14
-2.30346e-14
-2.29903e-14
-2.30338e-14
-2.30151e-14
-2.30118e-14
-2.29501e-14
-2.29609e-14
-2.28966e-14
-2.2973e-14
-2.29166e-14
-2.29359e-14
-3.02723e-15
-3.34685e-15
-3.0275e-15
-3.34698e-15
-3.02791e-15
-3.34719e-15
-3.02858e-15
-3.34755e-15
-3.02951e-15
-3.34807e-15
-3.0307e-15
-3.34873e-15
-3.03215e-15
-3.34958e-15
-3.03388e-15
-3.35062e-15
-3.03588e-15
-3.35183e-15
-3.03818e-15
-3.35318e-15
-3.04073e-15
-3.35476e-15
-3.0436e-15
-3.35654e-15
-3.04675e-15
-3.35849e-15
-3.05023e-15
-3.36064e-15
-3.05398e-15
-3.36304e-15
-3.05804e-15
-3.36566e-15
-3.0625e-15
-3.36851e-15
-3.0673e-15
-3.3717e-15
-3.07251e-15
-3.37513e-15
-3.07814e-15
-3.37884e-15
-3.08422e-15
-3.38295e-15
-3.09077e-15
-3.38744e-15
-3.09795e-15
-3.39239e-15
-3.10576e-15
-3.39773e-15
-3.1142e-15
-3.40349e-15
-3.12343e-15
-3.40972e-15
-3.13339e-15
-3.41639e-15
-3.14433e-15
-3.42383e-15
-3.15617e-15
-3.43193e-15
-3.16891e-15
-3.44052e-15
-3.18261e-15
-3.4497e-15
-3.19738e-15
-3.45964e-15
-3.21328e-15
-3.47032e-15
-3.23037e-15
-3.48176e-15
-3.24877e-15
-3.49424e-15
-3.26839e-15
-3.50733e-15
-3.28917e-15
-3.5212e-15
-3.31167e-15
-3.53572e-15
-3.33561e-15
-3.55126e-15
-3.36085e-15
-3.5682e-15
-3.38742e-15
-3.58625e-15
-3.41515e-15
-3.60523e-15
-3.44466e-15
-3.62577e-15
-3.47559e-15
-3.64732e-15
-3.50817e-15
-3.6701e-15
-3.54221e-15
-3.6935e-15
-3.5773e-15
-3.71907e-15
-3.61389e-15
-3.74666e-15
-3.65245e-15
-3.77447e-15
-3.69232e-15
-3.80249e-15
-3.73348e-15
-3.8336e-15
-3.77645e-15
-3.86668e-15
-3.82098e-15
-3.90024e-15
-3.86682e-15
-3.93583e-15
-3.91451e-15
-3.9727e-15
-3.96458e-15
-4.00926e-15
-4.01626e-15
-4.04793e-15
-4.06955e-15
-4.08849e-15
-4.12415e-15
-4.13096e-15
-4.18006e-15
-4.17539e-15
-4.23785e-15
-4.22182e-15
-4.29813e-15
-4.26847e-15
-4.3603e-15
-4.31715e-15
-4.42252e-15
-4.36789e-15
-4.48598e-15
-4.42074e-15
-4.55066e-15
-4.47571e-15
-4.61849e-15
-4.53091e-15
-4.68816e-15
-4.58894e-15
-4.75969e-15
-4.65117e-15
-4.83238e-15
-4.71431e-15
-4.90826e-15
-4.77564e-15
-4.98527e-15
-4.83784e-15
-5.06407e-15
-4.903e-15
-5.14467e-15
-4.97117e-15
-5.22489e-15
-5.04167e-15
-5.30828e-15
-5.11525e-15
-5.39412e-15
-5.18537e-15
-5.48314e-15
-5.25415e-15
-5.57088e-15
-5.33048e-15
-5.66026e-15
-5.40997e-15
-5.75202e-15
-5.48657e-15
-5.84537e-15
-5.56403e-15
-5.94028e-15
-5.64545e-15
-6.03595e-15
-5.73476e-15
-6.13231e-15
-5.82659e-15
-6.22851e-15
-5.91537e-15
-6.3293e-15
-6.00424e-15
-6.43307e-15
-6.09802e-15
-6.54142e-15
-6.19351e-15
-6.64945e-15
-6.29234e-15
-6.75707e-15
-6.3929e-15
-6.86589e-15
-6.49685e-15
-6.97752e-15
-6.59918e-15
-7.08855e-15
-6.70492e-15
-7.1989e-15
-6.81579e-15
-7.3119e-15
-6.925e-15
-7.42751e-15
-7.03769e-15
-7.54394e-15
-7.15388e-15
-7.66286e-15
-7.27185e-15
-7.78248e-15
-7.39513e-15
-7.90446e-15
-7.51848e-15
-8.02699e-15
-7.63131e-15
-8.14822e-15
-7.7459e-15
-8.26807e-15
-7.87296e-15
-8.39718e-15
-7.99648e-15
-8.52295e-15
-8.1182e-15
-8.6507e-15
-8.24351e-15
-8.78037e-15
-8.37243e-15
-8.91371e-15
-8.50316e-15
-9.047e-15
-8.63017e-15
-9.17097e-15
-8.76446e-15
-9.3076e-15
-8.90238e-15
-9.44206e-15
-9.04023e-15
-9.57795e-15
-9.17799e-15
-9.71332e-15
-9.31378e-15
-9.84619e-15
-9.45132e-15
-9.98773e-15
-9.58306e-15
-1.01266e-14
-9.72023e-15
-1.02627e-14
-9.8666e-15
-1.03997e-14
-1.00146e-14
-1.05298e-14
-1.01529e-14
-1.06683e-14
-1.02814e-14
-1.08034e-14
-1.04115e-14
-1.09391e-14
-1.05507e-14
-1.10752e-14
-1.06952e-14
-1.12116e-14
-1.08412e-14
-1.13482e-14
-1.0981e-14
-1.14887e-14
-1.11107e-14
-1.16292e-14
-1.12417e-14
-1.17773e-14
-1.13858e-14
-1.19215e-14
-1.1535e-14
-1.20654e-14
-1.16739e-14
-1.22129e-14
-1.18102e-14
-1.23639e-14
-1.19477e-14
-1.25146e-14
-1.20902e-14
-1.2661e-14
-1.22376e-14
-1.2803e-14
-1.23861e-14
-1.29483e-14
-1.25277e-14
-1.31049e-14
-1.26702e-14
-1.32531e-14
-1.28174e-14
-1.33967e-14
-1.29652e-14
-1.35319e-14
-1.30939e-14
-1.36625e-14
-1.32269e-14
-1.38121e-14
-1.3364e-14
-1.3961e-14
-1.35051e-14
-1.41014e-14
-1.36459e-14
-1.42531e-14
-1.37784e-14
-1.43884e-14
-1.39064e-14
-1.45271e-14
-1.40255e-14
-1.46615e-14
-1.41512e-14
-1.47758e-14
-1.42911e-14
-1.48934e-14
-1.44451e-14
-1.50139e-14
-1.45738e-14
-1.51528e-14
-1.46926e-14
-1.52868e-14
-1.48088e-14
-1.5408e-14
-1.49534e-14
-1.55318e-14
-1.50947e-14
-1.56503e-14
-1.52167e-14
-1.5763e-14
-1.53427e-14
-1.58778e-14
-1.54801e-14
-1.59863e-14
-1.5597e-14
-1.61119e-14
-1.57167e-14
-1.6231e-14
-1.58619e-14
-1.63667e-14
-1.60167e-14
-1.64953e-14
-1.61495e-14
-1.66088e-14
-1.62836e-14
-1.67145e-14
-1.64029e-14
-1.68276e-14
-1.65224e-14
-1.69481e-14
-1.6665e-14
-1.70675e-14
-1.67839e-14
-1.71782e-14
-1.69249e-14
-1.72872e-14
-1.708e-14
-1.73936e-14
-1.72185e-14
-1.75199e-14
-1.73324e-14
-1.76431e-14
-1.74364e-14
-1.77556e-14
-1.75677e-14
-1.78802e-14
-1.7703e-14
-1.8001e-14
-1.7834e-14
-1.81024e-14
-1.796e-14
-1.81989e-14
-1.80504e-14
-1.83132e-14
-1.81574e-14
-1.84452e-14
-1.82646e-14
-1.85499e-14
-1.84153e-14
-1.86411e-14
-1.85947e-14
-1.87761e-14
-1.87291e-14
-1.89398e-14
-1.88179e-14
-1.90296e-14
-1.89333e-14
-1.91639e-14
-1.90455e-14
-1.92985e-14
-1.91681e-14
-1.94337e-14
-1.92996e-14
-1.95695e-14
-1.94539e-14
-1.97053e-14
-1.96013e-14
-1.98409e-14
-1.97419e-14
-1.99759e-14
-1.98465e-14
-2.00824e-14
-1.9972e-14
-2.02031e-14
-2.00595e-14
-2.03246e-14
-2.01651e-14
-2.0433e-14
-2.02878e-14
-2.05698e-14
-2.04129e-14
-2.06779e-14
-2.05402e-14
-2.07994e-14
-2.06695e-14
-2.09195e-14
-2.0814e-14
-2.10653e-14
-2.09043e-14
-2.11695e-14
-2.10486e-14
-2.12868e-14
-2.12056e-14
-2.13858e-14
-2.13352e-14
-2.15204e-14
-2.14674e-14
-2.16206e-14
-2.15883e-14
-2.17541e-14
-2.16838e-14
-2.18548e-14
-2.17521e-14
-2.19657e-14
-2.18581e-14
-2.20472e-14
-2.1987e-14
-2.21498e-14
-2.21158e-14
-2.21763e-14
-2.21934e-14
-2.22038e-14
-2.22241e-14
-2.22299e-14
-2.22606e-14
-2.22254e-14
-2.2303e-14
-2.23434e-14
-2.23291e-14
-2.23839e-14
-2.23838e-14
-2.23455e-14
-2.24415e-14
-2.23974e-14
-2.24602e-14
-2.24416e-14
-2.24636e-14
-2.24792e-14
-2.25226e-14
-2.24816e-14
-2.25621e-14
-2.25195e-14
-2.26123e-14
-2.2592e-14
-2.26502e-14
-2.26286e-14
-2.26717e-14
-2.27042e-14
-2.26973e-14
-2.27261e-14
-2.27694e-14
-2.27601e-14
-2.28468e-14
-2.28025e-14
-2.28628e-14
-2.28337e-14
-2.28624e-14
-2.2881e-14
-2.28656e-14
-2.28771e-14
-2.2888e-14
-2.29301e-14
-2.29096e-14
-2.29327e-14
-2.28586e-14
-2.29569e-14
-2.28697e-14
-2.30288e-14
-2.29423e-14
-2.30407e-14
-2.2964e-14
-2.29689e-14
-2.29397e-14
-2.29815e-14
-2.29202e-14
-2.29768e-14
-2.29602e-14
-2.29529e-14
-2.29543e-14
-2.29151e-14
-2.29532e-14
-2.29196e-14
-2.29255e-14
-2.29101e-14
-2.29309e-14
-2.28644e-14
-2.28853e-14
-2.28388e-14
-2.28294e-14
-2.28451e-14
-2.28416e-14
-2.28888e-14
-2.28789e-14
-2.29352e-14
-2.2912e-14
-2.28423e-14
-2.28885e-14
-2.27825e-14
-2.28396e-14
-2.27982e-14
-2.28509e-14
-2.28277e-14
-2.28356e-14
-2.28115e-14
-2.28017e-14
-2.28225e-14
-2.27682e-14
-2.27848e-14
-2.27711e-14
-2.27935e-14
-2.27724e-14
-2.28274e-14
-2.27913e-14
-2.28252e-14
-2.28054e-14
-2.28483e-14
-2.2821e-14
-2.27921e-14
-2.27897e-14
-2.27599e-14
-2.27603e-14
-2.27724e-14
-2.27758e-14
-2.28079e-14
-2.27682e-14
-2.27588e-14
-2.27536e-14
-2.26883e-14
-2.27141e-14
-2.26372e-14
-2.27241e-14
-2.25953e-14
-2.26943e-14
-2.2605e-14
-2.26472e-14
-2.26036e-14
-2.25989e-14
-2.26002e-14
-2.25932e-14
-2.2596e-14
-2.25341e-14
-2.25473e-14
-2.25381e-14
-2.25473e-14
-2.25146e-14
-2.25505e-14
-2.24604e-14
-2.25893e-14
-2.24449e-14
-2.25946e-14
-2.24891e-14
-2.25366e-14
-2.25241e-14
-2.24813e-14
-2.24842e-14
-2.24545e-14
-2.24477e-14
-2.24039e-14
-2.24123e-14
-2.24049e-14
-2.23775e-14
-2.23842e-14
-2.23392e-14
-2.23413e-14
-2.23229e-14
-2.23264e-14
-2.23046e-14
-2.23419e-14
-2.22858e-14
-2.22824e-14
-2.22376e-14
-2.22399e-14
-2.21873e-14
-2.2228e-14
-2.21754e-14
-2.22055e-14
-2.21468e-14
-2.21451e-14
-2.21143e-14
-2.21278e-14
-2.20932e-14
-2.21133e-14
-2.20418e-14
-2.20898e-14
-2.20537e-14
-2.2068e-14
-2.20346e-14
-2.20753e-14
-2.20141e-14
-2.20714e-14
-2.19913e-14
-2.20565e-14
-2.1951e-14
-2.20607e-14
-2.19208e-14
-2.20718e-14
-2.18987e-14
-2.20623e-14
-2.18979e-14
-2.20309e-14
-2.1948e-14
-2.20163e-14
-2.19957e-14
-2.20164e-14
-2.19725e-14
-2.2018e-14
-2.19204e-14
-2.20224e-14
-2.19102e-14
-2.20156e-14
-2.1927e-14
-2.20262e-14
-2.19717e-14
-2.20237e-14
-2.19718e-14
-2.20378e-14
-2.19565e-14
-2.20543e-14
-2.19542e-14
-2.20437e-14
-2.19794e-14
-2.20495e-14
-2.20035e-14
-2.20711e-14
-2.19972e-14
-2.20791e-14
-2.20048e-14
-2.20883e-14
-2.20265e-14
-2.20832e-14
-2.20478e-14
-2.20778e-14
-2.20844e-14
-2.21167e-14
-2.21224e-14
-2.21549e-14
-2.21313e-14
-2.21551e-14
-2.21178e-14
-2.21711e-14
-2.21197e-14
-2.21954e-14
-2.21369e-14
-2.22054e-14
-2.21465e-14
-2.22317e-14
-2.21328e-14
-2.22444e-14
-2.21411e-14
-2.22512e-14
-2.21945e-14
-2.22669e-14
-2.21936e-14
-2.22839e-14
-2.21767e-14
-2.22796e-14
-2.21745e-14
-2.22847e-14
-2.21871e-14
-2.22915e-14
-2.22067e-14
-2.2284e-14
-2.22335e-14
-2.22852e-14
-2.22369e-14
-2.22713e-14
-2.22325e-14
-2.22736e-14
-2.22283e-14
-2.22842e-14
-2.22241e-14
-2.22798e-14
-2.22279e-14
-2.22838e-14
-2.22161e-14
-2.22884e-14
-2.21963e-14
-2.22861e-14
-2.21918e-14
-2.22846e-14
-2.22103e-14
-2.22917e-14
-2.22129e-14
-2.22916e-14
-2.22072e-14
-2.23001e-14
-2.22089e-14
-2.22936e-14
-2.22103e-14
-2.22798e-14
-2.22112e-14
-2.22743e-14
-2.2212e-14
-2.22772e-14
-2.22205e-14
-2.22804e-14
-2.2213e-14
-2.22762e-14
-2.22133e-14
-2.22724e-14
-2.22056e-14
-2.22651e-14
-2.21977e-14
-2.22543e-14
-2.21896e-14
-2.22438e-14
-2.21932e-14
-2.22533e-14
-2.21928e-14
-2.22513e-14
-2.21923e-14
-2.22536e-14
-2.21839e-14
-2.22523e-14
-2.21792e-14
-2.22554e-14
-2.21626e-14
-2.2259e-14
-2.21457e-14
-2.22592e-14
-2.21363e-14
-2.226e-14
-2.21304e-14
-2.22615e-14
-2.21319e-14
-2.22597e-14
-2.21291e-14
-2.22585e-14
-2.21259e-14
-2.2258e-14
-2.21146e-14
-2.2262e-14
-2.20951e-14
-2.2259e-14
-2.20945e-14
-2.22528e-14
-2.20974e-14
-2.22472e-14
-2.20998e-14
-2.22346e-14
-2.20903e-14
-2.22302e-14
-2.20728e-14
-2.22264e-14
-2.20741e-14
-2.22271e-14
-2.20827e-14
-2.22167e-14
-2.20796e-14
-2.22031e-14
-2.20608e-14
-2.22013e-14
-2.20532e-14
-2.21962e-14
-2.2053e-14
-2.21916e-14
-2.20487e-14
-2.21836e-14
-2.20403e-14
-2.21761e-14
-2.20391e-14
-2.21726e-14
-2.20415e-14
-2.21658e-14
-2.20436e-14
-2.2163e-14
-2.20399e-14
-2.2166e-14
-2.20304e-14
-2.2162e-14
-2.20338e-14
-2.21563e-14
-2.20443e-14
-2.21546e-14
-2.2049e-14
-2.2153e-14
-2.205e-14
-2.21462e-14
-2.20526e-14
-2.21451e-14
-2.20552e-14
-2.21422e-14
-2.20558e-14
-2.21377e-14
-2.20582e-14
-2.2137e-14
-2.20568e-14
-2.21364e-14
-2.20537e-14
-2.21376e-14
-2.20505e-14
-2.21354e-14
-2.20454e-14
-2.21316e-14
-2.20404e-14
-2.21314e-14
-2.20422e-14
-2.21312e-14
-2.20441e-14
-2.21277e-14
-2.20458e-14
-2.2126e-14
-2.20458e-14
-2.21227e-14
-2.20423e-14
-2.21211e-14
-2.20371e-14
-2.21213e-14
-2.20403e-14
-2.21199e-14
-2.20435e-14
-2.21185e-14
-2.20432e-14
-2.21205e-14
-2.20413e-14
-2.21209e-14
-2.2041e-14
-2.21229e-14
-2.20407e-14
-2.21217e-14
-2.20419e-14
-2.21206e-14
-2.20415e-14
-2.21195e-14
-2.20427e-14
-2.21201e-14
-2.20438e-14
-2.2123e-14
-2.20417e-14
-2.21259e-14
-2.20381e-14
-2.21272e-14
-2.20345e-14
-2.21294e-14
-2.20317e-14
-2.21346e-14
-2.20319e-14
-2.21383e-14
-2.20305e-14
-2.2142e-14
-2.20284e-14
-2.21449e-14
-2.2024e-14
-2.21479e-14
-2.20204e-14
-2.21509e-14
-2.2019e-14
-2.21539e-14
-2.20189e-14
-2.21576e-14
-2.20181e-14
-2.21586e-14
-2.20186e-14
-2.21596e-14
-2.20191e-14
-2.21619e-14
-2.20202e-14
-2.2163e-14
-2.20233e-14
-2.21634e-14
-2.2025e-14
-2.21645e-14
-2.20253e-14
-2.2165e-14
-2.20269e-14
-2.21655e-14
-2.2029e-14
-2.2166e-14
-2.20286e-14
-2.21672e-14
-2.20282e-14
-2.21677e-14
-2.20302e-14
-2.21689e-14
-2.20333e-14
-2.21701e-14
-2.20346e-14
-2.21708e-14
-2.20358e-14
-2.21709e-14
-2.20375e-14
-2.2171e-14
-2.20387e-14
-2.21722e-14
-2.20395e-14
-2.21735e-14
-2.20401e-14
-2.21739e-14
-2.20406e-14
-2.21749e-14
-2.20411e-14
-2.21751e-14
-2.20413e-14
-2.21756e-14
-2.20415e-14
-2.21758e-14
-2.20433e-14
-2.21766e-14
-2.20442e-14
-2.21764e-14
-2.20434e-14
-2.2176e-14
-2.20431e-14
-2.21761e-14
-2.20438e-14
-2.21762e-14
-2.20443e-14
-2.21763e-14
-2.20446e-14
-2.21765e-14
-2.20445e-14
-2.21766e-14
-2.20445e-14
-2.21768e-14
-2.20449e-14
-2.21769e-14
-2.20452e-14
-2.21771e-14
-2.20448e-14
-2.21769e-14
-2.20447e-14
-2.21771e-14
-2.20447e-14
-2.21775e-14
-2.20443e-14
-2.21778e-14
-2.20443e-14
-2.21779e-14
-2.20444e-14
-2.21779e-14
-2.20445e-14
-2.21781e-14
-2.20445e-14
-2.21782e-14
-2.20444e-14
-2.21784e-14
-2.20443e-14
-2.21785e-14
-2.20443e-14
-2.21787e-14
-2.20441e-14
-2.21788e-14
-2.20438e-14
-2.21788e-14
-2.20438e-14
-2.21788e-14
-2.20437e-14
-2.21788e-14
-2.20437e-14
-2.21789e-14
-2.20438e-14
-2.21789e-14
-2.20437e-14
-2.21789e-14
-2.20436e-14
-2.21788e-14
-2.20436e-14
-2.21788e-14
-2.20436e-14
-2.21787e-14
-2.20435e-14
-2.21787e-14
-2.20435e-14
-2.21786e-14
-2.20436e-14
-2.21786e-14
-2.20435e-14
-2.21785e-14
-2.20436e-14
-2.21783e-14
-2.20437e-14
-2.21783e-14
-2.20437e-14
-2.21782e-14
-2.20437e-14
-2.21781e-14
-2.20437e-14
-2.21781e-14
-2.20438e-14
-2.2178e-14
-2.20438e-14
-2.2178e-14
-2.20438e-14
-2.2178e-14
-2.20438e-14
-2.2178e-14
-2.20438e-14
-2.2178e-14
-2.20438e-14
-2.2178e-14
-2.20438e-14
-2.2178e-14
-2.20438e-14
-2.28447e-14
-2.28622e-14
-2.28268e-14
-2.28435e-14
-2.2759e-14
-2.28232e-14
-2.27588e-14
-2.28171e-14
-2.2827e-14
-2.28212e-14
-2.27868e-14
-2.27782e-14
-2.27677e-14
-2.27304e-14
-2.27952e-14
-2.27587e-14
-2.28092e-14
-2.27782e-14
-2.28088e-14
-2.27696e-14
-2.2837e-14
-2.2751e-14
-2.27688e-14
-2.27791e-14
-2.27829e-14
-2.27596e-14
-2.27772e-14
-2.27795e-14
-2.27725e-14
-2.27782e-14
-2.27669e-14
-2.2778e-14
-2.27326e-14
-2.27568e-14
-2.26924e-14
-2.27393e-14
-2.26693e-14
-2.27784e-14
-2.27052e-14
-2.27887e-14
-2.2689e-14
-2.2744e-14
-2.26465e-14
-2.26882e-14
-2.26257e-14
-2.2643e-14
-2.2629e-14
-2.26025e-14
-2.25875e-14
-2.25627e-14
-2.25509e-14
-2.25464e-14
-2.25399e-14
-2.25059e-14
-2.25319e-14
-2.24894e-14
-2.25252e-14
-2.24707e-14
-2.24947e-14
-2.24457e-14
-2.24149e-14
-2.24123e-14
-2.241e-14
-2.24012e-14
-2.24038e-14
-2.24134e-14
-2.23442e-14
-2.24002e-14
-2.23566e-14
-2.2366e-14
-2.23406e-14
-2.23334e-14
-2.22716e-14
-2.22737e-14
-2.22808e-14
-2.22396e-14
-2.22637e-14
-2.22008e-14
-2.22365e-14
-2.21563e-14
-2.2228e-14
-2.216e-14
-2.221e-14
-2.2159e-14
-2.214e-14
-2.21277e-14
-2.20979e-14
-2.21098e-14
-2.2068e-14
-2.21346e-14
-2.20891e-14
-2.20959e-14
-2.20958e-14
-2.20163e-14
-2.20791e-14
-2.19883e-14
-2.2095e-14
-2.19693e-14
-2.20464e-14
-2.19155e-14
-2.20176e-14
-2.1926e-14
-2.20345e-14
-2.19042e-14
-2.20419e-14
-2.19057e-14
-2.20687e-14
-2.19163e-14
-2.20443e-14
-2.1877e-14
-2.20266e-14
-2.18582e-14
-2.20443e-14
-2.18312e-14
-2.20405e-14
-2.18245e-14
-2.20296e-14
-2.18531e-14
-2.20245e-14
-2.18898e-14
-2.20088e-14
-2.19063e-14
-2.20404e-14
-2.19189e-14
-2.20607e-14
-2.19274e-14
-2.2055e-14
-2.1932e-14
-2.20826e-14
-2.19475e-14
-2.21142e-14
-2.1944e-14
-2.21206e-14
-2.19355e-14
-2.2147e-14
-2.19519e-14
-2.21786e-14
-2.19631e-14
-2.21858e-14
-2.19685e-14
-2.21837e-14
-2.20137e-14
-2.21857e-14
-2.20391e-14
-2.21909e-14
-2.20302e-14
-2.21996e-14
-2.20173e-14
-2.22043e-14
-2.20232e-14
-2.22122e-14
-2.20479e-14
-2.22154e-14
-2.20689e-14
-2.22208e-14
-2.20948e-14
-2.22281e-14
-2.21184e-14
-2.22291e-14
-2.2101e-14
-2.22318e-14
-2.2081e-14
-2.22362e-14
-2.20815e-14
-2.22424e-14
-2.21025e-14
-2.22425e-14
-2.2129e-14
-2.22593e-14
-2.21457e-14
-2.22695e-14
-2.21372e-14
-2.22656e-14
-2.21264e-14
-2.2271e-14
-2.21135e-14
-2.22782e-14
-2.20981e-14
-2.22794e-14
-2.20959e-14
-2.22825e-14
-2.2099e-14
-2.22874e-14
-2.21076e-14
-2.22861e-14
-2.21219e-14
-2.22785e-14
-2.21265e-14
-2.228e-14
-2.21373e-14
-2.22906e-14
-2.21387e-14
-2.23024e-14
-2.21386e-14
-2.22918e-14
-2.21369e-14
-2.22904e-14
-2.21338e-14
-2.22822e-14
-2.21371e-14
-2.2275e-14
-2.21392e-14
-2.22767e-14
-2.21321e-14
-2.22714e-14
-2.21318e-14
-2.22669e-14
-2.21303e-14
-2.22633e-14
-2.21198e-14
-2.22605e-14
-2.21083e-14
-2.22468e-14
-2.21115e-14
-2.22338e-14
-2.21058e-14
-2.22411e-14
-2.21032e-14
-2.22373e-14
-2.21114e-14
-2.22302e-14
-2.2111e-14
-2.22235e-14
-2.2106e-14
-2.22173e-14
-2.20964e-14
-2.22077e-14
-2.20822e-14
-2.22063e-14
-2.20791e-14
-2.21935e-14
-2.20794e-14
-2.21811e-14
-2.20713e-14
-2.21729e-14
-2.20665e-14
-2.21688e-14
-2.20574e-14
-2.21611e-14
-2.20517e-14
-2.21536e-14
-2.20573e-14
-2.21501e-14
-2.20547e-14
-2.21429e-14
-2.20479e-14
-2.21358e-14
-2.20407e-14
-2.21289e-14
-2.2037e-14
-2.21221e-14
-2.20407e-14
-2.21116e-14
-2.20404e-14
-2.21088e-14
-2.20283e-14
-2.21061e-14
-2.20197e-14
-2.20996e-14
-2.20224e-14
-2.2097e-14
-2.20363e-14
-2.20983e-14
-2.20386e-14
-2.20958e-14
-2.20332e-14
-2.20971e-14
-2.20314e-14
-2.20985e-14
-2.20295e-14
-2.21074e-14
-2.20274e-14
-2.21052e-14
-2.20196e-14
-2.20994e-14
-2.20191e-14
-2.21066e-14
-2.20203e-14
-2.21121e-14
-2.2014e-14
-2.21085e-14
-2.20093e-14
-2.21068e-14
-2.201e-14
-2.21089e-14
-2.20087e-14
-2.21148e-14
-2.20054e-14
-2.21153e-14
-2.20037e-14
-2.21142e-14
-2.20036e-14
-2.21168e-14
-2.19998e-14
-2.21212e-14
-2.19958e-14
-2.21259e-14
-2.19917e-14
-2.21323e-14
-2.19838e-14
-2.21372e-14
-2.19776e-14
-2.21405e-14
-2.19764e-14
-2.21474e-14
-2.19768e-14
-2.21475e-14
-2.19787e-14
-2.21512e-14
-2.19821e-14
-2.21534e-14
-2.19836e-14
-2.2154e-14
-2.19832e-14
-2.21548e-14
-2.19844e-14
-2.2154e-14
-2.19853e-14
-2.21601e-14
-2.19828e-14
-2.21646e-14
-2.19818e-14
-2.21675e-14
-2.19823e-14
-2.21674e-14
-2.19826e-14
-2.21706e-14
-2.19827e-14
-2.2174e-14
-2.19796e-14
-2.21759e-14
-2.19795e-14
-2.21747e-14
-2.19808e-14
-2.21776e-14
-2.19788e-14
-2.21798e-14
-2.19744e-14
-2.21806e-14
-2.19738e-14
-2.21822e-14
-2.19723e-14
-2.21833e-14
-2.19714e-14
-2.21836e-14
-2.19697e-14
-2.21863e-14
-2.19664e-14
-2.21876e-14
-2.19637e-14
-2.21883e-14
-2.19617e-14
-2.21891e-14
-2.19596e-14
-2.219e-14
-2.19582e-14
-2.21917e-14
-2.19587e-14
-2.21934e-14
-2.19557e-14
-2.21945e-14
-2.19533e-14
-2.21944e-14
-2.19535e-14
-2.21937e-14
-2.19543e-14
-2.21924e-14
-2.19524e-14
-2.21938e-14
-2.19504e-14
-2.21965e-14
-2.1949e-14
-2.21974e-14
-2.19475e-14
-2.21977e-14
-2.19472e-14
-2.21975e-14
-2.19475e-14
-2.21974e-14
-2.19483e-14
-2.21967e-14
-2.19478e-14
-2.21967e-14
-2.19478e-14
-2.21962e-14
-2.19489e-14
-2.21957e-14
-2.19504e-14
-2.21948e-14
-2.19517e-14
-2.21945e-14
-2.1952e-14
-2.21942e-14
-2.19525e-14
-2.2194e-14
-2.19532e-14
-2.21933e-14
-2.19536e-14
-2.2193e-14
-2.19529e-14
-2.21941e-14
-2.19517e-14
-2.21946e-14
-2.19512e-14
-2.21946e-14
-2.19516e-14
-2.21942e-14
-2.19524e-14
-2.21938e-14
-2.19525e-14
-2.21942e-14
-2.19521e-14
-2.21937e-14
-2.19517e-14
-2.21939e-14
-2.19516e-14
-2.21939e-14
-2.19517e-14
-2.21937e-14
-2.19514e-14
-2.21934e-14
-2.19509e-14
-2.21935e-14
-2.19505e-14
-2.21936e-14
-2.19507e-14
-2.21936e-14
-2.19508e-14
-2.21936e-14
-2.19507e-14
-2.21936e-14
-2.19504e-14
-2.21937e-14
-2.19501e-14
-2.21933e-14
-2.19501e-14
-2.21932e-14
-2.19502e-14
-2.21933e-14
-2.19504e-14
-2.21932e-14
-2.19504e-14
-2.2193e-14
-2.19505e-14
-2.21928e-14
-2.19505e-14
-2.21927e-14
-2.19505e-14
-2.21927e-14
-2.19504e-14
-2.21927e-14
-2.19504e-14
-2.21925e-14
-2.19506e-14
-2.21925e-14
-2.19506e-14
-2.21924e-14
-2.19506e-14
-2.21924e-14
-2.19505e-14
-2.21923e-14
-2.19505e-14
-2.21922e-14
-2.19505e-14
-2.21922e-14
-2.19504e-14
-2.21922e-14
-2.19504e-14
-2.21921e-14
-2.19504e-14
-2.21921e-14
-2.19504e-14
-2.21921e-14
-2.19504e-14
-2.21921e-14
-2.19503e-14
-2.21921e-14
-2.19503e-14
-2.21922e-14
-2.19503e-14
-2.21922e-14
-2.19503e-14
-2.21922e-14
-2.19503e-14
-2.21922e-14
-2.19503e-14
-2.21922e-14
-2.19503e-14
-2.21923e-14
-2.19502e-14
-2.21923e-14
-2.19502e-14
-2.21923e-14
-2.19502e-14
-2.21923e-14
-2.19502e-14
-2.21923e-14
-2.19502e-14
-2.21923e-14
-2.19502e-14
)
;

boundaryField
{
    walls
    {
        type            zeroGradient;
    }
    inlet
    {
        type            cyclic;
    }
    outlet
    {
        type            cyclic;
    }
    sides
    {
        type            empty;
    }
}


// ************************************************************************* //
