/*--------------------------------*- C++ -*----------------------------------*\
| =========                 |                                                 |
| \\      /  F ield         | OpenFOAM: The Open Source CFD Toolbox           |
|  \\    /   O peration     | Version:  2106                                  |
|   \\  /    A nd           | Website:  www.openfoam.com                      |
|    \\/     M anipulation  |                                                 |
\*---------------------------------------------------------------------------*/
FoamFile
{
    version     2.0;
    format      ascii;
    arch        "LSB;label=32;scalar=64";
    class       volTensorField;
    location    "10050";
    object      grad(U);
}
// * * * * * * * * * * * * * * * * * * * * * * * * * * * * * * * * * * * * * //

dimensions      [0 0 -1 0 0 0 0];

internalField   nonuniform List<tensor> 
800
(
(0 -3.93457e-30 -1.79366e-43 13.3705 -2.1781e-12 1.00281e-45 0.0613706 -5.89458e-15 -9.24999e-28)
(0 5.2461e-30 1.02463e-32 13.3705 2.29963e-16 -6.0001e-17 0.0613706 -8.76678e-18 8.41214e-17)
(0 -1.0001e-26 3.81831e-28 13.3642 -2.65348e-13 4.97866e-14 0.186976 -2.55131e-15 4.78695e-16)
(0 -2.50383e-30 0 13.3642 2.91806e-15 -9.48957e-17 0.186976 1.31097e-17 3.20908e-16)
(-5.97672e-18 0 1.33916e-28 13.3576 6.31089e-30 0 0.275433 0 9.86076e-32)
(4.78138e-17 1.43401e-29 -8.96259e-31 13.3576 2.1034e-15 -9.41765e-17 0.275433 2.28352e-17 3.50826e-16)
(0 -2.28139e-30 0 13.3507 1.32406e-13 -3.45689e-15 0.288395 -4.65434e-15 1.00188e-16)
(0 2.28139e-30 0 13.3507 2.61734e-15 -1.31613e-16 0.288395 3.9552e-17 3.82533e-16)
(3.52023e-17 -2.59562e-30 -4.97087e-32 13.3435 6.70047e-15 4.97588e-15 0.30196 -8.45883e-16 2.71813e-16)
(-7.66211e-17 8.71081e-30 -1.36106e-31 13.3435 2.57955e-15 -1.56648e-16 0.30196 5.68399e-17 4.16152e-16)
(0 -5.87014e-29 -7.79521e-31 13.3359 -1.31035e-14 1.61378e-14 0.316154 -1.51755e-16 4.80626e-16)
(-2.41606e-16 -1.24814e-29 7.79521e-31 13.3359 2.51121e-15 -1.84957e-16 0.316154 5.80892e-17 4.51686e-16)
(-8.02781e-17 7.84378e-30 -5.27105e-31 13.328 -4.48951e-15 2.09918e-14 0.331006 -6.40853e-17 5.3949e-16)
(0 -1.98424e-30 2.4803e-31 13.328 2.35807e-15 -2.08352e-16 0.331006 5.6308e-17 4.89051e-16)
(-1.0109e-16 -2.90284e-33 1.96548e-31 13.3196 -2.6297e-15 2.24256e-14 0.346544 -6.97442e-17 6.02115e-16)
(0 7.57621e-30 -4.73513e-31 13.3196 2.254e-15 -2.1676e-16 0.346544 5.83356e-17 5.28374e-16)
(-1.2288e-16 1.09282e-29 -7.2888e-31 13.3108 -3.14208e-15 2.38469e-14 0.362799 -9.82736e-17 6.69595e-16)
(9.83043e-16 -5.33589e-30 4.51991e-31 13.3108 2.1138e-15 -2.29877e-16 0.362799 5.4153e-17 5.69681e-16)
(4.85767e-16 -1.03547e-29 6.47172e-31 13.3015 -3.85629e-15 2.52822e-14 0.3798 -1.17345e-16 7.42818e-16)
(0 8.62896e-30 -4.31448e-31 13.3015 1.72232e-15 -2.60489e-16 0.3798 4.16591e-17 6.12918e-16)
(0 -6.5894e-30 4.11838e-31 13.2916 -4.01185e-15 2.67499e-14 0.397579 -1.17165e-16 8.22715e-16)
(-6.78328e-16 8.16471e-30 -4.11838e-31 13.2916 1.4638e-15 -2.93666e-16 0.397579 4.39616e-17 6.57884e-16)
(-1.9459e-16 9.75572e-30 -1.07544e-30 13.281 -3.89235e-15 2.82634e-14 0.416164 -1.21293e-16 9.10134e-16)
(5.57055e-16 -4.63852e-30 5.89679e-31 13.281 1.52244e-15 -3.05889e-16 0.416164 4.93973e-17 7.04456e-16)
(0 6.00402e-30 -1.12575e-30 13.2694 -3.44115e-15 2.8704e-14 0.435584 -9.89534e-17 9.31869e-16)
(8.8309e-16 -2.89934e-30 7.50503e-31 13.2694 1.21225e-15 -3.25332e-16 0.435584 2.7874e-17 7.52745e-16)
(-2.48183e-16 1.04994e-29 -9.43023e-31 13.2567 -2.7053e-15 1.99403e-14 0.455863 -8.24858e-17 3.95845e-16)
(0 -2.86556e-30 3.58196e-31 13.2567 4.60067e-16 -3.51628e-16 0.455863 7.73022e-18 8.02002e-16)
(0 8.20596e-30 -3.41915e-31 13.2423 -2.50293e-15 1.14964e-14 0.477018 -9.4013e-17 4.14038e-16)
(0 -5.47064e-30 0 13.2423 2.52567e-16 -3.7266e-16 0.477018 1.01082e-17 8.52292e-16)
(-7.3493e-16 7.83299e-30 -6.52749e-31 13.2258 -2.2891e-15 1.14702e-14 0.499058 -7.43793e-17 4.32455e-16)
(0 -2.611e-30 0 13.2258 3.30202e-16 -4.01515e-16 0.499058 1.43468e-17 9.0336e-16)
(0 7.47696e-30 -6.2308e-31 13.2062 -1.66968e-15 1.14517e-14 0.521976 -5.41745e-17 4.52944e-16)
(0 -4.45717e-30 0 13.2062 0 -4.18996e-16 0.521976 0 9.5437e-16)
(-7.42579e-16 1.33479e-29 -1.44058e-30 13.1824 -1.10842e-15 1.14122e-14 0.545744 -3.51129e-17 4.71349e-16)
(-1.48516e-15 -1.95764e-29 5.9476e-31 13.1824 -1.3774e-16 -4.85337e-16 0.545744 2.78765e-18 1.00487e-15)
(-2.33455e-16 5.84229e-31 -8.46958e-31 13.1528 -1.25154e-16 1.13133e-14 0.570302 -2.65354e-18 4.88514e-16)
(-3.8852e-15 -2.5284e-30 5.67728e-31 13.1528 -1.15822e-15 -5.63648e-16 0.570302 4.56176e-17 1.05309e-15)
(-4.41819e-16 -2.8026e-45 -3.55521e-30 13.1154 9.60284e-31 1.11902e-14 0.595547 0 5.06113e-16)
(0 -1.30062e-29 3.25154e-30 13.1154 -1.68082e-15 -5.63929e-16 0.595547 5.27759e-17 1.09822e-15)
(4.79566e-16 -8.12301e-30 1.87228e-30 13.0673 6.6959e-16 1.10081e-14 0.621322 -2.89241e-17 5.18792e-16)
(-1.91827e-15 6.14937e-30 -1.55188e-30 13.0673 -2.61936e-15 -5.71497e-16 0.621322 1.72341e-16 1.14101e-15)
(5.55947e-16 -5.92537e-30 1.48134e-30 13.005 6.44975e-16 1.07025e-14 0.647394 -3.35061e-17 5.2495e-16)
(2.07624e-15 7.90049e-30 -1.48134e-30 13.005 -2.44805e-15 -5.19124e-16 0.647394 2.60973e-16 1.17922e-15)
(-5.60368e-16 1.91411e-30 -3.56904e-31 12.9242 7.60198e-16 1.03833e-14 0.673446 -2.92868e-17 5.35991e-16)
(6.72441e-15 0 0 12.9242 -1.9259e-15 -4.47362e-16 0.673446 2.6114e-16 1.21418e-15)
(1.01312e-15 -7.19863e-30 1.79966e-30 12.8196 1.5533e-15 9.88975e-15 0.699061 -4.88235e-17 5.22051e-16)
(0 8.99829e-30 -2.24957e-30 12.8196 -2.83757e-15 -6.14851e-16 0.699061 2.4689e-16 1.24197e-15)
(0 0 4.29465e-31 12.6856 3.02372e-15 9.15085e-15 0.72372 -1.19038e-16 5.03437e-16)
(0 0 -4.29465e-31 12.6856 -3.66631e-15 -7.94951e-16 0.72372 2.01114e-16 1.25454e-15)
(6.95641e-16 -3.51348e-30 4.27952e-31 12.5159 4.16446e-15 8.31254e-15 0.746814 -2.2236e-16 4.72146e-16)
(0 1.63978e-30 0 12.5159 -4.09687e-15 -8.05513e-16 0.746814 1.69284e-16 1.25342e-15)
(0 -6.261e-30 1.56525e-30 12.3046 4.86396e-15 7.16282e-15 0.76767 -2.67815e-16 4.0769e-16)
(0 7.82625e-30 -1.56525e-30 12.3046 -5.04878e-15 -7.29544e-16 0.76767 1.35654e-16 1.23976e-15)
(-7.95346e-16 7.82174e-30 -1.9762e-30 12.0468 6.01894e-15 5.93785e-15 0.785603 -3.32157e-16 3.56519e-16)
(3.18138e-15 -2.98822e-30 0 12.0468 -5.51063e-15 -5.85194e-16 0.785603 9.03316e-17 1.21329e-15)
(-2.45362e-15 -6.73563e-30 3.05764e-30 11.7392 6.02893e-15 4.78551e-15 0.79998 -4.4635e-16 2.88122e-16)
(6.7829e-15 8.55719e-30 -4.27859e-30 11.7392 -6.02966e-15 -4.66136e-16 0.79998 5.45637e-17 1.1751e-15)
(-6.30831e-16 -1.82368e-30 -1.48411e-31 11.3808 7.07867e-15 3.52422e-15 0.810296 -3.65923e-16 2.08598e-16)
(0 0 6.80688e-31 11.3808 -6.82678e-15 -5.16418e-16 0.810296 -2.6861e-17 1.12546e-15)
(1.46311e-15 -1.0396e-29 3.8985e-30 10.9739 8.5098e-15 2.23778e-15 0.816233 -6.4191e-16 1.21017e-16)
(6.19564e-15 1.0396e-29 -3.8985e-30 10.9739 -6.8831e-15 -5.04996e-16 0.816233 -1.44381e-16 1.05285e-15)
(1.01378e-15 -4.22513e-30 4.34654e-30 10.5235 8.45723e-15 6.49151e-16 0.817705 -6.18752e-16 2.51972e-17)
(4.0551e-15 2.48087e-30 6.20217e-31 10.5235 -7.19983e-15 -5.02804e-16 0.817705 -2.63124e-16 9.69857e-16)
(0 -4.73622e-30 9.28147e-60 10.0374 8.15524e-15 1.17123e-30 0.814862 -6.96138e-16 7.88861e-31)
(0 4.73622e-30 -1.77608e-30 10.0374 -7.27667e-15 -6.44883e-16 0.814862 -4.14127e-16 8.73882e-16)
(-2.40093e-15 -2.8171e-30 2.25626e-30 9.52512 7.83473e-15 -1.72838e-15 0.808065 -6.2879e-16 1.17037e-16)
(4.51358e-15 6.78143e-30 -3.39071e-30 9.52512 -6.7853e-15 -4.64066e-16 0.808065 -5.5735e-16 7.62709e-16)
(-2.37178e-15 5.5029e-30 -1.11615e-30 8.99721 8.72061e-15 -2.46446e-15 0.797827 -7.08096e-16 1.78918e-16)
(4.74355e-15 -2.15773e-30 0 8.99721 -7.09388e-15 -3.19992e-16 0.797827 -6.91543e-16 6.55749e-16)
(-1.15949e-15 4.11932e-30 -1.02983e-30 8.46397 9.91567e-15 -3.30123e-15 0.784752 -8.52003e-16 2.62977e-16)
(-1.15949e-15 0 -5.14915e-31 8.46397 -6.90765e-15 -5.9694e-16 0.784752 -8.95489e-16 5.44437e-16)
(-3.12751e-15 1.02298e-29 -3.41506e-30 7.9348 1.0238e-14 -3.71044e-15 0.769472 -1.00595e-15 3.56576e-16)
(7.41212e-15 -9.83023e-30 3.44058e-30 7.9348 -5.99981e-15 -5.23871e-16 0.769472 -1.08093e-15 4.18023e-16)
(1.35537e-15 -7.15984e-30 2.38186e-30 7.41763 9.95422e-15 -3.66124e-15 0.752589 -9.99734e-16 3.70698e-16)
(5.42149e-15 5.63006e-30 4.18126e-32 7.41763 -5.76124e-15 8.13513e-31 0.752589 -1.21786e-15 3.01292e-16)
(3.42701e-15 -5.07132e-30 1.83718e-30 6.91865 1.01002e-14 -4.10759e-15 0.734649 -1.04439e-15 3.81005e-16)
(5.64033e-15 3.58278e-30 -1.79139e-30 6.91865 -5.81955e-15 -3.02991e-16 0.734649 -1.3613e-15 1.95129e-16)
(1.46363e-15 3.68733e-30 -8.22076e-31 6.44233 9.64929e-15 -4.72878e-15 0.716116 -1.12935e-15 5.05099e-16)
(0 -3.41993e-30 4.27492e-31 6.44233 -6.00413e-15 -5.43564e-16 0.716116 -1.52316e-15 8.07023e-17)
(1.83775e-15 -1.63225e-30 2.04031e-30 5.99157 9.46963e-15 -4.75275e-15 0.697371 -1.04222e-15 5.61414e-16)
(0 1.63225e-30 -7.32951e-31 5.99157 -5.80494e-15 -7.3738e-17 0.697371 -1.6995e-15 -4.35027e-18)
(-3.13381e-15 5.82866e-30 -2.38725e-30 5.56793 9.04559e-15 -4.22276e-15 0.678711 -1.19605e-15 5.60136e-16)
(0 0 1.16854e-30 5.56793 -5.16837e-15 -3.23594e-16 0.678711 -1.8941e-15 -7.73467e-17)
(1.61654e-15 -1.34952e-30 3.82011e-32 5.17194 7.11685e-15 -3.97577e-15 0.660362 -1.03651e-15 4.82007e-16)
(-8.14066e-15 0 3.83637e-32 5.17194 -4.26511e-15 -8.79448e-16 0.660362 -2.0734e-15 -1.52165e-16)
(1.66485e-15 -1.37289e-30 1.44436e-30 4.80332 6.00673e-15 -4.51102e-15 0.642486 -8.01237e-16 5.49257e-16)
(8.25776e-15 0 -1.24462e-30 4.80332 -4.29997e-15 -1.06199e-16 0.642486 -2.1191e-15 -7.20362e-18)
(1.71183e-15 -1.35599e-30 3.32927e-31 4.46123 6.05268e-15 -5.13733e-15 0.625196 -8.29194e-16 6.77685e-16)
(-6.84731e-15 0 1.48038e-31 4.46123 -5.45317e-15 -4.0606e-16 0.625196 -2.31037e-15 -1.10622e-16)
(0 5.17411e-30 -9.70145e-31 4.14449 6.7708e-15 -5.22736e-15 0.608561 -8.92728e-16 7.85074e-16)
(0 0 3.23382e-31 4.14449 -4.63223e-15 -5.79581e-16 0.608561 -2.53668e-15 -6.08072e-17)
(-1.80196e-15 3.73003e-30 -1.48521e-30 3.85165 7.09854e-15 -5.00389e-15 0.592623 -1.12897e-15 7.71205e-16)
(0 0 6.17367e-31 3.85165 -3.66661e-15 -5.09932e-16 0.592623 -2.66943e-15 -9.91624e-17)
(0 -2.35723e-30 8.8396e-31 3.58118 5.79781e-15 -4.91606e-15 0.577398 -1.08444e-15 7.90245e-16)
(0 2.35723e-30 5.25487e-46 3.58118 -3.83008e-15 8.81306e-31 0.577398 -2.97203e-15 -1.22674e-46)
(-3.77454e-15 9.19384e-30 -2.32225e-30 3.3315 4.93249e-15 -4.29784e-15 0.562884 -8.0383e-16 8.1701e-16)
(7.54908e-15 -6.75026e-30 1.75405e-30 3.3315 -5.166e-15 2.89832e-18 0.562884 -3.20501e-15 -1.20464e-16)
(2.41823e-15 2.14782e-30 -5.36954e-31 3.10104 4.4172e-15 -4.99526e-15 0.549067 -8.86858e-16 6.5059e-16)
(-7.71298e-15 0 4.24092e-31 3.10104 -4.20587e-15 -1.06508e-15 0.549067 -3.52185e-15 -2.64913e-16)
(1.62802e-15 1.74115e-30 -7.49394e-31 2.88831 4.85279e-15 -5.91452e-15 0.535925 -6.9298e-16 1.15277e-15)
(1.0181e-14 -4.10039e-30 0 2.88831 -1.31209e-15 -2.16536e-30 0.535925 -3.54448e-15 -4.07756e-47)
(-2.2034e-15 0 7.33879e-31 2.69187 6.09986e-15 -4.93531e-15 0.52343 -1.1409e-15 1.06766e-15)
(5.82496e-15 1.95701e-30 -9.26047e-31 2.69187 -1.77447e-15 2.08676e-16 0.52343 -3.65169e-15 -1.87604e-16)
(0 5.60419e-30 -1.40105e-30 2.51038 5.71555e-15 -4.72552e-15 0.51155 -1.26314e-15 8.70524e-16)
(0 -5.60419e-30 0 2.51038 -3.28183e-15 6.86302e-31 0.51155 -3.82686e-15 4.93038e-32)
(0 5.34947e-30 -1.28164e-30 2.34259 4.35422e-15 -3.31196e-15 0.50025 -1.08987e-15 9.05418e-16)
(0 -5.34947e-30 1.28164e-30 2.34259 -2.46813e-15 1.10755e-15 0.50025 -4.05852e-15 -2.63188e-16)
(0 1.70211e-30 -2.12764e-31 2.18736 4.45531e-15 -1.31289e-15 0.489495 -7.84161e-16 3.30164e-16)
(6.55691e-15 0 1.06382e-31 2.18736 -2.12995e-15 -9.77538e-17 0.489495 -4.26782e-15 -1.94755e-16)
(2.47813e-15 1.42546e-30 -3.74917e-31 2.04363 5.07813e-15 -1.01681e-15 0.479251 -1.24298e-15 2.62475e-16)
(1.8293e-15 -3.24949e-30 1.18783e-30 2.04363 -3.02125e-15 -5.50951e-16 0.479251 -4.33873e-15 -6.53083e-17)
(-5.68064e-15 -6.77173e-31 8.62098e-31 1.91043 3.91507e-15 -2.13309e-16 0.469483 -1.16295e-15 2.18625e-16)
(1.75066e-14 1.5509e-30 1.75162e-46 1.91043 -1.69993e-15 -1.63149e-31 0.469483 -4.46556e-15 -4.93038e-32)
(2.2222e-15 -2.37479e-30 7.66787e-31 1.78688 3.06693e-15 1.47973e-30 0.460156 -7.72687e-16 0)
(8.88879e-15 1.48041e-30 -5.75046e-31 1.78688 -1.51152e-15 1.04339e-16 0.460156 -4.55402e-15 -3.74373e-17)
(-2.25536e-15 -3.38466e-30 1.09186e-30 1.67218 2.66096e-15 3.15394e-16 0.451239 -8.24481e-16 2.25754e-16)
(3.18206e-15 4.23936e-30 -1.23648e-30 1.67218 -7.70069e-16 -2.89021e-16 0.451239 -4.91192e-15 -1.78461e-16)
(0 -1.34889e-30 1.09547e-30 1.5656 1.73349e-15 5.06813e-16 0.4427 -6.21435e-16 7.23621e-17)
(1.83029e-14 1.34889e-30 -1.05382e-30 1.5656 7.5116e-16 -1.32696e-15 0.4427 -5.02424e-15 -2.68709e-16)
(2.31972e-15 -2.17135e-30 3.28429e-46 1.46647 1.25029e-15 -2.30025e-45 0.43451 -3.62566e-16 0)
(9.27886e-15 0 -4.82844e-31 1.46647 9.32939e-17 -2.24733e-15 0.43451 -4.94741e-15 -5.9762e-16)
(0 -2.45812e-30 3.45673e-31 1.37418 1.08535e-15 -9.92939e-16 0.426639 -3.86037e-16 5.91634e-16)
(9.40383e-15 2.45812e-30 -6.59652e-31 1.37418 -7.24005e-16 -1.9728e-15 0.426639 -5.09283e-15 -4.70186e-16)
(0 0 -6.23261e-31 1.28818 1.10498e-15 4.24984e-16 0.419061 -2.92073e-16 3.03919e-16)
(-1.21683e-14 0 4.35356e-31 1.28818 -3.1003e-17 -1.72006e-15 0.419061 -5.24664e-15 -6.63783e-16)
(2.41171e-15 -9.18615e-31 1.95693e-31 1.20798 2.34404e-15 2.15779e-31 0.411749 -4.36875e-16 9.86076e-32)
(9.64682e-15 0 -7.00649e-46 1.20798 6.17591e-16 -6.40949e-31 0.411749 -5.22641e-15 -9.86076e-32)
(2.44126e-15 -7.87218e-31 -5.77085e-31 1.13311 3.60003e-15 -5.4097e-16 0.40468 -1.1932e-15 3.61617e-16)
(0 2.13795e-30 3.34054e-31 1.13311 2.24562e-16 2.99463e-15 0.40468 -5.10312e-15 -5.76319e-16)
(-1.72581e-16 -1.33703e-30 1.18491e-30 1.06316 3.02525e-15 3.48049e-17 0.397829 -1.40616e-15 4.81731e-17)
(1.97623e-14 6.68701e-31 -1.411e-30 1.06316 1.12084e-15 3.24193e-15 0.397829 -3.96262e-15 -3.84911e-16)
(-2.49882e-15 7.35559e-31 1.81412e-31 0.997759 2.81262e-15 2.69589e-31 0.391173 -8.65259e-16 0)
(-1.21885e-14 7.90956e-31 -6.69631e-31 0.997759 1.05242e-15 2.27287e-15 0.391173 -3.89234e-15 -1.10737e-16)
(0 -1.85948e-30 1.74326e-31 0.936548 3.08258e-15 2.44341e-16 0.384691 -1.37108e-15 2.96727e-16)
(0 0 -2.32435e-31 0.936548 -1.06679e-16 2.45531e-15 0.384691 -2.54063e-15 1.58822e-16)
(-5.10886e-15 -5.63573e-31 1.10935e-31 0.879217 1.18134e-15 1.55182e-15 0.37836 -1.17863e-15 9.08177e-16)
(0 1.77496e-30 0 0.879217 -1.48627e-15 1.76755e-15 0.37836 -1.2512e-15 4.71925e-16)
(-2.58155e-15 7.00649e-45 -4.62507e-31 0.825474 6.29783e-30 1.81207e-15 0.372162 -7.88861e-31 5.67962e-16)
(-1.03262e-14 2.55548e-30 4.23572e-31 0.825474 -2.02538e-15 7.98738e-16 0.372162 -6.2352e-16 9.65374e-16)
(0 -1.61728e-30 1.90401e-32 0.775055 1.38033e-15 -1.5402e-30 0.366074 -9.01711e-16 1.97215e-31)
(0 -6.5248e-45 0 0.775055 5.86277e-30 1.09149e-15 0.366074 -7.88861e-31 1.03177e-15)
(-5.2689e-15 -4.75625e-31 -2.88982e-31 0.727716 1.58853e-16 1.12604e-15 0.360076 -1.26052e-15 1.42115e-15)
(0 1.54377e-30 1.92971e-31 0.727716 1.3542e-16 2.38668e-15 0.360076 -4.53769e-16 1.00296e-15)
(5.97852e-15 -3.44004e-30 3.68401e-31 0.683233 -2.36152e-15 2.9377e-15 0.354148 -1.80614e-15 1.30844e-15)
(-3.31826e-15 0 -3.68401e-31 0.683233 -1.70486e-15 3.1031e-15 0.354148 -1.47193e-15 1.17934e-15)
(-2.20385e-15 -1.18056e-30 6.62883e-31 0.641398 -1.69174e-15 2.55861e-15 0.348269 -5.74355e-16 1.1346e-15)
(1.07426e-14 -3.2475e-30 2.89511e-31 0.641398 -2.08342e-15 2.58416e-15 0.348269 -7.94388e-16 9.4933e-16)
(2.71062e-15 -6.23037e-31 1.72971e-31 0.602023 -1.98597e-15 1.5474e-15 0.342417 -2.32791e-15 6.29293e-16)
(2.1685e-14 0 2.4535e-32 0.602023 -3.1885e-46 -7.74843e-16 0.342417 -7.88861e-31 1.20289e-15)
(5.77211e-15 -1.10056e-30 1.9516e-31 0.564928 -3.40196e-30 -5.91646e-31 0.33657 0 0)
(1.09408e-14 -2.7035e-30 0 0.564928 1.41011e-15 -3.29356e-15 0.33657 -1.89637e-15 1.04575e-15)
(-2.75936e-15 6.20784e-31 -6.11706e-31 0.529951 5.76837e-16 -2.10845e-15 0.330705 -2.33477e-15 5.195e-16)
(0 2.44682e-30 0 0.529951 1.34287e-15 1.42916e-15 0.330705 -7.58935e-16 -2.41166e-16)
(2.62967e-15 0 0 0.496939 3.02995e-30 -3.96856e-16 0.324794 2.77387e-46 -6.54053e-17)
(2.22651e-14 -1.32928e-30 -1.71347e-32 0.496939 1.75528e-15 -3.9443e-31 0.324794 -2.9591e-15 -1.23469e-16)
(-2.8065e-15 6.34409e-31 6.79615e-32 0.465749 2.41045e-15 4.33067e-16 0.318811 -2.19226e-15 -5.84612e-17)
(1.1226e-14 -2.24447e-30 -5.57364e-31 0.465749 6.97169e-16 8.2561e-16 0.318811 -2.15683e-15 -2.57467e-16)
(-2.82947e-15 7.66067e-31 0 0.436247 1.62976e-15 6.61519e-16 0.312725 -1.11433e-15 -5.35166e-16)
(-1.611e-14 3.74653e-30 -2.04355e-30 0.436247 3.54943e-16 1.97215e-31 0.312725 -5.72877e-16 0)
(0 1.0157e-30 -5.07849e-31 0.408306 1.8446e-15 1.72599e-15 0.306502 -1.24866e-15 -2.29069e-16)
(1.14081e-14 -3.34101e-30 0 0.408306 1.5517e-15 -1.07491e-16 0.306502 -1.01817e-15 -5.73629e-16)
(0 0 1.37409e-30 0.381808 1.47833e-15 1.59512e-17 0.300103 -1.55663e-15 6.33725e-18)
(0 9.69533e-31 -9.69533e-31 0.381808 1.94556e-15 1.771e-15 0.300103 -1.3432e-15 -1.43596e-15)
(-2.89593e-15 8.83845e-31 0 0.356637 9.03362e-16 8.16649e-16 0.293484 -7.74484e-16 -5.7237e-17)
(-1.57516e-14 2.14397e-30 -1.42547e-30 0.356637 5.46195e-16 1.97215e-31 0.293484 -1.75826e-15 -1.22203e-16)
(0 8.83403e-31 -8.83403e-31 0.332685 1.47137e-15 1.43394e-15 0.286593 -7.28387e-16 9.02065e-17)
(-1.1669e-14 1.88996e-30 8.83403e-31 0.332685 -6.39174e-16 2.53061e-17 0.286593 -1.37948e-15 5.41854e-17)
(1.05335e-14 -4.11427e-31 -1.57646e-45 0.309844 8.72792e-16 -3.6471e-31 0.27937 -2.63204e-15 1.75387e-46)
(-1.93479e-14 3.70485e-30 1.6865e-30 0.309844 1.48225e-29 4.94634e-16 0.27937 0 -1.97404e-16)
(6.58363e-15 -6.35037e-31 1.60985e-30 0.288009 -2.88457e-17 -8.21802e-16 0.271745 -8.1562e-16 -4.62832e-16)
(1.18343e-14 -3.35124e-30 9.35785e-31 0.288009 1.58485e-15 -7.89302e-17 0.271745 -1.49609e-15 -9.54246e-16)
(5.95713e-15 -2.08107e-30 1.53668e-30 0.267076 5.56632e-16 1.13565e-15 0.263633 -2.79053e-16 3.62722e-16)
(0 0 0 0.267076 6.42961e-16 6.20971e-16 0.263633 -1.53853e-15 -1.11013e-15)
(9.60409e-15 3.7526e-31 4.80789e-31 0.246939 -1.30436e-29 -2.55065e-16 0.254929 -2.70403e-15 1.33959e-16)
(-6.60603e-15 0 0 0.246939 -2.42264e-29 6.10438e-31 0.254929 -7.88861e-31 2.46519e-32)
(0 -1.40016e-30 0 0.227488 -1.66527e-15 1.52015e-16 0.245508 -9.19406e-16 -5.53166e-16)
(0 0 7.00082e-31 0.227488 3.14893e-16 -1.04241e-15 0.245508 -2.48836e-15 5.97539e-17)
(0 1.14906e-43 1.42795e-31 0.208604 -2.58673e-29 0 0.235211 0 -2.15857e-16)
(0 0 0 0.208604 -1.2687e-15 7.36096e-16 0.235211 -2.1979e-15 7.12633e-18)
(2.87279e-15 0 0 0.190163 -5.42809e-16 -8.94043e-16 0.22384 -4.04191e-15 1.40421e-16)
(-2.87279e-15 -1.27578e-30 0 0.190163 -2.25694e-15 2.6633e-15 0.22384 -3.77162e-15 -1.7625e-17)
(0 0 1.21779e-30 0.172019 -1.42653e-15 -5.63827e-16 0.211141 -2.81694e-15 9.94668e-16)
(0 4.51899e-31 -4.23171e-46 0.172019 1.67633e-30 -2.85025e-31 0.211141 0 0)
(6.17472e-15 -7.2228e-31 0 0.15401 5.45478e-16 -1.59273e-15 0.196788 -5.38754e-16 -8.13457e-16)
(1.23494e-14 -2.29179e-30 0 0.15401 2.60008e-15 -3.17224e-15 0.196788 -2.61709e-15 3.99561e-16)
(0 1.06213e-30 0 0.135944 1.31938e-15 4.35604e-16 0.180359 -9.16016e-16 3.35206e-16)
(0 5.98811e-31 0 0.135944 0 -1.76944e-15 0.180359 -4.31489e-15 -3.82448e-17)
(-3.11845e-15 4.3941e-31 0 0.117592 2.61285e-16 -1.41748e-31 0.161311 -3.12929e-15 -9.86076e-32)
(1.24738e-14 -1.52581e-30 -5.29586e-31 0.117592 -4.42531e-16 -1.24017e-15 0.161311 -3.27856e-15 6.55977e-16)
(-3.13275e-15 4.91031e-31 5.05515e-31 0.0986894 -1.59509e-15 -1.77132e-15 0.138961 -2.83053e-15 -2.54124e-16)
(0 -1.01103e-30 0 0.0986894 -1.70521e-15 -2.06926e-16 0.138961 -1.88631e-15 5.74984e-17)
(4.34633e-15 -1.9776e-32 0 0.0789429 -1.19083e-16 3.15111e-15 0.112488 -9.50579e-17 6.0123e-17)
(2.51685e-14 1.44334e-43 -7.70714e-45 0.0789429 3.22714e-29 -1.73547e-30 0.112488 0 0)
(-3.15824e-15 7.14422e-31 -3.36312e-44 0.0580617 2.08101e-16 -7.54331e-30 0.0809985 -2.3901e-15 1.90312e-45)
(1.2633e-14 -2.14529e-30 -1.84243e-30 0.0580617 1.60232e-15 1.96701e-15 0.0809985 -2.65918e-15 -8.77437e-16)
(-7.92042e-15 1.74345e-30 -1.75869e-30 0.0358264 1.01123e-15 -2.52197e-16 0.0436805 -8.85915e-16 6.14126e-16)
(0 -8.79343e-31 0 0.0358264 9.11405e-16 3.29724e-15 0.0436805 -3.37572e-15 5.37552e-16)
(-3.77837e-15 0 0 1.16806e-11 1.90538e-15 8.5722e-16 1.07185e-11 -4.14375e-15 1.29025e-16)
(0 0 0 1.16902e-11 9.6199e-16 1.62424e-15 1.07292e-11 -1.2702e-15 7.70785e-17)
(0 -1.28079e-33 -7.1724e-32 13.3705 5.37123e-16 3.81047e-15 -0.0613706 5.89458e-15 1.81039e-17)
(0 1.28079e-33 -2.95601e-28 13.3705 1.87801e-16 3.87024e-14 -0.0613706 8.76678e-18 -8.41214e-17)
(0 -1.22257e-33 1.56489e-31 13.3642 1.47282e-15 1.54999e-14 -0.186976 1.4286e-14 -6.90563e-16)
(0 0 9.08718e-28 13.3642 3.98092e-16 1.25895e-14 -0.186976 -1.31097e-17 -1.21047e-16)
(1.19534e-17 0 1.49377e-31 13.3576 1.35368e-15 -4.89123e-15 -0.275433 1.49185e-14 -8.51342e-16)
(0 0 -1.49377e-31 13.3576 5.05592e-16 6.20805e-15 -0.275433 -2.28352e-17 -1.29272e-16)
(0 0 0 13.3507 1.60422e-15 -1.75533e-14 -0.288395 1.37466e-14 -7.32791e-16)
(-8.02694e-17 0 -7.12936e-32 13.3507 6.03874e-16 6.31805e-15 -0.288395 -3.9552e-17 -1.37603e-16)
(4.14188e-17 -8.50665e-33 6.80532e-32 13.3435 1.66107e-15 -1.27858e-14 -0.30196 1.35265e-14 -6.30002e-16)
(-1.65675e-16 0 -2.86097e-31 13.3435 5.7946e-16 6.4081e-15 -0.30196 -5.68399e-17 -1.45953e-16)
(0 -2.436e-32 3.8976e-31 13.3359 1.68479e-15 -2.16228e-15 -0.316154 1.36624e-14 -6.49293e-16)
(-2.41606e-16 2.436e-32 -5.5488e-31 13.3359 6.0592e-16 6.47586e-15 -0.316154 -7.44826e-17 -1.54233e-16)
(0 0 0 13.328 1.60469e-15 -1.02808e-15 -0.331006 1.36906e-14 -7.63189e-16)
(-1.39629e-16 0 -6.20075e-32 13.328 7.24432e-16 6.52542e-15 -0.331006 -9.29594e-17 -1.62645e-16)
(0 -1.47973e-32 2.36757e-31 13.3196 1.45982e-15 -9.65934e-16 -0.346544 1.36969e-14 -8.9185e-16)
(-4.0436e-16 0 -3.76005e-31 13.3196 9.25026e-16 6.55676e-15 -0.346544 -1.11892e-16 -1.70902e-16)
(2.45761e-16 -7.06237e-32 5.64989e-31 13.3108 1.27498e-15 -9.04763e-16 -0.362799 1.37055e-14 -1.03632e-15)
(-2.54449e-16 5.64989e-32 -7.34486e-31 13.3108 1.16898e-15 6.57571e-15 -0.362799 -1.33426e-16 -1.79537e-16)
(3.88579e-16 -4.04482e-32 4.31448e-31 13.3015 1.15542e-15 -8.45454e-16 -0.3798 1.3722e-14 -1.19773e-15)
(-8.25664e-16 4.04482e-32 -7.75273e-31 13.3015 1.17454e-15 6.5806e-15 -0.3798 -1.5562e-16 -1.87844e-16)
(0 2.57399e-32 -2.05919e-31 13.2916 1.12098e-15 -7.79765e-16 -0.397579 1.37433e-14 -1.37763e-15)
(-6.78328e-16 -2.57399e-32 5.2205e-32 13.2916 9.9516e-16 6.55489e-15 -0.397579 -1.73742e-16 -1.95503e-16)
(0 -2.45699e-32 6.87958e-31 13.281 1.32093e-15 -7.00136e-16 -0.416164 1.37642e-14 -1.57772e-15)
(-7.78361e-16 7.37098e-32 -1.16306e-30 13.281 1.02586e-15 6.4994e-15 -0.416164 -1.91547e-16 -2.0268e-16)
(-2.20772e-16 0 5.62877e-31 13.2694 1.63684e-15 -5.82739e-16 -0.435584 1.37826e-14 -1.80013e-15)
(8.8309e-16 0 -7.309e-32 13.2694 1.01695e-15 6.40586e-15 -0.435584 -2.12837e-16 -2.0842e-16)
(1.55109e-16 -4.47744e-32 8.95489e-31 13.2567 1.50378e-15 -4.26449e-16 -0.455863 1.3793e-14 -2.0289e-15)
(-1.39602e-15 4.47744e-32 -1.22222e-30 13.2567 7.7833e-16 6.27481e-15 -0.455863 -2.27138e-16 -2.13423e-16)
(0 -8.54787e-32 7.69309e-31 13.2423 1.06032e-15 -2.88735e-16 -0.477018 1.38028e-14 -2.12493e-15)
(-1.10752e-15 8.54787e-32 -1.12125e-30 13.2423 9.13456e-16 6.12986e-15 -0.477018 -2.34778e-16 -2.18291e-16)
(6.1384e-16 0 0 13.2258 7.73169e-16 -1.6696e-16 -0.499058 1.38185e-14 -2.22631e-15)
(0 0 0 13.2258 1.40636e-15 5.93707e-15 -0.499058 -2.47788e-16 -2.19673e-16)
(-3.38368e-16 0 1.42889e-31 13.2062 5.27441e-16 -3.08149e-33 -0.521976 1.38307e-14 -2.3335e-15)
(1.35347e-15 6.87816e-34 7.19889e-31 13.2062 1.55549e-15 5.67389e-15 -0.521976 -2.65705e-16 -2.18753e-16)
(5.96703e-16 3.71725e-32 1.19588e-30 13.1824 4.62423e-16 1.13207e-16 -0.545744 1.38405e-14 -2.44731e-15)
(-2.1548e-15 -4.19687e-32 -1.18161e-30 13.1824 1.12868e-15 5.36577e-15 -0.545744 -2.05098e-16 -2.15553e-16)
(4.0575e-16 3.5483e-32 0 13.1528 5.09559e-16 3.2859e-16 -0.570302 1.38436e-14 -2.56736e-15)
(0 0 2.83864e-31 13.1528 1.15604e-15 4.96996e-15 -0.570302 -1.26506e-16 -2.05714e-16)
(4.41819e-16 1.20021e-30 8.12885e-31 13.1154 5.66015e-17 5.15562e-16 -0.595547 1.38391e-14 -2.6943e-15)
(0 0 -1.08385e-30 13.1154 1.66667e-15 4.52447e-15 -0.595547 -8.26368e-17 -1.96047e-16)
(1.06199e-15 0 -3.87969e-31 13.0673 -8.41121e-17 6.5459e-16 -0.621322 1.38316e-14 -2.82751e-15)
(-1.91827e-15 -1.07729e-31 -1.54786e-32 13.0673 1.77943e-15 4.05729e-15 -0.621322 -8.29962e-17 -1.81251e-16)
(5.19061e-16 0 0 13.005 -2.45381e-16 7.90166e-16 -0.647394 1.38256e-14 -2.9658e-15)
(0 -6.17226e-32 -2.4689e-31 13.005 1.77933e-15 3.52402e-15 -0.647394 -9.0684e-17 -1.61924e-16)
(1.12074e-15 0 -4.71337e-31 12.9242 1.73312e-16 9.52143e-16 -0.673446 1.38219e-14 -3.10776e-15)
(0 0 4.71337e-31 12.9242 1.38756e-15 2.91107e-15 -0.673446 -5.01152e-17 -1.34818e-16)
(0 0 -2.24957e-31 12.8196 6.39785e-16 1.22463e-15 -0.699061 1.38013e-14 -3.25542e-15)
(1.01312e-15 1.67996e-30 4.49914e-31 12.8196 5.82228e-16 2.13658e-15 -0.699061 -1.5577e-17 -9.2856e-17)
(0 0 0 12.6856 -2.5841e-16 1.56782e-15 -0.72372 1.37628e-14 -3.40516e-15)
(-1.93414e-15 0 -4.29465e-31 12.6856 8.85868e-16 1.2145e-15 -0.72372 -8.53624e-17 -4.21243e-17)
(0 0 8.19891e-31 12.5159 -1.44085e-15 1.733e-15 -0.746814 1.37238e-14 -3.55587e-15)
(-9.23115e-16 -5.12432e-32 2.8026e-45 12.5159 1.86894e-15 4.93038e-32 -0.746814 -1.35307e-16 -5.90274e-30)
(7.44567e-16 0 -5.86969e-31 12.3046 -1.79231e-15 1.77175e-15 -0.76767 1.36828e-14 -3.69997e-15)
(0 0 1.32565e-29 12.3046 2.49097e-15 -2.14105e-16 -0.76767 -1.35654e-16 -6.58603e-18)
(0 1.40073e-31 3.73527e-31 12.0468 -2.58355e-15 1.756e-15 -0.785603 1.3629e-14 -3.83038e-15)
(2.34028e-15 -1.40073e-31 2.64296e-31 12.0468 2.98738e-15 -1.41292e-15 -0.785603 -9.03316e-17 -6.42921e-17)
(7.57893e-16 2.67412e-31 8.91374e-31 11.7392 -2.41683e-15 1.55803e-15 -0.79998 1.3572e-14 -3.9476e-15)
(-1.60576e-15 -2.67412e-31 -8.91374e-31 11.7392 2.58975e-15 -2.12754e-15 -0.79998 -5.45637e-17 -1.19111e-16)
(1.80388e-15 -2.55258e-31 -6.80688e-31 11.3808 -2.04377e-16 1.47787e-15 -0.810296 1.35069e-14 -4.04406e-15)
(3.60777e-15 5.6423e-30 1.21143e-30 11.3808 1.05381e-15 -2.92497e-15 -0.810296 2.6861e-17 -1.69359e-16)
(1.91469e-15 0 0 10.9739 1.37879e-16 1.59552e-15 -0.816233 1.33262e-14 -4.12413e-15)
(0 0 0 10.9739 5.07237e-16 -3.68824e-15 -0.816233 1.44381e-16 -2.46222e-16)
(0 2.32581e-31 7.75271e-31 10.5235 -1.2738e-15 1.52549e-15 -0.817705 1.31875e-14 -4.18566e-15)
(0 2.38642e-30 -9.30326e-31 10.5235 8.11801e-17 -4.10027e-15 -0.817705 2.63124e-16 -3.01686e-16)
(0 -1.48007e-31 0 10.0374 -1.24248e-15 1.39672e-15 -0.814862 1.30474e-14 -4.21982e-15)
(0 2.96014e-31 2.96014e-31 10.0374 3.6652e-17 -4.44057e-15 -0.814862 4.14127e-16 -3.35725e-16)
(1.1284e-15 -2.82559e-31 -2.82559e-31 9.52512 -1.09983e-15 1.28011e-15 -0.808065 1.29063e-14 -4.21952e-15)
(0 2.82559e-31 2.82559e-31 9.52512 2.68274e-16 -4.6587e-15 -0.808065 5.5735e-16 -3.87769e-16)
(-1.2147e-15 4.72004e-31 5.39433e-31 8.99721 -1.20676e-15 1.03485e-15 -0.797827 1.27603e-14 -4.20028e-15)
(1.2147e-15 2.8026e-45 -5.39433e-31 8.99721 -8.60175e-30 -4.5686e-15 -0.797827 6.91543e-16 -4.06511e-16)
(1.24306e-15 0 0 8.46397 2.74831e-17 7.89695e-16 -0.784752 1.257e-14 -4.15511e-15)
(0 -6.43644e-32 -2.57458e-31 8.46397 -1.43002e-15 -4.48021e-15 -0.784752 8.95489e-16 -4.09111e-16)
(-9.13935e-16 3.07195e-31 0 7.9348 9.32313e-16 7.63979e-16 -0.769472 1.22934e-14 -4.08221e-15)
(5.19854e-15 -3.68634e-31 -2.45756e-31 7.9348 -6.04938e-16 -4.44166e-15 -0.769472 1.08093e-15 -4.18023e-16)
(1.35537e-15 -1.75939e-31 -3.51879e-31 7.41763 2.46217e-16 8.52881e-16 -0.752589 1.2023e-14 -4.01083e-15)
(1.19557e-15 1.17293e-31 2.34586e-31 7.41763 3.0005e-16 -4.2233e-15 -0.752589 1.21786e-15 -3.01292e-16)
(2.82017e-15 5.59809e-32 0 6.91865 -8.17833e-16 6.24833e-16 -0.734649 1.17705e-14 -3.93808e-15)
(0 3.50325e-46 -2.23923e-31 6.91865 8.372e-46 -3.79703e-15 -0.734649 1.3613e-15 -1.95129e-16)
(2.92726e-15 0 0 6.44233 -1.08312e-15 1.38997e-16 -0.716116 1.15242e-14 -3.82262e-15)
(0 -5.34365e-32 0 6.44233 4.6868e-18 -3.37058e-15 -0.716116 1.52316e-15 -8.07023e-17)
(-3.21822e-16 2.04031e-31 -1.02015e-31 5.99157 -9.26733e-17 8.6761e-17 -0.697371 1.12883e-14 -3.67895e-15)
(6.06369e-15 9.43411e-31 0 5.99157 -1.59744e-29 -3.12928e-15 -0.697371 1.6995e-15 2.50946e-17)
(1.5669e-15 0 0 5.56793 -4.68802e-16 2.91612e-16 -0.678711 1.0969e-14 -3.54763e-15)
(0 0 0 5.56793 -8.87077e-16 -2.84721e-15 -0.678711 1.8941e-15 1.18737e-16)
(-3.23309e-15 0 0 5.17194 -2.8179e-15 -6.99743e-17 -0.660362 1.07608e-14 -3.43645e-15)
(-1.67449e-15 -4.64763e-32 0 5.17194 7.4207e-16 -2.40006e-15 -0.660362 2.0734e-15 2.21274e-16)
(4.8616e-15 -1.55274e-31 1.33092e-31 4.80332 -3.64698e-15 -7.73597e-16 -0.642486 1.06939e-14 -3.28473e-15)
(6.65939e-15 1.17634e-30 -1.33092e-31 4.80332 0 -1.72237e-15 -0.642486 2.1191e-15 3.31253e-16)
(0 2.46476e-31 -1.27042e-31 4.46123 -2.62178e-15 -1.26018e-15 -0.625196 1.06001e-14 -3.07668e-15)
(-9.89877e-15 -1.84939e-31 6.35212e-32 4.46123 -4.11683e-16 -1.091e-15 -0.625196 2.31037e-15 3.77303e-16)
(1.75752e-15 -3.13276e-31 1.21268e-31 4.14449 -1.58757e-15 -1.49582e-15 -0.608561 1.04488e-14 -2.8292e-15)
(7.03007e-15 3.13276e-31 -1.21268e-31 4.14449 -2.20124e-16 -6.65055e-16 -0.608561 2.53668e-15 4.37976e-16)
(1.80196e-15 4.2444e-31 -1.54342e-31 3.85165 1.08357e-16 -1.58455e-15 -0.592623 1.02123e-14 -2.57604e-15)
(-7.20783e-15 1.07277e-29 1.54342e-31 3.85165 -2.98093e-16 -4.7707e-16 -0.592623 2.66943e-15 4.69277e-16)
(1.84519e-15 -2.94653e-31 1.01287e-31 3.58118 1.61528e-15 -1.03889e-15 -0.577398 9.88463e-15 -2.31519e-15)
(0 2.94653e-31 -1.01287e-31 3.58118 -2.745e-15 -5.1779e-16 -0.577398 2.97203e-15 5.15294e-16)
(-3.77454e-15 5.27364e-31 -1.75788e-31 3.3315 1.24419e-15 -2.93734e-17 -0.562884 9.60776e-15 -2.09034e-15)
(-2.53337e-15 -4.92207e-31 1.93367e-31 3.3315 -1.23478e-15 -3.40372e-16 -0.562884 3.20501e-15 5.0738e-16)