/*--------------------------------*- C++ -*----------------------------------*\
| =========                 |                                                 |
| \\      /  F ield         | OpenFOAM: The Open Source CFD Toolbox           |
|  \\    /   O peration     | Version:  2106                                  |
|   \\  /    A nd           | Website:  www.openfoam.com                      |
|    \\/     M anipulation  |                                                 |
\*---------------------------------------------------------------------------*/
FoamFile
{
    version     2.0;
    format      ascii;
    arch        "LSB;label=32;scalar=64";
    class       volScalarField;
    location    "10050";
    object      p;
}
// * * * * * * * * * * * * * * * * * * * * * * * * * * * * * * * * * * * * * //

dimensions      [0 2 -2 0 0 0 0];

internalField   nonuniform List<scalar> 
2000
(
8.82052e-15
7.47767e-14
1.85527e-14
7.47742e-14
2.07716e-14
7.47726e-14
2.12881e-14
7.47712e-14
2.21751e-14
7.47699e-14
2.33632e-14
7.47687e-14
2.45735e-14
7.47674e-14
2.57465e-14
7.4766e-14
2.68908e-14
7.47645e-14
2.80132e-14
7.47631e-14
2.91154e-14
7.47617e-14
3.01977e-14
7.47603e-14
3.12604e-14
7.4759e-14
3.2304e-14
7.47578e-14
3.33283e-14
7.47569e-14
3.43337e-14
7.47562e-14
3.53208e-14
7.47557e-14
3.62897e-14
7.47556e-14
3.72406e-14
7.47559e-14
3.81738e-14
7.47566e-14
3.90896e-14
7.47577e-14
3.99881e-14
7.47595e-14
4.08695e-14
7.47619e-14
4.17342e-14
7.4765e-14
4.25824e-14
7.47687e-14
4.34141e-14
7.47731e-14
4.42298e-14
7.47782e-14
4.50297e-14
7.47841e-14
4.5814e-14
7.47909e-14
4.65829e-14
7.47982e-14
4.73361e-14
7.48064e-14
4.80747e-14
7.48156e-14
4.87987e-14
7.48257e-14
4.95078e-14
7.48368e-14
5.02024e-14
7.48491e-14
5.08826e-14
7.48626e-14
5.15484e-14
7.48775e-14
5.22001e-14
7.48937e-14
5.2838e-14
7.49113e-14
5.34623e-14
7.493e-14
5.4073e-14
7.495e-14
5.46701e-14
7.49715e-14
5.52542e-14
7.49947e-14
5.58254e-14
7.5019e-14
5.63833e-14
7.50445e-14
5.69281e-14
7.50714e-14
5.74605e-14
7.50995e-14
5.79808e-14
7.51292e-14
5.84888e-14
7.51608e-14
5.89851e-14
7.5194e-14
5.9469e-14
7.52283e-14
5.99412e-14
7.5264e-14
6.04006e-14
7.53012e-14
6.08488e-14
7.53401e-14
6.1285e-14
7.53804e-14
6.17093e-14
7.54219e-14
6.21219e-14
7.54657e-14
6.25235e-14
7.55112e-14
6.2914e-14
7.55588e-14
6.32933e-14
7.56079e-14
6.36623e-14
7.5658e-14
6.40201e-14
7.57097e-14
6.43672e-14
7.57643e-14
6.47043e-14
7.58211e-14
6.5032e-14
7.58786e-14
6.53495e-14
7.59379e-14
6.56578e-14
7.59984e-14
6.59574e-14
7.60589e-14
6.6248e-14
7.61208e-14
6.65299e-14
7.61842e-14
6.68036e-14
7.62487e-14
6.70693e-14
7.63149e-14
6.73262e-14
7.63832e-14
6.75745e-14
7.64525e-14
6.78153e-14
7.65229e-14
6.80477e-14
7.65945e-14
6.82724e-14
7.66686e-14
6.84903e-14
7.67438e-14
6.86991e-14
7.68199e-14
6.8902e-14
7.68966e-14
6.90991e-14
7.69737e-14
6.9289e-14
7.70518e-14
6.94717e-14
7.71322e-14
6.96462e-14
7.72128e-14
6.98155e-14
7.7294e-14
6.99796e-14
7.73765e-14
7.01384e-14
7.746e-14
7.02942e-14
7.75425e-14
7.04453e-14
7.76258e-14
7.05926e-14
7.77092e-14
7.07352e-14
7.77925e-14
7.0873e-14
7.78766e-14
7.1006e-14
7.79617e-14
7.1134e-14
7.8046e-14
7.12604e-14
7.81291e-14
7.13829e-14
7.82142e-14
7.15015e-14
7.83007e-14
7.16173e-14
7.83869e-14
7.17294e-14
7.84731e-14
7.18404e-14
7.85581e-14
7.19488e-14
7.8643e-14
7.20542e-14
7.87317e-14
7.21586e-14
7.88195e-14
7.22587e-14
7.89052e-14
7.23544e-14
7.89936e-14
7.2451e-14
7.90806e-14
7.2544e-14
7.91695e-14
7.26373e-14
7.92577e-14
7.27291e-14
7.93426e-14
7.28267e-14
7.94259e-14
7.29236e-14
7.9505e-14
7.3021e-14
7.95833e-14
7.31186e-14
7.96641e-14
7.3219e-14
7.97432e-14
7.33204e-14
7.98193e-14
7.34208e-14
7.98897e-14
7.35214e-14
7.99641e-14
7.36217e-14
8.00365e-14
7.37197e-14
8.01056e-14
7.38181e-14
8.01718e-14
7.39132e-14
8.02435e-14
7.40111e-14
8.03114e-14
7.41095e-14
8.03741e-14
7.42164e-14
8.04318e-14
7.4323e-14
8.04865e-14
7.44321e-14
8.05369e-14
7.45433e-14
8.05865e-14
7.46491e-14
8.06391e-14
7.47559e-14
8.06847e-14
7.48702e-14
8.0727e-14
7.49951e-14
8.07732e-14
7.51231e-14
8.08202e-14
7.52501e-14
8.08574e-14
7.53829e-14
8.08957e-14
7.55138e-14
8.09389e-14
7.56458e-14
8.09873e-14
7.57822e-14
8.10228e-14
7.59263e-14
8.10639e-14
7.60738e-14
8.11032e-14
7.62245e-14
8.11408e-14
7.6378e-14
8.11729e-14
7.65302e-14
8.12109e-14
7.66959e-14
8.12586e-14
7.68633e-14
8.13084e-14
7.70243e-14
8.13603e-14
7.71863e-14
8.14141e-14
7.73607e-14
8.14659e-14
7.75395e-14
8.15196e-14
7.77224e-14
8.15748e-14
7.78973e-14
8.16433e-14
7.80598e-14
8.17091e-14
7.82174e-14
8.17681e-14
7.83776e-14
8.18282e-14
7.85725e-14
8.18893e-14
7.87534e-14
8.19591e-14
7.89284e-14
8.20373e-14
7.91134e-14
8.21155e-14
7.93002e-14
8.21935e-14
7.94803e-14
8.2246e-14
7.96623e-14
8.23134e-14
7.98545e-14
8.23953e-14
8.00568e-14
8.24662e-14
8.02448e-14
8.25416e-14
8.04182e-14
8.26211e-14
8.06024e-14
8.27124e-14
8.07888e-14
8.27898e-14
8.09775e-14
8.28607e-14
8.1186e-14
8.29492e-14
8.13893e-14
8.30542e-14
8.15877e-14
8.31661e-14
8.17815e-14
8.32755e-14
8.19881e-14
8.33816e-14
8.21737e-14
8.34832e-14
8.23815e-14
8.36049e-14
8.25692e-14
8.37457e-14
8.27796e-14
8.38617e-14
8.29618e-14
8.3969e-14
8.31594e-14
8.40835e-14
8.33471e-14
8.423e-14
8.35508e-14
8.43648e-14
8.37882e-14
8.44777e-14
8.39751e-14
8.45571e-14
8.4165e-14
8.46693e-14
8.43589e-14
8.47951e-14
8.4575e-14
8.48986e-14
8.47812e-14
8.5063e-14
8.4979e-14
8.5269e-14
8.51672e-14
8.54303e-14
8.53632e-14
8.55804e-14
8.55681e-14
8.56998e-14
8.57491e-14
8.58374e-14
8.59247e-14
8.60085e-14
8.60945e-14
8.61955e-14
8.62573e-14
8.63645e-14
8.64291e-14
8.64978e-14
8.66107e-14
8.66795e-14
8.6767e-14
8.68917e-14
8.69295e-14
8.70684e-14
8.70966e-14
8.72619e-14
8.72839e-14
8.74057e-14
8.74759e-14
8.74977e-14
8.76266e-14
8.76845e-14
8.7802e-14
8.78667e-14
8.79687e-14
8.80271e-14
8.81094e-14
8.8132e-14
8.82579e-14
8.83146e-14
8.84124e-14
8.84253e-14
8.85754e-14
8.85102e-14
8.87172e-14
8.87127e-14
8.88839e-14
8.88862e-14
8.90578e-14
8.90464e-14
8.91901e-14
8.92078e-14
8.93585e-14
8.93383e-14
8.95328e-14
8.95335e-14
8.96783e-14
8.96639e-14
8.97617e-14
8.97896e-14
8.99373e-14
9.00082e-14
9.01038e-14
9.01972e-14
9.02609e-14
9.02663e-14
9.03528e-14
9.03999e-14
9.05623e-14
9.05379e-14
9.06781e-14
9.06095e-14
9.07678e-14
9.06996e-14
9.0891e-14
9.09001e-14
9.09757e-14
9.1097e-14
9.1103e-14
9.11825e-14
9.12164e-14
9.12446e-14
9.13204e-14
9.13057e-14
9.13611e-14
9.1418e-14
9.15024e-14
9.15046e-14
9.1631e-14
9.1621e-14
9.1746e-14
9.17655e-14
9.18156e-14
9.18792e-14
9.18388e-14
9.19951e-14
9.19994e-14
9.21302e-14
9.2023e-14
9.23734e-14
9.20683e-14
9.24844e-14
9.21739e-14
9.2565e-14
9.22375e-14
9.26197e-14
9.23106e-14
9.26834e-14
9.24126e-14
9.27011e-14
9.25346e-14
9.27392e-14
9.27539e-14
9.27879e-14
9.28232e-14
9.28944e-14
9.28962e-14
9.29355e-14
9.29544e-14
9.29848e-14
9.2946e-14
9.29941e-14
9.30664e-14
9.30663e-14
9.31744e-14
9.31315e-14
9.31853e-14
9.32325e-14
7.41286e-14
7.65585e-14
7.41273e-14
7.65581e-14
7.41264e-14
7.65577e-14
7.41256e-14
7.65572e-14
7.41248e-14
7.65565e-14
7.41241e-14
7.65556e-14
7.41232e-14
7.65545e-14
7.41223e-14
7.65531e-14
7.41213e-14
7.65516e-14
7.41202e-14
7.655e-14
7.41191e-14
7.65481e-14
7.4118e-14
7.65459e-14
7.41169e-14
7.65435e-14
7.41158e-14
7.65408e-14
7.4115e-14
7.65378e-14
7.41142e-14
7.65345e-14
7.41134e-14
7.65309e-14
7.41128e-14
7.65269e-14
7.41123e-14
7.65228e-14
7.41119e-14
7.65186e-14
7.41118e-14
7.65141e-14
7.41118e-14
7.65094e-14
7.41121e-14
7.65046e-14
7.41125e-14
7.64997e-14
7.41132e-14
7.64944e-14
7.41142e-14
7.64892e-14
7.41156e-14
7.64837e-14
7.41172e-14
7.64778e-14
7.41192e-14
7.64719e-14
7.41216e-14
7.64661e-14
7.41244e-14
7.646e-14
7.41277e-14
7.64537e-14
7.41313e-14
7.64471e-14
7.41355e-14
7.64404e-14
7.41401e-14
7.64332e-14
7.41452e-14
7.6426e-14
7.41511e-14
7.64187e-14
7.41573e-14
7.64113e-14
7.41641e-14
7.6404e-14
7.41717e-14
7.63961e-14
7.41802e-14
7.63881e-14
7.41894e-14
7.63803e-14
7.41992e-14
7.63719e-14
7.42098e-14
7.63635e-14
7.42213e-14
7.63548e-14
7.42335e-14
7.63463e-14
7.42469e-14
7.63369e-14
7.42609e-14
7.63273e-14
7.42754e-14
7.63185e-14
7.42907e-14
7.63104e-14
7.43068e-14
7.63012e-14
7.43238e-14
7.62919e-14
7.43413e-14
7.62836e-14
7.43598e-14
7.62747e-14
7.43792e-14
7.62662e-14
7.43994e-14
7.62586e-14
7.44207e-14
7.62502e-14
7.44418e-14
7.62425e-14
7.44643e-14
7.62345e-14
7.44878e-14
7.62262e-14
7.45126e-14
7.62178e-14
7.45381e-14
7.621e-14
7.45649e-14
7.62023e-14
7.45931e-14
7.61951e-14
7.4622e-14
7.61882e-14
7.46521e-14
7.61819e-14
7.46828e-14
7.6177e-14
7.47141e-14
7.61726e-14
7.47466e-14
7.61674e-14
7.47796e-14
7.61641e-14
7.48127e-14
7.6163e-14
7.4847e-14
7.61633e-14
7.48827e-14
7.61637e-14
7.49189e-14
7.61645e-14
7.49572e-14
7.61657e-14
7.49955e-14
7.61673e-14
7.50348e-14
7.61726e-14
7.50739e-14
7.61808e-14
7.51159e-14
7.61863e-14
7.51585e-14
7.61929e-14
7.52017e-14
7.62028e-14
7.52455e-14
7.62151e-14
7.52901e-14
7.62284e-14
7.53362e-14
7.62412e-14
7.53838e-14
7.62548e-14
7.5433e-14
7.62721e-14
7.54838e-14
7.62925e-14
7.55356e-14
7.63121e-14
7.5587e-14
7.63333e-14
7.56395e-14
7.63572e-14
7.56952e-14
7.63833e-14
7.57509e-14
7.64107e-14
7.58071e-14
7.64408e-14
7.58669e-14
7.64716e-14
7.59282e-14
7.65035e-14
7.59918e-14
7.65396e-14
7.60563e-14
7.65768e-14
7.61213e-14
7.66145e-14
7.61875e-14
7.66547e-14
7.62549e-14
7.66954e-14
7.63223e-14
7.67399e-14
7.63934e-14
7.6792e-14
7.64669e-14
7.68465e-14
7.65429e-14
7.69005e-14
7.66156e-14
7.69599e-14
7.66955e-14
7.70203e-14
7.67738e-14
7.7083e-14
7.68521e-14
7.71466e-14
7.69321e-14
7.7214e-14
7.70184e-14
7.72852e-14
7.71065e-14
7.73572e-14
7.71907e-14
7.7433e-14
7.72785e-14
7.75126e-14
7.73656e-14
7.7596e-14
7.74582e-14
7.76832e-14
7.75487e-14
7.77742e-14
7.76355e-14
7.78707e-14
7.77234e-14
7.7968e-14
7.78174e-14
7.80628e-14
7.79161e-14
7.81566e-14
7.80164e-14
7.8261e-14
7.81117e-14
7.83743e-14
7.82138e-14
7.84869e-14
7.83178e-14
7.85936e-14
7.84221e-14
7.87029e-14
7.85252e-14
7.88148e-14
7.86375e-14
7.8926e-14
7.87558e-14
7.904e-14
7.88698e-14
7.91567e-14
7.89762e-14
7.92728e-14
7.9089e-14
7.93848e-14
7.92086e-14
7.95035e-14
7.93244e-14
7.96253e-14
7.94328e-14
7.97541e-14
7.9552e-14
7.98756e-14
7.96714e-14
7.99971e-14
7.97946e-14
8.01187e-14
7.99109e-14
8.02444e-14
8.00127e-14
8.03705e-14
8.013e-14
8.04898e-14
8.02555e-14
8.061e-14
8.03895e-14
8.07428e-14
8.05246e-14
8.0877e-14
8.06378e-14
8.10089e-14
8.07483e-14
8.11389e-14
8.08716e-14
8.12673e-14
8.09922e-14
8.13944e-14
8.11221e-14
8.15244e-14
8.12495e-14
8.16575e-14
8.13745e-14
8.17824e-14
8.15052e-14
8.1899e-14
8.16377e-14
8.20036e-14
8.17727e-14
8.21203e-14
8.18941e-14
8.22493e-14
8.201e-14
8.23831e-14
8.21284e-14
8.24977e-14
8.22413e-14
8.26178e-14
8.23651e-14
8.27604e-14
8.24749e-14
8.28931e-14
8.25953e-14
8.30168e-14
8.27264e-14
8.31484e-14
8.28432e-14
8.32803e-14
8.29788e-14
8.33879e-14
8.31085e-14
8.34882e-14
8.32496e-14
8.36149e-14
8.3394e-14
8.37346e-14
8.35335e-14
8.38817e-14
8.36767e-14
8.40229e-14
8.38151e-14
8.41506e-14
8.39487e-14
8.42993e-14
8.40858e-14
8.44184e-14
8.42266e-14
8.4534e-14
8.43716e-14
8.46719e-14
8.45037e-14
8.48156e-14
8.46397e-14
8.49661e-14
8.47966e-14
8.50896e-14
8.49318e-14
8.52034e-14
8.50717e-14
8.53165e-14
8.52339e-14
8.54375e-14
8.5385e-14
8.56005e-14
8.55246e-14
8.57548e-14
8.56779e-14
8.5893e-14
8.5828e-14
8.59988e-14
8.59933e-14
8.60892e-14
8.61238e-14
8.6232e-14
8.62188e-14
8.64286e-14
8.64134e-14
8.65961e-14
8.65703e-14
8.67688e-14
8.67237e-14
8.69307e-14
8.68905e-14
8.70659e-14
8.70371e-14
8.71919e-14
8.71814e-14
8.73263e-14
8.7341e-14
8.7469e-14
8.74997e-14
8.76369e-14
8.76576e-14
8.77625e-14
8.78164e-14
8.79315e-14
8.79587e-14
8.80762e-14
8.81191e-14
8.81966e-14
8.82487e-14
8.83253e-14
8.83816e-14
8.8462e-14
8.85004e-14
8.86075e-14
8.862e-14
8.87143e-14
8.8724e-14
8.8883e-14
8.88762e-14
8.89988e-14
8.90444e-14
8.90604e-14
8.91515e-14
8.92139e-14
8.92621e-14
8.93609e-14
8.9424e-14
8.9489e-14
8.95395e-14
8.96486e-14
8.96893e-14
8.98258e-14
8.98386e-14
8.99905e-14
9.00193e-14
9.01455e-14
9.0153e-14
9.02412e-14
9.03076e-14
9.04068e-14
9.04824e-14
9.06105e-14
9.06445e-14
9.0761e-14
9.07989e-14
9.08608e-14
9.08859e-14
9.09353e-14
9.10011e-14
9.09805e-14
9.11497e-14
9.10865e-14
9.12441e-14
9.12172e-14
9.1341e-14
9.13764e-14
9.1466e-14
9.14502e-14
9.15959e-14
9.15597e-14
9.16419e-14
9.16684e-14
9.17208e-14
9.17486e-14
9.18308e-14
9.18328e-14
9.18845e-14
9.19206e-14
9.20281e-14
9.19286e-14
9.21351e-14
9.19562e-14
9.22762e-14
9.20493e-14
9.23427e-14
9.22287e-14
9.23198e-14
9.23646e-14
9.23855e-14
9.24247e-14
9.23704e-14
9.2465e-14
9.24559e-14
9.25747e-14
9.2528e-14
9.26623e-14
9.25026e-14
9.26738e-14
9.25885e-14
9.26687e-14
9.27188e-14
9.27382e-14
9.27449e-14
9.27884e-14
9.27673e-14
9.27731e-14
9.2812e-14
9.28169e-14
9.28885e-14
9.28915e-14
9.29441e-14
9.29391e-14
9.3006e-14
9.29324e-14
9.30909e-14
9.30083e-14
9.31606e-14
9.31181e-14
9.32001e-14
9.31706e-14
9.31982e-14
9.32204e-14
9.32338e-14
9.32956e-14
9.34069e-14
9.34239e-14
9.34623e-14
9.34578e-14
9.35054e-14
9.34843e-14
9.35361e-14
9.35546e-14
9.36125e-14
9.36292e-14
9.36277e-14
9.37061e-14
9.37223e-14
9.37428e-14
9.37559e-14
9.38096e-14
9.37502e-14
9.38608e-14
9.38254e-14
9.38785e-14
9.38564e-14
9.39599e-14
9.39655e-14
9.40039e-14
9.40646e-14
9.40527e-14
9.41104e-14
9.40726e-14
9.40775e-14
9.40865e-14
9.40972e-14
9.41008e-14
9.41417e-14
9.41696e-14
9.41501e-14
9.41829e-14
9.41495e-14
9.42336e-14
9.41635e-14
9.42476e-14
9.41932e-14
9.42507e-14
9.42148e-14
9.42329e-14
9.42634e-14
9.42748e-14
9.43131e-14
9.4346e-14
9.4362e-14
9.44176e-14
9.44059e-14
9.44641e-14
9.44121e-14
9.44846e-14
9.44401e-14
9.44795e-14
9.44936e-14
9.45086e-14
9.45435e-14
9.45389e-14
9.45906e-14
9.46303e-14
9.46009e-14
9.46948e-14
9.45692e-14
9.47095e-14
9.46174e-14
9.4678e-14
9.46259e-14
9.46887e-14
9.46277e-14
9.47413e-14
9.46506e-14
9.4708e-14
9.4668e-14
9.47466e-14
9.46794e-14
9.47933e-14
9.46836e-14
9.47332e-14
9.47186e-14
9.47094e-14
9.47555e-14
9.47513e-14
9.476e-14
9.4759e-14
9.47643e-14
9.48161e-14
9.47817e-14
9.47942e-14
9.47983e-14
9.4807e-14
9.47812e-14
9.48192e-14
9.47789e-14
9.48154e-14
9.4792e-14
9.48291e-14
9.47857e-14
9.48432e-14
9.47595e-14
9.48425e-14
9.4747e-14
9.47933e-14
9.4751e-14
9.47277e-14
9.47238e-14
9.46596e-14
9.47179e-14
9.46542e-14
9.47156e-14
9.47117e-14
9.46981e-14
9.47489e-14
9.468e-14
9.47338e-14
9.4661e-14
9.4684e-14
9.46592e-14
9.4668e-14
9.46576e-14
9.46854e-14
9.46385e-14
9.46854e-14
9.46358e-14
9.4669e-14
9.46323e-14
9.4636e-14
9.46115e-14
9.46199e-14
9.45907e-14
9.46207e-14
9.45865e-14
9.46215e-14
9.45988e-14
9.46054e-14
9.46116e-14
9.45715e-14
9.4574e-14
9.45362e-14
9.45376e-14
9.45256e-14
9.4536e-14
9.45491e-14
9.45172e-14
9.45555e-14
9.44977e-14
9.45452e-14
9.44946e-14
9.45357e-14
9.44908e-14
9.45527e-14
9.44944e-14
9.45278e-14
9.44888e-14
9.44779e-14
9.44834e-14
9.4479e-14
9.44693e-14
9.44968e-14
9.44718e-14
9.45057e-14
9.4465e-14
9.44975e-14
9.44492e-14
9.44809e-14
9.4441e-14
9.44559e-14
9.44408e-14
9.44478e-14
9.44571e-14
9.44395e-14
9.44565e-14
9.44306e-14
9.44477e-14
9.44209e-14
9.44558e-14
9.44103e-14
9.44559e-14
9.4407e-14
9.44482e-14
9.44191e-14
9.44491e-14
9.44221e-14
9.44419e-14
9.44078e-14
9.4435e-14
9.44093e-14
9.44282e-14
9.44101e-14
9.44297e-14
9.44104e-14
9.44313e-14
9.44022e-14
9.44331e-14
9.44015e-14
9.4427e-14
9.44004e-14
9.44211e-14
9.43909e-14
9.44192e-14
9.43851e-14
9.44176e-14
9.4379e-14
9.4424e-14
9.43686e-14
9.4419e-14
9.43774e-14
9.44259e-14
9.43781e-14
9.44291e-14
9.43668e-14
9.4425e-14
9.4359e-14
9.44174e-14
9.43585e-14
9.44178e-14
9.43537e-14
9.44185e-14
9.43486e-14
9.44197e-14
9.43507e-14
9.44137e-14
9.43523e-14
9.44045e-14
9.43573e-14
9.43993e-14
9.4351e-14
9.43907e-14
9.4337e-14
9.43898e-14
9.43265e-14
9.43928e-14
9.43193e-14
9.4389e-14
9.43154e-14
9.43856e-14
9.43182e-14
9.43826e-14
9.43136e-14
9.43799e-14
9.43052e-14
9.43741e-14
9.42999e-14
9.43756e-14
9.43013e-14
9.4374e-14
9.43058e-14
9.43693e-14
9.43031e-14
9.43615e-14
9.42934e-14
9.43591e-14
9.42902e-14
9.43587e-14
9.42951e-14
9.4347e-14
9.42964e-14
9.43371e-14
9.42925e-14
9.43292e-14
9.42934e-14
9.43247e-14
9.42957e-14
9.43187e-14
9.42947e-14
9.43097e-14
9.42903e-14
9.4304e-14
9.42907e-14
9.42969e-14
9.42956e-14
9.42898e-14
9.43005e-14
9.42859e-14
9.42991e-14
9.42804e-14
9.42962e-14
9.4275e-14
9.42948e-14
9.42711e-14
9.42964e-14
9.42687e-14
9.42949e-14
9.42649e-14
9.4295e-14
9.4261e-14
9.42936e-14
9.4257e-14
9.42922e-14
9.4256e-14
9.42894e-14
9.4255e-14
9.42866e-14
9.42496e-14
9.42852e-14
9.42471e-14
9.42853e-14
9.42473e-14
9.42847e-14
9.42447e-14
9.4282e-14
9.42414e-14
9.42786e-14
9.42394e-14
9.42759e-14
9.42367e-14
9.42746e-14
9.42354e-14
9.42755e-14
9.4234e-14
9.42757e-14
9.42326e-14
9.42745e-14
9.42318e-14
9.42726e-14
9.42317e-14
9.42721e-14
9.42302e-14
9.42724e-14
9.42286e-14
9.42727e-14
9.42255e-14
9.4273e-14
9.42238e-14
9.42733e-14
9.42213e-14
9.42737e-14
9.42195e-14
9.42748e-14
9.42191e-14
9.42738e-14
9.42179e-14
9.42742e-14
9.42167e-14
9.42762e-14
9.42169e-14
9.42778e-14
9.42178e-14
9.42784e-14
9.42168e-14
9.42786e-14
9.42165e-14
9.42784e-14
9.42165e-14
9.42791e-14
9.42169e-14
9.4281e-14
9.42169e-14
9.42833e-14
9.42172e-14
9.42849e-14
9.42171e-14
9.42845e-14
9.42165e-14
9.42853e-14
9.42168e-14
9.42853e-14
9.42174e-14
9.42862e-14
9.42176e-14
9.4285e-14
9.42173e-14
9.42838e-14
9.42179e-14
9.42835e-14
9.42184e-14
9.42836e-14
9.4219e-14
9.42828e-14
9.42195e-14
9.42819e-14
9.42198e-14
9.42821e-14
9.422e-14
9.42823e-14
9.42207e-14
9.42813e-14
9.42212e-14
9.42801e-14
9.42209e-14
9.42796e-14
9.42208e-14
9.42794e-14
9.42215e-14
9.42786e-14
9.42217e-14
9.42779e-14
9.42213e-14
9.42777e-14
9.42209e-14
9.42772e-14
9.42213e-14
9.42768e-14
9.42211e-14
9.42763e-14
9.42212e-14
9.42758e-14
9.42214e-14
9.42751e-14
9.42217e-14
9.42737e-14
9.42214e-14
9.42729e-14
9.42213e-14
9.42734e-14
9.42214e-14
9.42737e-14
9.42212e-14
9.42732e-14
9.42211e-14
9.42729e-14
9.42209e-14
9.42728e-14
9.42208e-14
9.4273e-14
9.42206e-14
9.4273e-14
9.42206e-14
9.42724e-14
9.42204e-14
9.42722e-14
9.42205e-14
9.42725e-14
9.42209e-14
9.42724e-14
9.42209e-14
9.42722e-14
9.42208e-14
9.42723e-14
9.42206e-14
9.42721e-14
9.42209e-14
9.42717e-14
9.42211e-14
9.42713e-14
9.42209e-14
9.42713e-14
9.4221e-14
9.42713e-14
9.42212e-14
9.42711e-14
9.42212e-14
9.4271e-14
9.4221e-14
9.42713e-14
9.4221e-14
9.42717e-14
9.42209e-14
9.4272e-14
9.42208e-14
9.4272e-14
9.42207e-14
9.42721e-14
9.42204e-14
9.42723e-14
9.42202e-14
9.42725e-14
9.422e-14
9.42727e-14
9.422e-14
9.42727e-14
9.42198e-14
9.4273e-14
9.42197e-14
9.42732e-14
9.42195e-14
9.42733e-14
9.42194e-14
9.42733e-14
9.42193e-14
9.42735e-14
9.42192e-14
9.42736e-14
9.42192e-14
9.42736e-14
9.42191e-14
9.42736e-14
9.42191e-14
9.42737e-14
9.42191e-14
9.42737e-14
9.42191e-14
9.42738e-14
9.42191e-14
9.42738e-14
9.42191e-14
9.42738e-14
9.42191e-14
9.42738e-14
9.4219e-14
9.42738e-14
9.4219e-14
9.42738e-14
9.4219e-14
9.42738e-14
9.4219e-14
9.42738e-14
9.33494e-14
9.3327e-14
9.34701e-14
9.33793e-14
9.35709e-14
9.3507e-14
9.36496e-14
9.35196e-14
9.3566e-14
9.35577e-14
9.36476e-14
9.36479e-14
9.37337e-14
9.37407e-14
9.37494e-14
9.37585e-14
9.37662e-14
9.38072e-14
9.38306e-14
9.38644e-14
9.38967e-14
9.39015e-14
9.40248e-14
9.39698e-14
9.40111e-14
9.40294e-14
9.40547e-14
9.40384e-14
9.41004e-14
9.4072e-14
9.41217e-14
9.41012e-14
9.41499e-14
9.41574e-14
9.41811e-14
9.41904e-14
9.42141e-14
9.41384e-14
9.42035e-14
9.40721e-14
9.42143e-14
9.41254e-14
9.42102e-14
9.42194e-14
9.42361e-14
9.4283e-14
9.42275e-14
9.43254e-14
9.42663e-14
9.44131e-14
9.43476e-14
9.44295e-14
9.44198e-14
9.44865e-14
9.44549e-14
9.45208e-14
9.44858e-14
9.45013e-14
9.4549e-14
9.45157e-14
9.46183e-14
9.45907e-14
9.46302e-14
9.46023e-14
9.46464e-14
9.45463e-14
9.4705e-14
9.45396e-14
9.4686e-14
9.4545e-14
9.46807e-14
9.45665e-14
9.47185e-14
9.46401e-14
9.47001e-14
9.46393e-14
9.46875e-14
9.46646e-14
9.46771e-14
9.47517e-14
9.46618e-14
9.47267e-14
9.46748e-14
9.47222e-14
9.47337e-14
9.47708e-14
9.47733e-14
9.47889e-14
9.47958e-14
9.47417e-14
9.47885e-14
9.47735e-14
9.4782e-14
9.48547e-14
9.47885e-14
9.48564e-14
9.47749e-14
9.48623e-14
9.48251e-14
9.48903e-14
9.48051e-14
9.48546e-14
9.47492e-14
9.48724e-14
9.46878e-14
9.48446e-14
9.4636e-14
9.4807e-14
9.46267e-14
9.48461e-14
9.46419e-14
9.48625e-14
9.46134e-14
9.48905e-14
9.46253e-14
9.48796e-14
9.46274e-14
9.48447e-14
9.46218e-14
9.4784e-14
9.46279e-14
9.47644e-14
9.4612e-14
9.47503e-14
9.46089e-14
9.47065e-14
9.46374e-14
9.46829e-14
9.46126e-14
9.46781e-14
9.46033e-14
9.46755e-14
9.4592e-14
9.46753e-14
9.45788e-14
9.46605e-14
9.45463e-14
9.4648e-14
9.45456e-14
9.46382e-14
9.45422e-14
9.45791e-14
9.45291e-14
9.45559e-14
9.45154e-14
9.45509e-14
9.45095e-14
9.45638e-14
9.45025e-14
9.45605e-14
9.45032e-14
9.45412e-14
9.45032e-14
9.45312e-14
9.4503e-14
9.45214e-14
9.44939e-14
9.45034e-14
9.45018e-14
9.45457e-14
9.45007e-14
9.45806e-14
9.44987e-14
9.45829e-14
9.44957e-14
9.45614e-14
9.4509e-14
9.45241e-14
9.45056e-14
9.45044e-14
9.44941e-14
9.4502e-14
9.44912e-14
9.45168e-14
9.44799e-14
9.45239e-14
9.44683e-14
9.45404e-14
9.44644e-14
9.45415e-14
9.44598e-14
9.45441e-14
9.44544e-14
9.45398e-14
9.44482e-14
9.45287e-14
9.4466e-14
9.45188e-14
9.44506e-14
9.45016e-14
9.4443e-14
9.45018e-14
9.44351e-14
9.44946e-14
9.44511e-14
9.4472e-14
9.44427e-14
9.44661e-14
9.44422e-14
9.44526e-14
9.44498e-14
9.44394e-14
9.44415e-14
9.44224e-14
9.44334e-14
9.44095e-14
9.44335e-14
9.44005e-14
9.4426e-14
9.44032e-14
9.44225e-14
9.44097e-14
9.44192e-14
9.44007e-14
9.44236e-14
9.43918e-14
9.4409e-14
9.43943e-14
9.43946e-14
9.4393e-14
9.43839e-14
9.43881e-14
9.4377e-14
9.43908e-14
9.43737e-14
9.43861e-14
9.43629e-14
9.43928e-14
9.43482e-14
9.43922e-14
9.43481e-14
9.43883e-14
9.43404e-14
9.43919e-14
9.43324e-14
9.43922e-14
9.43206e-14
9.43928e-14
9.43157e-14
9.43938e-14
9.43069e-14
9.43881e-14
9.43047e-14
9.43828e-14
9.42988e-14
9.43849e-14
9.42925e-14
9.43839e-14
9.42893e-14
9.43833e-14
9.42858e-14
9.43797e-14
9.42853e-14
9.43764e-14
9.42795e-14
9.4382e-14
9.4275e-14
9.43828e-14
9.42735e-14
9.43774e-14
9.42749e-14
9.43658e-14
9.42696e-14
9.43644e-14
9.42705e-14
9.43648e-14
9.42695e-14
9.43623e-14
9.42699e-14
9.43585e-14
9.42638e-14
9.43597e-14
9.42653e-14
9.43611e-14
9.42682e-14
9.43612e-14
9.42616e-14
9.436e-14
9.42595e-14
9.4359e-14
9.42602e-14
9.43597e-14
9.42593e-14
9.43576e-14
9.42553e-14
9.43572e-14
9.42481e-14
9.4357e-14
9.42482e-14
9.43526e-14
9.42511e-14
9.43484e-14
9.42494e-14
9.43472e-14
9.42491e-14
9.43448e-14
9.42487e-14
9.43411e-14
9.42482e-14
9.43404e-14
9.42497e-14
9.43378e-14
9.42505e-14
9.43331e-14
9.42504e-14
9.43285e-14
9.42517e-14
9.43241e-14
9.42521e-14
9.43197e-14
9.42526e-14
9.43169e-14
9.4253e-14
9.43148e-14
9.4254e-14
9.43121e-14
9.42557e-14
9.43087e-14
9.42553e-14
9.43076e-14
9.42548e-14
9.43058e-14
9.42558e-14
9.43025e-14
9.42574e-14
9.42994e-14
9.42568e-14
9.42962e-14
9.4257e-14
9.42938e-14
9.42564e-14
9.42921e-14
9.42587e-14
9.42898e-14
9.42589e-14
9.42889e-14
9.4259e-14
9.42895e-14
9.42595e-14
9.4289e-14
9.426e-14
9.42885e-14
9.42605e-14
9.4288e-14
9.42614e-14
9.42883e-14
9.42607e-14
9.42902e-14
9.42604e-14
9.42913e-14
9.42601e-14
9.42913e-14
9.42598e-14
9.42913e-14
9.42599e-14
9.42904e-14
9.42596e-14
9.42884e-14
9.42593e-14
9.42888e-14
9.4259e-14
9.42893e-14
9.42595e-14
9.42884e-14
9.42596e-14
9.42867e-14
9.42601e-14
9.42864e-14
9.42598e-14
9.42864e-14
9.42585e-14
9.42867e-14
9.42583e-14
9.42871e-14
9.42579e-14
9.42872e-14
9.4258e-14
9.42873e-14
9.42581e-14
9.42872e-14
9.42584e-14
9.42878e-14
9.42588e-14
9.42885e-14
9.42586e-14
9.42887e-14
9.42587e-14
9.42886e-14
9.4259e-14
9.4289e-14
9.42589e-14
9.429e-14
9.42587e-14
9.42905e-14
9.42587e-14
9.4291e-14
9.42591e-14
9.42918e-14
9.42592e-14
9.42933e-14
9.42586e-14
9.42947e-14
9.42589e-14
9.42958e-14
9.42591e-14
9.42962e-14
9.42596e-14
9.42965e-14
9.42604e-14
9.4297e-14
9.42603e-14
9.42976e-14
9.42605e-14
9.42984e-14
9.42604e-14
9.42986e-14
9.42605e-14
9.42984e-14
9.42605e-14
9.42988e-14
9.42608e-14
9.42992e-14
9.42608e-14
9.42994e-14
9.42609e-14
9.42994e-14
9.42609e-14
9.42993e-14
9.42612e-14
9.42993e-14
9.42614e-14
9.42994e-14
9.42616e-14
9.42996e-14
9.42621e-14
9.42997e-14
9.42623e-14
9.42994e-14
9.42621e-14
9.42993e-14
9.42622e-14
9.42992e-14
9.42624e-14
9.42992e-14
9.42626e-14
9.42992e-14
9.42626e-14
9.42992e-14
9.42623e-14
9.42994e-14
9.42619e-14
9.42995e-14
9.42618e-14
9.42994e-14
9.42615e-14
9.42994e-14
9.42613e-14
9.42996e-14
9.42611e-14
9.42998e-14
9.42609e-14
9.42997e-14
9.42609e-14
9.42998e-14
9.42606e-14
9.42999e-14
9.42605e-14
9.42999e-14
9.42605e-14
9.42998e-14
9.42606e-14
9.42998e-14
9.42605e-14
9.42999e-14
9.42605e-14
9.42999e-14
9.42605e-14
9.42998e-14
9.42604e-14
9.42998e-14
9.42605e-14
9.42998e-14
9.42605e-14
9.42999e-14
9.42605e-14
9.42998e-14
9.42605e-14
9.42998e-14
9.42605e-14
9.42998e-14
9.42605e-14
9.42998e-14
9.42606e-14
9.42998e-14
9.42606e-14
9.42998e-14
9.42606e-14
9.42998e-14
9.42606e-14
9.42998e-14
)
;

boundaryField
{
    walls
    {
        type            zeroGradient;
    }
    inlet
    {
        type            cyclic;
    }
    outlet
    {
        type            cyclic;
    }
    sides
    {
        type            empty;
    }
}


// ************************************************************************* //
