/*--------------------------------*- C++ -*----------------------------------*\
| =========                 |                                                 |
| \\      /  F ield         | OpenFOAM: The Open Source CFD Toolbox           |
|  \\    /   O peration     | Version:  2106                                  |
|   \\  /    A nd           | Website:  www.openfoam.com                      |
|    \\/     M anipulation  |                                                 |
\*---------------------------------------------------------------------------*/
FoamFile
{
    version     2.0;
    format      ascii;
    arch        "LSB;label=32;scalar=64";
    class       volScalarField;
    location    "10050";
    object      p;
}
// * * * * * * * * * * * * * * * * * * * * * * * * * * * * * * * * * * * * * //

dimensions      [0 2 -2 0 0 0 0];

internalField   nonuniform List<scalar> 
800
(
1.35636e-15
3.48834e-15
2.83979e-15
3.48611e-15
2.93036e-15
3.48283e-15
2.63801e-15
3.47771e-15
2.397e-15
3.47063e-15
2.2121e-15
3.46153e-15
2.0374e-15
3.4504e-15
1.86673e-15
3.43716e-15
1.70366e-15
3.42203e-15
1.55019e-15
3.40516e-15
1.40746e-15
3.38641e-15
1.2752e-15
3.36575e-15
1.15307e-15
3.34333e-15
1.04102e-15
3.31931e-15
9.38226e-16
3.29365e-15
8.44788e-16
3.26656e-15
7.60163e-16
3.23764e-15
6.83984e-16
3.20739e-15
6.15848e-16
3.17553e-15
5.553e-16
3.14164e-15
5.01859e-16
3.10649e-15
4.55179e-16
3.06975e-15
4.15546e-16
3.03183e-15
3.81843e-16
2.9936e-15
3.55024e-16
2.95385e-15
3.33047e-16
2.91224e-15
3.15775e-16
2.86901e-15
3.04189e-16
2.82441e-15
2.95892e-16
2.77914e-15
2.90822e-16
2.73333e-15
2.89488e-16
2.68624e-15
2.91096e-16
2.63873e-15
2.94926e-16
2.5911e-15
3.02459e-16
2.54094e-15
3.11484e-16
2.49064e-15
3.22528e-16
2.44048e-15
3.35064e-16
2.38792e-15
3.45721e-16
2.33374e-15
3.57368e-16
2.2805e-15
3.70706e-16
2.22615e-15
3.82822e-16
2.16849e-15
3.95653e-16
2.11146e-15
4.02208e-16
2.05411e-15
4.09594e-16
1.99008e-15
4.21488e-16
1.92894e-15
4.34829e-16
1.86404e-15
4.46378e-16
1.79974e-15
4.52634e-16
1.73025e-15
4.62111e-16
1.66462e-15
4.65172e-16
1.60312e-15
4.77205e-16
1.5267e-15
4.88807e-16
1.45739e-15
4.89844e-16
1.38836e-15
4.90092e-16
1.31586e-15
4.8597e-16
1.24266e-15
4.80828e-16
1.16083e-15
4.75154e-16
1.0799e-15
4.54327e-16
1.01367e-15
4.40643e-16
9.46721e-16
4.18732e-16
8.62057e-16
3.88777e-16
7.81276e-16
3.75867e-16
7.19021e-16
3.56745e-16
6.56968e-16
3.31597e-16
5.76032e-16
3.19084e-16
4.80702e-16
2.9726e-16
4.08915e-16
2.76812e-16
3.56956e-16
2.4019e-16
2.85623e-16
1.8993e-16
2.18269e-16
1.36352e-16
1.70841e-16
9.61839e-17
1.25976e-16
4.91247e-17
8.55511e-17
-2.48643e-17
3.15133e-17
-6.68097e-17
-3.41674e-17
-9.36746e-17
-7.4453e-17
-1.69171e-16
-4.71078e-17
-1.62796e-16
-5.60843e-17
-2.20736e-16
-1.65558e-16
-2.03176e-16
-1.93531e-16
-2.04453e-16
-1.9526e-16
-2.39115e-16
-2.84864e-16
-3.10317e-16
-3.15777e-16
-3.75646e-16
-3.16576e-16
-4.2388e-16
-4.11261e-16
-5.34465e-16
-5.11494e-16
-6.67049e-16
-6.20873e-16
-7.34101e-16
-6.95403e-16
-8.32489e-16
-7.35426e-16
-9.53693e-16
-8.884e-16
-9.77262e-16
-9.692e-16
-1.13287e-15
-1.06506e-15
-1.22911e-15
-1.06772e-15
-1.27594e-15
-1.13679e-15
-1.23256e-15
-1.23106e-15
-1.31026e-15
-1.31014e-15
-1.40771e-15
-1.37603e-15
-1.44365e-15
-1.41295e-15
-1.41825e-15
-1.42205e-15
-1.26644e-15
-1.43707e-15
-1.3525e-15
-1.36362e-15
2.28385e-15
2.29453e-15
2.28285e-15
2.29438e-15
2.28127e-15
2.29412e-15
2.27879e-15
2.29368e-15
2.27537e-15
2.293e-15
2.27098e-15
2.29206e-15
2.26559e-15
2.29092e-15
2.25933e-15
2.28947e-15
2.25223e-15
2.28772e-15
2.24433e-15
2.28549e-15
2.23578e-15
2.28289e-15
2.2266e-15
2.27978e-15
2.21667e-15
2.27632e-15
2.2058e-15
2.27266e-15
2.19405e-15
2.26868e-15
2.1818e-15
2.26392e-15
2.16907e-15
2.25889e-15
2.1557e-15
2.25357e-15
2.14204e-15
2.2474e-15
2.12765e-15
2.24098e-15
2.11288e-15
2.23379e-15
2.09806e-15
2.22586e-15
2.0828e-15
2.2169e-15
2.06725e-15
2.20729e-15
2.05108e-15
2.19767e-15
2.03444e-15
2.18741e-15
2.01773e-15
2.17535e-15
2.00105e-15
2.16269e-15
1.98448e-15
2.14884e-15
1.96836e-15
2.13243e-15
1.9514e-15
2.11586e-15
1.93316e-15
2.09851e-15
1.91422e-15
2.07924e-15
1.89517e-15
2.05904e-15
1.87498e-15
2.03727e-15
1.85424e-15
2.01382e-15
1.83412e-15
1.98804e-15
1.81074e-15
1.96264e-15
1.78287e-15
1.93881e-15
1.75756e-15
1.90948e-15
1.73382e-15
1.8781e-15
1.70557e-15
1.84711e-15
1.67659e-15
1.81532e-15
1.64566e-15
1.77877e-15
1.61839e-15
1.7442e-15
1.59094e-15
1.70333e-15
1.56214e-15
1.6646e-15
1.53517e-15
1.62225e-15
1.5044e-15
1.58228e-15
1.46679e-15
1.54497e-15
1.42863e-15
1.50426e-15
1.39004e-15
1.46037e-15
1.35457e-15
1.41683e-15
1.31927e-15
1.37737e-15
1.29157e-15
1.32842e-15
1.24362e-15
1.28407e-15
1.2043e-15
1.2342e-15
1.15938e-15
1.1866e-15
1.11689e-15
1.14188e-15
1.07736e-15
1.08502e-15
1.0099e-15
1.03998e-15
9.45552e-16
1.00949e-15
9.07696e-16
9.63591e-16
8.63945e-16
9.1107e-16
8.14999e-16
8.442e-16
7.79472e-16
7.98784e-16
7.50182e-16
7.49823e-16
6.65282e-16
6.87762e-16
5.85883e-16
6.34527e-16
5.38353e-16
5.47319e-16
4.90497e-16
4.40098e-16
3.90706e-16
3.62958e-16
2.73575e-16
2.98332e-16
2.12626e-16
2.3372e-16
1.89484e-16
1.70383e-16
1.0706e-16
1.23016e-16
4.5343e-17
4.9572e-17
2.42318e-18
8.35166e-18
-6.34339e-17
-1.32599e-17
-1.48959e-16
-4.76665e-17
-2.3211e-16
-1.30697e-16
-3.4542e-16
-2.11645e-16
-3.12928e-16
-2.34962e-16
-3.96348e-16
-3.67566e-16
-4.873e-16
-4.32313e-16
-5.93442e-16
-4.58532e-16
-6.93893e-16
-5.45452e-16
-7.52633e-16
-7.38906e-16
-8.53762e-16
-8.18385e-16
-9.48146e-16
-9.13431e-16
-1.11627e-15
-1.02663e-15
-1.22915e-15
-1.18081e-15
-1.20155e-15
-1.22354e-15
-1.2447e-15
-1.26327e-15
-1.27658e-15
-1.3376e-15
-1.35488e-15
-1.36436e-15
-1.39265e-15
-1.39597e-15
-1.39409e-15
-1.42158e-15
-1.33954e-15
-1.34878e-15
-1.32612e-15
-1.36087e-15
-1.44324e-15
-1.45324e-15
-1.57304e-15
-1.57813e-15
-1.56621e-15
-1.57784e-15
-1.54094e-15
-1.59669e-15
-1.55327e-15
-1.56367e-15
-1.52012e-15
-1.53355e-15
-1.4414e-15
-1.50706e-15
-1.52781e-15
-1.54136e-15
-1.54593e-15
-1.54514e-15
-1.46793e-15
-1.50264e-15
-1.41839e-15
-1.4197e-15
-1.37493e-15
-1.38271e-15
-1.30287e-15
-1.29186e-15
-1.30344e-15
-1.28986e-15
-1.30959e-15
-1.26074e-15
-1.33528e-15
-1.24495e-15
-1.29701e-15
-1.27712e-15
-1.22002e-15
-1.23929e-15
-1.13988e-15
-1.20138e-15
-1.2236e-15
-1.21471e-15
-1.25877e-15
-1.21494e-15
-1.24168e-15
-1.20643e-15
-1.21815e-15
-1.19169e-15
-1.16026e-15
-1.19432e-15
-1.18418e-15
-1.20467e-15
-1.23215e-15
-1.24173e-15
-1.26196e-15
-1.26062e-15
-1.25549e-15
-1.26016e-15
-1.25074e-15
-1.24156e-15
-1.25106e-15
-1.24197e-15
-1.27343e-15
-1.26139e-15
-1.27939e-15
-1.28018e-15
-1.26881e-15
-1.26333e-15
-1.25113e-15
-1.23886e-15
-1.23551e-15
-1.23281e-15
-1.23837e-15
-1.22681e-15
-1.23362e-15
-1.22871e-15
-1.22957e-15
-1.23915e-15
-1.23355e-15
-1.22543e-15
-1.23788e-15
-1.2201e-15
-1.24289e-15
-1.2302e-15
-1.256e-15
-1.21602e-15
-1.26244e-15
-1.20837e-15
-1.26293e-15
-1.22174e-15
-1.27202e-15
-1.23353e-15
-1.28186e-15
-1.23682e-15
-1.27831e-15
-1.24602e-15
-1.27208e-15
-1.2578e-15
-1.26628e-15
-1.26242e-15
-1.274e-15
-1.26699e-15
-1.27526e-15
-1.26821e-15
-1.27354e-15
-1.26943e-15
-1.27509e-15
-1.26459e-15
-1.27386e-15
-1.26288e-15
-1.27582e-15
-1.2641e-15
-1.27799e-15
-1.26243e-15
-1.27898e-15
-1.26212e-15
-1.28157e-15
-1.26173e-15
-1.28698e-15
-1.26124e-15
-1.28877e-15
-1.26063e-15
-1.28712e-15
-1.26235e-15
-1.28698e-15
-1.26393e-15
-1.28825e-15
-1.26186e-15
-1.28973e-15
-1.25859e-15
-1.28917e-15
-1.2564e-15
-1.28885e-15
-1.25745e-15
-1.28818e-15
-1.25893e-15
-1.28661e-15
-1.25923e-15
-1.28467e-15
-1.25893e-15
-1.28392e-15
-1.25965e-15
-1.28382e-15
-1.26032e-15
-1.28381e-15
-1.26041e-15
-1.2828e-15
-1.2602e-15
-1.28184e-15
-1.26079e-15
-1.28122e-15
-1.26109e-15
-1.28094e-15
-1.26138e-15
-1.2804e-15
-1.26165e-15
-1.27924e-15
-1.26225e-15
-1.27925e-15
-1.26252e-15
-1.2793e-15
-1.26262e-15
-1.27902e-15
-1.26253e-15
-1.27895e-15
-1.26243e-15
-1.2791e-15
-1.26232e-15
-1.27908e-15
-1.26178e-15
-1.27898e-15
-1.26186e-15
-1.27888e-15
-1.26194e-15
-1.27881e-15
-1.2619e-15
-1.2785e-15
-1.26198e-15
-1.27845e-15
-1.26205e-15
-1.27848e-15
-1.26213e-15
-1.2786e-15
-1.26206e-15
-1.2785e-15
-1.26199e-15
-1.2785e-15
-1.26184e-15
-1.27862e-15
-1.26187e-15
-1.27868e-15
-1.26187e-15
-1.27865e-15
-1.26186e-15
-1.27861e-15
-1.26185e-15
-1.2786e-15
-1.26184e-15
-1.27862e-15
-1.26182e-15
-1.27863e-15
-1.26182e-15
-1.37476e-15
-1.42937e-15
-1.55732e-15
-1.56785e-15
-1.56981e-15
-1.57348e-15
-1.57943e-15
-1.58103e-15
-1.61112e-15
-1.58056e-15
-1.58155e-15
-1.55466e-15
-1.48647e-15
-1.51217e-15
-1.5142e-15
-1.4975e-15
-1.48929e-15
-1.51021e-15
-1.48529e-15
-1.52539e-15
-1.40052e-15
-1.46108e-15
-1.27182e-15
-1.39464e-15
-1.2643e-15
-1.35104e-15
-1.30814e-15
-1.37189e-15
-1.32051e-15
-1.33763e-15
-1.32732e-15
-1.32928e-15
-1.28036e-15
-1.33933e-15
-1.20903e-15
-1.28281e-15
-1.21018e-15
-1.30934e-15
-1.23941e-15
-1.28699e-15
-1.2096e-15
-1.19462e-15
-1.17789e-15
-1.18999e-15
-1.1817e-15
-1.18638e-15
-1.15827e-15
-1.18327e-15
-1.10839e-15
-1.18405e-15
-1.16744e-15
-1.2179e-15
-1.1909e-15
-1.23642e-15
-1.22247e-15
-1.23896e-15
-1.18833e-15
-1.24225e-15
-1.22371e-15
-1.23232e-15
-1.23646e-15
-1.2425e-15
-1.22732e-15
-1.233e-15
-1.23418e-15
-1.222e-15
-1.23125e-15
-1.21763e-15
-1.22866e-15
-1.22957e-15
-1.22581e-15
-1.23236e-15
-1.22219e-15
-1.21824e-15
-1.22709e-15
-1.21241e-15
-1.23262e-15
-1.21359e-15
-1.23894e-15
-1.22177e-15
-1.25401e-15
-1.221e-15
-1.26241e-15
-1.21871e-15
-1.26462e-15
-1.21492e-15
-1.26848e-15
-1.22484e-15
-1.28112e-15
-1.22582e-15
-1.28787e-15
-1.23606e-15
-1.28163e-15
-1.24119e-15
-1.27303e-15
-1.23826e-15
-1.26197e-15
-1.24805e-15
-1.26466e-15
-1.25389e-15
-1.26416e-15
-1.24957e-15
-1.26066e-15
-1.24499e-15
-1.25738e-15
-1.24319e-15
-1.25426e-15
-1.2441e-15
-1.25414e-15
-1.24475e-15
-1.25401e-15
-1.24518e-15
-1.25247e-15
-1.24818e-15
-1.2509e-15
-1.24697e-15
-1.25188e-15
-1.247e-15
-1.25274e-15
-1.24695e-15
-1.25226e-15
-1.2468e-15
-1.25171e-15
-1.24778e-15
-1.24993e-15
-1.24633e-15
-1.25155e-15
-1.2437e-15
-1.25195e-15
-1.24329e-15
-1.25286e-15
-1.24338e-15
-1.25209e-15
-1.24503e-15
-1.25183e-15
-1.24554e-15
-1.25153e-15
-1.24547e-15
-1.2512e-15
-1.24536e-15
-1.25084e-15
-1.24467e-15
-1.25045e-15
-1.24449e-15
-1.25058e-15
-1.24399e-15
-1.25041e-15
-1.2443e-15
-1.24993e-15
-1.24488e-15
-1.24942e-15
-1.24546e-15
-1.2501e-15
-1.2451e-15
-1.25016e-15
-1.24536e-15
-1.25037e-15
-1.24544e-15
-1.25058e-15
-1.24551e-15
-1.25097e-15
-1.24485e-15
-1.25137e-15
-1.2447e-15
-1.25178e-15
-1.24434e-15
-1.252e-15
-1.24436e-15
-1.25201e-15
-1.24459e-15
-1.25201e-15
-1.2447e-15
-1.25224e-15
-1.24445e-15
-1.25249e-15
-1.2443e-15
-1.25274e-15
-1.2444e-15
-1.253e-15
-1.24443e-15
-1.25292e-15
-1.24445e-15
-1.25305e-15
-1.24424e-15
-1.25312e-15
-1.24409e-15
-1.25318e-15
-1.24401e-15
-1.25329e-15
-1.24397e-15
-1.25322e-15
-1.24396e-15
-1.2532e-15
-1.24397e-15
-1.25319e-15
-1.24398e-15
-1.25319e-15
-1.24396e-15
-1.25319e-15
-1.24396e-15
)
;

boundaryField
{
    walls
    {
        type            zeroGradient;
    }
    inlet
    {
        type            cyclic;
    }
    outlet
    {
        type            cyclic;
    }
    sides
    {
        type            empty;
    }
}


// ************************************************************************* //
