/*--------------------------------*- C++ -*----------------------------------*\
| =========                 |                                                 |
| \\      /  F ield         | OpenFOAM: The Open Source CFD Toolbox           |
|  \\    /   O peration     | Version:  2106                                  |
|   \\  /    A nd           | Website:  www.openfoam.com                      |
|    \\/     M anipulation  |                                                 |
\*---------------------------------------------------------------------------*/
FoamFile
{
    version     2.0;
    format      ascii;
    arch        "LSB;label=32;scalar=64";
    class       surfaceScalarField;
    location    "10050";
    object      phi;
}
// * * * * * * * * * * * * * * * * * * * * * * * * * * * * * * * * * * * * * //

dimensions      [0 3 -1 0 0 0 0];

oriented        oriented;

internalField   nonuniform List<scalar> 
1596
(
7.04068e-08
-3.39347e-18
9.85987e-23
-8.65004e-23
9.65074e-23
2.24721e-07
-3.39907e-18
2.0669e-21
3.0608e-21
3.86366e-22
4.01021e-07
-3.40522e-18
2.2616e-21
6.4755e-21
4.42865e-22
6.0177e-07
-3.41173e-18
2.39263e-21
9.97323e-21
5.06582e-22
8.29684e-07
-3.41832e-18
2.52058e-21
1.3575e-20
5.7824e-22
1.08776e-06
-3.42544e-18
2.64579e-21
1.72807e-20
6.58595e-22
1.37929e-06
-3.43236e-18
2.75962e-21
2.08247e-20
7.48432e-22
1.70791e-06
-3.43983e-18
2.86048e-21
2.45755e-20
8.48671e-22
2.07764e-06
-3.44665e-18
2.94787e-21
2.79157e-20
9.60196e-22
2.49288e-06
-3.45485e-18
3.01995e-21
3.08403e-20
1.08418e-21
2.95847e-06
-3.46268e-18
3.07436e-21
3.378e-20
1.22159e-21
3.47977e-06
-3.46994e-18
3.10753e-21
3.64971e-20
1.37329e-21
4.06263e-06
-3.47806e-18
3.11545e-21
3.93596e-20
1.54027e-21
4.7135e-06
-3.48232e-18
3.09426e-21
4.00338e-20
1.72304e-21
5.43946e-06
-3.48856e-18
3.03805e-21
4.0307e-20
1.92249e-21
6.24824e-06
-3.49414e-18
2.94115e-21
4.14888e-20
2.13982e-21
7.14832e-06
-3.49795e-18
2.79739e-21
4.18656e-20
2.37433e-21
8.14895e-06
-3.50065e-18
2.59991e-21
4.01528e-20
2.62573e-21
9.26015e-06
-3.50255e-18
2.34181e-21
3.7881e-20
2.89358e-21
1.04928e-05
-3.50121e-18
2.01649e-21
3.24349e-20
3.17415e-21
1.18585e-05
-3.49894e-18
1.61505e-21
2.53458e-20
3.46785e-21
1.33698e-05
-3.49849e-18
1.13041e-21
1.78919e-20
3.77105e-21
1.50398e-05
-3.49399e-18
5.58069e-22
1.04066e-20
4.07983e-21
1.6882e-05
-3.49251e-18
-1.0855e-22
2.37738e-21
4.38682e-21
1.89104e-05
-3.47973e-18
-8.62454e-22
-1.12526e-20
4.67703e-21
2.1139e-05
-3.46412e-18
-1.71066e-21
-2.52984e-20
4.93838e-21
2.35813e-05
-3.4483e-18
-2.65482e-21
-4.50277e-20
5.16719e-21
2.62503e-05
-3.42179e-18
-3.68375e-21
-6.73941e-20
5.34849e-21
2.91579e-05
-3.39156e-18
-4.79864e-21
-9.60108e-20
5.4775e-21
3.23146e-05
-3.3635e-18
-5.99182e-21
-1.1958e-19
5.55113e-21
3.57297e-05
-3.32844e-18
-7.21923e-21
-1.54687e-19
5.53037e-21
3.94111e-05
-3.28085e-18
-8.46317e-21
-1.93343e-19
5.42776e-21
4.33659e-05
-3.24268e-18
-9.73598e-21
-2.25739e-19
5.25958e-21
4.76004e-05
-3.20155e-18
-1.0988e-20
-2.61712e-19
4.9938e-21
5.21208e-05
-3.15115e-18
-1.22017e-20
-3.07263e-19
4.66465e-21
5.69339e-05
-3.09764e-18
-1.33836e-20
-3.42112e-19
4.28903e-21
6.20472e-05
-3.02668e-18
-1.45199e-20
-3.78565e-19
3.83628e-21
6.74693e-05
-2.97168e-18
-1.56006e-20
-4.1954e-19
3.31138e-21
7.32104e-05
-2.89474e-18
-1.65949e-20
-4.58414e-19
2.75481e-21
7.92821e-05
-2.82752e-18
-1.76084e-20
-4.95616e-19
2.19885e-21
8.56977e-05
-2.76685e-18
-1.8636e-20
-5.40239e-19
1.62456e-21
9.24721e-05
-2.67875e-18
-1.95466e-20
-5.91003e-19
9.86864e-22
9.96218e-05
-2.63146e-18
-2.04893e-20
-5.99386e-19
3.60468e-22
0.000107165
-2.58315e-18
-2.13095e-20
-6.62438e-19
-2.32321e-22
0.000115121
-2.52911e-18
-2.21435e-20
-6.95516e-19
-6.36435e-22
0.000123512
-2.47052e-18
-2.28811e-20
-7.52715e-19
-9.73988e-22
0.000132359
-2.3838e-18
-2.35885e-20
-7.689e-19
-1.17731e-21
0.000141688
-2.34612e-18
-2.43793e-20
-8.19261e-19
-1.45015e-21
0.000151523
-2.27785e-18
-2.47245e-20
-8.7603e-19
-1.74469e-21
0.000161893
-2.24461e-18
-2.47884e-20
-8.91574e-19
-1.91462e-21
0.000172825
-2.1815e-18
-2.44541e-20
-9.40945e-19
-2.37495e-21
0.00018435
-2.09897e-18
-2.40213e-20
-9.55911e-19
-2.67957e-21
0.000196501
-2.0243e-18
-2.38014e-20
-1.00358e-18
-3.05588e-21
0.000209311
-1.96642e-18
-2.39182e-20
-1.04258e-18
-3.72766e-21
0.000222815
-1.9097e-18
-2.42973e-20
-1.05353e-18
-4.28337e-21
0.000237051
-1.83301e-18
-2.42717e-20
-1.10145e-18
-5.37693e-21
0.000252058
-1.7575e-18
-2.46945e-20
-1.14354e-18
-5.8864e-21
0.000267877
-1.72791e-18
-2.53947e-20
-1.17685e-18
-6.01449e-21
0.000284552
-1.67373e-18
-2.58999e-20
-1.16069e-18
-6.23116e-21
0.000302128
-1.63067e-18
-2.68438e-20
-1.15273e-18
-7.32412e-21
0.000320653
-1.63126e-18
-2.69423e-20
-1.14965e-18
-1.04257e-20
0.000340176
-1.58904e-18
-2.71364e-20
-1.19125e-18
-1.46419e-20
0.000360751
-1.5853e-18
-2.88543e-20
-1.1619e-18
-1.77512e-20
0.000382433
-1.53528e-18
-2.95228e-20
-1.14307e-18
-2.21638e-20
0.000405279
-1.43086e-18
-3.00294e-20
-1.15718e-18
-2.64266e-20
0.000429351
-1.37332e-18
-3.29745e-20
-1.17261e-18
-3.03953e-20
0.000454711
-1.31992e-18
-3.64472e-20
-1.07342e-18
-3.38675e-20
0.000481427
-1.20899e-18
-3.57619e-20
-1.08164e-18
-4.06132e-20
0.000509568
-1.1859e-18
-3.78225e-20
-1.17181e-18
-4.84817e-20
0.000539208
-1.19124e-18
-4.27575e-20
-1.18296e-18
-4.73713e-20
0.000570422
-1.15087e-18
-4.70721e-20
-1.23241e-18
-4.17904e-20
0.000603292
-1.09497e-18
-4.82411e-20
-1.20092e-18
-3.46947e-20
0.000637901
-1.23832e-18
-4.29377e-20
-1.24581e-18
-3.40441e-20
0.000674336
-1.31241e-18
-3.59843e-20
-1.31719e-18
-3.43351e-20
0.00071269
-1.19023e-18
-3.71645e-20
-1.384e-18
-3.17881e-20
0.000753057
-1.31111e-18
-4.39485e-20
-1.27956e-18
-2.16152e-20
0.000795537
-1.20585e-18
-4.54787e-20
-1.15594e-18
-2.41961e-20
0.000840235
-1.30941e-18
-5.66549e-20
-1.15553e-18
-4.05435e-20
0.000887257
-1.21049e-18
-4.17476e-20
-1.19407e-18
-4.09545e-20
0.000936718
-1.12645e-18
-2.07916e-20
-1.03723e-18
-3.4663e-20
0.000988732
-1.06202e-18
3.68353e-21
-1.01366e-18
-4.69744e-20
0.00104342
-9.34646e-19
1.56392e-20
-9.40507e-19
-3.74376e-20
0.00110091
-9.49436e-19
-1.74695e-20
-8.0595e-19
-4.5793e-20
0.00116133
-8.37228e-19
-1.55774e-20
-9.37495e-19
-4.23899e-20
0.00122481
-7.37673e-19
-2.20249e-20
-8.87447e-19
-4.87304e-20
0.00129149
-8.54168e-19
-2.73424e-20
-7.85499e-19
-9.00467e-20
0.0013615
-7.23459e-19
3.68408e-22
-7.9683e-19
-1.11606e-19
0.00143498
-6.22822e-19
-2.40227e-20
-6.13647e-19
-4.51621e-20
0.00151207
-7.95049e-19
-6.08308e-20
-7.01373e-19
-5.82096e-20
0.00159292
-6.1888e-19
-3.14266e-20
-7.90874e-19
-6.69493e-20
0.00167764
-8.49382e-19
-1.70554e-20
-9.47816e-19
-7.24832e-20
0.00176637
-9.42434e-19
-2.97178e-20
-8.59069e-19
1.77393e-20
0.00185922
-8.25563e-19
-1.11565e-19
-7.48592e-19
1.10062e-20
0.00195629
-7.12467e-19
-2.72011e-20
-6.70256e-19
6.30017e-21
0.00205764
-7.22254e-19
-5.92189e-20
-7.72302e-19
4.24063e-20
0.0021633
-8.90533e-19
-3.21786e-20
-9.31798e-19
9.79666e-22
0.00227324
-9.6775e-19
-3.82031e-22
-9.27794e-19
-4.83439e-21
0.00238736
-9.01621e-19
-7.73178e-20
-7.51608e-19
-2.45077e-20
0.00250547
-7.67477e-19
-3.56134e-20
-8.30978e-19
-1.0325e-19
0.00262728
-1.13197e-19
-4.43123e-19
-4.60068e-20
-4.20274e-19
7.04068e-08
9.13658e-23
1.01602e-22
2.24721e-07
2.06722e-21
6.35318e-22
4.01021e-07
4.13139e-21
1.30452e-21
6.0177e-07
6.25964e-21
2.13604e-21
8.29684e-07
8.56565e-21
2.95232e-21
1.08776e-06
1.11724e-20
3.70649e-21
1.37929e-06
1.34365e-20
4.90388e-21
1.70791e-06
1.59749e-20
6.19571e-21
2.07764e-06
1.78773e-20
8.34848e-21
2.49288e-06
2.00111e-20
1.03753e-20
2.95847e-06
2.17707e-20
1.22547e-20
3.47977e-06
2.4166e-20
1.43493e-20
4.06263e-06
2.78172e-20
1.63251e-20
4.7135e-06
3.15785e-20
1.72099e-20
5.43946e-06
3.3261e-20
2.02087e-20
6.24824e-06
3.49334e-20
2.30293e-20
7.14832e-06
3.62694e-20
2.65932e-20
8.14895e-06
3.73947e-20
3.04748e-20
9.26015e-06
3.92575e-20
3.16329e-20
1.04928e-05
3.96151e-20
3.73219e-20
1.18585e-05
3.91722e-20
4.25692e-20
1.33698e-05
3.84994e-20
4.8746e-20
1.50398e-05
3.75778e-20
5.33292e-20
1.6882e-05
4.21674e-20
5.46043e-20
1.89104e-05
4.19051e-20
5.44251e-20
2.1139e-05
3.4441e-20
6.5782e-20
2.35813e-05
2.86677e-20
7.26347e-20
2.62503e-05
1.83606e-20
8.51748e-20
2.91579e-05
3.21142e-21
1.00098e-19
3.23146e-05
6.19433e-21
1.01948e-19
3.57297e-05
1.00399e-20
1.02715e-19
3.94111e-05
-9.68124e-22
1.08388e-19
4.33659e-05
-5.18896e-21
1.03522e-19
4.76004e-05
-9.59352e-21
1.09077e-19
5.21208e-05
-1.82105e-20
1.06016e-19
5.69339e-05
-2.24088e-20
9.82853e-20
6.20472e-05
-1.04725e-20
9.19485e-20
6.74693e-05
-6.69084e-21
9.1716e-20
7.32104e-05
-1.46453e-20
9.72186e-20
7.92821e-05
-3.07877e-20
1.0308e-19
8.56977e-05
-2.08683e-20
8.93951e-20
9.24721e-05
-2.63022e-20
7.62214e-20
9.96218e-05
-4.19037e-20
1.0215e-19
0.000107165
-8.93382e-20
9.78037e-20
0.000115121
-1.03228e-19
9.9094e-20
0.000123512
-1.21976e-19
9.37672e-20
0.000132359
-1.26605e-19
8.34127e-20
0.000141688
-1.03293e-19
4.18958e-20
0.000151523
-7.96548e-20
2.98432e-20
0.000161893
-8.17303e-20
3.79979e-20
0.000172825
-8.9073e-20
3.93149e-20
0.00018435
-9.28345e-20
3.04555e-20
0.000196501
-1.04145e-19
2.75279e-21
0.000209311
-1.23833e-19
-2.77354e-21
0.000222815
-9.04701e-20
-2.17662e-20
0.000237051
-8.79109e-20
2.21188e-20
0.000252058
-6.14389e-20
7.48687e-21
0.000267877
-5.61406e-20
-3.07656e-20
0.000284552
-6.38051e-20
-4.79068e-20
0.000302128
-2.25881e-20
-9.62502e-20
0.000320653
-8.91698e-20
-1.11624e-19
0.000340176
-1.69213e-19
-1.15351e-19
0.000360751
-1.88269e-19
-1.39796e-19
0.000382433
-2.06789e-19
-1.15892e-19
0.000405279
-2.28159e-19
-1.36139e-19
0.000429351
-2.35385e-19
-2.08376e-19
0.000454711
-1.63777e-19
-2.04661e-19
0.000481427
-1.82389e-19
-2.13011e-19
0.000509568
-2.23126e-19
-1.39835e-19
0.000539208
-2.30327e-19
-7.7146e-20
0.000570422
-2.01247e-19
-1.48311e-19
0.000603292
-1.07327e-19
-2.73143e-19
0.000637901
-2.55612e-19
-3.22954e-19
0.000674336
-4.29282e-19
-3.65148e-19
0.00071269
-3.8047e-19
-3.88297e-19
0.000753057
-4.46964e-19
-4.29987e-19
0.000795537
-4.3964e-19
-4.11648e-19
0.000840235
-4.32685e-19
-3.84658e-19
0.000887257
-4.6641e-19
-5.94733e-19
0.000936718
-4.95314e-19
-6.98383e-19
0.000988732
-6.32749e-19
-6.43299e-19
0.00104342
-8.77228e-19
-8.35953e-19
0.00110091
-7.48006e-19
-6.70227e-19
0.00116133
-6.83721e-19
-7.3435e-19
0.00122481
-5.52863e-19
-7.34303e-19
0.00129149
-5.74916e-19
-6.47805e-19
0.0013615
-7.2364e-19
-4.4917e-19
0.00143498
-6.83911e-19
-5.80859e-19
0.00151207
-6.98155e-19
-7.14016e-19
0.00159292
-5.74207e-19
-8.10846e-19
0.00167764
-7.83116e-19
-6.57043e-19
0.00176637
-1.03098e-18
-8.01765e-19
0.00185922
-7.02225e-19
-7.69626e-19
0.00195629
-9.46378e-19
-7.28996e-19
0.00205764
-7.52354e-19
-9.43748e-19
0.0021633
-7.63996e-19
-8.60533e-19
0.00227324
-9.24311e-19
-7.96701e-19
0.00238736
-8.22924e-19
-8.43617e-19
0.00250547
-9.27891e-19
-8.4346e-19
0.00262728
-5.35665e-19
-5.38848e-19
0.00262728
-3.50887e-19
-1.28e-19
-3.51095e-19
-5.48495e-20
0.00250547
-6.65907e-19
-7.87506e-21
-6.26454e-19
-3.10679e-20
0.00238736
-6.9907e-19
1.16204e-19
-5.79818e-19
1.27567e-19
0.00227324
-2.23744e-19
1.60157e-19
-3.76127e-19
4.90797e-20
0.0021633
-5.9782e-19
8.19862e-20
-5.67862e-19
-1.42267e-20
0.00205764
-8.00635e-19
1.36207e-19
-6.31024e-19
-2.35636e-20
0.00195629
-5.0209e-19
1.10514e-19
-7.25832e-19
-6.20667e-20
0.00185922
-5.66486e-19
1.2127e-20
-6.76858e-19
-3.31163e-20
0.00176637
-6.09119e-19
-2.49164e-20
-6.09638e-19
-1.91481e-20
0.00167764
-6.11122e-19
-6.84983e-21
-5.68174e-19
6.92545e-21
0.00159292
-5.86533e-19
1.938e-21
-5.11326e-19
2.10483e-20
0.00151207
-5.91672e-19
-4.76e-20
-5.83845e-19
1.76576e-20
0.00143498
-4.82551e-19
-1.92208e-20
-4.1858e-19
6.09295e-20
0.0013615
-3.58336e-19
9.56768e-21
-5.0782e-19
5.87469e-20
0.00129149
-3.46818e-19
1.55794e-20
-5.98891e-19
4.12378e-20
0.00122481
-5.44519e-19
1.63268e-20
-3.68109e-19
7.2657e-20
0.00116133
-5.97508e-19
4.31589e-20
-4.06458e-19
3.58874e-20
0.00110091
-6.14693e-19
4.15225e-20
-4.54485e-19
2.96999e-20
0.00104342
-3.33194e-19
5.3432e-20
-4.30074e-19
4.03486e-20
0.000988732
-1.86339e-19
3.20854e-20
-3.87078e-19
2.8671e-20
0.000936718
-3.45101e-19
3.09548e-21
-2.85795e-19
8.05283e-21
0.000887257
-2.84927e-19
-9.97596e-22
-1.65863e-19
9.37428e-21
0.000840235
-3.15159e-19
-4.57282e-21
-1.75089e-19
6.43104e-21
0.000795537
-1.21015e-19
1.67971e-22
-2.14503e-19
-3.46781e-21
0.000753057
-1.34781e-19
-1.68885e-20
-1.46174e-19
-6.19507e-21
0.00071269
-6.31216e-20
-9.66138e-21
-1.23282e-19
-7.71463e-21
0.000674336
-1.80266e-19
-1.099e-20
-9.41317e-20
-4.07605e-21
0.000637901
-8.56371e-20
2.69281e-21
-1.21526e-19
-5.81669e-21
0.000603292
-1.45806e-19
-4.79118e-21
-5.55231e-20
-2.23655e-21
0.000570422
-4.37085e-20
4.21536e-21
-6.29114e-20
-7.23107e-21
0.000539208
-5.97128e-20
2.1226e-21
-1.51964e-19
-9.39668e-21
0.000509568
-9.81911e-20
1.63676e-21
-1.51189e-19
-1.10946e-20
0.000481427
-1.65026e-19
-1.29748e-21
-1.00586e-19
-5.12906e-21
0.000454711
-1.34315e-19
-2.07228e-21
-7.98271e-20
-9.73529e-22
0.000429351
-9.70186e-20
-2.94258e-21
-8.0898e-20
1.19074e-21
0.000405279
-9.27745e-20
-3.94642e-21
-7.76122e-20
1.58578e-21
0.000382433
-6.90839e-20
-3.71802e-21
-4.13795e-20
8.77995e-22
0.000360751
-3.1544e-20
-2.47894e-21
-8.1012e-20
-4.61127e-22
0.000340176
-3.11215e-20
-1.10047e-21
-8.36973e-20
-8.41976e-22
0.000320653
-3.2166e-20
1.15583e-23
-2.12092e-20
-3.27886e-22
0.000302128
3.70437e-21
1.30253e-21
-4.54861e-20
-9.23142e-22
0.000284552
1.67383e-20
1.19778e-21
-4.42722e-20
8.00534e-22
0.000267877
-1.89385e-20
1.1566e-21
-9.09786e-21
1.34274e-21
0.000252058
-8.03267e-21
1.99049e-21
-2.50013e-20
4.05371e-22
0.000237051
-1.97928e-20
2.78796e-21
-2.30825e-20
-6.56532e-22
0.000222815
-6.26559e-20
2.90824e-21
2.15841e-20
-6.42076e-22
0.000209311
-4.34137e-20
2.69873e-21
-1.14529e-21
-1.2371e-21
0.000196501
-4.66814e-20
2.03633e-21
-2.31e-21
-1.49711e-21
0.00018435
-2.60005e-20
1.30575e-21
1.51571e-20
-1.33023e-21
0.000172825
-2.05721e-20
9.17465e-22
-2.14116e-21
-1.15518e-21
0.000161893
-1.00853e-20
5.42585e-22
1.13233e-20
-1.0306e-21
0.000151523
6.25603e-21
2.51952e-22
-1.1687e-20
-1.09861e-21
0.000141688
7.8329e-21
-3.03078e-23
-2.3825e-20
-8.90505e-22
0.000132359
1.85199e-20
-2.10377e-22
-2.29472e-21
-6.13048e-22
0.000123512
1.88443e-20
-2.54053e-22
-8.44846e-21
-6.43599e-22
0.000115121
1.80677e-20
-2.88592e-22
-4.95046e-21
-5.3802e-22
0.000107165
2.05719e-20
-3.16893e-22
2.56077e-21
-4.77676e-22
9.96218e-05
3.57895e-20
-3.98284e-22
-1.03761e-20
-4.80846e-22
9.24721e-05
2.30649e-20
-5.41481e-22
-1.14651e-20
-3.95902e-22
8.56977e-05
-7.78279e-21
-6.22274e-22
-1.12306e-20
-3.22811e-22
7.92821e-05
-1.40041e-21
-6.06049e-22
-1.15042e-20
-2.84724e-22
7.32104e-05
6.11182e-21
-6.05471e-22
-1.28422e-20
-2.66001e-22
6.74693e-05
7.27685e-21
-6.27287e-22
-7.21717e-21
-2.36895e-22
6.20472e-05
-1.10029e-20
-6.16184e-22
-7.21749e-21
-2.09539e-22
5.69339e-05
-1.04622e-20
-5.76012e-22
-8.50649e-21
-1.74684e-22
5.21208e-05
-1.3987e-20
-5.26901e-22
-8.4832e-22
-1.53547e-22
4.76004e-05
-2.10121e-20
-4.82131e-22
5.23195e-21
-1.3459e-22
4.33659e-05
-1.67874e-20
-4.23918e-22
2.65706e-21
-1.16474e-22
3.94111e-05
-1.11676e-20
-3.622e-22
3.23183e-21
-9.93743e-23
3.57297e-05
-1.02359e-20
-3.20129e-22
1.18319e-21
-9.55412e-23
3.23146e-05
-6.95906e-21
-2.79094e-22
-7.21957e-22
-9.33101e-23
2.91579e-05
-1.24137e-20
-2.47987e-22
-1.88529e-21
-8.53799e-23
2.62503e-05
-1.26479e-20
-2.1369e-22
-9.02907e-22
-7.75524e-23
2.35813e-05
-1.14225e-20
-1.84441e-22
3.77494e-22
-6.77798e-23
2.1139e-05
-1.00626e-20
-1.60468e-22
4.86413e-22
-6.11576e-23
1.89104e-05
-1.02642e-20
-1.40154e-22
-7.01702e-22
-5.49293e-23
1.6882e-05
-9.00207e-21
-1.17046e-22
-1.48813e-22
-5.12972e-23
1.50398e-05
-4.74733e-21
-9.72516e-23
-5.29916e-22
-4.70493e-23
1.33698e-05
-2.81855e-21
-8.21479e-23
1.0227e-22
-4.41365e-23
1.18585e-05
-3.05816e-21
-6.98341e-23
-1.42325e-21
-4.09976e-23
1.04928e-05
-9.34909e-22
-5.79576e-23
-2.16332e-21
-3.87418e-23
9.26015e-06
-3.31865e-23
-4.86236e-23
-1.93961e-21
-3.53021e-23
8.14895e-06
6.82116e-24
-4.08777e-23
-3.02363e-21
-3.23669e-23
7.14833e-06
-9.77935e-22
-3.47106e-23
-8.07167e-22
-2.80613e-23
6.24824e-06
-9.2011e-22
-2.91241e-23
-1.24012e-21
-2.48623e-23
5.43946e-06
-6.01453e-22
-2.43705e-23
-8.36143e-22
-2.19424e-23
4.7135e-06
-1.44176e-21
-2.01897e-23
-3.36921e-22
-1.95209e-23
4.06263e-06
-9.09773e-23
-1.65216e-23
-5.37017e-22
-1.73826e-23
3.47977e-06
-6.3519e-24
-1.39521e-23
-1.67222e-22
-1.5105e-23
2.95847e-06
2.69376e-22
-1.19085e-23
-5.8406e-22
-1.30334e-23
2.49288e-06
-3.29729e-23
-1.04122e-23
2.24159e-22
-1.11406e-23
2.07764e-06
1.30911e-22
-8.97651e-24
-1.03459e-22
-9.68386e-24
1.70792e-06
2.78485e-22
-7.77722e-24
-4.75001e-23
-8.3801e-24
1.37929e-06
1.59178e-22
-6.7873e-24
-3.8804e-23
-7.30091e-24
1.08776e-06
-8.81575e-23
-5.90074e-24
2.13688e-24
-6.36581e-24
8.29683e-07
-3.8636e-23
-5.14619e-24
-8.27027e-23
-5.52726e-24
6.01771e-07
-2.30908e-23
-4.47926e-24
-1.78927e-23
-4.78844e-24
4.01021e-07
3.48506e-23
-3.89964e-24
-2.87771e-23
-4.1558e-24
2.2472e-07
-1.02731e-23
-3.39863e-24
3.58869e-24
-3.60993e-24
7.04068e-08
-1.69474e-24
-1.28085e-24
0.00262728
-2.83875e-19
-4.17848e-19
0.00250547
-4.64232e-19
-3.70687e-19
0.00238736
-5.64109e-19
-6.10962e-19
0.00227324
-2.93374e-19
-4.19198e-19
0.0021633
-4.20246e-19
-5.21575e-19
0.00205764
-7.69162e-19
-6.34569e-19
0.00195629
-6.41007e-19
-5.53826e-19
0.00185922
-5.95813e-19
-5.52642e-19
0.00176637
-5.59589e-19
-5.6527e-19
0.00167764
-6.05901e-19
-5.75857e-19
0.00159292
-7.86263e-19
-5.59803e-19
0.00151207
-5.88292e-19
-5.49373e-19
0.00143498
-4.72949e-19
-5.66235e-19
0.0013615
-3.99164e-19
-6.20981e-19
0.00129149
-3.69565e-19
-3.73885e-19
0.00122481
-4.12491e-19
-4.96284e-19
0.00116133
-5.94459e-19
-4.84247e-19
0.00110091
-5.07318e-19
-4.16241e-19
0.00104342
-4.02011e-19
-4.59582e-19
0.000988732
-3.35126e-19
-4.90285e-19
0.000936718
-3.40197e-19
-2.85678e-19
0.000887257
-3.03211e-19
-2.22435e-19
0.000840235
-2.96453e-19
-2.71077e-19
0.000795537
-3.06977e-19
-2.29323e-19
0.000753057
-4.98702e-20
-1.49408e-19
0.00071269
-1.05356e-19
-8.37375e-20
0.000674336
-1.12047e-20
-1.88407e-19
0.000637901
-2.11342e-19
-1.54511e-19
0.000603292
7.46526e-21
-1.794e-19
0.000570422
-5.9941e-20
-1.09996e-19
0.000539208
-3.33094e-20
-1.88147e-19
0.000509568
-1.01934e-19
-2.00462e-20
0.000481427
-9.32696e-20
-6.26373e-21
0.000454711
-6.30964e-20
-2.71519e-20
0.000429351
-5.42607e-20
-5.42105e-20
0.000405279
-5.48259e-20
-6.19712e-20
0.000382433
-3.66081e-20
-7.31354e-20
0.000360751
-2.77997e-21
-1.26993e-19
0.000340176
3.4916e-21
-9.67301e-20
0.000320653
1.00256e-20
-7.78471e-20
0.000302128
-4.37084e-20
9.23807e-21
0.000284552
-3.91485e-20
-4.26518e-20
0.000267877
-2.14846e-20
-5.73817e-20
0.000252058
-5.0844e-21
-7.15486e-20
0.000237051
-5.04996e-20
-3.48902e-20
0.000222815
-1.0044e-19
-5.0374e-20
0.000209311
-1.12588e-19
-5.44117e-20
0.000196501
-1.15675e-19
-4.67452e-20
0.00018435
-5.45824e-20
-2.10227e-20
0.000172825
-6.49298e-20
-2.5413e-20
0.000161893
-6.72123e-20
-4.64112e-20
0.000151523
-6.78883e-20
-4.17398e-20
0.000141688
-6.82724e-20
-3.76466e-20
0.000132359
-4.44177e-20
-4.92698e-20
0.000123512
-4.68362e-20
-2.31072e-20
0.000115121
-4.20478e-20
-2.66872e-20
0.000107165
-3.60815e-20
-3.33236e-20
9.96218e-05
-2.39905e-20
-3.63274e-20
9.24721e-05
-1.6358e-20
-4.01051e-20
8.56977e-05
-1.88971e-20
-3.97009e-20
7.92821e-05
-1.61024e-20
-3.7427e-20
7.32104e-05
-1.63279e-20
-2.96428e-20
6.74693e-05
-2.05201e-21
-2.48246e-20
6.20472e-05
-4.69275e-21
-1.69934e-20
5.69339e-05
-5.50887e-22
-1.98553e-20
5.21208e-05
-9.95336e-21
-1.60558e-20
4.76004e-05
-1.30723e-20
-8.1664e-21
4.33659e-05
-7.9364e-21
-5.6932e-21
3.94111e-05
-1.26412e-20
-9.32178e-21
3.57297e-05
-8.70927e-21
-8.34539e-21
3.23146e-05
-9.76149e-21
-6.01832e-21
2.91579e-05
-8.64489e-21
-6.88498e-21
2.62503e-05
-9.52577e-21
-1.55697e-21
2.35813e-05
-9.5321e-21
-4.5372e-21
2.1139e-05
-9.32347e-21
-4.70698e-21
1.89104e-05
-3.31504e-21
-4.75054e-21
1.6882e-05
-2.68414e-21
-3.37159e-22
1.50398e-05
-1.41048e-21
-3.08271e-21
1.33698e-05
-9.1696e-22
-2.39115e-21
1.18585e-05
6.62698e-22
-5.30771e-21
1.04928e-05
3.24968e-22
-3.10652e-21
9.26015e-06
3.3108e-22
-3.555e-21
8.14895e-06
-1.43911e-21
-8.98077e-22
7.14833e-06
-2.12087e-21
4.53568e-23
6.24824e-06
-2.02423e-21
2.06174e-22
5.43946e-06
-5.1383e-22
-4.10988e-22
4.7135e-06
1.18049e-22
-5.33718e-22
4.06263e-06
-1.11796e-23
-1.25676e-22
3.47977e-06
8.75936e-23
-8.78379e-23
2.95847e-06
-3.58284e-22
-9.16925e-23
2.49288e-06
3.02442e-22
-3.45707e-22
2.07764e-06
3.46975e-22
-2.8704e-22
1.70792e-06
3.38932e-22
-3.45498e-22
1.37929e-06
4.03146e-22
-3.33882e-22
1.08776e-06
-4.81753e-23
-8.02471e-23
8.29683e-07
2.0404e-23
-3.84169e-23
6.01771e-07
-5.55346e-24
-2.43857e-23
4.01021e-07
1.35073e-23
-3.3359e-23
2.2472e-07
3.92317e-24
1.49966e-25
7.04068e-08
)
;

boundaryField
{
    walls
    {
        type            calculated;
        value           uniform 0;
    }
    inlet
    {
        type            cyclic;
        value           nonuniform List<scalar> 
400
(
-7.04068e-08
-2.24721e-07
-4.01021e-07
-6.0177e-07
-8.29684e-07
-1.08776e-06
-1.37929e-06
-1.70791e-06
-2.07764e-06
-2.49288e-06
-2.95847e-06
-3.47977e-06
-4.06263e-06
-4.7135e-06
-5.43946e-06
-6.24824e-06
-7.14832e-06
-8.14895e-06
-9.26015e-06
-1.04928e-05
-1.18585e-05
-1.33698e-05
-1.50398e-05
-1.6882e-05
-1.89104e-05
-2.1139e-05
-2.35813e-05
-2.62503e-05
-2.91579e-05
-3.23146e-05
-3.57297e-05
-3.94111e-05
-4.33659e-05
-4.76004e-05
-5.21208e-05
-5.69339e-05
-6.20472e-05
-6.74693e-05
-7.32104e-05
-7.92821e-05
-8.56977e-05
-9.24721e-05
-9.96218e-05
-0.000107165
-0.000115121
-0.000123512
-0.000132359
-0.000141688
-0.000151523
-0.000161893
-0.000172825
-0.00018435
-0.000196501
-0.000209311
-0.000222815
-0.000237051
-0.000252058
-0.000267877
-0.000284552
-0.000302128
-0.000320653
-0.000340176
-0.000360751
-0.000382433
-0.000405279
-0.000429351
-0.000454711
-0.000481427
-0.000509568
-0.000539208
-0.000570422
-0.000603292
-0.000637901
-0.000674336
-0.00071269
-0.000753057
-0.000795537
-0.000840235
-0.000887257
-0.000936718
-0.000988732
-0.00104342
-0.00110091
-0.00116133
-0.00122481
-0.00129149
-0.0013615
-0.00143498
-0.00151207
-0.00159292
-0.00167764
-0.00176637
-0.00185922
-0.00195629
-0.00205764
-0.0021633
-0.00227324
-0.00238736
-0.00250547
-0.00262728
-7.04068e-08
-2.24721e-07
-4.01021e-07
-6.0177e-07
-8.29684e-07
-1.08776e-06
-1.37929e-06
-1.70791e-06
-2.07764e-06
-2.49288e-06
-2.95847e-06
-3.47977e-06
-4.06263e-06
-4.7135e-06
-5.43946e-06
-6.24824e-06
-7.14832e-06
-8.14895e-06
-9.26015e-06
-1.04928e-05
-1.18585e-05
-1.33698e-05
-1.50398e-05
-1.6882e-05
-1.89104e-05
-2.1139e-05
-2.35813e-05
-2.62503e-05
-2.91579e-05
-3.23146e-05
-3.57297e-05
-3.94111e-05
-4.33659e-05
-4.76004e-05
-5.21208e-05
-5.69339e-05
-6.20472e-05
-6.74693e-05
-7.32104e-05
-7.92821e-05
-8.56977e-05
-9.24721e-05
-9.96218e-05
-0.000107165
-0.000115121
-0.000123512
-0.000132359
-0.000141688
-0.000151523
-0.000161893
-0.000172825
-0.00018435
-0.000196501
-0.000209311
-0.000222815
-0.000237051
-0.000252058
-0.000267877
-0.000284552
-0.000302128
-0.000320653
-0.000340176
-0.000360751
-0.000382433
-0.000405279
-0.000429351
-0.000454711
-0.000481427
-0.000509568
-0.000539208
-0.000570422
-0.000603292
-0.000637901
-0.000674336
-0.00071269
-0.000753057
-0.000795537
-0.000840235
-0.000887257
-0.000936718
-0.000988732
-0.00104342
-0.00110091
-0.00116133
-0.00122481
-0.00129149
-0.0013615
-0.00143498
-0.00151207
-0.00159292
-0.00167764
-0.00176637
-0.00185922
-0.00195629
-0.00205764
-0.0021633
-0.00227324
-0.00238736
-0.00250547
-0.00262728
-0.00262728
-0.00250547
-0.00238736
-0.00227324
-0.0021633
-0.00205764
-0.00195629
-0.00185922
-0.00176637
-0.00167764
-0.00159292
-0.00151207
-0.00143498
-0.0013615
-0.00129149
-0.00122481
-0.00116133
-0.00110091
-0.00104342
-0.000988732
-0.000936718
-0.000887257
-0.000840235
-0.000795537
-0.000753057
-0.00071269
-0.000674336
-0.000637901
-0.000603292
-0.000570422
-0.000539208
-0.000509568
-0.000481427
-0.000454711
-0.000429351
-0.000405279
-0.000382433
-0.000360751
-0.000340176
-0.000320653
-0.000302128
-0.000284552
-0.000267877
-0.000252058
-0.000237051
-0.000222815
-0.000209311
-0.000196501
-0.00018435
-0.000172825
-0.000161893
-0.000151523
-0.000141688
-0.000132359
-0.000123512
-0.000115121
-0.000107165
-9.96218e-05
-9.24721e-05
-8.56977e-05
-7.92821e-05
-7.32104e-05
-6.74693e-05
-6.20472e-05
-5.69339e-05
-5.21208e-05
-4.76004e-05
-4.33659e-05
-3.94111e-05
-3.57297e-05
-3.23146e-05
-2.91579e-05
-2.62503e-05
-2.35813e-05
-2.1139e-05
-1.89104e-05
-1.6882e-05
-1.50398e-05
-1.33698e-05
-1.18585e-05
-1.04928e-05
-9.26015e-06
-8.14895e-06
-7.14833e-06
-6.24824e-06
-5.43946e-06
-4.7135e-06
-4.06263e-06
-3.47977e-06
-2.95847e-06
-2.49288e-06
-2.07764e-06
-1.70792e-06
-1.37929e-06
-1.08776e-06
-8.29683e-07
-6.01771e-07
-4.01021e-07
-2.2472e-07
-7.04068e-08
-0.00262728
-0.00250547
-0.00238736
-0.00227324
-0.0021633
-0.00205764
-0.00195629
-0.00185922
-0.00176637
-0.00167764
-0.00159292
-0.00151207
-0.00143498
-0.0013615
-0.00129149
-0.00122481
-0.00116133
-0.00110091
-0.00104342
-0.000988732
-0.000936718
-0.000887257
-0.000840235
-0.000795537
-0.000753057
-0.00071269
-0.000674336
-0.000637901
-0.000603292
-0.000570422
-0.000539208
-0.000509568
-0.000481427
-0.000454711
-0.000429351
-0.000405279
-0.000382433
-0.000360751
-0.000340176
-0.000320653
-0.000302128
-0.000284552
-0.000267877
-0.000252058
-0.000237051
-0.000222815
-0.000209311
-0.000196501
-0.00018435
-0.000172825
-0.000161893
-0.000151523
-0.000141688
-0.000132359
-0.000123512
-0.000115121
-0.000107165
-9.96218e-05
-9.24721e-05
-8.56977e-05
-7.92821e-05
-7.32104e-05
-6.74693e-05
-6.20472e-05
-5.69339e-05
-5.21208e-05
-4.76004e-05
-4.33659e-05
-3.94111e-05
-3.57297e-05
-3.23146e-05
-2.91579e-05
-2.62503e-05
-2.35813e-05
-2.1139e-05
-1.89104e-05
-1.6882e-05
-1.50398e-05
-1.33698e-05
-1.18585e-05
-1.04928e-05
-9.26015e-06
-8.14895e-06
-7.14833e-06
-6.24824e-06
-5.43946e-06
-4.7135e-06
-4.06263e-06
-3.47977e-06
-2.95847e-06
-2.49288e-06
-2.07764e-06
-1.70792e-06
-1.37929e-06
-1.08776e-06
-8.29683e-07
-6.01771e-07
-4.01021e-07
-2.2472e-07
-7.04068e-08
)
;
    }
    outlet
    {
        type            cyclic;
        value           nonuniform List<scalar> 
400
(
7.04068e-08
2.24721e-07
4.01021e-07
6.0177e-07
8.29684e-07
1.08776e-06
1.37929e-06
1.70791e-06
2.07764e-06
2.49288e-06
2.95847e-06
3.47977e-06
4.06263e-06
4.7135e-06
5.43946e-06
6.24824e-06
7.14832e-06
8.14895e-06
9.26015e-06
1.04928e-05
1.18585e-05
1.33698e-05
1.50398e-05
1.6882e-05
1.89104e-05
2.1139e-05
2.35813e-05
2.62503e-05
2.91579e-05
3.23146e-05
3.57297e-05
3.94111e-05
4.33659e-05
4.76004e-05
5.21208e-05
5.69339e-05
6.20472e-05
6.74693e-05
7.32104e-05
7.92821e-05
8.56977e-05
9.24721e-05
9.96218e-05
0.000107165
0.000115121
0.000123512
0.000132359
0.000141688
0.000151523
0.000161893
0.000172825
0.00018435
0.000196501
0.000209311
0.000222815
0.000237051
0.000252058
0.000267877
0.000284552
0.000302128
0.000320653
0.000340176
0.000360751
0.000382433
0.000405279
0.000429351
0.000454711
0.000481427
0.000509568
0.000539208
0.000570422
0.000603292
0.000637901
0.000674336
0.00071269
0.000753057
0.000795537
0.000840235
0.000887257
0.000936718
0.000988732
0.00104342
0.00110091
0.00116133
0.00122481
0.00129149
0.0013615
0.00143498
0.00151207
0.00159292
0.00167764
0.00176637
0.00185922
0.00195629
0.00205764
0.0021633
0.00227324
0.00238736
0.00250547
0.00262728
7.04068e-08
2.24721e-07
4.01021e-07
6.0177e-07
8.29684e-07
1.08776e-06
1.37929e-06
1.70791e-06
2.07764e-06
2.49288e-06
2.95847e-06
3.47977e-06
4.06263e-06
4.7135e-06
5.43946e-06
6.24824e-06
7.14832e-06
8.14895e-06
9.26015e-06
1.04928e-05
1.18585e-05
1.33698e-05
1.50398e-05
1.6882e-05
1.89104e-05
2.1139e-05
2.35813e-05
2.62503e-05
2.91579e-05
3.23146e-05
3.57297e-05
3.94111e-05
4.33659e-05
4.76004e-05
5.21208e-05
5.69339e-05
6.20472e-05
6.74693e-05
7.32104e-05
7.92821e-05
8.56977e-05
9.24721e-05
9.96218e-05
0.000107165
0.000115121
0.000123512
0.000132359
0.000141688
0.000151523
0.000161893
0.000172825
0.00018435
0.000196501
0.000209311
0.000222815
0.000237051
0.000252058
0.000267877
0.000284552
0.000302128
0.000320653
0.000340176
0.000360751
0.000382433
0.000405279
0.000429351
0.000454711
0.000481427
0.000509568
0.000539208
0.000570422
0.000603292
0.000637901
0.000674336
0.00071269
0.000753057
0.000795537
0.000840235
0.000887257
0.000936718
0.000988732
0.00104342
0.00110091
0.00116133
0.00122481
0.00129149
0.0013615
0.00143498
0.00151207
0.00159292
0.00167764
0.00176637
0.00185922
0.00195629
0.00205764
0.0021633
0.00227324
0.00238736
0.00250547
0.00262728
0.00262728
0.00250547
0.00238736
0.00227324
0.0021633
0.00205764
0.00195629
0.00185922
0.00176637
0.00167764
0.00159292
0.00151207
0.00143498
0.0013615
0.00129149
0.00122481
0.00116133
0.00110091
0.00104342
0.000988732
0.000936718
0.000887257
0.000840235
0.000795537
0.000753057
0.00071269
0.000674336
0.000637901
0.000603292
0.000570422
0.000539208
0.000509568
0.000481427
0.000454711
0.000429351
0.000405279
0.000382433
0.000360751
0.000340176
0.000320653
0.000302128
0.000284552
0.000267877
0.000252058
0.000237051
0.000222815
0.000209311
0.000196501
0.00018435
0.000172825
0.000161893
0.000151523
0.000141688
0.000132359
0.000123512
0.000115121
0.000107165
9.96218e-05
9.24721e-05
8.56977e-05
7.92821e-05
7.32104e-05
6.74693e-05
6.20472e-05
5.69339e-05
5.21208e-05
4.76004e-05
4.33659e-05
3.94111e-05
3.57297e-05
3.23146e-05
2.91579e-05
2.62503e-05
2.35813e-05
2.1139e-05
1.89104e-05
1.6882e-05
1.50398e-05
1.33698e-05
1.18585e-05
1.04928e-05
9.26015e-06
8.14895e-06
7.14833e-06
6.24824e-06
5.43946e-06
4.7135e-06
4.06263e-06
3.47977e-06
2.95847e-06
2.49288e-06
2.07764e-06
1.70792e-06
1.37929e-06
1.08776e-06
8.29683e-07
6.01771e-07
4.01021e-07
2.2472e-07
7.04068e-08
0.00262728
0.00250547
0.00238736
0.00227324
0.0021633
0.00205764
0.00195629
0.00185922
0.00176637
0.00167764
0.00159292
0.00151207
0.00143498
0.0013615
0.00129149
0.00122481
0.00116133
0.00110091
0.00104342
0.000988732
0.000936718
0.000887257
0.000840235
0.000795537
0.000753057
0.00071269
0.000674336