/*--------------------------------*- C++ -*----------------------------------*\
| =========                 |                                                 |
| \\      /  F ield         | OpenFOAM: The Open Source CFD Toolbox           |
|  \\    /   O peration     | Version:  2106                                  |
|   \\  /    A nd           | Website:  www.openfoam.com                      |
|    \\/     M anipulation  |                                                 |
\*---------------------------------------------------------------------------*/
FoamFile
{
    version     2.0;
    format      ascii;
    arch        "LSB;label=32;scalar=64";
    class       volSymmTensorField;
    location    "10050";
    object      turbulenceProperties:R;
}
// * * * * * * * * * * * * * * * * * * * * * * * * * * * * * * * * * * * * * //

dimensions      [0 2 -2 0 0 0 0];

internalField   nonuniform List<symmTensor> 
2000
(
(2.06981e-08 -7.31182e-14 -1.35327e-16 2.06981e-08 1.41737e-27 2.06981e-08)
(2.06981e-08 -7.31182e-14 -1.35327e-16 2.06981e-08 1.03954e-28 2.06981e-08)
(3.1038e-09 -6.31624e-14 -3.52908e-16 3.1038e-09 5.88878e-28 3.1038e-09)
(3.1038e-09 -6.31624e-14 -3.52908e-16 3.1038e-09 4.85865e-29 3.1038e-09)
(1.43047e-09 -8.61904e-14 -6.68187e-16 1.43047e-09 3.554e-28 1.43047e-09)
(1.43047e-09 -8.61904e-14 -6.68187e-16 1.43047e-09 8.05334e-30 1.43047e-09)
(2.35e-09 -3.01493e-13 -2.38094e-15 2.35e-09 6.35012e-28 2.35e-09)
(2.35e-09 -3.01493e-13 -2.38094e-15 2.35e-09 3.02776e-29 2.35e-09)
(5.38713e-09 -1.22448e-12 -9.8504e-15 5.38713e-09 3.10847e-27 5.38713e-09)
(5.38713e-09 -1.22448e-12 -9.8504e-15 5.38713e-09 1.32368e-28 5.38713e-09)
(1.13004e-08 -4.0614e-12 -3.3282e-14 1.13004e-08 1.08588e-26 1.13004e-08)
(1.13004e-08 -4.0614e-12 -3.3282e-14 1.13004e-08 4.72854e-28 1.13004e-08)
(2.12046e-08 -1.11659e-11 -9.32087e-14 2.12046e-08 3.06027e-26 2.12046e-08)
(2.12046e-08 -1.11659e-11 -9.32087e-14 2.12046e-08 1.39815e-27 2.12046e-08)
(3.64495e-08 -2.66363e-11 -2.26501e-13 3.64495e-08 7.41958e-26 3.64495e-08)
(3.64495e-08 -2.66363e-11 -2.26501e-13 3.64495e-08 3.57995e-27 3.64495e-08)
(5.86038e-08 -5.70798e-11 -4.94436e-13 5.86038e-08 1.62038e-25 5.86038e-08)
(5.86038e-08 -5.70798e-11 -4.94436e-13 5.86038e-08 8.21555e-27 5.86038e-08)
(8.94624e-08 -1.1257e-10 -9.93304e-13 8.94624e-08 3.25793e-25 8.94624e-08)
(8.94624e-08 -1.1257e-10 -9.93304e-13 8.94624e-08 1.73042e-26 8.94624e-08)
(1.3106e-07 -2.07838e-10 -1.86816e-12 1.3106e-07 6.13403e-25 1.3106e-07)
(1.3106e-07 -2.07838e-10 -1.86816e-12 1.3106e-07 3.40446e-26 1.3106e-07)
(1.85689e-07 -3.63726e-10 -3.33039e-12 1.85689e-07 1.09464e-24 1.85689e-07)
(1.85689e-07 -3.63726e-10 -3.33039e-12 1.85689e-07 6.33064e-26 1.85689e-07)
(2.5592e-07 -6.08966e-10 -5.67997e-12 2.5592e-07 1.86857e-24 2.5592e-07)
(2.5592e-07 -6.08966e-10 -5.67997e-12 2.5592e-07 1.12351e-25 2.5592e-07)
(3.44624e-07 -9.8232e-10 -9.33334e-12 3.44624e-07 3.07232e-24 3.44624e-07)
(3.44624e-07 -9.8232e-10 -9.33334e-12 3.44624e-07 1.91739e-25 3.44624e-07)
(4.54996e-07 -1.53515e-09 -1.48582e-11 4.54996e-07 4.89197e-24 4.54996e-07)
(4.54996e-07 -1.53515e-09 -1.48582e-11 4.54996e-07 3.16279e-25 4.54996e-07)
(5.90585e-07 -2.33447e-09 -2.30163e-11 5.90585e-07 7.57819e-24 5.90585e-07)
(5.90585e-07 -2.33447e-09 -2.30163e-11 5.90585e-07 5.06909e-25 5.90585e-07)
(7.55315e-07 -3.46662e-09 -3.48164e-11 7.55315e-07 1.14614e-23 7.55315e-07)
(7.55315e-07 -3.46662e-09 -3.48164e-11 7.55315e-07 7.9152e-25 7.55315e-07)
(9.53526e-07 -5.04155e-09 -5.1579e-11 9.53526e-07 1.69717e-23 9.53526e-07)
(9.53526e-07 -5.04155e-09 -5.1579e-11 9.53526e-07 1.20889e-24 9.53526e-07)
(1.19e-06 -7.19788e-09 -7.50143e-11 1.19e-06 2.3759e-23 1.19e-06)
(1.19e-06 -7.19788e-09 -7.50143e-11 1.19e-06 1.81243e-24 1.19e-06)
(1.46999e-06 -1.01089e-08 -1.07318e-10 1.46999e-06 3.20252e-23 1.46999e-06)
(1.46999e-06 -1.01089e-08 -1.07318e-10 1.46999e-06 2.57481e-24 1.46999e-06)
(1.79929e-06 -1.39894e-08 -1.51286e-10 1.79929e-06 4.42913e-23 1.79929e-06)
(1.79929e-06 -1.39894e-08 -1.51286e-10 1.79929e-06 3.80857e-25 1.79929e-06)
(2.18422e-06 -1.91039e-08 -2.10453e-10 2.18422e-06 6.18294e-23 2.18422e-06)
(2.18422e-06 -1.91039e-08 -2.10453e-10 2.18422e-06 -3.87041e-24 2.18422e-06)
(2.63173e-06 -2.57763e-08 -2.89257e-10 2.63173e-06 8.52786e-23 2.63173e-06)
(2.63173e-06 -2.57763e-08 -2.89257e-10 2.63173e-06 -5.21466e-24 2.63173e-06)
(3.14941e-06 -3.44002e-08 -3.93237e-10 3.14941e-06 1.16337e-22 3.14941e-06)
(3.14941e-06 -3.44002e-08 -3.93237e-10 3.14941e-06 -6.5517e-24 3.14941e-06)
(3.74556e-06 -4.54522e-08 -5.29273e-10 3.74556e-06 1.57098e-22 3.74556e-06)
(3.74556e-06 -4.54522e-08 -5.29273e-10 3.74556e-06 -8.07233e-24 3.74556e-06)
(4.4292e-06 -5.95062e-08 -7.05858e-10 4.4292e-06 2.10179e-22 4.4292e-06)
(4.4292e-06 -5.95062e-08 -7.05858e-10 4.4292e-06 -9.75008e-24 4.4292e-06)
(5.21022e-06 -7.72502e-08 -9.33438e-10 5.21022e-06 2.75287e-22 5.21022e-06)
(5.21022e-06 -7.72502e-08 -9.33438e-10 5.21022e-06 -1.15931e-23 5.21022e-06)
(6.09933e-06 -9.95058e-08 -1.2248e-09 6.09933e-06 1.79087e-22 6.09933e-06)
(6.09933e-06 -9.95058e-08 -1.2248e-09 6.09933e-06 -1.34463e-23 6.09933e-06)
(7.10822e-06 -1.2725e-07 -1.59553e-09 7.10822e-06 1.12985e-22 7.10822e-06)
(7.10822e-06 -1.2725e-07 -1.59553e-09 7.10822e-06 -1.50401e-23 7.10822e-06)
(8.24956e-06 -1.61641e-07 -2.06457e-09 8.24956e-06 1.40635e-22 8.24956e-06)
(8.24956e-06 -1.61641e-07 -2.06457e-09 8.24956e-06 -1.6182e-23 8.24956e-06)
(9.53714e-06 -2.04048e-07 -2.65485e-09 9.53714e-06 1.73749e-22 9.53714e-06)
(9.53714e-06 -2.04048e-07 -2.65485e-09 9.53714e-06 -1.67886e-23 9.53714e-06)
(1.09859e-05 -2.5608e-07 -3.39402e-09 1.09859e-05 2.13522e-22 1.09859e-05)
(1.09859e-05 -2.5608e-07 -3.39402e-09 1.09859e-05 -1.65112e-23 1.09859e-05)
(1.2612e-05 -3.19631e-07 -4.31535e-09 1.2612e-05 2.61041e-22 1.2612e-05)
(1.2612e-05 -3.19631e-07 -4.31535e-09 1.2612e-05 -1.43439e-23 1.2612e-05)
(1.4433e-05 -3.96913e-07 -5.45874e-09 1.4433e-05 3.17743e-22 1.4433e-05)
(1.4433e-05 -3.96913e-07 -5.45874e-09 1.4433e-05 -9.99067e-24 1.4433e-05)
(1.64678e-05 -4.90513e-07 -6.87191e-09 1.64678e-05 3.8528e-22 1.64678e-05)
(1.64678e-05 -4.90513e-07 -6.87191e-09 1.64678e-05 -2.54127e-24 1.64678e-05)
(1.8737e-05 -6.03442e-07 -8.61176e-09 1.8737e-05 4.65334e-22 1.8737e-05)
(1.8737e-05 -6.03442e-07 -8.61176e-09 1.8737e-05 9.83339e-24 1.8737e-05)
(2.12627e-05 -7.392e-07 -1.0746e-08 2.12627e-05 5.59832e-22 2.12627e-05)
(2.12627e-05 -7.392e-07 -1.0746e-08 2.12627e-05 3.47144e-23 2.12627e-05)
(2.40688e-05 -9.0184e-07 -1.3355e-08 2.40688e-05 6.69832e-22 2.40688e-05)
(2.40688e-05 -9.0184e-07 -1.3355e-08 2.40688e-05 4.64481e-23 2.40688e-05)
(2.71812e-05 -1.09605e-06 -1.65339e-08 2.71812e-05 7.99108e-22 2.71812e-05)
(2.71812e-05 -1.09605e-06 -1.65339e-08 2.71812e-05 9.1619e-23 2.71812e-05)
(3.06276e-05 -1.32725e-06 -2.0395e-08 3.06276e-05 9.50846e-22 3.06276e-05)
(3.06276e-05 -1.32725e-06 -2.0395e-08 3.06276e-05 1.41643e-22 3.06276e-05)
(3.4438e-05 -1.60166e-06 -2.50709e-08 3.4438e-05 1.1278e-21 3.4438e-05)
(3.4438e-05 -1.60166e-06 -2.50709e-08 3.4438e-05 2.11028e-22 3.4438e-05)
(3.86446e-05 -1.92644e-06 -3.07173e-08 3.86446e-05 1.33599e-21 3.86446e-05)
(3.86446e-05 -1.92644e-06 -3.07173e-08 3.86446e-05 3.00646e-22 3.86446e-05)
(4.3282e-05 -2.30979e-06 -3.7517e-08 4.3282e-05 1.57814e-21 4.3282e-05)
(4.3282e-05 -2.30979e-06 -3.7517e-08 4.3282e-05 4.17505e-22 4.3282e-05)
(4.83876e-05 -2.76111e-06 -4.56841e-08 4.83876e-05 1.85906e-21 4.83876e-05)
(4.83876e-05 -2.76111e-06 -4.56841e-08 4.83876e-05 5.7331e-22 4.83876e-05)
(5.40011e-05 -3.2911e-06 -5.54687e-08 5.40011e-05 2.18995e-21 5.40011e-05)
(5.40011e-05 -3.2911e-06 -5.54687e-08 5.40011e-05 7.76222e-22 5.40011e-05)
(6.01656e-05 -3.91197e-06 -6.71628e-08 6.01656e-05 2.56709e-21 6.01656e-05)
(6.01656e-05 -3.91197e-06 -6.71628e-08 6.01656e-05 1.02955e-21 6.01656e-05)
(6.6927e-05 -4.6376e-06 -8.11057e-08 6.6927e-05 2.99211e-21 6.6927e-05)
(6.6927e-05 -4.6376e-06 -8.11057e-08 6.6927e-05 1.34401e-21 6.6927e-05)
(7.43343e-05 -5.48373e-06 -9.76918e-08 7.43343e-05 3.50087e-21 7.43343e-05)
(7.43343e-05 -5.48373e-06 -9.76918e-08 7.43343e-05 1.74853e-21 7.43343e-05)
(8.24401e-05 -6.46817e-06 -1.17378e-07 8.24401e-05 4.09848e-21 8.24401e-05)
(8.24401e-05 -6.46817e-06 -1.17378e-07 8.24401e-05 2.26229e-21 8.24401e-05)
(9.13006e-05 -7.61104e-06 -1.40693e-07 9.13006e-05 4.72628e-21 9.13006e-05)
(9.13006e-05 -7.61104e-06 -1.40693e-07 9.13006e-05 2.88256e-21 9.13006e-05)
(0.000100976 -8.93502e-06 -1.68246e-07 0.000100976 5.41288e-21 0.000100976)
(0.000100976 -8.93502e-06 -1.68246e-07 0.000100976 3.63493e-21 0.000100976)
(0.000111529 -1.04656e-05 -2.00739e-07 0.000111529 6.14184e-21 0.000111529)
(0.000111529 -1.04656e-05 -2.00739e-07 0.000111529 4.60406e-21 0.000111529)
(0.000123028 -1.22313e-05 -2.38978e-07 0.000123028 7.12636e-21 0.000123028)
(0.000123028 -1.22313e-05 -2.38978e-07 0.000123028 5.75777e-21 0.000123028)
(0.000135546 -1.4264e-05 -2.83888e-07 0.000135546 8.33414e-21 0.000135546)
(0.000135546 -1.4264e-05 -2.83888e-07 0.000135546 3.85175e-21 0.000135546)
(0.000149159 -1.65995e-05 -3.36523e-07 0.000149159 3.66406e-21 0.000149159)
(0.000149159 -1.65995e-05 -3.36523e-07 0.000149159 4.65339e-22 0.000149159)
(0.000163947 -1.92773e-05 -3.98087e-07 0.000163947 8.6331e-22 0.000163947)
(0.000163947 -1.92773e-05 -3.98087e-07 0.000163947 -2.0559e-22 0.000163947)
(0.000179996 -2.23412e-05 -4.69949e-07 0.000179996 4.82468e-22 0.000179996)
(0.000179996 -2.23412e-05 -4.69949e-07 0.000179996 -6.1592e-22 0.000179996)
(0.000197397 -2.58399e-05 -5.53659e-07 0.000197397 -7.29809e-22 0.000197397)
(0.000197397 -2.58399e-05 -5.53659e-07 0.000197397 -1.12654e-21 0.000197397)
(0.000216244 -2.98266e-05 -6.50972e-07 0.000216244 -2.03565e-21 0.000216244)
(0.000216244 -2.98266e-05 -6.50972e-07 0.000216244 -1.80767e-21 0.000216244)
(0.000236636 -3.43601e-05 -7.63863e-07 0.000236636 -3.73381e-21 0.000236636)
(0.000236636 -3.43601e-05 -7.63863e-07 0.000236636 -2.67005e-21 0.000236636)
(0.000258678 -3.95042e-05 -8.94549e-07 0.000258678 -5.72845e-21 0.000258678)
(0.000258678 -3.95042e-05 -8.94549e-07 0.000258678 -3.7939e-21 0.000258678)
(0.000282479 -4.53286e-05 -1.04552e-06 0.000282479 -8.10292e-21 0.000282479)
(0.000282479 -4.53286e-05 -1.04552e-06 0.000282479 -5.4019e-21 0.000282479)
(0.00030815 -5.19088e-05 -1.21953e-06 0.00030815 -1.11824e-20 0.00030815)
(0.00030815 -5.19088e-05 -1.21953e-06 0.00030815 -7.39607e-21 0.00030815)
(0.00033581 -5.93261e-05 -1.41966e-06 0.00033581 -1.52827e-20 0.00033581)
(0.00033581 -5.93261e-05 -1.41966e-06 0.00033581 -9.54889e-21 0.00033581)
(0.000365579 -6.76675e-05 -1.64932e-06 0.000365579 -2.01826e-20 0.000365579)
(0.000365579 -6.76675e-05 -1.64932e-06 0.000365579 -1.20932e-20 0.000365579)
(0.000397579 -7.70259e-05 -1.91223e-06 0.000397579 -2.57961e-20 0.000397579)
(0.000397579 -7.70259e-05 -1.91223e-06 0.000397579 -1.4894e-20 0.000397579)
(0.000431939 -8.74997e-05 -2.21251e-06 0.000431939 -3.29976e-20 0.000431939)
(0.000431939 -8.74997e-05 -2.21251e-06 0.000431939 -1.81722e-20 0.000431939)
(0.000468785 -9.91921e-05 -2.55461e-06 0.000468785 -4.19751e-20 0.000468785)
(0.000468785 -9.91921e-05 -2.55461e-06 0.000468785 -1.76887e-20 0.000468785)
(0.000508247 -0.000112211 -2.94339e-06 0.000508247 -5.1604e-20 0.000508247)
(0.000508247 -0.000112211 -2.94339e-06 0.000508247 1.79594e-20 0.000508247)
(0.000550455 -0.000126668 -3.38406e-06 0.000550455 -6.27374e-20 0.000550455)
(0.000550455 -0.000126668 -3.38406e-06 0.000550455 2.27048e-20 0.000550455)
(0.000595536 -0.000142678 -3.88221e-06 0.000595536 -7.60089e-20 0.000595536)
(0.000595536 -0.000142678 -3.88221e-06 0.000595536 2.68825e-20 0.000595536)
(0.000643618 -0.000160357 -4.44379e-06 0.000643618 -9.00729e-20 0.000643618)
(0.000643618 -0.000160357 -4.44379e-06 0.000643618 3.11693e-20 0.000643618)
(0.000694822 -0.00017982 -5.07509e-06 0.000694822 -1.05408e-19 0.000694822)
(0.000694822 -0.00017982 -5.07509e-06 0.000694822 3.58614e-20 0.000694822)
(0.000749265 -0.000201183 -5.78269e-06 0.000749265 -1.23722e-19 0.000749265)
(0.000749265 -0.000201183 -5.78269e-06 0.000749265 4.18279e-20 0.000749265)
(0.000807059 -0.000224559 -6.57344e-06 0.000807059 -1.44032e-19 0.000807059)
(0.000807059 -0.000224559 -6.57344e-06 0.000807059 4.88476e-20 0.000807059)
(0.000868304 -0.000250053 -7.45439e-06 0.000868304 -1.65407e-19 0.000868304)
(0.000868304 -0.000250053 -7.45439e-06 0.000868304 5.60571e-20 0.000868304)
(0.000933092 -0.000277765 -8.43275e-06 0.000933092 -1.89529e-19 0.000933092)
(0.000933092 -0.000277765 -8.43275e-06 0.000933092 6.32642e-20 0.000933092)
(0.0010015 -0.000307786 -9.5158e-06 0.0010015 -2.16409e-19 0.0010015)
(0.0010015 -0.000307786 -9.5158e-06 0.0010015 7.23099e-20 0.0010015)
(0.0010736 -0.000340194 -1.07108e-05 0.0010736 -2.45725e-19 0.0010736)
(0.0010736 -0.000340194 -1.07108e-05 0.0010736 8.261e-20 0.0010736)
(0.00114944 -0.000375055 -1.20249e-05 0.00114944 -2.78954e-19 0.00114944)
(0.00114944 -0.000375055 -1.20249e-05 0.00114944 9.3564e-20 0.00114944)
(0.00122904 -0.000412418 -1.34652e-05 0.00122904 -3.1505e-19 0.00122904)
(0.00122904 -0.000412418 -1.34652e-05 0.00122904 1.07895e-19 0.00122904)
(0.00131242 -0.000452314 -1.50382e-05 0.00131242 -3.50101e-19 0.00131242)
(0.00131242 -0.000452314 -1.50382e-05 0.00131242 1.2337e-19 0.00131242)
(0.00139957 -0.000494756 -1.67503e-05 0.00139957 -3.82054e-19 0.00139957)
(0.00139957 -0.000494756 -1.67503e-05 0.00139957 1.41004e-19 0.00139957)
(0.00149046 -0.000539734 -1.86073e-05 0.00149046 -4.15464e-19 0.00149046)
(0.00149046 -0.000539734 -1.86073e-05 0.00149046 1.58773e-19 0.00149046)
(0.00158503 -0.000587218 -2.06145e-05 0.00158503 -4.61883e-19 0.00158503)
(0.00158503 -0.000587218 -2.06145e-05 0.00158503 1.75047e-19 0.00158503)
(0.00168321 -0.000637154 -2.27763e-05 0.00168321 -5.12366e-19 0.00168321)
(0.00168321 -0.000637154 -2.27763e-05 0.00168321 1.92904e-19 0.00168321)
(0.0017849 -0.000689469 -2.50968e-05 0.0017849 -5.63665e-19 0.0017849)
(0.0017849 -0.000689469 -2.50968e-05 0.0017849 2.13455e-19 0.0017849)
(0.00188996 -0.000744063 -2.75789e-05 0.00188996 -6.21908e-19 0.00188996)
(0.00188996 -0.000744063 -2.75789e-05 0.00188996 2.35102e-19 0.00188996)
(0.00199826 -0.00080082 -3.0225e-05 0.00199826 -6.79753e-19 0.00199826)
(0.00199826 -0.00080082 -3.0225e-05 0.00199826 2.59554e-19 0.00199826)
(0.00210962 -0.0008596 -3.30364e-05 0.00210962 -7.36575e-19 0.00210962)
(0.00210962 -0.0008596 -3.30364e-05 0.00210962 2.94316e-19 0.00210962)
(0.00222384 -0.00092025 -3.60137e-05 0.00222384 -7.77981e-19 0.00222384)
(0.00222384 -0.00092025 -3.60137e-05 0.00222384 3.33332e-19 0.00222384)
(0.00234073 -0.000982597 -3.91566e-05 0.00234073 -8.02908e-19 0.00234073)
(0.00234073 -0.000982597 -3.91566e-05 0.00234073 3.65835e-19 0.00234073)
(0.00246004 -0.00104646 -4.24642e-05 0.00246004 -8.42708e-19 0.00246004)
(0.00246004 -0.00104646 -4.24642e-05 0.00246004 3.95505e-19 0.00246004)
(0.00258155 -0.00111164 -4.59347e-05 0.00258155 -8.8707e-19 0.00258155)
(0.00258155 -0.00111164 -4.59347e-05 0.00258155 4.38432e-19 0.00258155)
(0.00270498 -0.00117793 -4.95654e-05 0.00270498 -9.08787e-19 0.00270498)
(0.00270498 -0.00117793 -4.95654e-05 0.00270498 4.84251e-19 0.00270498)
(0.00283008 -0.00124514 -5.33534e-05 0.00283008 -9.26412e-19 0.00283008)
(0.00283008 -0.00124514 -5.33534e-05 0.00283008 5.26791e-19 0.00283008)
(0.00295658 -0.00131305 -5.72949e-05 0.00295658 -9.28393e-19 0.00295658)
(0.00295658 -0.00131305 -5.72949e-05 0.00295658 5.80271e-19 0.00295658)
(0.00308419 -0.00138145 -6.13859e-05 0.00308419 -9.17233e-19 0.00308419)
(0.00308419 -0.00138145 -6.13859e-05 0.00308419 6.27439e-19 0.00308419)
(0.00321263 -0.00145015 -6.56218e-05 0.00321263 -9.1452e-19 0.00321263)
(0.00321263 -0.00145015 -6.56218e-05 0.00321263 6.71379e-19 0.00321263)
(0.00334164 -0.00151893 -6.9998e-05 0.00334164 -9.01902e-19 0.00334164)
(0.00334164 -0.00151893 -6.9998e-05 0.00334164 7.42726e-19 0.00334164)
(0.00347093 -0.00158762 -7.45093e-05 0.00347093 -8.54158e-19 0.00347093)
(0.00347093 -0.00158762 -7.45093e-05 0.00347093 8.18335e-19 0.00347093)
(0.00360024 -0.00165602 -7.91509e-05 0.00360024 -7.96559e-19 0.00360024)
(0.00360024 -0.00165602 -7.91509e-05 0.00360024 8.71832e-19 0.00360024)
(0.00372929 -0.00172397 -8.39175e-05 0.00372929 -6.80882e-19 0.00372929)
(0.00372929 -0.00172397 -8.39175e-05 0.00372929 9.64728e-19 0.00372929)
(0.00385785 -0.00179131 -8.8804e-05 0.00385785 -4.93503e-19 0.00385785)
(0.00385785 -0.00179131 -8.8804e-05 0.00385785 1.0382e-18 0.00385785)
(0.00398567 -0.00185789 -9.38054e-05 0.00398567 -3.99199e-19 0.00398567)
(0.00398567 -0.00185789 -9.38054e-05 0.00398567 1.09321e-18 0.00398567)
(0.00411251 -0.00192357 -9.89169e-05 0.00411251 -2.72773e-19 0.00411251)
(0.00411251 -0.00192357 -9.89169e-05 0.00411251 1.18976e-18 0.00411251)
(0.00423817 -0.00198824 -0.000104134 0.00423817 -1.06527e-19 0.00423817)
(0.00423817 -0.00198824 -0.000104134 0.00423817 1.23811e-18 0.00423817)
(0.00436243 -0.00205178 -0.000109451 0.00436243 -5.85091e-20 0.00436243)
(0.00436243 -0.00205178 -0.000109451 0.00436243 1.29941e-18 0.00436243)
(0.00448512 -0.00211411 -0.000114865 0.00448512 1.60288e-20 0.00448512)
(0.00448512 -0.00211411 -0.000114865 0.00448512 1.34143e-18 0.00448512)
(0.00460605 -0.00217512 -0.000120372 0.00460605 -6.89102e-20 0.00460605)
(0.00460605 -0.00217512 -0.000120372 0.00460605 1.38032e-18 0.00460605)
(0.00472508 -0.00223477 -0.000125967 0.00472508 -6.95371e-21 0.00472508)
(0.00472508 -0.00223477 -0.000125967 0.00472508 1.5349e-18 0.00472508)
(0.00484205 -0.00229297 -0.000131648 0.00484205 3.86998e-20 0.00484205)
(0.00484205 -0.00229297 -0.000131648 0.00484205 1.68266e-18 0.00484205)
(0.00495684 -0.00234968 -0.000137411 0.00495684 2.02066e-19 0.00495684)
(0.00495684 -0.00234968 -0.000137411 0.00495684 1.67036e-18 0.00495684)
(0.00506933 -0.00240487 -0.000143254 0.00506933 3.29732e-19 0.00506933)
(0.00506933 -0.00240487 -0.000143254 0.00506933 1.64239e-18 0.00506933)
(0.00517943 -0.0024585 -0.000149173 0.00517943 4.93473e-19 0.00517943)
(0.00517943 -0.0024585 -0.000149173 0.00517943 1.83341e-18 0.00517943)
(0.00528703 -0.00251054 -0.000155166 0.00528703 7.16787e-19 0.00528703)
(0.00528703 -0.00251054 -0.000155166 0.00528703 2.10367e-18 0.00528703)
(0.00539208 -0.00256099 -0.000161232 0.00539208 1.00895e-18 0.00539208)
(0.00539208 -0.00256099 -0.000161232 0.00539208 2.10344e-18 0.00539208)
(0.00549451 -0.00260983 -0.000167369 0.00549451 1.27739e-18 0.00549451)
(0.00549451 -0.00260983 -0.000167369 0.00549451 2.13356e-18 0.00549451)
(0.00559426 -0.00265706 -0.000173574 0.00559426 1.57533e-18 0.00559426)
(0.00559426 -0.00265706 -0.000173574 0.00559426 2.52408e-18 0.00559426)
(0.00569129 -0.00270268 -0.000179847 0.00569129 1.91089e-18 0.00569129)
(0.00569129 -0.00270268 -0.000179847 0.00569129 2.8355e-18 0.00569129)
(0.00578557 -0.0027467 -0.000186186 0.00578557 1.89801e-18 0.00578557)
(0.00578557 -0.0027467 -0.000186186 0.00578557 2.77591e-18 0.00578557)
(0.00587708 -0.00278913 -0.000192591 0.00587708 1.9169e-18 0.00587708)
(0.00587708 -0.00278913 -0.000192591 0.00587708 2.78102e-18 0.00587708)
(0.00596581 -0.00282999 -0.00019906 0.00596581 1.90812e-18 0.00596581)
(0.00596581 -0.00282999 -0.00019906 0.00596581 2.98002e-18 0.00596581)
(0.00605173 -0.00286928 -0.000205593 0.00605173 1.68896e-18 0.00605173)
(0.00605173 -0.00286928 -0.000205593 0.00605173 3.19826e-18 0.00605173)
(0.00613487 -0.00290705 -0.00021219 0.00613487 1.67778e-18 0.00613487)
(0.00613487 -0.00290705 -0.00021219 0.00613487 3.34612e-18 0.00613487)
(0.00621521 -0.00294329 -0.00021885 0.00621521 1.79781e-18 0.00621521)
(0.00621521 -0.00294329 -0.00021885 0.00621521 3.74043e-18 0.00621521)
(0.00629278 -0.00297805 -0.000225572 0.00629278 2.19949e-18 0.00629278)
(0.00629278 -0.00297805 -0.000225572 0.00629278 3.94012e-18 0.00629278)
(0.00636758 -0.00301134 -0.000232358 0.00636758 2.1561e-18 0.00636758)
(0.00636758 -0.00301134 -0.000232358 0.00636758 3.86485e-18 0.00636758)
(0.00643963 -0.0030432 -0.000239206 0.00643963 1.70532e-18 0.00643963)
(0.00643963 -0.0030432 -0.000239206 0.00643963 4.38178e-18 0.00643963)
(0.00650897 -0.00307364 -0.000246116 0.00650897 1.43468e-18 0.00650897)
(0.00650897 -0.00307364 -0.000246116 0.00650897 4.94905e-18 0.00650897)
(0.00657562 -0.0031027 -0.00025309 0.00657562 1.34133e-18 0.00657562)
(0.00657562 -0.0031027 -0.00025309 0.00657562 4.81112e-18 0.00657562)
(0.0066396 -0.00313041 -0.000260126 0.0066396 1.20239e-18 0.0066396)
(0.0066396 -0.00313041 -0.000260126 0.0066396 4.88452e-18 0.0066396)
(0.00670095 -0.00315679 -0.000267225 0.00670095 9.33325e-19 0.00670095)
(0.00670095 -0.00315679 -0.000267225 0.00670095 5.67569e-18 0.00670095)
(0.0067597 -0.00318187 -0.000274387 0.0067597 1.11041e-18 0.0067597)
(0.0067597 -0.00318187 -0.000274387 0.0067597 6.48689e-18 0.0067597)
(0.00681589 -0.00320568 -0.000281612 0.00681589 1.46496e-18 0.00681589)
(0.00681589 -0.00320568 -0.000281612 0.00681589 6.29842e-18 0.00681589)
(0.00686955 -0.00322825 -0.000288902 0.00686955 1.15069e-18 0.00686955)
(0.00686955 -0.00322825 -0.000288902 0.00686955 6.18038e-18 0.00686955)
(0.00692073 -0.00324961 -0.000296254 0.00692073 5.24629e-19 0.00692073)
(0.00692073 -0.00324961 -0.000296254 0.00692073 7.05671e-18 0.00692073)
(0.00696945 -0.00326978 -0.000303671 0.00696945 7.61922e-19 0.00696945)
(0.00696945 -0.00326978 -0.000303671 0.00696945 7.26325e-18 0.00696945)
(0.00701577 -0.00328878 -0.000311153 0.00701577 6.49955e-19 0.00701577)
(0.00701577 -0.00328878 -0.000311153 0.00701577 7.08321e-18 0.00701577)
(0.00705971 -0.00330666 -0.000318698 0.00705971 5.55756e-19 0.00705971)
(0.00705971 -0.00330666 -0.000318698 0.00705971 7.84223e-18 0.00705971)
(0.00710132 -0.00332342 -0.000326309 0.00710132 9.14331e-19 0.00710132)
(0.00710132 -0.00332342 -0.000326309 0.00710132 9.24595e-18 0.00710132)
(0.00714064 -0.00333909 -0.000333984 0.00714064 8.32195e-19 0.00714064)
(0.00714064 -0.00333909 -0.000333984 0.00714064 1.00395e-17 0.00714064)
(0.00717771 -0.0033537 -0.000341723 0.00717771 4.27964e-19 0.00717771)
(0.00717771 -0.0033537 -0.000341723 0.00717771 9.30691e-18 0.00717771)
(0.00721256 -0.00336728 -0.000349528 0.00721256 9.8315e-19 0.00721256)
(0.00721256 -0.00336728 -0.000349528 0.00721256 7.22768e-18 0.00721256)
(0.00724523 -0.00337983 -0.000357397 0.00724523 1.0708e-18 0.00724523)
(0.00724523 -0.00337983 -0.000357397 0.00724523 6.31083e-18 0.00724523)
(0.00727575 -0.00339139 -0.000365332 0.00727575 2.54314e-20 0.00727575)
(0.00727575 -0.00339139 -0.000365332 0.00727575 6.9395e-18 0.00727575)
(0.00730418 -0.00340197 -0.000373331 0.00730418 -4.01359e-19 0.00730418)
(0.00730418 -0.00340197 -0.000373331 0.00730418 7.36876e-18 0.00730418)
(0.00733053 -0.0034116 -0.000381394 0.00733053 -3.40072e-19 0.00733053)
(0.00733053 -0.0034116 -0.000381394 0.00733053 8.95634e-18 0.00733053)
(0.00735486 -0.00342028 -0.000389521 0.00735486 6.48593e-19 0.00735486)
(0.00735486 -0.00342028 -0.000389521 0.00735486 1.285e-17 0.00735486)
(0.00737718 -0.00342805 -0.000397712 0.00737718 1.47986e-18 0.00737718)
(0.00737718 -0.00342805 -0.000397712 0.00737718 1.59414e-17 0.00737718)
(0.00739753 -0.00343491 -0.000405966 0.00739753 -1.88146e-18 0.00739753)
(0.00739753 -0.00343491 -0.000405966 0.00739753 1.64449e-17 0.00739753)
(0.00741595 -0.00344089 -0.000414283 0.00741595 -3.50562e-18 0.00741595)
(0.00741595 -0.00344089 -0.000414283 0.00741595 1.63688e-17 0.00741595)
(0.00743247 -0.00344599 -0.000422661 0.00743247 -4.48522e-18 0.00743247)
(0.00743247 -0.00344599 -0.000422661 0.00743247 1.76839e-17 0.00743247)
(0.00744711 -0.00345024 -0.000431101 0.00744711 -1.51239e-18 0.00744711)
(0.00744711 -0.00345024 -0.000431101 0.00744711 1.94406e-17 0.00744711)
(0.0074599 -0.00345364 -0.000439601 0.0074599 1.47211e-18 0.0074599)
(0.0074599 -0.00345364 -0.000439601 0.0074599 2.0488e-17 0.0074599)
(0.00747088 -0.00345621 -0.00044816 0.00747088 1.11631e-18 0.00747088)
(0.00747088 -0.00345621 -0.00044816 0.00747088 2.0855e-17 0.00747088)
(0.00748007 -0.00345797 -0.000456777 0.00748007 -9.57953e-20 0.00748007)
(0.00748007 -0.00345797 -0.000456777 0.00748007 2.1299e-17 0.00748007)
(0.00748749 -0.00345892 -0.00046545 0.00748749 5.04563e-19 0.00748749)
(0.00748749 -0.00345892 -0.00046545 0.00748749 2.28152e-17 0.00748749)
(0.00749317 -0.00345907 -0.000474179 0.00749317 7.47145e-19 0.00749317)
(0.00749317 -0.00345907 -0.000474179 0.00749317 2.42479e-17 0.00749317)
(0.00749713 -0.00345844 -0.000482962 0.00749713 2.1732e-19 0.00749713)
(0.00749713 -0.00345844 -0.000482962 0.00749713 2.49888e-17 0.00749713)
(0.00749939 -0.00345703 -0.000491796 0.00749939 4.95897e-19 0.00749939)
(0.00749939 -0.00345703 -0.000491796 0.00749939 2.61651e-17 0.00749939)
(0.00749998 -0.00345485 -0.000500679 0.00749998 3.1274e-18 0.00749998)
(0.00749998 -0.00345485 -0.000500679 0.00749998 2.63861e-17 0.00749998)
(0.00749892 -0.00345192 -0.000509611 0.00749892 4.85579e-18 0.00749892)
(0.00749892 -0.00345192 -0.000509611 0.00749892 2.5839e-17 0.00749892)
(0.00749622 -0.00344823 -0.000518588 0.00749622 5.47155e-18 0.00749622)
(0.00749622 -0.00344823 -0.000518588 0.00749622 2.65826e-17 0.00749622)
(0.0074919 -0.0034438 -0.000527607 0.0074919 4.77873e-18 0.0074919)
(0.0074919 -0.0034438 -0.000527607 0.0074919 2.76744e-17 0.0074919)
(0.00748598 -0.00343863 -0.000536667 0.00748598 4.14887e-18 0.00748598)
(0.00748598 -0.00343863 -0.000536667 0.00748598 2.92833e-17 0.00748598)
(0.00747847 -0.00343273 -0.000545763 0.00747847 2.60344e-18 0.00747847)
(0.00747847 -0.00343273 -0.000545763 0.00747847 3.08189e-17 0.00747847)
(0.00746939 -0.0034261 -0.000554894 0.00746939 1.52186e-18 0.00746939)
(0.00746939 -0.0034261 -0.000554894 0.00746939 3.10637e-17 0.00746939)
(0.00745876 -0.00341875 -0.000564055 0.00745876 1.7984e-18 0.00745876)
(0.00745876 -0.00341875 -0.000564055 0.00745876 3.16174e-17 0.00745876)
(0.00744658 -0.00341068 -0.000573243 0.00744658 2.51911e-18 0.00744658)
(0.00744658 -0.00341068 -0.000573243 0.00744658 3.34776e-17 0.00744658)
(0.00743287 -0.00340189 -0.000582454 0.00743287 2.05476e-18 0.00743287)
(0.00743287 -0.00340189 -0.000582454 0.00743287 3.47334e-17 0.00743287)
(0.00741764 -0.00339239 -0.000591684 0.00741764 4.19153e-18 0.00741764)
(0.00741764 -0.00339239 -0.000591684 0.00741764 3.68684e-17 0.00741764)
(0.00740089 -0.00338217 -0.000600928 0.00740089 4.6797e-18 0.00740089)
(0.00740089 -0.00338217 -0.000600928 0.00740089 3.76468e-17 0.00740089)
(0.00738265 -0.00337125 -0.000610182 0.00738265 4.17688e-18 0.00738265)
(0.00738265 -0.00337125 -0.000610182 0.00738265 3.73332e-17 0.00738265)
(0.00736291 -0.00335963 -0.00061944 0.00736291 5.22938e-18 0.00736291)
(0.00736291 -0.00335963 -0.00061944 0.00736291 3.72422e-17 0.00736291)
(0.00734168 -0.00334729 -0.000628698 0.00734168 4.54558e-18 0.00734168)
(0.00734168 -0.00334729 -0.000628698 0.00734168 3.70282e-17 0.00734168)
(0.00731897 -0.00333425 -0.000637948 0.00731897 4.1194e-18 0.00731897)
(0.00731897 -0.00333425 -0.000637948 0.00731897 3.66518e-17 0.00731897)
(0.00729478 -0.00332051 -0.000647187 0.00729478 4.3335e-18 0.00729478)
(0.00729478 -0.00332051 -0.000647187 0.00729478 3.62401e-17 0.00729478)
(0.00726913 -0.00330605 -0.000656406 0.00726913 4.64482e-18 0.00726913)
(0.00726913 -0.00330605 -0.000656406 0.00726913 3.79011e-17 0.00726913)
(0.00724201 -0.00329089 -0.000665599 0.00724201 8.39615e-19 0.00724201)
(0.00724201 -0.00329089 -0.000665599 0.00724201 4.00696e-17 0.00724201)
(0.00721342 -0.00327502 -0.00067476 0.00721342 5.44493e-19 0.00721342)
(0.00721342 -0.00327502 -0.00067476 0.00721342 4.38608e-17 0.00721342)
(0.00718338 -0.00325844 -0.00068388 0.00718338 1.67975e-19 0.00718338)
(0.00718338 -0.00325844 -0.00068388 0.00718338 4.37964e-17 0.00718338)
(0.00715187 -0.00324115 -0.000692951 0.00715187 -3.74887e-18 0.00715187)
(0.00715187 -0.00324115 -0.000692951 0.00715187 4.02277e-17 0.00715187)
(0.00711891 -0.00322315 -0.000701966 0.00711891 -4.60159e-18 0.00711891)
(0.00711891 -0.00322315 -0.000701966 0.00711891 4.19983e-17 0.00711891)
(0.0070845 -0.00320442 -0.000710914 0.0070845 -9.49851e-18 0.0070845)
(0.0070845 -0.00320442 -0.000710914 0.0070845 4.39063e-17 0.0070845)
(0.00704862 -0.00318498 -0.000719787 0.00704862 -4.88784e-18 0.00704862)
(0.00704862 -0.00318498 -0.000719787 0.00704862 3.80405e-17 0.00704862)
(0.00701129 -0.0031648 -0.000728574 0.00701129 4.35197e-18 0.00701129)
(0.00701129 -0.0031648 -0.000728574 0.00701129 3.57377e-17 0.00701129)
(0.0069725 -0.0031439 -0.000737266 0.0069725 5.48581e-18 0.0069725)
(0.0069725 -0.0031439 -0.000737266 0.0069725 2.80409e-17 0.0069725)
(0.00693225 -0.00312227 -0.000745851 0.00693225 1.82042e-18 0.00693225)
(0.00693225 -0.00312227 -0.000745851 0.00693225 2.25606e-17 0.00693225)
(0.00689054 -0.0030999 -0.000754318 0.00689054 1.16213e-18 0.00689054)
(0.00689054 -0.0030999 -0.000754318 0.00689054 2.04243e-17 0.00689054)
(0.00684736 -0.00307678 -0.000762655 0.00684736 4.53277e-18 0.00684736)
(0.00684736 -0.00307678 -0.000762655 0.00684736 1.34282e-17 0.00684736)
(0.00680271 -0.00305291 -0.000770848 0.00680271 5.73738e-18 0.00680271)
(0.00680271 -0.00305291 -0.000770848 0.00680271 7.08268e-18 0.00680271)
(0.00675659 -0.00302829 -0.000778885 0.00675659 8.42161e-18 0.00675659)
(0.00675659 -0.00302829 -0.000778885 0.00675659 1.2354e-17 0.00675659)
(0.006709 -0.00300291 -0.000786751 0.006709 8.49624e-18 0.006709)
(0.006709 -0.00300291 -0.000786751 0.006709 4.91241e-18 0.006709)
(0.00665992 -0.00297676 -0.000794431 0.00665992 7.22805e-18 0.00665992)
(0.00665992 -0.00297676 -0.000794431 0.00665992 8.78923e-19 0.00665992)
(0.00660937 -0.00294983 -0.000801911 0.00660937 7.20184e-18 0.00660937)
(0.00660937 -0.00294983 -0.000801911 0.00660937 2.40907e-18 0.00660937)
(0.00655732 -0.00292213 -0.000809174 0.00655732 4.87784e-18 0.00655732)
(0.00655732 -0.00292213 -0.000809174 0.00655732 -4.70514e-18 0.00655732)
(0.00650378 -0.00289363 -0.000816202 0.00650378 3.9536e-18 0.00650378)
(0.00650378 -0.00289363 -0.000816202 0.00650378 -7.61292e-18 0.00650378)
(0.00644874 -0.00286434 -0.000822979 0.00644874 1.13599e-18 0.00644874)