/*--------------------------------*- C++ -*----------------------------------*\
| =========                 |                                                 |
| \\      /  F ield         | OpenFOAM: The Open Source CFD Toolbox           |
|  \\    /   O peration     | Version:  2106                                  |
|   \\  /    A nd           | Website:  www.openfoam.com                      |
|    \\/     M anipulation  |                                                 |
\*---------------------------------------------------------------------------*/
FoamFile
{
    version     2.0;
    format      ascii;
    arch        "LSB;label=32;scalar=64";
    class       volVectorField;
    location    "10050";
    object      U;
}
// * * * * * * * * * * * * * * * * * * * * * * * * * * * * * * * * * * * * * //

dimensions      [0 1 -1 0 0 0 0];

internalField   nonuniform List<vector> 
800
(
(0.00306853 -5.89281e-16 -1.34235e-18)
(0.00306853 -8.75983e-19 6.20838e-33)
(0.00934882 -1.42929e-15 5.88837e-17)
(0.00934882 1.13378e-18 -5.63794e-20)
(0.015925 -1.49308e-15 7.08511e-17)
(0.015925 1.90081e-18 -9.07293e-20)
(0.0228108 -1.37672e-15 6.83464e-17)
(0.0228108 3.2664e-18 -1.51864e-19)
(0.0300207 -1.35557e-15 6.72356e-17)
(0.0300207 4.66346e-18 -2.30007e-19)
(0.0375697 -1.37014e-15 7.4031e-17)
(0.0375697 6.11942e-18 -3.25437e-19)
(0.0454735 -1.37394e-15 8.60466e-17)
(0.0454735 7.57165e-18 -4.44766e-19)
(0.0537487 -1.37554e-15 9.95339e-17)
(0.0537487 8.97935e-18 -5.7856e-19)
(0.0624123 -1.37728e-15 1.14587e-16)
(0.0624123 1.04377e-17 -7.20465e-19)
(0.0714823 -1.37974e-15 1.31327e-16)
(0.0714823 1.17916e-17 -8.85185e-19)
(0.0809773 -1.38267e-15 1.49897e-16)
(0.0809773 1.2833e-17 -1.08464e-18)
(0.0909167 -1.3856e-15 1.70465e-16)
(0.0909167 1.39321e-17 -1.31506e-18)
(0.101321 -1.38863e-15 1.93218e-16)
(0.101321 1.5167e-17 -1.55313e-18)
(0.11221 -1.39111e-15 2.16515e-16)
(0.11221 1.58639e-17 -1.83794e-18)
(0.123607 -1.39317e-15 2.26411e-16)
(0.123607 1.60571e-17 -2.14445e-18)
(0.135532 -1.39552e-15 2.36762e-16)
(0.135532 1.63098e-17 -2.49493e-18)
(0.148009 -1.39738e-15 2.47573e-16)
(0.148009 1.66685e-17 -2.88581e-18)
(0.161058 -1.39873e-15 2.58897e-16)
(0.161058 1.65988e-17 -3.30504e-18)
(0.174702 -1.39961e-15 2.70681e-16)
(0.174702 1.54584e-17 -3.87148e-18)
(0.188959 -1.39968e-15 2.82894e-16)
(0.188959 1.4139e-17 -4.50157e-18)
(0.203848 -1.39895e-15 2.95546e-16)
(0.203848 1.16989e-17 -5.12388e-18)
(0.219381 -1.39812e-15 3.08516e-16)
(0.219381 8.01496e-18 -5.83344e-18)
(0.235566 -1.39738e-15 3.2164e-16)
(0.235566 5.76455e-18 -6.38571e-18)
(0.252402 -1.39616e-15 3.3504e-16)
(0.252402 3.08664e-18 -6.97682e-18)
(0.269879 -1.39319e-15 3.48091e-16)
(0.269879 -1.88034e-18 -8.04171e-18)
(0.287972 -1.38763e-15 3.60677e-16)
(0.287972 -7.19745e-18 -9.20725e-18)
(0.306642 -1.38093e-15 3.72481e-16)
(0.306642 -1.3943e-17 -1.04077e-17)
(0.325834 -1.37263e-15 3.82673e-16)
(0.325834 -2.27764e-17 -1.14476e-17)
(0.345474 -1.36147e-15 3.91586e-16)
(0.345474 -3.17035e-17 -1.22889e-17)
(0.365473 -1.35232e-15 3.98789e-16)
(0.365473 -4.3192e-17 -1.30187e-17)
(0.385731 -1.33628e-15 4.04004e-16)
(0.385731 -5.58758e-17 -1.41241e-17)
(0.406137 -1.32081e-15 4.07029e-16)
(0.406137 -6.86981e-17 -1.48817e-17)
(0.426579 -1.3034e-15 4.07659e-16)
(0.426579 -8.38772e-17 -1.60861e-17)
(0.446951 -1.28768e-15 4.04733e-16)
(0.446951 -9.82696e-17 -1.75091e-17)
(0.467152 -1.26998e-15 4.0026e-16)
(0.467152 -1.12786e-16 -1.80424e-17)
(0.487098 -1.24868e-15 3.93686e-16)
(0.487098 -1.29991e-16 -1.89458e-17)
(0.506717 -1.22353e-15 3.84771e-16)
(0.506717 -1.45031e-16 -2.08567e-17)
(0.525954 -1.19854e-15 3.75504e-16)
(0.525954 -1.59361e-16 -2.14982e-17)
(0.544768 -1.17243e-15 3.65979e-16)
(0.544768 -1.74614e-16 -2.14849e-17)
(0.563135 -1.1442e-15 3.53351e-16)
(0.563135 -1.90663e-16 -2.31663e-17)
(0.581037 -1.11814e-15 3.39316e-16)
(0.581037 -2.08467e-16 -2.45388e-17)
(0.598472 -1.08824e-15 3.25313e-16)
(0.598472 -2.24878e-16 -2.46475e-17)
(0.61544 -1.06233e-15 3.13263e-16)
(0.61544 -2.4039e-16 -2.65812e-17)
(0.631949 -1.0423e-15 2.99531e-16)
(0.631949 -2.52412e-16 -3.03853e-17)
(0.648011 -1.02157e-15 2.82589e-16)
(0.648011 -2.69679e-16 -3.05654e-17)
(0.663641 -9.99247e-16 2.62962e-16)
(0.663641 -2.91264e-16 -3.3331e-17)
(0.678855 -9.71023e-16 2.43682e-16)
(0.678855 -3.03957e-16 -3.48511e-17)
(0.69367 -9.43912e-16 2.23926e-16)
(0.69367 -3.19936e-16 -3.73302e-17)
(0.708105 -9.23816e-16 2.03501e-16)
(0.708105 -3.35234e-16 -3.44312e-17)
(0.722177 -9.01645e-16 1.87236e-16)
(0.722177 -3.64478e-16 -3.74428e-17)
(0.735904 -8.8432e-16 1.58417e-16)
(0.735904 -3.72453e-16 -4.40657e-17)
(0.749302 -8.55798e-16 1.31725e-16)
(0.749302 -3.76717e-16 -3.93756e-17)
(0.762388 -8.24219e-16 1.09962e-16)
(0.762388 -3.90129e-16 -4.21865e-17)
(0.775177 -7.96972e-16 8.28824e-17)
(0.775177 -4.10719e-16 -3.49347e-17)
(0.787683 -7.77368e-16 7.46283e-17)
(0.787683 -4.16441e-16 -3.02847e-17)
(0.79992 -7.46294e-16 6.80665e-17)
(0.79992 -4.35121e-16 -3.62885e-17)
(0.811902 -7.1722e-16 6.26009e-17)
(0.811902 -4.52217e-16 -3.79212e-17)
(0.823639 -6.97903e-16 6.56147e-17)
(0.823639 -4.55919e-16 -3.69853e-17)
(0.835142 -6.77291e-16 6.44282e-17)
(0.835142 -4.72173e-16 -3.65761e-17)
(0.846423 -6.61755e-16 7.00721e-17)
(0.846423 -4.6589e-16 -4.10376e-17)
(0.857491 -6.52691e-16 7.18811e-17)
(0.857491 -4.61492e-16 -5.57609e-17)
(0.868354 -6.4304e-16 5.70903e-17)
(0.868354 -4.64671e-16 -7.47517e-17)
(0.87902 -6.35738e-16 5.66557e-17)
(0.87902 -4.72955e-16 -8.65064e-17)
(0.889496 -6.24816e-16 6.42536e-17)
(0.889496 -4.64798e-16 -1.03101e-16)
(0.89979 -5.94986e-16 5.52132e-17)
(0.89979 -4.6247e-16 -8.8693e-17)
(0.909907 -5.59832e-16 5.47056e-17)
(0.909907 -4.60766e-16 -4.85493e-17)
(0.919853 -5.382e-16 5.59099e-17)
(0.919853 -4.40892e-16 -2.79579e-17)
(0.929632 -5.03923e-16 5.37754e-17)
(0.929632 -4.40408e-16 -3.51774e-18)
(0.939249 -4.74458e-16 6.11935e-17)
(0.939249 -4.43178e-16 2.29504e-17)
(0.948708 -4.7908e-16 8.79001e-17)
(0.948708 -4.73297e-16 3.4493e-17)
(0.958012 -4.66343e-16 1.02099e-16)
(0.958012 -4.88885e-16 4.09919e-17)
(0.967164 -4.46028e-16 9.56424e-17)
(0.967164 -4.77541e-16 6.73779e-17)
(0.976166 -4.63252e-16 1.31171e-16)
(0.976166 -4.85966e-16 1.00703e-16)
(0.98502 -5.08406e-16 1.72567e-16)
(0.98502 -5.22764e-16 1.48834e-16)
(0.993726 -5.08531e-16 2.00932e-16)
(0.993726 -5.42624e-16 1.7086e-16)
(1.00229 -5.66729e-16 2.16665e-16)
(1.00229 -5.19319e-16 1.25028e-16)
(1.0107 -5.08359e-16 1.79279e-16)
(1.0107 -5.00346e-16 7.17028e-17)
(1.01897 -5.50914e-16 1.50481e-16)
(1.01897 -4.76936e-16 1.73635e-16)
(1.02709 -4.96108e-16 1.67248e-16)
(1.02709 -4.42187e-16 1.54051e-16)
(1.03506 -4.68249e-16 1.70989e-16)
(1.03506 -4.53927e-16 2.03775e-16)
(1.04288 -4.37033e-16 1.91587e-16)
(1.04288 -4.28473e-16 1.92379e-16)
(1.05054 -3.98117e-16 2.37022e-16)
(1.05054 -3.94893e-16 2.00144e-16)
(1.05804 -3.78755e-16 2.37181e-16)
(1.05804 -3.50936e-16 2.64045e-16)
(1.06538 -3.60545e-16 2.71813e-16)
(1.06538 -3.45253e-16 2.43185e-16)
(1.07254 -3.13939e-16 2.99544e-16)
(1.07254 -3.7974e-16 2.66168e-16)
(1.07953 -3.21947e-16 2.386e-16)
(1.07953 -3.42338e-16 2.65223e-16)
(1.08632 -3.14971e-16 2.62183e-16)
(1.08632 -3.03875e-16 2.22823e-16)
(1.09291 -2.59973e-16 2.95765e-16)
(1.09291 -3.11169e-16 2.99114e-16)
(1.09929 -3.27574e-16 2.17869e-16)
(1.09929 -2.65365e-16 2.72728e-16)
(1.10542 -3.50559e-16 3.08037e-16)
(1.10542 -2.95612e-16 2.41651e-16)
(1.1113 -2.86137e-16 2.48575e-16)
(1.1113 -3.38794e-16 3.17647e-16)
(1.1169 -3.87185e-16 2.55597e-16)
(1.1169 -4.33085e-16 4.02684e-16)
(1.12218 -3.73716e-16 2.11724e-16)
(1.12218 -3.67657e-16 2.63966e-16)
(1.1271 -3.50815e-16 1.49619e-16)
(1.1271 -2.59785e-16 1.94053e-16)
(1.13161 -2.72583e-16 2.45644e-16)
(1.13161 -2.67832e-16 1.41522e-16)
(1.13564 -3.23814e-16 1.46322e-16)
(1.13564 -3.49796e-16 1.04204e-16)
(1.13911 -3.94577e-16 1.12191e-16)
(1.13911 -3.96954e-16 1.27157e-16)
(1.14193 -3.34825e-16 4.05472e-16)
(1.14193 -3.30474e-16 1.02045e-16)
(1.14395 -3.44387e-16 3.72874e-16)
(1.14395 -2.62934e-16 2.96762e-16)
(1.14504 -2.40794e-16 3.84404e-16)
(1.14504 -2.42972e-16 3.88514e-16)
(0.00306853 -1.76933e-19 -4.68042e-19)
(0.00306853 -6.95612e-22 8.41214e-18)
(0.00934882 6.90061e-19 1.01726e-17)
(0.00934882 1.77194e-19 3.21472e-17)
(0.015925 1.2316e-18 1.42832e-17)
(0.015925 3.82709e-19 3.51733e-17)
(0.0228108 2.06026e-18 4.93276e-18)
(0.0228108 6.88804e-19 3.84051e-17)
(0.0300207 2.92528e-18 -4.23548e-18)
(0.0300207 1.02054e-18 4.18452e-17)
(0.0375697 3.89908e-18 -9.10167e-18)
(0.0375697 1.32884e-18 4.5494e-17)
(0.0454735 4.87656e-18 -9.72772e-18)
(0.0454735 1.72429e-18 4.93499e-17)
(0.0537487 5.8458e-18 -1.03489e-17)
(0.0537487 2.20987e-18 5.3416e-17)
(0.0624123 6.73007e-18 -1.09551e-17)
(0.0624123 2.9049e-18 5.76886e-17)
(0.0714823 7.54182e-18 -1.15535e-17)
(0.0714823 3.7704e-18 6.2177e-17)
(0.0809773 8.34156e-18 -1.21341e-17)
(0.0809773 4.54114e-18 6.68731e-17)
(0.0909167 9.18093e-18 -1.26925e-17)
(0.0909167 5.22264e-18 7.17606e-17)
(0.101321 1.0372e-17 -1.32049e-17)
(0.101321 6.11664e-18 7.68276e-17)
(0.11221 1.1812e-17 -1.3625e-17)
(0.11221 6.84996e-18 8.20381e-17)
(0.123607 1.28903e-17 -1.39185e-17)
(0.123607 7.42064e-18 8.73737e-17)
(0.135532 1.36715e-17 -1.41313e-17)
(0.135532 8.46897e-18 9.2831e-17)
(0.148009 1.43128e-17 -1.42236e-17)
(0.148009 1.00259e-17 9.83228e-17)
(0.161058 1.46842e-17 -1.41663e-17)
(0.161058 1.14714e-17 1.03792e-16)
(0.174702 1.52533e-17 -1.39449e-17)
(0.174702 1.22957e-17 1.0918e-16)
(0.188959 1.57632e-17 -1.34636e-17)
(0.188959 1.39415e-17 1.14323e-16)
(0.203848 1.57946e-17 -1.27954e-17)
(0.203848 1.60074e-17 1.19224e-16)
(0.219381 1.55613e-17 -1.19359e-17)
(0.219381 1.80823e-17 1.23756e-16)
(0.235566 1.51933e-17 -1.08642e-17)
(0.235566 2.03494e-17 1.27804e-16)
(0.252402 1.60319e-17 -9.49747e-18)
(0.252402 2.16023e-17 1.31174e-16)
(0.269879 1.69058e-17 -7.57489e-18)
(0.269879 2.19917e-17 1.33496e-16)
(0.287972 1.52488e-17 -5.09011e-18)
(0.287972 2.41258e-17 1.34549e-16)
(0.306642 1.26533e-17 -2.48353e-18)
(0.306642 2.75085e-17 1.34384e-16)
(0.325834 9.72788e-18 3.65552e-19)
(0.325834 3.18096e-17 1.32777e-16)
(0.345474 4.26872e-18 3.1743e-18)
(0.345474 3.71598e-17 1.29799e-16)
(0.365473 1.63438e-18 5.61692e-18)
(0.365473 4.05059e-17 1.25565e-16)
(0.385731 3.65412e-18 8.40926e-18)
(0.385731 4.14377e-17 1.1941e-16)
(0.406137 2.06124e-18 1.15363e-17)
(0.406137 4.23857e-17 1.11867e-16)
(0.426579 -1.33208e-18 1.43226e-17)
(0.426579 4.24645e-17 1.03474e-16)
(0.446951 -2.94987e-18 1.72185e-17)
(0.446951 4.25345e-17 9.37801e-17)
(0.467152 -6.0519e-18 1.97678e-17)
(0.467152 4.36312e-17 8.36173e-17)
(0.487098 -8.31597e-18 2.18254e-17)
(0.487098 4.04422e-17 7.33895e-17)
(0.506717 -5.81254e-18 2.34499e-17)
(0.506717 3.6938e-17 6.2659e-17)
(0.525954 -3.76001e-18 2.55791e-17)
(0.525954 3.75755e-17 5.16274e-17)
(0.544768 -4.61681e-18 2.7829e-17)
(0.544768 3.84839e-17 4.09978e-17)
(0.563135 -8.22016e-18 2.89108e-17)
(0.563135 3.8347e-17 3.12366e-17)
(0.581037 -1.069e-17 2.85789e-17)
(0.581037 3.85175e-17 2.20293e-17)
(0.598472 -8.66231e-18 2.94506e-17)
(0.598472 3.54676e-17 1.27738e-17)
(0.61544 -1.3753e-17 3.03826e-17)
(0.61544 3.30496e-17 4.45377e-18)
(0.631949 -2.70997e-17 2.89424e-17)
(0.631949 4.05019e-17 -2.73998e-18)
(0.648011 -3.84444e-17 2.50788e-17)
(0.648011 3.8642e-17 -7.16491e-18)
(0.663641 -4.56338e-17 1.99582e-17)
(0.663641 3.75954e-17 -1.04667e-17)
(0.678855 -5.02022e-17 1.39219e-17)
(0.678855 3.70142e-17 -1.20766e-17)
(0.69367 -4.45511e-17 7.59348e-18)
(0.69367 2.27325e-17 -1.41992e-17)
(0.708105 -3.69596e-17 5.53314e-18)
(0.708105 1.47328e-17 -1.63067e-17)
(0.722177 -3.40095e-17 7.43418e-18)
(0.722177 1.22929e-17 -1.70816e-17)
(0.735904 -3.49842e-17 1.00269e-17)
(0.735904 1.8005e-17 -8.86412e-18)
(0.749302 -3.75666e-17 1.20771e-17)
(0.749302 1.15481e-17 8.03119e-18)
(0.762388 -3.84335e-17 1.36753e-17)
(0.762388 7.44332e-18 7.37115e-18)
(0.775177 -4.39581e-17 7.65931e-18)
(0.775177 4.86654e-18 8.61588e-18)
(0.787683 -4.59815e-17 3.61671e-18)
(0.787683 -1.03419e-17 1.08092e-17)
(0.79992 -3.51817e-17 6.03301e-18)
(0.79992 1.24767e-18 6.34451e-18)
(0.811902 -2.86609e-17 1.59366e-18)
(0.811902 5.6608e-18 8.53094e-18)
(0.823639 -2.38383e-17 3.27478e-18)
(0.823639 5.1733e-19 4.6561e-18)
(0.835142 -2.10368e-17 -1.28337e-18)
(0.835142 -1.90194e-17 7.8805e-18)
(0.846423 -1.7726e-17 1.027e-17)
(0.846423 -3.65334e-17 1.41667e-17)
(0.857491 -2.03886e-17 3.41618e-17)
(0.857491 -3.3249e-17 -4.00107e-18)
(0.868354 -5.24781e-17 1.60924e-17)
(0.868354 -4.46123e-17 -8.07133e-18)
(0.87902 -7.03667e-17 1.16704e-17)
(0.87902 -5.17083e-17 7.74644e-18)
(0.889496 -8.08036e-17 6.25229e-18)
(0.889496 -5.78435e-17 2.17285e-17)
(0.89979 -9.15843e-17 -1.60423e-18)
(0.89979 -4.7842e-17 2.12857e-17)
(0.909907 -8.78887e-17 -1.90881e-17)
(0.909907 -5.90812e-17 1.00582e-17)
(0.919853 -7.83513e-17 9.45076e-18)
(0.919853 -9.08276e-17 1.68842e-17)
(0.929632 -7.45588e-17 5.76561e-17)
(0.929632 -8.19852e-17 1.93999e-17)
(0.939249 -7.98542e-17 2.96242e-17)
(0.939249 -6.76651e-17 2.42421e-17)
(0.948708 -8.81786e-17 -3.04788e-18)
(0.948708 -4.94092e-17 6.20444e-17)
(0.958012 -9.56027e-17 3.66296e-17)
(0.958012 -4.14066e-17 6.21852e-17)
(0.967164 -6.48636e-17 8.10646e-17)
(0.967164 -8.22749e-17 3.29179e-17)
(0.976166 -7.24878e-17 -3.2721e-19)
(0.976166 -1.18532e-16 1.7231e-17)
(0.98502 -1.37271e-16 -4.45407e-17)
(0.98502 -1.41693e-16 -1.74747e-18)
(0.993726 -1.73206e-16 -1.33646e-17)
(0.993726 -1.53654e-16 -4.83609e-17)
(1.00229 -1.70082e-16 -7.60373e-17)
(1.00229 -1.57336e-16 -2.04526e-17)
(1.0107 -1.7244e-16 -1.27329e-16)
(1.0107 -1.76466e-16 -9.58194e-17)
(1.01897 -1.69223e-16 -1.57021e-16)
(1.01897 -1.49078e-16 -1.85982e-16)
(1.02709 -1.80259e-16 -1.73095e-16)
(1.02709 -1.77823e-16 -1.79798e-16)
(1.03506 -1.95193e-16 -2.24506e-16)
(1.03506 -2.78275e-16 -1.51934e-16)
(1.04288 -2.26822e-16 -2.14494e-16)
(1.04288 -2.75207e-16 -2.49742e-16)
(1.05054 -3.96347e-16 -2.18906e-16)
(1.05054 -2.81119e-16 -3.4374e-16)
(1.05804 -3.35571e-16 -2.42904e-16)
(1.05804 -3.71575e-16 -2.76265e-16)
(1.06538 -2.95253e-16 -2.62793e-16)
(1.06538 -2.923e-16 -2.37767e-16)
(1.07254 -2.45729e-16 -2.93552e-16)
(1.07254 -2.87667e-16 -2.85908e-16)
(1.07953 -2.17207e-16 -2.84883e-16)
(1.07953 -2.65974e-16 -3.60648e-16)
(1.08632 -2.6605e-16 -2.25911e-16)
(1.08632 -2.55777e-16 -3.33836e-16)
(1.09291 -2.72464e-16 -2.44004e-16)
(1.09291 -2.34361e-16 -2.85368e-16)
(1.09929 -2.74619e-16 -2.73186e-16)
(1.09929 -2.53742e-16 -2.66753e-16)
(1.10542 -2.65309e-16 -3.29623e-16)
(1.10542 -3.19813e-16 -2.40939e-16)
(1.1113 -2.61255e-16 -2.34533e-16)
(1.1113 -2.84345e-16 -3.19409e-16)
(1.1169 -4.57608e-16 -1.5613e-16)
(1.1169 -3.18893e-16 -2.72759e-16)
(1.12218 -3.59202e-16 -2.9307e-16)
(1.12218 -3.06904e-16 -2.2401e-16)
(1.1271 -3.21342e-16 -1.16099e-16)
(1.1271 -2.8526e-16 -1.97877e-16)
(1.13161 -3.36167e-16 -1.71133e-16)
(1.13161 -3.34891e-16 -7.59248e-17)
(1.13564 -3.13064e-16 -1.71735e-16)
(1.13564 -3.75587e-16 -9.84547e-17)
(1.13911 -3.50129e-16 -1.06179e-16)
(1.13911 -3.29735e-16 -8.80778e-17)
(1.14193 -3.69791e-16 -2.44494e-16)
(1.14193 -3.21904e-16 -1.89788e-16)
(1.14395 -3.66535e-16 -3.11461e-16)
(1.14395 -3.47327e-16 -2.43007e-16)
(1.14504 -3.15415e-16 -3.71502e-16)
(1.14504 -2.74727e-16 -3.80806e-16)
(1.14504 -1.71922e-16 4.51281e-16)
(1.14504 -1.75107e-16 4.437e-16)
(1.14395 -2.78014e-16 1.55489e-16)
(1.14395 -2.77054e-16 1.5337e-16)
(1.14193 -2.66891e-16 1.2832e-16)
(1.14193 -2.376e-16 1.71592e-16)
(1.13911 -1.87708e-16 3.18356e-16)
(1.13911 -2.00961e-16 1.95728e-16)
(1.13564 -1.71505e-16 1.5358e-16)
(1.13564 -2.01295e-16 9.05368e-17)
(1.13161 -2.82829e-16 1.61413e-16)
(1.13161 -2.31266e-16 9.70628e-17)
(1.1271 -2.81022e-16 2.06942e-16)
(1.1271 -2.91447e-16 8.73613e-17)
(1.12218 -2.26665e-16 1.58497e-16)
(1.12218 -2.93873e-16 1.16862e-16)
(1.1169 -2.06195e-16 7.38999e-17)
(1.1169 -2.32191e-16 5.1649e-17)
(1.1113 -2.61265e-16 1.39064e-16)
(1.1113 -2.20637e-16 1.42119e-16)
(1.10542 -2.35806e-16 1.19858e-16)
(1.10542 -2.11963e-16 1.53545e-16)
(1.09929 -2.39111e-16 1.79235e-16)
(1.09929 -2.30252e-16 1.02218e-16)
(1.09291 -2.09407e-16 1.53594e-16)
(1.09291 -1.32416e-16 1.50185e-16)
(1.08632 -1.51569e-16 5.83187e-17)
(1.08632 -1.93183e-16 1.54315e-16)
(1.07953 -1.35646e-16 7.40404e-17)
(1.07953 -1.94861e-16 1.20852e-16)
(1.07254 -1.6942e-16 4.07781e-17)
(1.07254 -2.31394e-16 1.66014e-16)
(1.06538 -2.35525e-16 1.61222e-16)
(1.06538 -1.53207e-16 1.32297e-16)
(1.05804 -2.42094e-16 2.07895e-16)
(1.05804 -1.48967e-16 9.56095e-17)
(1.05054 -1.65349e-16 1.26625e-16)
(1.05054 -1.91799e-16 1.77906e-16)
(1.04288 -6.17706e-17 1.45669e-16)
(1.04288 -1.6619e-16 1.13027e-16)
(1.03506 -1.18939e-16 7.30189e-17)
(1.03506 -1.34947e-16 1.04135e-16)
(1.02709 -1.30896e-16 1.03686e-16)
(1.02709 -9.19538e-17 1.09867e-16)
(1.01897 -1.21353e-16 1.08824e-16)
(1.01897 -6.15423e-17 6.40247e-17)
(1.0107 -7.70991e-17 8.89939e-17)
(1.0107 -7.896e-17 2.33135e-17)
(1.00229 -5.70675e-17 1.04538e-16)
(1.00229 -7.42939e-17 5.31861e-17)
(0.993726 -2.09002e-17 8.41117e-17)
(0.993726 -5.54524e-17 3.2259e-17)
(0.98502 -7.42459e-17 4.91021e-17)
(0.98502 -5.88683e-17 2.88724e-17)
(0.976166 -5.54796e-17 5.21256e-17)
(0.976166 -2.43117e-17 2.98826e-17)
(0.967164 -4.09095e-17 5.72143e-17)
(0.967164 -9.56538e-18 3.74609e-17)
(0.958012 -4.23316e-17 6.96099e-17)
(0.958012 -3.85899e-17 2.03994e-17)
(0.948708 -1.84281e-17 5.13276e-17)
(0.948708 -3.33799e-17 2.51521e-17)
(0.939249 -3.3477e-17 5.85337e-17)
(0.939249 -6.29579e-17 2.70966e-17)
(0.929632 -5.44856e-17 3.86476e-17)
(0.929632 -4.52574e-17 3.63691e-17)
(0.919853 -5.88898e-17 2.988e-17)
(0.919853 -3.37631e-17 3.89655e-17)
(0.909907 -4.9022e-17 1.71827e-17)
(0.909907 -3.68583e-17 1.35247e-17)
(0.89979 -3.50925e-17 4.73698e-18)
(0.89979 -2.06268e-17 1.23838e-17)
(0.889496 -3.32522e-17 9.12923e-18)
(0.889496 -2.86032e-17 2.21387e-17)
(0.87902 -2.26306e-17 8.93324e-18)
(0.87902 -2.64104e-17 2.02137e-17)
(0.868354 -8.93015e-18 4.80065e-18)
(0.868354 -2.7751e-17 1.74374e-17)
(0.857491 -1.55757e-17 5.38899e-18)
(0.857491 -3.50713e-17 1.82444e-17)
(0.846423 -4.91134e-18 1.01576e-17)
(0.846423 -3.00665e-17 2.09769e-17)
(0.835142 6.26083e-18 1.16763e-17)
(0.835142 -1.19098e-17 3.69085e-17)
(0.823639 1.65281e-18 1.35698e-17)
(0.823639 -1.79582e-17 4.32004e-17)
(0.811902 -3.52805e-18 1.64638e-17)
(0.811902 -1.40363e-17 3.05384e-17)
(0.79992 -6.4399e-18 1.93336e-17)
(0.79992 -8.94577e-18 3.01433e-17)
(0.787683 -1.35452e-17 2.31197e-17)
(0.787683 8.45977e-19 3.26456e-17)
(0.775177 -2.1871e-17 2.04186e-17)
(0.775177 5.76547e-18 2.15114e-17)
(0.762388 -1.8737e-17 1.92414e-17)
(0.762388 -2.11947e-18 1.17815e-17)
(0.749302 -1.58291e-17 1.82665e-17)
(0.749302 3.35922e-18 3.78923e-18)
(0.735904 -1.44668e-17 1.44086e-17)
(0.735904 3.18657e-18 5.32231e-18)
(0.722177 -3.16612e-18 1.16007e-17)
(0.722177 4.02707e-19 6.44472e-18)
(0.708105 -8.14379e-19 1.10612e-17)
(0.708105 1.41585e-18 6.75474e-18)
(0.69367 9.95403e-19 1.00468e-17)
(0.69367 -6.12523e-18 9.91639e-18)
(0.678855 6.91244e-18 1.01916e-17)
(0.678855 -5.37488e-18 1.07542e-17)
(0.663641 6.38011e-18 1.06631e-17)
(0.663641 -3.43842e-18 1.05379e-17)
(0.648011 6.74239e-18 1.05149e-17)
(0.648011 -1.01564e-18 1.20253e-17)
(0.631949 8.23337e-18 1.2002e-17)
(0.631949 -1.78003e-18 1.10313e-17)
(0.61544 1.10477e-17 1.4241e-17)
(0.61544 -1.92632e-18 1.24325e-17)
(0.598472 1.29952e-17 1.22188e-17)
(0.598472 -2.76508e-18 1.57135e-17)
(0.581037 2.77998e-18 9.98837e-18)
(0.581037 -4.74077e-18 1.70112e-17)
(0.563135 -2.14044e-18 9.69978e-18)
(0.563135 -5.79152e-18 1.61721e-17)
(0.544768 1.01599e-18 8.93616e-18)
(0.544768 -5.93619e-18 1.5293e-17)
(0.525954 3.08227e-18 9.33699e-18)
(0.525954 -2.9241e-18 1.64438e-17)
(0.506717 -2.48085e-18 7.83376e-18)
(0.506717 -1.29987e-18 1.81547e-17)
(0.487098 -4.52589e-18 7.37707e-18)
(0.487098 -3.67731e-18 1.79404e-17)
(0.467152 -5.23875e-18 6.6223e-18)
(0.467152 -3.1759e-18 1.73659e-17)
(0.446951 -7.43967e-18 6.6594e-18)
(0.446951 1.23654e-18 1.59175e-17)
(0.426579 -8.00931e-18 6.60598e-18)
(0.426579 2.37934e-18 1.45943e-17)
(0.406137 -5.04411e-18 6.33759e-18)
(0.406137 1.02679e-18 1.33726e-17)
(0.385731 -4.29243e-18 5.61924e-18)
(0.385731 7.99245e-19 1.23756e-17)
(0.365473 -3.33491e-18 5.41069e-18)
(0.365473 -2.47574e-19 1.17631e-17)
(0.345474 -4.0302e-19 5.25581e-18)
(0.345474 -1.6023e-19 1.10975e-17)
(0.325834 -5.16155e-18 5.07734e-18)
(0.325834 -5.01827e-19 1.01982e-17)
(0.306642 -4.77106e-18 4.6305e-18)
(0.306642 -5.05345e-19 9.16504e-18)
(0.287972 -4.36887e-18 4.24597e-18)
(0.287972 5.33013e-19 8.14752e-18)
(0.269879 -4.10875e-18 3.93878e-18)
(0.269879 -1.24314e-19 7.28997e-18)
(0.252402 -4.4444e-18 3.59316e-18)
(0.252402 -2.13559e-19 6.58458e-18)
(0.235566 -2.68537e-18 3.34622e-18)
(0.235566 -5.83649e-20 5.68901e-18)
(0.219381 -1.55774e-18 2.91372e-18)
(0.219381 -2.43851e-19 5.10728e-18)
(0.203848 -5.31387e-19 2.69875e-18)
(0.203848 -1.61191e-19 4.59e-18)
(0.188959 -7.57691e-19 2.51336e-18)
(0.188959 -6.47127e-19 4.15517e-18)
(0.174702 -2.12781e-19 2.28117e-18)
(0.174702 -1.07215e-18 3.7508e-18)
(0.161058 -2.36411e-19 2.08669e-18)
(0.161058 -9.52766e-19 3.43165e-18)
(0.148009 -1.1121e-19 1.91478e-18)
(0.148009 -6.10693e-19 3.13219e-18)
(0.135532 -3.30741e-19 1.7915e-18)
(0.135532 -5.5738e-19 2.80135e-18)
(0.123607 -2.82232e-19 1.66732e-18)
(0.123607 -3.82176e-19 2.52046e-18)
(0.11221 -1.79581e-19 1.5383e-18)
(0.11221 -1.89244e-19 2.29433e-18)
(0.101321 -2.8373e-19 1.42739e-18)
(0.101321 -2.52918e-19 2.05795e-18)
(0.0909167 -2.10089e-20 1.27942e-18)
(0.0909167 -7.08077e-20 1.86552e-18)
(0.0809773 2.64532e-20 1.16706e-18)
(0.0809773 -1.79006e-19 1.70665e-18)
(0.0714823 -7.39378e-21 1.06614e-18)
(0.0714823 -6.22732e-20 1.57309e-18)
(0.0624123 4.28926e-20 9.68606e-19)
(0.0624123 9.95556e-20 1.44119e-18)
(0.0537487 7.82716e-20 8.82951e-19)
(0.0537487 -5.57428e-20 1.32382e-18)
(0.0454735 8.61217e-20 8.02787e-19)
(0.0454735 -5.12438e-20 1.21573e-18)
(0.0375697 3.06928e-21 7.26968e-19)
(0.0375697 3.06844e-21 1.11133e-18)
(0.0300207 -4.35515e-20 6.64234e-19)
(0.0300207 -1.68499e-20 1.01276e-18)
(0.0228108 -1.09684e-20 6.0507e-19)
(0.0228108 -1.96734e-20 9.22399e-19)
(0.015925 1.04398e-21 5.4998e-19)
(0.015925 -8.78457e-21 8.406e-19)
(0.00934882 2.85222e-21 5.00936e-19)
(0.00934882 -5.73971e-21 7.67637e-19)
(0.00306853 -6.08285e-21 3.91962e-20)
(0.00306853 2.82902e-21 1.43079e-19)
(1.14504 -2.2613e-16 -5.55527e-16)
(1.14504 -2.33975e-16 -4.62608e-16)
(1.14395 -2.39772e-16 -2.57485e-16)
(1.14395 -2.26916e-16 -3.16204e-16)
(1.14193 -2.1415e-16 -6.21557e-17)
(1.14193 -2.49341e-16 -2.78098e-17)
(1.13911 -1.80609e-16 -1.55773e-16)
(1.13911 -2.22784e-16 -9.60419e-17)
(1.13564 -1.23712e-16 -9.66712e-17)
(1.13564 -1.62294e-16 -1.11223e-16)
(1.13161 -2.30242e-16 -1.11674e-16)
(1.13161 -2.28548e-16 -1.68608e-16)
(1.1271 -2.7222e-16 -1.83058e-16)
(1.1271 -2.61078e-16 -2.25029e-16)
(1.12218 -2.31732e-16 -1.49369e-16)
(1.12218 -1.9282e-16 -8.62064e-17)
(1.1169 -2.29483e-16 -1.23783e-16)
(1.1169 -2.35323e-16 -1.15651e-16)
(1.1113 -2.35387e-16 -1.33852e-16)
(1.1113 -1.86399e-16 -6.14525e-17)
(1.10542 -2.67598e-16 -2.05166e-16)
(1.10542 -2.09583e-16 -1.97644e-16)
(1.09929 -2.03607e-16 -2.18146e-16)
(1.09929 -2.17297e-16 -2.24161e-16)
(1.09291 -2.41966e-16 -1.8702e-16)
(1.09291 -2.28338e-16 -1.09018e-16)
(1.08632 -1.76542e-16 -1.77118e-16)
(1.08632 -2.37026e-16 -5.56668e-17)
(1.07953 -1.48089e-16 -3.93488e-17)
(1.07953 -1.84158e-16 -1.05772e-16)
(1.07254 -1.49005e-16 -9.46385e-17)
(1.07254 -1.77366e-16 -3.29366e-17)
(1.06538 -2.08176e-16 -1.33641e-16)
(1.06538 -1.71283e-16 -1.38383e-16)
(1.05804 -1.56659e-16 -1.0742e-16)
(1.05804 -1.7173e-16 -2.03057e-16)
(1.05054 -1.75821e-16 -1.88207e-16)
(1.05054 -1.80806e-16 -1.04517e-16)
(1.04288 -1.45715e-16 -1.24631e-16)
(1.04288 -1.87891e-16 -1.26418e-16)
(1.03506 -1.37848e-16 -1.1504e-16)
(1.03506 -8.20557e-17 -1.6181e-16)
(1.02709 -1.07946e-16 -9.57924e-17)
(1.02709 -1.11321e-16 -6.49481e-17)
(1.01897 -1.24216e-16 -9.28773e-17)
(1.01897 -9.74462e-17 -1.97044e-17)
(1.0107 -1.25886e-16 -9.31555e-17)
(1.0107 -9.5398e-17 -2.79224e-17)
(1.00229 -1.08408e-16 -9.1549e-17)
(1.00229 -7.99948e-17 -8.06646e-17)
(0.993726 -3.08299e-17 -9.53209e-17)
(0.993726 -4.11862e-17 -5.80044e-17)
(0.98502 -2.60968e-17 -9.42905e-17)
(0.98502 -5.47275e-17 -4.51862e-17)
(0.976166 -4.84713e-17 -6.9609e-17)
(0.976166 -7.87333e-17 -3.90329e-17)
(0.967164 -6.20574e-17 -6.74456e-17)
(0.967164 -5.64864e-17 -2.88307e-17)
(0.958012 -1.63668e-17 -3.54069e-17)
(0.958012 -5.6884e-17 -2.48407e-17)
(0.948708 -1.71086e-17 -5.24142e-17)
(0.948708 -6.10228e-17 -3.30742e-17)
(0.939249 -1.65676e-17 -5.1715e-17)
(0.939249 -4.06046e-17 -8.2238e-17)
(0.929632 -3.86307e-17 -5.21191e-17)
(0.929632 5.95463e-19 -4.92604e-17)
(0.919853 -2.73142e-17 -3.76627e-17)
(0.919853 -1.88448e-17 -1.99294e-17)
(0.909907 -2.10163e-17 -2.33954e-17)
(0.909907 -2.47984e-17 -9.6033e-18)
(0.89979 -2.28911e-17 -2.38824e-17)
(0.89979 -2.25128e-18 -6.93012e-18)
(0.889496 -2.01571e-17 -2.56136e-17)
(0.889496 -2.3717e-17 -1.49363e-17)
(0.87902 -1.0983e-17 -2.05217e-17)
(0.87902 -3.2064e-17 -2.24608e-17)
(0.868354 2.61426e-18 -1.04824e-17)
(0.868354 -5.07424e-17 -2.12572e-17)
(0.857491 1.49986e-19 -1.28226e-17)
(0.857491 -3.736e-17 -2.00599e-17)
(0.846423 -9.4649e-18 -7.82906e-18)
(0.846423 -1.53713e-17 -3.75044e-17)
(0.835142 -2.06684e-17 -8.95789e-18)
(0.835142 -2.18785e-18 -4.05826e-17)
(0.823639 -9.85897e-18 -1.27403e-17)
(0.823639 -3.10766e-17 -3.65445e-17)
(0.811902 -3.65734e-18 -1.05538e-17)
(0.811902 -2.3502e-17 -3.52614e-17)
(0.79992 -1.38048e-17 -5.63682e-18)
(0.79992 -2.62794e-17 -3.87624e-17)
(0.787683 -3.05974e-17 -4.19097e-18)
(0.787683 -2.00791e-17 -3.93686e-17)
(0.775177 -4.19993e-17 -8.49088e-18)
(0.775177 -2.56867e-17 -3.28837e-17)
(0.762388 -4.86044e-17 -1.00071e-17)
(0.762388 -3.30103e-17 -2.79793e-17)
(0.749302 -4.00006e-17 -7.03453e-18)
(0.749302 -1.67652e-17 -2.06157e-17)
(0.735904 -2.32215e-17 -7.13076e-18)
(0.735904 -1.134e-17 -1.7242e-17)
(0.722177 -2.53421e-17 -7.75076e-18)
(0.722177 -1.44543e-17 -1.45951e-17)
(0.708105 -2.69625e-17 -8.25467e-18)
(0.708105 -1.71998e-17 -1.64175e-17)
(0.69367 -2.74815e-17 -1.11712e-17)
(0.69367 -1.47224e-17 -1.30754e-17)
(0.678855 -2.17975e-17 -1.20016e-17)
(0.678855 -1.92233e-17 -1.07538e-17)
(0.663641 -1.90268e-17 -1.28285e-17)
(0.663641 -1.26258e-17 -1.14446e-17)
(0.648011 -1.92939e-17 -1.442e-17)
(0.648011 -1.33002e-17 -1.00004e-17)
(0.631949 -1.56203e-17 -1.50567e-17)
(0.631949 -1.17354e-17 -1.02269e-17)
(0.61544 -1.16773e-17 -1.62874e-17)
(0.61544 -1.1157e-17 -1.01687e-17)
(0.598472 -7.27746e-18 -1.8989e-17)
(0.598472 -1.62438e-17 -8.54419e-18)
(0.581037 -6.70558e-18 -1.90372e-17)
(0.581037 -1.58196e-17 -7.44566e-18)
(0.563135 -7.63256e-18 -1.79997e-17)
(0.563135 -1.90177e-17 -7.79754e-18)
(0.544768 -6.14955e-18 -1.76644e-17)
(0.544768 -1.3634e-17 -8.36509e-18)
(0.525954 -3.68325e-18 -1.8695e-17)
(0.525954 -9.44273e-18 -8.27385e-18)
(0.506717 -1.21302e-18 -1.97627e-17)
(0.506717 -7.79487e-18 -7.04106e-18)
(0.487098 -3.74545e-19 -1.9235e-17)
(0.487098 -5.76031e-18 -5.98171e-18)
(0.467152 -2.58617e-18 -1.83723e-17)
(0.467152 -1.00676e-17 -6.32616e-18)
(0.446951 -4.73137e-18 -1.70782e-17)
(0.446951 -5.71944e-18 -6.5077e-18)
(0.426579 -4.24075e-18 -1.59887e-17)
(0.426579 -1.45221e-18 -5.73e-18)
(0.406137 -4.02209e-18 -1.47529e-17)
(0.406137 -3.99121e-18 -5.2968e-18)
(0.385731 -4.19778e-18 -1.39884e-17)
(0.385731 -3.33887e-18 -5.46241e-18)
(0.365473 -3.69063e-18 -1.34371e-17)
(0.365473 -2.83837e-18 -5.54566e-18)
(0.345474 -3.69642e-18 -1.27572e-17)
(0.345474 -2.86418e-18 -5.367e-18)
(0.325834 -3.82009e-18 -1.17528e-17)
(0.325834 -7.96989e-19 -5.06277e-18)
(0.306642 -3.83147e-18 -1.07122e-17)
(0.306642 -1.21289e-18 -4.86226e-18)
(0.287972 -3.6167e-18 -9.73145e-18)
(0.287972 -2.1385e-18 -4.54047e-18)
(0.269879 -2.50447e-18 -8.89572e-18)
(0.269879 -2.27305e-18 -4.12474e-18)
(0.252402 -1.30856e-18 -8.06441e-18)
(0.252402 3.85903e-19 -3.80676e-18)
(0.235566 -8.02298e-19 -7.06349e-18)
(0.235566 -4.51819e-19 -3.65282e-18)
(0.219381 -4.26514e-19 -6.37579e-18)
(0.219381 -1.42628e-18 -3.38748e-18)
(0.203848 4.72123e-20 -5.77198e-18)
(0.203848 -1.40143e-18 -3.08646e-18)
(0.188959 1.68947e-19 -5.19715e-18)
(0.188959 -1.14255e-18 -2.87159e-18)
(0.174702 9.71863e-20 -4.66595e-18)
(0.174702 -1.44512e-18 -2.65343e-18)
(0.161058 -1.84441e-19 -4.23223e-18)
(0.161058 -1.05412e-19 -2.43812e-18)
(0.148009 -7.44727e-19 -3.8218e-18)
(0.148009 -4.56e-19 -2.1733e-18)
(0.135532 -8.53498e-19 -3.42926e-18)
(0.135532 6.7101e-20 -1.98361e-18)
(0.123607 -5.36174e-19 -3.08386e-18)
(0.123607 -1.72821e-20 -1.79854e-18)
(0.11221 -8.84652e-20 -2.78145e-18)
(0.11221 -1.38593e-20 -1.63733e-18)
(0.101321 5.46903e-20 -2.47986e-18)
(0.101321 -6.9195e-20 -1.51833e-18)
(0.0909167 -1.36636e-20 -2.22894e-18)
(0.0909167 -8.23721e-20 -1.38947e-18)
(0.0809773 -5.86915e-20 -2.02106e-18)
(0.0809773 -7.50321e-20 -1.2602e-18)
(0.0714823 2.55829e-20 -1.84771e-18)
(0.0714823 -7.99226e-20 -1.14958e-18)
(0.0624123 1.16358e-19 -1.68225e-18)
(0.0624123 -9.83413e-20 -1.05312e-18)
(0.0537487 1.52573e-19 -1.53469e-18)
(0.0537487 -1.27406e-19 -9.56554e-19)
(0.0454735 1.5979e-19 -1.40527e-18)
(0.0454735 -1.6967e-19 -8.76184e-19)
(0.0375697 6.69639e-20 -1.28172e-18)
(0.0375697 -5.60152e-20 -8.00356e-19)
(0.0300207 3.81767e-22 -1.16926e-18)
(0.0300207 -2.92537e-20 -7.28941e-19)
(0.0228108 -2.91267e-21 -1.06442e-18)
(0.0228108 -1.56613e-20 -6.63637e-19)
(0.015925 3.73697e-22 -9.69766e-19)
(0.015925 -1.07501e-20 -6.04471e-19)
(0.00934882 2.9498e-21 -8.84812e-19)
(0.00934882 4.10225e-22 -5.50528e-19)
(0.00306853 1.38948e-21 -1.94843e-19)
(0.00306853 -1.62199e-21 -1.31235e-19)
)
;

boundaryField
{
    walls
    {
        type            fixedValue;
        value           uniform (0 0 0);
    }
    inlet
    {
        type            cyclic;
    }
    outlet
    {
        type            cyclic;
    }
    sides
    {
        type            empty;
    }
}


// ************************************************************************* //
