/*--------------------------------*- C++ -*----------------------------------*\
| =========                 |                                                 |
| \\      /  F ield         | OpenFOAM: The Open Source CFD Toolbox           |
|  \\    /   O peration     | Version:  2106                                  |
|   \\  /    A nd           | Website:  www.openfoam.com                      |
|    \\/     M anipulation  |                                                 |
\*---------------------------------------------------------------------------*/
FoamFile
{
    version     2.0;
    format      ascii;
    arch        "LSB;label=32;scalar=64";
    class       volVectorField;
    location    "10050";
    object      U;
}
// * * * * * * * * * * * * * * * * * * * * * * * * * * * * * * * * * * * * * //

dimensions      [0 1 -1 0 0 0 0];

internalField   nonuniform List<vector> 
2000
(
(0.000977428 -6.91529e-16 -1.65221e-17)
(0.000977428 -6.02551e-19 -1.38887e-18)
(0.00295017 -2.93232e-15 -6.03514e-17)
(0.00295017 1.56075e-20 -4.24766e-18)
(0.00495936 -2.65529e-15 -6.96317e-17)
(0.00495936 -1.15312e-18 -4.42711e-18)
(0.00700567 -2.57066e-15 -7.27596e-17)
(0.00700567 -1.8565e-18 -4.62213e-18)
(0.00908977 -2.51161e-15 -7.70166e-17)
(0.00908977 -2.58746e-18 -4.83454e-18)
(0.0112124 -2.52808e-15 -8.2508e-17)
(0.0112124 -3.352e-18 -5.06637e-18)
(0.0133742 -2.53299e-15 -8.83946e-17)
(0.0133742 -4.13811e-18 -5.31943e-18)
(0.0155759 -2.5319e-15 -9.4468e-17)
(0.0155759 -4.93366e-18 -5.5952e-18)
(0.0178182 -2.53013e-15 -1.00756e-16)
(0.0178182 -5.77231e-18 -5.89533e-18)
(0.0201019 -2.52865e-15 -1.07287e-16)
(0.0201019 -6.65159e-18 -6.2211e-18)
(0.0224278 -2.52728e-15 -1.14072e-16)
(0.0224278 -7.54511e-18 -6.57391e-18)
(0.0247966 -2.52588e-15 -1.2112e-16)
(0.0247966 -8.47157e-18 -6.95539e-18)
(0.0272091 -2.52442e-15 -1.28438e-16)
(0.0272091 -9.43214e-18 -7.36645e-18)
(0.029666 -2.52287e-15 -1.36035e-16)
(0.029666 -1.04431e-17 -7.80891e-18)
(0.0321683 -2.52125e-15 -1.4392e-16)
(0.0321683 -1.14735e-17 -8.28382e-18)
(0.0347166 -2.51959e-15 -1.521e-16)
(0.0347166 -1.25304e-17 -8.79287e-18)
(0.0373119 -2.51791e-15 -1.60587e-16)
(0.0373119 -1.36563e-17 -9.33786e-18)
(0.0399551 -2.51617e-15 -1.69388e-16)
(0.0399551 -1.47855e-17 -9.91914e-18)
(0.0426469 -2.51437e-15 -1.78512e-16)
(0.0426469 -1.59498e-17 -1.054e-17)
(0.0453883 -2.51248e-15 -1.8728e-16)
(0.0453883 -1.72103e-17 -1.12021e-17)
(0.0481801 -2.5105e-15 -1.96e-16)
(0.0481801 -1.84695e-17 -1.1855e-17)
(0.0510234 -2.50845e-15 -2.0508e-16)
(0.0510234 -1.97687e-17 -1.12408e-17)
(0.0539189 -2.50633e-15 -2.14531e-16)
(0.0539189 -2.11589e-17 -1.05795e-17)
(0.0568676 -2.50414e-15 -2.2437e-16)
(0.0568676 -2.25484e-17 -9.93563e-18)
(0.0598706 -2.50189e-15 -2.34611e-16)
(0.0598706 -2.40042e-17 -9.3122e-18)
(0.0629288 -2.49958e-15 -2.4527e-16)
(0.0629288 -2.54745e-17 -8.71372e-18)
(0.0660431 -2.49718e-15 -2.56361e-16)
(0.0660431 -2.69701e-17 -8.14313e-18)
(0.0692147 -2.49469e-15 -2.67612e-16)
(0.0692147 -2.85816e-17 -7.59989e-18)
(0.0724444 -2.4921e-15 -2.70477e-16)
(0.0724444 -3.01183e-17 -7.09338e-18)
(0.0757334 -2.4894e-15 -2.73335e-16)
(0.0757334 -3.17679e-17 -6.63033e-18)
(0.0790827 -2.48667e-15 -2.76183e-16)
(0.0790827 -3.34773e-17 -6.21422e-18)
(0.0824934 -2.48388e-15 -2.7902e-16)
(0.0824934 -3.52073e-17 -5.84318e-18)
(0.0859666 -2.481e-15 -2.81849e-16)
(0.0859666 -3.7069e-17 -5.52277e-18)
(0.0895034 -2.47798e-15 -2.84668e-16)
(0.0895034 -3.90217e-17 -5.26275e-18)
(0.0931049 -2.4748e-15 -2.87481e-16)
(0.0931049 -4.10497e-17 -5.05747e-18)
(0.0967723 -2.47147e-15 -2.90288e-16)
(0.0967723 -4.3165e-17 -4.9189e-18)
(0.100507 -2.46806e-15 -2.93094e-16)
(0.100507 -4.54029e-17 -4.84925e-18)
(0.104309 -2.46472e-15 -2.95898e-16)
(0.104309 -4.74929e-17 -4.8536e-18)
(0.108181 -2.46127e-15 -2.98695e-16)
(0.108181 -4.9667e-17 -4.94074e-18)
(0.112124 -2.45772e-15 -3.01492e-16)
(0.112124 -5.1833e-17 -5.1027e-18)
(0.116138 -2.45413e-15 -3.04287e-16)
(0.116138 -5.39556e-17 -5.35882e-18)
(0.120225 -2.45037e-15 -3.07085e-16)
(0.120225 -5.63419e-17 -5.71307e-18)
(0.124387 -2.44648e-15 -3.09888e-16)
(0.124387 -5.86934e-17 -6.15788e-18)
(0.128624 -2.44249e-15 -3.12697e-16)
(0.128624 -6.11473e-17 -6.7114e-18)
(0.132938 -2.43817e-15 -3.15515e-16)
(0.132938 -6.34791e-17 -7.38059e-18)
(0.13733 -2.43376e-15 -3.18346e-16)
(0.13733 -6.58528e-17 -8.18009e-18)
(0.141802 -2.4297e-15 -3.21181e-16)
(0.141802 -6.84755e-17 -9.0959e-18)
(0.146354 -2.42556e-15 -3.24027e-16)
(0.146354 -7.09358e-17 -1.01384e-17)
(0.150988 -2.42119e-15 -3.26899e-16)
(0.150988 -7.34259e-17 -1.13293e-17)
(0.155705 -2.4172e-15 -3.29794e-16)
(0.155705 -7.61598e-17 -1.26736e-17)
(0.160507 -2.41196e-15 -3.32663e-16)
(0.160507 -7.89611e-17 -1.41547e-17)
(0.165394 -2.40721e-15 -3.35467e-16)
(0.165394 -8.14039e-17 -1.57892e-17)
(0.170368 -2.4023e-15 -3.38269e-16)
(0.170368 -8.39149e-17 -1.76238e-17)
(0.175431 -2.39697e-15 -3.41125e-16)
(0.175431 -8.69075e-17 -1.95965e-17)
(0.180583 -2.39124e-15 -3.44027e-16)
(0.180583 -8.98685e-17 -1.93891e-17)
(0.185825 -2.38552e-15 -3.44543e-16)
(0.185825 -9.29069e-17 -1.88592e-17)
(0.19116 -2.37994e-15 -3.44603e-16)
(0.19116 -9.58658e-17 -1.81911e-17)
(0.196587 -2.37416e-15 -3.44434e-16)
(0.196587 -9.88236e-17 -1.74196e-17)
(0.202108 -2.36832e-15 -3.44046e-16)
(0.202108 -1.02263e-16 -1.65118e-17)
(0.207723 -2.36237e-15 -3.43418e-16)
(0.207723 -1.05755e-16 -1.54747e-17)
(0.213434 -2.35591e-15 -3.42551e-16)
(0.213434 -1.09242e-16 -1.42893e-17)
(0.219242 -2.34934e-15 -3.41456e-16)
(0.219242 -1.12718e-16 -1.29523e-17)
(0.225147 -2.34311e-15 -3.40154e-16)
(0.225147 -1.16178e-16 -1.14022e-17)
(0.231149 -2.33707e-15 -3.38599e-16)
(0.231149 -1.1951e-16 -9.68664e-18)
(0.237249 -2.33089e-15 -3.36747e-16)
(0.237249 -1.2243e-16 -7.80536e-18)
(0.243448 -2.32443e-15 -3.34629e-16)
(0.243448 -1.25393e-16 -5.7562e-18)
(0.249744 -2.3182e-15 -3.32242e-16)
(0.249744 -1.28112e-16 -3.56977e-18)
(0.256139 -2.31267e-15 -3.29528e-16)
(0.256139 -1.30692e-16 -1.21437e-18)
(0.262632 -2.30658e-15 -3.26503e-16)
(0.262632 -1.33715e-16 7.17503e-19)
(0.269222 -2.30011e-15 -3.23192e-16)
(0.269222 -1.3682e-16 6.41895e-19)
(0.275909 -2.29418e-15 -3.19582e-16)
(0.275909 -1.4007e-16 5.3232e-19)
(0.28269 -2.28785e-15 -3.15694e-16)
(0.28269 -1.43271e-16 3.99994e-19)
(0.289566 -2.28083e-15 -3.11561e-16)
(0.289566 -1.4716e-16 2.7971e-19)
(0.296534 -2.27382e-15 -3.07184e-16)
(0.296534 -1.51721e-16 1.55087e-19)
(0.303592 -2.26684e-15 -3.02532e-16)
(0.303592 -1.55184e-16 1.24301e-20)
(0.310739 -2.2599e-15 -2.97666e-16)
(0.310739 -1.58768e-16 -1.67011e-19)
(0.31797 -2.25278e-15 -2.92609e-16)
(0.31797 -1.62243e-16 -3.13901e-19)
(0.325284 -2.24538e-15 -2.8731e-16)
(0.325284 -1.6528e-16 -4.59206e-19)
(0.332676 -2.23789e-15 -2.81813e-16)
(0.332676 -1.68348e-16 -6.17386e-19)
(0.340143 -2.23037e-15 -2.76106e-16)
(0.340143 -1.71335e-16 -7.73815e-19)
(0.347682 -2.22299e-15 -2.7017e-16)
(0.347682 -1.74671e-16 -9.41269e-19)
(0.355287 -2.21508e-15 -2.64057e-16)
(0.355287 -1.7738e-16 -1.16474e-18)
(0.362953 -2.20582e-15 -2.57825e-16)
(0.362953 -1.82071e-16 -1.38576e-18)
(0.370677 -2.19644e-15 -2.51547e-16)
(0.370677 -1.87523e-16 -1.64563e-18)
(0.378452 -2.18959e-15 -2.45251e-16)
(0.378452 -1.90057e-16 -1.82819e-18)
(0.386274 -2.18425e-15 -2.38799e-16)
(0.386274 -1.91558e-16 -2.0346e-18)
(0.394135 -2.17928e-15 -2.32258e-16)
(0.394135 -1.947e-16 -2.20218e-18)
(0.402032 -2.1751e-15 -2.25554e-16)
(0.402032 -1.9792e-16 -2.36835e-18)
(0.409957 -2.17027e-15 -2.18724e-16)
(0.409957 -1.98527e-16 -2.48693e-18)
(0.417904 -2.16456e-15 -2.11715e-16)
(0.417904 -2.00575e-16 -2.66388e-18)
(0.425868 -2.15786e-15 -2.04651e-16)
(0.425868 -2.04438e-16 -2.89716e-18)
(0.433842 -2.1499e-15 -1.97718e-16)
(0.433842 -2.06694e-16 -3.1736e-18)
(0.441822 -2.14351e-15 -1.90983e-16)
(0.441822 -2.09624e-16 -3.40775e-18)
(0.449799 -2.13777e-15 -1.8435e-16)
(0.449799 -2.11623e-16 -3.59132e-18)
(0.45777 -2.13066e-15 -1.77782e-16)
(0.45777 -2.1305e-16 -3.88697e-18)
(0.465729 -2.12431e-15 -1.71464e-16)
(0.465729 -2.15387e-16 -4.17301e-18)
(0.473669 -2.11785e-15 -1.65411e-16)
(0.473669 -2.18746e-16 -4.49646e-18)
(0.481587 -2.1115e-15 -1.59689e-16)
(0.481587 -2.21532e-16 -4.82922e-18)
(0.489477 -2.1062e-15 -1.54353e-16)
(0.489477 -2.23414e-16 -5.09207e-18)
(0.497336 -2.10088e-15 -1.49279e-16)
(0.497336 -2.25074e-16 -5.33735e-18)
(0.505157 -2.09516e-15 -1.44554e-16)
(0.505157 -2.2691e-16 -5.73059e-18)
(0.512939 -2.09005e-15 -1.40351e-16)
(0.512939 -2.2948e-16 -6.13718e-18)
(0.520678 -2.08299e-15 -1.36603e-16)
(0.520678 -2.34071e-16 -6.42562e-18)
(0.528369 -2.07342e-15 -1.33574e-16)
(0.528369 -2.39337e-16 -6.94113e-18)
(0.53601 -2.06705e-15 -1.31435e-16)
(0.53601 -2.42908e-16 -7.16061e-18)
(0.543599 -2.06112e-15 -1.29659e-16)
(0.543599 -2.46465e-16 -7.57261e-18)
(0.551133 -2.05441e-15 -1.28686e-16)
(0.551133 -2.51569e-16 -7.91788e-18)
(0.55861 -2.05049e-15 -1.28153e-16)
(0.55861 -2.56604e-16 -7.98917e-18)
(0.566028 -2.04443e-15 -1.27844e-16)
(0.566028 -2.58311e-16 -8.11275e-18)
(0.573387 -2.04304e-15 -1.27604e-16)
(0.573387 -2.57707e-16 -7.88027e-18)
(0.580683 -2.03786e-15 -1.27223e-16)
(0.580683 -2.58737e-16 -7.71087e-18)
(0.587918 -2.03545e-15 -1.26974e-16)
(0.587918 -2.62956e-16 -8.02785e-18)
(0.595089 -2.03098e-15 -1.27193e-16)
(0.595089 -2.65679e-16 -7.93774e-18)
(0.602196 -2.02629e-15 -1.27679e-16)
(0.602196 -2.69148e-16 -7.51615e-18)
(0.609238 -2.02117e-15 -1.28576e-16)
(0.609238 -2.72692e-16 -6.57721e-18)
(0.616217 -2.01568e-15 -1.29873e-16)
(0.616217 -2.74701e-16 -6.55893e-18)
(0.62313 -2.0086e-15 -1.31866e-16)
(0.62313 -2.79921e-16 -6.50948e-18)
(0.629979 -1.99987e-15 -1.34405e-16)
(0.629979 -2.88224e-16 -5.85651e-18)
(0.636763 -1.98795e-15 -1.37418e-16)
(0.636763 -2.97124e-16 -5.11636e-18)
(0.643483 -1.97399e-15 -1.40851e-16)
(0.643483 -3.04512e-16 -5.57239e-18)
(0.65014 -1.9659e-15 -1.45016e-16)
(0.65014 -3.08786e-16 -5.5119e-18)
(0.656732 -1.95796e-15 -1.48902e-16)
(0.656732 -3.14244e-16 -4.92929e-18)
(0.663263 -1.94949e-15 -1.52935e-16)
(0.663263 -3.1892e-16 -4.11849e-18)
(0.669731 -1.945e-15 -1.56465e-16)
(0.669731 -3.23465e-16 -3.66661e-18)
(0.676137 -1.93934e-15 -1.59866e-16)
(0.676137 -3.26802e-16 -3.054e-18)
(0.682483 -1.93066e-15 -1.62992e-16)
(0.682483 -3.3351e-16 -2.737e-18)
(0.688769 -1.91713e-15 -1.66286e-16)
(0.688769 -3.43968e-16 -3.16117e-18)
(0.694996 -1.9066e-15 -1.70181e-16)
(0.694996 -3.51704e-16 -2.68278e-18)
(0.701164 -1.90124e-15 -1.73523e-16)
(0.701164 -3.63237e-16 -2.07109e-18)
(0.707275 -1.89623e-15 -1.7621e-16)
(0.707275 -3.7291e-16 -2.66212e-18)
(0.71333 -1.89086e-15 -1.7839e-16)
(0.71333 -3.84916e-16 -3.18253e-18)
(0.719329 -1.88188e-15 -1.8054e-16)
(0.719329 -3.94e-16 -2.08545e-18)
(0.725274 -1.87153e-15 -1.81468e-16)
(0.725274 -4.04476e-16 -2.04655e-18)
(0.731165 -1.85922e-15 -1.82278e-16)
(0.731165 -4.15776e-16 -2.83302e-18)
(0.737003 -1.84368e-15 -1.83433e-16)
(0.737003 -4.25933e-16 -4.34766e-18)
(0.74279 -1.83157e-15 -1.8485e-16)
(0.74279 -4.38404e-16 -3.1733e-18)
(0.748525 -1.8215e-15 -1.85354e-16)
(0.748525 -4.48316e-16 -3.08737e-18)
(0.754211 -1.80701e-15 -1.85193e-16)
(0.754211 -4.61439e-16 -3.76492e-18)
(0.759848 -1.79534e-15 -1.85293e-16)
(0.759848 -4.74164e-16 -3.04315e-18)
(0.765438 -1.78331e-15 -1.84974e-16)
(0.765438 -4.92413e-16 -1.76956e-18)
(0.77098 -1.76713e-15 -1.84836e-16)
(0.77098 -5.04485e-16 -1.67296e-18)
(0.776476 -1.75327e-15 -1.84822e-16)
(0.776476 -5.12136e-16 -3.61753e-18)
(0.781926 -1.74059e-15 -1.84481e-16)
(0.781926 -5.2942e-16 -4.88491e-18)
(0.787333 -1.72008e-15 -1.83608e-16)
(0.787333 -5.44433e-16 -2.36065e-18)
(0.792696 -1.6995e-15 -1.83355e-16)
(0.792696 -5.55965e-16 4.71686e-18)
(0.798016 -1.68689e-15 -1.82619e-16)
(0.798016 -5.61667e-16 1.1547e-17)
(0.803295 -1.67392e-15 -1.80697e-16)
(0.803295 -5.71582e-16 1.78074e-17)
(0.808532 -1.658e-15 -1.78517e-16)
(0.808532 -5.87981e-16 2.45589e-17)
(0.81373 -1.63575e-15 -1.76082e-16)
(0.81373 -6.0223e-16 2.78068e-17)
(0.818888 -1.60513e-15 -1.75409e-16)
(0.818888 -6.18709e-16 2.48327e-17)
(0.824008 -1.57583e-15 -1.69824e-16)
(0.824008 -6.31256e-16 2.13548e-17)
(0.82909 -1.55862e-15 -1.62856e-16)
(0.82909 -6.39088e-16 1.91775e-17)
(0.834135 -1.54892e-15 -1.55341e-16)
(0.834135 -6.52638e-16 1.66642e-17)
(0.839143 -1.53679e-15 -1.47378e-16)
(0.839143 -6.61769e-16 1.28707e-17)
(0.844116 -1.52103e-15 -1.48004e-16)
(0.844116 -6.66249e-16 7.56859e-18)
(0.849054 -1.50881e-15 -1.48053e-16)
(0.849054 -6.79419e-16 2.87827e-18)
(0.853958 -1.49336e-15 -1.46213e-16)
(0.853958 -6.83528e-16 -9.32767e-19)
(0.858828 -1.47091e-15 -1.4368e-16)
(0.858828 -6.87746e-16 -5.77469e-18)
(0.863666 -1.44885e-15 -1.41569e-16)
(0.863666 -6.96752e-16 -1.23836e-17)
(0.86847 -1.43241e-15 -1.39696e-16)
(0.86847 -6.99058e-16 -1.86988e-17)
(0.873244 -1.41422e-15 -1.37562e-16)
(0.873244 -7.0951e-16 -2.5751e-17)
(0.877985 -1.38601e-15 -1.35873e-16)
(0.877985 -7.14623e-16 -3.35665e-17)
(0.882697 -1.36008e-15 -1.3795e-16)
(0.882697 -7.16756e-16 -3.88231e-17)
(0.887378 -1.33739e-15 -1.41417e-16)
(0.887378 -7.20276e-16 -4.3583e-17)
(0.892029 -1.32101e-15 -1.45923e-16)
(0.892029 -7.24804e-16 -4.93714e-17)
(0.896651 -1.30512e-15 -1.49239e-16)
(0.896651 -7.33768e-16 -5.46178e-17)
(0.901245 -1.29056e-15 -1.52063e-16)
(0.901245 -7.40503e-16 -6.21313e-17)
(0.905811 -1.27812e-15 -1.52639e-16)
(0.905811 -7.45743e-16 -6.8484e-17)
(0.910349 -1.25895e-15 -1.51909e-16)
(0.910349 -7.54423e-16 -7.32266e-17)
(0.914859 -1.23912e-15 -1.51055e-16)
(0.914859 -7.67296e-16 -7.91449e-17)
(0.919343 -1.22496e-15 -1.51882e-16)
(0.919343 -7.77668e-16 -8.49935e-17)
(0.9238 -1.20257e-15 -1.52016e-16)
(0.9238 -7.79066e-16 -9.13085e-17)
(0.928231 -1.18241e-15 -1.55056e-16)
(0.928231 -7.76452e-16 -1.00049e-16)
(0.932636 -1.16808e-15 -1.57049e-16)
(0.932636 -7.77659e-16 -1.07257e-16)
(0.937016 -1.1515e-15 -1.60753e-16)
(0.937016 -7.75232e-16 -1.13067e-16)
(0.941371 -1.13844e-15 -1.64516e-16)
(0.941371 -7.73772e-16 -1.18164e-16)
(0.945701 -1.12208e-15 -1.6762e-16)
(0.945701 -7.78652e-16 -1.21187e-16)
(0.950006 -1.10724e-15 -1.68888e-16)
(0.950006 -7.70358e-16 -1.22946e-16)
(0.954287 -1.09475e-15 -1.73054e-16)
(0.954287 -7.65946e-16 -1.23653e-16)
(0.958544 -1.08941e-15 -1.75895e-16)
(0.958544 -7.52345e-16 -1.27621e-16)
(0.962777 -1.07035e-15 -1.71408e-16)
(0.962777 -7.47324e-16 -1.33372e-16)
(0.966986 -1.0507e-15 -1.69449e-16)
(0.966986 -7.62125e-16 -1.44578e-16)
(0.971172 -1.03635e-15 -1.61073e-16)
(0.971172 -7.7063e-16 -1.45393e-16)
(0.975335 -1.01803e-15 -1.53647e-16)
(0.975335 -7.85742e-16 -1.44982e-16)
(0.979475 -1.01e-15 -1.41169e-16)
(0.979475 -7.91252e-16 -1.52181e-16)
(0.983591 -1.00126e-15 -1.25574e-16)
(0.983591 -7.98214e-16 -1.60784e-16)
(0.987685 -9.80493e-16 -1.24743e-16)
(0.987685 -8.02322e-16 -1.62291e-16)
(0.991755 -9.63924e-16 -1.27242e-16)
(0.991755 -8.16608e-16 -1.70777e-16)
(0.995803 -9.61827e-16 -1.31129e-16)
(0.995803 -8.40823e-16 -1.71557e-16)
(0.999828 -9.53656e-16 -1.30906e-16)
(0.999828 -8.45521e-16 -1.71647e-16)
(1.00383 -9.33486e-16 -1.30146e-16)
(1.00383 -8.63419e-16 -1.71675e-16)
(1.00781 -9.17313e-16 -1.32667e-16)
(1.00781 -8.68354e-16 -1.64095e-16)
(1.01177 -8.99543e-16 -1.36886e-16)
(1.01177 -8.54752e-16 -1.65373e-16)
(1.0157 -8.88555e-16 -1.45483e-16)
(1.0157 -8.64137e-16 -1.73237e-16)
(1.01961 -8.8219e-16 -1.53299e-16)
(1.01961 -8.72255e-16 -1.71015e-16)
(1.0235 -8.72464e-16 -1.61011e-16)
(1.0235 -8.55125e-16 -1.70234e-16)
(1.02736 -8.69043e-16 -1.66904e-16)
(1.02736 -8.57005e-16 -1.56893e-16)
(1.0312 -8.53819e-16 -1.71965e-16)
(1.0312 -8.72309e-16 -1.49379e-16)
(1.03502 -8.50899e-16 -1.71363e-16)
(1.03502 -8.47451e-16 -1.36697e-16)
(1.03881 -8.60316e-16 -1.6285e-16)
(1.03881 -8.12186e-16 -1.38634e-16)
(1.04258 -8.37344e-16 -1.45299e-16)
(1.04258 -7.91388e-16 -1.52138e-16)
(1.04633 -8.15822e-16 -1.33325e-16)
(1.04633 -8.01034e-16 -1.37677e-16)
(1.05005 -7.97435e-16 -1.12117e-16)
(1.05005 -7.99614e-16 -1.26629e-16)
(1.05374 -7.8254e-16 -1.06491e-16)
(1.05374 -7.81763e-16 -1.11741e-16)
(1.05741 -7.63626e-16 -1.10668e-16)
(1.05741 -7.30189e-16 -1.05683e-16)
(1.06106 -7.44695e-16 -1.11132e-16)
(1.06106 -7.06951e-16 -1.00405e-16)
(1.06467 -7.31072e-16 -1.11745e-16)
(1.06467 -7.34697e-16 -1.07068e-16)
(1.06826 -7.14694e-16 -1.18989e-16)
(1.06826 -7.16671e-16 -1.18333e-16)
(1.07182 -7.01815e-16 -1.19261e-16)
(1.07182 -7.0667e-16 -1.1665e-16)
(1.07536 -6.91941e-16 -1.17015e-16)
(1.07536 -7.01661e-16 -1.19563e-16)
(1.07886 -6.74071e-16 -1.149e-16)
(1.07886 -6.67987e-16 -1.2096e-16)
(1.08234 -6.7512e-16 -1.30213e-16)
(1.08234 -6.58646e-16 -1.35557e-16)
(1.08578 -6.69761e-16 -1.35222e-16)
(1.08578 -6.92946e-16 -1.45787e-16)
(1.08919 -6.54712e-16 -1.44317e-16)
(1.08919 -6.63832e-16 -1.46043e-16)
(1.09257 -6.58202e-16 -1.64287e-16)
(1.09257 -6.42202e-16 -1.74026e-16)
(1.09592 -6.3966e-16 -1.84892e-16)
(1.09592 -6.58608e-16 -1.96641e-16)
(1.09923 -6.62763e-16 -1.81639e-16)
(1.09923 -6.20219e-16 -1.75562e-16)
(1.1025 -6.61916e-16 -1.59861e-16)
(1.1025 -6.08431e-16 -1.69309e-16)
(1.10574 -6.28362e-16 -1.31854e-16)
(1.10574 -6.1114e-16 -1.708e-16)
(1.10894 -6.27698e-16 -1.42287e-16)
(1.10894 -6.1733e-16 -1.53993e-16)
(1.1121 -6.22407e-16 -1.33174e-16)
(1.1121 -6.25755e-16 -1.46059e-16)
(1.11522 -6.03735e-16 -1.409e-16)
(1.11522 -6.15641e-16 -1.45286e-16)
(1.1183 -6.05127e-16 -1.35129e-16)
(1.1183 -6.26912e-16 -1.37818e-16)
(1.12133 -5.92993e-16 -1.38744e-16)
(1.12133 -6.1227e-16 -1.28551e-16)
(1.12431 -5.83562e-16 -1.3408e-16)
(1.12431 -6.04598e-16 -1.1934e-16)
(1.12724 -6.05141e-16 -1.27106e-16)
(1.12724 -6.1265e-16 -1.27502e-16)
(1.13012 -5.91908e-16 -1.28076e-16)
(1.13012 -5.74209e-16 -1.2968e-16)
(1.13295 -5.53521e-16 -1.33457e-16)
(1.13295 -5.42858e-16 -1.34751e-16)
(1.13572 -5.60673e-16 -1.59808e-16)
(1.13572 -5.98148e-16 -1.11022e-16)
(1.13842 -5.99835e-16 -1.60746e-16)
(1.13842 -6.06217e-16 -9.42143e-17)
(1.14107 -5.83711e-16 -1.62582e-16)
(1.14107 -5.72574e-16 -8.03242e-17)
(1.14365 -5.6931e-16 -1.4067e-16)
(1.14365 -6.01958e-16 -8.86114e-17)
(1.14615 -5.3205e-16 -9.37019e-17)
(1.14615 -5.99893e-16 -1.04858e-16)
(1.14858 -4.51442e-16 -1.04845e-16)
(1.14858 -6.05957e-16 -1.03181e-16)
(1.15093 -5.57629e-16 -5.23881e-17)
(1.15093 -6.20421e-16 -9.51515e-17)
(1.1532 -5.39669e-16 -7.86726e-17)
(1.1532 -6.13059e-16 -6.91042e-17)
(1.15537 -5.07824e-16 -1.00583e-16)
(1.15537 -6.08428e-16 -8.21866e-17)
(1.15745 -5.49146e-16 -1.41626e-16)
(1.15745 -5.56222e-16 -4.49236e-17)
(1.15942 -5.77359e-16 -1.17051e-16)
(1.15942 -5.15901e-16 -2.854e-17)
(1.16129 -5.87197e-16 -1.15578e-16)
(1.16129 -5.48402e-16 -4.46923e-18)
(1.16303 -5.88145e-16 -8.7508e-17)
(1.16303 -5.56979e-16 -1.67312e-17)
(1.16465 -5.99164e-16 -6.76617e-17)
(1.16465 -5.26105e-16 7.56498e-18)
(1.16614 -5.81569e-16 -3.94288e-17)
(1.16614 -4.99245e-16 -6.88073e-17)
(1.16748 -5.25965e-16 -1.98087e-17)
(1.16748 -4.65523e-16 -2.71401e-17)
(1.16866 -4.4592e-16 -2.93857e-17)
(1.16866 -4.54741e-16 5.92246e-19)
(1.16967 -4.08628e-16 -2.3482e-17)
(1.16967 -4.28594e-16 5.18072e-17)
(1.17051 -3.48599e-16 -5.71983e-17)
(1.17051 -4.14727e-16 -8.28182e-18)
(1.17116 -4.56688e-16 -8.13432e-17)
(1.17116 -4.10505e-16 -2.90944e-17)
(1.17161 -4.12656e-16 4.60344e-18)
(1.17161 -4.43929e-16 -7.19937e-17)
(1.17183 -4.10676e-16 6.04215e-17)
(1.17183 -4.47396e-16 -5.94924e-17)
(0.000977428 -3.14964e-19 1.78316e-18)
(0.000977428 -9.39267e-20 -9.81573e-23)
(0.00295017 3.19338e-20 4.44562e-18)
(0.00295017 5.34398e-20 -3.50406e-22)
(0.00495936 -5.51635e-19 4.62184e-18)
(0.00495936 -3.85942e-20 -1.78688e-21)
(0.00700567 -8.90263e-19 4.80843e-18)
(0.00700567 -6.1404e-20 -2.76289e-21)
(0.00908977 -1.24635e-18 5.00624e-18)
(0.00908977 -8.45466e-20 -3.65899e-21)
(0.0112124 -1.61426e-18 5.21639e-18)
(0.0112124 -1.15319e-19 -4.63317e-21)
(0.0133742 -1.98945e-18 5.43972e-18)
(0.0133742 -1.46565e-19 -5.63605e-21)
(0.0155759 -2.37014e-18 5.67715e-18)
(0.0155759 -1.84431e-19 -6.81974e-21)
(0.0178182 -2.76853e-18 5.92953e-18)
(0.0178182 -2.21362e-19 -8.52105e-21)
(0.0201019 -3.18611e-18 6.19766e-18)
(0.0201019 -2.53496e-19 -9.96376e-21)
(0.0224278 -3.61689e-18 6.48208e-18)
(0.0224278 -2.9498e-19 -1.09431e-20)
(0.0247966 -4.08573e-18 6.78365e-18)
(0.0247966 -3.12304e-19 -1.265e-20)
(0.0272091 -4.59195e-18 7.10254e-18)
(0.0272091 -3.22078e-19 -1.41343e-20)
(0.029666 -5.11224e-18 7.43991e-18)
(0.029666 -3.54253e-19 -1.55128e-20)
(0.0321683 -5.62969e-18 7.79603e-18)
(0.0321683 -3.77402e-19 -1.70073e-20)
(0.0347166 -6.14989e-18 8.17149e-18)
(0.0347166 -3.88962e-19 -1.88226e-20)
(0.0373119 -6.68076e-18 8.56727e-18)
(0.0373119 -4.18368e-19 -2.06038e-20)
(0.0399551 -7.20985e-18 8.98348e-18)
(0.0399551 -4.7662e-19 -2.24708e-20)
(0.0426469 -7.76458e-18 9.42266e-18)
(0.0426469 -5.79371e-19 -2.65124e-20)
(0.0453883 -8.34881e-18 9.88556e-18)
(0.0453883 -7.01387e-19 -2.98564e-20)
(0.0481801 -8.94611e-18 1.03725e-17)
(0.0481801 -7.64407e-19 -3.24774e-20)
(0.0510234 -9.55851e-18 9.4704e-18)
(0.0510234 -8.3728e-19 -3.55704e-20)
(0.0539189 -1.02028e-17 8.55249e-18)
(0.0539189 -9.79616e-19 -3.24117e-19)
(0.0568676 -1.08597e-17 7.63116e-18)
(0.0568676 -1.11815e-18 -7.36034e-19)
(0.0598706 -1.15109e-17 6.7078e-18)
(0.0598706 -1.26133e-18 -1.18984e-18)
(0.0629288 -1.21746e-17 5.7865e-18)
(0.0629288 -1.41896e-18 -1.69021e-18)
(0.0660431 -1.2882e-17 4.86864e-18)
(0.0660431 -1.56365e-18 -2.2374e-18)
(0.0692147 -1.3601e-17 3.95145e-18)
(0.0692147 -1.77756e-18 -2.83522e-18)
(0.0724444 -1.43228e-17 3.0445e-18)
(0.0724444 -2.005e-18 -3.48952e-18)
(0.0757334 -1.50864e-17 2.15133e-18)
(0.0757334 -2.22094e-18 -4.19907e-18)
(0.0790827 -1.58742e-17 1.27676e-18)
(0.0790827 -2.4211e-18 -4.9662e-18)
(0.0824934 -1.66634e-17 4.16757e-19)
(0.0824934 -2.57425e-18 -5.79437e-18)
(0.0859666 -1.74987e-17 -4.21967e-19)
(0.0859666 -2.76016e-18 -6.68882e-18)
(0.0895034 -1.8396e-17 -1.23381e-18)
(0.0895034 -2.972e-18 -7.65429e-18)
(0.0931049 -1.92877e-17 -2.02163e-18)
(0.0931049 -3.1518e-18 -8.6903e-18)
(0.0967723 -2.02095e-17 -2.77526e-18)
(0.0967723 -3.42856e-18 -9.80814e-18)
(0.100507 -2.1041e-17 -3.49341e-18)
(0.100507 -3.73324e-18 -1.10035e-17)
(0.104309 -2.1911e-17 -4.16718e-18)
(0.104309 -4.00161e-18 -1.22825e-17)
(0.108181 -2.29568e-17 -4.79662e-18)
(0.108181 -4.48483e-18 -1.36459e-17)
(0.112124 -2.39907e-17 -5.39075e-18)
(0.112124 -4.88852e-18 -1.50898e-17)
(0.116138 -2.50673e-17 -5.93259e-18)
(0.116138 -5.08325e-18 -1.66333e-17)
(0.120225 -2.60996e-17 -6.41685e-18)
(0.120225 -5.55627e-18 -1.82704e-17)
(0.124387 -2.71141e-17 -6.8507e-18)
(0.124387 -6.00115e-18 -2.00015e-17)
(0.128624 -2.82327e-17 -7.22238e-18)
(0.128624 -6.39771e-18 -2.18394e-17)
(0.132938 -2.93969e-17 -7.52334e-18)
(0.132938 -6.65394e-18 -2.37769e-17)
(0.13733 -3.05574e-17 -7.7405e-18)
(0.13733 -6.81974e-18 -2.58294e-17)
(0.141802 -3.18564e-17 -7.8907e-18)
(0.141802 -7.41909e-18 -2.79854e-17)
(0.146354 -3.30996e-17 -7.95746e-18)
(0.146354 -7.99046e-18 -3.02749e-17)
(0.150988 -3.41969e-17 -7.9129e-18)
(0.150988 -8.47806e-18 -3.27008e-17)
(0.155705 -3.54762e-17 -7.75702e-18)
(0.155705 -9.05542e-18 -3.52393e-17)
(0.160507 -3.6812e-17 -7.51004e-18)
(0.160507 -9.68466e-18 -3.78825e-17)
(0.165394 -3.81363e-17 -7.15425e-18)
(0.165394 -1.0208e-17 -4.06849e-17)
(0.170368 -3.95708e-17 -6.64481e-18)
(0.170368 -1.09253e-17 -4.36416e-17)
(0.175431 -4.10664e-17 -6.0303e-18)
(0.175431 -1.16879e-17 -4.67156e-17)
(0.180583 -4.25318e-17 -5.26853e-18)
(0.180583 -1.22143e-17 -4.9948e-17)
(0.185825 -4.39177e-17 -4.34042e-18)
(0.185825 -1.29936e-17 -5.33194e-17)
(0.19116 -4.50843e-17 -3.26946e-18)
(0.19116 -1.36553e-17 -5.68237e-17)
(0.196587 -4.63038e-17 -2.02462e-18)
(0.196587 -1.42303e-17 -6.05012e-17)
(0.202108 -4.77594e-17 -6.29792e-19)
(0.202108 -1.50066e-17 -6.43054e-17)
(0.207723 -4.95033e-17 9.2443e-19)
(0.207723 -1.5912e-17 -6.82513e-17)
(0.213434 -5.12147e-17 2.62128e-18)
(0.213434 -1.67736e-17 -7.23328e-17)
(0.219242 -5.29648e-17 4.51379e-18)
(0.219242 -1.75165e-17 -7.65651e-17)
(0.225147 -5.47872e-17 6.5769e-18)
(0.225147 -1.83877e-17 -8.09415e-17)
(0.231149 -5.62562e-17 8.83201e-18)
(0.231149 -1.93068e-17 -8.54918e-17)
(0.237249 -5.78789e-17 1.12866e-17)
(0.237249 -2.07597e-17 -9.01857e-17)
(0.243448 -5.9617e-17 1.39615e-17)
(0.243448 -2.226e-17 -9.50422e-17)
(0.249744 -6.10609e-17 1.68706e-17)
(0.249744 -2.37094e-17 -1.00036e-16)
(0.256139 -6.25372e-17 2.00101e-17)
(0.256139 -2.52737e-17 -1.05124e-16)
(0.262632 -6.40376e-17 2.33536e-17)
(0.262632 -2.71233e-17 -1.10331e-16)
(0.269222 -6.54747e-17 2.7006e-17)
(0.269222 -2.86861e-17 -1.15062e-16)
(0.275909 -6.71818e-17 3.09833e-17)
(0.275909 -2.98806e-17 -1.17651e-16)
(0.28269 -6.94942e-17 3.5236e-17)
(0.28269 -3.1272e-17 -1.20124e-16)
(0.289566 -7.18417e-17 3.97076e-17)
(0.289566 -3.23193e-17 -1.22419e-16)
(0.296534 -7.39266e-17 4.44254e-17)
(0.296534 -3.37902e-17 -1.2457e-16)
(0.303592 -7.61128e-17 4.93628e-17)
(0.303592 -3.51089e-17 -1.26563e-16)
(0.310739 -7.79709e-17 5.45448e-17)
(0.310739 -3.67082e-17 -1.28369e-16)
(0.31797 -7.96581e-17 5.64276e-17)
(0.31797 -3.78677e-17 -1.29988e-16)
(0.325284 -8.21985e-17 5.64449e-17)
(0.325284 -3.96854e-17 -1.31456e-16)
(0.332676 -8.46151e-17 5.6134e-17)
(0.332676 -4.19416e-17 -1.32639e-16)
(0.340143 -8.63511e-17 5.57424e-17)
(0.340143 -4.29909e-17 -1.33592e-16)
(0.347682 -8.8201e-17 5.53959e-17)
(0.347682 -4.50579e-17 -1.34346e-16)
(0.355287 -8.98834e-17 5.50667e-17)
(0.355287 -4.73587e-17 -1.34869e-16)
(0.362953 -9.202e-17 5.46463e-17)
(0.362953 -4.95072e-17 -1.35085e-16)
(0.370677 -9.4169e-17 5.40195e-17)
(0.370677 -5.20612e-17 -1.34945e-16)
(0.378452 -9.59778e-17 5.32003e-17)
(0.378452 -5.33882e-17 -1.34426e-16)
(0.386274 -9.7508e-17 5.24032e-17)
(0.386274 -5.37832e-17 -1.33623e-16)
(0.394135 -9.84513e-17 5.16481e-17)
(0.394135 -5.55608e-17 -1.32527e-16)
(0.402032 -9.95492e-17 5.06998e-17)
(0.402032 -5.68918e-17 -1.31101e-16)
(0.409957 -1.00545e-16 4.96941e-17)
(0.409957 -5.88106e-17 -1.29421e-16)
(0.417904 -1.02346e-16 4.85902e-17)
(0.417904 -6.18815e-17 -1.2757e-16)
(0.425868 -1.0427e-16 4.74655e-17)
(0.425868 -6.47539e-17 -1.25438e-16)
(0.433842 -1.05348e-16 4.63444e-17)
(0.433842 -6.58419e-17 -1.22954e-16)
(0.441822 -1.08096e-16 4.52035e-17)
(0.441822 -6.69821e-17 -1.20067e-16)
(0.449799 -1.11761e-16 4.38042e-17)
(0.449799 -6.95592e-17 -1.16771e-16)
(0.45777 -1.14924e-16 4.22376e-17)
(0.45777 -7.03311e-17 -1.13173e-16)
(0.465729 -1.17012e-16 4.07067e-17)
(0.465729 -6.98244e-17 -1.09271e-16)
(0.473669 -1.17709e-16 3.91331e-17)
(0.473669 -7.19848e-17 -1.05013e-16)
(0.481587 -1.18291e-16 3.74257e-17)
(0.481587 -7.4272e-17 -1.00386e-16)
(0.489477 -1.19293e-16 3.57811e-17)
(0.489477 -7.57584e-17 -9.54438e-17)
(0.497336 -1.20726e-16 3.40974e-17)
(0.497336 -7.93247e-17 -9.02068e-17)
(0.505157 -1.22105e-16 3.23651e-17)
(0.505157 -8.09711e-17 -8.47502e-17)
(0.512939 -1.24341e-16 3.11203e-17)
(0.512939 -8.24116e-17 -7.91199e-17)
(0.520678 -1.25532e-16 2.97266e-17)
(0.520678 -8.6762e-17 -7.32257e-17)
(0.528369 -1.25074e-16 2.84655e-17)
(0.528369 -8.83377e-17 -6.7211e-17)
(0.53601 -1.26046e-16 2.72759e-17)
(0.53601 -8.59976e-17 -6.09268e-17)
(0.543599 -1.2684e-16 2.60292e-17)
(0.543599 -8.66358e-17 -5.43645e-17)
(0.551133 -1.25652e-16 2.49089e-17)
(0.551133 -8.80872e-17 -4.73712e-17)
(0.55861 -1.25873e-16 2.38221e-17)
(0.55861 -8.84226e-17 -4.007e-17)
(0.566028 -1.29186e-16 2.25936e-17)
(0.566028 -8.92869e-17 -3.28269e-17)
(0.573387 -1.30025e-16 2.12794e-17)
(0.573387 -9.14696e-17 -2.57008e-17)
(0.580683 -1.27874e-16 2.03383e-17)
(0.580683 -9.38578e-17 -1.87987e-17)
(0.587918 -1.26278e-16 1.9614e-17)
(0.587918 -9.56689e-17 -1.22335e-17)
(0.595089 -1.24899e-16 1.92007e-17)
(0.595089 -9.72099e-17 -5.69662e-18)
(0.602196 -1.25033e-16 1.87891e-17)
(0.602196 -9.91383e-17 6.75536e-19)
(0.609238 -1.23524e-16 1.85159e-17)
(0.609238 -1.02052e-16 6.83706e-18)
(0.616217 -1.17569e-16 1.89779e-17)
(0.616217 -1.02387e-16 1.25736e-17)
(0.62313 -1.14142e-16 2.03015e-17)
(0.62313 -9.95103e-17 1.84934e-17)
(0.629979 -1.16689e-16 2.12289e-17)
(0.629979 -1.00926e-16 2.44482e-17)
(0.636763 -1.1969e-16 2.1341e-17)
(0.636763 -1.02759e-16 3.05117e-17)
(0.643483 -1.1958e-16 2.13276e-17)
(0.643483 -1.03291e-16 3.6405e-17)
(0.65014 -1.17211e-16 2.25674e-17)
(0.65014 -1.0314e-16 4.22916e-17)
(0.656732 -1.15447e-16 2.46173e-17)
(0.656732 -1.03042e-16 4.73947e-17)
(0.663263 -1.14408e-16 2.46317e-17)
(0.663263 -1.04218e-16 5.18559e-17)
(0.669731 -1.12846e-16 2.3865e-17)
(0.669731 -1.04708e-16 5.58474e-17)
(0.676137 -1.14314e-16 2.3043e-17)
(0.676137 -9.89009e-17 5.94145e-17)
(0.682483 -1.17346e-16 2.13659e-17)
(0.682483 -9.35395e-17 6.29286e-17)
(0.688769 -1.1828e-16 1.94334e-17)
(0.688769 -9.22938e-17 6.60906e-17)
(0.694996 -1.16224e-16 1.71719e-17)
(0.694996 -8.6793e-17 6.92106e-17)
(0.701164 -1.12863e-16 1.5224e-17)
(0.701164 -8.53458e-17 7.16431e-17)
(0.707275 -1.12349e-16 1.35834e-17)
(0.707275 -8.64505e-17 7.36514e-17)
(0.71333 -1.1559e-16 1.15815e-17)
(0.71333 -8.4961e-17 7.5647e-17)
(0.719329 -1.15334e-16 9.58315e-18)
(0.719329 -7.99516e-17 7.71233e-17)
(0.725274 -1.10969e-16 8.16171e-18)
(0.725274 -7.86055e-17 7.7171e-17)
(0.731165 -1.14749e-16 7.93571e-18)
(0.731165 -8.33552e-17 7.63536e-17)
(0.737003 -1.1965e-16 7.33512e-18)
(0.737003 -8.34701e-17 7.50285e-17)
(0.74279 -1.20226e-16 7.05677e-18)
(0.74279 -8.06761e-17 7.35799e-17)
(0.748525 -1.19654e-16 6.9572e-18)
(0.748525 -8.06683e-17 7.0934e-17)
(0.754211 -1.17467e-16 7.28946e-18)
(0.754211 -7.85425e-17 6.80011e-17)
(0.759848 -1.18055e-16 7.86755e-18)
(0.759848 -7.66573e-17 6.53385e-17)
(0.765438 -1.26852e-16 7.86679e-18)
(0.765438 -8.16198e-17 6.29153e-17)
(0.77098 -1.36312e-16 7.89185e-18)
(0.77098 -8.1325e-17 5.99003e-17)
(0.776476 -1.37591e-16 8.42669e-18)
(0.776476 -7.91733e-17 5.62715e-17)
(0.781926 -1.34242e-16 9.33103e-18)
(0.781926 -8.34413e-17 4.96807e-17)
(0.787333 -1.28634e-16 1.14743e-17)
(0.787333 -8.2598e-17 3.84527e-17)
(0.792696 -1.28661e-16 1.36806e-17)
(0.792696 -8.18461e-17 2.78873e-17)
(0.798016 -1.34325e-16 1.52762e-17)
(0.798016 -8.15739e-17 1.71521e-17)
(0.803295 -1.39565e-16 1.61292e-17)
(0.803295 -7.8071e-17 1.44571e-17)
(0.808532 -1.41848e-16 1.66995e-17)
(0.808532 -7.90175e-17 1.47294e-17)
(0.81373 -1.42445e-16 1.71061e-17)
(0.81373 -7.84427e-17 1.44651e-17)