/*--------------------------------*- C++ -*----------------------------------*\
| =========                 |                                                 |
| \\      /  F ield         | OpenFOAM: The Open Source CFD Toolbox           |
|  \\    /   O peration     | Version:  2106                                  |
|   \\  /    A nd           | Website:  www.openfoam.com                      |
|    \\/     M anipulation  |                                                 |
\*---------------------------------------------------------------------------*/
FoamFile
{
    version     2.0;
    format      ascii;
    arch        "LSB;label=32;scalar=64";
    class       volTensorField;
    location    "10080";
    object      grad(U);
}
// * * * * * * * * * * * * * * * * * * * * * * * * * * * * * * * * * * * * * //

dimensions      [0 0 -1 0 0 0 0];

internalField   nonuniform List<tensor> 
2000
(
(0 -1.84456e-26 -4.58685e-27 61.5796 -9.37088e-12 -1.88647e-14 0.113972 -8.6725e-15 -6.98233e-17)
(0 -6.50429e-30 -3.04888e-31 61.5796 -3.16059e-15 -2.61485e-17 0.113972 -6.53961e-18 2.55201e-16)
(-5.61639e-17 -5.60519e-45 3.07675e-31 61.5679 0 -7.11559e-15 0.344 -3.15544e-30 -3.71882e-17)
(0 -2.87329e-29 -2.49418e-31 61.5679 -2.10036e-15 -4.43536e-17 0.344 -3.89833e-18 6.30871e-16)
(-1.40262e-17 -5.77139e-27 -4.10711e-29 61.556 4.19093e-13 -1.737e-15 0.477208 -1.60963e-15 -6.67136e-18)
(0 9.40214e-30 9.79389e-32 61.556 -4.27342e-15 -5.19498e-17 0.477208 -1.27323e-17 6.54362e-16)
(-4.59168e-17 2.55981e-30 3.45758e-32 61.5437 5.07822e-13 -8.74345e-16 0.486017 -7.3359e-15 -7.01508e-18)
(1.83667e-16 3.07662e-30 4.80721e-32 61.5437 -3.78147e-15 -7.32772e-17 0.486017 -1.86533e-17 6.78567e-16)
(0 9.06071e-30 9.43824e-32 61.5303 3.81106e-14 -9.47413e-16 0.494975 -5.48621e-16 -8.09848e-18)
(0 -6.04048e-30 -4.71912e-32 61.5303 -4.19415e-15 -8.23103e-17 0.494975 -2.53254e-17 7.03523e-16)
(-2.08636e-16 2.6684e-29 2.31632e-31 61.5145 2.35635e-15 -9.68866e-16 0.50407 -5.43618e-17 -7.63106e-18)
(-2.3729e-16 -2.6684e-29 -2.31632e-31 61.5145 -4.46748e-15 -8.74315e-17 0.50407 -3.28089e-17 7.2924e-16)
(2.04813e-16 -7.11652e-30 -4.54775e-32 61.4934 1.72208e-27 -9.09047e-16 0.513276 3.15544e-30 -7.40485e-18)
(5.80723e-16 1.16422e-29 4.54775e-32 61.4934 -4.26667e-15 -9.30419e-17 0.513276 -4.05419e-17 7.55707e-16)
(0 -2.85723e-30 0 61.4628 9.9777e-15 -8.78113e-16 0.522543 -9.95419e-17 -7.39247e-18)
(1.43608e-15 8.57168e-30 4.46442e-32 61.4628 -4.25826e-15 -1.01148e-16 0.522543 -4.74508e-17 7.82867e-16)
(-2.14485e-16 9.15323e-30 -8.81005e-33 61.4155 6.71102e-15 -8.47401e-16 0.531797 -6.83075e-17 -7.15176e-18)
(0 0 1.31478e-31 61.4155 -4.90106e-15 -1.07047e-16 0.531797 -5.52907e-17 8.10615e-16)
(3.87517e-16 -1.10139e-29 -1.29069e-31 61.3412 4.79853e-15 -7.83742e-16 0.540923 -4.66937e-17 -6.54747e-18)
(0 1.10139e-29 1.29069e-31 61.3412 -5.3655e-15 -1.12232e-16 0.540923 -6.43405e-17 8.3881e-16)
(3.80415e-16 -4.32482e-29 -3.80111e-31 61.2258 4.43839e-15 -6.74352e-16 0.549762 -3.71267e-17 -5.45453e-18)
(0 3.78422e-29 3.37877e-31 61.2258 -5.06213e-15 -1.19869e-16 0.549762 -7.35329e-17 8.67231e-16)
(3.23417e-16 7.06986e-30 1.71833e-31 61.0507 5.28365e-15 -5.08558e-16 0.558099 -4.19782e-17 -3.75772e-18)
(1.29367e-15 -5.30696e-30 -1.24382e-31 61.0507 -4.87529e-15 -1.32044e-16 0.558099 -8.12266e-17 8.95543e-16)
(0 -5.20972e-30 0 60.7928 6.1207e-15 -2.82616e-16 0.565666 -5.40064e-17 -1.44477e-18)
(0 5.20972e-30 0 60.7928 -5.58993e-15 -1.38847e-16 0.565666 -8.95907e-17 9.23263e-16)
(-1.11921e-15 3.9339e-29 0 60.4253 6.4904e-15 9.2108e-45 0.572146 -5.91766e-17 2.66269e-47)
(0 -3.06855e-29 -2.79686e-31 60.4253 -6.17789e-15 -1.41216e-16 0.572146 -1.00286e-16 9.49921e-16)
(-4.38446e-16 1.35782e-29 -7.39735e-31 59.9194 6.54621e-15 3.17908e-16 0.577186 -6.30675e-17 -1.52441e-18)
(0 0 -1.17669e-31 59.9194 -6.03503e-15 -1.47205e-16 0.577186 -1.11588e-16 9.74851e-16)
(1.17168e-15 -1.83211e-29 -1.11182e-31 59.2462 6.34952e-15 7.60947e-16 0.58043 -6.24869e-17 -5.27743e-18)
(-2.60581e-15 9.85707e-30 3.85042e-32 59.2462 -5.98706e-15 -1.64269e-16 0.58043 -1.22972e-16 9.97339e-16)
(6.80919e-16 -4.83822e-30 -1.51194e-31 58.3809 6.71808e-15 1.21374e-15 0.581553 -6.15651e-17 -9.63065e-18)
(0 4.83822e-30 1.51194e-31 58.3809 -6.23306e-15 -1.72976e-16 0.581553 -1.37056e-16 1.0165e-15)
(1.78583e-15 -3.55585e-29 -4.3419e-31 57.3057 2.70125e-15 1.69863e-15 0.580299 -7.22456e-17 -1.45725e-17)
(1.56633e-15 2.84974e-29 2.96848e-31 57.3057 -6.57619e-15 -1.68492e-16 0.580299 -1.52217e-16 1.03179e-15)
(-5.99483e-16 1.4013e-45 1.02763e-31 56.0133 -1.93161e-31 2.18944e-15 0.576524 9.83038e-46 -1.99163e-17)
(0 0 0 56.0133 -6.99005e-15 -1.7129e-16 0.576524 -1.67957e-16 1.04258e-15)
(6.40363e-16 -3.49607e-30 -9.95918e-32 54.5086 1.26445e-14 2.6587e-15 0.570213 -2.67405e-16 -2.53531e-17)
(2.56145e-15 4.57709e-30 1.07275e-31 54.5086 -6.78662e-15 -1.76788e-16 0.570213 -1.84666e-16 1.04852e-15)
(-6.8114e-16 2.31214e-44 2.61046e-32 52.8093 6.60486e-28 3.08433e-15 0.56149 3.15544e-30 -3.06317e-17)
(5.44912e-15 0 0 52.8093 -6.86721e-15 -1.7597e-16 0.56149 -1.9938e-16 1.04948e-15)
(0 8.82175e-30 6.89199e-32 50.9439 8.96049e-15 3.44946e-15 0.550597 -9.76345e-17 -3.55155e-17)
(2.88645e-15 -4.41088e-30 0 50.9439 -7.72098e-15 -1.70495e-16 0.550597 -2.14501e-16 1.04561e-15)
(1.2188e-15 -4.33005e-30 -1.01486e-31 48.949 8.74968e-15 3.73518e-15 0.537868 -9.79907e-17 -3.98316e-17)
(1.82754e-15 4.33005e-30 1.35314e-31 48.949 -7.82889e-15 -1.54484e-16 0.537868 -2.30779e-16 1.03729e-15)
(0 8.5014e-30 6.64172e-32 46.8648 8.51733e-15 3.9383e-15 0.523689 -9.65814e-17 -4.32674e-17)
(3.2035e-15 -4.2507e-30 0 46.8648 -7.40296e-15 -1.1583e-16 0.523689 -2.47639e-16 1.02514e-15)
(3.35214e-16 -6.6152e-31 -4.74139e-32 44.732 8.19603e-15 4.06811e-15 0.508456 -9.63703e-17 -4.5977e-17)
(-1.17454e-15 8.34562e-30 9.78002e-32 44.732 -7.19615e-15 -9.23113e-17 0.508456 -2.6582e-16 1.00979e-15)
(1.15302e-15 -2.45781e-29 -1.60013e-31 42.588 7.93999e-15 4.12881e-15 0.492552 -9.2737e-17 -4.79212e-17)
(2.35424e-15 2.45781e-29 1.60013e-31 42.588 -7.4752e-15 -7.82389e-17 0.492552 -2.83161e-16 9.91719e-16)
(2.18643e-16 -8.55628e-30 -4.89802e-32 40.4655 7.96008e-15 4.1277e-15 0.476314 -9.39266e-17 -4.91499e-17)
(-1.13189e-15 1.20638e-29 6.28325e-32 40.4655 -7.88795e-15 -5.52236e-17 0.476314 -2.99231e-16 9.71736e-16)
(-9.48557e-16 3.50536e-30 1.2023e-32 38.3908 8.7608e-15 4.07827e-15 0.460031 -9.67171e-17 -4.97001e-17)
(0 3.94759e-30 3.08406e-32 38.3908 -7.51361e-15 -5.87975e-17 0.460031 -3.17498e-16 9.50466e-16)
(-1.09079e-15 7.75051e-30 6.05508e-32 36.3841 9.51604e-15 3.99959e-15 0.443933 -1.17181e-16 -4.97851e-17)
(0 -3.87525e-30 -3.02754e-32 36.3841 -7.48778e-15 -7.33818e-17 0.443933 -3.35901e-16 9.28195e-16)
(-3.1573e-15 3.39302e-29 2.16603e-31 34.4597 9.02705e-15 3.89895e-15 0.428198 -1.19304e-16 -4.95994e-17)
(-4.0628e-15 -2.66297e-29 -1.78324e-31 34.4597 -7.34069e-15 -6.05173e-17 0.428198 -3.57464e-16 9.05344e-16)
(1.04753e-15 -3.49536e-30 -3.6098e-32 32.6267 8.46088e-15 3.77651e-15 0.412955 -1.09103e-16 -4.90897e-17)
(3.13893e-15 0 2.9176e-32 32.6267 -6.60032e-15 -4.20406e-17 0.412955 -3.73813e-16 8.82438e-16)
(0 3.66609e-30 5.72827e-32 30.89 8.16531e-15 3.64291e-15 0.398291 -1.09064e-16 -4.82817e-17)
(-1.03191e-15 0 -2.86414e-32 30.89 -6.81323e-15 -3.66943e-17 0.398291 -3.8765e-16 8.59753e-16)
(-1.1078e-15 7.09022e-30 6.01208e-32 29.2515 7.74343e-15 3.51027e-15 0.384263 -1.05378e-16 -4.73975e-17)
(0 -3.59891e-30 -5.6233e-32 29.2515 -7.31696e-15 -4.46167e-17 0.384263 -4.06443e-16 8.37408e-16)
(-1.13632e-15 3.48949e-30 -2.51689e-32 27.7102 7.51306e-15 3.38027e-15 0.370898 -1.0178e-16 -4.65189e-17)
(0 3.53297e-30 5.52026e-32 27.7102 -7.07607e-15 -3.12022e-17 0.370898 -4.26843e-16 8.1541e-16)
(0 -2.77458e-29 -9.48343e-32 26.2637 7.57278e-15 3.25109e-15 0.358206 -1.03011e-16 -4.56071e-17)
(4.65527e-15 2.77458e-29 9.48343e-32 26.2637 -7.03187e-15 -1.17834e-17 0.358206 -4.42037e-16 7.94171e-16)
(0 6.80934e-30 1.32995e-32 24.9083 8.58398e-15 3.13051e-15 0.346182 -1.07289e-16 -4.21852e-17)
(0 -3.40467e-30 0 24.9083 -7.72319e-15 -1.49212e-17 0.346182 -4.67729e-16 7.73459e-16)
(1.21594e-15 6.55171e-30 1.30558e-32 23.6396 9.6052e-15 3.03304e-15 0.334809 -1.3576e-16 -3.13504e-17)
(4.86376e-15 -1.00268e-29 -1.30558e-32 23.6396 -7.06344e-15 -1.10879e-17 0.334809 -4.99894e-16 7.53238e-16)
(-1.24066e-15 -1.29362e-29 -6.40827e-32 22.4527 9.41037e-15 2.95135e-15 0.324065 -1.4103e-16 -2.02393e-17)
(4.96265e-15 1.96862e-29 6.40827e-32 22.4527 -6.49161e-15 -3.00484e-17 0.324065 -5.21238e-16 7.33631e-16)
(-1.26456e-15 -1.90811e-29 -5.03267e-32 21.3424 8.99121e-15 2.87419e-15 0.313922 -1.35105e-16 -8.90352e-18)
(0 2.89882e-29 5.03267e-32 21.3424 -6.99462e-15 -3.70626e-17 0.313922 -5.47492e-16 7.14425e-16)
(0 2.52951e-29 3.70534e-32 20.3039 8.18822e-15 2.79725e-15 0.304352 -1.33695e-16 2.37803e-18)
(5.15067e-15 -2.52951e-29 -3.70534e-32 20.3039 -6.49338e-15 9.96998e-18 0.304352 -5.69576e-16 6.96082e-16)
(-2.62008e-15 1.31289e-29 1.81872e-32 19.3321 7.59357e-15 2.72584e-15 0.295322 -1.15512e-16 1.38104e-17)
(3.49279e-15 -3.10395e-30 -1.81872e-32 19.3321 -6.38457e-15 2.30946e-17 0.295322 -5.87787e-16 6.7852e-16)
(0 -6.09414e-30 -1.19026e-32 18.4224 7.60341e-15 2.66138e-15 0.286801 -1.20113e-16 2.54598e-17)
(0 6.09414e-30 1.19026e-32 18.4224 -6.26683e-15 -1.11138e-17 0.286801 -6.18782e-16 6.61398e-16)
(3.36783e-15 -1.19649e-29 0 17.5701 7.70144e-15 2.60692e-15 0.278759 -1.20178e-16 3.70313e-17)
(0 1.19649e-29 0 17.5701 -6.59505e-15 -3.97247e-17 0.278759 -6.42844e-16 6.44795e-16)
(-3.02619e-15 1.22563e-29 0 16.7712 8.24495e-15 2.56911e-15 0.271165 -1.27824e-16 4.91714e-17)
(-5.49251e-15 -2.93642e-30 2.8676e-33 16.7712 -7.02758e-15 -1.46477e-17 0.271165 -6.7005e-16 6.28272e-16)
(1.39294e-15 8.0901e-30 -2.81505e-33 16.0217 8.57132e-15 2.53334e-15 0.263991 -1.42697e-16 6.15508e-17)
(3.94899e-15 -8.64783e-30 2.81505e-33 16.0217 -6.5529e-15 5.31848e-18 0.263991 -6.90186e-16 6.12661e-16)
(1.4122e-15 2.48618e-29 -1.53718e-32 15.318 8.23024e-15 2.49522e-15 0.25721 -1.43645e-16 7.43642e-17)
(-5.6488e-15 -2.82979e-29 1.53718e-32 15.318 -7.1363e-15 -1.83079e-17 0.25721 -7.15132e-16 5.97174e-16)
(-1.43094e-15 3.43453e-30 5.42565e-33 14.6565 6.97101e-15 2.45949e-15 0.250796 -1.36359e-16 8.74956e-17)
(5.72375e-15 0 -8.07486e-32 14.6565 -6.20337e-15 -2.86644e-46 0.250796 -7.53292e-16 5.81855e-16)
(1.53518e-15 -1.63622e-29 3.19574e-32 14.0343 6.05403e-15 2.42549e-15 0.244725 -1.05e-16 1.00589e-16)
(1.00583e-14 2.18162e-29 -3.46205e-32 14.0343 -4.76418e-15 1.15142e-16 0.244725 -7.67031e-16 5.6757e-16)
(1.46696e-15 -3.02031e-29 4.70576e-32 13.4484 6.7046e-15 2.39019e-15 0.238975 -1.08815e-16 1.14201e-16)
(5.86784e-15 2.67706e-29 -4.1829e-32 13.4484 -5.97309e-15 7.6862e-17 0.238975 -7.80775e-16 5.53708e-16)
(-4.44316e-15 1.39387e-29 -3.59455e-32 12.8962 7.55915e-15 2.35057e-15 0.233524 -1.32576e-16 9.09275e-17)
(-5.9372e-15 -5.256e-30 5.13281e-33 12.8962 -6.86477e-15 -1.18954e-17 0.233524 -8.12196e-16 5.39617e-16)
(2.90464e-15 -5.15968e-30 1.00775e-32 12.3752 7.91024e-15 2.3121e-15 0.228353 -1.4452e-16 5.82806e-17)
(0 5.15968e-30 0 12.3752 -5.97241e-15 4.19561e-48 0.228353 -8.41512e-16 5.25605e-16)
(-4.36917e-15 1.35468e-29 -7.47833e-32 11.8833 8.05152e-15 2.28803e-15 0.223444 -1.50799e-16 4.37699e-17)
(-1.42571e-15 -5.06514e-30 2.96785e-32 11.8833 -5.24437e-15 2.08292e-17 0.223444 -8.54935e-16 5.12141e-16)
(0 -4.97232e-30 1.94231e-32 11.4184 8.57267e-15 2.26622e-15 0.21878 -1.55388e-16 4.40098e-17)
(0 4.97232e-30 -1.94231e-32 11.4184 -5.64104e-15 1.27013e-17 0.21878 -8.76021e-16 4.98579e-16)
(0 1.46436e-29 -3.81344e-32 10.9785 9.20143e-15 2.24645e-15 0.214346 -1.76856e-16 4.46319e-17)
(-6.19878e-15 -1.95248e-29 7.62688e-32 10.9785 -5.33879e-15 3.27729e-17 0.214346 -9.11172e-16 4.85649e-16)
(2.16395e-16 1.57697e-29 -5.3925e-32 10.5619 9.04561e-15 2.23698e-15 0.210127 -1.86283e-16 4.52839e-17)
(0 -9.58351e-30 1.87178e-32 10.5619 -4.47894e-15 -5.35673e-17 0.210127 -9.30657e-16 4.72213e-16)
(-1.58029e-15 -1.30966e-30 1.38544e-32 10.1672 8.16015e-15 2.22136e-15 0.206109 -1.77199e-16 4.56686e-17)
(0 9.4079e-30 0 10.1672 -4.74602e-15 0 0.206109 -9.49935e-16 4.57621e-16)
(-1.89047e-15 -2.4474e-30 4.06314e-32 9.79268 7.07592e-15 2.20216e-15 0.20228 -1.56711e-16 4.61819e-17)
(6.3805e-15 4.61775e-30 -7.21523e-32 9.79268 -4.65091e-15 7.74583e-17 0.20228 -9.61585e-16 4.4427e-16)
(-1.60967e-15 7.92599e-30 -2.66485e-32 9.43714 6.57884e-15 2.18531e-15 0.198629 -1.38234e-16 4.66667e-17)
(0 -4.53313e-30 0 9.43714 -4.54109e-15 5.6682e-17 0.198629 -9.71675e-16 4.31791e-16)
(-3.24787e-15 3.34764e-29 -1.78719e-31 9.0993 7.09826e-15 2.17337e-15 0.195145 -1.41301e-16 4.74008e-17)
(-6.49574e-15 -2.67004e-29 1.21681e-31 9.0993 -5.16093e-15 -7.4469e-17 0.195145 -1.0028e-15 4.18818e-16)
(1.63794e-15 5.35728e-30 -3.77646e-32 8.77802 7.25159e-15 2.16183e-15 0.191817 -1.66132e-16 4.79116e-17)
(-6.55175e-15 -1.74741e-29 1.36516e-31 8.77802 -5.57396e-15 -1.69208e-16 0.191817 -1.03673e-15 4.04674e-16)
(-4.82838e-15 8.57693e-30 -6.70073e-32 8.47224 7.19949e-15 2.14242e-15 0.188638 -1.53448e-16 4.83071e-17)
(0 0 0 8.47224 -5.35006e-15 0 0.188638 -1.0742e-15 3.90089e-16)
(-3.3304e-15 -1.00998e-29 6.22405e-32 8.181 7.0221e-15 2.12587e-15 0.185597 -1.70031e-16 4.89527e-17)
(1.33216e-14 1.26296e-29 -3.0111e-30 8.181 -4.32966e-15 9.11831e-17 0.185597 -1.10932e-15 3.76387e-16)
(-4.00501e-15 1.99005e-29 -1.33883e-31 7.90338 5.96206e-15 2.09308e-15 0.182688 -1.51039e-16 4.8585e-17)
(9.04045e-15 -1.65309e-29 9.6861e-32 7.90338 -4.74984e-15 1.19961e-16 0.182688 -1.13493e-15 3.63644e-16)
(0 -1.2171e-29 1.26781e-31 7.63856 5.52633e-15 2.04184e-15 0.179902 -1.26577e-16 4.83426e-17)
(0 1.2171e-29 -1.58477e-31 7.63856 -5.80254e-15 -2.44114e-17 0.179902 -1.15324e-15 3.48914e-16)
(-3.94644e-15 3.36615e-30 -7.26932e-32 7.38577 6.55109e-15 1.99573e-15 0.177233 -1.35853e-16 4.8165e-17)
(6.81759e-15 7.96532e-30 7.00649e-46 7.38577 -5.35824e-15 3.83458e-30 0.177233 -1.1862e-15 3.34044e-16)
(0 7.81936e-30 -1.22178e-31 7.1443 8.66337e-15 1.96482e-15 0.174675 -1.81365e-16 4.86272e-17)
(0 -3.90968e-30 6.10888e-32 7.1443 -5.5852e-15 6.72033e-17 0.174675 -1.2272e-15 3.19527e-16)
(-1.72951e-15 1.1014e-29 -1.3614e-31 6.91348 9.08997e-15 1.94432e-15 0.172221 -2.45995e-16 4.89419e-17)
(0 -3.83804e-30 2.99847e-32 6.91348 -6.33616e-15 2.34507e-17 0.172221 -1.27404e-15 3.03571e-16)
(-2.12103e-15 7.53541e-30 -1.76611e-31 6.69269 7.97504e-15 1.91655e-15 0.169866 -2.09806e-16 4.90269e-17)
(0 -3.76771e-30 8.83056e-32 6.69269 -5.64795e-15 3.35601e-17 0.169866 -1.333e-15 2.87066e-16)
(0 -2.2192e-29 2.88958e-31 6.48138 7.63408e-15 1.89227e-15 0.167605 -1.97741e-16 4.95097e-17)
(7.01556e-15 2.2192e-29 -2.88958e-31 6.48138 -5.82325e-15 6.34881e-17 0.167605 -1.38932e-15 2.70094e-16)
(0 2.17853e-29 -2.2693e-31 6.279 7.78557e-15 1.87481e-15 0.165432 -1.99792e-16 4.99398e-17)
(0 -2.17853e-29 2.2693e-31 6.279 -7.17018e-15 1.48648e-16 0.165432 -1.44681e-15 2.5235e-16)
(-1.77759e-15 6.88215e-30 -5.65415e-32 6.08506 8.26885e-15 1.85738e-15 0.163343 -2.13303e-16 5.04247e-17)
(7.11036e-15 0 -5.5693e-32 6.08506 -6.00749e-15 1.77922e-16 0.163343 -1.50189e-15 2.34674e-16)
(0 -1.74952e-29 2.73362e-31 5.89911 8.06936e-15 1.85352e-15 0.161335 -2.33677e-16 5.16074e-17)
(7.15681e-15 1.74952e-29 -2.73362e-31 5.89911 -5.05639e-15 9.5984e-17 0.161335 -1.54385e-15 2.16513e-16)
(-1.80067e-15 2.39161e-29 -2.76709e-31 5.7207 7.26424e-15 1.85514e-15 0.159402 -2.10258e-16 5.24162e-17)
(-7.20267e-15 -2.06095e-29 2.14682e-31 5.7207 -6.22949e-15 -8.79093e-17 0.159402 -1.58491e-15 1.98556e-16)
(1.89825e-15 -3.37197e-30 1.05374e-31 5.54945 6.97663e-15 1.84251e-15 0.157542 -1.96918e-16 5.28243e-17)
(-7.24794e-15 3.37197e-30 -1.05374e-31 5.54945 -5.31638e-15 -1.83189e-16 0.157542 -1.64193e-15 1.79303e-16)
(-3.64633e-15 9.91166e-30 -1.86111e-31 5.38497 7.32215e-15 1.85088e-15 0.15575 -2.01601e-16 5.48824e-17)
(7.29266e-15 -3.31018e-30 2.23241e-32 5.38497 -4.29418e-15 1.64721e-47 0.15575 -1.67093e-15 1.60862e-16)
(-3.66843e-15 6.58406e-30 -8.84747e-32 5.22692 8.36909e-15 1.88376e-15 0.154023 -2.24629e-16 5.67821e-17)
(0 0 -5.07738e-32 5.22692 -4.96281e-15 1.68566e-16 0.154023 -1.71142e-15 1.46536e-16)
(0 -9.56994e-30 9.96868e-32 5.07497 9.01917e-15 1.92505e-15 0.152359 -2.71827e-16 5.94665e-17)
(7.38053e-15 9.56994e-30 -9.96868e-32 5.07497 -4.95773e-15 8.36666e-17 0.152359 -1.7573e-15 1.31407e-16)
(-5.38171e-15 2.83221e-29 -5.15451e-31 4.92881 8.74505e-15 1.96261e-15 0.150754 -2.72708e-16 6.12533e-17)
(-5.66081e-15 -1.87891e-29 3.4251e-31 4.92881 -4.64075e-15 4.40332e-17 0.150754 -1.82176e-15 1.15086e-16)
(1.8666e-15 -1.24872e-29 1.25969e-31 4.78815 8.23291e-15 1.97942e-15 0.149206 -2.65054e-16 6.27704e-17)
(0 9.22242e-30 -4.80334e-32 4.78815 -4.14945e-15 -5.35618e-17 0.149206 -1.88076e-15 9.97781e-17)
(5.27491e-15 -9.29432e-30 4.10875e-31 4.65272 7.96475e-15 1.99095e-15 0.147712 -2.50599e-16 6.4304e-17)
(-1.09064e-14 6.03561e-30 -3.30073e-31 4.65272 -3.96949e-15 -1.74959e-17 0.147712 -1.89367e-15 8.33576e-17)
(-3.77522e-15 1.53875e-29 -3.52769e-31 4.52228 8.4822e-15 2.00803e-15 0.146269 -2.57768e-16 6.62561e-17)
(-3.33549e-15 -5.92501e-30 9.24974e-33 4.52228 -2.96968e-15 0 0.146269 -1.93356e-15 6.66514e-17)
(0 1.16329e-29 -2.72646e-31 4.39657 9.24759e-15 2.02933e-15 0.144875 -2.93996e-16 6.81512e-17)
(0 -1.45411e-29 3.63527e-31 4.39657 -4.09308e-15 7.12507e-17 0.144875 -1.94035e-15 5.13073e-17)
(1.90819e-15 -3.70485e-31 6.26715e-34 4.27538 9.26203e-15 2.05013e-15 0.143529 -3.18642e-16 7.01688e-17)
(-1.84799e-14 -2.85493e-30 8.92165e-32 4.27538 -7.23289e-15 -1.52178e-16 0.143529 -1.98745e-15 3.48868e-17)
(1.91833e-15 -1.44271e-29 3.5557e-31 4.1585 8.45337e-15 2.06903e-15 0.142228 -3.06057e-16 7.203e-17)
(0 1.12104e-29 2.38442e-33 4.1585 -6.17674e-15 1.35585e-31 0.142228 -2.07439e-15 1.71815e-17)
(0 -2.201e-29 4.29884e-31 4.04573 8.38002e-15 2.08667e-15 0.140969 -2.7456e-16 7.40594e-17)
(7.71351e-15 2.201e-29 -4.29884e-31 4.04573 -5.47234e-15 2.51825e-16 0.140969 -2.10835e-15 2.84878e-18)
(1.93833e-15 -3.19399e-30 2.67559e-31 3.93687 7.45385e-15 2.11871e-15 0.139752 -3.12407e-16 7.70501e-17)
(7.75331e-15 0 -1.68802e-31 3.93687 -7.67305e-15 2.94616e-16 0.139752 -2.14193e-15 -8.74809e-18)
(-9.11228e-16 -1.48165e-29 3.75694e-31 3.83176 4.51154e-15 2.13943e-15 0.138575 -2.18245e-16 7.83694e-17)
(-2.98515e-15 1.59081e-29 -4.14273e-31 3.83176 -8.21825e-15 1.16179e-16 0.138575 -2.2264e-15 -2.00012e-17)
(-3.91593e-15 -9.2002e-30 3.58287e-31 3.73023 5.0298e-15 2.14326e-15 0.137435 -1.08456e-16 8.024e-17)
(7.83185e-15 1.56166e-29 -4.88018e-31 3.73023 -6.33628e-15 1.43304e-16 0.137435 -2.30212e-15 -3.21762e-17)
(1.96765e-15 -1.85091e-29 5.88102e-31 3.63211 8.58369e-15 2.15998e-15 0.136332 -2.65176e-16 8.25947e-17)
(1.57412e-14 1.53304e-29 -4.79075e-31 3.63211 -6.33426e-15 3.28779e-16 0.136332 -2.35321e-15 -4.14509e-17)
(-1.97726e-15 -1.86486e-30 -1.12802e-31 3.53727 9.52657e-15 2.17884e-15 0.135263 -3.82925e-16 8.47248e-17)
(0 5.01649e-30 -7.83827e-32 3.53727 -8.68532e-15 2.78231e-16 0.135263 -2.44505e-15 -4.96468e-17)
(-3.97358e-15 1.1221e-29 -2.32579e-31 3.44555 8.73304e-15 2.21213e-15 0.134228 -3.48242e-16 8.8335e-17)
(7.94716e-15 -4.92457e-30 0 3.44555 -8.0067e-15 2.5012e-16 0.134228 -2.54068e-15 -5.90042e-17)
(-1.99624e-15 3.13955e-30 -1.95387e-31 3.35683 8.09486e-15 2.26957e-15 0.133226 -3.34707e-16 9.25374e-17)
(7.98497e-15 4.83433e-30 0 3.35683 -4.64266e-15 2.16204e-16 0.133226 -2.60042e-15 -6.49584e-17)
(-2.67161e-15 9.49148e-30 -4.44913e-31 3.27099 6.43754e-15 2.32427e-15 0.132254 -3.10041e-16 9.61444e-17)
(-2.67161e-15 -4.74574e-30 2.96609e-31 3.27099 -1.17529e-15 -1.44596e-16 0.132254 -2.65717e-15 -7.28125e-17)
(4.63759e-15 -1.24625e-29 5.65253e-31 3.18789 4.94465e-15 2.34896e-15 0.131311 -2.11549e-16 9.80852e-17)
(5.43707e-15 9.31755e-30 -4.3676e-31 3.18789 4.48245e-16 -2.26353e-16 0.131311 -2.67463e-15 -8.81236e-17)
(2.02417e-15 -1.22888e-29 7.04603e-31 3.10743 4.63877e-15 2.35691e-15 0.130398 -1.9714e-16 1.00442e-16)
(8.09668e-15 9.14681e-30 -5.71675e-31 3.10743 -3.89015e-16 1.18311e-17 0.130398 -2.64388e-15 -9.94423e-17)
(-2.03334e-15 3.14022e-30 -2.77753e-31 3.02951 3.83938e-15 2.36559e-15 0.129511 -1.93518e-16 1.02533e-16)
(8.13336e-15 4.4896e-30 0 3.02951 -1.69788e-15 1.44852e-17 0.129511 -2.62234e-15 -1.09008e-16)
(2.04245e-15 -1.19646e-29 4.17229e-31 2.95401 3.51667e-15 2.35726e-15 0.128651 -1.35345e-16 1.03493e-16)
(0 8.81465e-30 -2.75458e-31 2.95401 -1.82265e-15 -1.0732e-16 0.128651 -2.65035e-15 -1.17757e-16)
(-2.05149e-15 1.17948e-29 -4.15801e-31 2.88084 4.66848e-15 2.37118e-15 0.127817 -1.72343e-16 1.07648e-16)
(5.77032e-15 -4.32656e-30 1.35205e-31 2.88084 -1.10226e-15 -1.76234e-16 0.127817 -2.66813e-15 -1.26267e-16)
(2.06047e-15 -1.58673e-29 5.47508e-31 2.80991 5.30682e-15 2.39941e-15 0.127007 -2.43945e-16 1.09976e-16)
(0 1.27418e-29 -3.98183e-31 2.80991 -1.66284e-15 -2.07368e-16 0.127007 -2.66808e-15 -1.3426e-16)
(-2.06939e-15 1.97965e-29 -5.43505e-31 2.74113 5.32644e-15 2.4339e-15 0.12622 -2.37269e-16 1.1492e-16)
(8.27757e-15 -8.3389e-30 2.60591e-31 2.74113 -2.83374e-15 -6.87067e-17 0.12622 -2.71468e-15 -1.41088e-16)
(-2.25924e-16 9.84792e-31 -9.9443e-32 2.67443 5.85659e-15 2.46922e-15 0.125456 -2.54966e-16 1.17476e-16)
(8.31303e-15 -4.09305e-30 0 2.67443 -2.72466e-15 1.76158e-16 0.125456 -2.75592e-15 -1.42456e-16)
(0 8.03609e-30 -3.76692e-31 2.60971 6.27915e-15 2.49177e-15 0.124714 -2.96567e-16 1.21432e-16)
(6.0863e-15 -4.01804e-30 1.25564e-31 2.60971 -2.71069e-15 -2.24388e-17 0.124714 -2.78498e-15 -1.41333e-16)
(2.22051e-15 3.94441e-30 -4.93052e-31 2.54691 5.67101e-15 2.51501e-15 0.123993 -3.0546e-16 1.24193e-16)
(-1.06038e-14 0 2.46526e-31 2.54691 -2.49719e-15 -3.75649e-16 0.123993 -2.86076e-15 -1.44683e-16)
(0 1.16164e-29 -9.68033e-31 2.48594 5.40969e-15 2.5334e-15 0.123293 -2.47801e-16 1.27855e-16)
(8.41808e-15 -1.16164e-29 9.68033e-31 2.48594 -2.17932e-15 -2.53892e-16 0.123293 -2.89998e-15 -1.48571e-16)
(-2.11317e-15 -1.59376e-29 1.13517e-30 2.42676 6.74992e-15 2.5577e-15 0.122612 -2.90732e-16 1.31358e-16)
(2.13987e-15 2.28071e-29 -1.30666e-30 2.42676 -3.20295e-15 8.2735e-17 0.122612 -2.92263e-15 -1.4918e-16)
(-2.12177e-15 3.04178e-30 -1.74855e-31 2.36928 7.41126e-15 2.61388e-15 0.12195 -3.94217e-16 1.38525e-16)
(8.48708e-15 3.73152e-30 -2.3322e-31 2.36928 -3.28966e-15 1.69718e-16 0.12195 -2.99287e-15 -1.44236e-16)
(2.06217e-15 -7.32629e-30 4.57893e-31 2.31344 6.69446e-15 2.67507e-15 0.121306 -3.70591e-16 1.42803e-16)
(0 7.32629e-30 -4.57893e-31 2.31344 -4.11824e-15 -4.11947e-17 0.121306 -3.03572e-15 -1.39089e-16)
(2.02438e-15 3.59602e-30 -2.24751e-31 2.25919 6.71055e-15 2.71128e-15 0.12068 -3.32996e-16 1.4766e-16)
(-2.02438e-15 0 0 2.25919 -4.9484e-15 -2.49087e-16 0.12068 -3.10924e-15 -1.36061e-16)
(2.14728e-15 -2.06598e-29 1.51012e-30 2.20647 7.82734e-15 2.7576e-15 0.120071 -3.86295e-16 1.53285e-16)
(1.05764e-14 1.41205e-29 -1.10316e-30 2.20647 -4.87137e-15 -7.25132e-17 0.120071 -3.17993e-15 -1.3537e-16)
(-1.74603e-15 1.08747e-29 -4.58973e-31 2.15523 8.90878e-15 2.802e-15 0.119479 -4.68539e-16 1.58205e-16)
(8.62279e-15 -6.93087e-30 2.1659e-31 2.15523 -5.44049e-15 1.24171e-16 0.119479 -3.26905e-15 -1.25593e-16)
(0 0 2.12621e-31 2.10541 7.31466e-15 2.88692e-15 0.118902 -5.22176e-16 1.68766e-16)
(8.65627e-15 3.40193e-30 -4.25241e-31 2.10541 -4.64508e-15 1.6827e-16 0.118902 -3.33288e-15 -1.1214e-16)
(-4.34479e-15 5.97243e-30 -1.88044e-31 2.05696 4.30947e-15 2.96938e-15 0.118341 -3.04015e-16 1.73767e-16)
(8.68958e-15 0 -2.08724e-31 2.05696 -3.16412e-15 1.86898e-16 0.118341 -3.35663e-15 -9.18082e-17)
(2.18068e-15 -1.28294e-29 1.24351e-30 2.00984 3.73376e-15 2.02218e-15 0.117795 -1.92001e-16 6.27977e-17)
(8.72273e-15 9.83518e-30 -1.0245e-30 2.00984 -2.88788e-15 2.11896e-17 0.117795 -3.40675e-15 -7.11496e-17)
(0 1.28733e-29 2.29547e-31 1.964 3.64e-15 -1.44646e-29 0.117263 -2.47197e-16 1.97215e-31)
(-8.75572e-15 -1.28733e-29 1.20687e-30 1.964 -3.13015e-15 -3.27123e-16 0.117263 -3.46985e-15 -5.15396e-17)
(0 0 0 1.9194 3.89809e-15 -1.87592e-15 0.116745 -1.87909e-16 1.0207e-16)
(-1.77855e-15 0 0 1.9194 -2.76784e-15 -3.81116e-16 0.116745 -3.51696e-15 -3.98951e-17)
(-4.41062e-15 2.14066e-29 -1.56965e-30 1.87599 5.88856e-15 -2.06844e-15 0.11624 -2.88273e-16 1.26871e-16)
(0 -1.55073e-29 1.16304e-30 1.87599 -3.13468e-15 -1.58804e-16 0.11624 -3.56811e-15 -7.54242e-18)
(-2.21344e-15 1.20404e-29 -7.69315e-31 1.83373 7.74869e-15 -2.44772e-15 0.115748 -4.44504e-16 1.30049e-16)
(0 -6.08923e-30 3.80577e-31 1.83373 -4.91358e-15 -2.7615e-16 0.115748 -3.63427e-15 1.201e-17)
(-3.36512e-15 2.09218e-29 -1.12081e-30 1.79259 7.35948e-15 -3.02577e-15 0.115269 -5.36664e-16 1.80085e-16)
(-8.88617e-15 -1.49441e-29 9.34008e-31 1.79259 -5.09329e-15 -5.72968e-17 0.115269 -3.75947e-15 4.5684e-17)
(7.76266e-15 8.88329e-32 1.61436e-31 1.75254 5.34542e-15 -3.44684e-15 0.114802 -4.10626e-16 2.10141e-16)
(-3.30345e-15 -5.86811e-30 1.83379e-31 1.75254 -1.23873e-15 -7.30642e-17 0.114802 -3.85269e-15 9.83464e-17)
(1.23235e-15 1.43734e-29 -5.85061e-31 1.71352 4.0782e-15 -3.68807e-15 0.114346 -2.90011e-16 2.42664e-16)
(8.95054e-15 -1.72817e-29 9.00091e-31 1.71352 1.1505e-15 -2.8056e-17 0.114346 -3.83537e-15 1.51052e-16)
(-2.24563e-15 2.8884e-30 -1.4541e-31 1.67552 4.04173e-15 -3.583e-15 0.113902 -2.5505e-16 2.5062e-16)
(8.98252e-15 0 2.82645e-32 1.67552 -5.03839e-16 8.29918e-31 0.113902 -3.84189e-15 2.03667e-16)
(4.50719e-15 -1.93361e-31 -7.17007e-32 1.6385 4.43218e-15 -3.48542e-15 0.113469 -2.95925e-16 2.37361e-16)
(0 -5.55139e-30 3.46962e-31 1.6385 -6.17424e-16 -2.47756e-16 0.113469 -3.87366e-15 2.53089e-16)
(5.32942e-15 -2.86084e-30 2.96427e-31 1.60242 3.91955e-15 -3.81504e-15 0.113047 -3.1935e-16 2.46397e-16)
(9.04611e-15 0 -3.40604e-31 1.60242 4.54423e-16 -5.83251e-16 0.113047 -3.84948e-15 2.87176e-16)
(-2.26943e-15 1.08919e-29 -4.40877e-31 1.56726 4.35697e-15 -4.31153e-15 0.112635 -2.33933e-16 2.93336e-16)
(0 -2.6749e-30 3.34363e-31 1.56726 1.17752e-15 -6.96283e-16 0.112635 -3.82008e-15 3.19359e-16)
(0 -5.25177e-30 3.28236e-31 1.53299 6.53949e-15 -4.3897e-15 0.112233 -3.94959e-16 3.27844e-16)
(1.52619e-14 7.87765e-30 -4.4643e-30 1.53299 -5.53225e-17 -1.41239e-16 0.112233 -3.74461e-15 3.41856e-16)
(-5.18745e-15 -1.26734e-29 4.90063e-31 1.49958 7.05787e-15 -4.09762e-15 0.11184 -5.65887e-16 3.15964e-16)
(0 1.54666e-29 -5.63886e-31 1.49958 -2.60502e-15 -1.28424e-16 0.11184 -3.7818e-15 3.76587e-16)
(-2.84912e-15 -1.51832e-29 6.32632e-31 1.467 5.48879e-15 -3.91313e-15 0.111457 -4.88025e-16 2.96145e-16)
(1.83436e-14 1.51832e-29 -6.32632e-31 1.467 -3.04504e-15 -3.2323e-16 0.111457 -3.92567e-15 4.03946e-16)
(-2.30074e-15 1.76827e-29 -6.69954e-31 1.43523 4.13976e-15 -4.19679e-15 0.111082 -3.46143e-16 2.99525e-16)
(0 -1.4905e-29 6.2104e-31 1.43523 -4.74783e-15 -5.88953e-16 0.111082 -4.00208e-15 4.18328e-16)
(2.74566e-15 -9.75455e-30 1.90519e-31 1.40424 3.84755e-15 -4.67355e-15 0.110717 -2.95286e-16 3.517e-16)
(9.234e-15 9.75455e-30 0 1.40424 -5.00798e-15 1.26911e-46 0.110717 -4.09633e-15 4.19608e-16)
(2.31623e-15 -1.23375e-29 3.43492e-31 1.37402 4.63308e-15 -4.53546e-15 0.110359 -3.126e-16 3.86819e-16)
(1.85299e-14 9.5758e-30 -3.36649e-31 1.37402 -3.993e-15 3.55919e-16 0.110359 -4.16012e-15 4.43345e-16)
(-2.32394e-15 2.72835e-30 0 1.34453 6.10189e-15 -4.4312e-15 0.11001 -4.33984e-16 3.38301e-16)
(9.29575e-15 0 -7.344e-32 1.34453 -4.93205e-15 -3.23105e-17 0.11001 -4.26894e-15 4.65263e-16)
(2.33162e-15 1.92514e-30 -1.08141e-31 1.31575 7.28131e-15 -4.81275e-15 0.109669 -5.67369e-16 2.38395e-16)
(6.729e-15 0 6.30825e-32 1.31575 -5.17915e-15 -7.3497e-16 0.109669 -4.36633e-15 4.63279e-16)
(-4.67855e-15 9.83367e-30 -3.53866e-32 1.28767 7.67838e-15 -5.39079e-15 0.109335 -6.49095e-16 1.38783e-16)
(9.3571e-15 -4.52948e-30 6.12274e-32 1.28767 -4.55643e-15 2.90892e-30 0.109335 -4.46732e-15 4.4119e-16)
(-2.50315e-15 -4.44648e-30 6.94763e-32 1.26026 6.77357e-15 -5.07496e-15 0.109008 -6.56911e-16 2.79571e-17)
(1.87753e-14 8.89296e-30 -1.11834e-30 1.26026 -3.6298e-15 6.31838e-16 0.109008 -4.57141e-15 4.40545e-16)
(0 4.365e-30 6.82031e-32 1.23351 5.44164e-15 -4.56811e-15 0.108689 -5.1533e-16 -5.56143e-17)
(6.96078e-15 0 -3.41016e-32 1.23351 -3.74647e-15 1.78209e-16 0.108689 -4.64011e-15 4.64545e-16)
(-2.3621e-15 1.12163e-29 6.69533e-32 1.20739 5.30787e-15 -5.26622e-15 0.108376 -4.444e-16 -1.49476e-16)
(-2.41225e-15 -4.28501e-30 0 1.20739 -4.49428e-15 -6.96021e-16 0.108376 -4.70553e-15 4.40877e-16)
(2.36966e-15 1.57982e-30 2.62906e-31 1.18188 5.05633e-15 -5.7304e-15 0.10807 -5.10475e-16 -2.60777e-16)
(0 -4.20649e-30 -2.62906e-31 1.18188 -4.22489e-15 -1.92106e-16 0.10807 -4.78764e-15 4.10491e-16)
(0 8.25882e-30 2.58088e-31 1.15697 4.50022e-15 -5.70942e-15 0.10777 -4.1465e-16 -3.76082e-16)
(0 0 -1.29044e-31 1.15697 -2.86224e-15 -1.19632e-16 0.10777 -4.85449e-15 3.96678e-16)
(-2.38472e-15 1.47856e-29 5.06717e-31 1.13265 5.2569e-15 -6.11892e-15 0.107476 -4.24994e-16 -4.95881e-16)
(-2.28205e-15 -1.21612e-29 -5.06717e-31 1.13265 -3.64971e-15 -8.44562e-16 0.107476 -4.89109e-15 3.61781e-16)
(-2.39222e-15 6.57051e-30 3.73074e-31 1.10889 5.71418e-15 -6.86134e-15 0.107188 -5.75417e-16 -6.48235e-16)
(-9.56888e-15 -3.97946e-30 -1.24358e-31 1.10889 -5.09878e-15 -9.37995e-16 0.107188 -5.05696e-15 3.06173e-16)
(-2.3997e-15 -5.23017e-30 -4.6497e-31 1.08567 5.29992e-15 -6.87989e-15 0.106905 -5.30359e-16 -6.53947e-16)
(1.91976e-14 7.81307e-30 7.32475e-31 1.08567 -4.71824e-15 4.57727e-16 0.106905 -5.17187e-15 2.5433e-16)
(0 -1.15048e-29 -9.58737e-31 1.06299 5.25972e-15 -6.37554e-15 0.106628 -5.14645e-16 -6.26531e-16)
(9.62861e-15 1.15048e-29 9.58737e-31 1.06299 -5.28233e-15 9.98192e-16 0.106628 -5.24084e-15 2.57758e-16)
(-2.41459e-15 1.00732e-29 2.9614e-31 1.04083 5.42084e-15 -6.51202e-15 0.106356 -5.42193e-16 -7.06778e-16)
(7.53904e-15 0 0 1.04083 -4.3138e-15 -3.85778e-16 0.106356 -5.41201e-15 2.44714e-16)
(0 1.10871e-29 4.61961e-31 1.01917 5.07228e-15 -7.21129e-15 0.106089 -5.67317e-16 -7.97263e-16)
(7.60754e-15 -3.69569e-30 -2.3098e-31 1.01917 -3.0636e-15 -7.29066e-16 0.106089 -5.48554e-15 1.87222e-16)