/*--------------------------------*- C++ -*----------------------------------*\
| =========                 |                                                 |
| \\      /  F ield         | OpenFOAM: The Open Source CFD Toolbox           |
|  \\    /   O peration     | Version:  2106                                  |
|   \\  /    A nd           | Website:  www.openfoam.com                      |
|    \\/     M anipulation  |                                                 |
\*---------------------------------------------------------------------------*/
FoamFile
{
    version     2.0;
    format      ascii;
    arch        "LSB;label=32;scalar=64";
    class       volVectorField;
    location    "10080";
    object      grad(T);
}
// * * * * * * * * * * * * * * * * * * * * * * * * * * * * * * * * * * * * * //

dimensions      [0 -1 0 1 0 0 0];

internalField   nonuniform List<vector> 
2000
(
(0 874.933 1.61918)
(0 874.933 1.61918)
(0 874.931 4.88777)
(0 874.931 4.88777)
(-1.98997e-16 874.926 6.78343)
(0 874.926 6.78343)
(-6.52135e-16 874.916 6.90994)
(2.60854e-15 874.916 6.90994)
(0 874.892 7.03866)
(-1.70024e-15 874.892 7.03866)
(0 874.838 7.16944)
(-6.33601e-15 874.838 7.16944)
(0 874.722 7.30196)
(8.25236e-15 874.722 7.30196)
(0 874.492 7.43567)
(2.04097e-14 874.492 7.43567)
(-3.04857e-15 874.062 7.56967)
(0 874.062 7.56967)
(0 873.311 7.70261)
(0 873.311 7.70261)
(6.08665e-15 872.069 7.83258)
(6.08665e-15 872.069 7.83258)
(4.59803e-15 870.113 7.95703)
(6.44191e-15 870.113 7.95703)
(0 867.165 8.07274)
(0 867.165 8.07274)
(7.8178e-17 862.902 8.17584)
(-1.15163e-14 862.902 8.17584)
(-6.23531e-15 856.966 8.26202)
(-1.13052e-14 856.966 8.26202)
(1.78977e-14 848.999 8.3268)
(-2.71984e-14 848.999 8.3268)
(1.08947e-14 838.675 8.36595)
(0 838.675 8.36595)
(1.59022e-14 825.744 8.37596)
(3.18043e-14 825.744 8.37596)
(-8.53526e-15 810.072 8.35448)
(0 810.072 8.35448)
(9.12244e-15 791.66 8.30062)
(3.64898e-14 791.66 8.30062)
(-9.71028e-15 770.664 8.21511)
(7.76823e-14 770.664 8.21511)
(1.98648e-14 747.372 8.10016)
(2.13203e-14 747.372 8.10016)
(1.95008e-14 722.181 7.95921)
(4.35116e-14 722.181 7.95921)
(0 695.552 7.79649)
(2.66676e-14 695.552 7.79649)
(-1.20187e-14 667.968 7.61663)
(0 667.968 7.61663)
(0 639.897 7.42423)
(5.02957e-14 639.897 7.42423)
(-1.31169e-14 611.763 7.22363)
(1.81102e-14 611.763 7.22363)
(-1.36466e-14 583.927 7.01864)
(0 583.927 7.01864)
(0 556.682 6.8125)
(-1.74526e-14 556.682 6.8125)
(-3.17961e-14 530.252 6.60784)
(-5.86534e-14 530.252 6.60784)
(1.51498e-14 504.798 6.40673)
(2.69614e-14 504.798 6.40673)
(0 480.426 6.2107)
(0 480.426 6.2107)
(-1.60788e-14 457.199 6.02086)
(0 457.199 6.02086)
(-1.6522e-14 435.143 5.83795)
(0 435.143 5.83795)
(0 414.257 5.66243)
(6.78057e-14 414.257 5.66243)
(0 394.521 5.49451)
(-1.53333e-14 394.521 5.49451)
(4.78757e-14 375.899 5.33426)
(4.098e-14 375.899 5.33426)
(-4.77154e-14 358.346 5.18159)
(1.02203e-13 358.346 5.18159)
(-1.85422e-14 341.812 5.03634)
(0 341.812 5.03634)
(2.84798e-14 326.244 4.89827)
(4.71634e-14 326.244 4.89827)
(-3.85378e-14 311.586 4.76711)
(7.70756e-14 311.586 4.76711)
(0 297.783 4.64257)
(2.74456e-14 297.783 4.64257)
(0 284.782 4.52431)
(0 284.782 4.52431)
(-2.0285e-14 272.532 4.41203)
(-1.07589e-13 272.532 4.41203)
(2.0606e-14 260.983 4.3054)
(5.64597e-14 260.983 4.3054)
(2.09188e-14 250.089 4.20411)
(-8.36751e-14 250.089 4.20411)
(3.79754e-15 239.807 4.10786)
(8.48954e-14 239.807 4.10786)
(0 230.094 4.01636)
(1.72173e-13 230.094 4.01636)
(2.18124e-14 220.914 3.92934)
(8.72494e-14 220.914 3.92934)
(-2.20965e-14 212.23 3.84654)
(-1.12057e-13 212.23 3.84654)
(0 204.01 3.7677)
(0 204.01 3.7677)
(-4.54576e-14 196.222 3.6926)
(-4.56227e-14 196.222 3.6926)
(0 188.838 3.62102)
(0 188.838 3.62102)
(0 181.832 3.55275)
(-9.26924e-14 181.832 3.55275)
(-1.97316e-14 175.18 3.48759)
(-2.15801e-14 175.18 3.48759)
(-2.36793e-14 168.859 3.42538)
(0 168.859 3.42538)
(-4.78505e-14 162.847 3.36595)
(1.16497e-13 162.847 3.36595)
(-2.41667e-14 157.126 3.30913)
(0 157.126 3.30913)
(-4.88077e-14 151.677 3.25477)
(-9.76154e-14 151.677 3.25477)
(6.3985e-14 146.485 3.20275)
(-1.37896e-13 146.485 3.20275)
(0 141.532 3.15294)
(0 141.532 3.15294)
(-5.01829e-14 136.806 3.1052)
(2.00732e-13 136.806 3.1052)
(1.19111e-14 132.292 3.05944)
(6.40287e-14 132.292 3.05944)
(0 127.979 3.01554)
(0 127.979 3.01554)
(-2.57467e-14 123.855 2.97341)
(1.02987e-13 123.855 2.97341)
(0 119.908 2.93296)
(-3.52153e-14 119.908 2.93296)
(-2.61676e-14 116.13 2.8941)
(-3.457e-14 116.13 2.8941)
(0 112.511 2.85674)
(0 112.511 2.85674)
(-3.33146e-14 109.041 2.82082)
(1.39622e-13 109.041 2.82082)
(0 105.714 2.78626)
(0 105.714 2.78626)
(-2.69753e-14 102.522 2.753)
(1.07901e-13 102.522 2.753)
(-3.15165e-14 99.4568 2.72097)
(1.402e-13 99.4568 2.72097)
(-2.73638e-14 96.5126 2.69012)
(-1.09455e-13 96.5126 2.69012)
(0 93.683 2.66038)
(-7.98465e-14 93.683 2.66038)
(-5.54864e-14 90.9623 2.63172)
(1.10973e-13 90.9623 2.63172)
(-5.58593e-14 88.3451 2.60407)
(0 88.3451 2.60407)
(0 85.8262 2.57739)
(1.12456e-13 85.8262 2.57739)
(-5.65027e-14 83.4008 2.55164)
(-1.13186e-13 83.4008 2.55164)
(7.87597e-16 81.0645 2.52677)
(2.76894e-14 81.0645 2.52677)
(1.47366e-15 78.813 2.50276)
(-8.74406e-14 78.813 2.50276)
(-5.76651e-14 76.6423 2.47955)
(0 76.6423 2.47955)
(0 74.5487 2.45713)
(0 74.5487 2.45713)
(8.0611e-14 72.5286 2.43544)
(-2.84879e-13 72.5286 2.43544)
(4.10943e-15 70.5787 2.41447)
(2.52437e-14 70.5787 2.41447)
(0 68.6959 2.39418)
(1.18094e-13 68.6959 2.39418)
(2.96923e-14 66.8772 2.37455)
(1.18769e-13 66.8772 2.37455)
(-5.97194e-14 65.1197 2.35555)
(4.77624e-14 65.1197 2.35555)
(-6.00514e-14 63.4209 2.33715)
(1.20103e-13 63.4209 2.33715)
(3.01904e-14 61.7781 2.31933)
(2.41523e-13 61.7781 2.31933)
(-7.55382e-14 60.1891 2.30207)
(4.51845e-14 60.1891 2.30207)
(-6.10315e-14 58.6515 2.28534)
(1.22063e-13 58.6515 2.28534)
(-3.06766e-14 57.1633 2.26913)
(1.22706e-13 57.1633 2.26913)
(-4.27458e-14 55.7224 2.25341)
(-4.27458e-14 55.7224 2.25341)
(3.09947e-14 54.3269 2.23818)
(1.23979e-13 54.3269 2.23818)
(3.11521e-14 52.975 2.2234)
(1.24608e-13 52.975 2.2234)
(-3.13083e-14 51.6649 2.20907)
(1.25233e-13 51.6649 2.20907)
(3.14635e-14 50.3949 2.19516)
(0 50.3949 2.19516)
(-3.16177e-14 49.1636 2.18166)
(1.26471e-13 49.1636 2.18166)
(3.17709e-14 47.9694 2.16856)
(0 47.9694 2.16856)
(-3.19232e-14 46.8109 2.15585)
(1.27693e-13 46.8109 2.15585)
(3.20745e-14 45.6867 2.1435)
(1.28298e-13 45.6867 2.1435)
(0 44.5957 2.13151)
(1.28899e-13 44.5957 2.13151)
(0 43.5364 2.11987)
(-1.29498e-13 43.5364 2.11987)
(0 42.5078 2.10855)
(1.30092e-13 42.5078 2.10855)
(-3.26709e-14 41.5087 2.09756)
(0 41.5087 2.09756)
(-3.28179e-14 40.5382 2.08688)
(1.31272e-13 40.5382 2.08688)
(0 39.595 2.07651)
(3.29947e-14 39.595 2.07651)
(0 38.6784 2.06642)
(-3.23901e-14 38.6784 2.06642)
(3.32544e-14 37.7872 2.05661)
(1.33018e-13 37.7872 2.05661)
(-2.90293e-14 36.9208 2.04708)
(1.0238e-13 36.9208 2.04708)
(0 36.0781 2.03781)
(1.34167e-13 36.0781 2.03781)
(-6.73688e-14 35.2584 2.02879)
(1.34738e-13 35.2584 2.02879)
(3.38264e-14 34.4609 2.02002)
(1.35306e-13 34.4609 2.02002)
(0 33.6849 2.01149)
(-1.35871e-13 33.6849 2.01149)
(5.69137e-14 32.9296 2.00319)
(-5.69137e-14 32.9296 2.00319)
(-6.84972e-14 32.1943 1.99512)
(0 32.1943 1.99512)
(2.04588e-14 31.4784 1.98726)
(-5.48469e-14 31.4784 1.98726)
(-5.38419e-14 30.7813 1.97962)
(-1.38108e-13 30.7813 1.97962)
(6.9331e-14 30.1023 1.97218)
(-5.28553e-14 30.1023 1.97218)
(6.96067e-14 29.4409 1.96493)
(1.39213e-13 29.4409 1.96493)
(-3.49407e-14 28.7964 1.95788)
(1.39763e-13 28.7964 1.95788)
(7.01549e-14 28.1684 1.95101)
(0 28.1684 1.95101)
(3.52138e-14 27.5563 1.94433)
(1.40855e-13 27.5563 1.94433)
(-3.53496e-14 26.9597 1.93781)
(-4.81867e-14 26.9597 1.93781)
(0 26.378 1.93147)
(2.8388e-13 26.378 1.93147)
(-8.20567e-14 25.8109 1.92529)
(0 25.8109 1.92529)
(0 25.2577 1.91927)
(2.86034e-13 25.2577 1.91927)
(-3.58882e-14 24.7182 1.91341)
(0 24.7182 1.91341)
(0 24.1919 1.90769)
(1.44087e-13 24.1919 1.90769)
(-6.97062e-15 23.6785 1.90212)
(3.32365e-13 23.6785 1.90212)
(-3.62877e-14 23.1774 1.89669)
(1.45151e-13 23.1774 1.89669)
(3.642e-14 22.6884 1.89139)
(1.04121e-13 22.6884 1.89139)
(-3.2306e-14 22.2112 1.88622)
(1.0541e-13 22.2112 1.88622)
(-4.00503e-14 21.7452 1.88119)
(2.93469e-13 21.7452 1.88119)
(3.93164e-14 21.2904 1.87627)
(1.07943e-13 21.2904 1.87627)
(-3.69456e-14 20.8462 1.87147)
(0 20.8462 1.87147)
(7.49649e-14 20.4124 1.86679)
(-3.78887e-14 20.4124 1.86679)
(0 19.9888 1.86222)
(-3.71944e-14 19.9888 1.86222)
(-3.73362e-14 19.575 1.85776)
(-3.65128e-14 19.575 1.85776)
(-1.62192e-15 19.1707 1.8534)
(-1.85706e-13 19.1707 1.8534)
(-3.75949e-14 18.7757 1.84914)
(3.00759e-13 18.7757 1.84914)
(0 18.3897 1.84498)
(1.50895e-13 18.3897 1.84498)
(-3.78523e-14 18.0125 1.84091)
(1.175e-13 18.0125 1.84091)
(0 17.6438 1.83692)
(1.18635e-13 17.6438 1.83692)
(-3.81086e-14 17.2833 1.83303)
(1.52435e-13 17.2833 1.83303)
(0 16.931 1.82921)
(1.52945e-13 16.931 1.82921)
(-3.83638e-14 16.5865 1.82548)
(0 16.5865 1.82548)
(-3.8491e-14 16.2496 1.82182)
(0 16.2496 1.82182)
(-3.86179e-14 15.9201 1.81823)
(0 15.9201 1.81823)
(-2.08384e-14 15.5978 1.81471)
(-1.54978e-13 15.5978 1.81471)
(0 15.2826 1.81126)
(0 15.2826 1.81126)
(0 14.9742 1.80786)
(0 14.9742 1.80786)
(9.54901e-14 14.6725 1.80453)
(0 14.6725 1.80453)
(-9.45829e-14 14.3772 1.80125)
(1.56995e-13 14.3772 1.80125)
(-3.93741e-14 14.0883 1.79802)
(1.57496e-13 14.0883 1.79802)
(-3.94993e-14 13.8055 1.79484)
(0 13.8055 1.79484)
(0 13.5287 1.7917)
(1.58497e-13 13.5287 1.7917)
(-3.9749e-14 13.2577 1.78861)
(-1.58996e-13 13.2577 1.78861)
(3.98736e-14 12.9924 1.78555)
(1.59494e-13 12.9924 1.78555)
(8.95202e-14 12.7327 1.78253)
(1.59992e-13 12.7327 1.78253)
(4.0122e-14 12.4783 1.77954)
(0 12.4783 1.77954)
(0 12.2291 1.77658)
(1.60984e-13 12.2291 1.77658)
(-8.7219e-14 11.9851 1.77364)
(4.68495e-14 11.9851 1.77364)
(0 11.7461 1.77072)
(1.61972e-13 11.7461 1.77072)
(4.53186e-15 11.5119 1.76781)
(-4.51482e-14 11.5119 1.76781)
(4.43209e-14 11.2824 1.76492)
(0 11.2824 1.76492)
(0 11.0576 1.76204)
(1.63449e-13 11.0576 1.76204)
(0 10.8372 1.75916)
(1.6394e-13 10.8372 1.75916)
(-4.11074e-14 10.6212 1.75628)
(0 10.6212 1.75628)
(-4.12297e-14 10.4095 1.7534)
(0 10.4095 1.7534)
(-4.13517e-14 10.202 1.75051)
(0 10.202 1.75051)
(4.32815e-14 9.99845 1.74761)
(1.65894e-13 9.99845 1.74761)
(-8.58469e-14 9.7989 1.74469)
(1.66381e-13 9.7989 1.74469)
(-3.82253e-14 9.60319 1.74175)
(1.66867e-13 9.60319 1.74175)
(-4.31315e-15 9.41124 1.73878)
(-3.75249e-14 9.41124 1.73878)
(-7.87963e-14 9.22295 1.73578)
(0 9.22295 1.73578)
(0 9.03822 1.73275)
(0 9.03822 1.73275)
(0 8.85696 1.72967)
(1.68802e-13 8.85696 1.72967)
(-4.2321e-14 8.67909 1.72654)
(-1.69284e-13 8.67909 1.72654)
(0 8.50452 1.72337)
(0 8.50452 1.72337)
(-1.09728e-13 8.33316 1.72013)
(-3.40491e-13 8.33316 1.72013)
(-1.08617e-13 8.16494 1.71683)
(6.59362e-14 8.16494 1.71683)
(0 7.99976 1.71346)
(0 7.99976 1.71346)
(0 7.83756 1.71001)
(1.08139e-13 7.83756 1.71001)
(-8.60785e-14 7.67825 1.70648)
(3.44314e-13 7.67825 1.70648)
(-6.12344e-14 7.52177 1.70286)
(2.33867e-13 7.52177 1.70286)
(-4.32768e-14 7.36802 1.69913)
(-6.01123e-14 7.36802 1.69913)
(0 7.21695 1.69531)
(-1.1457e-13 7.21695 1.69531)
(-4.35135e-14 7.06848 1.69136)
(0 7.06848 1.69136)
(0 6.92254 1.68729)
(1.74526e-13 6.92254 1.68729)
(0 6.77906 1.68309)
(1.74996e-13 6.77906 1.68309)
(4.38664e-14 6.63798 1.67875)
(3.50932e-13 6.63798 1.67875)
(4.39836e-14 6.49922 1.67426)
(1.75934e-13 6.49922 1.67426)
(0 6.36273 1.66961)
(1.76401e-13 6.36273 1.66961)
(9.60618e-14 6.22843 1.66478)
(1.76868e-13 6.22843 1.66478)
(-4.43331e-14 6.09627 1.65978)
(3.54665e-13 6.09627 1.65978)
(5.51327e-15 5.96618 1.65457)
(-2.27758e-13 5.96618 1.65457)
(0 5.8381 1.64916)
(0 5.8381 1.64916)
(-4.46798e-14 5.71196 1.64353)
(-9.62959e-14 5.71196 1.64353)
(-8.95893e-14 5.58771 1.63766)
(0 5.58771 1.63766)
(-4.49091e-14 5.46529 1.63154)
(1.79636e-13 5.46529 1.63154)
(4.55493e-14 5.34463 1.62516)
(-4.55493e-14 5.34463 1.62516)
(-4.51369e-14 5.22568 1.6185)
(0 5.22568 1.6185)
(-4.38952e-14 5.10837 1.61153)
(0 5.10837 1.61153)
(4.5363e-14 4.99265 1.60425)
(3.62904e-13 4.99265 1.60425)
(1.33252e-13 4.87845 1.59663)
(-2.24203e-13 4.87845 1.59663)
(9.11746e-14 4.76573 1.58865)
(0 4.76573 1.58865)
(9.86711e-15 4.65441 1.58029)
(4.4712e-13 4.65441 1.58029)
(4.58095e-14 4.54443 1.57153)
(1.03202e-13 4.54443 1.57153)
(4.59199e-14 4.43574 1.56234)
(1.0511e-13 4.43574 1.56234)
(-4.60296e-14 4.32828 1.55268)
(1.84118e-13 4.32828 1.55268)
(-4.61388e-14 4.22197 1.54254)
(0 4.22197 1.54254)
(0 4.11677 1.53189)
(2.59318e-13 4.11677 1.53189)
(-9.27103e-14 4.0126 1.52068)
(1.12454e-13 4.0126 1.52068)
(-1.18092e-13 3.90939 1.50888)
(7.16298e-14 3.90939 1.50888)
(0 3.80709 1.49646)
(3.7255e-13 3.80709 1.49646)
(6.90287e-14 3.70561 1.48337)
(-6.90287e-14 3.70561 1.48337)
(4.67792e-14 3.60489 1.46957)
(-2.54881e-13 3.60489 1.46957)
(-1.96388e-14 3.50485 1.45501)
(6.6522e-14 3.50485 1.45501)
(-2.86696e-14 3.40541 1.43963)
(0 3.40541 1.43963)
(1.58283e-13 3.3065 1.42339)
(-1.28213e-13 3.3065 1.42339)
(0 3.20802 1.40621)
(1.88758e-13 3.20802 1.40621)
(0 3.1099 1.38803)
(1.89159e-13 3.1099 1.38803)
(4.73887e-14 3.01202 1.36878)
(1.89555e-13 3.01202 1.36878)
(5.9535e-14 2.91431 1.34837)
(-2.49481e-13 2.91431 1.34837)
(1.0861e-14 2.81664 1.32672)
(-5.84441e-14 2.81664 1.32672)
(-4.76783e-14 2.71891 1.30374)
(1.3334e-13 2.71891 1.30374)
(0 2.621 1.27931)
(1.91089e-13 2.621 1.27931)
(6.27148e-14 2.52278 1.25333)
(-1.91458e-13 2.52278 1.25333)
(4.79553e-14 2.42411 1.22567)
(3.83643e-13 2.42411 1.22567)
(0 2.32485 1.19618)
(1.38896e-13 2.32485 1.19618)
(-4.81319e-14 2.22484 1.16472)
(0 2.22484 1.16472)
(4.82173e-14 2.12392 1.13113)
(1.92869e-13 2.12392 1.13113)
(2.10533e-15 2.0219 1.09521)
(1.93203e-13 2.0219 1.09521)
(-4.83821e-14 1.91859 1.05677)
(1.93529e-13 1.91859 1.05677)
(0 1.81379 1.0156)
(4.85757e-14 1.81379 1.0156)
(4.85378e-14 1.70728 0.971453)
(0 1.70728 0.971453)
(-1.44035e-13 1.59885 0.924081)
(2.41259e-13 1.59885 0.924081)
(4.59539e-14 1.48825 0.873212)
(0 1.48825 0.873212)
(0 1.37525 0.818559)
(0 1.37525 0.818559)
(4.88161e-14 1.25962 0.759821)
(1.95264e-13 1.25962 0.759821)
(-4.88775e-14 1.14113 0.696688)
(1.9551e-13 1.14113 0.696688)
(-4.89353e-14 1.01956 0.628851)
(-4.2677e-14 1.01956 0.628851)
(0 0.894733 0.556002)
(-4.1895e-14 0.894733 0.556002)
(0 0.766502 0.477854)
(-1.96154e-13 0.766502 0.477854)
(3.1664e-14 0.634772 0.394143)
(-8.07473e-14 0.634772 0.394143)
(-9.48922e-15 0.499513 0.304648)
(1.96492e-13 0.499513 0.304648)
(0 0.360768 0.209194)
(1.9663e-13 0.360768 0.209194)
(2.72031e-14 0.218661 0.107665)
(-7.63891e-14 0.218661 0.107665)
(-1.24198e-13 3.5366e-07 1.30899e-07)
(4.68767e-13 3.53893e-07 1.30986e-07)
(2.28849e-16 874.933 -1.61918)
(-2.28849e-16 874.933 -1.61918)
(0 874.931 -4.88777)
(-8.98622e-16 874.931 -4.88777)
(-3.97994e-16 874.926 -6.78343)
(0 874.926 -6.78343)
(6.52135e-16 874.916 -6.90994)
(-1.73198e-15 874.916 -6.90994)
(-2.22749e-15 874.892 -7.03866)
(0 874.892 -7.03866)
(1.584e-15 874.838 -7.16944)
(0 874.838 -7.16944)
(0 874.722 -7.30196)
(-3.277e-15 874.722 -7.30196)
(1.15363e-14 874.492 -7.43567)
(-6.4339e-15 874.492 -7.43567)
(-9.36457e-15 874.062 -7.56967)
(1.21943e-14 874.062 -7.56967)
(3.55537e-15 873.311 -7.70261)
(-1.42215e-14 873.311 -7.70261)
(8.14362e-15 872.069 -7.83258)
(-2.23739e-14 872.069 -7.83258)
(1.05731e-14 870.113 -7.95703)
(-5.97511e-15 870.113 -7.95703)
(-5.1341e-15 867.165 -8.07274)
(-2.05364e-14 867.165 -8.07274)
(5.75813e-15 862.902 -8.17584)
(-2.27198e-14 862.902 -8.17584)
(6.23531e-15 856.966 -8.26202)
(-2.49412e-14 856.966 -8.26202)
(-1.10981e-14 848.999 -8.3268)
(0 848.999 -8.3268)
(7.37196e-15 838.675 -8.36595)
(-2.94879e-14 838.675 -8.36595)
(7.95108e-15 825.744 -8.37596)
(3.18043e-14 825.744 -8.37596)
(8.53526e-15 810.072 -8.35448)
(0 810.072 -8.35448)
(2.85516e-14 791.66 -8.30062)
(-1.03067e-14 791.66 -8.30062)
(9.71028e-15 770.664 -8.21511)
(2.87233e-14 770.664 -8.21511)
(1.02963e-14 747.372 -8.10016)
(4.11851e-14 747.372 -8.10016)
(-1.08779e-14 722.181 -7.95921)
(0 722.181 -7.95921)
(2.29055e-14 695.552 -7.79649)
(0 695.552 -7.79649)
(1.20187e-14 667.968 -7.61663)
(0 667.968 -7.61663)
(0 639.897 -7.42423)
(1.84483e-14 639.897 -7.42423)
(0 611.763 -7.22363)
(0 611.763 -7.22363)
(2.72932e-14 583.927 -7.01864)
(0 583.927 -7.01864)
(1.41622e-14 556.682 -6.8125)
(5.66489e-14 556.682 -6.8125)
(2.93267e-14 530.252 -6.60784)
(0 530.252 -6.60784)
(1.51498e-14 504.798 -6.40673)
(0 504.798 -6.40673)
(1.56215e-14 480.426 -6.2107)
(0 480.426 -6.2107)
(3.22869e-14 457.199 -6.02086)
(-6.43153e-14 457.199 -6.02086)
(0 435.143 -5.83795)
(-6.6088e-14 435.143 -5.83795)
(0 414.257 -5.66243)
(0 414.257 -5.66243)
(1.73677e-14 394.521 -5.49451)
(-6.94706e-14 394.521 -5.49451)
(5.4377e-15 375.899 -5.33426)
(0 375.899 -5.33426)
(-1.81625e-14 358.346 -5.18159)
(-7.26499e-14 358.346 -5.18159)
(-1.85422e-14 341.812 -5.03634)
(-1.48337e-13 341.812 -5.03634)
(-1.89108e-14 326.244 -4.89827)
(-2.84798e-14 326.244 -4.89827)
(-1.92689e-14 311.586 -4.76711)
(0 311.586 -4.76711)
(-1.9617e-14 297.783 -4.64257)
(-1.56936e-13 297.783 -4.64257)
(3.9911e-14 284.782 -4.52431)
(0 284.782 -4.52431)
(4.67339e-14 272.532 -4.41203)
(-1.07589e-13 272.532 -4.41203)
(4.1212e-14 260.983 -4.3054)
(5.64597e-14 260.983 -4.3054)
(4.64072e-14 250.089 -4.20411)
(-1.09164e-13 250.089 -4.20411)
(-1.74263e-14 239.807 -4.10786)
(-1.09917e-13 239.807 -4.10786)
(4.30432e-14 230.094 -4.01636)
(8.60864e-14 230.094 -4.01636)
(0 220.914 -3.92934)
(0 220.914 -3.92934)
(1.57441e-15 212.23 -3.84654)
(-2.00443e-13 212.23 -3.84654)
(2.23744e-14 204.01 -3.7677)
(-1.35972e-13 204.01 -3.7677)
(-1.65129e-16 196.222 -3.6926)
(2.28113e-14 196.222 -3.6926)
(2.23933e-14 188.838 -3.62102)
(-2.05692e-13 188.838 -3.62102)
(2.31731e-14 181.832 -3.55275)
(0 181.832 -3.55275)
(3.69704e-15 175.18 -3.48759)
(4.31603e-14 175.18 -3.48759)
(0 168.859 -3.42538)
(-1.37087e-13 168.859 -3.42538)
(-1.76678e-14 162.847 -3.36595)
(0 162.847 -3.36595)
(2.41667e-14 157.126 -3.30913)
(-1.37498e-13 157.126 -3.30913)
(0 151.677 -3.25477)
(-9.76154e-14 151.677 -3.25477)
(0 146.485 -3.20275)
(-9.85476e-14 146.485 -3.20275)
(2.48661e-14 141.532 -3.15294)
(0 141.532 -3.15294)
(0 136.806 -3.1052)
(-3.79192e-14 136.806 -3.1052)
(6.25376e-14 132.292 -3.05944)
(-3.72244e-14 132.292 -3.05944)
(6.20739e-14 127.979 -3.01554)
(-3.65423e-14 127.979 -3.01554)
(0 123.855 -2.97341)
(-1.02987e-13 123.855 -2.97341)
(0 119.908 -2.93296)
(0 119.908 -2.93296)
(2.61676e-14 116.13 -2.8941)
(-1.0467e-13 116.13 -2.8941)
(0 112.511 -2.85674)
(-1.05494e-13 112.511 -2.85674)
(0 109.041 -2.82082)
(3.33146e-14 109.041 -2.82082)
(-2.67773e-14 105.714 -2.78626)
(2.14219e-13 105.714 -2.78626)
(0 102.522 -2.753)
(0 102.522 -2.753)
(2.71708e-14 99.4568 -2.72097)
(-1.08683e-13 99.4568 -2.72097)
(2.73638e-14 96.5126 -2.69012)
(-1.09455e-13 96.5126 -2.69012)
(6.07441e-14 93.683 -2.66038)
(-1.90065e-13 93.683 -2.66038)
(-2.77432e-14 90.9623 -2.63172)
(-2.98155e-14 90.9623 -2.63172)
(0 88.3451 -2.60407)
(0 88.3451 -2.60407)
(0 85.8262 -2.57739)
(1.12456e-13 85.8262 -2.57739)
(-9.02204e-17 83.4008 -2.55164)
(-4.8095e-13 83.4008 -2.55164)
(5.6954e-14 81.0645 -2.52677)
(-1.13908e-13 81.0645 -2.52677)
(-2.86556e-14 78.813 -2.50276)
(0 78.813 -2.50276)
(-2.88325e-14 76.6423 -2.47955)
(-1.1533e-13 76.6423 -2.47955)
(-5.80154e-14 74.5487 -2.45713)
(-1.42226e-13 74.5487 -2.45713)
(-2.91812e-14 72.5286 -2.43544)
(-2.3345e-13 72.5286 -2.43544)
(5.87062e-14 70.5787 -2.41447)
(-1.17412e-13 70.5787 -2.41447)
(2.95235e-14 68.6959 -2.39418)
(1.18094e-13 68.6959 -2.39418)
(-4.8654e-14 66.8772 -2.37455)
(1.67423e-13 66.8772 -2.37455)
(2.98597e-14 65.1197 -2.35555)
(-1.19439e-13 65.1197 -2.35555)
(-6.00514e-14 63.4209 -2.33715)
(7.32157e-14 63.4209 -2.33715)
(3.01904e-14 61.7781 -2.31933)
(0 61.7781 -2.31933)
(1.48308e-14 60.1891 -2.30207)
(0 60.1891 -2.30207)
(0 58.6515 -2.28534)
(-4.43566e-14 58.6515 -2.28534)
(3.06766e-14 57.1633 -2.26913)
(1.22706e-13 57.1633 -2.26913)
(4.27458e-14 55.7224 -2.25341)
(-1.23345e-13 55.7224 -2.25341)
(0 54.3269 -2.23818)
(-4.19625e-14 54.3269 -2.23818)
(3.11521e-14 52.975 -2.2234)
(1.24608e-13 52.975 -2.2234)
(4.04387e-14 51.6649 -2.20907)
(-4.04387e-14 51.6649 -2.20907)
(0 50.3949 -2.19516)
(-2.51708e-13 50.3949 -2.19516)
(0 49.1636 -2.18166)
(0 49.1636 -2.18166)
(3.17709e-14 47.9694 -2.16856)
(-1.27084e-13 47.9694 -2.16856)
(6.94782e-14 46.8109 -2.15585)
(-3.75551e-14 46.8109 -2.15585)
(3.20745e-14 45.6867 -2.1435)
(2.56596e-13 45.6867 -2.1435)
(6.84162e-14 44.5957 -2.13151)
(-3.61913e-14 44.5957 -2.13151)
(3.23744e-14 43.5364 -2.11987)
(-1.65026e-13 43.5364 -2.11987)
(-3.72311e-14 42.5078 -2.10855)
(1.30092e-13 42.5078 -2.10855)
(0 41.5087 -2.09756)
(0 41.5087 -2.09756)
(7.92649e-16 40.5382 -2.08688)
(-1.64882e-13 40.5382 -2.08688)
(3.29947e-14 39.595 -2.07651)
(-3.29947e-14 39.595 -2.07651)
(0 38.6784 -2.06642)
(-3.23901e-14 38.6784 -2.06642)
(0 37.7872 -2.05661)
(3.17965e-14 37.7872 -2.05661)
(6.24277e-14 36.9208 -2.04708)
(-1.64808e-13 36.9208 -2.04708)
(-6.12837e-14 36.0781 -2.03781)
(-3.06419e-14 36.0781 -2.03781)
(0 35.2584 -2.02879)
(-3.00804e-14 35.2584 -2.02879)
(-2.52319e-14 34.4609 -2.02002)
(0 34.4609 -2.02002)
(-3.39678e-14 33.6849 -2.01149)
(0 33.6849 -2.01149)
(-3.41085e-14 32.9296 -2.00319)
(0 32.9296 -2.00319)
(6.31322e-15 32.1943 -1.99512)
(0 32.1943 -1.99512)
(0 31.4784 -1.98726)
(0 31.4784 -1.98726)
(-1.52123e-14 30.7813 -1.97962)
(-2.76217e-13 30.7813 -1.97962)
(0 30.1023 -1.97218)
(0 30.1023 -1.97218)
(3.48033e-14 29.4409 -1.96493)
(0 29.4409 -1.96493)
(-5.09359e-14 28.7964 -1.95788)
(1.39763e-13 28.7964 -1.95788)
(0 28.1684 -1.95101)
(-1.90312e-13 28.1684 -1.95101)
(0 27.5563 -1.94433)
(-1.40855e-13 27.5563 -1.94433)
(1.28371e-14 26.9597 -1.93781)
(-1.89585e-13 26.9597 -1.93781)
(0 26.378 -1.93147)
(9.4636e-14 26.378 -1.93147)
(8.20567e-14 25.8109 -1.92529)
(0 25.8109 -1.92529)
(7.15085e-14 25.2577 -1.91927)
(1.43017e-13 25.2577 -1.91927)
(-3.58882e-14 24.7182 -1.91341)
(1.43553e-13 24.7182 -1.91341)
(-4.39306e-14 24.1919 -1.90769)
(-4.39306e-14 24.1919 -1.90769)
(3.61549e-14 23.6785 -1.90212)
(-4.31256e-14 23.6785 -1.90212)
(3.62877e-14 23.1774 -1.89669)
(1.45151e-13 23.1774 -1.89669)
(3.642e-14 22.6884 -1.89139)
(1.4568e-13 22.6884 -1.89139)
(7.73499e-14 22.2112 -1.88622)
(-4.0798e-14 22.2112 -1.88622)
(0 21.7452 -1.88119)
(-1.46734e-13 21.7452 -1.88119)
(7.61312e-14 21.2904 -1.87627)
(-3.93164e-14 21.2904 -1.87627)
(1.65033e-15 20.8462 -1.87147)
(-3.8596e-14 20.8462 -1.87147)
(0 20.4124 -1.86679)
(0 20.4124 -1.86679)
(3.72063e-14 19.9888 -1.86222)
(-3.71944e-14 19.9888 -1.86222)
(7.46723e-14 19.575 -1.85776)
(3.65128e-14 19.575 -1.85776)
(0 19.1707 -1.8534)
(0 19.1707 -1.8534)
(3.75949e-14 18.7757 -1.84914)
(3.35946e-13 18.7757 -1.84914)
(0 18.3897 -1.84498)
(0 18.3897 -1.84498)
(-7.17615e-14 18.0125 -1.84091)
(0 18.0125 -1.84091)
(-3.79806e-14 17.6438 -1.83692)
(0 17.6438 -1.83692)
(0 17.2833 -1.83303)
(3.26778e-14 17.2833 -1.83303)
(3.82364e-14 16.931 -1.82921)
(0 16.931 -1.82921)
(6.29823e-14 16.5865 -1.82548)
(0 16.5865 -1.82548)
(7.6982e-14 16.2496 -1.82182)
(-1.53964e-13 16.2496 -1.82182)
(7.72358e-14 15.9201 -1.81823)
(-1.54472e-13 15.9201 -1.81823)
(2.08384e-14 15.5978 -1.81471)
(-4.64935e-13 15.5978 -1.81471)
(-3.88709e-14 15.2826 -1.81126)
(0 15.2826 -1.81126)
(0 14.9742 -1.80786)
(1.55988e-13 14.9742 -1.80786)
(-5.63671e-14 14.6725 -1.80453)
(-5.63671e-14 14.6725 -1.80453)
(-1.60855e-14 14.3772 -1.80125)
(5.53342e-14 14.3772 -1.80125)
(-3.93741e-14 14.0883 -1.79802)
(-1.57496e-13 14.0883 -1.79802)
(0 13.8055 -1.79484)
(0 13.8055 -1.79484)
(9.1972e-14 13.5287 -1.7917)
(1.58497e-13 13.5287 -1.7917)
(7.94981e-14 13.2577 -1.78861)
(-1.58996e-13 13.2577 -1.78861)
(5.04467e-14 12.9924 -1.78555)
(-2.09941e-13 12.9924 -1.78555)
(3.99979e-14 12.7327 -1.78253)
(0 12.7327 -1.78253)
(-4.86148e-14 12.4783 -1.77954)
(-1.60488e-13 12.4783 -1.77954)
(4.7724e-14 12.2291 -1.77658)
(-3.69691e-13 12.2291 -1.77658)
(0 11.9851 -1.77364)
(-4.68495e-14 11.9851 -1.77364)
(8.09861e-14 11.7461 -1.77072)
(1.61972e-13 11.7461 -1.77072)
(4.06163e-14 11.5119 -1.76781)
(-4.51482e-14 11.5119 -1.76781)
(0 11.2824 -1.76492)
(1.62958e-13 11.2824 -1.76492)
(4.08623e-14 11.0576 -1.76204)
(-1.63449e-13 11.0576 -1.76204)
(0 10.8372 -1.75916)
(-2.06651e-13 10.8372 -1.75916)
(0 10.6212 -1.75628)
(0 10.6212 -1.75628)
(4.12297e-14 10.4095 -1.7534)
(-1.64919e-13 10.4095 -1.7534)
(8.27034e-14 10.202 -1.75051)
(-1.65407e-13 10.202 -1.75051)
(4.14736e-14 9.99845 -1.74761)
(1.26229e-13 9.99845 -1.74761)
(4.42517e-14 9.7989 -1.74469)
(1.27442e-13 9.7989 -1.74469)
(4.17167e-14 9.60319 -1.74175)
(0 9.60319 -1.74175)
(-4.31315e-15 9.41124 -1.73878)
(-3.75249e-14 9.41124 -1.73878)
(4.19591e-14 9.22295 -1.73578)
(-1.67836e-13 9.22295 -1.73578)
(4.20799e-14 9.03822 -1.73275)
(1.32158e-13 9.03822 -1.73275)
(8.44012e-14 8.85696 -1.72967)
(-3.54995e-14 8.85696 -1.72967)
(0 8.67909 -1.72654)
(1.69284e-13 8.67909 -1.72654)
(-4.24413e-14 8.50452 -1.72337)
(-2.03976e-13 8.50452 -1.72337)
(8.51226e-14 8.33316 -1.72013)
(-1.70245e-13 8.33316 -1.72013)
(-4.26811e-14 8.16494 -1.71683)
(-4.07385e-13 8.16494 -1.71683)
(4.28007e-14 7.99976 -1.71346)
(-2.35931e-13 7.99976 -1.71346)
(-6.35418e-14 7.83756 -1.71001)
(1.08139e-13 7.83756 -1.71001)
(2.3701e-14 7.67825 -1.70648)
(1.72157e-13 7.67825 -1.70648)
(1.65627e-13 7.52177 -1.70286)
(-2.33867e-13 7.52177 -1.70286)
(-1.68355e-14 7.36802 -1.69913)
(0 7.36802 -1.69913)
(0 7.21695 -1.69531)
(-1.73581e-13 7.21695 -1.69531)
(0 7.06848 -1.69136)
(-1.74054e-13 7.06848 -1.69136)
(0 6.92254 -1.68729)
(-2.31393e-13 6.92254 -1.68729)
(0 6.77906 -1.68309)
(0 6.77906 -1.68309)
(4.38664e-14 6.63798 -1.67875)
(0 6.63798 -1.67875)
(4.39836e-14 6.49922 -1.67426)
(1.75934e-13 6.49922 -1.67426)
(4.41004e-14 6.36273 -1.66961)
(0 6.36273 -1.66961)
(0 6.22843 -1.66478)
(1.76868e-13 6.22843 -1.66478)
(0 6.09627 -1.65978)
(-5.08949e-14 6.09627 -1.65978)
(0 5.96618 -1.65457)
(-1.77796e-13 5.96618 -1.65457)
(0 5.8381 -1.64916)
(-4.90467e-14 5.8381 -1.64916)
(-4.46798e-14 5.71196 -1.64353)
(-4.8148e-14 5.71196 -1.64353)
(-4.47946e-14 5.58771 -1.63766)
(-1.79179e-13 5.58771 -1.63766)
(-4.49091e-14 5.46529 -1.63154)
(-2.26036e-13 5.46529 -1.63154)
(0 5.34463 -1.62516)
(0 5.34463 -1.62516)
(4.47146e-14 5.22568 -1.6185)
(-4.50524e-13 5.22568 -1.6185)
(0 5.10837 -1.61153)
(-2.68791e-13 5.10837 -1.61153)
(0 4.99265 -1.60425)
(0 4.99265 -1.60425)
(0 4.87845 -1.59663)
(-2.24203e-13 4.87845 -1.59663)
(-4.06121e-15 4.76573 -1.58865)
(0 4.76573 -1.58865)
(5.06322e-14 4.65441 -1.58029)
(1.82795e-13 4.65441 -1.58029)
(9.16191e-14 4.54443 -1.57153)
(0 4.54443 -1.57153)
(1.70409e-13 4.43574 -1.56234)
(-2.62249e-13 4.43574 -1.56234)
(8.45945e-14 4.32828 -1.55268)
(-3.85649e-14 4.32828 -1.55268)
(-4.61388e-14 4.22197 -1.54254)
(-3.78582e-14 4.22197 -1.54254)
(0 4.11677 -1.53189)
(2.59318e-13 4.11677 -1.53189)
(-4.63551e-14 4.0126 -1.52068)
(1.12454e-13 4.0126 -1.52068)
(0 3.90939 -1.50888)
(-1.85849e-13 3.90939 -1.50888)
(7.03172e-14 3.80709 -1.49646)
(-2.56592e-13 3.80709 -1.49646)
(-1.15703e-13 3.70561 -1.48337)
(-1.86697e-13 3.70561 -1.48337)
(9.35584e-14 3.60489 -1.46957)
(-1.87117e-13 3.60489 -1.46957)
(4.68832e-14 3.50485 -1.45501)
(0 3.50485 -1.45501)
(-6.5303e-14 3.40541 -1.43963)
(1.22642e-13 3.40541 -1.43963)
(0 3.3065 -1.42339)
(0 3.3065 -1.42339)
(6.29316e-14 3.20802 -1.40621)
(-2.5169e-13 3.20802 -1.40621)
(6.17784e-14 3.1099 -1.38803)
(-6.17784e-14 3.1099 -1.38803)
(-7.3904e-14 3.01202 -1.36878)
(1.28908e-13 3.01202 -1.36878)
(1.07022e-13 2.91431 -1.34837)
(-4.39427e-13 2.91431 -1.34837)
(0 2.81664 -1.32672)
(0 2.81664 -1.32672)
(-9.69479e-15 2.71891 -1.30374)
(0 2.71891 -1.30374)
(1.60416e-13 2.621 -1.27931)
(-3.03732e-13 2.621 -1.27931)
(-4.78645e-14 2.52278 -1.25333)
(1.36168e-13 2.52278 -1.25333)
(4.16342e-14 2.42411 -1.22567)
(1.91821e-13 2.42411 -1.22567)
(4.28071e-14 2.32485 -1.19618)
(0 2.32485 -1.19618)
(4.81319e-14 2.22484 -1.16472)
(-5.23055e-14 2.22484 -1.16472)
(4.82173e-14 2.12392 -1.13113)
(-5.13471e-14 2.12392 -1.13113)
(-5.25115e-14 2.0219 -1.09521)
(-2.43609e-13 2.0219 -1.09521)
(-1.10033e-15 1.91859 -1.05677)
(2.43011e-13 1.91859 -1.05677)
(0 1.81379 -1.0156)
(-1.93845e-13 1.81379 -1.0156)
(4.85378e-14 1.70728 -0.971453)
(-1.94151e-13 1.70728 -0.971453)
(9.54235e-14 1.59885 -0.924081)
(0 1.59885 -0.924081)
(4.59539e-14 1.48825 -0.873212)
(1.94732e-13 1.48825 -0.873212)
(0 1.37525 -0.818559)
(-3.90009e-13 1.37525 -0.818559)
(0 1.25962 -0.759821)
(-1.95264e-13 1.25962 -0.759821)
(4.88775e-14 1.14113 -0.696688)
(-1.9551e-13 1.14113 -0.696688)
(4.89353e-14 1.01956 -0.628851)
(1.95741e-13 1.01956 -0.628851)
(4.89891e-14 0.894733 -0.556002)
(-3.91912e-13 0.894733 -0.556002)
(9.8077e-14 0.766502 -0.477854)
(-1.96154e-13 0.766502 -0.477854)
(0 0.634772 -0.394143)
(0 0.634772 -0.394143)
(-9.48922e-15 0.499513 -0.304648)
(1.17224e-13 0.499513 -0.304648)
(0 0.360768 -0.209194)
(-1.9663e-13 0.360768 -0.209194)
(-4.9186e-14 0.218661 -0.107665)
(1.96744e-13 0.218661 -0.107665)
(1.24198e-13 3.53287e-07 -1.30761e-07)
(1.97054e-13 3.53677e-07 -1.30905e-07)
(4.92635e-14 -2.14887e-07 7.9538e-08)
(1.96834e-13 -1.38319e-07 5.11958e-08)
(0 -0.218661 0.107664)
(3.17099e-13 -0.218661 0.107664)
(-4.91574e-14 -0.360768 0.209194)
(-7.78151e-14 -0.360768 0.209194)
(0 -0.499513 0.304648)
(1.96492e-13 -0.499513 0.304648)
(0 -0.634772 0.394143)
(3.92666e-13 -0.634772 0.394143)
(-4.90385e-14 -0.766502 0.477854)
(-1.96154e-13 -0.766502 0.477854)
(0 -0.894733 0.556002)
(0 -0.894733 0.556002)
(-6.25827e-15 -1.01956 0.628851)
(-2.38418e-13 -1.01956 0.628851)
(0 -1.14113 0.696688)
(0 -1.14113 0.696688)
(4.88161e-14 -1.25962 0.759821)
(0 -1.25962 0.759821)
(0 -1.37525 0.818559)
(1.95004e-13 -1.37525 0.818559)
(0 -1.48825 0.873212)
(1.94732e-13 -1.48825 0.873212)
(0 -1.59885 0.924081)
(0 -1.59885 0.924081)
(-4.85378e-14 -1.70728 0.971453)
(-2.89522e-13 -1.70728 0.971453)
(9.69224e-14 -1.81379 1.0156)
(-9.71514e-14 -1.81379 1.0156)
(-9.89649e-14 -1.91859 1.05677)
(9.89649e-14 -1.91859 1.05677)
(9.66016e-14 -2.0219 1.09521)