/*--------------------------------*- C++ -*----------------------------------*\
| =========                 |                                                 |
| \\      /  F ield         | OpenFOAM: The Open Source CFD Toolbox           |
|  \\    /   O peration     | Version:  2106                                  |
|   \\  /    A nd           | Website:  www.openfoam.com                      |
|    \\/     M anipulation  |                                                 |
\*---------------------------------------------------------------------------*/
FoamFile
{
    version     2.0;
    format      ascii;
    arch        "LSB;label=32;scalar=64";
    class       volScalarField;
    location    "10080";
    object      p;
}
// * * * * * * * * * * * * * * * * * * * * * * * * * * * * * * * * * * * * * //

dimensions      [0 2 -2 0 0 0 0];

internalField   nonuniform List<scalar> 
2000
(
7.43138e-16
1.65941e-14
1.55323e-15
1.65936e-14
1.67785e-15
1.6593e-14
1.62505e-15
1.65921e-14
1.60241e-15
1.6591e-14
1.59605e-15
1.65895e-14
1.58815e-15
1.65877e-14
1.57833e-15
1.65855e-14
1.56876e-15
1.65829e-14
1.56015e-15
1.658e-14
1.55263e-15
1.65766e-14
1.54616e-15
1.65729e-14
1.54056e-15
1.65688e-14
1.53586e-15
1.65642e-14
1.53192e-15
1.65593e-14
1.52872e-15
1.65539e-14
1.52643e-15
1.65479e-14
1.52495e-15
1.65415e-14
1.52423e-15
1.65346e-14
1.52428e-15
1.65271e-14
1.52512e-15
1.6519e-14
1.52669e-15
1.65104e-14
1.52894e-15
1.65012e-14
1.53208e-15
1.64914e-14
1.53595e-15
1.64809e-14
1.54064e-15
1.64697e-14
1.54619e-15
1.64578e-14
1.55272e-15
1.64452e-14
1.56017e-15
1.6432e-14
1.56849e-15
1.64177e-14
1.57759e-15
1.64027e-14
1.58786e-15
1.63868e-14
1.59932e-15
1.63702e-14
1.61179e-15
1.63525e-14
1.62543e-15
1.6334e-14
1.64036e-15
1.63146e-14
1.65639e-15
1.62944e-14
1.67358e-15
1.62734e-14
1.69178e-15
1.62516e-14
1.71103e-15
1.62288e-14
1.73153e-15
1.62054e-14
1.75274e-15
1.61814e-14
1.77544e-15
1.61566e-14
1.79988e-15
1.61307e-14
1.82484e-15
1.61041e-14
1.85094e-15
1.60768e-14
1.87818e-15
1.60485e-14
1.90655e-15
1.60195e-14
1.93652e-15
1.59906e-14
1.96832e-15
1.59613e-14
2.00101e-15
1.59306e-14
2.03555e-15
1.58994e-14
2.07016e-15
1.58672e-14
2.10709e-15
1.58343e-14
2.14506e-15
1.58008e-14
2.18292e-15
1.57657e-14
2.22253e-15
1.57296e-14
2.26441e-15
1.56939e-14
2.30742e-15
1.56575e-14
2.35151e-15
1.56197e-14
2.39839e-15
1.55796e-14
2.44685e-15
1.55383e-14
2.49684e-15
1.54976e-14
2.54894e-15
1.54571e-14
2.60497e-15
1.54142e-14
2.66303e-15
1.53717e-14
2.72178e-15
1.53283e-14
2.78177e-15
1.5284e-14
2.84293e-15
1.5239e-14
2.90718e-15
1.51933e-14
2.97243e-15
1.51483e-14
3.0379e-15
1.51042e-14
3.10485e-15
1.5061e-14
3.17178e-15
1.50169e-14
3.2414e-15
1.49697e-14
3.31004e-15
1.49238e-14
3.37826e-15
1.48801e-14
3.44812e-15
1.48358e-14
3.51354e-15
1.47924e-14
3.58181e-15
1.47472e-14
3.65207e-15
1.47002e-14
3.72036e-15
1.46538e-14
3.7865e-15
1.46089e-14
3.85261e-15
1.45602e-14
3.91931e-15
1.45109e-14
3.98566e-15
1.44652e-14
4.04825e-15
1.44232e-14
4.11653e-15
1.43804e-14
4.18389e-15
1.43384e-14
4.25013e-15
1.43008e-14
4.31337e-15
1.42645e-14
4.37503e-15
1.42314e-14
4.43653e-15
1.42016e-14
4.49259e-15
1.41671e-14
4.55307e-15
1.41296e-14
4.61439e-15
1.40945e-14
4.67458e-15
1.40585e-14
4.73857e-15
1.40219e-14
4.79919e-15
1.39831e-14
4.8614e-15
1.39424e-14
4.92317e-15
1.38999e-14
4.98601e-15
1.3863e-14
5.04787e-15
1.38249e-14
5.10845e-15
1.37804e-14
5.17104e-15
1.37334e-14
5.23356e-15
1.36895e-14
5.28848e-15
1.36453e-14
5.3445e-15
1.36029e-14
5.39948e-15
1.35555e-14
5.45491e-15
1.35141e-14
5.50126e-15
1.34737e-14
5.54546e-15
1.34364e-14
5.59081e-15
1.34027e-14
5.63691e-15
1.3371e-14
5.68519e-15
1.33343e-14
5.73528e-15
1.32948e-14
5.78111e-15
1.32641e-14
5.82221e-15
1.32315e-14
5.8543e-15
1.3201e-14
5.89196e-15
1.31657e-14
5.9309e-15
1.31297e-14
5.9668e-15
1.30935e-14
6.0029e-15
1.305e-14
6.04633e-15
1.29996e-14
6.09276e-15
1.2935e-14
6.13404e-15
1.2868e-14
6.16963e-15
1.27992e-14
6.20672e-15
1.27288e-14
6.24865e-15
1.26496e-14
6.29495e-15
1.25656e-14
6.34133e-15
1.24928e-14
6.38729e-15
1.24197e-14
6.42845e-15
1.23351e-14
6.47213e-15
1.2243e-14
6.4984e-15
1.2171e-14
6.53007e-15
1.20961e-14
6.56268e-15
1.20068e-14
6.59572e-15
1.1919e-14
6.6326e-15
1.18329e-14
6.66892e-15
1.17331e-14
6.70422e-15
1.16158e-14
6.73815e-15
1.15162e-14
6.77418e-15
1.14344e-14
6.81569e-15
1.13391e-14
6.86232e-15
1.12303e-14
6.90593e-15
1.11355e-14
6.95015e-15
1.10506e-14
6.99858e-15
1.09598e-14
7.05094e-15
1.0863e-14
7.09919e-15
1.07756e-14
7.12736e-15
1.06896e-14
7.15868e-15
1.05892e-14
7.19285e-15
1.04977e-14
7.25324e-15
1.04071e-14
7.30053e-15
1.03246e-14
7.33466e-15
1.02499e-14
7.37107e-15
1.01826e-14
7.40949e-15
1.01225e-14
7.44961e-15
1.00222e-14
7.4837e-15
9.94364e-15
7.52735e-15
9.87836e-15
7.58042e-15
9.81001e-15
7.61955e-15
9.73769e-15
7.65254e-15
9.67636e-15
7.69494e-15
9.6177e-15
7.73115e-15
9.53752e-15
7.7691e-15
9.4581e-15
7.82457e-15
9.39365e-15
7.87468e-15
9.35058e-15
7.91967e-15
9.3048e-15
7.96753e-15
9.23985e-15
8.00342e-15
9.19309e-15
8.02758e-15
9.14041e-15
8.0787e-15
9.10401e-15
8.10357e-15
9.07492e-15
8.14076e-15
9.0293e-15
8.15259e-15
8.97356e-15
8.17768e-15
8.9142e-15
8.21677e-15
8.87251e-15
8.27079e-15
8.83153e-15
8.34121e-15
8.80417e-15
8.35432e-15
8.74284e-15
8.35694e-15
8.70621e-15
8.36442e-15
8.67841e-15
8.39186e-15
8.64401e-15
8.39555e-15
8.64652e-15
8.40554e-15
8.6856e-15
8.4052e-15
8.68786e-15
8.40887e-15
8.6535e-15
8.41711e-15
8.59568e-15
8.41649e-15
8.55601e-15
8.42275e-15
8.53283e-15
8.42179e-15
8.53957e-15
8.41301e-15
8.54717e-15
8.39556e-15
8.54124e-15
8.3971e-15
8.56616e-15
8.37269e-15
8.6226e-15
8.37598e-15
8.61309e-15
8.40594e-15
8.62363e-15
8.42025e-15
8.61018e-15
8.41992e-15
8.57139e-15
8.40653e-15
8.60395e-15
8.43352e-15
8.58316e-15
8.47476e-15
8.56242e-15
8.46305e-15
8.55277e-15
8.46797e-15
8.59569e-15
8.47183e-15
8.58294e-15
8.47444e-15
8.55567e-15
8.48955e-15
8.58094e-15
8.50302e-15
8.60351e-15
8.52759e-15
8.60897e-15
8.53711e-15
8.60958e-15
8.5037e-15
8.61913e-15
8.57107e-15
8.61492e-15
8.55614e-15
8.61794e-15
8.53635e-15
8.60041e-15
8.56229e-15
8.63974e-15
8.57934e-15
8.68559e-15
8.56137e-15
8.66414e-15
8.55999e-15
8.65351e-15
8.62382e-15
8.67981e-15
8.57915e-15
8.63716e-15
8.5511e-15
8.65081e-15
8.60808e-15
8.64968e-15
8.65552e-15
8.67849e-15
8.67256e-15
8.66007e-15
8.66393e-15
8.64034e-15
8.62848e-15
8.64235e-15
8.6087e-15
8.6442e-15
8.64603e-15
8.62634e-15
8.67716e-15
8.6572e-15
8.68242e-15
8.68722e-15
8.65854e-15
8.7187e-15
8.62163e-15
8.73582e-15
8.67635e-15
8.79354e-15
8.61764e-15
8.9201e-15
8.61848e-15
8.94384e-15
8.62526e-15
8.94163e-15
8.61866e-15
8.94126e-15
8.61685e-15
8.94602e-15
8.65524e-15
8.89155e-15
8.70801e-15
8.80251e-15
8.78649e-15
8.78311e-15
8.76385e-15
8.78882e-15
8.7443e-15
8.76179e-15
8.73042e-15
8.74588e-15
8.68027e-15
8.70174e-15
8.7141e-15
8.69144e-15
8.74254e-15
8.70117e-15
8.69241e-15
8.68459e-15
1.25559e-14
1.36913e-14
1.25557e-14
1.36912e-14
1.25556e-14
1.36911e-14
1.25553e-14
1.36909e-14
1.2555e-14
1.36907e-14
1.25545e-14
1.36904e-14
1.2554e-14
1.36901e-14
1.25533e-14
1.36896e-14
1.25525e-14
1.36891e-14
1.25516e-14
1.36886e-14
1.25506e-14
1.36879e-14
1.25495e-14
1.36871e-14
1.25482e-14
1.36863e-14
1.25468e-14
1.36853e-14
1.25455e-14
1.36842e-14
1.2544e-14
1.36829e-14
1.25423e-14
1.36816e-14
1.25406e-14
1.36801e-14
1.25387e-14
1.36785e-14
1.25367e-14
1.36768e-14
1.25345e-14
1.36748e-14
1.25322e-14
1.36727e-14
1.25297e-14
1.36704e-14
1.2527e-14
1.36678e-14
1.25242e-14
1.36648e-14
1.2521e-14
1.36617e-14
1.25177e-14
1.36583e-14
1.25141e-14
1.36542e-14
1.25104e-14
1.36499e-14
1.25064e-14
1.36452e-14
1.25021e-14
1.36402e-14
1.24975e-14
1.36346e-14
1.24928e-14
1.36285e-14
1.24877e-14
1.36219e-14
1.24822e-14
1.36144e-14
1.24765e-14
1.36065e-14
1.24705e-14
1.35983e-14
1.24636e-14
1.35897e-14
1.24561e-14
1.35807e-14
1.24479e-14
1.35707e-14
1.24393e-14
1.35603e-14
1.24301e-14
1.35495e-14
1.24206e-14
1.35379e-14
1.24097e-14
1.35263e-14
1.23983e-14
1.35137e-14
1.23863e-14
1.35009e-14
1.23741e-14
1.34872e-14
1.23614e-14
1.34721e-14
1.23476e-14
1.34579e-14
1.23332e-14
1.34435e-14
1.23186e-14
1.3427e-14
1.23035e-14
1.34094e-14
1.2288e-14
1.33917e-14
1.22721e-14
1.33722e-14
1.22557e-14
1.33526e-14
1.22387e-14
1.33334e-14
1.22219e-14
1.33122e-14
1.22042e-14
1.32903e-14
1.2186e-14
1.32673e-14
1.21672e-14
1.32434e-14
1.21478e-14
1.32184e-14
1.21273e-14
1.31942e-14
1.21056e-14
1.31702e-14
1.20847e-14
1.31452e-14
1.20632e-14
1.31185e-14
1.20411e-14
1.30914e-14
1.20173e-14
1.30658e-14
1.19937e-14
1.30386e-14
1.19702e-14
1.30089e-14
1.19457e-14
1.29802e-14
1.19193e-14
1.29545e-14
1.18931e-14
1.29292e-14
1.18666e-14
1.29014e-14
1.18403e-14
1.28712e-14
1.18159e-14
1.28399e-14
1.17903e-14
1.28053e-14
1.17645e-14
1.27748e-14
1.17354e-14
1.2749e-14
1.17098e-14
1.27156e-14
1.16839e-14
1.26795e-14
1.16571e-14
1.26477e-14
1.16293e-14
1.2617e-14
1.16013e-14
1.2583e-14
1.15725e-14
1.25439e-14
1.15451e-14
1.25038e-14
1.15176e-14
1.2468e-14
1.14885e-14
1.24335e-14
1.14578e-14
1.23938e-14
1.14255e-14
1.23555e-14
1.13932e-14
1.23184e-14
1.13643e-14
1.22811e-14
1.13338e-14
1.22417e-14
1.13019e-14
1.2207e-14
1.12735e-14
1.21721e-14
1.12437e-14
1.21334e-14
1.12141e-14
1.20995e-14
1.11884e-14
1.20636e-14
1.1163e-14
1.20239e-14
1.11381e-14
1.19838e-14
1.11137e-14
1.19381e-14
1.10881e-14
1.18919e-14
1.10632e-14
1.18577e-14
1.10389e-14
1.18213e-14
1.10172e-14
1.17773e-14
1.09909e-14
1.17381e-14
1.09672e-14
1.17021e-14
1.09427e-14
1.16637e-14
1.09174e-14
1.1623e-14
1.08913e-14
1.15853e-14
1.08645e-14
1.15544e-14
1.08498e-14
1.15192e-14
1.08273e-14
1.14816e-14
1.0808e-14
1.14451e-14
1.07865e-14
1.14116e-14
1.07647e-14
1.13812e-14
1.07463e-14
1.1348e-14
1.07203e-14
1.13216e-14
1.0698e-14
1.12943e-14
1.06832e-14
1.12586e-14
1.06648e-14
1.1222e-14
1.06542e-14
1.11919e-14
1.06364e-14
1.1176e-14
1.06229e-14
1.11552e-14
1.06137e-14
1.11181e-14
1.06015e-14
1.10835e-14
1.05941e-14
1.10477e-14
1.05877e-14
1.10182e-14
1.05788e-14
1.10028e-14
1.05673e-14
1.09937e-14
1.05497e-14
1.09718e-14
1.05375e-14
1.09486e-14
1.05232e-14
1.09398e-14
1.05069e-14
1.09376e-14
1.04846e-14
1.09344e-14
1.04682e-14
1.09304e-14
1.04538e-14
1.09219e-14
1.04414e-14
1.09129e-14
1.04274e-14
1.09036e-14
1.04118e-14
1.08942e-14
1.04064e-14
1.08769e-14
1.03997e-14
1.08598e-14
1.03998e-14
1.08589e-14
1.04107e-14
1.08507e-14
1.03974e-14
1.08354e-14
1.03874e-14
1.08172e-14
1.03771e-14
1.08003e-14
1.03587e-14
1.07848e-14
1.0352e-14
1.07751e-14
1.03374e-14
1.07674e-14
1.03228e-14
1.07465e-14
1.03163e-14
1.07125e-14
1.03103e-14
1.06815e-14
1.03053e-14
1.06535e-14
1.02857e-14
1.06366e-14
1.02675e-14
1.06312e-14
1.02584e-14
1.06065e-14
1.0243e-14
1.05862e-14
1.02293e-14
1.05864e-14
1.02174e-14
1.05842e-14
1.02072e-14
1.05723e-14
1.02068e-14
1.0575e-14
1.02007e-14
1.0585e-14
1.02043e-14
1.05562e-14
1.01869e-14
1.052e-14
1.01802e-14
1.05082e-14
1.01921e-14
1.04976e-14
1.01997e-14
1.04967e-14
1.02034e-14
1.04828e-14
1.01958e-14
1.0441e-14
1.0193e-14
1.04178e-14
1.01876e-14
1.03824e-14
1.01803e-14
1.03352e-14
1.01717e-14
1.02992e-14
1.01397e-14
1.02745e-14
1.0107e-14
1.02616e-14
1.00813e-14
1.02309e-14
1.00547e-14
1.01905e-14
1.0028e-14
1.01487e-14
1.00014e-14
1.0121e-14
9.97494e-15
1.01156e-14
9.93279e-15
1.00809e-14
9.8894e-15
1.00327e-14
9.85993e-15
9.95667e-15
9.84557e-15
9.86731e-15
9.80328e-15
9.80789e-15
9.73345e-15
9.79311e-15
9.73925e-15
9.76472e-15
9.70247e-15
9.75144e-15
9.66751e-15
9.75424e-15
9.64819e-15
9.73083e-15
9.60047e-15
9.68253e-15
9.56864e-15
9.63957e-15
9.53831e-15
9.60205e-15
9.49526e-15
9.59906e-15
9.482e-15
9.54491e-15
9.45693e-15
9.54019e-15
9.43404e-15
9.54218e-15
9.44194e-15
9.52278e-15
9.41041e-15
9.52486e-15
9.38078e-15
9.50744e-15
9.33797e-15
9.50058e-15
9.32275e-15
9.46497e-15
9.29396e-15
9.47017e-15
9.29158e-15
9.42067e-15
9.26108e-15
9.39922e-15
9.28609e-15
9.36504e-15
9.28702e-15
9.32812e-15
9.30838e-15
9.28675e-15
9.27237e-15
9.30676e-15
9.25796e-15
9.35051e-15
9.24771e-15
9.34123e-15
9.2683e-15
9.29382e-15
9.24406e-15
9.24428e-15
9.27254e-15
9.24362e-15
9.27481e-15
9.29029e-15
9.27621e-15
9.30986e-15
9.27729e-15
9.28014e-15
9.20173e-15
9.25033e-15
9.17471e-15
9.2222e-15
9.22237e-15
9.17056e-15
9.17493e-15
9.16369e-15
9.18028e-15
9.17842e-15
9.18938e-15
9.14246e-15
9.18445e-15
9.12673e-15
9.16517e-15
9.12997e-15
9.15235e-15
9.10367e-15
9.17205e-15
9.07207e-15
9.15862e-15
9.07895e-15
9.18701e-15
9.02876e-15
9.14921e-15
8.95875e-15
9.09646e-15
8.98314e-15
9.08775e-15
9.01407e-15
9.04606e-15
9.03344e-15
9.05848e-15
9.04997e-15
8.98707e-15
9.04163e-15
9.00229e-15
9.06135e-15
8.99253e-15
9.07876e-15
8.93053e-15
9.02955e-15
8.92425e-15
9.02868e-15
8.97238e-15
9.03196e-15
8.95194e-15
9.03193e-15
8.92252e-15
8.97136e-15
8.90516e-15
8.96059e-15
8.88873e-15
8.93586e-15
8.85365e-15
8.89349e-15
8.82212e-15
8.83139e-15
8.84312e-15
8.8256e-15
8.80108e-15
8.83071e-15
8.7627e-15
8.81757e-15
8.71253e-15
8.79092e-15
8.68505e-15
8.69471e-15
8.75563e-15
8.74233e-15
8.74402e-15
8.74354e-15
8.72977e-15
8.6988e-15
8.71602e-15
8.69016e-15
8.75334e-15
8.69886e-15
8.71367e-15
8.6959e-15
8.71556e-15
8.66253e-15
8.6624e-15
8.65544e-15
8.588e-15
8.6435e-15
8.56596e-15
8.63886e-15
8.57084e-15
8.60244e-15
8.60688e-15
8.61532e-15
8.61492e-15
8.65167e-15
8.61315e-15
8.63044e-15
8.58316e-15
8.5917e-15
8.59554e-15
8.60165e-15
8.62703e-15
8.61276e-15
8.65709e-15
8.6002e-15
8.67135e-15
8.60739e-15
8.6539e-15
8.63634e-15
8.67028e-15
8.66893e-15
8.64218e-15
8.68289e-15
8.66069e-15
8.70586e-15
8.68002e-15
8.68869e-15
8.70185e-15
8.67581e-15
8.68017e-15
8.68686e-15
8.63485e-15
8.69988e-15
8.60862e-15
8.64494e-15
8.62958e-15
8.61964e-15
8.65126e-15
8.61878e-15
8.64861e-15
8.63963e-15
8.64765e-15
8.65966e-15
8.62265e-15
8.65538e-15
8.6208e-15
8.65542e-15
8.64377e-15
8.65888e-15
8.64137e-15
8.66231e-15
8.61178e-15
8.66497e-15
8.63378e-15
8.66944e-15
8.65543e-15
8.67447e-15
8.63737e-15
8.63763e-15
8.59409e-15
8.64008e-15
8.60389e-15
8.64465e-15
8.61167e-15
8.60903e-15
8.57846e-15
8.62672e-15
8.56982e-15
8.60592e-15
8.55897e-15
8.61497e-15
8.51709e-15
8.62595e-15
8.51107e-15
8.5996e-15
8.52873e-15
8.59064e-15
8.52905e-15
8.5966e-15
8.51167e-15
8.60425e-15
8.49071e-15
8.60027e-15
8.50915e-15
8.54211e-15
8.49895e-15
8.4982e-15
8.47481e-15
8.50984e-15
8.47863e-15
8.56455e-15
8.45106e-15
8.59219e-15
8.44833e-15
8.55111e-15
8.44237e-15
8.49835e-15
8.43478e-15
8.49092e-15
8.42543e-15
8.51402e-15
8.41373e-15
8.50964e-15
8.41477e-15
8.49279e-15
8.41396e-15
8.46271e-15
8.39727e-15
8.44836e-15
8.39443e-15
8.46474e-15
8.39005e-15
8.46725e-15
8.39913e-15
8.45589e-15
8.40748e-15
8.43006e-15
8.37037e-15
8.40403e-15
8.34788e-15
8.39346e-15
8.35491e-15
8.40645e-15
8.35349e-15
8.40512e-15
8.34364e-15
8.38158e-15
8.34095e-15
8.36598e-15
8.33805e-15
8.36578e-15
8.33493e-15
8.34271e-15
8.33197e-15
8.29632e-15
8.31441e-15
8.30312e-15
8.28943e-15
8.31706e-15
8.29513e-15
8.31544e-15
8.2852e-15
8.3059e-15
8.27519e-15
8.28849e-15
8.2807e-15
8.25538e-15
8.27116e-15
8.24504e-15
8.26997e-15
8.24182e-15
8.26146e-15
8.23791e-15
8.23767e-15
8.23331e-15
8.23752e-15
8.22038e-15
8.22979e-15
8.21461e-15
8.20659e-15
8.22388e-15
8.19108e-15
8.22505e-15
8.1752e-15
8.19465e-15
8.15899e-15
8.17963e-15
8.14246e-15
8.17208e-15
8.12556e-15
8.16418e-15
8.11614e-15
8.16386e-15
8.10618e-15
8.16335e-15
8.08773e-15
8.14696e-15
8.06863e-15
8.13834e-15
8.05663e-15
8.13756e-15
8.03589e-15
8.13682e-15
8.02206e-15
8.14414e-15
8.0111e-15
8.15573e-15
8.00291e-15
8.1678e-15
8.00136e-15
8.15681e-15
7.98685e-15
8.1542e-15
7.97506e-15
8.15214e-15
7.96995e-15
8.15064e-15
7.96367e-15
8.14577e-15
7.95626e-15
8.15325e-15
7.95163e-15
8.15348e-15
7.94586e-15
8.1504e-15
7.94291e-15
8.144e-15
7.94282e-15
8.12641e-15
7.94961e-15
8.10928e-15
7.94779e-15
8.1042e-15
7.94521e-15
8.10722e-15
7.938e-15
8.11445e-15
7.93779e-15
8.10652e-15
7.94461e-15
8.10282e-15
7.94301e-15
8.09558e-15
7.94852e-15
8.1002e-15
7.94959e-15
8.11666e-15
7.95008e-15
8.11032e-15
7.94618e-15
8.10045e-15
7.94944e-15
8.10234e-15
7.95221e-15
8.11212e-15
7.94687e-15
8.11831e-15
7.94486e-15
8.11715e-15
7.94239e-15
8.11626e-15
7.93946e-15
8.1232e-15
7.93608e-15
8.1266e-15
7.92849e-15
8.1265e-15
7.9242e-15
8.12667e-15
7.91946e-15
8.13085e-15
7.9087e-15
8.14086e-15
7.90674e-15
8.13817e-15
7.9043e-15
8.13026e-15
7.90141e-15
8.12265e-15
7.89626e-15
8.12448e-15
7.89615e-15
8.12108e-15
7.89379e-15
8.11976e-15
7.89284e-15
8.11868e-15
7.89508e-15
8.11424e-15
7.89693e-15
8.11182e-15
7.89484e-15
8.11139e-15
7.89417e-15
8.11116e-15
7.89493e-15
8.11288e-15
7.9006e-15
8.11302e-15
7.90244e-15
8.10809e-15
7.90396e-15
8.10335e-15
7.90519e-15
8.1005e-15
7.90614e-15
8.09952e-15
7.91024e-15
8.10037e-15
7.91067e-15
8.10135e-15
7.91086e-15
8.09738e-15
7.91418e-15
8.09355e-15
7.91559e-15
8.09316e-15
7.91514e-15
8.09286e-15
7.91287e-15
8.09266e-15
7.91042e-15
8.09416e-15
7.91103e-15
8.09251e-15
7.91145e-15
8.09256e-15
7.9117e-15
8.09109e-15
7.91336e-15
8.08814e-15
7.91329e-15
8.08762e-15
7.91384e-15
8.08949e-15
7.91885e-15
8.08911e-15
7.92367e-15
8.08651e-15
7.92456e-15
8.08324e-15
7.92606e-15
8.08154e-15
7.92818e-15
8.08065e-15
7.93089e-15
8.08053e-15
7.93348e-15
8.08118e-15
7.93595e-15
8.08114e-15
7.93758e-15
8.0776e-15
7.93842e-15
8.07623e-15
7.94192e-15
8.07491e-15
7.94531e-15
8.07499e-15
7.94791e-15
8.07375e-15
7.94974e-15
8.07122e-15
7.95148e-15
8.07202e-15
7.95314e-15
8.07477e-15
7.95536e-15
8.07559e-15
7.95748e-15
8.07578e-15
7.95952e-15
8.07846e-15
7.96087e-15
8.08112e-15
7.96215e-15
8.08136e-15
7.96276e-15
8.08101e-15
7.96274e-15
8.08243e-15
7.96325e-15
8.08384e-15
7.96427e-15
8.08467e-15
7.96522e-15
8.08468e-15
7.96531e-15
8.08498e-15
7.96509e-15
8.08501e-15
7.96536e-15
8.0848e-15
7.96559e-15
8.08435e-15
7.96653e-15
8.08442e-15
7.96717e-15
8.08402e-15
7.96847e-15
8.08172e-15
7.96902e-15
8.08043e-15
7.96976e-15
8.08143e-15
7.97067e-15
8.08176e-15
7.97067e-15
8.08165e-15
7.97065e-15
8.08177e-15
7.9706e-15
8.08189e-15
7.97073e-15
8.08241e-15
7.97102e-15
8.08254e-15
7.9711e-15
8.0821e-15
7.97152e-15
8.08223e-15
7.97173e-15
8.08272e-15
7.97208e-15
8.08285e-15
7.97192e-15
8.08315e-15
7.97157e-15
8.08361e-15
7.97138e-15
8.08375e-15
7.97133e-15
8.08366e-15
7.97133e-15
8.08365e-15
7.97118e-15
8.08372e-15
7.97109e-15
8.08392e-15
7.97092e-15
8.08399e-15
7.97087e-15
8.08394e-15
7.97081e-15
8.08408e-15
7.9708e-15
8.08421e-15
7.97083e-15
8.08429e-15
7.97084e-15
8.08426e-15
7.9708e-15
8.08428e-15
7.97074e-15
8.08431e-15
7.97062e-15
8.08439e-15
7.97062e-15
8.08445e-15
7.97063e-15
8.08449e-15
7.97061e-15
8.0846e-15
7.97061e-15
8.08472e-15
7.97059e-15
8.08476e-15
7.97054e-15
8.08481e-15
7.97051e-15
8.08489e-15
7.97052e-15
8.08494e-15
7.97053e-15
8.08496e-15
7.9705e-15
8.08499e-15
7.9705e-15
8.08504e-15
7.97049e-15
8.08508e-15
7.97049e-15
8.08512e-15
7.97049e-15
8.08515e-15
7.97046e-15
8.08516e-15
7.97045e-15
8.08518e-15
7.97044e-15
8.0852e-15
7.97043e-15
8.08521e-15
7.97043e-15
8.08521e-15
7.97043e-15
8.08521e-15
8.73043e-15
8.75692e-15
8.7473e-15
8.73869e-15
8.76535e-15
8.76114e-15
8.78726e-15
8.69765e-15
8.70707e-15
8.67738e-15
8.76435e-15
8.69243e-15
8.77334e-15
8.73459e-15
8.70861e-15
8.72828e-15
8.66094e-15
8.68838e-15
8.6297e-15
8.67969e-15
8.61514e-15
8.6391e-15
8.66897e-15
8.6256e-15
8.6483e-15
8.62913e-15
8.65763e-15
8.58431e-15
8.63658e-15
8.59079e-15
8.62479e-15
8.58657e-15
8.64585e-15
8.59949e-15
8.67794e-15
8.5815e-15
8.65632e-15
8.54696e-15
8.55352e-15
8.51707e-15
8.54403e-15
8.54868e-15
8.59997e-15
8.57536e-15
8.60576e-15
8.6178e-15
8.55836e-15
8.63326e-15
8.62049e-15
8.62842e-15
8.62858e-15
8.64613e-15
8.63081e-15
8.66424e-15
8.62696e-15
8.65939e-15
8.61939e-15
8.63018e-15
8.63697e-15
8.62685e-15
8.68181e-15
8.64874e-15
8.62723e-15
8.64311e-15
8.57003e-15
8.63899e-15
8.63498e-15
8.61347e-15
8.59672e-15
8.63727e-15
8.58074e-15
8.69025e-15
8.60753e-15
8.72619e-15
8.57088e-15
8.71951e-15
8.57624e-15
8.72508e-15
8.58324e-15
8.74258e-15
8.56395e-15
8.69089e-15
8.56173e-15
8.66226e-15
8.59378e-15
8.68153e-15
8.59292e-15
8.67939e-15
8.60059e-15
8.60068e-15
8.58097e-15
8.60467e-15
8.56032e-15
8.65192e-15
8.56319e-15
8.63451e-15
8.53546e-15
8.6348e-15
8.54615e-15
8.68312e-15
8.55114e-15
8.65433e-15
8.49493e-15
8.65975e-15
8.46002e-15
8.64448e-15
8.43138e-15
8.60861e-15
8.46664e-15
8.62414e-15
8.46652e-15
8.6189e-15
8.43162e-15
8.62107e-15
8.43312e-15
8.60153e-15
8.44338e-15
8.55834e-15
8.43518e-15
8.53354e-15
8.43857e-15
8.54178e-15
8.40932e-15
8.53908e-15
8.37601e-15
8.52559e-15
8.39757e-15
8.51643e-15
8.38588e-15
8.49578e-15
8.38597e-15
8.49331e-15
8.38325e-15
8.50909e-15
8.37739e-15
8.51337e-15
8.35313e-15
8.50621e-15
8.3552e-15
8.48784e-15
8.35388e-15
8.4425e-15
8.35057e-15
8.4145e-15
8.33837e-15
8.4108e-15
8.33225e-15
8.42381e-15
8.32423e-15
8.42339e-15
8.31426e-15
8.40974e-15
8.3101e-15
8.39037e-15
8.29668e-15
8.3725e-15
8.28944e-15
8.34059e-15
8.28881e-15
8.3639e-15
8.27914e-15
8.38106e-15
8.26792e-15
8.37687e-15
8.25501e-15
8.35904e-15
8.25608e-15
8.32733e-15
8.24052e-15
8.30454e-15
8.23173e-15
8.30622e-15
8.23743e-15
8.30914e-15
8.23432e-15
8.31327e-15
8.22235e-15
8.31868e-15
8.21711e-15
8.31773e-15
8.21074e-15
8.3183e-15
8.20321e-15
8.31258e-15
8.20248e-15
8.31617e-15
8.20864e-15
8.31336e-15
8.19041e-15
8.31198e-15
8.17127e-15
8.32007e-15
8.15102e-15
8.31423e-15
8.16112e-15
8.31026e-15
8.15448e-15
8.30797e-15
8.15479e-15
8.29945e-15
8.16219e-15
8.29248e-15
8.15326e-15
8.28691e-15
8.14376e-15
8.28271e-15
8.13374e-15
8.27985e-15
8.12316e-15
8.28223e-15
8.11199e-15
8.28985e-15
8.11588e-15
8.28306e-15
8.11523e-15
8.28146e-15
8.09831e-15
8.285e-15
8.08863e-15
8.27801e-15
8.08225e-15
8.27619e-15
8.07525e-15
8.27558e-15
8.07154e-15
8.27616e-15
8.06721e-15
8.28182e-15
8.05832e-15
8.27298e-15
8.05663e-15
8.26919e-15
8.05433e-15
8.2626e-15
8.05536e-15
8.24928e-15
8.04808e-15
8.24475e-15
8.05198e-15
8.24114e-15
8.05154e-15
8.22673e-15
8.05072e-15
8.22087e-15
8.04954e-15
8.2196e-15
8.04028e-15
8.21904e-15
8.03451e-15
8.21916e-15
8.0322e-15
8.21225e-15
8.03336e-15
8.20981e-15
8.03035e-15
8.21564e-15
8.02698e-15
8.22588e-15
8.02323e-15
8.22909e-15
8.0229e-15
8.22149e-15
8.01842e-15
8.22585e-15
8.02116e-15
8.23831e-15
8.01975e-15
8.24378e-15
8.01798e-15
8.24228e-15
8.01212e-15
8.24132e-15
8.01527e-15
8.24837e-15
8.02552e-15
8.24662e-15
8.02618e-15
8.23793e-15
8.02659e-15
8.24079e-15
8.03778e-15
8.24223e-15
8.04506e-15
8.23674e-15
8.04666e-15
8.23165e-15
8.04447e-15
8.23055e-15
8.04936e-15
8.22618e-15
8.0577e-15
8.22033e-15
8.06232e-15
8.22017e-15
8.06503e-15
8.22026e-15
8.06765e-15
8.21706e-15
8.07195e-15
8.21763e-15
8.07616e-15
8.21843e-15
8.07854e-15
8.21593e-15
8.07913e-15
8.21364e-15
8.08484e-15
8.20983e-15
8.08705e-15
8.20621e-15
8.08582e-15
8.20618e-15
8.08625e-15
8.20801e-15
8.08834e-15
8.20997e-15
8.09038e-15
8.21039e-15
8.08907e-15
8.21428e-15
8.08773e-15
8.21498e-15
8.08801e-15
8.21417e-15
8.09314e-15
8.21187e-15
8.09337e-15
8.20972e-15
8.09198e-15
8.2093e-15
8.09059e-15
8.20899e-15
8.09233e-15
8.20565e-15
8.09171e-15
8.20399e-15
8.09185e-15
8.20555e-15
8.09275e-15
8.20258e-15
8.09287e-15
8.20048e-15
8.09297e-15
8.19849e-15
8.09306e-15
8.19884e-15
8.09166e-15
8.20074e-15
8.09173e-15
8.20123e-15
8.09322e-15
8.20034e-15
8.09398e-15
8.20026e-15
8.09471e-15
8.19882e-15
8.09473e-15
8.19607e-15
8.09543e-15
8.19618e-15
8.09611e-15
8.19702e-15
8.09745e-15
8.19522e-15
8.09943e-15
8.19283e-15
8.10203e-15
8.19249e-15
8.10265e-15
8.19285e-15
8.10198e-15
8.19388e-15
8.1032e-15
8.19432e-15
8.10378e-15
8.19479e-15
8.10495e-15
8.19469e-15
8.1049e-15
8.19402e-15
8.10544e-15
8.19459e-15
8.10597e-15
8.19517e-15
8.10591e-15
8.19465e-15
8.1064e-15
8.19416e-15
8.10744e-15
8.19426e-15
8.10791e-15
8.1952e-15
8.10837e-15
8.1951e-15
8.10856e-15
8.1945e-15
8.10925e-15
8.19445e-15
8.10992e-15
8.19517e-15
8.10936e-15
8.19639e-15
8.10977e-15
8.19642e-15
8.10992e-15
8.19553e-15
8.11053e-15
8.19492e-15
8.11089e-15
8.19523e-15
8.11017e-15
8.19577e-15
8.10988e-15
8.19652e-15
8.10899e-15
8.19686e-15
8.10851e-15
8.19682e-15
8.10824e-15
8.19737e-15
8.10779e-15
8.1983e-15
8.10735e-15
8.19885e-15
8.10657e-15
8.19905e-15
8.10598e-15
8.19927e-15
8.10557e-15
8.19965e-15
8.10502e-15
8.20036e-15
8.10447e-15
8.20105e-15
8.10425e-15
8.20152e-15
8.10403e-15
8.20183e-15
8.10346e-15
8.20215e-15
8.10318e-15
8.20254e-15
8.10304e-15
8.20287e-15
8.1029e-15
8.20325e-15
8.10276e-15
8.20358e-15
8.10257e-15
8.20396e-15
8.10238e-15
8.20423e-15
8.1023e-15
8.20439e-15
8.10217e-15
8.20462e-15
8.10214e-15
8.20484e-15
8.10201e-15
8.20513e-15
8.10198e-15
8.20522e-15
8.10197e-15
8.20536e-15
8.10187e-15
8.20556e-15
8.10181e-15
8.20563e-15
8.10182e-15
8.20565e-15
8.1018e-15
8.20575e-15
8.10174e-15
8.20584e-15
8.10169e-15
8.20586e-15
8.10166e-15
8.20587e-15
8.10157e-15
8.20589e-15
8.10153e-15
8.20592e-15
8.10151e-15
8.20595e-15
8.10149e-15
8.20594e-15
8.10148e-15
8.20595e-15
8.10144e-15
8.20597e-15
8.1014e-15
8.20597e-15
8.10139e-15
8.20598e-15
8.10139e-15
8.20599e-15
8.10139e-15
8.20599e-15
8.10139e-15
8.20599e-15
)
;

boundaryField
{
    walls
    {
        type            zeroGradient;
    }
    inlet
    {
        type            cyclic;
    }
    outlet
    {
        type            cyclic;
    }
    sides
    {
        type            empty;
    }
}


// ************************************************************************* //
