/*--------------------------------*- C++ -*----------------------------------*\
| =========                 |                                                 |
| \\      /  F ield         | OpenFOAM: The Open Source CFD Toolbox           |
|  \\    /   O peration     | Version:  2106                                  |
|   \\  /    A nd           | Website:  www.openfoam.com                      |
|    \\/     M anipulation  |                                                 |
\*---------------------------------------------------------------------------*/
FoamFile
{
    version     2.0;
    format      ascii;
    arch        "LSB;label=32;scalar=64";
    class       surfaceScalarField;
    location    "10080";
    object      phi;
}
// * * * * * * * * * * * * * * * * * * * * * * * * * * * * * * * * * * * * * //

dimensions      [0 3 -1 0 0 0 0];

oriented        oriented;

internalField   nonuniform List<scalar> 
3996
(
5.27302e-08
-6.41428e-18
-4.1299e-22
-1.25313e-21
1.18071e-22
1.62126e-07
-6.41261e-18
-3.4362e-22
-2.87701e-21
2.97373e-22
2.77627e-07
-6.41089e-18
-3.64745e-22
-4.60426e-21
3.14235e-22
3.995e-07
-6.40903e-18
-4.02633e-22
-6.36705e-21
3.32002e-22
5.2802e-07
-6.40708e-18
-4.4285e-22
-8.41116e-21
3.5071e-22
6.63472e-07
-6.40471e-18
-4.85128e-22
-1.07329e-20
3.70395e-22
8.06148e-07
-6.4024e-18
-5.30329e-22
-1.29534e-20
3.91086e-22
9.56343e-07
-6.39994e-18
-5.7839e-22
-1.51064e-20
4.12795e-22
1.11435e-06
-6.39699e-18
-6.2919e-22
-1.78028e-20
4.35506e-22
1.28045e-06
-6.39428e-18
-6.8272e-22
-2.07455e-20
4.59171e-22
1.45491e-06
-6.39184e-18
-7.38967e-22
-2.36932e-20
4.83705e-22
1.63793e-06
-6.38842e-18
-7.97793e-22
-2.61687e-20
5.08946e-22
1.82969e-06
-6.38482e-18
-8.5893e-22
-2.95747e-20
5.34644e-22
2.03027e-06
-6.38123e-18
-9.21922e-22
-3.31787e-20
5.60498e-22
2.23964e-06
-6.37682e-18
-9.86135e-22
-3.71992e-20
5.8611e-22
2.45765e-06
-6.37369e-18
-1.05074e-21
-4.02217e-20
6.11002e-22
2.68404e-06
-6.36933e-18
-1.11473e-21
-4.43731e-20
6.34598e-22
2.91837e-06
-6.36472e-18
-1.17713e-21
-4.85467e-20
6.56401e-22
3.16012e-06
-6.35997e-18
-1.23693e-21
-5.31748e-20
6.75895e-22
3.40863e-06
-6.35454e-18
-1.29327e-21
-5.73517e-20
6.92714e-22
3.6632e-06
-6.34874e-18
-1.34554e-21
-6.21127e-20
7.06612e-22
3.92312e-06
-6.34179e-18
-1.39337e-21
-6.73983e-20
7.17478e-22
4.18767e-06
-6.33653e-18
-1.4367e-21
-7.28363e-20
7.25415e-22
4.45623e-06
-6.32975e-18
-1.47569e-21
-7.83677e-20
7.30623e-22
4.72825e-06
-6.32393e-18
-1.5108e-21
-8.28249e-20
7.3339e-22
5.00327e-06
-6.31792e-18
-1.54252e-21
-8.87292e-20
7.33997e-22
5.28096e-06
-6.31205e-18
-1.57148e-21
-9.46986e-20
7.32889e-22
5.56109e-06
-6.30544e-18
-1.59838e-21
-1.0037e-19
7.3046e-22
5.84351e-06
-6.29768e-18
-1.62384e-21
-1.06081e-19
7.26973e-22
6.12817e-06
-6.29019e-18
-1.64844e-21
-1.11769e-19
7.22653e-22
6.41509e-06
-6.28371e-18
-1.67272e-21
-1.17157e-19
7.17804e-22
6.70432e-06
-6.27711e-18
-1.6971e-21
-1.23078e-19
7.12683e-22
6.99598e-06
-6.27021e-18
-1.72193e-21
-1.28632e-19
7.07402e-22
7.29023e-06
-6.2641e-18
-1.74751e-21
-1.35012e-19
7.02023e-22
7.58722e-06
-6.25748e-18
-1.77404e-21
-1.40722e-19
6.96726e-22
7.88715e-06
-6.25074e-18
-1.80178e-21
-1.47418e-19
6.91471e-22
8.19022e-06
-6.24103e-18
-1.83076e-21
-1.54322e-19
6.8622e-22
8.49665e-06
-6.23287e-18
-1.86117e-21
-1.60273e-19
6.81071e-22
8.80664e-06
-6.22346e-18
-1.8931e-21
-1.66295e-19
6.76023e-22
9.12041e-06
-6.21708e-18
-1.92675e-21
-1.72562e-19
6.71261e-22
9.4382e-06
-6.20883e-18
-1.96204e-21
-1.79299e-19
6.66612e-22
9.76021e-06
-6.20142e-18
-1.99917e-21
-1.85951e-19
6.62126e-22
1.00867e-05
-6.19456e-18
-2.03823e-21
-1.91017e-19
6.57892e-22
1.04178e-05
-6.18468e-18
-2.07891e-21
-1.99367e-19
6.53458e-22
1.07538e-05
-6.17642e-18
-2.12156e-21
-2.0616e-19
6.49259e-22
1.10949e-05
-6.16798e-18
-2.166e-21
-2.13243e-19
6.44965e-22
1.14413e-05
-6.15929e-18
-2.21231e-21
-2.19838e-19
6.40522e-22
1.17933e-05
-6.15335e-18
-2.2607e-21
-2.25734e-19
6.36275e-22
1.2151e-05
-6.14645e-18
-2.31075e-21
-2.33116e-19
6.31874e-22
1.25146e-05
-6.1365e-18
-2.36247e-21
-2.39537e-19
6.27458e-22
1.28844e-05
-6.12926e-18
-2.41642e-21
-2.47266e-19
6.23032e-22
1.32606e-05
-6.11797e-18
-2.47193e-21
-2.53118e-19
6.18467e-22
1.36433e-05
-6.10849e-18
-2.52946e-21
-2.60366e-19
6.1356e-22
1.40329e-05
-6.09702e-18
-2.58905e-21
-2.67451e-19
6.08718e-22
1.44295e-05
-6.08515e-18
-2.65054e-21
-2.7071e-19
6.0316e-22
1.48332e-05
-6.07477e-18
-2.71416e-21
-2.77863e-19
5.96491e-22
1.52444e-05
-6.06513e-18
-2.78008e-21
-2.85234e-19
5.89898e-22
1.56633e-05
-6.05709e-18
-2.848e-21
-2.91294e-19
5.83598e-22
1.609e-05
-6.04674e-18
-2.91741e-21
-2.97333e-19
5.76896e-22
1.65248e-05
-6.03744e-18
-2.98796e-21
-3.04599e-19
5.69351e-22
1.69678e-05
-6.02801e-18
-3.05921e-21
-3.11866e-19
5.60934e-22
1.74194e-05
-6.01596e-18
-3.13118e-21
-3.20255e-19
5.51445e-22
1.78797e-05
-6.00798e-18
-3.20406e-21
-3.25549e-19
5.41025e-22
1.8349e-05
-6.00072e-18
-3.27772e-21
-3.33915e-19
5.29416e-22
1.88274e-05
-5.99174e-18
-3.35097e-21
-3.42943e-19
5.17121e-22
1.93153e-05
-5.97705e-18
-3.4237e-21
-3.51032e-19
5.03338e-22
1.98128e-05
-5.96305e-18
-3.49604e-21
-3.60968e-19
4.87532e-22
2.03202e-05
-5.95014e-18
-3.56774e-21
-3.69996e-19
4.69981e-22
2.08377e-05
-5.93806e-18
-3.63895e-21
-3.78384e-19
4.5073e-22
2.13656e-05
-5.92641e-18
-3.70858e-21
-3.9139e-19
4.28771e-22
2.19041e-05
-5.91107e-18
-3.77667e-21
-4.00363e-19
4.04564e-22
2.24534e-05
-5.89819e-18
-3.84503e-21
-4.11019e-19
3.79158e-22
2.30139e-05
-5.88335e-18
-3.91248e-21
-4.21914e-19
3.54222e-22
2.35857e-05
-5.87376e-18
-3.98133e-21
-4.29131e-19
3.29262e-22
2.41692e-05
-5.8589e-18
-4.05066e-21
-4.38231e-19
3.03782e-22
2.47646e-05
-5.8423e-18
-4.12061e-21
-4.48103e-19
2.79805e-22
2.53722e-05
-5.82748e-18
-4.1922e-21
-4.57695e-19
2.5496e-22
2.59922e-05
-5.80671e-18
-4.26269e-21
-4.66934e-19
2.27483e-22
2.6625e-05
-5.79283e-18
-4.33663e-21
-4.74612e-19
2.01323e-22
2.72708e-05
-5.77854e-18
-4.40982e-21
-4.81183e-19
1.74476e-22
2.79299e-05
-5.7606e-18
-4.48144e-21
-4.87738e-19
1.43935e-22
2.86026e-05
-5.73953e-18
-4.55325e-21
-4.97055e-19
1.11344e-22
2.92892e-05
-5.7217e-18
-4.6268e-21
-5.11284e-19
7.99517e-23
2.99901e-05
-5.70287e-18
-4.69891e-21
-5.23146e-19
4.77972e-23
3.07054e-05
-5.68588e-18
-4.77066e-21
-5.35837e-19
1.4598e-23
3.14357e-05
-5.66407e-18
-4.84088e-21
-5.56813e-19
-1.80434e-23
3.21811e-05
-5.66012e-18
-4.90998e-21
-5.72219e-19
-4.86204e-23
3.2942e-05
-5.6476e-18
-4.97041e-21
-5.86391e-19
-7.77324e-23
3.37188e-05
-5.62784e-18
-5.02573e-21
-6.03344e-19
-1.0728e-22
3.45118e-05
-5.60276e-18
-5.07786e-21
-6.21487e-19
-1.37469e-22
3.53213e-05
-5.5826e-18
-5.13237e-21
-6.42774e-19
-1.67242e-22
3.61478e-05
-5.56209e-18
-5.18444e-21
-6.59175e-19
-1.92982e-22
3.69915e-05
-5.54241e-18
-5.23491e-21
-6.55502e-19
-2.19444e-22
3.78529e-05
-5.53373e-18
-5.2868e-21
-6.54569e-19
-2.524e-22
3.87323e-05
-5.52215e-18
-5.33428e-21
-6.56973e-19
-2.85577e-22
3.96301e-05
-5.5063e-18
-5.37971e-21
-6.62866e-19
-3.18602e-22
4.05467e-05
-5.50498e-18
-5.43031e-21
-6.65975e-19
-3.47177e-22
4.14825e-05
-5.48486e-18
-5.47464e-21
-6.70899e-19
-3.72065e-22
4.2438e-05
-5.47423e-18
-5.5211e-21
-6.7324e-19
-3.95909e-22
4.34135e-05
-5.45547e-18
-5.56423e-21
-6.80627e-19
-4.15282e-22
4.44095e-05
-5.44046e-18
-5.60373e-21
-6.92704e-19
-4.30367e-22
4.54264e-05
-5.42113e-18
-5.6393e-21
-7.01429e-19
-4.44134e-22
4.64646e-05
-5.40165e-18
-5.669e-21
-7.05298e-19
-4.5155e-22
4.75247e-05
-5.3899e-18
-5.69649e-21
-7.10449e-19
-4.54806e-22
4.86071e-05
-5.36759e-18
-5.70777e-21
-7.2551e-19
-4.62952e-22
4.97122e-05
-5.33912e-18
-5.7174e-21
-7.33385e-19
-4.64827e-22
5.08405e-05
-5.32137e-18
-5.72491e-21
-7.471e-19
-4.61591e-22
5.19925e-05
-5.29668e-18
-5.72637e-21
-7.58679e-19
-4.51226e-22
5.31688e-05
-5.27418e-18
-5.72985e-21
-7.82288e-19
-4.43514e-22
5.43698e-05
-5.23864e-18
-5.73056e-21
-8.01455e-19
-4.25196e-22
5.55961e-05
-5.21029e-18
-5.75552e-21
-8.15982e-19
-3.90215e-22
5.68482e-05
-5.19821e-18
-5.78241e-21
-8.26716e-19
-3.36684e-22
5.81266e-05
-5.18283e-18
-5.81057e-21
-8.42331e-19
-2.74152e-22
5.94319e-05
-5.16977e-18
-5.83076e-21
-8.46735e-19
-2.00975e-22
6.07647e-05
-5.16345e-18
-5.83803e-21
-8.53709e-19
-1.27858e-22
6.21256e-05
-5.13304e-18
-5.83518e-21
-8.73229e-19
-3.32784e-23
6.3515e-05
-5.10577e-18
-5.83905e-21
-8.93261e-19
9.19854e-23
6.49337e-05
-5.06174e-18
-5.86355e-21
-9.21343e-19
2.57088e-22
6.63823e-05
-5.05218e-18
-5.95098e-21
-9.18457e-19
4.7983e-22
6.78613e-05
-5.03509e-18
-6.03515e-21
-9.0995e-19
7.172e-22
6.93714e-05
-5.01585e-18
-6.12439e-21
-9.21171e-19
9.55575e-22
7.09134e-05
-4.99565e-18
-6.20552e-21
-9.1465e-19
1.18576e-21
7.24877e-05
-4.98138e-18
-6.28864e-21
-9.19401e-19
1.39885e-21
7.40952e-05
-4.96271e-18
-6.37666e-21
-9.04331e-19
1.6215e-21
7.57364e-05
-4.93066e-18
-6.45291e-21
-9.10108e-19
1.8172e-21
7.74122e-05
-4.89337e-18
-6.55286e-21
-9.19957e-19
2.01935e-21
7.91233e-05
-4.87305e-18
-6.66067e-21
-9.38875e-19
2.20395e-21
8.08703e-05
-4.85159e-18
-6.73148e-21
-9.5884e-19
2.35754e-21
8.2654e-05
-4.83125e-18
-6.78518e-21
-9.82939e-19
2.47723e-21
8.44752e-05
-4.8163e-18
-6.82937e-21
-1.0031e-18
2.61446e-21
8.63347e-05
-4.7765e-18
-6.84334e-21
-1.0354e-18
2.73094e-21
8.82333e-05
-4.74255e-18
-6.87626e-21
-1.05382e-18
2.8248e-21
9.01718e-05
-4.69932e-18
-6.90411e-21
-1.07205e-18
2.86947e-21
9.2151e-05
-4.65636e-18
-6.93958e-21
-1.10935e-18
2.8825e-21
9.41718e-05
-4.63587e-18
-7.02885e-21
-1.12208e-18
2.93438e-21
9.62349e-05
-4.60027e-18
-7.12157e-21
-1.145e-18
2.95094e-21
9.83415e-05
-4.57042e-18
-7.22744e-21
-1.17091e-18
2.9145e-21
0.000100492
-4.55094e-18
-7.36042e-21
-1.18929e-18
2.85465e-21
0.000102688
-4.51394e-18
-7.49379e-21
-1.20946e-18
2.76913e-21
0.00010493
-4.48176e-18
-7.68853e-21
-1.23032e-18
2.65841e-21
0.000107219
-4.44812e-18
-7.89998e-21
-1.26951e-18
2.49036e-21
0.000109556
-4.41749e-18
-8.12744e-21
-1.31062e-18
2.30974e-21
0.000111942
-4.37908e-18
-8.39848e-21
-1.33228e-18
2.20389e-21
0.000114378
-4.34806e-18
-8.63515e-21
-1.34058e-18
2.0683e-21
0.000116865
-4.31731e-18
-8.8615e-21
-1.38077e-18
1.86179e-21
0.000119404
-4.26973e-18
-9.06137e-21
-1.42115e-18
1.67498e-21
0.000121997
-4.23568e-18
-9.2531e-21
-1.45526e-18
1.52642e-21
0.000124643
-4.18108e-18
-9.39844e-21
-1.48438e-18
1.32674e-21
0.000127345
-4.13138e-18
-9.48793e-21
-1.50439e-18
1.08247e-21
0.000130104
-4.04141e-18
-9.63414e-21
-1.55289e-18
8.97023e-22
0.00013292
-3.99894e-18
-9.99692e-21
-1.57296e-18
7.47947e-22
0.000135795
-3.96121e-18
-1.03475e-20
-1.61798e-18
5.9115e-22
0.000138731
-3.94429e-18
-1.06158e-20
-1.64609e-18
4.47238e-22
0.000141727
-3.87056e-18
-1.07091e-20
-1.65506e-18
1.79637e-22
0.000144787
-3.83353e-18
-1.09936e-20
-1.70277e-18
-1.95499e-22
0.00014791
-3.78321e-18
-1.12861e-20
-1.7313e-18
-4.75134e-22
0.000151098
-3.73199e-18
-1.14465e-20
-1.75636e-18
-7.56382e-22
0.000154353
-3.68533e-18
-1.15832e-20
-1.7419e-18
-1.11611e-21
0.000157676
-3.62698e-18
-1.17823e-20
-1.79244e-18
-1.77283e-21
0.000161069
-3.57822e-18
-1.20882e-20
-1.79402e-18
-2.31735e-21
0.000164532
-3.52759e-18
-1.24722e-20
-1.832e-18
-3.10127e-21
0.000168067
-3.4577e-18
-1.28562e-20
-1.84086e-18
-3.90427e-21
0.000171676
-3.41566e-18
-1.3462e-20
-1.84022e-18
-4.57514e-21
0.00017536
-3.37007e-18
-1.39804e-20
-1.84471e-18
-5.30461e-21
0.00017912
-3.32082e-18
-1.46116e-20
-1.83094e-18
-6.23602e-21
0.000182959
-3.28451e-18
-1.56367e-20
-1.86132e-18
-7.28838e-21
0.000186878
-3.25812e-18
-1.66633e-20
-1.88734e-18
-8.26142e-21
0.000190879
-3.20843e-18
-1.74695e-20
-1.92294e-18
-9.01085e-21
0.000194962
-3.17839e-18
-1.81497e-20
-1.93681e-18
-9.34962e-21
0.00019913
-3.13427e-18
-1.88171e-20
-1.94018e-18
-9.88315e-21
0.000203385
-3.04765e-18
-1.93599e-20
-1.98969e-18
-1.06587e-20
0.000207728
-2.99699e-18
-2.00366e-20
-1.99531e-18
-1.11158e-20
0.000212162
-2.9816e-18
-2.05739e-20
-1.98897e-18
-1.16066e-20
0.000216687
-2.89552e-18
-2.05834e-20
-1.97698e-18
-1.20961e-20
0.000221306
-2.86987e-18
-2.08533e-20
-1.95758e-18
-1.26688e-20
0.00022602
-2.80949e-18
-2.07882e-20
-1.94825e-18
-1.34447e-20
0.000230832
-2.78907e-18
-2.0982e-20
-1.92188e-18
-1.43002e-20
0.000235744
-2.80109e-18
-2.08869e-20
-1.90803e-18
-1.5271e-20
0.000240757
-2.80378e-18
-2.00699e-20
-1.8877e-18
-1.6327e-20
0.000245874
-2.75709e-18
-1.87847e-20
-1.97994e-18
-1.75909e-20
0.000251096
-2.62724e-18
-1.7334e-20
-1.98844e-18
-1.73686e-20
0.000256427
-2.54806e-18
-1.67281e-20
-2.06112e-18
-1.6648e-20
0.000261867
-2.511e-18
-1.66864e-20
-2.07144e-18
-1.52918e-20
0.000267419
-2.493e-18
-1.71138e-20
-2.08654e-18
-1.4008e-20
0.000273085
-2.43919e-18
-1.68424e-20
-2.11183e-18
-1.35437e-20
0.000278868
-2.44781e-18
-1.64156e-20
-2.15501e-18
-1.30771e-20
0.00028477
-2.35769e-18
-1.73986e-20
-2.12543e-18
-1.1729e-20
0.000290794
-2.3328e-18
-1.84733e-20
-2.14351e-18
-1.19254e-20
0.00029694
-2.35135e-18
-1.96249e-20
-2.10417e-18
-1.32875e-20
0.000303213
-2.31358e-18
-2.05636e-20
-2.12478e-18
-1.55932e-20
0.000309615
-2.32556e-18
-2.07438e-20
-2.13688e-18
-1.65442e-20
0.000316147
-2.23981e-18
-2.05774e-20
-2.18676e-18
-1.71602e-20
0.000322813
-2.19465e-18
-2.12576e-20
-2.18233e-18
-1.71745e-20
0.000329615
-2.15723e-18
-2.13378e-20
-2.2175e-18
-1.76175e-20
0.000336556
-2.16441e-18
-2.22923e-20
-2.2152e-18
-1.64288e-20
0.000343639
-2.1072e-18
-2.28252e-20
-2.19963e-18
-1.52107e-20
0.000350865
-2.17256e-18
-2.4963e-20
-2.11694e-18
-1.43749e-20
0.000358239
-2.25087e-18
-2.61619e-20
-2.17199e-18
-1.54504e-20
0.000365763
-2.16868e-18
-2.3877e-20
-2.04582e-18
-1.69001e-20
0.000373439
-2.09287e-18
-2.28215e-20
-2.02443e-18
-1.98071e-20
0.00038127
-2.0846e-18
-2.25614e-20
-2.04833e-18
-2.36728e-20
0.000389261
-2.08592e-18
-2.32443e-20
-1.92966e-18
-2.34224e-20
0.000397412
-2.05951e-18
-2.2314e-20
-1.94864e-18
-2.58258e-20
0.000405728
-1.98203e-18
-2.14018e-20
-1.93105e-18
-2.60541e-20
0.000414212
-1.92396e-18
-2.18175e-20
-1.88663e-18
-2.70126e-20
0.000422866
-1.85345e-18
-2.51777e-20
-1.80395e-18
-2.52138e-20
0.000431694
-1.7882e-18
-2.79058e-20
-1.80312e-18
-2.72227e-20
0.000440698
-1.72889e-18
-3.15305e-20
-1.79137e-18
-2.88497e-20
0.000449883
-1.65523e-18
-3.07677e-20
-1.68551e-18
-3.11633e-20
0.000459251
-1.63231e-18
-3.19653e-20
-1.61438e-18
-3.38978e-20
0.000468806
-1.56185e-18
-3.18194e-20
-1.58265e-18
-3.35008e-20
0.000478551
-1.50541e-18
-3.36433e-20
-1.575e-18
-3.0826e-20
0.000488489
-1.61921e-18
-3.31886e-20
-1.4607e-18
-2.75688e-20
0.000498623
-1.51396e-18
-3.07424e-20
-1.55624e-18
-2.95263e-20
0.000508958
-1.55188e-18
-3.33101e-20
-1.55161e-18
-3.08747e-20
0.000519496
-1.6011e-18
-3.62903e-20
-1.56455e-18
-3.19679e-20
0.00053024
-1.59037e-18
-3.4404e-20
-1.58121e-18
-3.05098e-20
0.000541195
-1.53826e-18
-2.86904e-20
-1.5181e-18
-2.51951e-20
0.000552363
-1.53574e-18
-2.66891e-20
-1.56697e-18
-2.60285e-20
0.000563748
-1.56248e-18
-3.03962e-20
-1.62705e-18
-2.13315e-20
0.000575354
-1.47265e-18
-2.78816e-20
-1.40433e-18
-1.22688e-20
0.000587183
-1.39875e-18
-3.20024e-20
-1.50553e-18
-1.63865e-20
0.000599239
-1.56106e-18
-3.62983e-20
-1.34032e-18
-1.48628e-20
0.000611526
-1.48392e-18
-3.10149e-20
-1.34514e-18
-2.04719e-20
0.000624047
-1.34987e-18
-2.8591e-20
-1.33751e-18
-1.99168e-20
0.000636804
-1.36932e-18
-3.25893e-20
-1.30077e-18
-2.30095e-20
0.000649802
-1.23736e-18
-3.73671e-20
-1.28099e-18
-2.85382e-20
0.000663042
-1.2425e-18
-4.6794e-20
-1.29556e-18
-3.49054e-20
0.000676529
-1.36995e-18
-5.54476e-20
-1.33944e-18
-3.64373e-20
0.000690265
-1.3831e-18
-4.5348e-20
-1.35977e-18
-3.32139e-20
0.000704252
-1.23027e-18
-3.32955e-20
-1.32065e-18
-2.95841e-20
0.000718493
-1.24312e-18
-3.61264e-20
-1.36092e-18
-2.69588e-20
0.000732991
-1.18429e-18
-3.3061e-20
-1.34985e-18
-2.74717e-20
0.000747747
-1.33406e-18
-3.55634e-20
-1.49254e-18
-3.46114e-20
0.000762764
-1.19309e-18
-1.57389e-20
-1.55144e-18
-2.53575e-20
0.000778042
-1.30303e-18
-2.98545e-20
-1.40322e-18
-6.79958e-21
0.000793583
-1.32725e-18
-3.19873e-20
-1.31531e-18
-1.06262e-20
0.000809388
-1.2836e-18
-2.3573e-20
-1.27194e-18
-9.99469e-21
0.000825456
-1.33207e-18
-2.5177e-20
-1.36751e-18
-1.06208e-20
0.000841788
-1.40845e-18
-3.54468e-20
-1.19543e-18
7.9333e-22
0.000858383
-1.34533e-18
-2.85913e-20
-1.04075e-18
-1.47917e-20
0.00087524
-1.33051e-18
-2.86658e-20
-1.11993e-18
-2.85327e-20
0.000892356
-1.14198e-18
-2.44491e-20
-1.06449e-18
-3.444e-20
0.000909729
-1.06316e-18
-2.89801e-20
-1.02029e-18
-3.62301e-20
0.000927354
-1.04902e-18
-2.26951e-20
-1.0453e-18
-3.56425e-20
0.000945229
-9.62964e-19
-1.43006e-20
-9.32103e-19
-2.58929e-20
0.000963346
-1.06549e-18
-2.717e-20
-9.4443e-19
-4.58173e-20
0.000981702
-1.05718e-18
-1.55537e-20
-1.00703e-18
-6.57203e-20
0.00100029
-8.16636e-19
6.18365e-21
-1.03384e-18
-6.03735e-20
0.0010191
1.09034e-20
-8.3819e-19
-3.85954e-20
-9.82257e-19
5.27302e-08
-3.40635e-22
4.75537e-23
1.62126e-07
-6.33895e-22
3.07046e-22
2.77627e-07
-9.43045e-22
5.75376e-22
3.995e-07
-1.23612e-21
8.47027e-22
5.2802e-07
-1.71293e-21
1.19153e-21
6.63472e-07
-2.16436e-21
1.55388e-21
8.06148e-07
-2.59893e-21
1.96752e-21
9.56343e-07
-3.23788e-21
2.4006e-21
1.11435e-06
-3.4863e-21
2.70478e-21
1.28045e-06
-4.49527e-21
3.54302e-21
1.45491e-06
-5.30152e-21
4.23511e-21
1.63793e-06
-6.01333e-21
4.82863e-21
1.82969e-06
-7.26974e-21
5.69766e-21
2.03027e-06
-9.17925e-21
6.66138e-21
2.23964e-06
-9.82642e-21
7.58517e-21
2.45765e-06
-1.07544e-20
7.7788e-21
2.68404e-06
-1.1971e-20
8.4287e-21
2.91837e-06
-1.25927e-20
8.21714e-21
3.16012e-06
-1.37439e-20
8.76017e-21
3.40863e-06
-1.51976e-20
9.75025e-21
3.6632e-06
-1.65466e-20
9.95192e-21
3.92312e-06
-1.79046e-20
1.15932e-20
4.18767e-06
-2.02957e-20
1.29574e-20
4.45623e-06
-2.25609e-20
1.39459e-20
4.72825e-06
-2.39018e-20
1.43602e-20
5.00327e-06
-2.57832e-20
1.55716e-20
5.28096e-06
-2.88284e-20
1.78263e-20
5.56109e-06
-3.15153e-20
1.89306e-20
5.84351e-06
-3.309e-20
1.90616e-20
6.12817e-06
-3.53778e-20
2.02757e-20
6.41509e-06
-3.83967e-20
2.23967e-20
6.70432e-06
-4.09643e-20
2.36018e-20
6.99598e-06
-4.32606e-20
2.45966e-20
7.29023e-06
-4.52687e-20
2.68273e-20
7.58722e-06
-4.85925e-20
2.80667e-20
7.88715e-06
-4.92378e-20
2.7033e-20
8.19022e-06
-4.78985e-20
2.65683e-20
8.49665e-06
-4.73848e-20
2.57342e-20
8.80664e-06
-4.81704e-20
2.83001e-20
9.12041e-06
-4.9337e-20
2.8334e-20
9.4382e-06
-5.04107e-20
2.7715e-20
9.76021e-06
-5.33593e-20
2.8621e-20
1.00867e-05
-5.15721e-20
2.69902e-20
1.04178e-05
-5.19853e-20
3.00018e-20
1.07538e-05
-5.27191e-20
3.01952e-20
1.10949e-05
-5.53559e-20
2.91125e-20
1.14413e-05
-5.96208e-20
3.17716e-20
1.17933e-05
-6.03062e-20
3.13443e-20
1.2151e-05
-6.13437e-20
3.22354e-20
1.25146e-05
-6.73101e-20
3.43233e-20
1.28844e-05
-6.8346e-20
3.53304e-20
1.32606e-05
-6.98187e-20
3.59931e-20
1.36433e-05
-7.38968e-20
3.85138e-20
1.40329e-05
-7.47422e-20
3.65408e-20
1.44295e-05
-7.66337e-20
3.5937e-20
1.48332e-05
-8.16365e-20
3.96286e-20
1.52444e-05
-8.46614e-20
4.36842e-20
1.56633e-05
-8.61477e-20
4.38156e-20
1.609e-05
-8.68301e-20
4.26678e-20
1.65248e-05
-8.81432e-20
4.21803e-20
1.69678e-05
-9.01751e-20
4.01769e-20
1.74194e-05
-9.1761e-20
3.73325e-20
1.78797e-05
-9.82304e-20
3.90258e-20
1.8349e-05
-1.004e-19
4.37732e-20
1.88274e-05
-1.0357e-19
4.10891e-20
1.93153e-05
-1.04567e-19
3.78723e-20
1.98128e-05
-1.05403e-19
3.50319e-20
2.03202e-05
-1.09012e-19
3.11544e-20
2.08377e-05
-1.08502e-19
2.52867e-20
2.13656e-05
-1.09036e-19
2.13374e-20
2.19041e-05
-1.14656e-19
1.99609e-20
2.24534e-05
-1.14598e-19
1.93094e-20
2.30139e-05
-1.22503e-19
1.78976e-20
2.35857e-05
-1.30095e-19
1.59343e-20
2.41692e-05
-1.32165e-19
1.89323e-20
2.47646e-05
-1.37896e-19
1.5581e-20
2.53722e-05
-1.35321e-19
4.85867e-21
2.59922e-05
-1.45866e-19
4.48547e-21
2.6625e-05
-1.47514e-19
4.61953e-21
2.72708e-05
-1.48286e-19
2.64883e-21
2.79299e-05
-1.51496e-19
1.16553e-21
2.86026e-05
-1.58412e-19
6.94714e-21
2.92892e-05
-1.58546e-19
4.86361e-21
2.99901e-05
-1.59148e-19
2.85223e-21
3.07054e-05
-1.57906e-19
5.94458e-21
3.14357e-05
-1.55957e-19
6.17051e-21
3.21811e-05
-1.51072e-19
8.85515e-21
3.2942e-05
-1.52726e-19
6.73544e-21
3.37188e-05
-1.54693e-19
9.64175e-22
3.45118e-05
-1.65323e-19
-4.07544e-22
3.53213e-05
-1.67024e-19
3.38379e-21
3.61478e-05
-1.68673e-19
-4.38616e-21
3.69915e-05
-1.76349e-19
-1.13487e-20
3.78529e-05
-1.80792e-19
-7.33023e-21
3.87323e-05
-1.84779e-19
-3.13998e-21
3.96301e-05
-1.98893e-19
2.22019e-21
4.05467e-05
-2.04921e-19
4.14057e-21
4.14825e-05
-2.09407e-19
6.50136e-23
4.2438e-05
-2.13565e-19
3.26061e-21
4.34135e-05
-2.11479e-19
2.40758e-21
4.44095e-05
-2.16914e-19
-5.99765e-21
4.54264e-05
-2.17608e-19
-8.30059e-21
4.64646e-05
-2.24676e-19
-8.89001e-21
4.75247e-05
-2.1876e-19
-1.6348e-20
4.86071e-05
-2.25763e-19
-1.75454e-20
4.97122e-05
-2.23711e-19
-1.95542e-20
5.08405e-05
-2.24913e-19
-1.67067e-20
5.19925e-05
-2.31051e-19
-2.11306e-20
5.31688e-05
-2.32707e-19
-2.85074e-20
5.43698e-05
-2.52966e-19
-2.75016e-20
5.55961e-05
-2.47579e-19
-1.684e-20
5.68482e-05
-2.53297e-19
-1.75843e-20
5.81266e-05
-2.47182e-19
-2.28002e-20
5.94319e-05
-2.43612e-19
-2.63422e-20
6.07647e-05
-2.45486e-19
-2.05001e-20
6.21256e-05
-2.30364e-19
-2.99717e-20
6.3515e-05
-2.26974e-19
-3.66714e-20
6.49337e-05
-2.48279e-19
-3.70547e-20
6.63823e-05
-2.4582e-19
-4.16679e-20
6.78613e-05
-2.46965e-19
-4.28407e-20
6.93714e-05
-2.38019e-19
-5.49114e-20
7.09134e-05
-2.41204e-19
-5.10719e-20
7.24877e-05
-2.52776e-19
-4.06437e-20
7.40952e-05
-2.49319e-19
-3.66375e-20
7.57364e-05
-2.62002e-19
-2.61266e-20
7.74122e-05
-2.56136e-19
-3.66161e-20
7.91233e-05
-2.35126e-19
-5.61898e-20
8.08703e-05
-2.29554e-19
-5.9727e-20
8.2654e-05
-2.32926e-19
-3.95751e-20
8.44752e-05
-2.28924e-19
-4.72651e-20
8.63347e-05
-2.29159e-19
-5.14858e-20
8.82333e-05
-2.23999e-19
-4.91473e-20
9.01718e-05
-2.20676e-19
-5.07924e-20
9.2151e-05
-2.41771e-19
-4.90487e-20
9.41718e-05
-2.57066e-19
-4.55243e-20
9.62349e-05
-2.62612e-19
-4.20287e-20
9.83415e-05
-2.80832e-19
-3.40743e-20
0.000100492
-2.9133e-19
-3.23517e-20
0.000102688
-3.09733e-19
-3.17958e-20
0.00010493
-3.17354e-19
-3.41782e-20
0.000107219
-3.18322e-19
-4.0583e-20
0.000109556
-3.30069e-19
-2.64354e-20
0.000111942
-3.08982e-19
-3.09516e-20
0.000114378
-3.07525e-19
-3.33052e-20
0.000116865
-3.07196e-19
-3.95746e-20
0.000119404
-3.06752e-19
-3.75843e-20
0.000121997
-3.10652e-19
-5.20357e-20
0.000124643
-2.90088e-19
-6.35576e-20
0.000127345
-3.09108e-19
-5.13357e-20
0.000130104
-3.3979e-19
-8.33938e-20
0.00013292
-3.45083e-19
-7.16682e-20
0.000135795
-3.25077e-19
-5.67188e-20
0.000138731
-3.04135e-19
-7.27367e-20
0.000141727
-3.1928e-19
-8.95384e-20
0.000144787
-3.33839e-19
-1.07374e-19
0.00014791
-3.13443e-19
-1.10922e-19
0.000151098
-3.04451e-19
-1.10774e-19
0.000154353
-3.09886e-19
-1.26975e-19
0.000157676
-3.15539e-19
-1.3547e-19
0.000161069
-3.26413e-19
-1.49167e-19
0.000164532
-3.19512e-19
-1.56189e-19
0.000168067
-3.25668e-19
-1.3534e-19
0.000171676
-2.98086e-19
-1.21288e-19
0.00017536
-3.00736e-19
-1.35005e-19
0.00017912
-3.43909e-19
-1.24808e-19
0.000182959
-3.44215e-19
-1.2341e-19
0.000186878
-3.31089e-19
-1.35422e-19
0.000190879
-3.22825e-19
-1.24854e-19
0.000194962
-3.57407e-19
-1.43519e-19
0.00019913
-3.55479e-19
-1.79957e-19
0.000203385
-3.48331e-19
-2.02034e-19
0.000207728
-3.41413e-19
-2.08372e-19
0.000212162
-3.12646e-19
-2.07996e-19
0.000216687
-3.21972e-19
-2.27247e-19
0.000221306
-3.33026e-19
-2.55411e-19
0.00022602
-3.74147e-19
-2.7239e-19
0.000230832
-3.90651e-19
-2.75518e-19
0.000235744
-3.818e-19
-2.90435e-19
0.000240757
-3.95134e-19
-3.00176e-19
0.000245874
-4.0009e-19
-2.57346e-19
0.000251096
-3.99973e-19
-2.21512e-19
0.000256427
-4.08316e-19
-2.66422e-19
0.000261867
-4.45514e-19
-2.88964e-19
0.000267419
-3.95977e-19
-3.18805e-19
0.000273085
-3.32017e-19
-3.39936e-19
0.000278868
-4.48311e-19
-3.47108e-19
0.00028477
-3.93108e-19
-4.10759e-19
0.000290794
-4.03015e-19
-4.69802e-19
0.00029694
-4.33334e-19
-5.03137e-19
0.000303213
-3.94657e-19
-4.59803e-19
0.000309615
-4.50155e-19
-4.70845e-19
0.000316147
-4.93909e-19
-5.01616e-19
0.000322813
-4.73851e-19
-5.34827e-19
0.000329615
-5.23488e-19
-4.85419e-19
0.000336556
-5.41273e-19
-5.07131e-19
0.000343639
-5.7816e-19
-5.6047e-19
0.000350865
-5.97483e-19
-5.79058e-19
0.000358239
-5.33481e-19
-6.18185e-19
0.000365763
-5.44277e-19
-5.34241e-19
0.000373439
-5.38901e-19
-5.88755e-19
0.00038127
-6.20263e-19
-5.25943e-19
0.000389261
-6.01078e-19
-5.80531e-19
0.000397412
-6.18881e-19
-5.56496e-19
0.000405728
-6.53624e-19
-6.38655e-19
0.000414212
-7.74561e-19
-5.59382e-19
0.000422866
-7.38515e-19
-6.39245e-19
0.000431694
-7.64595e-19
-6.29383e-19
0.000440698
-6.10013e-19
-6.98523e-19
0.000449883
-6.63858e-19
-7.11267e-19
0.000459251
-6.73077e-19
-6.68421e-19
0.000468806
-7.28017e-19
-6.47166e-19
0.000478551
-6.77741e-19
-6.58792e-19
0.000488489
-7.8075e-19
-6.90906e-19
0.000498623
-7.79663e-19
-7.01467e-19
0.000508958
-7.76913e-19
-6.74691e-19
0.000519496
-6.9136e-19
-7.24406e-19
0.00053024
-6.12395e-19
-6.99714e-19
0.000541195
-6.44899e-19
-7.67334e-19
0.000552363
-7.3499e-19
-6.70902e-19
0.000563748
-6.32624e-19
-5.74987e-19
0.000575354
-7.19983e-19
-6.08071e-19
0.000587183
-6.46494e-19
-6.51446e-19
0.000599239
-6.13426e-19
-6.40878e-19
0.000611526
-6.03608e-19
-4.98018e-19
0.000624047
-5.96995e-19
-5.60188e-19
0.000636804
-6.4887e-19
-5.4415e-19
0.000649802
-6.22301e-19
-6.00325e-19
0.000663042
-6.25171e-19
-6.12946e-19
0.000676529
-4.63657e-19
-5.0894e-19
0.000690265
-4.56694e-19
-5.10943e-19
0.000704252
-5.20159e-19
-5.18389e-19
0.000718493
-4.3832e-19
-5.55668e-19
0.000732991
-4.73722e-19
-6.27106e-19
0.000747747
-3.16e-19
-5.45092e-19
0.000762764
-5.33941e-19
-4.21145e-19
0.000778042
-5.07873e-19
-5.66391e-19
0.000793583
-4.77033e-19
-5.7392e-19
0.000809388
-5.63233e-19
-6.19671e-19
0.000825456
-7.19367e-19
-5.43234e-19
0.000841788
-6.62996e-19
-6.90642e-19
0.000858383
-7.23184e-19
-6.41847e-19
0.00087524
-6.96949e-19
-6.86751e-19
0.000892356
-6.38004e-19
-5.78412e-19
0.000909729
-5.7214e-19
-6.24613e-19
0.000927354
-6.0659e-19
-6.46079e-19
0.000945229
-6.92009e-19
-7.11251e-19
0.000963346
-6.4113e-19
-7.38047e-19
0.000981702
-6.60316e-19
-7.18403e-19
0.00100029
-5.97802e-19
-6.26912e-19
0.0010191
-7.32386e-19
-4.76489e-19
0.0010191
-8.40923e-19
2.23702e-21
-9.41145e-19
-8.41561e-23
0.00100029
-7.55868e-19
1.21877e-20
-7.00503e-19
2.49529e-20
0.000981702
-6.97008e-19
4.68549e-21
-5.50404e-19
2.18326e-20
0.000963346
-7.37766e-19
-5.31981e-21
-5.14695e-19
1.78233e-20
0.000945229
-7.02847e-19
1.06837e-20
-5.25506e-19
1.09541e-20
0.000927354
-5.10442e-19
-4.19942e-21
-5.8774e-19
3.43637e-21
0.000909729
-6.12638e-19
-2.4093e-20
-5.54312e-19
-1.65187e-20
0.000892356
-5.34651e-19
-4.51054e-21
-7.26434e-19
-3.33726e-20
0.00087524
-4.5629e-19
-2.40519e-21
-7.12017e-19
-1.74535e-20
0.000858383
-5.7387e-19
-1.17804e-20
-7.82945e-19
-1.22783e-20
0.000841788
-7.27574e-19
-1.64016e-20
-5.61513e-19
3.40327e-21
0.000825456
-7.26555e-19
-2.32763e-20
-5.62079e-19
-5.84618e-22
0.000809388
-6.41968e-19
-2.05369e-20
-6.38367e-19
-4.1876e-21
0.000793583
-6.42919e-19
-2.32886e-20
-6.29966e-19
9.19165e-21
0.000778042
-5.73977e-19
-1.72235e-20
-5.70321e-19
6.24685e-21
0.000762764
-6.05034e-19
-1.45838e-20
-5.63913e-19
5.63073e-21
0.000747747
-5.59916e-19
-9.19416e-21
-4.47019e-19
1.14155e-20
0.000732991
-5.55687e-19
-6.18147e-21
-5.31e-19
1.82381e-20
0.000718493
-4.98287e-19
9.80701e-21
-5.35243e-19
2.28814e-20
0.000704252
-4.14949e-19
2.55621e-20
-5.27175e-19
3.19915e-20
0.000690265
-4.93501e-19
2.48877e-20
-5.9057e-19
3.61696e-20
0.000676529
-3.80937e-19
2.18529e-20
-5.67955e-19
3.63981e-20
0.000663042
-4.3203e-19
1.99058e-20
-3.72959e-19
3.41919e-20
0.000649802
-4.0838e-19
2.6324e-20
-2.2912e-19
3.08058e-20
0.000636804
-4.53079e-19
2.12562e-20
-2.7076e-19
2.55097e-20
0.000624047
-3.09896e-19
2.19151e-20
-3.24566e-19
1.79374e-20
0.000611526
-3.07556e-19
1.3875e-20
-3.97532e-19
1.01169e-20
0.000599239
-2.91503e-19
6.5723e-21
-3.97748e-19
8.97917e-21
0.000587183
-3.7548e-19
1.80323e-21
-4.17075e-19
5.86611e-21
0.000575354
-4.64721e-19
-1.29317e-21
-3.92148e-19
3.91187e-21
0.000563748
-3.78637e-19
6.35552e-22
-4.03618e-19
-4.94629e-22
0.000552363
-4.30536e-19
3.50988e-21
-4.17551e-19
1.41357e-21
0.000541195
-3.86374e-19
6.62815e-21
-3.81849e-19
3.11655e-21
0.00053024
-4.49909e-19
-6.10095e-22
-4.35231e-19
1.59372e-21
0.000519496
-4.098e-19
1.75305e-21
-4.84075e-19
-2.04717e-21
0.000508958
-3.83431e-19
1.50781e-21
-4.55894e-19
-4.22159e-21
0.000498623
-4.32394e-19
1.01902e-21
-4.37635e-19
-5.7689e-21
0.000488489
-4.91038e-19
2.23998e-21
-4.2353e-19
-3.16245e-21
0.000478551
-4.87558e-19
3.87721e-21
-3.96472e-19
-1.32375e-21
0.000468806
-3.62781e-19
5.44585e-21
-3.77798e-19
-2.49539e-21
0.000459251
-2.8187e-19
4.34664e-21
-4.73086e-19
-2.70579e-21
0.000449883
-3.51111e-19
-2.19418e-22
-3.72692e-19
-2.29664e-22
0.000440698
-4.00677e-19
-1.78762e-21
-2.95103e-19
-1.55887e-21
0.000431694
-2.94439e-19
-3.26561e-22
-3.77604e-19
-3.31264e-21
0.000422866
-3.01154e-19
-3.63575e-21
-3.39947e-19
1.13665e-21
0.000414212
-2.76231e-19
-3.47837e-21
-3.4171e-19
7.8534e-22
0.000405728
-2.14317e-19
-4.66044e-21
-3.49604e-19
1.25197e-21
0.000397412
-2.97271e-19
-6.90667e-21
-2.81694e-19
3.06834e-21
0.000389261
-2.98819e-19
-5.23648e-21
-2.86605e-19
1.20478e-21
0.00038127
-2.83944e-19
-4.56881e-21
-3.02083e-19
-9.05165e-22
0.000373439
-2.74383e-19
-3.83266e-21
-2.77191e-19
-2.8804e-22
0.000365763
-2.68379e-19
-1.65417e-21
-2.27462e-19
-2.56039e-22
0.000358239
-2.28964e-19
-4.08308e-22
-2.15001e-19
1.4447e-22
0.000350866
-1.98766e-19
1.33418e-21
-2.39086e-19
-8.15226e-22
0.000343639
-1.78035e-19
2.57379e-22
-1.93027e-19
-1.71152e-21
0.000336556
-1.89471e-19
-3.68942e-22
-2.20528e-19
-9.25257e-22
0.000329615
-1.32767e-19
1.79503e-22
-1.8196e-19
1.24737e-21
0.000322813
-1.69257e-19
-6.93201e-22
-9.96544e-20
2.70309e-21
0.000316147
-1.45172e-19
-7.63224e-22
-8.87571e-20
2.24633e-21
0.000309615
-1.32155e-19
-6.92532e-22
-9.28304e-20
8.95544e-22
0.000303213
-1.27154e-19
-9.35726e-22
-1.34043e-19
-6.04632e-22
0.00029694
-1.2277e-19
-1.86255e-22
-1.36512e-19
-1.30151e-21
0.000290794
-1.71878e-19
5.33557e-22
-1.15436e-19
-1.71231e-21
0.00028477
-1.49918e-19
6.24108e-22
-9.83713e-20
-2.41211e-21
0.000278869
-1.57086e-19
7.31476e-22