/*--------------------------------*- C++ -*----------------------------------*\
| =========                 |                                                 |
| \\      /  F ield         | OpenFOAM: The Open Source CFD Toolbox           |
|  \\    /   O peration     | Version:  2106                                  |
|   \\  /    A nd           | Website:  www.openfoam.com                      |
|    \\/     M anipulation  |                                                 |
\*---------------------------------------------------------------------------*/
FoamFile
{
    version     2.0;
    format      ascii;
    arch        "LSB;label=32;scalar=64";
    class       volSymmTensorField;
    location    "10080";
    object      turbulenceProperties:R;
}
// * * * * * * * * * * * * * * * * * * * * * * * * * * * * * * * * * * * * * //

dimensions      [0 2 -2 0 0 0 0];

internalField   nonuniform List<symmTensor> 
2000
(
(7.06378e-07 -1.74581e-10 -3.23116e-13 7.06378e-07 7.80692e-26 7.06378e-07)
(7.06378e-07 -1.74581e-10 -3.23116e-13 7.06378e-07 9.26722e-29 7.06378e-07)
(1.4825e-07 -2.11066e-10 -1.1793e-12 1.4825e-07 2.43936e-26 1.4825e-07)
(1.4825e-07 -2.11066e-10 -1.1793e-12 1.4825e-07 1.65417e-28 1.4825e-07)
(3.55832e-07 -1.49993e-09 -1.16281e-11 3.55832e-07 8.15469e-26 3.55832e-07)
(3.55832e-07 -1.49993e-09 -1.16281e-11 3.55832e-07 1.5761e-27 3.55832e-07)
(1.22002e-06 -1.09487e-08 -8.64633e-11 1.22002e-06 1.46062e-24 1.22002e-06)
(1.22002e-06 -1.09487e-08 -8.64633e-11 1.22002e-06 1.63546e-26 1.22002e-06)
(3.19056e-06 -5.07111e-08 -4.07941e-10 3.19056e-06 1.23298e-24 3.19056e-06)
(3.19056e-06 -5.07111e-08 -4.07941e-10 3.19056e-06 8.87096e-26 3.19056e-06)
(6.86657e-06 -1.7244e-07 -1.41303e-09 6.86657e-06 2.86836e-24 6.86657e-06)
(6.86657e-06 -1.7244e-07 -1.41303e-09 6.86657e-06 3.37063e-25 6.86657e-06)
(1.29645e-05 -4.76345e-07 -3.97598e-09 1.29645e-05 7.04173e-24 1.29645e-05)
(1.29645e-05 -4.76345e-07 -3.97598e-09 1.29645e-05 1.03478e-24 1.29645e-05)
(2.23146e-05 -1.13507e-06 -9.65016e-09 2.23146e-05 1.8055e-23 2.23146e-05)
(2.23146e-05 -1.13507e-06 -9.65016e-09 2.23146e-05 2.74428e-24 2.23146e-05)
(3.58593e-05 -2.42175e-06 -2.097e-08 3.58593e-05 3.61085e-23 3.58593e-05)
(3.58593e-05 -2.42175e-06 -2.097e-08 3.58593e-05 6.40135e-24 3.58593e-05)
(5.46478e-05 -4.7402e-06 -4.18004e-08 5.46478e-05 6.41727e-23 5.46478e-05)
(5.46478e-05 -4.7402e-06 -4.18004e-08 5.46478e-05 1.36448e-23 5.46478e-05)
(7.98227e-05 -8.65338e-06 -7.77009e-08 7.98227e-05 1.00557e-22 7.98227e-05)
(7.98227e-05 -8.65338e-06 -7.77009e-08 7.98227e-05 2.73345e-23 7.98227e-05)
(0.000112596 -1.49036e-05 -1.36242e-07 0.000112596 1.34396e-22 0.000112596)
(0.000112596 -1.49036e-05 -1.36242e-07 0.000112596 5.20632e-23 0.000112596)
(0.000154207 -2.44153e-05 -2.2718e-07 0.000154207 1.35192e-22 0.000154207)
(0.000154207 -2.44153e-05 -2.2718e-07 0.000154207 9.17439e-23 0.000154207)
(0.000205868 -3.82705e-05 -3.62369e-07 0.000205868 3.74796e-23 0.000205868)
(0.000205868 -3.82705e-05 -3.62369e-07 0.000205868 1.52955e-22 0.000205868)
(0.000268681 -5.7647e-05 -5.55297e-07 0.000268681 -2.45176e-22 0.000268681)
(0.000268681 -5.7647e-05 -5.55297e-07 0.000268681 2.48979e-22 0.000268681)
(0.000343546 -8.37169e-05 -8.20167e-07 0.000343546 -9.86948e-22 0.000343546)
(0.000343546 -8.37169e-05 -8.20167e-07 0.000343546 4.05881e-22 0.000343546)
(0.000431065 -0.000117511 -1.17057e-06 0.000431065 -2.31913e-21 0.000431065)
(0.000431065 -0.000117511 -1.17057e-06 0.000431065 6.24041e-22 0.000431065)
(0.000531437 -0.000159769 -1.61788e-06 0.000531437 -4.53438e-21 0.000531437)
(0.000531437 -0.000159769 -1.61788e-06 0.000531437 8.94141e-22 0.000531437)
(0.0006444 -0.000210809 -2.16978e-06 0.0006444 -8.24009e-21 0.0006444)
(0.0006444 -0.000210809 -2.16978e-06 0.0006444 1.27678e-21 0.0006444)
(0.000769193 -0.000270441 -2.82908e-06 0.000769193 -1.18643e-20 0.000769193)
(0.000769193 -0.000270441 -2.82908e-06 0.000769193 1.79333e-21 0.000769193)
(0.00090458 -0.000337957 -3.5933e-06 0.00090458 -1.97384e-20 0.00090458)
(0.00090458 -0.000337957 -3.5933e-06 0.00090458 2.40208e-21 0.00090458)
(0.00104893 -0.000412198 -4.45499e-06 0.00104893 -2.71203e-20 0.00104893)
(0.00104893 -0.000412198 -4.45499e-06 0.00104893 3.11508e-21 0.00104893)
(0.00120032 -0.000491683 -5.40278e-06 0.00120032 -3.65349e-20 0.00120032)
(0.00120032 -0.000491683 -5.40278e-06 0.00120032 3.86989e-21 0.00120032)
(0.0013567 -0.00057477 -6.42273e-06 0.0013567 -4.71165e-20 0.0013567)
(0.0013567 -0.00057477 -6.42273e-06 0.0013567 4.45773e-21 0.0013567)
(0.00151597 -0.000659808 -7.49986e-06 0.00151597 -5.85842e-20 0.00151597)
(0.00151597 -0.000659808 -7.49986e-06 0.00151597 5.28254e-21 0.00151597)
(0.00167616 -0.000745273 -8.61946e-06 0.00167616 -7.06297e-20 0.00167616)
(0.00167616 -0.000745273 -8.61946e-06 0.00167616 6.32436e-21 0.00167616)
(0.00183551 -0.000829846 -9.76801e-06 0.00183551 -8.27226e-20 0.00183551)
(0.00183551 -0.000829846 -9.76801e-06 0.00183551 7.26897e-21 0.00183551)
(0.00199248 -0.00091246 -1.09339e-05 0.00199248 -9.46323e-20 0.00199248)
(0.00199248 -0.00091246 -1.09339e-05 0.00199248 8.94367e-21 0.00199248)
(0.00214583 -0.000992305 -1.21074e-05 0.00214583 -1.05885e-19 0.00214583)
(0.00214583 -0.000992305 -1.21074e-05 0.00214583 1.11624e-20 0.00214583)
(0.00229457 -0.00106881 -1.32811e-05 0.00229457 -1.1723e-19 0.00229457)
(0.00229457 -0.00106881 -1.32811e-05 0.00229457 1.29642e-20 0.00229457)
(0.00243798 -0.00114161 -1.44493e-05 0.00243798 -1.28323e-19 0.00243798)
(0.00243798 -0.00114161 -1.44493e-05 0.00243798 1.45508e-20 0.00243798)
(0.00257557 -0.00121051 -1.56082e-05 0.00257557 -1.38484e-19 0.00257557)
(0.00257557 -0.00121051 -1.56082e-05 0.00257557 1.66291e-20 0.00257557)
(0.00270703 -0.00127545 -1.6755e-05 0.00270703 -1.48463e-19 0.00270703)
(0.00270703 -0.00127545 -1.6755e-05 0.00270703 1.96676e-20 0.00270703)
(0.00283221 -0.00133646 -1.78884e-05 0.00283221 -1.58121e-19 0.00283221)
(0.00283221 -0.00133646 -1.78884e-05 0.00283221 2.20915e-20 0.00283221)
(0.00295109 -0.00139365 -1.90077e-05 0.00295109 -1.67049e-19 0.00295109)
(0.00295109 -0.00139365 -1.90077e-05 0.00295109 2.40814e-20 0.00295109)
(0.00306376 -0.00144717 -2.0113e-05 0.00306376 -1.75648e-19 0.00306376)
(0.00306376 -0.00144717 -2.0113e-05 0.00306376 2.80418e-20 0.00306376)
(0.00317035 -0.00149719 -2.12048e-05 0.00317035 -1.83496e-19 0.00317035)
(0.00317035 -0.00149719 -2.12048e-05 0.00317035 3.23626e-20 0.00317035)
(0.00327108 -0.00154393 -2.22839e-05 0.00327108 -1.93248e-19 0.00327108)
(0.00327108 -0.00154393 -2.22839e-05 0.00327108 3.79084e-20 0.00327108)
(0.00336616 -0.00158757 -2.33513e-05 0.00336616 -2.03749e-19 0.00336616)
(0.00336616 -0.00158757 -2.33513e-05 0.00336616 4.34825e-20 0.00336616)
(0.00345587 -0.00162833 -2.44084e-05 0.00345587 -2.13611e-19 0.00345587)
(0.00345587 -0.00162833 -2.44084e-05 0.00345587 4.48792e-20 0.00345587)
(0.00354047 -0.0016664 -2.54564e-05 0.00354047 -2.25007e-19 0.00354047)
(0.00354047 -0.0016664 -2.54564e-05 0.00354047 4.86758e-20 0.00354047)
(0.00362023 -0.00170198 -2.64966e-05 0.00362023 -2.3478e-19 0.00362023)
(0.00362023 -0.00170198 -2.64966e-05 0.00362023 5.8194e-20 0.00362023)
(0.00369542 -0.00173524 -2.75305e-05 0.00369542 -2.45592e-19 0.00369542)
(0.00369542 -0.00173524 -2.75305e-05 0.00369542 6.74111e-20 0.00369542)
(0.00376631 -0.00176636 -2.85592e-05 0.00376631 -2.57118e-19 0.00376631)
(0.00376631 -0.00176636 -2.85592e-05 0.00376631 7.21127e-20 0.00376631)
(0.00383315 -0.00179548 -2.95843e-05 0.00383315 -2.67908e-19 0.00383315)
(0.00383315 -0.00179548 -2.95843e-05 0.00383315 7.675e-20 0.00383315)
(0.00389619 -0.00182277 -3.06068e-05 0.00389619 -2.79826e-19 0.00389619)
(0.00389619 -0.00182277 -3.06068e-05 0.00389619 8.72761e-20 0.00389619)
(0.00395567 -0.00184835 -3.16281e-05 0.00395567 -2.92973e-19 0.00395567)
(0.00395567 -0.00184835 -3.16281e-05 0.00395567 9.49983e-20 0.00395567)
(0.00401179 -0.00187234 -3.26493e-05 0.00401179 -3.09582e-19 0.00401179)
(0.00401179 -0.00187234 -3.26493e-05 0.00401179 8.69698e-20 0.00401179)
(0.00406479 -0.00189487 -3.36714e-05 0.00406479 -3.21444e-19 0.00406479)
(0.00406479 -0.00189487 -3.36714e-05 0.00406479 9.91809e-20 0.00406479)
(0.00411483 -0.00191604 -3.46956e-05 0.00411483 -3.29536e-19 0.00411483)
(0.00411483 -0.00191604 -3.46956e-05 0.00411483 1.22439e-19 0.00411483)
(0.00416212 -0.00193595 -3.57229e-05 0.00416212 -3.3909e-19 0.00416212)
(0.00416212 -0.00193595 -3.57229e-05 0.00416212 1.31644e-19 0.00416212)
(0.00420682 -0.00195468 -3.67542e-05 0.00420682 -3.51551e-19 0.00420682)
(0.00420682 -0.00195468 -3.67542e-05 0.00420682 1.37201e-19 0.00420682)
(0.00424909 -0.00197232 -3.77904e-05 0.00424909 -3.64608e-19 0.00424909)
(0.00424909 -0.00197232 -3.77904e-05 0.00424909 1.49123e-19 0.00424909)
(0.00428909 -0.00198894 -3.88325e-05 0.00428909 -3.74942e-19 0.00428909)
(0.00428909 -0.00198894 -3.88325e-05 0.00428909 1.59137e-19 0.00428909)
(0.00432694 -0.00200461 -3.98811e-05 0.00432694 -3.89213e-19 0.00432694)
(0.00432694 -0.00200461 -3.98811e-05 0.00432694 1.86801e-19 0.00432694)
(0.00436277 -0.0020194 -4.09373e-05 0.00436277 -4.06011e-19 0.00436277)
(0.00436277 -0.0020194 -4.09373e-05 0.00436277 1.88676e-19 0.00436277)
(0.00439672 -0.00203336 -4.20016e-05 0.00439672 -4.24718e-19 0.00439672)
(0.00439672 -0.00203336 -4.20016e-05 0.00439672 1.83581e-19 0.00439672)
(0.00442888 -0.00204654 -4.30748e-05 0.00442888 -4.4393e-19 0.00442888)
(0.00442888 -0.00204654 -4.30748e-05 0.00442888 1.98426e-19 0.00442888)
(0.00445936 -0.00205901 -4.41577e-05 0.00445936 -4.59821e-19 0.00445936)
(0.00445936 -0.00205901 -4.41577e-05 0.00445936 2.43767e-19 0.00445936)
(0.00448826 -0.00207079 -4.52509e-05 0.00448826 -4.70797e-19 0.00448826)
(0.00448826 -0.00207079 -4.52509e-05 0.00448826 2.84487e-19 0.00448826)
(0.00451567 -0.00208193 -4.6355e-05 0.00451567 -4.88761e-19 0.00451567)
(0.00451567 -0.00208193 -4.6355e-05 0.00451567 2.6397e-19 0.00451567)
(0.00454167 -0.00209248 -4.74707e-05 0.00454167 -5.0025e-19 0.00454167)
(0.00454167 -0.00209248 -4.74707e-05 0.00454167 2.60412e-19 0.00454167)
(0.00456634 -0.00210246 -4.85986e-05 0.00456634 -5.1662e-19 0.00456634)
(0.00456634 -0.00210246 -4.85986e-05 0.00456634 2.70002e-19 0.00456634)
(0.00458975 -0.00211191 -4.97392e-05 0.00458975 -5.29532e-19 0.00458975)
(0.00458975 -0.00211191 -4.97392e-05 0.00458975 3.25597e-19 0.00458975)
(0.00461196 -0.00212085 -5.08933e-05 0.00461196 -5.34071e-19 0.00461196)
(0.00461196 -0.00212085 -5.08933e-05 0.00461196 3.40622e-19 0.00461196)
(0.00463305 -0.00212933 -5.20612e-05 0.00463305 -5.31551e-19 0.00463305)
(0.00463305 -0.00212933 -5.20612e-05 0.00463305 3.45734e-19 0.00463305)
(0.00465306 -0.00213736 -5.32435e-05 0.00465306 -5.25051e-19 0.00465306)
(0.00465306 -0.00213736 -5.32435e-05 0.00465306 3.86631e-19 0.00465306)
(0.00467205 -0.00214496 -5.44408e-05 0.00467205 -5.47e-19 0.00467205)
(0.00467205 -0.00214496 -5.44408e-05 0.00467205 4.16461e-19 0.00467205)
(0.00469008 -0.00215216 -5.56537e-05 0.00469008 -5.62673e-19 0.00469008)
(0.00469008 -0.00215216 -5.56537e-05 0.00469008 4.40245e-19 0.00469008)
(0.00470719 -0.00215898 -5.68825e-05 0.00470719 -5.75942e-19 0.00470719)
(0.00470719 -0.00215898 -5.68825e-05 0.00470719 4.46364e-19 0.00470719)
(0.00472342 -0.00216544 -5.81278e-05 0.00472342 -5.85065e-19 0.00472342)
(0.00472342 -0.00216544 -5.81278e-05 0.00472342 4.71149e-19 0.00472342)
(0.00473881 -0.00217156 -5.93901e-05 0.00473881 -5.96293e-19 0.00473881)
(0.00473881 -0.00217156 -5.93901e-05 0.00473881 5.32984e-19 0.00473881)
(0.00475341 -0.00217735 -6.06699e-05 0.00475341 -6.26056e-19 0.00475341)
(0.00475341 -0.00217735 -6.06699e-05 0.00475341 6.36688e-19 0.00475341)
(0.00476724 -0.00218283 -6.19677e-05 0.00476724 -6.47281e-19 0.00476724)
(0.00476724 -0.00218283 -6.19677e-05 0.00476724 7.17895e-19 0.00476724)
(0.00478035 -0.00218801 -6.32838e-05 0.00478035 -6.70129e-19 0.00478035)
(0.00478035 -0.00218801 -6.32838e-05 0.00478035 6.78929e-19 0.00478035)
(0.00479276 -0.0021929 -6.46189e-05 0.00479276 -6.96072e-19 0.00479276)
(0.00479276 -0.0021929 -6.46189e-05 0.00479276 6.47289e-19 0.00479276)
(0.0048045 -0.00219752 -6.59734e-05 0.0048045 -7.15866e-19 0.0048045)
(0.0048045 -0.00219752 -6.59734e-05 0.0048045 7.24703e-19 0.0048045)
(0.0048156 -0.00220188 -6.73476e-05 0.0048156 -7.54943e-19 0.0048156)
(0.0048156 -0.00220188 -6.73476e-05 0.0048156 7.94177e-19 0.0048156)
(0.00482609 -0.00220599 -6.87421e-05 0.00482609 -7.89844e-19 0.00482609)
(0.00482609 -0.00220599 -6.87421e-05 0.00482609 8.91182e-19 0.00482609)
(0.00483599 -0.00220986 -7.01574e-05 0.00483599 -8.26601e-19 0.00483599)
(0.00483599 -0.00220986 -7.01574e-05 0.00483599 9.07731e-19 0.00483599)
(0.00484532 -0.00221351 -7.15938e-05 0.00484532 -8.56693e-19 0.00484532)
(0.00484532 -0.00221351 -7.15938e-05 0.00484532 9.46416e-19 0.00484532)
(0.0048541 -0.00221692 -7.30518e-05 0.0048541 -8.75025e-19 0.0048541)
(0.0048541 -0.00221692 -7.30518e-05 0.0048541 9.42472e-19 0.0048541)
(0.00486236 -0.00222013 -7.45319e-05 0.00486236 -8.99129e-19 0.00486236)
(0.00486236 -0.00222013 -7.45319e-05 0.00486236 1.11107e-18 0.00486236)
(0.0048701 -0.00222312 -7.60345e-05 0.0048701 -9.42479e-19 0.0048701)
(0.0048701 -0.00222312 -7.60345e-05 0.0048701 1.10896e-18 0.0048701)
(0.00487736 -0.00222592 -7.756e-05 0.00487736 -9.97006e-19 0.00487736)
(0.00487736 -0.00222592 -7.756e-05 0.00487736 1.02144e-18 0.00487736)
(0.00488414 -0.00222853 -7.91089e-05 0.00488414 -1.02248e-18 0.00488414)
(0.00488414 -0.00222853 -7.91089e-05 0.00488414 1.0457e-18 0.00488414)
(0.00489046 -0.00223094 -8.06816e-05 0.00489046 -1.11856e-18 0.00489046)
(0.00489046 -0.00223094 -8.06816e-05 0.00489046 1.22863e-18 0.00489046)
(0.00489634 -0.00223318 -8.22786e-05 0.00489634 -1.21818e-18 0.00489634)
(0.00489634 -0.00223318 -8.22786e-05 0.00489634 1.29242e-18 0.00489634)
(0.00490178 -0.00223524 -8.39002e-05 0.00490178 -1.16609e-18 0.00490178)
(0.00490178 -0.00223524 -8.39002e-05 0.00490178 1.24586e-18 0.00490178)
(0.0049068 -0.00223713 -8.5547e-05 0.0049068 -1.13582e-18 0.0049068)
(0.0049068 -0.00223713 -8.5547e-05 0.0049068 1.3704e-18 0.0049068)
(0.00491142 -0.00223886 -8.72193e-05 0.00491142 -1.21112e-18 0.00491142)
(0.00491142 -0.00223886 -8.72193e-05 0.00491142 1.48837e-18 0.00491142)
(0.00491564 -0.00224042 -8.89176e-05 0.00491564 -1.29137e-18 0.00491564)
(0.00491564 -0.00224042 -8.89176e-05 0.00491564 1.59127e-18 0.00491564)
(0.00491947 -0.00224183 -9.06423e-05 0.00491947 -1.38049e-18 0.00491947)
(0.00491947 -0.00224183 -9.06423e-05 0.00491947 1.92024e-18 0.00491947)
(0.00492292 -0.00224308 -9.23939e-05 0.00492292 -1.50394e-18 0.00492292)
(0.00492292 -0.00224308 -9.23939e-05 0.00492292 2.0412e-18 0.00492292)
(0.00492601 -0.00224418 -9.41727e-05 0.00492601 -1.55978e-18 0.00492601)
(0.00492601 -0.00224418 -9.41727e-05 0.00492601 1.90086e-18 0.00492601)
(0.00492874 -0.00224513 -9.59793e-05 0.00492874 -1.6097e-18 0.00492874)
(0.00492874 -0.00224513 -9.59793e-05 0.00492874 1.93265e-18 0.00492874)
(0.00493112 -0.00224594 -9.7814e-05 0.00493112 -1.68933e-18 0.00493112)
(0.00493112 -0.00224594 -9.7814e-05 0.00493112 2.09666e-18 0.00493112)
(0.00493315 -0.00224661 -9.96772e-05 0.00493315 -1.71475e-18 0.00493315)
(0.00493315 -0.00224661 -9.96772e-05 0.00493315 2.21817e-18 0.00493315)
(0.00493485 -0.00224713 -0.000101569 0.00493485 -1.72376e-18 0.00493485)
(0.00493485 -0.00224713 -0.000101569 0.00493485 2.29955e-18 0.00493485)
(0.00493621 -0.00224753 -0.000103491 0.00493621 -1.80107e-18 0.00493621)
(0.00493621 -0.00224753 -0.000103491 0.00493621 2.28217e-18 0.00493621)
(0.00493726 -0.00224778 -0.000105443 0.00493726 -1.86102e-18 0.00493726)
(0.00493726 -0.00224778 -0.000105443 0.00493726 2.16822e-18 0.00493726)
(0.00493798 -0.00224791 -0.000107424 0.00493798 -1.89086e-18 0.00493798)
(0.00493798 -0.00224791 -0.000107424 0.00493798 2.4182e-18 0.00493798)
(0.00493839 -0.0022479 -0.000109437 0.00493839 -1.95015e-18 0.00493839)
(0.00493839 -0.0022479 -0.000109437 0.00493839 2.85646e-18 0.00493839)
(0.00493849 -0.00224776 -0.00011148 0.00493849 -2.06662e-18 0.00493849)
(0.00493849 -0.00224776 -0.00011148 0.00493849 2.8517e-18 0.00493849)
(0.00493828 -0.0022475 -0.000113555 0.00493828 -2.09951e-18 0.00493828)
(0.00493828 -0.0022475 -0.000113555 0.00493828 2.63012e-18 0.00493828)
(0.00493777 -0.00224711 -0.000115662 0.00493777 -2.10521e-18 0.00493777)
(0.00493777 -0.00224711 -0.000115662 0.00493777 2.67758e-18 0.00493777)
(0.00493697 -0.0022466 -0.000117801 0.00493697 -2.23789e-18 0.00493697)
(0.00493697 -0.0022466 -0.000117801 0.00493697 2.98801e-18 0.00493697)
(0.00493588 -0.00224596 -0.000119973 0.00493588 -2.36435e-18 0.00493588)
(0.00493588 -0.00224596 -0.000119973 0.00493588 3.33865e-18 0.00493588)
(0.00493449 -0.00224519 -0.000122178 0.00493449 -2.41292e-18 0.00493449)
(0.00493449 -0.00224519 -0.000122178 0.00493449 3.30952e-18 0.00493449)
(0.00493282 -0.00224431 -0.000124417 0.00493282 -2.42991e-18 0.00493282)
(0.00493282 -0.00224431 -0.000124417 0.00493282 3.27486e-18 0.00493282)
(0.00493086 -0.0022433 -0.00012669 0.00493086 -2.51963e-18 0.00493086)
(0.00493086 -0.0022433 -0.00012669 0.00493086 3.37188e-18 0.00493086)
(0.00492862 -0.00224218 -0.000128997 0.00492862 -2.90537e-18 0.00492862)
(0.00492862 -0.00224218 -0.000128997 0.00492862 3.45514e-18 0.00492862)
(0.0049261 -0.00224093 -0.000131339 0.0049261 -2.04061e-18 0.0049261)
(0.0049261 -0.00224093 -0.000131339 0.0049261 3.77482e-18 0.0049261)
(0.00492331 -0.00223956 -0.000133715 0.00492331 2.8188e-19 0.00492331)
(0.00492331 -0.00223956 -0.000133715 0.00492331 4.32971e-18 0.00492331)
(0.00492023 -0.00223807 -0.000136128 0.00492023 2.40649e-18 0.00492023)
(0.00492023 -0.00223807 -0.000136128 0.00492023 4.54527e-18 0.00492023)
(0.00491688 -0.00223647 -0.000138576 0.00491688 2.80956e-18 0.00491688)
(0.00491688 -0.00223647 -0.000138576 0.00491688 4.44306e-18 0.00491688)
(0.00491326 -0.00223474 -0.00014106 0.00491326 3.52471e-18 0.00491326)
(0.00491326 -0.00223474 -0.00014106 0.00491326 4.76556e-18 0.00491326)
(0.00490937 -0.00223289 -0.000143581 0.00490937 4.43745e-18 0.00490937)
(0.00490937 -0.00223289 -0.000143581 0.00490937 4.75425e-18 0.00490937)
(0.0049052 -0.00223093 -0.000146139 0.0049052 4.91044e-18 0.0049052)
(0.0049052 -0.00223093 -0.000146139 0.0049052 4.99737e-18 0.0049052)
(0.00490077 -0.00222884 -0.000148734 0.00490077 5.17443e-18 0.00490077)
(0.00490077 -0.00222884 -0.000148734 0.00490077 5.02529e-18 0.00490077)
(0.00489606 -0.00222664 -0.000151367 0.00489606 5.10046e-18 0.00489606)
(0.00489606 -0.00222664 -0.000151367 0.00489606 5.10558e-18 0.00489606)
(0.00489108 -0.00222431 -0.000154038 0.00489108 5.13329e-18 0.00489108)
(0.00489108 -0.00222431 -0.000154038 0.00489108 5.59494e-18 0.00489108)
(0.00488583 -0.00222186 -0.000156747 0.00488583 5.7326e-18 0.00488583)
(0.00488583 -0.00222186 -0.000156747 0.00488583 6.14628e-18 0.00488583)
(0.00488032 -0.00221929 -0.000159495 0.00488032 6.43653e-18 0.00488032)
(0.00488032 -0.00221929 -0.000159495 0.00488032 6.39532e-18 0.00488032)
(0.00487453 -0.0022166 -0.000162281 0.00487453 6.91832e-18 0.00487453)
(0.00487453 -0.0022166 -0.000162281 0.00487453 5.61869e-18 0.00487453)
(0.00486847 -0.00221379 -0.000165107 0.00486847 6.88463e-18 0.00486847)
(0.00486847 -0.00221379 -0.000165107 0.00486847 5.77258e-18 0.00486847)
(0.00486214 -0.00221085 -0.000167972 0.00486214 6.6328e-18 0.00486214)
(0.00486214 -0.00221085 -0.000167972 0.00486214 6.40335e-18 0.00486214)
(0.00485554 -0.00220779 -0.000170876 0.00485554 6.98834e-18 0.00485554)
(0.00485554 -0.00220779 -0.000170876 0.00485554 7.06232e-18 0.00485554)
(0.00484867 -0.00220461 -0.000173821 0.00484867 7.80089e-18 0.00484867)
(0.00484867 -0.00220461 -0.000173821 0.00484867 6.43108e-18 0.00484867)
(0.00484152 -0.0022013 -0.000176805 0.00484152 7.76702e-18 0.00484152)
(0.00484152 -0.0022013 -0.000176805 0.00484152 6.09467e-18 0.00484152)
(0.0048341 -0.00219786 -0.00017983 0.0048341 7.95297e-18 0.0048341)
(0.0048341 -0.00219786 -0.00017983 0.0048341 7.03113e-18 0.0048341)
(0.00482641 -0.0021943 -0.000182896 0.00482641 8.97249e-18 0.00482641)
(0.00482641 -0.0021943 -0.000182896 0.00482641 8.50749e-18 0.00482641)
(0.00481844 -0.0021906 -0.000186002 0.00481844 1.02751e-17 0.00481844)
(0.00481844 -0.0021906 -0.000186002 0.00481844 7.59987e-18 0.00481844)
(0.00481019 -0.00218678 -0.000189149 0.00481019 9.94582e-18 0.00481019)
(0.00481019 -0.00218678 -0.000189149 0.00481019 6.83585e-18 0.00481019)
(0.00480166 -0.00218283 -0.000192336 0.00480166 8.9957e-18 0.00480166)
(0.00480166 -0.00218283 -0.000192336 0.00480166 7.89581e-18 0.00480166)
(0.00479285 -0.00217874 -0.000195565 0.00479285 1.03049e-17 0.00479285)
(0.00479285 -0.00217874 -0.000195565 0.00479285 9.74713e-18 0.00479285)
(0.00478376 -0.00217452 -0.000198835 0.00478376 1.14824e-17 0.00478376)
(0.00478376 -0.00217452 -0.000198835 0.00478376 9.16211e-18 0.00478376)
(0.00477438 -0.00217016 -0.000202146 0.00477438 1.1487e-17 0.00477438)
(0.00477438 -0.00217016 -0.000202146 0.00477438 9.33006e-18 0.00477438)
(0.00476472 -0.00216567 -0.000205498 0.00476472 1.25122e-17 0.00476472)
(0.00476472 -0.00216567 -0.000205498 0.00476472 1.09668e-17 0.00476472)
(0.00475477 -0.00216104 -0.000208891 0.00475477 1.4493e-17 0.00475477)
(0.00475477 -0.00216104 -0.000208891 0.00475477 1.16832e-17 0.00475477)
(0.00474453 -0.00215627 -0.000212326 0.00474453 1.47176e-17 0.00474453)
(0.00474453 -0.00215627 -0.000212326 0.00474453 9.3628e-18 0.00474453)
(0.00473399 -0.00215136 -0.000215801 0.00473399 1.39448e-17 0.00473399)
(0.00473399 -0.00215136 -0.000215801 0.00473399 8.58655e-18 0.00473399)
(0.00472316 -0.0021463 -0.000219318 0.00472316 1.45465e-17 0.00472316)
(0.00472316 -0.0021463 -0.000219318 0.00472316 1.19556e-17 0.00472316)
(0.00471204 -0.0021411 -0.000222875 0.00471204 1.63415e-17 0.00471204)
(0.00471204 -0.0021411 -0.000222875 0.00471204 1.30558e-17 0.00471204)
(0.00470061 -0.00213575 -0.000226473 0.00470061 8.45084e-18 0.00470061)
(0.00470061 -0.00213575 -0.000226473 0.00470061 1.11067e-17 0.00470061)
(0.00468888 -0.00213026 -0.000230111 0.00468888 1.35965e-18 0.00468888)
(0.00468888 -0.00213026 -0.000230111 0.00468888 1.10495e-17 0.00468888)
(0.00467684 -0.00212462 -0.000233789 0.00467684 -1.29373e-18 0.00467684)
(0.00467684 -0.00212462 -0.000233789 0.00467684 1.35159e-17 0.00467684)
(0.0046645 -0.00211882 -0.000237508 0.0046645 -1.5965e-18 0.0046645)
(0.0046645 -0.00211882 -0.000237508 0.0046645 1.42262e-17 0.0046645)
(0.00465184 -0.00211287 -0.000241265 0.00465184 -1.47182e-18 0.00465184)
(0.00465184 -0.00211287 -0.000241265 0.00465184 1.20231e-17 0.00465184)
(0.00463887 -0.00210676 -0.000245062 0.00463887 -7.1963e-20 0.00463887)
(0.00463887 -0.00210676 -0.000245062 0.00463887 1.06614e-17 0.00463887)
(0.00462558 -0.00210049 -0.000248898 0.00462558 8.17722e-19 0.00462558)
(0.00462558 -0.00210049 -0.000248898 0.00462558 1.0712e-17 0.00462558)
(0.00461197 -0.00209407 -0.000252772 0.00461197 -2.85154e-19 0.00461197)
(0.00461197 -0.00209407 -0.000252772 0.00461197 1.60076e-17 0.00461197)
(0.00459804 -0.00208748 -0.000256683 0.00459804 -9.09953e-19 0.00459804)
(0.00459804 -0.00208748 -0.000256683 0.00459804 1.77787e-17 0.00459804)
(0.00458377 -0.00208072 -0.000260631 0.00458377 -6.30999e-19 0.00458377)
(0.00458377 -0.00208072 -0.000260631 0.00458377 2.07257e-17 0.00458377)
(0.00456918 -0.0020738 -0.000264616 0.00456918 -2.72958e-18 0.00456918)
(0.00456918 -0.0020738 -0.000264616 0.00456918 2.15303e-17 0.00456918)
(0.00455425 -0.00206671 -0.000268636 0.00455425 -2.02571e-18 0.00455425)
(0.00455425 -0.00206671 -0.000268636 0.00455425 2.18737e-17 0.00455425)
(0.00453898 -0.00205944 -0.000272691 0.00453898 1.73255e-18 0.00453898)
(0.00453898 -0.00205944 -0.000272691 0.00453898 2.25289e-17 0.00453898)
(0.00452337 -0.002052 -0.00027678 0.00452337 1.58656e-18 0.00452337)
(0.00452337 -0.002052 -0.00027678 0.00452337 2.46391e-17 0.00452337)
(0.00450741 -0.00204439 -0.000280902 0.00450741 2.49741e-18 0.00450741)
(0.00450741 -0.00204439 -0.000280902 0.00450741 2.63817e-17 0.00450741)
(0.0044911 -0.00203659 -0.000285056 0.0044911 3.54112e-18 0.0044911)
(0.0044911 -0.00203659 -0.000285056 0.0044911 2.70937e-17 0.0044911)
(0.00447443 -0.00202861 -0.00028924 0.00447443 3.66654e-18 0.00447443)
(0.00447443 -0.00202861 -0.00028924 0.00447443 2.87169e-17 0.00447443)
(0.0044574 -0.00202044 -0.000293454 0.0044574 5.098e-18 0.0044574)
(0.0044574 -0.00202044 -0.000293454 0.0044574 2.90731e-17 0.0044574)
(0.00444001 -0.00201208 -0.000297697 0.00444001 5.10084e-18 0.00444001)
(0.00444001 -0.00201208 -0.000297697 0.00444001 2.84498e-17 0.00444001)
(0.00442226 -0.00200354 -0.000301966 0.00442226 4.8933e-18 0.00442226)
(0.00442226 -0.00200354 -0.000301966 0.00442226 2.94785e-17 0.00442226)
(0.00440412 -0.00199479 -0.000306261 0.00440412 6.96492e-18 0.00440412)
(0.00440412 -0.00199479 -0.000306261 0.00440412 3.09078e-17 0.00440412)
(0.00438561 -0.00198585 -0.000310579 0.00438561 7.67478e-18 0.00438561)
(0.00438561 -0.00198585 -0.000310579 0.00438561 3.13365e-17 0.00438561)
(0.00436672 -0.00197671 -0.00031492 0.00436672 6.45392e-18 0.00436672)
(0.00436672 -0.00197671 -0.00031492 0.00436672 3.08066e-17 0.00436672)
(0.00434744 -0.00196737 -0.000319282 0.00434744 5.28015e-18 0.00434744)
(0.00434744 -0.00196737 -0.000319282 0.00434744 2.8861e-17 0.00434744)
(0.00432777 -0.00195782 -0.000323661 0.00432777 4.49555e-18 0.00432777)
(0.00432777 -0.00195782 -0.000323661 0.00432777 2.84694e-17 0.00432777)
(0.0043077 -0.00194806 -0.000328057 0.0043077 3.85493e-18 0.0043077)
(0.0043077 -0.00194806 -0.000328057 0.0043077 3.0816e-17 0.0043077)
(0.00428723 -0.00193808 -0.000332468 0.00428723 5.14435e-18 0.00428723)
(0.00428723 -0.00193808 -0.000332468 0.00428723 3.19317e-17 0.00428723)
(0.00426635 -0.00192789 -0.00033689 0.00426635 5.70767e-18 0.00426635)
(0.00426635 -0.00192789 -0.00033689 0.00426635 3.17648e-17 0.00426635)
(0.00424505 -0.00191747 -0.000341322 0.00424505 1.92489e-18 0.00424505)
(0.00424505 -0.00191747 -0.000341322 0.00424505 3.20332e-17 0.00424505)
(0.00422334 -0.00190683 -0.00034576 0.00422334 7.74512e-19 0.00422334)
(0.00422334 -0.00190683 -0.00034576 0.00422334 3.25853e-17 0.00422334)
(0.0042012 -0.00189597 -0.000350203 0.0042012 1.95285e-18 0.0042012)
(0.0042012 -0.00189597 -0.000350203 0.0042012 3.39504e-17 0.0042012)
(0.00417863 -0.00188487 -0.000354648 0.00417863 1.80577e-19 0.00417863)
(0.00417863 -0.00188487 -0.000354648 0.00417863 3.56093e-17 0.00417863)
(0.00415563 -0.00187353 -0.00035909 0.00415563 2.48665e-19 0.00415563)
(0.00415563 -0.00187353 -0.00035909 0.00415563 3.64363e-17 0.00415563)
(0.00413218 -0.00186196 -0.000363527 0.00413218 -4.15199e-18 0.00413218)
(0.00413218 -0.00186196 -0.000363527 0.00413218 3.68914e-17 0.00413218)
(0.00410828 -0.00185014 -0.000367956 0.00410828 -8.56344e-18 0.00410828)
(0.00410828 -0.00185014 -0.000367956 0.00410828 3.79953e-17 0.00410828)
(0.00408394 -0.00183807 -0.000372373 0.00408394 -8.89906e-18 0.00408394)
(0.00408394 -0.00183807 -0.000372373 0.00408394 3.51094e-17 0.00408394)
(0.00405913 -0.00182576 -0.000376774 0.00405913 -1.99105e-18 0.00405913)
(0.00405913 -0.00182576 -0.000376774 0.00405913 2.95269e-17 0.00405913)
(0.00403385 -0.00181318 -0.000381155 0.00403385 2.63751e-18 0.00403385)
(0.00403385 -0.00181318 -0.000381155 0.00403385 2.71088e-17 0.00403385)
(0.0040081 -0.00180035 -0.000385512 0.0040081 2.95274e-18 0.0040081)
(0.0040081 -0.00180035 -0.000385512 0.0040081 2.10203e-17 0.0040081)
(0.00398187 -0.00178725 -0.000389841 0.00398187 2.88049e-18 0.00398187)
(0.00398187 -0.00178725 -0.000389841 0.00398187 1.91451e-17 0.00398187)
(0.00395516 -0.00177388 -0.000394136 0.00395516 -1.99401e-18 0.00395516)
(0.00395516 -0.00177388 -0.000394136 0.00395516 1.9795e-17 0.00395516)
(0.00392795 -0.00176024 -0.000398393 0.00392795 9.27443e-19 0.00392795)
(0.00392795 -0.00176024 -0.000398393 0.00392795 1.57526e-17 0.00392795)
(0.00390025 -0.00174632 -0.000402606 0.00390025 6.71069e-18 0.00390025)
(0.00390025 -0.00174632 -0.000402606 0.00390025 1.38807e-17 0.00390025)
(0.00387204 -0.00173212 -0.000406771 0.00387204 8.19983e-18 0.00387204)
(0.00387204 -0.00173212 -0.000406771 0.00387204 1.59148e-17 0.00387204)
(0.00384331 -0.00171762 -0.000410882 0.00384331 3.28132e-18 0.00384331)
(0.00384331 -0.00171762 -0.000410882 0.00384331 2.16775e-17 0.00384331)
(0.00381407 -0.00170284 -0.000414932 0.00381407 6.11775e-19 0.00381407)
(0.00381407 -0.00170284 -0.000414932 0.00381407 2.1745e-17 0.00381407)
(0.0037843 -0.00168776 -0.000418915 0.0037843 -8.34523e-20 0.0037843)
(0.0037843 -0.00168776 -0.000418915 0.0037843 1.45637e-17 0.0037843)
(0.003754 -0.00167237 -0.000422824 0.003754 1.22401e-18 0.003754)
(0.003754 -0.00167237 -0.000422824 0.003754 8.74509e-18 0.003754)
(0.00372317 -0.00165668 -0.000426653 0.00372317 5.24521e-18 0.00372317)
(0.00372317 -0.00165668 -0.000426653 0.00372317 2.30833e-18 0.00372317)
(0.00369178 -0.00164067 -0.000430395 0.00369178 3.14139e-18 0.00369178)
(0.00369178 -0.00164067 -0.000430395 0.00369178 7.72064e-20 0.00369178)
(0.00365985 -0.00162434 -0.000434041 0.00365985 5.25842e-18 0.00365985)
(0.00365985 -0.00162434 -0.000434041 0.00365985 -6.22373e-18 0.00365985)
(0.00362735 -0.00160769 -0.000437584 0.00362735 8.00607e-18 0.00362735)
(0.00362735 -0.00160769 -0.000437584 0.00362735 -1.4852e-18 0.00362735)
(0.00359429 -0.00159071 -0.000441015 0.00359429 4.78899e-18 0.00359429)
(0.00359429 -0.00159071 -0.000441015 0.00359429 3.31245e-18 0.00359429)
(0.00356066 -0.0015734 -0.000444325 0.00356066 2.58934e-18 0.00356066)
(0.00356066 -0.0015734 -0.000444325 0.00356066 4.46602e-18 0.00356066)
(0.00352646 -0.00155574 -0.000447506 0.00352646 -7.93844e-18 0.00352646)
(0.00352646 -0.00155574 -0.000447506 0.00352646 1.55916e-17 0.00352646)
(0.00349167 -0.00153773 -0.000450547 0.00349167 2.12473e-18 0.00349167)
(0.00349167 -0.00153773 -0.000450547 0.00349167 1.72879e-17 0.00349167)
(0.00345629 -0.00151937 -0.000453438 0.00345629 2.18863e-18 0.00345629)
(0.00345629 -0.00151937 -0.000453438 0.00345629 3.29252e-18 0.00345629)
(0.00342032 -0.00150065 -0.00045617 0.00342032 1.29104e-18 0.00342032)