/*--------------------------------*- C++ -*----------------------------------*\
| =========                 |                                                 |
| \\      /  F ield         | OpenFOAM: The Open Source CFD Toolbox           |
|  \\    /   O peration     | Version:  2106                                  |
|   \\  /    A nd           | Website:  www.openfoam.com                      |
|    \\/     M anipulation  |                                                 |
\*---------------------------------------------------------------------------*/
FoamFile
{
    version     2.0;
    format      ascii;
    arch        "LSB;label=32;scalar=64";
    class       volVectorField;
    location    "10080";
    object      U;
}
// * * * * * * * * * * * * * * * * * * * * * * * * * * * * * * * * * * * * * //

dimensions      [0 1 -1 0 0 0 0];

internalField   nonuniform List<vector> 
2000
(
(0.0056986 -8.67104e-16 -2.52674e-17)
(0.0056986 -6.54027e-19 1.05328e-32)
(0.0172 -2.80135e-15 -2.7013e-17)
(0.0172 -5.14503e-19 -9.76858e-21)
(0.0289139 -2.76111e-15 -2.79427e-17)
(0.0289139 -1.45594e-18 -1.66967e-20)
(0.0408441 -2.57771e-15 -2.81095e-17)
(0.0408441 -2.15356e-18 -2.97781e-20)
(0.0529945 -2.56399e-15 -2.82849e-17)
(0.0529945 -2.9362e-18 -4.53893e-20)
(0.0653689 -2.56263e-15 -2.84873e-17)
(0.0653689 -3.82611e-18 -6.25973e-20)
(0.0779707 -2.56305e-15 -2.86781e-17)
(0.0779707 -4.75025e-18 -8.08954e-20)
(0.0908026 -2.56056e-15 -2.88632e-17)
(0.0908026 -5.58988e-18 -1.01094e-19)
(0.103866 -2.55886e-15 -2.90481e-17)
(0.103866 -6.54526e-18 -1.23528e-19)
(0.117161 -2.55769e-15 -2.92268e-17)
(0.117161 -7.69496e-18 -1.47043e-19)
(0.130684 -2.55676e-15 -2.93905e-17)
(0.130684 -8.89127e-18 -1.72611e-19)
(0.144428 -2.55571e-15 -2.95269e-17)
(0.144428 -9.94794e-18 -2.00444e-19)
(0.158381 -2.55436e-15 -2.96208e-17)
(0.158381 -1.11038e-17 -2.3255e-19)
(0.172522 -2.55288e-15 -2.9657e-17)
(0.172522 -1.25336e-17 -2.64605e-19)
(0.186826 -2.5513e-15 -2.96188e-17)
(0.186826 -1.40123e-17 -2.99046e-19)
(0.201256 -2.54974e-15 -2.94869e-17)
(0.201256 -1.54269e-17 -3.35207e-19)
(0.215766 -2.5482e-15 -2.92461e-17)
(0.215766 -1.69377e-17 -3.79359e-19)
(0.230305 -2.5464e-15 -2.88818e-17)
(0.230305 -1.85291e-17 -4.21256e-19)
(0.244813 -2.54686e-15 -2.83839e-17)
(0.244813 -2.02724e-17 -4.64777e-19)
(0.259226 -2.54017e-15 -2.77501e-17)
(0.259226 -2.21394e-17 -5.09712e-19)
(0.273481 -2.54027e-15 -2.69843e-17)
(0.273481 -2.38404e-17 -5.57792e-19)
(0.287518 -2.53783e-15 -2.60964e-17)
(0.287518 -2.58214e-17 -6.03977e-19)
(0.301283 -2.53538e-15 -2.51006e-17)
(0.301283 -2.80568e-17 -6.50853e-19)
(0.31473 -2.53296e-15 -2.40189e-17)
(0.31473 -3.01729e-17 -6.89793e-19)
(0.327822 -2.53055e-15 -2.28695e-17)
(0.327822 -3.22491e-17 -7.16339e-19)
(0.340534 -2.52823e-15 -2.16715e-17)
(0.340534 -3.43246e-17 -7.43051e-19)
(0.352847 -2.52589e-15 -2.04427e-17)
(0.352847 -3.66445e-17 -7.6225e-19)
(0.364755 -2.52347e-15 -1.92002e-17)
(0.364755 -3.90476e-17 -7.76062e-19)
(0.376256 -2.52054e-15 -1.79556e-17)
(0.376256 -4.12246e-17 -7.98184e-19)
(0.387354 -2.51756e-15 -1.67156e-17)
(0.387354 -4.3702e-17 -8.21662e-19)
(0.398059 -2.51483e-15 -1.54884e-17)
(0.398059 -4.5867e-17 -8.364e-19)
(0.408383 -2.5121e-15 -1.42813e-17)
(0.408383 -4.79561e-17 -8.4874e-19)
(0.41834 -2.50947e-15 -1.30964e-17)
(0.41834 -5.03438e-17 -8.60491e-19)
(0.427947 -2.50692e-15 -1.19334e-17)
(0.427947 -5.28518e-17 -8.78645e-19)
(0.437219 -2.50435e-15 -1.07933e-17)
(0.437219 -5.51638e-17 -8.81612e-19)
(0.446175 -2.50167e-15 -9.67696e-18)
(0.446175 -5.77352e-17 -8.86845e-19)
(0.454829 -2.49827e-15 -8.57988e-18)
(0.454829 -6.06277e-17 -8.92164e-19)
(0.463199 -2.49475e-15 -7.49238e-18)
(0.463199 -6.28164e-17 -8.94807e-19)
(0.471301 -2.49137e-15 -6.41445e-18)
(0.471301 -6.53945e-17 -9.14368e-19)
(0.479149 -2.48803e-15 -5.34418e-18)
(0.479149 -6.80451e-17 -9.22402e-19)
(0.486758 -2.48514e-15 -4.28477e-18)
(0.486758 -7.03351e-17 -9.06556e-19)
(0.494141 -2.48214e-15 -3.23008e-18)
(0.494141 -7.30004e-17 -9.04618e-19)
(0.501311 -2.47913e-15 -2.18214e-18)
(0.501311 -7.52828e-17 -9.15455e-19)
(0.50828 -2.47594e-15 -1.13195e-18)
(0.50828 -7.83152e-17 -9.36686e-19)
(0.515059 -2.47237e-15 -7.58106e-20)
(0.515059 -8.10415e-17 -9.27179e-19)
(0.521659 -2.46878e-15 9.83799e-19)
(0.521659 -8.37881e-17 -9.3238e-19)
(0.528089 -2.46537e-15 2.047e-18)
(0.528089 -8.7118e-17 -9.42803e-19)
(0.534359 -2.46274e-15 3.11529e-18)
(0.534359 -8.9152e-17 -9.0297e-19)
(0.540477 -2.46002e-15 4.18826e-18)
(0.540477 -9.13251e-17 -8.40951e-19)
(0.546451 -2.45671e-15 5.26476e-18)
(0.546451 -9.45331e-17 -8.34362e-19)
(0.55229 -2.45309e-15 6.34153e-18)
(0.55229 -9.76125e-17 -8.52072e-19)
(0.557998 -2.44932e-15 7.42236e-18)
(0.557998 -1.00101e-16 -8.35472e-19)
(0.563584 -2.44544e-15 8.51661e-18)
(0.563584 -1.02598e-16 -8.32397e-19)
(0.569054 -2.44102e-15 9.61686e-18)
(0.569054 -1.05568e-16 -8.03898e-19)
(0.574413 -2.43636e-15 1.07327e-17)
(0.574413 -1.07858e-16 -8.003e-19)
(0.579666 -2.43193e-15 1.18648e-17)
(0.579666 -1.10067e-16 -8.58293e-19)
(0.584819 -2.42801e-15 1.30065e-17)
(0.584819 -1.1272e-16 -8.33232e-19)
(0.589876 -2.42456e-15 1.4161e-17)
(0.589876 -1.14912e-16 -7.77243e-19)
(0.594841 -2.42103e-15 1.53277e-17)
(0.594841 -1.17547e-16 -7.73511e-19)
(0.59972 -2.41687e-15 1.65127e-17)
(0.59972 -1.20499e-16 -8.58638e-19)
(0.604515 -2.41304e-15 1.77105e-17)
(0.604515 -1.23693e-16 -9.60158e-19)
(0.609231 -2.40879e-15 1.89182e-17)
(0.609231 -1.26503e-16 -9.34086e-19)
(0.613871 -2.40501e-15 2.0142e-17)
(0.613871 -1.28638e-16 -7.86118e-19)
(0.618438 -2.40184e-15 2.13566e-17)
(0.618438 -1.32048e-16 -7.95784e-19)
(0.622936 -2.39845e-15 2.25652e-17)
(0.622936 -1.35525e-16 -8.15179e-19)
(0.627367 -2.39391e-15 2.37693e-17)
(0.627367 -1.38522e-16 -7.44515e-19)
(0.631734 -2.38776e-15 2.4985e-17)
(0.631734 -1.42412e-16 -7.32964e-19)
(0.636039 -2.38252e-15 2.62085e-17)
(0.636039 -1.46472e-16 -7.15037e-19)
(0.640286 -2.37758e-15 2.74342e-17)
(0.640286 -1.49621e-16 -6.90011e-19)
(0.644476 -2.37258e-15 2.8672e-17)
(0.644476 -1.54064e-16 -6.32085e-19)
(0.648612 -2.36725e-15 2.99204e-17)
(0.648612 -1.59135e-16 -4.92134e-19)
(0.652695 -2.36141e-15 3.11811e-17)
(0.652695 -1.62161e-16 -3.92112e-19)
(0.656729 -2.35615e-15 3.24713e-17)
(0.656729 -1.66101e-16 -3.6069e-19)
(0.660714 -2.35123e-15 3.37817e-17)
(0.660714 -1.709e-16 -5.17074e-19)
(0.664652 -2.34619e-15 3.51023e-17)
(0.664652 -1.73674e-16 -6.21787e-19)
(0.668546 -2.34057e-15 3.64743e-17)
(0.668546 -1.77153e-16 -4.53645e-19)
(0.672397 -2.33378e-15 3.78939e-17)
(0.672397 -1.81031e-16 -3.7283e-19)
(0.676206 -2.32696e-15 3.93805e-17)
(0.676206 -1.84634e-16 -3.27692e-19)
(0.679974 -2.32033e-15 4.09119e-17)
(0.679974 -1.88165e-16 -3.05339e-19)
(0.683705 -2.31407e-15 4.24811e-17)
(0.683705 -1.91127e-16 -4.12783e-19)
(0.687397 -2.30762e-15 4.40887e-17)
(0.687397 -1.94503e-16 -4.19761e-19)
(0.691054 -2.30027e-15 4.57451e-17)
(0.691054 -1.95936e-16 -2.4956e-19)
(0.694676 -2.29231e-15 4.74489e-17)
(0.694676 -2.01315e-16 -3.03875e-19)
(0.698264 -2.28466e-15 4.92031e-17)
(0.698264 -2.08148e-16 -5.07589e-19)
(0.70182 -2.27779e-15 5.10039e-17)
(0.70182 -2.11899e-16 -3.8244e-19)
(0.705344 -2.26998e-15 5.28554e-17)
(0.705344 -2.17744e-16 -6.51058e-20)
(0.708838 -2.26452e-15 5.47816e-17)
(0.708838 -2.25596e-16 1.41755e-19)
(0.712302 -2.26181e-15 5.67409e-17)
(0.712302 -2.32661e-16 1.43981e-19)
(0.715738 -2.25518e-15 5.87469e-17)
(0.715738 -2.37295e-16 4.09285e-19)
(0.719146 -2.24561e-15 6.08117e-17)
(0.719146 -2.44622e-16 7.64371e-19)
(0.722528 -2.2369e-15 6.29298e-17)
(0.722528 -2.53986e-16 9.41733e-19)
(0.725884 -2.22854e-15 6.51382e-17)
(0.725884 -2.6025e-16 1.25472e-18)
(0.729214 -2.22079e-15 6.74517e-17)
(0.729214 -2.63203e-16 1.37057e-18)
(0.732521 -2.2155e-15 6.98553e-17)
(0.732521 -2.62602e-16 9.56414e-19)
(0.735804 -2.21057e-15 7.23074e-17)
(0.735804 -2.62279e-16 9.06068e-19)
(0.739063 -2.20573e-15 7.48185e-17)
(0.739063 -2.63435e-16 9.82498e-19)
(0.742301 -2.20235e-15 7.73818e-17)
(0.742301 -2.65934e-16 9.36e-19)
(0.745518 -2.19804e-15 7.99691e-17)
(0.745518 -2.67408e-16 7.46693e-19)
(0.748713 -2.19194e-15 8.26603e-17)
(0.748713 -2.68382e-16 5.43628e-19)
(0.751888 -2.18601e-15 8.54097e-17)
(0.751888 -2.71195e-16 2.75941e-19)
(0.755044 -2.17963e-15 8.82827e-17)
(0.755044 -2.74936e-16 3.88461e-19)
(0.75818 -2.17222e-15 9.12196e-17)
(0.75818 -2.77595e-16 6.92153e-19)
(0.761298 -2.16458e-15 9.42554e-17)
(0.761298 -2.81443e-16 3.28513e-19)
(0.764398 -2.15839e-15 9.73602e-17)
(0.764398 -2.83676e-16 -2.26705e-19)
(0.76748 -2.15112e-15 1.00557e-16)
(0.76748 -2.86872e-16 -2.98422e-19)
(0.770545 -2.14126e-15 1.03841e-16)
(0.770545 -2.91807e-16 -1.38143e-20)
(0.773594 -2.132e-15 1.07304e-16)
(0.773594 -2.95348e-16 1.3833e-19)
(0.776627 -2.12368e-15 1.10874e-16)
(0.776627 -3.02668e-16 -1.25957e-19)
(0.779644 -2.11402e-15 1.14565e-16)
(0.779644 -3.08586e-16 -5.29983e-19)
(0.782646 -2.1023e-15 1.18397e-16)
(0.782646 -3.15969e-16 -3.18067e-19)
(0.785633 -2.08925e-15 1.22352e-16)
(0.785633 -3.23707e-16 -1.85676e-19)
(0.788605 -2.08165e-15 1.26572e-16)
(0.788605 -3.29096e-16 1.60219e-19)
(0.791564 -2.07685e-15 1.30916e-16)
(0.791564 -3.32816e-16 3.51815e-19)
(0.794508 -2.07067e-15 1.32486e-16)
(0.794508 -3.37589e-16 2.19463e-19)
(0.79744 -2.06597e-15 1.29934e-16)
(0.79744 -3.4218e-16 -6.33646e-19)
(0.800359 -2.05877e-15 1.26762e-16)
(0.800359 -3.46018e-16 -9.3709e-19)
(0.803265 -2.04765e-15 1.23511e-16)
(0.803265 -3.51932e-16 -1.12565e-18)
(0.806158 -2.03424e-15 1.19009e-16)
(0.806158 -3.61594e-16 -1.81514e-18)
(0.80904 -2.02397e-15 1.13755e-16)
(0.80904 -3.68315e-16 -1.86129e-18)
(0.81191 -2.01672e-15 1.07689e-16)
(0.81191 -3.65572e-16 -2.05632e-18)
(0.814769 -2.01034e-15 1.01423e-16)
(0.814769 -3.64484e-16 -2.07977e-18)
(0.817616 -2.00295e-15 9.54892e-17)
(0.817616 -3.67324e-16 -2.0341e-18)
(0.820453 -1.99496e-15 8.93293e-17)
(0.820453 -3.66593e-16 -2.94818e-18)
(0.823279 -1.98911e-15 8.19959e-17)
(0.823279 -3.65717e-16 -4.0975e-18)
(0.826095 -1.97924e-15 7.37998e-17)
(0.826095 -3.6233e-16 -5.45674e-18)
(0.828901 -1.96509e-15 6.59007e-17)
(0.828901 -3.65985e-16 -5.58622e-18)
(0.831697 -1.95289e-15 5.84971e-17)
(0.831697 -3.72084e-16 -5.93855e-18)
(0.834483 -1.94424e-15 5.1009e-17)
(0.834483 -3.77566e-16 -6.82114e-18)
(0.83726 -1.93686e-15 4.22165e-17)
(0.83726 -3.90558e-16 -8.22641e-18)
(0.840028 -1.92904e-15 3.2546e-17)
(0.840028 -3.97284e-16 -7.6622e-18)
(0.842787 -1.91819e-15 2.39829e-17)
(0.842787 -4.06645e-16 -6.7919e-18)
(0.845538 -1.90401e-15 1.43792e-17)
(0.845538 -4.17507e-16 -7.81208e-18)
(0.848279 -1.88778e-15 3.88588e-18)
(0.848279 -4.28262e-16 -9.86931e-18)
(0.851013 -1.87136e-15 -8.56042e-18)
(0.851013 -4.36861e-16 -9.18513e-18)
(0.853738 -1.85847e-15 -1.80684e-17)
(0.853738 -4.4397e-16 -6.75019e-18)
(0.856455 -1.84736e-15 -2.87265e-17)
(0.856455 -4.53413e-16 -8.43695e-18)
(0.859164 -1.8346e-15 -4.17598e-17)
(0.859164 -4.64182e-16 -9.87622e-18)
(0.861866 -1.82424e-15 -5.49646e-17)
(0.861866 -4.72736e-16 -9.29784e-18)
(0.86456 -1.81361e-15 -6.83902e-17)
(0.86456 -4.77496e-16 -1.04502e-17)
(0.867247 -1.79923e-15 -8.40562e-17)
(0.867247 -4.90149e-16 -1.33263e-17)
(0.869927 -1.78597e-15 -1.01614e-16)
(0.869927 -5.02167e-16 -1.49785e-17)
(0.8726 -1.7731e-15 -1.17963e-16)
(0.8726 -5.13403e-16 -1.10178e-17)
(0.875265 -1.75955e-15 -1.33626e-16)
(0.875265 -5.28733e-16 -9.99263e-18)
(0.877924 -1.74536e-15 -1.51296e-16)
(0.877924 -5.35391e-16 -1.30289e-17)
(0.880577 -1.73313e-15 -1.71227e-16)
(0.880577 -5.44723e-16 -1.37708e-17)
(0.883222 -1.71754e-15 -1.75819e-16)
(0.883222 -5.59069e-16 -1.08688e-17)
(0.885861 -1.70074e-15 -1.72772e-16)
(0.885861 -5.74693e-16 -1.01337e-17)
(0.888494 -1.68385e-15 -1.689e-16)
(0.888494 -5.89625e-16 -1.18182e-17)
(0.891121 -1.66302e-15 -1.65017e-16)
(0.891121 -5.97382e-16 -1.10169e-17)
(0.893741 -1.63491e-15 -1.60477e-16)
(0.893741 -6.12095e-16 -6.32686e-18)
(0.896356 -1.60663e-15 -1.58312e-16)
(0.896356 -6.26998e-16 -1.99516e-19)
(0.898964 -1.59224e-15 -1.55797e-16)
(0.898964 -6.36187e-16 6.47318e-18)
(0.901567 -1.58126e-15 -1.54133e-16)
(0.901567 -6.52819e-16 5.81291e-18)
(0.904164 -1.56204e-15 -1.50811e-16)
(0.904164 -6.61928e-16 2.29202e-18)
(0.906755 -1.5418e-15 -1.47743e-16)
(0.906755 -6.69634e-16 -2.44871e-18)
(0.90934 -1.52416e-15 -1.38772e-16)
(0.90934 -6.88795e-16 -5.84219e-18)
(0.91192 -1.50209e-15 -1.38166e-16)
(0.91192 -6.96216e-16 -9.12995e-18)
(0.914495 -1.48322e-15 -1.37254e-16)
(0.914495 -6.99209e-16 -1.32251e-17)
(0.917063 -1.46324e-15 -1.37055e-16)
(0.917063 -7.11015e-16 -2.0622e-17)
(0.919627 -1.44127e-15 -1.38036e-16)
(0.919627 -7.13486e-16 -2.6462e-17)
(0.922185 -1.42096e-15 -1.39811e-16)
(0.922185 -7.25934e-16 -3.47647e-17)
(0.924737 -1.39595e-15 -1.41475e-16)
(0.924737 -7.357e-16 -4.29641e-17)
(0.927285 -1.37533e-15 -1.45426e-16)
(0.927285 -7.36312e-16 -4.9424e-17)
(0.929826 -1.35636e-15 -1.4826e-16)
(0.929826 -7.37809e-16 -5.62543e-17)
(0.932363 -1.33623e-15 -1.52113e-16)
(0.932363 -7.32781e-16 -6.49198e-17)
(0.934895 -1.32191e-15 -1.59803e-16)
(0.934895 -7.40313e-16 -7.44851e-17)
(0.937421 -1.30872e-15 -1.67174e-16)
(0.937421 -7.51508e-16 -8.2882e-17)
(0.939941 -1.2927e-15 -1.7205e-16)
(0.939941 -7.59442e-16 -8.87441e-17)
(0.942457 -1.27761e-15 -1.75473e-16)
(0.942457 -7.70039e-16 -9.03931e-17)
(0.944967 -1.26275e-15 -1.78592e-16)
(0.944967 -7.76037e-16 -9.38004e-17)
(0.947472 -1.23764e-15 -1.80377e-16)
(0.947472 -7.87663e-16 -9.93075e-17)
(0.949972 -1.20785e-15 -1.83261e-16)
(0.949972 -7.98947e-16 -1.01669e-16)
(0.952466 -1.19381e-15 -1.84727e-16)
(0.952466 -7.98069e-16 -1.04212e-16)
(0.954955 -1.17637e-15 -1.81425e-16)
(0.954955 -7.91053e-16 -1.06617e-16)
(0.957439 -1.15185e-15 -1.80436e-16)
(0.957439 -7.85507e-16 -1.09619e-16)
(0.959917 -1.136e-15 -1.76577e-16)
(0.959917 -7.81943e-16 -1.142e-16)
(0.96239 -1.11974e-15 -1.74957e-16)
(0.96239 -7.77988e-16 -1.19241e-16)
(0.964857 -1.11537e-15 -1.70972e-16)
(0.964857 -7.6376e-16 -1.25003e-16)
(0.967319 -1.12212e-15 -1.61275e-16)
(0.967319 -7.5871e-16 -1.31198e-16)
(0.969774 -1.11402e-15 -1.48181e-16)
(0.969774 -7.6886e-16 -1.38764e-16)
(0.972224 -1.07593e-15 -1.34232e-16)
(0.972224 -7.90036e-16 -1.345e-16)
(0.974669 -1.0359e-15 -1.27166e-16)
(0.974669 -8.14168e-16 -1.26557e-16)
(0.977107 -1.01302e-15 -1.24524e-16)
(0.977107 -8.24563e-16 -1.14117e-16)
(0.979539 -9.95093e-16 -1.25373e-16)
(0.979539 -8.37553e-16 -1.02621e-16)
(0.981965 -9.86046e-16 -1.21125e-16)
(0.981965 -8.41374e-16 -9.74011e-17)
(0.984384 -9.79026e-16 -1.15892e-16)
(0.984384 -8.4818e-16 -9.2322e-17)
(0.986798 -9.60109e-16 -1.20581e-16)
(0.986798 -8.52688e-16 -8.12876e-17)
(0.989204 -9.34029e-16 -1.25682e-16)
(0.989204 -8.55837e-16 -8.11343e-17)
(0.991604 -9.37e-16 -1.31071e-16)
(0.991604 -8.5468e-16 -8.87444e-17)
(0.993997 -9.33483e-16 -1.34824e-16)
(0.993997 -8.44968e-16 -1.02236e-16)
(0.996383 -9.24326e-16 -1.33513e-16)
(0.996383 -8.54123e-16 -1.06483e-16)
(0.998762 -9.14085e-16 -1.30015e-16)
(0.998762 -8.65199e-16 -1.08424e-16)
(1.00113 -8.85029e-16 -1.31852e-16)
(1.00113 -8.6996e-16 -1.06526e-16)
(1.0035 -8.70402e-16 -1.29923e-16)
(1.0035 -8.8032e-16 -1.07271e-16)
(1.00585 -8.73095e-16 -1.33248e-16)
(1.00585 -8.96412e-16 -9.81999e-17)
(1.0082 -8.52463e-16 -1.33934e-16)
(1.0082 -8.76075e-16 -8.92528e-17)
(1.01054 -8.75658e-16 -1.43793e-16)
(1.01054 -8.54996e-16 -8.28032e-17)
(1.01287 -8.70062e-16 -1.47938e-16)
(1.01287 -8.66156e-16 -8.73676e-17)
(1.01519 -8.8359e-16 -1.32543e-16)
(1.01519 -8.38595e-16 -9.38136e-17)
(1.0175 -8.5248e-16 -1.24362e-16)
(1.0175 -8.19961e-16 -1.07936e-16)
(1.0198 -8.375e-16 -1.20692e-16)
(1.0198 -8.20854e-16 -1.26638e-16)
(1.0221 -8.24902e-16 -1.22067e-16)
(1.0221 -7.88282e-16 -1.23002e-16)
(1.02438 -8.27925e-16 -1.15034e-16)
(1.02438 -7.74642e-16 -1.33138e-16)
(1.02665 -8.118e-16 -1.0831e-16)
(1.02665 -7.86451e-16 -1.31854e-16)
(1.02891 -7.87607e-16 -1.0839e-16)
(1.02891 -7.59553e-16 -1.342e-16)
(1.03116 -7.52368e-16 -1.22792e-16)
(1.03116 -7.24048e-16 -1.22967e-16)
(1.03339 -7.30126e-16 -1.33602e-16)
(1.03339 -7.35874e-16 -1.30332e-16)
(1.03562 -6.97426e-16 -1.4819e-16)
(1.03562 -7.21558e-16 -1.35591e-16)
(1.03783 -6.76202e-16 -1.41955e-16)
(1.03783 -6.90286e-16 -1.4378e-16)
(1.04003 -6.57867e-16 -1.44778e-16)
(1.04003 -6.61991e-16 -1.53531e-16)
(1.04221 -6.33742e-16 -1.41476e-16)
(1.04221 -6.32235e-16 -1.48952e-16)
(1.04438 -6.16058e-16 -1.46845e-16)
(1.04438 -6.30309e-16 -1.34548e-16)
(1.04653 -6.38382e-16 -1.42206e-16)
(1.04653 -6.09576e-16 -1.18126e-16)
(1.04867 -6.22355e-16 -1.2931e-16)
(1.04867 -5.9306e-16 -1.24195e-16)
(1.05079 -6.22521e-16 -1.37543e-16)
(1.05079 -6.31316e-16 -1.27487e-16)
(1.05289 -6.25618e-16 -1.47103e-16)
(1.05289 -6.29995e-16 -1.29582e-16)
(1.05497 -6.36477e-16 -1.36901e-16)
(1.05497 -6.09702e-16 -1.21406e-16)
(1.05704 -6.28637e-16 -1.12074e-16)
(1.05704 -6.24325e-16 -9.84202e-17)
(1.05908 -6.26367e-16 -1.02346e-16)
(1.05908 -6.2582e-16 -9.98122e-17)
(1.0611 -5.72978e-16 -1.14425e-16)
(1.0611 -6.35996e-16 -8.03017e-17)
(1.0631 -6.08721e-16 -1.03036e-16)
(1.0631 -6.12841e-16 -4.5339e-17)
(1.06508 -5.72155e-16 -1.16097e-16)
(1.06508 -5.85905e-16 -5.94463e-17)
(1.06703 -5.76141e-16 -1.29269e-16)
(1.06703 -5.70217e-16 -5.29307e-17)
(1.06896 -6.03403e-16 -1.08429e-16)
(1.06896 -5.24885e-16 -7.15704e-17)
(1.07085 -5.64759e-16 -9.81233e-17)
(1.07085 -5.2976e-16 -6.83537e-17)
(1.07272 -5.45143e-16 -1.09796e-16)
(1.07272 -5.42055e-16 -7.75205e-17)
(1.07456 -5.21295e-16 -1.23585e-16)
(1.07456 -5.36902e-16 -9.43854e-17)
(1.07636 -4.93589e-16 -1.51928e-16)
(1.07636 -4.96823e-16 -1.13328e-16)
(1.07813 -5.09785e-16 -1.76724e-16)
(1.07813 -5.34905e-16 -1.16134e-16)
(1.07986 -5.55096e-16 -1.41886e-16)
(1.07986 -5.5957e-16 -1.03921e-16)
(1.08155 -5.18422e-16 -1.02267e-16)
(1.08155 -5.18529e-16 -9.08674e-17)
(1.0832 -4.94131e-16 -1.08929e-16)
(1.0832 -5.40215e-16 -8.12863e-17)
(1.08481 -4.90891e-16 -9.78591e-17)
(1.08481 -5.43235e-16 -8.13151e-17)
(1.08637 -4.88989e-16 -1.03337e-16)
(1.08637 -5.64715e-16 -1.00571e-16)
(1.08788 -5.10043e-16 -4.48946e-17)
(1.08788 -6.08683e-16 -7.23316e-17)
(1.08934 -5.54135e-16 -8.35985e-17)
(1.08934 -5.88233e-16 -1.90402e-17)
(1.09073 -5.1746e-16 -8.79295e-17)
(1.09073 -5.5556e-16 -2.92103e-17)
(1.09207 -5.22684e-16 -7.60113e-17)
(1.09207 -5.16581e-16 -2.69708e-17)
(1.09334 -5.25821e-16 -8.61885e-17)
(1.09334 -5.16775e-16 -2.81351e-17)
(1.09454 -5.13349e-16 -9.21802e-17)
(1.09454 -5.1889e-16 2.06307e-18)
(1.09567 -5.58125e-16 -7.29899e-17)
(1.09567 -4.57291e-16 -3.77612e-17)
(1.09671 -5.35653e-16 -7.1839e-17)
(1.09671 -4.32387e-16 -7.15055e-17)
(1.09767 -5.03007e-16 -6.01487e-17)
(1.09767 -4.4942e-16 -8.47281e-17)
(1.09853 -4.40015e-16 -6.99894e-17)
(1.09853 -4.12197e-16 -8.74988e-17)
(1.0993 -4.10482e-16 -5.38062e-17)
(1.0993 -4.06193e-16 -8.45021e-17)
(1.09995 -4.03613e-16 -3.3283e-17)
(1.09995 -4.068e-16 -6.02627e-17)
(1.10049 -4.32667e-16 -6.20761e-17)
(1.10049 -3.80297e-16 -1.0468e-16)
(1.10091 -4.21677e-16 -3.48848e-17)
(1.10091 -3.79053e-16 -1.47402e-16)
(1.1012 -3.75777e-16 1.36149e-17)
(1.1012 -4.11635e-16 -1.32928e-16)
(1.10135 -3.6458e-16 -2.08256e-17)
(1.10135 -4.06092e-16 -8.34208e-17)
(0.0056986 -1.46749e-19 8.11503e-18)
(0.0056986 6.53e-23 2.55201e-17)
(0.0172 -3.77099e-20 2.30488e-18)
(0.0172 1.2467e-19 6.30969e-17)
(0.0289139 -2.98129e-19 2.39597e-18)
(0.0289139 1.82704e-19 6.54529e-17)
(0.0408441 -4.17542e-19 2.49347e-18)
(0.0408441 2.88226e-19 6.78865e-17)
(0.0529945 -5.88849e-19 2.59835e-18)
(0.0529945 4.03651e-19 7.03977e-17)
(0.0653689 -7.65798e-19 2.71068e-18)
(0.0653689 5.45226e-19 7.29866e-17)
(0.0779707 -9.43702e-19 2.83132e-18)
(0.0779707 6.96056e-19 7.56516e-17)
(0.0908026 -1.14133e-18 2.96117e-18)
(0.0908026 8.44798e-19 7.83878e-17)
(0.103866 -1.32717e-18 3.10117e-18)
(0.103866 1.01619e-18 8.1185e-17)
(0.117161 -1.59997e-18 3.25493e-18)
(0.117161 1.26091e-18 8.4028e-17)
(0.130684 -1.97036e-18 3.41832e-18)
(0.130684 1.53797e-18 8.68957e-17)
(0.144428 -2.25724e-18 3.59208e-18)
(0.144428 1.82527e-18 8.97548e-17)
(0.158381 -2.67449e-18 3.77619e-18)
(0.158381 2.14471e-18 9.25589e-17)
(0.172522 -3.32133e-18 3.96499e-18)
(0.172522 2.50502e-18 9.52567e-17)
(0.186826 -3.79674e-18 4.15087e-18)
(0.186826 2.85349e-18 9.77841e-17)
(0.201256 -4.11496e-18 4.33436e-18)
(0.201256 3.12964e-18 1.00069e-16)
(0.215766 -4.51192e-18 4.51281e-18)
(0.215766 3.2321e-18 1.02029e-16)
(0.230305 -4.87113e-18 4.67949e-18)
(0.230305 3.30734e-18 1.036e-16)
(0.244813 -5.25601e-18 4.83937e-18)
(0.244813 3.47663e-18 1.04722e-16)
(0.259226 -5.75111e-18 4.98477e-18)
(0.259226 3.67278e-18 1.05362e-16)
(0.273481 -6.30301e-18 5.1108e-18)
(0.273481 3.9024e-18 1.05506e-16)
(0.287518 -6.82917e-18 5.22398e-18)
(0.287518 4.37121e-18 1.05165e-16)
(0.301283 -7.64271e-18 5.32054e-18)
(0.301283 4.9789e-18 1.0438e-16)
(0.31473 -8.57492e-18 5.39703e-18)
(0.31473 5.40906e-18 1.03203e-16)
(0.327822 -9.23481e-18 5.45548e-18)
(0.327822 5.66707e-18 1.01696e-16)
(0.340534 -9.90814e-18 5.50583e-18)
(0.340534 6.00848e-18 9.99149e-17)
(0.352847 -1.09667e-17 5.5461e-18)
(0.352847 6.72147e-18 9.79359e-17)
(0.364755 -1.20808e-17 5.56673e-18)
(0.364755 7.29784e-18 9.58226e-17)
(0.376256 -1.29153e-17 5.57652e-18)
(0.376256 7.63445e-18 9.36176e-17)
(0.387354 -1.37374e-17 5.58845e-18)
(0.387354 7.95561e-18 9.1356e-17)
(0.398059 -1.47511e-17 5.59155e-18)
(0.398059 8.48573e-18 8.90802e-17)
(0.408383 -1.5872e-17 5.57709e-18)
(0.408383 9.19112e-18 8.6824e-17)
(0.41834 -1.68236e-17 5.5552e-18)
(0.41834 9.69956e-18 8.46013e-17)
(0.427947 -1.7697e-17 5.5288e-18)
(0.427947 1.01675e-17 8.24196e-17)
(0.437219 -1.88239e-17 5.49602e-18)
(0.437219 1.09601e-17 8.02987e-17)
(0.446175 -1.95784e-17 5.45844e-18)
(0.446175 1.09623e-17 7.82327e-17)
(0.454829 -1.94023e-17 5.44483e-18)
(0.454829 1.06383e-17 7.62159e-17)
(0.463199 -1.90527e-17 5.46845e-18)
(0.463199 1.06926e-17 7.42579e-17)
(0.471301 -1.91315e-17 5.5241e-18)
(0.471301 1.06453e-17 7.23569e-17)
(0.479149 -1.95519e-17 5.58199e-18)
(0.479149 1.10876e-17 7.05306e-17)
(0.486758 -1.99632e-17 5.66581e-18)
(0.486758 1.15563e-17 6.87586e-17)
(0.494141 -2.07547e-17 5.77605e-18)
(0.494141 1.11222e-17 6.70444e-17)
(0.501311 -2.09987e-17 5.88528e-18)
(0.501311 1.09984e-17 6.5395e-17)
(0.50828 -2.07142e-17 6.04909e-18)
(0.50828 1.13102e-17 6.37639e-17)
(0.515059 -2.09257e-17 6.23089e-18)
(0.515059 1.20229e-17 6.21932e-17)
(0.521659 -2.15091e-17 6.45262e-18)
(0.521659 1.22749e-17 6.06498e-17)
(0.528089 -2.31091e-17 6.70256e-18)
(0.528089 1.17888e-17 5.91283e-17)
(0.534359 -2.42077e-17 6.9436e-18)
(0.534359 1.24489e-17 5.76599e-17)
(0.540477 -2.42924e-17 7.23184e-18)
(0.540477 1.32477e-17 5.62118e-17)
(0.546451 -2.57553e-17 7.53795e-18)
(0.546451 1.33134e-17 5.47961e-17)
(0.55229 -2.72352e-17 7.79855e-18)
(0.55229 1.34613e-17 5.34125e-17)
(0.557998 -2.75966e-17 8.07042e-18)
(0.557998 1.46074e-17 5.20496e-17)
(0.563584 -2.87882e-17 8.35623e-18)
(0.563584 1.49957e-17 5.06903e-17)
(0.569054 -2.98088e-17 8.60453e-18)
(0.569054 1.44503e-17 4.93688e-17)
(0.574413 -3.02741e-17 8.88908e-18)
(0.574413 1.4792e-17 4.80216e-17)
(0.579666 -3.16284e-17 9.1998e-18)
(0.579666 1.50738e-17 4.66204e-17)
(0.584819 -3.33287e-17 9.46726e-18)
(0.584819 1.65612e-17 4.52602e-17)
(0.589876 -3.40808e-17 9.70793e-18)
(0.589876 1.7745e-17 4.39564e-17)
(0.594841 -3.44196e-17 9.96238e-18)
(0.594841 1.72669e-17 4.26553e-17)
(0.59972 -3.5109e-17 1.02514e-17)
(0.59972 1.68266e-17 4.1326e-17)
(0.604515 -3.57372e-17 1.05757e-17)
(0.604515 1.62725e-17 3.9969e-17)
(0.609231 -3.64612e-17 1.09517e-17)
(0.609231 1.55705e-17 3.85728e-17)
(0.613871 -3.80856e-17 1.13934e-17)
(0.613871 1.51453e-17 3.71505e-17)
(0.618438 -3.96686e-17 1.18108e-17)
(0.618438 1.67238e-17 3.56872e-17)
(0.622936 -4.07058e-17 1.22119e-17)
(0.622936 1.69052e-17 3.42196e-17)
(0.627367 -4.18023e-17 1.26621e-17)
(0.627367 1.5801e-17 3.26972e-17)
(0.631734 -4.20388e-17 1.31901e-17)
(0.631734 1.50075e-17 3.109e-17)
(0.636039 -4.28067e-17 1.37644e-17)
(0.636039 1.31718e-17 2.94216e-17)
(0.640286 -4.35751e-17 1.43518e-17)
(0.640286 1.06894e-17 2.76994e-17)
(0.644476 -4.35484e-17 1.50526e-17)
(0.644476 9.38304e-18 2.58671e-17)
(0.648612 -4.48094e-17 1.58645e-17)
(0.648612 8.94627e-18 2.39595e-17)
(0.652695 -4.58055e-17 1.66627e-17)
(0.652695 7.77552e-18 2.20434e-17)
(0.656729 -4.75413e-17 1.74655e-17)
(0.656729 7.61064e-18 2.02163e-17)
(0.660714 -5.04256e-17 1.81809e-17)
(0.660714 6.70731e-18 1.84474e-17)
(0.664652 -5.24045e-17 1.88049e-17)
(0.664652 6.58043e-18 1.6708e-17)
(0.668546 -5.40497e-17 1.93735e-17)
(0.668546 6.01084e-18 1.51073e-17)
(0.672397 -5.4554e-17 1.99937e-17)
(0.672397 5.30092e-18 1.35136e-17)
(0.676206 -5.65262e-17 2.08463e-17)
(0.676206 2.45761e-18 1.18363e-17)
(0.679974 -5.87071e-17 2.1524e-17)
(0.679974 8.90135e-20 1.02831e-17)
(0.683705 -5.91372e-17 2.21736e-17)
(0.683705 1.76024e-18 8.74854e-18)
(0.687397 -6.00014e-17 2.29255e-17)
(0.687397 1.14613e-18 7.0849e-18)
(0.691054 -6.19005e-17 2.36998e-17)
(0.691054 1.90103e-18 5.38029e-18)
(0.694676 -6.3712e-17 2.43068e-17)
(0.694676 2.57059e-18 3.79256e-18)
(0.698264 -6.37582e-17 2.48871e-17)
(0.698264 7.08438e-19 2.22574e-18)
(0.70182 -6.31695e-17 2.54349e-17)
(0.70182 1.06371e-18 6.67318e-19)
(0.705344 -6.27752e-17 2.60116e-17)
(0.705344 3.5511e-18 -8.09703e-19)
(0.708838 -6.1075e-17 2.6658e-17)
(0.708838 2.95546e-18 -2.14188e-18)
(0.712302 -6.07741e-17 2.7328e-17)
(0.712302 2.44872e-18 -3.3616e-18)
(0.715738 -6.18475e-17 2.80744e-17)
(0.715738 1.97401e-18 -4.55438e-18)
(0.719146 -6.36744e-17 2.89434e-17)
(0.719146 1.1746e-19 -5.72905e-18)
(0.722528 -6.64377e-17 2.9699e-17)
(0.722528 -8.2356e-20 -6.84216e-18)
(0.725884 -6.72149e-17 3.04768e-17)
(0.725884 2.08381e-19 -7.75056e-18)
(0.729214 -6.8965e-17 3.14872e-17)
(0.729214 -2.51399e-18 -8.65182e-18)
(0.732521 -7.18596e-17 3.25425e-17)
(0.732521 -4.86116e-18 -9.76877e-18)
(0.735804 -7.31804e-17 3.35215e-17)
(0.735804 -2.10837e-18 -1.08503e-17)
(0.739063 -7.63863e-17 3.44802e-17)
(0.739063 1.20041e-18 -1.18833e-17)
(0.742301 -8.09656e-17 3.51246e-17)
(0.742301 8.98705e-19 -1.27117e-17)
(0.745518 -8.29731e-17 3.55604e-17)
(0.745518 5.9404e-19 -1.33734e-17)
(0.748713 -8.45517e-17 3.5938e-17)
(0.748713 1.57417e-18 -1.39697e-17)
(0.751888 -8.4955e-17 3.60557e-17)
(0.751888 -2.73109e-19 -1.43847e-17)
(0.755044 -8.55964e-17 3.61431e-17)
(0.755044 -6.56433e-19 -1.46341e-17)
(0.75818 -8.69959e-17 3.6342e-17)
(0.75818 -9.02922e-19 -1.48254e-17)
(0.761298 -8.845e-17 3.64352e-17)
(0.761298 -4.63341e-18 -1.47968e-17)
(0.764398 -8.87314e-17 3.61628e-17)
(0.764398 -6.32189e-18 -1.46304e-17)
(0.76748 -8.886e-17 3.61503e-17)
(0.76748 -5.39118e-18 -1.46195e-17)
(0.770545 -8.9993e-17 3.6008e-17)
(0.770545 -7.48022e-18 -1.44098e-17)
(0.773594 -8.99325e-17 3.57871e-17)
(0.773594 -8.22405e-18 -1.40472e-17)
(0.776627 -9.09334e-17 3.53832e-17)
(0.776627 -8.25652e-18 -1.34802e-17)
(0.779644 -9.29556e-17 3.50234e-17)
(0.779644 -9.40697e-18 -1.3007e-17)
(0.782646 -9.69678e-17 3.49062e-17)
(0.782646 -1.09351e-17 -1.22413e-17)
(0.785633 -9.9977e-17 3.4341e-17)
(0.785633 -9.58048e-18 -1.10283e-17)
(0.788605 -1.00545e-16 3.37559e-17)
(0.788605 -6.56639e-18 -9.34104e-18)
(0.791564 -9.99286e-17 3.31801e-17)
(0.791564 -7.85925e-18 -7.46677e-18)
(0.794508 -9.82403e-17 3.29201e-17)
(0.794508 -9.39656e-18 -5.37342e-18)
(0.79744 -9.84042e-17 3.28268e-17)
(0.79744 -9.51583e-18 -3.35586e-18)
(0.800359 -9.55225e-17 3.24218e-17)
(0.800359 -1.07928e-17 -8.57447e-19)
(0.803265 -9.11668e-17 3.24916e-17)
(0.803265 -1.14947e-17 2.32665e-18)
(0.806158 -9.49383e-17 3.2538e-17)
(0.806158 -1.43536e-17 6.38354e-18)
(0.80904 -9.92972e-17 3.14912e-17)
(0.80904 -1.6954e-17 1.16959e-17)
(0.81191 -9.78657e-17 3.00791e-17)
(0.81191 -1.79652e-17 1.71615e-17)
(0.814769 -9.64704e-17 2.8418e-17)
(0.814769 -1.97059e-17 2.24465e-17)
(0.817616 -9.64131e-17 2.74203e-17)
(0.817616 -2.00417e-17 2.7343e-17)
(0.820453 -9.84257e-17 2.61932e-17)
(0.820453 -1.83554e-17 3.16658e-17)
(0.823279 -1.00291e-16 2.40892e-17)
(0.823279 -1.62911e-17 3.60334e-17)
(0.826095 -1.02712e-16 2.18783e-17)
(0.826095 -1.21309e-17 3.96423e-17)
(0.828901 -1.04199e-16 1.88912e-17)
(0.828901 -1.21959e-17 4.32449e-17)
(0.831697 -9.80431e-17 1.60119e-17)
(0.831697 -2.04829e-17 4.63332e-17)
(0.834483 -9.19846e-17 1.41901e-17)
(0.834483 -2.26416e-17 4.86539e-17)
(0.83726 -9.27698e-17 1.2913e-17)
(0.83726 -1.90746e-17 5.01872e-17)
(0.840028 -9.22434e-17 1.10666e-17)
(0.840028 -1.87283e-17 5.19967e-17)
(0.842787 -9.11908e-17 9.84725e-18)
(0.842787 -2.0249e-17 5.33182e-17)
(0.845538 -9.02786e-17 9.46029e-18)
(0.845538 -1.91255e-17 5.414e-17)
(0.848279 -8.81638e-17 9.99243e-18)
(0.848279 -1.84704e-17 5.39883e-17)
(0.851013 -9.2752e-17 1.13561e-17)
(0.851013 -2.02796e-17 5.32397e-17)
(0.853738 -9.98656e-17 1.2507e-17)
(0.853738 -2.00409e-17 5.32047e-17)
(0.856455 -1.03921e-16 1.37789e-17)
(0.856455 -1.71399e-17 5.25246e-17)
(0.859164 -1.09161e-16 1.56821e-17)
(0.859164 -1.45815e-17 5.09253e-17)
(0.861866 -1.15481e-16 1.73564e-17)
(0.861866 -1.27128e-17 4.89656e-17)
(0.86456 -1.19943e-16 1.88021e-17)
(0.86456 -1.16128e-17 4.66283e-17)
(0.867247 -1.25369e-16 1.92328e-17)
(0.867247 -1.55468e-17 4.39436e-17)
(0.869927 -1.28242e-16 1.93968e-17)
(0.869927 -1.50197e-17 4.04114e-17)
(0.8726 -1.29053e-16 1.999e-17)
(0.8726 -1.06812e-17 3.67936e-17)
(0.875265 -1.27719e-16 1.9103e-17)
(0.875265 -1.24678e-17 3.4464e-17)
(0.877924 -1.23315e-16 1.85615e-17)
(0.877924 -1.31633e-17 3.17511e-17)
(0.880577 -1.21921e-16 1.7746e-17)
(0.880577 -1.43311e-17 2.80571e-17)
(0.883222 -1.22291e-16 1.69872e-17)
(0.883222 -1.54833e-17 2.47793e-17)
(0.885861 -1.23493e-16 1.62234e-17)
(0.885861 -1.73294e-17 2.21678e-17)
(0.888494 -1.21085e-16 1.59953e-17)
(0.888494 -2.35492e-17 1.65972e-17)
(0.891121 -1.20195e-16 1.70806e-17)
(0.891121 -2.04147e-17 3.43237e-18)
(0.893741 -1.28675e-16 1.57906e-17)
(0.893741 -2.842e-17 -4.86435e-18)
(0.896356 -1.37844e-16 1.33942e-17)
(0.896356 -3.77699e-17 -4.58001e-18)
(0.898964 -1.34588e-16 1.09693e-17)
(0.898964 -2.30935e-17 -4.67924e-18)
(0.901567 -1.26114e-16 1.03434e-17)
(0.901567 -2.37339e-17 -5.772e-18)
(0.904164 -1.24156e-16 1.18794e-17)
(0.904164 -3.06753e-17 -9.29467e-18)
(0.906755 -1.29038e-16 1.29659e-17)