/*--------------------------------*- C++ -*----------------------------------*\
| =========                 |                                                 |
| \\      /  F ield         | OpenFOAM: The Open Source CFD Toolbox           |
|  \\    /   O peration     | Version:  2106                                  |
|   \\  /    A nd           | Website:  www.openfoam.com                      |
|    \\/     M anipulation  |                                                 |
\*---------------------------------------------------------------------------*/
FoamFile
{
    version     2.0;
    format      ascii;
    arch        "LSB;label=32;scalar=64";
    class       volTensorField;
    location    "10100";
    object      grad(U);
}
// * * * * * * * * * * * * * * * * * * * * * * * * * * * * * * * * * * * * * //

dimensions      [0 0 -1 0 0 0 0];

internalField   nonuniform List<tensor> 
2000
(
(0 -2.45842e-25 -1.43692e-27 10.5584 -2.73374e-12 -1.97314e-13 0.0195416 -2.52712e-15 -1.38313e-16)
(0 -2.74447e-28 -4.53984e-27 10.5584 0 -3.32452e-14 0.0195416 -6.86119e-29 -3.07573e-17)
(-1.4041e-17 0 7.15796e-31 10.5565 0 -5.18929e-14 0.0589824 -6.31089e-30 -1.95655e-16)
(0 -3.83106e-29 -5.98603e-31 10.5565 -4.06756e-15 -4.88891e-14 0.0589824 -9.32875e-18 -2.05921e-16)
(-2.4049e-18 -3.13405e-30 6.63747e-32 10.5545 3.01109e-12 -2.47752e-14 0.0818227 -1.94496e-14 -1.84865e-16)
(0 6.26809e-30 0 10.5545 -3.44774e-15 -4.00106e-15 0.0818227 -1.49686e-17 -2.13502e-16)
(-7.87282e-18 -8.57877e-27 7.14437e-32 10.5524 7.06909e-28 -2.40018e-14 0.0833335 0 -1.90812e-16)
(3.14913e-17 6.15323e-30 0 10.5524 -4.16152e-15 -4.01741e-15 0.0833335 -2.38528e-17 -2.21257e-16)
(0 6.04048e-30 1.88765e-31 10.5503 7.33812e-14 -2.44987e-14 0.0848718 -1.28619e-15 -1.99827e-16)
(0 -3.02024e-30 0 10.5503 -4.17613e-15 -4.03077e-15 0.0848718 -3.29652e-17 -2.29186e-16)
(-2.60795e-17 1.18596e-29 5.55917e-31 10.5481 -1.36957e-14 -2.50961e-14 0.086438 -9.26204e-17 -2.07794e-16)
(-5.03748e-17 -1.18596e-29 -5.55917e-31 10.5481 -4.21202e-15 -4.04151e-15 0.086438 -4.22612e-17 -2.37284e-16)
(0 -6.14663e-29 -1.8191e-31 10.5459 -1.37272e-27 -2.56117e-14 0.0880326 3.15544e-30 -2.15965e-16)
(9.95605e-17 8.73169e-30 1.8191e-31 10.5459 -4.23318e-15 -4.04925e-15 0.0880326 -5.17982e-17 -2.45553e-16)
(0 0 0 10.5436 1.0243e-14 -2.61571e-14 0.0896561 -8.04696e-17 -2.249e-16)
(2.46186e-16 2.85723e-30 1.78577e-31 10.5436 -4.23281e-15 -4.05401e-15 0.0896561 -6.15056e-17 -2.53986e-16)
(-3.6765e-17 2.82105e-30 9.8668e-32 10.5412 9.47096e-15 -2.67527e-14 0.0913091 -9.22488e-17 -2.34424e-16)
(0 2.80487e-30 0 10.5412 -4.25806e-15 -4.05712e-15 0.0913091 -7.14268e-17 -2.62582e-16)
(0 -1.10139e-29 -5.16276e-31 10.5388 7.59638e-15 -2.73767e-14 0.092992 -7.01246e-17 -2.44387e-16)
(0 1.10139e-29 5.16276e-31 10.5388 -4.27281e-15 -4.05809e-15 0.092992 -8.16305e-17 -2.71345e-16)
(1.90208e-16 -2.43271e-29 -1.52045e-30 10.5363 7.03469e-15 -2.80162e-14 0.0947054 -6.26394e-17 -2.54756e-16)
(0 2.16241e-29 1.18257e-30 10.5363 -4.2203e-15 -4.05663e-15 0.0947054 -9.20221e-17 -2.80268e-16)
(5.54116e-17 5.14006e-30 5.45382e-31 10.5338 7.01335e-15 -2.86681e-14 0.0964498 -6.26684e-17 -2.65534e-16)
(2.21646e-16 -5.30696e-30 -6.63371e-31 10.5338 -4.18312e-15 -4.05427e-15 0.0964498 -1.02387e-16 -2.89349e-16)
(0 0 0 10.5312 7.09345e-15 -2.93317e-14 0.0982258 -6.46088e-17 -2.76736e-16)
(0 0 0 10.5312 -4.24094e-15 -4.05082e-15 0.0982258 -1.132e-16 -2.98592e-16)
(-1.58393e-16 2.07166e-29 1.73057e-30 10.5286 7.14714e-15 -3.0007e-14 0.100034 -6.65243e-17 -2.88375e-16)
(0 -1.53427e-29 -1.27856e-30 10.5286 -4.24331e-15 -4.04419e-15 0.100034 -1.24358e-16 -3.07999e-16)
(-1.6343e-16 1.03458e-29 1.08139e-30 10.5259 7.1693e-15 -3.06941e-14 0.101875 -6.80639e-17 -3.00465e-16)
(0 0 0 10.5259 -4.23886e-15 -4.03639e-15 0.101875 -1.356e-16 -3.17555e-16)
(3.42028e-16 -1.26702e-29 -1.07216e-30 10.5231 7.15708e-15 -3.13931e-14 0.103749 -6.946e-17 -3.13027e-16)
(-5.01076e-16 7.3928e-30 3.08033e-31 10.5231 -4.38578e-15 -4.02708e-15 0.103749 -1.47147e-16 -3.27273e-16)
(0 -4.83822e-30 -3.02389e-31 10.5202 7.19731e-15 -3.21044e-14 0.105656 -7.03877e-17 -3.26076e-16)
(0 4.83822e-30 3.02389e-31 10.5202 -4.44042e-15 -4.01302e-15 0.105656 -1.59416e-16 -3.37142e-16)
(1.91827e-16 -2.93664e-29 -1.51776e-30 10.5173 7.32755e-15 -3.28277e-14 0.107599 -7.28855e-17 -3.39626e-16)
(3.83653e-16 1.89982e-29 8.90543e-31 10.5173 -4.43557e-15 -3.99614e-15 0.107599 -1.71823e-16 -3.47149e-16)
(-1.03105e-16 7.46962e-30 4.65728e-31 10.5144 7.42464e-15 -3.35631e-14 0.109576 -7.57053e-17 -3.53693e-16)
(-1.64048e-16 0 0 10.5144 -4.57533e-15 -3.97692e-15 0.109576 -1.84785e-16 -3.57297e-16)
(1.10429e-16 -1.19591e-29 -7.55993e-31 10.5113 7.45737e-15 -3.43111e-14 0.111589 -7.76559e-17 -3.68308e-16)
(4.41716e-16 1.14427e-29 5.72136e-31 10.5113 -4.56674e-15 -3.95362e-15 0.111589 -1.98925e-16 -3.67578e-16)
(-1.17888e-16 -1.6904e-30 1.93812e-31 10.5082 7.45043e-15 -3.50725e-14 0.113637 -7.9253e-17 -3.83491e-16)
(9.43102e-16 4.49321e-30 0 10.5082 -4.42593e-15 -3.92717e-15 0.113637 -2.12485e-16 -3.77984e-16)
(-1.55194e-16 8.82175e-30 2.7568e-31 10.505 7.48917e-15 -3.58471e-14 0.115723 -8.04321e-17 -3.99255e-16)
(5.01934e-16 -4.41088e-30 0 10.505 -4.43606e-15 -3.90042e-15 0.115723 -2.25849e-16 -3.88501e-16)
(1.5235e-16 -8.6601e-30 -5.41256e-31 10.5018 7.5157e-15 -3.20054e-14 0.117846 -8.30931e-17 -3.11707e-16)
(5.32875e-16 8.6601e-30 5.41256e-31 10.5018 -4.4523e-15 -3.87217e-15 0.117846 -2.40228e-16 -3.99141e-16)
(0 1.27521e-29 1.06268e-30 10.4984 7.46853e-15 -1.9337e-14 0.120008 -8.40583e-17 -1.24628e-16)
(5.64384e-16 -8.5014e-30 -5.31338e-31 10.4984 -4.40246e-15 -3.84087e-15 0.120008 -2.54955e-16 -4.09895e-16)
(-1.49118e-16 -1.37878e-30 -2.52923e-31 10.495 7.53731e-15 -1.09223e-14 0.122208 -8.51458e-17 -1.27454e-16)
(0 8.34562e-30 1.0432e-30 10.495 -4.39406e-15 -3.80807e-15 0.122208 -2.69648e-16 -4.20757e-16)
(0 -2.04817e-29 -1.53613e-30 10.4915 7.582e-15 -1.0975e-14 0.124447 -8.88278e-17 -1.30573e-16)
(6.29148e-16 2.04817e-29 1.53613e-30 10.4915 -4.38015e-15 -3.77248e-15 0.124447 -2.84779e-16 -4.31715e-16)
(-1.65606e-16 -1.232e-30 -7.30059e-31 10.488 7.41423e-15 -1.10268e-14 0.126726 -8.94147e-17 -1.33511e-16)
(0 4.02128e-30 1.00532e-30 10.488 -4.28826e-15 -3.73634e-15 0.126726 -3.00596e-16 -4.4276e-16)
(-1.74077e-16 6.73496e-30 2.78669e-31 10.4843 7.31167e-15 -1.10772e-14 0.129046 -8.81199e-17 -1.36733e-16)
(0 0 4.93449e-31 10.4843 -4.1262e-15 -3.70235e-15 0.129046 -3.16554e-16 -4.53897e-16)
(0 7.75051e-30 9.68813e-31 10.4805 7.46707e-15 -1.11354e-14 0.131408 -9.02589e-17 -1.40002e-16)
(0 -3.87525e-30 -4.84407e-31 10.4805 -4.20767e-15 -3.67013e-15 0.131408 -3.31811e-16 -4.6513e-16)
(-4.59188e-16 3.32157e-29 2.18783e-30 10.4767 7.70217e-15 -1.12113e-14 0.133811 -9.53379e-17 -1.43824e-16)
(-7.65955e-16 -2.66297e-29 -1.42659e-30 10.4767 -4.26657e-15 -3.63304e-15 0.133811 -3.48346e-16 -4.76487e-16)
(2.00434e-16 9.55732e-31 -2.89393e-31 10.4728 7.83044e-15 -1.12947e-14 0.136257 -9.96668e-17 -1.47449e-16)
(5.38943e-16 -3.73453e-30 4.66816e-31 10.4728 -4.10628e-15 -3.5906e-15 0.136257 -3.64094e-16 -4.87922e-16)
(-2.57978e-16 7.33219e-30 4.58262e-31 10.4687 7.87219e-15 -1.13764e-14 0.138746 -1.02269e-16 -1.51409e-16)
(0 -3.66609e-30 0 10.4687 -4.28632e-15 -3.54316e-15 0.138746 -3.78696e-16 -4.99442e-16)
(-2.1882e-16 6.37239e-30 1.19674e-30 10.4646 7.74726e-15 -1.14756e-14 0.141279 -1.04529e-16 -1.55683e-16)
(0 -3.59891e-30 -8.99729e-31 10.4646 -4.46935e-15 -3.4923e-15 0.141279 -3.95398e-16 -5.10979e-16)
(-2.28265e-16 -7.61707e-31 -5.82231e-31 10.4603 7.56342e-15 -1.15819e-14 0.143857 -1.02748e-16 -1.60039e-16)
(0 7.06593e-30 8.83241e-31 10.4603 -4.26042e-15 -3.44036e-15 0.143857 -4.13095e-16 -5.22578e-16)
(0 -1.04047e-29 -1.30058e-30 10.4559 7.55614e-15 -1.16901e-14 0.14648 -1.03411e-16 -1.64582e-16)
(9.51532e-16 1.04047e-29 1.30058e-30 10.4559 -4.08328e-15 -3.38923e-15 0.14648 -4.29703e-16 -5.34164e-16)
(-2.39582e-16 1.0214e-29 8.51168e-31 10.4514 7.76756e-15 -1.17996e-14 0.149149 -1.06416e-16 -1.69195e-16)
(0 -3.40467e-30 0 10.4514 -4.17816e-15 -3.33986e-15 0.149149 -4.47501e-16 -5.458e-16)
(-2.12735e-16 5.80405e-31 1.04075e-31 10.4468 7.97161e-15 -1.19279e-14 0.151864 -1.13343e-16 -1.74517e-16)
(1.0306e-15 -3.34228e-30 0 10.4468 -4.36901e-15 -3.2844e-15 0.151864 -4.66258e-16 -5.57468e-16)
(-2.67803e-16 -1.03656e-29 -1.32235e-30 10.442 7.94747e-15 -1.20824e-14 0.154627 -1.1636e-16 -1.80147e-16)
(1.07121e-15 1.31241e-29 1.64052e-30 10.442 -4.7205e-15 -3.22336e-15 0.154627 -4.85547e-16 -5.69105e-16)
(1.7516e-16 -1.01281e-29 -8.85001e-31 10.437 8.02167e-15 -1.22317e-14 0.157438 -1.16899e-16 -1.85599e-16)
(-4.53303e-16 1.28836e-29 2.01307e-30 10.437 -4.87687e-15 -3.15519e-15 0.157438 -5.08023e-16 -5.80769e-16)
(-4.44996e-16 2.21332e-29 1.97618e-30 10.4319 8.07817e-15 -1.23907e-14 0.160296 -1.22983e-16 -1.91822e-16)
(1.59968e-15 -2.21332e-29 -1.97618e-30 10.4319 -4.69971e-15 -3.08707e-15 0.160296 -5.28837e-16 -5.9232e-16)
(-5.9878e-16 1.79137e-29 1.44094e-30 10.4266 7.98691e-15 -1.25845e-14 0.163204 -1.23041e-16 -1.98661e-16)
(1.19756e-15 -6.2079e-30 -7.75987e-31 10.4266 -4.79245e-15 -3.01906e-15 0.163204 -5.48991e-16 -6.03832e-16)
(4.28837e-16 -9.14121e-30 -7.61767e-31 10.4211 7.8932e-15 -9.40584e-15 0.166161 -1.2476e-16 -9.76579e-17)
(0 9.14121e-30 7.61767e-31 10.4211 -4.70798e-15 -2.94186e-15 0.166161 -5.73506e-16 -6.15309e-16)
(0 -8.9737e-30 -7.47808e-31 10.4154 7.65177e-15 -4.87604e-15 0.169168 -1.24688e-16 -5.8958e-17)
(0 8.9737e-30 7.47808e-31 10.4154 -4.33459e-15 -2.86758e-15 0.169168 -5.95376e-16 -6.26654e-16)
(-3.32731e-16 1.15494e-29 1.09586e-30 10.4094 7.59741e-15 -3.58915e-15 0.172225 -1.21616e-16 -5.8742e-17)
(-1.33092e-15 -5.87284e-30 -7.34105e-31 10.4094 -4.08428e-15 -2.80224e-15 0.172225 -6.16344e-16 -6.37913e-16)
(3.4425e-16 5.91144e-30 3.57686e-31 10.4032 7.80666e-15 -3.51894e-15 0.175333 -1.27587e-16 -5.88125e-17)
(1.377e-15 -2.88261e-30 0 10.4032 -4.12318e-15 -2.73514e-15 0.175333 -6.35117e-16 -6.49121e-16)
(3.55978e-16 8.58658e-30 1.75815e-30 10.3967 7.77055e-15 -3.45681e-15 0.178491 -1.33255e-16 -5.88214e-17)
(-1.42391e-15 -1.13192e-29 -2.12234e-30 10.3967 -4.47723e-15 -2.66209e-15 0.178491 -6.54118e-16 -6.6025e-16)
(2.30417e-17 -2.82601e-30 3.65392e-31 10.3898 7.58218e-15 -3.4015e-15 0.1817 -1.31155e-16 -5.90935e-17)
(1.47167e-15 5.55587e-30 0 10.3898 -4.40216e-15 -2.58944e-15 0.1817 -6.80196e-16 -6.71228e-16)
(0 -1.09081e-29 -1.36351e-30 10.3826 7.78954e-15 -3.3765e-15 0.184961 -1.31685e-16 -6.01467e-17)
(3.04058e-15 1.09081e-29 2.04527e-30 10.3826 -3.97244e-15 -2.51721e-15 0.184961 -7.03807e-16 -6.82046e-16)
(3.92448e-16 -2.14606e-29 -2.37547e-30 10.3751 7.97564e-15 -3.36309e-15 0.188272 -1.43487e-16 -6.08335e-17)
(1.56979e-15 1.60623e-29 2.00779e-30 10.3751 -4.00623e-15 -2.44681e-15 0.188272 -7.24467e-16 -6.92744e-16)
(-4.05045e-16 1.32296e-29 1.02594e-30 10.367 7.80736e-15 -3.33042e-15 0.191634 -1.43404e-16 -6.12047e-17)
(-1.99004e-15 -7.884e-30 0 10.367 -4.2421e-15 -2.36207e-15 0.191634 -7.48684e-16 -7.03464e-16)
(7.26161e-16 -7.73953e-30 -6.44961e-31 10.3585 7.85693e-15 -3.29683e-15 0.195046 -1.42671e-16 -6.18604e-17)
(0 7.73953e-30 6.44961e-31 10.3585 -4.24168e-15 -2.25866e-15 0.195046 -7.72236e-16 -7.13863e-16)
(-1.85663e-15 2.04371e-29 2.90386e-30 10.3495 7.95969e-15 -3.30792e-15 0.198508 -1.50675e-16 -6.39368e-17)
(0 -1.26628e-29 -6.33142e-31 10.3495 -4.26755e-15 -2.15761e-15 0.198508 -7.94188e-16 -7.23832e-16)
(0 -1.24308e-29 -6.2154e-31 10.3399 7.93148e-15 -3.32228e-15 0.202019 -1.5199e-16 -6.47528e-17)
(0 1.24308e-29 6.2154e-31 10.3399 -4.23397e-15 -2.05556e-15 0.202019 -8.23185e-16 -7.33557e-16)
(0 1.2203e-29 1.2203e-30 10.3296 8.23879e-15 -3.31281e-15 0.205578 -1.5525e-16 -6.59688e-17)
(-1.83093e-15 -1.70842e-29 -2.4406e-30 10.3296 -4.28999e-15 -1.95175e-15 0.205578 -8.51592e-16 -7.42944e-16)
(-2.02882e-16 1.16809e-29 8.22606e-31 10.3185 8.50142e-15 -3.319e-15 0.209184 -1.69956e-16 -6.74439e-17)
(-6.7438e-16 -9.58351e-30 -5.98969e-31 10.3185 -4.42667e-15 -1.84401e-15 0.209184 -8.78149e-16 -7.51948e-16)
(-4.85506e-16 -4.36615e-30 3.76767e-31 10.3067 8.21371e-15 -3.32867e-15 0.212835 -1.71755e-16 -6.88543e-17)
(0 1.17599e-29 5.87994e-31 10.3067 -4.44824e-15 -1.73426e-15 0.212835 -9.10064e-16 -7.60547e-16)
(-9.99524e-16 -8.48008e-30 -9.75478e-31 10.2939 8.06685e-15 -3.36507e-15 0.216529 -1.6447e-16 -7.15175e-17)
(1.99905e-15 6.92663e-30 1.15444e-30 10.2939 -4.44938e-15 -1.61132e-15 0.216529 -9.41075e-16 -7.68805e-16)
(-5.14268e-16 -1.85215e-30 3.79608e-31 10.2801 8.18572e-15 -3.41566e-15 0.220263 -1.72044e-16 -7.36184e-17)
(0 4.53313e-30 0 10.2801 -4.57108e-15 -1.4809e-15 0.220263 -9.6998e-16 -7.76462e-16)
(-1.68435e-15 1.64769e-29 2.98761e-30 10.2652 8.28319e-15 -3.43985e-15 0.224036 -1.75766e-16 -7.5269e-17)
(-1.48982e-15 -1.11252e-29 -2.22503e-30 10.2652 -4.95418e-15 -2.72647e-15 0.224036 -1.00421e-15 -7.83604e-16)
(5.44046e-16 6.06662e-30 1.25502e-30 10.249 8.33772e-15 -3.43283e-15 0.227844 -1.82785e-16 -7.60801e-17)
(-2.17618e-15 -1.31056e-29 -2.18426e-30 10.249 -4.70916e-15 -4.14761e-15 0.227844 -1.04157e-15 -8.05107e-16)
(0 4.28847e-30 1.07212e-30 10.2315 8.06667e-15 -3.41167e-15 0.231684 -1.84815e-16 -7.71462e-17)
(0 0 0 10.2315 -3.70931e-15 -4.30726e-15 0.231684 -1.07616e-15 -8.26427e-16)
(-1.14973e-15 -7.30603e-30 -8.05043e-31 10.2124 7.77636e-15 -3.42858e-15 0.23555 -1.77386e-16 -7.97278e-17)
(4.5989e-15 8.41976e-30 1.05247e-30 10.2124 -3.28954e-15 -4.36544e-15 0.23555 -1.10331e-15 -8.33798e-16)
(-1.1723e-15 1.50558e-29 1.42217e-30 10.1917 7.80352e-15 -3.43208e-15 0.239438 -1.78375e-16 -8.02177e-17)
(2.9443e-15 -1.23982e-29 -1.03318e-30 10.1917 -3.86517e-15 -4.3878e-15 0.239438 -1.12838e-15 -8.40354e-16)
(0 -8.11401e-30 -1.01425e-30 10.1691 7.85475e-15 -3.38545e-15 0.243343 -1.85348e-16 -8.04978e-17)
(0 8.11401e-30 1.01425e-30 10.1691 -3.99001e-15 -4.42333e-15 0.243343 -1.15869e-15 -8.46277e-16)
(-1.18359e-15 1.06121e-29 1.38889e-30 10.1445 7.86185e-15 -3.3741e-15 0.247259 -1.87551e-16 -8.26868e-17)
(2.49233e-15 0 4.97833e-31 10.1445 -3.40696e-15 -4.45714e-15 0.247259 -1.18971e-15 -8.51945e-16)
(0 3.90968e-30 9.7742e-31 10.1176 7.3708e-15 -3.38859e-15 0.251178 -1.92679e-16 -8.42517e-17)
(0 0 -4.8871e-31 10.1176 -3.22633e-15 -4.42509e-15 0.251178 -1.21694e-15 -8.57044e-16)
(-6.56581e-16 6.47792e-30 2.31711e-30 10.0884 6.79558e-15 -3.32405e-15 0.255094 -1.70203e-16 -8.25337e-17)
(0 0 -9.59509e-31 10.0884 -3.12574e-15 -4.38856e-15 0.255094 -1.24251e-15 -8.60788e-16)
(-1.06051e-15 7.53541e-30 9.41926e-31 10.0565 6.53295e-15 -3.24022e-15 0.258997 -1.70806e-16 -8.31011e-17)
(0 -3.76771e-30 0 10.0565 -2.46026e-15 -4.39533e-15 0.258997 -1.27459e-15 -8.63673e-16)
(0 -1.47947e-29 -2.774e-30 10.0217 6.29027e-15 -3.12867e-15 0.262879 -1.63066e-16 -7.97811e-17)
(2.76469e-15 1.47947e-29 2.774e-30 10.0217 -2.39885e-15 -4.40599e-15 0.262879 -1.30249e-15 -8.66158e-16)
(-1.022e-15 1.81544e-29 2.72317e-30 9.98383 6.51809e-15 -3.0394e-15 0.266729 -1.64487e-16 -8.14532e-17)
(1.022e-15 -1.81544e-29 -2.72317e-30 9.98383 -3.34708e-15 -4.35865e-15 0.266729 -1.33007e-15 -8.68693e-16)
(-7.26858e-16 -9.43152e-31 -4.84121e-31 9.94264 6.72635e-15 -2.97738e-15 0.270538 -1.81408e-16 -7.94049e-17)
(2.90743e-15 7.1287e-30 1.78218e-30 9.94264 -3.51298e-15 -4.29571e-15 0.270538 -1.36668e-15 -8.70196e-16)
(0 -1.39961e-29 -1.74952e-30 9.89787 6.77284e-15 -2.86924e-15 0.274293 -1.82043e-16 -7.85147e-17)
(2.98044e-15 1.39961e-29 1.74952e-30 9.89787 -3.36232e-15 -4.24764e-15 0.274293 -1.40244e-15 -8.6749e-16)
(-7.6363e-16 1.97855e-29 2.98773e-30 9.84929 6.89103e-15 -2.73711e-15 0.277983 -1.90827e-16 -7.49193e-17)
(-3.05452e-15 -1.71746e-29 -2.57619e-30 9.84929 -4.04349e-15 -4.20033e-15 0.277983 -1.4394e-15 -8.62578e-16)
(0 -1.01159e-29 -8.42994e-31 9.79666 6.93665e-15 -2.48425e-15 0.281594 -1.95591e-16 -6.68962e-17)
(-3.12967e-15 1.01159e-29 8.42994e-31 9.79666 -4.36498e-15 -4.23631e-15 0.281594 -1.48445e-15 -8.57054e-16)
(-1.60294e-15 5.20417e-30 8.33434e-31 9.73974 6.89582e-15 -2.27813e-15 0.285115 -2.00647e-16 -6.56385e-17)
(3.20588e-15 0 0 9.73974 -4.19267e-15 -4.29245e-15 0.285115 -1.52053e-15 -8.52416e-16)
(-1.64156e-15 8.44383e-30 8.37153e-31 9.67831 6.96682e-15 -2.21884e-15 0.288531 -2.00564e-16 -6.587e-17)
(0 -3.24953e-30 0 9.67831 -4.0359e-15 -4.21109e-15 0.288531 -1.56462e-15 -8.46603e-16)
(1.7958e-15 -9.56994e-30 -2.39248e-30 9.61216 7.63956e-15 -2.15773e-15 0.291828 -2.12455e-16 -6.43878e-17)
(1.56557e-15 9.56994e-30 2.39248e-30 9.61216 -4.25253e-15 -4.0691e-15 0.291828 -1.60319e-15 -8.38869e-16)
(-1.7416e-15 2.13675e-29 3.55369e-30 9.5411 8.06509e-15 -2.0682e-15 0.294992 -2.49117e-16 -6.27946e-17)
(-3.44061e-15 -1.56576e-29 -2.34864e-30 9.5411 -4.22463e-15 -4.01045e-15 0.294992 -1.65484e-15 -8.29546e-16)
(8.80203e-16 -8.72101e-30 -1.96214e-30 9.46497 6.96844e-15 -1.88181e-15 0.29801 -2.46876e-16 -5.50278e-17)
(0 6.14828e-30 1.53707e-30 9.46497 -2.69724e-15 -3.95469e-15 0.29801 -1.70575e-15 -8.19565e-16)
(2.59936e-15 -8.61151e-30 -1.18233e-30 9.38362 5.60217e-15 -1.59073e-15 0.300868 -1.89159e-16 -4.64108e-17)
(-5.30081e-15 6.03561e-30 7.54452e-31 9.38362 -2.05868e-15 -3.86388e-15 0.300868 -1.72288e-15 -8.09097e-16)
(-1.84198e-15 1.4037e-29 3.04438e-30 9.29695 5.5257e-15 -3.37509e-15 0.303553 -1.68171e-16 -1.74186e-16)
(-8.33871e-16 -2.96251e-30 0 9.29695 -2.14477e-15 -5.73088e-15 0.303553 -1.76044e-15 -7.98929e-16)
(0 8.72466e-30 1.45411e-30 9.20488 6.03904e-15 -5.2427e-15 0.306051 -1.91269e-16 -1.72994e-16)
(0 -1.45411e-29 -1.45411e-30 9.20488 -2.47031e-15 -7.77626e-15 0.306051 -1.78601e-15 -8.19889e-16)
(-6.44558e-16 2.96263e-31 -4.22293e-31 9.10738 6.48504e-15 -4.96032e-15 0.308353 -2.08821e-16 -1.61523e-16)
(-7.70098e-15 -2.85493e-30 0 9.10738 -3.80135e-15 -7.89133e-15 0.308353 -1.82363e-15 -8.43163e-16)
(9.83729e-16 -1.0958e-29 -1.12419e-30 9.00447 6.3535e-15 -4.62244e-15 0.310446 -2.28844e-16 -1.56077e-16)
(0 8.40784e-30 7.00653e-31 9.00447 -3.46832e-15 -7.85885e-15 0.310446 -1.88395e-15 -8.68624e-16)
(1.54882e-15 -1.1005e-29 -2.06344e-30 8.8962 6.28485e-15 -4.39603e-15 0.312322 -2.07566e-16 -1.51612e-16)
(2.47122e-15 1.1005e-29 2.06344e-30 8.8962 -2.21107e-15 -7.82517e-15 0.312322 -1.91776e-15 -8.95674e-16)
(1.02645e-15 -2.53813e-30 -1.09966e-30 8.78267 6.83939e-15 -4.23971e-15 0.313973 -2.32617e-16 -1.50707e-16)
(4.10581e-15 5.40168e-30 6.7521e-31 8.78267 -2.8777e-15 -7.72655e-15 0.313973 -1.93907e-15 -9.23568e-16)
(8.89068e-16 -1.35064e-29 -1.80106e-30 8.66402 6.61902e-15 -4.02866e-15 0.315392 -2.553e-16 -1.41851e-16)
(0 1.06054e-29 1.98851e-30 8.66402 -4.38837e-15 -7.6202e-15 0.315392 -2.0006e-15 -9.5142e-16)
(-2.13952e-15 -1.05691e-29 -1.75385e-30 8.54046 6.81876e-15 -3.8187e-15 0.316575 -2.25226e-16 -1.40705e-16)
(4.27905e-15 1.56166e-29 1.95207e-30 8.54046 -4.02817e-15 -7.57303e-15 0.316575 -2.0512e-15 -9.81273e-16)
(1.0916e-15 -1.7839e-29 -2.97827e-30 8.4122 7.0749e-15 -3.76842e-15 0.317519 -2.79838e-16 -1.43371e-16)
(8.73279e-15 1.53304e-29 2.55507e-30 8.4122 -3.72086e-15 -7.39171e-15 0.317519 -2.06923e-15 -1.01004e-15)
(-1.11353e-15 -2.23361e-33 -8.30981e-31 8.27954 6.51157e-15 -3.67521e-15 0.318223 -2.53199e-16 -1.38784e-16)
(0 7.52474e-30 1.25412e-30 8.27954 -4.70293e-15 -7.12442e-15 0.318223 -2.12676e-15 -1.03562e-15)
(-2.2711e-15 5.00236e-30 8.44221e-31 8.14279 6.32503e-15 -3.56484e-15 0.318687 -2.46725e-16 -1.4006e-16)
(4.5422e-15 0 0 8.14279 -3.84311e-15 -6.86425e-15 0.318687 -2.19644e-15 -1.06197e-15)
(-1.15763e-15 2.49355e-30 4.21122e-31 8.00228 5.74781e-15 -3.53462e-15 0.318915 -2.48013e-16 -1.41583e-16)
(4.63053e-15 4.83433e-30 1.20858e-30 8.00228 -2.29926e-15 -6.50679e-15 0.318915 -2.22633e-15 -1.08498e-15)
(0 1.42372e-29 2.37287e-30 7.8584 5.29503e-15 -3.33353e-15 0.318909 -2.09601e-16 -1.28864e-16)
(0 -7.11861e-30 0 7.8584 -2.14262e-15 -6.25449e-15 0.318909 -2.25701e-15 -1.10514e-15)
(1.20192e-15 -9.47564e-30 -1.58695e-30 7.71153 5.62659e-15 -2.99822e-15 0.318676 -2.20267e-16 -1.18936e-16)
(4.80769e-15 6.98816e-30 1.16469e-30 7.71153 -2.35429e-15 -6.07849e-15 0.318676 -2.30051e-15 -1.1276e-15)
(1.2241e-15 -1.39114e-29 -2.70769e-30 7.56209 5.68322e-15 -2.8203e-15 0.318223 -2.45168e-16 -1.18595e-16)
(4.89639e-15 1.14335e-29 2.2867e-30 7.56209 -2.69524e-15 -5.82883e-15 0.318223 -2.32634e-15 -1.14857e-15)
(-1.24627e-15 2.47377e-30 4.19874e-31 7.41051 5.48619e-15 -2.74116e-15 0.317557 -2.33381e-16 -1.16564e-16)
(4.98509e-15 4.4896e-30 1.1224e-30 7.41051 -3.57212e-15 -5.61244e-15 0.317557 -2.34977e-15 -1.16776e-15)
(1.26843e-15 -1.12816e-29 -1.5209e-30 7.2572 5.19812e-15 -2.62697e-15 0.31669 -2.37345e-16 -1.12991e-16)
(0 8.81465e-30 1.10183e-30 7.2572 -3.7411e-15 -5.41785e-15 0.31669 -2.41574e-15 -1.18592e-15)
(-1.29055e-15 8.95382e-30 4.19513e-31 7.1026 5.04e-15 -2.3931e-15 0.315631 -2.16764e-16 -9.99417e-17)
(5.16219e-15 -2.16328e-30 0 7.1026 -3.22466e-15 -5.27424e-15 0.315631 -2.47091e-15 -1.2029e-15)
(1.31262e-15 -1.30739e-29 -1.48039e-30 6.94712 5.476e-15 -2.13389e-15 0.314391 -2.3208e-16 -9.35217e-17)
(0 1.06182e-29 1.06182e-30 6.94712 -3.45027e-15 -5.1348e-15 0.314391 -2.51626e-15 -1.2211e-15)
(-1.33463e-15 6.61231e-30 1.45945e-30 6.79116 5.53167e-15 -2.01617e-15 0.312983 -2.64842e-16 -9.2731e-17)
(5.33853e-15 0 0 6.79116 -2.52621e-15 -4.98448e-15 0.312983 -2.59821e-15 -1.23819e-15)
(1.35657e-15 5.74846e-30 6.08136e-31 6.63514 6.14611e-15 -1.96612e-15 0.311418 -2.46016e-16 -9.22911e-17)
(3.12209e-15 -4.09305e-30 1.02326e-30 6.63514 -1.03019e-15 -4.87563e-15 0.311418 -2.62967e-15 -1.25569e-15)
(0 4.01804e-30 1.00451e-30 6.47941 7.40737e-15 -1.91909e-15 0.309709 -3.33185e-16 -9.16754e-17)
(5.51365e-15 0 0 6.47941 -2.59117e-15 -4.74152e-15 0.309709 -2.63598e-15 -1.27655e-15)
(0 3.94441e-30 0 6.32434 6.96537e-15 -1.8587e-15 0.307868 -3.77324e-16 -8.98161e-17)
(-5.60064e-15 0 0 6.32434 -4.04032e-15 -4.79725e-15 0.307868 -2.70935e-15 -1.29777e-15)
(-2.17982e-15 1.16164e-29 9.68033e-31 6.17025 6.04895e-15 -1.84958e-15 0.305908 -3.02174e-16 -9.4214e-17)
(7.86699e-15 -1.16164e-29 -9.68033e-31 6.17025 -3.18225e-15 -4.87652e-15 0.305908 -2.74378e-15 -1.32513e-15)
(6.96566e-16 -9.01191e-30 -5.46482e-31 6.01744 6.21653e-15 -1.9423e-15 0.303841 -2.9953e-16 -1.02684e-16)
(0 1.52047e-29 9.50295e-31 6.01744 -3.12598e-15 -4.76254e-15 0.303841 -2.75709e-15 -1.34615e-15)
(-1.46469e-15 6.10977e-30 3.9944e-31 5.86621 6.13803e-15 -2.17119e-15 0.301678 -3.307e-16 -1.21612e-16)
(5.85876e-15 0 9.32881e-31 5.86621 -3.32673e-15 -4.62303e-15 0.301678 -2.82306e-15 -1.3747e-15)
(4.12433e-15 -3.66314e-30 -9.15786e-31 5.71679 5.60981e-15 -2.46201e-15 0.299432 -3.02637e-16 -1.3742e-16)
(0 7.32629e-30 9.15786e-31 5.71679 -4.44729e-15 -4.29907e-15 0.299432 -2.88256e-15 -1.39932e-15)
(0 1.07881e-29 8.99004e-31 5.56942 3.56403e-15 -2.54291e-15 0.297113 -2.87101e-16 -1.3494e-16)
(0 -3.59602e-30 0 5.56942 -3.02036e-15 -3.73932e-15 0.297113 -2.97528e-15 -1.41849e-15)
(3.51526e-15 -2.00414e-29 -2.16286e-30 5.42429 1.34913e-15 -2.29264e-15 0.294732 -9.28622e-17 -1.15036e-16)
(6.11193e-15 1.76506e-29 0 5.42429 7.52104e-16 -3.37188e-15 0.294732 -2.97928e-15 -1.42977e-15)
(-4.30383e-15 4.53354e-30 1.33608e-30 5.28158 1.93679e-15 -2.10544e-15 0.292298 -5.39879e-17 -1.19023e-16)
(6.19508e-15 0 0 5.28158 4.12831e-17 -3.29755e-15 0.292298 -2.96268e-15 -1.44564e-15)
(0 0 0 5.14143 2.09731e-15 -2.09473e-15 0.289822 -1.62289e-16 -1.18147e-16)
(6.27758e-15 3.40193e-30 1.70097e-30 5.14143 -1.31525e-15 -3.20856e-15 0.289822 -3.01401e-15 -1.4638e-15)
(-3.17971e-15 4.78075e-30 7.95787e-31 5.00398 1.33174e-15 -1.90828e-15 0.287311 -7.43675e-17 -1.01802e-16)
(6.35942e-15 0 0 5.00398 -7.53719e-16 -3.1325e-15 0.287311 -3.0189e-15 -1.4773e-15)
(1.61014e-15 -1.87779e-29 -2.03725e-30 4.86933 2.35702e-15 -1.69128e-15 0.284774 -7.92798e-17 -9.68645e-17)
(6.44057e-15 1.6392e-29 1.6392e-30 4.86933 -1.45941e-15 -2.86713e-15 0.284774 -3.02055e-15 -1.49249e-15)
(0 6.43664e-30 1.60916e-30 4.73755 4.17269e-15 -1.51993e-15 0.282218 -1.98757e-16 -8.49388e-17)
(-6.52103e-15 -6.43664e-30 -1.60916e-30 4.73755 -2.84637e-15 -2.46409e-15 0.282218 -3.06616e-15 -1.49997e-15)
(-1.77855e-15 0 1.57967e-30 4.60872 4.7691e-15 -1.27319e-15 0.279651 -3.01605e-16 -7.0151e-17)
(0 0 0 4.60872 -3.06218e-15 -2.43671e-15 0.279651 -3.13792e-15 -1.50864e-15)
(-3.33992e-15 2.0165e-29 2.34342e-30 4.48287 4.06921e-15 -1.26593e-15 0.277078 -2.79639e-16 -8.72301e-17)
(0 -1.55073e-29 -1.55073e-30 4.48287 -2.58029e-15 -2.41213e-15 0.277078 -3.19156e-15 -1.52944e-15)
(-1.68954e-15 5.37024e-30 3.94345e-31 4.36005 4.46372e-15 -1.41455e-15 0.274505 -2.25235e-16 -9.17715e-17)
(0 0 0 4.36005 -3.12707e-15 -2.1529e-15 0.274505 -3.20686e-15 -1.53534e-15)
(-1.68256e-15 1.49441e-29 2.98883e-30 4.24027 5.83908e-15 -1.26695e-15 0.271938 -3.40553e-16 -7.13174e-17)
(-6.83578e-15 -1.19553e-29 -1.49441e-30 4.24027 -4.2107e-15 -1.95742e-15 0.271938 -3.27961e-15 -1.53988e-15)
(3.45634e-15 -4.5615e-30 -7.95515e-31 4.12353 6.04417e-15 -9.84824e-16 0.26938 -4.12626e-16 -5.78467e-17)
(0 0 0 4.12353 -3.69205e-15 -2.09714e-15 0.26938 -3.37255e-15 -1.54625e-15)
(1.87297e-15 6.97862e-30 -7.87321e-31 4.00983 5.20751e-15 -1.05194e-15 0.266837 -3.80562e-16 -8.3064e-17)
(6.98886e-15 -1.44015e-29 0 4.00983 -2.7337e-15 -2.52664e-15 0.266837 -3.42303e-15 -1.5682e-15)
(-1.76608e-15 2.26749e-30 3.90068e-31 3.89915 4.83132e-15 -1.36748e-15 0.264312 -3.15242e-16 -1.03413e-16)
(7.06433e-15 5.65502e-30 0 3.89915 -3.3929e-15 -2.51562e-15 0.264312 -3.46283e-15 -1.59519e-15)
(3.56954e-15 -4.5033e-30 -7.89486e-31 3.79145 5.36417e-15 -1.14452e-15 0.261808 -3.43177e-16 -5.49653e-17)
(0 0 0 3.79145 -3.6853e-15 -2.28088e-15 0.261808 -3.51775e-15 -1.60912e-15)
(3.33722e-15 -7.67951e-30 -3.9108e-31 3.68672 4.86052e-15 -8.24981e-16 0.259328 -4.01755e-16 -6.17175e-17)
(7.21312e-15 5.44967e-30 0 3.68672 -3.8181e-15 -2.12267e-15 0.259328 -3.58173e-15 -1.62917e-15)
(-3.32745e-15 1.02613e-29 3.86857e-31 3.5849 4.1934e-15 -1.03093e-15 0.256875 -2.84248e-16 -8.69704e-17)
(0 -5.3498e-30 1.33745e-30 3.5849 -3.98548e-15 -2.08416e-15 0.256875 -3.69061e-15 -1.64837e-15)
(0 -2.62588e-30 1.31294e-30 3.48595 4.70299e-15 -1.34238e-15 0.25445 -3.19932e-16 -1.10155e-16)
(1.47182e-14 7.87765e-30 0 3.48595 -2.82239e-15 -2.19275e-15 0.25445 -3.74331e-15 -1.67078e-15)
(-1.85776e-15 -8.11043e-30 3.84092e-31 3.38983 4.91362e-15 -1.40825e-15 0.252057 -3.70408e-16 -1.00182e-16)
(-2.90231e-15 1.03111e-29 0 3.38983 -1.68894e-15 -2.39752e-15 0.252057 -3.79265e-15 -1.68757e-15)
(0 -1.01221e-29 0 3.29647 5.62158e-15 -1.41253e-15 0.249695 -3.63755e-16 -1.14964e-16)
(1.50047e-14 1.01221e-29 0 3.29647 -2.58092e-15 -2.82478e-15 0.249695 -3.82884e-15 -1.72637e-15)
(-1.89323e-15 1.45827e-29 3.7229e-31 3.20582 5.32928e-15 -1.74676e-15 0.247368 -4.93134e-16 -1.56265e-16)
(0 -1.24208e-29 0 3.20582 -5.65755e-15 -2.85846e-15 0.247368 -3.88311e-15 -1.77747e-15)
(2.74566e-15 -2.43864e-30 0 3.11782 3.75513e-15 -1.91653e-15 0.245074 -3.31716e-16 -1.46362e-16)
(7.64285e-15 2.43864e-30 0 3.11782 -4.87893e-15 -2.6708e-15 0.245074 -4.03948e-15 -1.82452e-15)
(1.92803e-15 -1.41382e-29 -3.62359e-31 3.0324 3.61128e-15 -2.23063e-15 0.242817 -2.60756e-16 -2.13163e-16)
(1.54243e-14 1.19697e-29 0 3.0324 -2.78918e-15 -2.45454e-15 0.242817 -4.07726e-15 -1.86439e-15)
(-1.94519e-15 2.14598e-30 3.56364e-31 2.94951 4.14419e-15 -2.97916e-15 0.240596 -3.20854e-16 -2.7571e-16)
(7.78076e-15 4.70016e-30 0 2.94951 -2.71193e-15 -1.70216e-15 0.240596 -4.12959e-15 -1.88121e-15)
(-3.23275e-15 4.79165e-30 7.86899e-31 2.86907 3.34913e-15 -3.05891e-15 0.238412 -3.58742e-16 -2.34634e-16)
(7.84875e-15 0 0 2.86907 -1.12054e-15 -1.23566e-15 0.238412 -4.16164e-15 -1.88037e-15)
(-3.95806e-15 1.33515e-29 7.38088e-31 2.79103 1.64361e-15 -2.73764e-15 0.236265 -1.9896e-16 -2.30948e-16)
(7.91611e-15 -4.52948e-30 2.26474e-30 2.79103 6.05413e-16 -1.27726e-15 0.236265 -4.14838e-15 -1.89755e-15)
(-2.50315e-15 -3.14836e-30 1.11162e-30 2.71531 1.83495e-15 -2.69777e-15 0.234155 -7.94782e-17 -2.36504e-16)
(1.59657e-14 8.89296e-30 0 2.71531 1.60425e-15 -1.33965e-15 0.234155 -4.14497e-15 -1.91194e-15)
(0 6.5475e-30 0 2.64186 2.42824e-15 -2.75866e-15 0.232083 -2.9041e-16 -2.50498e-16)
(8.049e-15 -2.1825e-30 2.1825e-30 2.64186 2.67102e-17 -1.11807e-15 0.232083 -4.13704e-15 -1.93458e-15)
(-2.02864e-15 4.28863e-30 3.85508e-31 2.5706 1.10335e-15 -2.26849e-15 0.230048 -1.36725e-16 -1.56468e-16)
(0 0 0 2.5706 -1.84516e-15 -8.0772e-16 0.230048 -4.17454e-15 -1.94917e-15)
(2.04488e-15 -2.17179e-30 -3.84194e-31 2.50148 1.33095e-15 -1.69852e-15 0.228051 -6.0937e-17 -1.54579e-16)
(0 -1.05162e-29 0 2.50148 -1.02911e-15 -3.8299e-16 0.228051 -4.21495e-15 -1.9765e-15)
(-2.32465e-15 6.19411e-30 0 2.43443 3.25714e-15 -1.52475e-15 0.226091 -3.12514e-16 -1.29644e-16)
(0 -2.0647e-30 0 2.43443 2.00365e-16 4.47287e-16 0.226091 -4.2176e-15 -1.98022e-15)
(-2.07693e-15 1.22365e-29 3.93186e-31 2.36938 2.86559e-15 -1.00686e-15 0.224168 -2.94969e-16 -6.10653e-17)
(0 -1.01343e-29 0 2.36938 -1.00362e-15 1.00484e-15 0.224168 -4.19347e-15 -1.96242e-15)
(-2.09274e-15 6.08576e-30 3.96276e-31 2.30629 2.46054e-15 -4.31359e-16 0.222282 -2.49184e-16 -2.20797e-17)
(-1.06112e-14 0 0 2.30629 -2.21397e-15 9.17416e-16 0.222282 -4.28337e-15 -1.95826e-15)
(-2.10843e-15 -1.79733e-30 3.50325e-45 2.24507 2.99338e-15 3.15614e-30 0.220431 -2.26939e-16 -3.9443e-31)
(1.68674e-14 7.81307e-30 0 2.24507 -8.64706e-16 5.27909e-16 0.220431 -4.27189e-15 -1.98253e-15)
(0 -7.6699e-30 0 2.18569 3.76545e-15 -2.12503e-17 0.218617 -3.64631e-16 -2.05836e-17)
(8.49589e-15 7.6699e-30 0 2.18569 -1.33475e-15 4.99089e-16 0.218617 -4.21702e-15 -2.01744e-15)
(-2.13939e-15 5.815e-30 8.75812e-47 2.12807 3.64315e-15 0 0.216837 -3.92033e-16 -3.9443e-31)
(6.43823e-15 -3.76467e-30 0 2.12807 -1.91927e-15 9.22109e-16 0.216837 -4.34246e-15 -2.03951e-15)
(0 7.39137e-30 2.73239e-31 2.07216 4.11149e-15 2.83122e-16 0.215093 -3.53112e-16 -1.47543e-17)
(6.53822e-15 0 0 2.07216 -1.44935e-15 9.40028e-16 0.215093 -4.42662e-15 -2.03261e-15)
(-2.16984e-15 -1.63514e-30 -1.4687e-30 2.01792 4.61792e-15 7.83073e-16 0.213382 -5.05344e-16 -1.06741e-16)
(4.59463e-15 7.25593e-30 1.81398e-30 2.01792 -2.06664e-15 7.12222e-16 0.213382 -4.50671e-15 -2.07197e-15)