/*--------------------------------*- C++ -*----------------------------------*\
| =========                 |                                                 |
| \\      /  F ield         | OpenFOAM: The Open Source CFD Toolbox           |
|  \\    /   O peration     | Version:  2106                                  |
|   \\  /    A nd           | Website:  www.openfoam.com                      |
|    \\/     M anipulation  |                                                 |
\*---------------------------------------------------------------------------*/
FoamFile
{
    version     2.0;
    format      ascii;
    arch        "LSB;label=32;scalar=64";
    class       volTensorField;
    location    "10100";
    object      grad(U);
}
// * * * * * * * * * * * * * * * * * * * * * * * * * * * * * * * * * * * * * //

dimensions      [0 0 -1 0 0 0 0];

internalField   nonuniform List<tensor> 
800
(
(-1.15363e-17 -9.13206e-28 -1.7247e-28 13.3705 -3.18473e-12 -2.6079e-42 0.0613706 -7.31445e-15 -1.76456e-48)
(0 6.55762e-30 1.02463e-31 13.3705 -1.01898e-15 5.83183e-18 0.0613706 -2.07487e-17 6.38961e-17)
(0 -2.16441e-26 1.05277e-28 13.3642 9.8998e-32 7.68632e-15 0.186976 -3.15544e-30 -2.07357e-17)
(0 -1.2916e-28 6.54601e-32 13.3642 0 3.40409e-30 0.186976 0 2.35845e-16)
(-5.97673e-18 -1.46034e-29 2.33401e-32 13.3576 2.37334e-13 5.09087e-15 0.275433 -6.00475e-15 -4.5441e-18)
(4.78138e-17 1.67302e-29 -2.33401e-32 13.3576 -6.95192e-16 4.82177e-17 0.275433 4.34221e-18 2.57427e-16)
(0 -4.56279e-30 -8.9117e-33 13.3507 1.07619e-13 6.51961e-15 0.288395 -3.49942e-15 2.65683e-17)
(0 4.56279e-30 8.9117e-33 13.3507 3.63948e-16 1.6947e-17 0.288395 7.12548e-18 2.79708e-16)
(-4.14188e-17 -1.68817e-30 3.40266e-32 13.3435 2.50616e-14 6.59787e-15 0.30196 -9.84641e-16 6.06041e-17)
(0 8.71081e-30 -5.10399e-32 13.3435 1.63365e-16 1.05339e-17 0.30196 5.09227e-18 3.02786e-16)
(0 1.24723e-29 -1.1368e-31 13.3359 -1.98011e-15 6.77364e-15 0.316154 -2.01885e-16 9.66583e-17)
(-2.41607e-16 -1.24723e-29 1.1368e-31 13.3359 -8.99983e-17 4.96708e-18 0.316154 1.43843e-17 3.26624e-16)
(-8.02781e-17 -4.60899e-29 -9.30113e-32 13.328 -2.34517e-15 7.20492e-15 0.331006 -2.84532e-17 1.37293e-16)
(0 -3.96848e-30 6.20075e-32 13.328 -2.41166e-16 -3.5838e-18 0.331006 1.66377e-17 3.5108e-16)
(-1.0109e-16 0 2.95946e-32 13.3196 2.20881e-28 7.69478e-15 0.346544 4.21102e-47 1.83596e-16)
(0 7.57621e-30 -8.87838e-32 13.3196 -3.44357e-16 -2.38064e-18 0.346544 1.82195e-17 3.76026e-16)
(-1.2288e-16 6.42288e-30 -5.73225e-32 13.3108 3.76365e-17 8.19307e-15 0.362799 -4.48354e-18 2.30217e-16)
(9.83044e-16 0 0 13.3108 -5.12013e-16 -5.17996e-18 0.362799 2.08101e-17 4.01393e-16)
(4.85767e-16 -2.8079e-30 1.07862e-31 13.3015 7.01974e-31 8.69418e-15 0.3798 -3.15544e-30 2.55493e-16)
(0 3.45158e-30 -5.3931e-32 13.3015 -9.30349e-16 -2.73173e-17 0.3798 2.33662e-17 4.27054e-16)
(2.31844e-16 -1.24244e-29 1.02959e-31 13.2916 5.31754e-16 9.20245e-15 0.397579 -7.77096e-18 2.83081e-16)
(-6.78328e-16 9.88411e-30 -1.02959e-31 13.2916 -1.32968e-15 -4.93604e-17 0.397579 2.06558e-17 4.52653e-16)
(-6.37203e-16 1.53823e-29 4.58251e-29 13.281 1.24961e-15 -3.9443e-31 0.416164 -3.16876e-17 4.93038e-32)
(7.78361e-16 -6.28991e-30 1.9656e-31 13.281 -1.41095e-15 -4.33977e-17 0.416164 1.36612e-17 4.78222e-16)
(0 6.00402e-30 -2.81438e-31 13.2694 1.42932e-15 -6.30376e-15 0.435584 -4.515e-17 1.36855e-16)
(8.8309e-16 -3.00201e-30 1.87626e-31 13.2694 -1.40815e-15 -5.36804e-17 0.435584 6.18109e-18 5.03867e-16)
(-6.51475e-16 1.42596e-29 -1.44903e-31 13.2567 1.79457e-15 -8.56371e-15 0.455863 -4.65808e-17 2.70672e-16)
(0 -5.73113e-30 8.95489e-32 13.2567 -1.75574e-15 -1.03708e-16 0.455863 -1.76184e-18 5.28772e-16)
(0 1.09413e-29 -2.13697e-31 13.2423 2.59627e-15 -9.21298e-15 0.477018 -7.46845e-17 2.79249e-16)
(-3.84962e-16 -8.20596e-30 1.28218e-31 13.2423 -2.53364e-15 -1.16403e-16 0.477018 -1.46108e-17 5.52485e-16)
(0 1.3055e-29 -8.15936e-32 13.2258 3.15692e-15 -9.87159e-15 0.499058 -1.08914e-16 2.03349e-16)
(-7.3493e-16 -7.83299e-30 4.07968e-32 13.2258 -3.13395e-15 -1.02017e-16 0.499058 -3.2448e-17 5.7622e-16)
(0 7.47696e-30 -5.84138e-32 13.2062 3.47382e-15 -1.05564e-14 0.521976 -1.24306e-16 1.1868e-16)
(0 -4.98464e-30 1.94713e-32 13.2062 -3.11801e-15 -1.41207e-16 0.521976 -5.14196e-17 5.99368e-16)
(-7.42579e-16 1.26809e-29 0 13.1824 4.50237e-15 -1.13191e-14 0.545744 -1.44604e-16 2.43682e-17)
(-1.48516e-15 -2.37904e-30 1.16164e-33 13.1824 -3.44093e-15 -2.4932e-16 0.545744 -7.11767e-17 6.21041e-16)
(-8.72659e-16 4.05775e-30 5.32245e-32 13.1528 5.6931e-15 -1.20932e-14 0.570302 -2.21673e-16 -8.16953e-17)
(-3.246e-15 0 -1.77415e-32 13.1528 -4.31462e-15 -3.05212e-16 0.570302 -1.08269e-16 6.39894e-16)
(-1.05197e-15 2.00831e-29 2.03221e-31 13.1154 5.814e-15 -1.28826e-14 0.595547 -2.62092e-16 -1.994e-16)
(6.10152e-16 -1.73416e-29 -2.03221e-31 13.1154 -4.82324e-15 -3.22088e-16 0.595547 -1.57602e-16 6.57233e-16)
(4.79566e-16 -1.5151e-29 -1.29323e-31 13.0673 5.6719e-15 -1.38181e-14 0.621322 -2.54283e-16 -3.30743e-16)
(-1.91827e-15 1.2415e-29 1.29323e-31 13.0673 -5.43582e-15 -4.00425e-16 0.621322 -2.09523e-16 6.71991e-16)
(5.55947e-16 -7.90049e-30 -2.4689e-31 13.005 5.90218e-15 -1.47949e-14 0.647394 -2.74104e-16 -4.80916e-16)
(2.07624e-15 7.90049e-30 2.4689e-31 13.005 -5.56122e-15 -3.33934e-16 0.647394 -2.7082e-16 6.83527e-16)
(-5.60368e-16 -1.05421e-30 -1.17834e-31 12.9242 6.73786e-15 -1.56363e-14 0.673446 -3.02064e-16 -6.50172e-16)
(6.72441e-15 3.7707e-30 1.17834e-31 12.9242 -5.17305e-15 -2.72668e-16 0.673446 -3.21363e-16 6.95766e-16)
(1.01312e-15 -1.07979e-29 -3.37436e-31 12.8196 7.84884e-15 -1.65641e-14 0.699061 -3.88229e-16 -8.38234e-16)
(0 1.07979e-29 4.49914e-31 12.8196 -5.60083e-15 -5.22584e-16 0.699061 -3.70619e-16 7.04801e-16)
(0 0 0 12.6856 8.48213e-15 -1.7561e-14 0.72372 -4.53238e-16 -1.03338e-15)
(-9.6707e-16 0 0 12.6856 -5.83144e-15 -7.56856e-16 0.72372 -4.48337e-16 7.04401e-16)
(6.95641e-16 -2.65055e-30 -2.15704e-32 12.5159 8.73095e-15 -1.84259e-14 0.746814 -4.9877e-16 -1.13307e-15)
(0 0 0 12.5159 -5.91816e-15 -8.39435e-16 0.746814 -5.3244e-16 6.97335e-16)
(8.81158e-16 -9.3915e-30 -7.82625e-31 12.3046 9.3778e-15 -1.93861e-14 0.76767 -5.27348e-16 -1.2551e-15)
(-8.81158e-16 9.3915e-30 7.82625e-31 12.3046 -7.14263e-15 -8.25598e-16 0.76767 -6.30701e-16 6.8168e-16)
(-1.63645e-15 8.57202e-30 8.17328e-31 12.0468 1.06735e-14 -2.00795e-14 0.785603 -6.28884e-16 -1.33504e-15)
(3.18138e-15 -2.98822e-30 -3.73527e-31 12.0468 -8.26006e-15 -6.97988e-16 0.785603 -7.46639e-16 6.59799e-16)
(-8.47863e-16 -1.17029e-29 -2.03786e-30 11.7392 1.12583e-14 -2.04124e-14 0.79998 -7.49756e-16 -1.42349e-15)
(5.17715e-15 1.4262e-29 2.1393e-30 11.7392 -8.73618e-15 -6.11968e-16 0.79998 -8.68806e-16 6.34691e-16)
(9.01941e-16 1.86402e-31 -1.38628e-31 11.3808 1.13401e-14 -2.06141e-14 0.810296 -7.71058e-16 -1.49443e-15)
(0 -2.72275e-30 0 11.3808 -8.74345e-15 -7.04724e-16 0.810296 -1.01997e-15 6.04233e-16)
(1.46311e-15 -1.5594e-29 -2.599e-30 10.9739 1.1724e-14 -2.06439e-14 0.816233 -8.34703e-16 -1.56679e-15)
(6.19564e-15 1.5594e-29 2.599e-30 10.9739 -8.30122e-15 -7.64686e-16 0.816233 -1.18473e-15 5.5802e-16)
(1.01378e-15 -2.46724e-30 -2.23797e-31 10.5235 1.16442e-14 -2.04881e-14 0.817705 -9.04475e-16 -1.61538e-15)
(4.0551e-15 0 0 10.5235 -8.85362e-15 -7.60333e-16 0.817705 -1.37559e-15 5.03712e-16)
(1.33313e-15 -7.10433e-30 -1.77608e-30 10.0374 1.12492e-14 -2.04725e-14 0.814862 -9.03409e-16 -1.71695e-15)
(0 7.10433e-30 2.36811e-30 10.0374 -9.0636e-15 -8.92004e-16 0.814862 -1.58509e-15 4.37317e-16)
(-1.1284e-15 -1.1152e-29 -6.16479e-30 9.52512 1.1674e-14 -1.18568e-14 0.808065 -9.26875e-16 -5.051e-16)
(4.51358e-15 1.35629e-29 2.82559e-30 9.52512 -8.15329e-15 -7.92802e-16 0.808065 -1.78688e-15 3.57543e-16)
(-2.37178e-15 4.72781e-30 0 8.99721 1.31324e-14 7.55357e-31 0.797827 -1.06561e-15 0)
(4.74355e-15 0 0 8.99721 -9.50671e-15 -6.85437e-16 0.797827 -1.96388e-15 2.73237e-16)
(-1.15949e-15 0 1.02983e-30 8.46397 1.38043e-14 1.9319e-15 0.784753 -1.28378e-15 -1.27418e-16)
(-1.15949e-15 4.11932e-30 0 8.46397 -8.19035e-15 -8.28415e-16 0.784753 -2.19572e-15 1.84658e-16)
(-9.13935e-16 1.34694e-29 4.38469e-30 7.9348 1.27681e-14 2.86993e-15 0.769472 -1.29815e-15 -2.36409e-16)
(5.19854e-15 -1.17963e-29 -3.93209e-30 7.9348 -5.22823e-15 -7.11217e-16 0.769472 -2.31884e-15 9.23439e-17)
(1.35537e-15 -9.7271e-30 -2.38421e-30 7.41763 1.10739e-14 3.68463e-15 0.752589 -1.20112e-15 -3.27995e-16)
(5.42149e-15 7.50674e-30 1.87669e-30 7.41763 -5.76247e-15 -5.08409e-16 0.752589 -2.47127e-15 3.04348e-19)
(3.42701e-15 -5.78141e-30 -1.37271e-30 6.91865 1.0762e-14 4.30716e-15 0.734649 -1.06869e-15 -4.30656e-16)
(5.64033e-15 7.16555e-30 1.79139e-30 6.91865 -6.92886e-15 -4.11405e-16 0.734649 -2.66303e-15 -1.00825e-16)
(-4.6162e-16 1.28326e-30 4.03327e-31 6.44233 1.11058e-14 4.52117e-15 0.716116 -1.24958e-15 -4.97017e-16)
(0 -3.41993e-30 0 6.44233 -7.86185e-15 -2.84705e-16 0.716116 -2.86887e-15 -1.94723e-16)
(1.83775e-15 -9.79348e-30 -8.16123e-31 5.99157 1.10121e-14 4.82289e-15 0.697371 -1.25216e-15 -5.22001e-16)
(0 9.79348e-30 8.16123e-31 5.99157 -7.9261e-15 -2.75402e-16 0.697371 -3.07382e-15 -2.72354e-16)
(-3.13381e-15 7.19254e-30 3.13938e-30 5.56794 1.17322e-14 4.89881e-15 0.678711 -1.34877e-15 -6.18372e-16)
(0 0 -1.55806e-30 5.56794 -9.33186e-15 -2.046e-16 0.678711 -3.34772e-15 -3.55128e-16)
(1.61654e-15 1.01081e-30 1.10007e-30 5.17194 1.19843e-14 4.55462e-15 0.660362 -1.55653e-15 -5.9211e-16)
(-8.14066e-15 0 0 5.17194 -9.77951e-15 -1.23372e-16 0.660362 -3.77868e-15 -4.24513e-16)
(1.66485e-15 -4.7616e-30 -1.78943e-30 4.80332 1.11144e-14 4.39141e-15 0.642486 -1.54712e-15 -5.87399e-16)
(6.65939e-15 2.83929e-30 2.12947e-30 4.80332 -7.91415e-15 -7.32249e-17 0.642486 -4.11088e-15 -4.88231e-16)
(1.71183e-15 -1.88803e-30 -3.47704e-31 4.46123 1.06161e-14 4.40897e-15 0.625196 -1.46663e-15 -6.04502e-16)
(-8.37304e-15 5.42048e-30 -7.62979e-32 4.46123 -7.38822e-15 -1.10836e-45 0.625196 -4.45315e-15 -5.49784e-16)
(0 7.76116e-30 6.46763e-31 4.14449 1.1022e-14 4.2473e-15 0.608562 -1.55296e-15 -6.49777e-16)
(-2.91276e-15 0 -6.46763e-31 4.14449 -7.24992e-15 -3.52625e-16 0.608562 -4.75488e-15 -4.49716e-16)
(-1.80196e-15 6.7019e-30 9.2393e-31 3.85165 1.1297e-14 3.60824e-15 0.592624 -1.73338e-15 -6.14154e-16)
(0 4.93894e-30 0 3.85165 -7.69147e-15 -1.23915e-15 0.592624 -5.0104e-15 -3.45897e-16)
(0 0 -1.17861e-30 3.58118 9.44526e-15 2.81497e-15 0.577398 -1.79218e-15 -5.09021e-16)
(2.654e-15 0 1.17861e-30 3.58118 -6.3657e-15 -8.81578e-16 0.577398 -5.43501e-15 -4.17405e-16)
(-1.24117e-15 1.02038e-29 2.88458e-30 3.3315 6.59961e-15 2.69499e-15 0.562884 -1.2828e-15 -4.08613e-16)
(5.01571e-15 -6.75026e-30 -2.25009e-30 3.3315 -3.65249e-15 3.94421e-16 0.562884 -5.64018e-15 -3.75877e-16)
(2.41823e-15 2.14782e-30 5.36954e-31 3.10105 7.51894e-15 6.21503e-16 0.549067 -9.69448e-16 -5.16595e-16)
(-7.71299e-15 0 -1.07391e-30 3.10105 -4.4028e-15 2.10481e-16 0.549067 -5.76456e-15 -3.72745e-16)
(3.93634e-15 9.58626e-31 -3.73816e-30 2.88831 9.77516e-15 -4.04291e-30 0.535926 -1.74547e-15 -3.9443e-31)
(7.87268e-15 -4.10039e-30 -2.0502e-30 2.88831 -4.04877e-15 9.72032e-17 0.535926 -6.06207e-15 -3.83967e-16)
(0 1.95701e-30 -3.09539e-30 2.69187 9.39098e-15 1.22988e-17 0.52343 -1.93194e-15 -1.21034e-18)
(8.02836e-15 0 9.78506e-31 2.69187 -2.55859e-15 -3.03487e-16 0.52343 -6.41105e-15 -3.98857e-16)
(0 3.73612e-30 2.33508e-30 2.51038 8.52394e-15 2.041e-15 0.51155 -1.76081e-15 -4.4601e-16)
(0 -3.73612e-30 -2.33508e-30 2.51038 -3.82739e-15 -1.01797e-15 0.51155 -6.66012e-15 -4.32544e-16)
(-2.00766e-15 3.56631e-30 1.78316e-30 2.34259 6.97881e-15 1.83444e-15 0.50025 -1.75423e-15 -3.94482e-16)
(2.00766e-15 -3.56631e-30 -1.78316e-30 2.34259 -3.82157e-15 -1.27439e-15 0.50025 -7.00389e-15 -4.95632e-16)
(0 3.40422e-30 4.25527e-31 2.18736 5.8871e-15 2.12982e-15 0.489495 -1.24906e-15 -3.98132e-16)
(6.55691e-15 0 0 2.18736 -2.81103e-15 -1.40934e-15 0.489495 -7.37913e-15 -5.10532e-16)
(4.30743e-15 -2.70231e-30 3.34096e-31 2.04363 5.9873e-15 2.11595e-15 0.479251 -1.41939e-15 -5.69814e-16)
(0 0 -8.12373e-31 2.04363 -1.23379e-15 -1.40567e-15 0.479251 -7.51016e-15 -6.22615e-16)
(-2.18833e-15 -1.80157e-30 -9.24623e-31 1.91043 5.66588e-15 1.84301e-15 0.469482 -1.41948e-15 -4.30218e-16)
(1.75066e-14 3.1018e-30 1.16317e-30 1.91043 1.66962e-15 -1.45062e-15 0.469482 -7.49847e-15 -7.50964e-16)
(2.2222e-15 -4.21327e-30 -9.41535e-31 1.78688 4.05049e-15 1.72658e-15 0.460156 -1.39433e-15 -4.86563e-16)
(8.88879e-15 0 7.40204e-31 1.78688 3.155e-16 -1.40695e-15 0.460156 -7.32799e-15 -8.75613e-16)
(-2.25536e-15 -1.49738e-30 -1.22216e-30 1.67218 2.5892e-15 1.95441e-15 0.451238 -6.97252e-16 -4.10134e-16)
(0 2.82624e-30 1.41312e-30 1.67218 -1.49119e-15 -1.06431e-15 0.451238 -7.6042e-15 -8.1973e-16)
(0 0 -6.74446e-31 1.5656 3.206e-15 1.81531e-15 0.442699 -7.14674e-16 -6.6116e-16)
(1.83029e-14 0 6.74446e-31 1.5656 -2.02315e-16 -2.89343e-16 0.442699 -7.59482e-15 -8.64284e-16)
(2.31972e-15 -1.22272e-30 -4.86032e-31 1.46647 2.57699e-15 1.62537e-15 0.434509 -1.12588e-15 -3.68793e-16)
(1.21782e-14 0 3.21896e-31 1.46647 1.38609e-16 -2.04143e-16 0.434509 -7.47271e-15 -8.98224e-16)
(2.7676e-15 -2.45812e-30 0 1.37418 1.5819e-15 1.73988e-15 0.426638 -3.99057e-16 -6.09269e-16)
(9.40383e-15 2.45812e-30 0 1.37418 -6.52869e-16 -5.24657e-16 0.426638 -7.78851e-15 -1.13685e-15)
(0 2.3464e-30 0 1.28818 1.88586e-15 8.46656e-16 0.41906 -5.9708e-16 -4.78236e-16)
(-9.52645e-15 4.67498e-31 0 1.28818 3.69188e-17 -2.53337e-16 0.41906 -7.14186e-15 -1.00587e-15)
(2.41171e-15 -1.32928e-30 -2.04233e-30 1.20798 2.4905e-15 3.96441e-16 0.411749 -6.42308e-16 -6.81788e-17)
(9.64682e-15 -6.17527e-31 5.59937e-31 1.20798 4.27529e-16 -7.66549e-16 0.411749 -6.95355e-15 -8.84336e-16)
(2.44126e-15 8.91277e-31 -1.04569e-31 1.13311 3.16973e-15 8.76937e-16 0.404679 -1.08113e-15 -5.89911e-16)
(0 0 0 1.13311 -5.11258e-16 -3.25013e-16 0.404679 -5.69791e-15 -6.17432e-16)
(-2.47029e-15 -8.52998e-31 -1.54875e-31 1.06316 2.99125e-15 1.53772e-16 0.397828 -1.20609e-15 -2.90236e-17)
(1.97623e-14 -2.13685e-30 -3.77683e-31 1.06316 -2.72383e-16 9.31412e-16 0.397828 -4.29742e-15 -8.05123e-16)
(-4.69209e-15 1.20391e-30 -1.34125e-31 0.997757 3.58182e-15 1.36034e-15 0.391172 -1.04859e-15 -4.86984e-16)
(-9.99527e-15 2.81502e-30 3.02684e-31 0.997757 -3.15197e-16 1.53064e-15 0.391172 -3.24195e-15 -8.11044e-16)
(2.09359e-15 -1.85948e-30 0 0.936546 3.41192e-15 1.62933e-15 0.38469 -1.80189e-15 -5.91373e-16)
(-2.09359e-15 1.85948e-30 0 0.936546 1.58777e-15 1.11114e-15 0.38469 -1.19204e-15 -5.32712e-16)
(-5.10886e-15 2.12421e-30 9.86497e-34 0.879215 2.95064e-15 1.16935e-15 0.37836 -1.00669e-15 -7.62659e-16)
(0 1.77496e-30 0 0.879215 2.59448e-15 7.00145e-16 0.37836 -1.7921e-15 -3.65185e-16)
(-2.58155e-15 9.41144e-31 9.84577e-32 0.825472 3.0193e-15 1.44664e-16 0.372161 -1.56763e-15 -2.40236e-16)
(-1.03262e-14 4.01377e-30 0 0.825472 1.5343e-15 5.00589e-16 0.372161 -8.46941e-16 -3.48881e-16)
(0 0 -1.75162e-46 0.775054 2.55987e-15 8.08656e-31 0.366073 -1.16877e-15 0)
(-3.64179e-15 1.61728e-30 0 0.775054 1.0754e-15 9.654e-17 0.366073 -7.7636e-16 -4.31163e-16)
(-5.2689e-15 2.77081e-31 0 0.727715 2.99299e-15 9.11623e-16 0.360075 -1.27237e-15 2.60087e-17)
(0 1.54377e-30 9.20236e-31 0.727715 5.82925e-16 3.04522e-16 0.360075 -2.35577e-16 -7.59811e-17)
(2.66026e-15 -7.91362e-31 -1.84201e-31 0.683232 5.4818e-16 -1.07087e-15 0.354148 -1.95871e-15 -3.88403e-16)
(3.31826e-15 0 0 0.683232 5.85357e-16 5.32356e-16 0.354148 -3.48839e-16 -4.27534e-16)
(-2.20385e-15 -6.12963e-31 -8.11397e-32 0.641398 -1.23184e-15 -1.85222e-15 0.348269 -4.76924e-16 -9.76526e-16)
(1.07426e-14 -4.37509e-30 0 0.641398 3.38602e-16 1.24687e-18 0.348269 -2.61148e-16 -4.41519e-16)
(2.71062e-15 -1.11517e-30 -1.24568e-30 0.602022 -1.09834e-15 -4.01338e-30 0.342417 -1.18281e-15 -1.97215e-31)
(2.1685e-14 -1.01288e-29 5.0351e-31 0.602022 3.69964e-16 9.09252e-16 0.342417 -1.06134e-16 -1.69171e-16)
(5.77211e-15 -1.36831e-31 -6.39793e-31 0.564928 3.87035e-30 1.24455e-15 0.336571 0 -3.74032e-16)
(1.09408e-14 -3.63969e-30 -6.76982e-32 0.564928 -2.72899e-16 -2.46519e-31 0.336571 -1.7778e-15 -4.87817e-16)
(-2.75936e-15 8.79554e-31 0 0.529952 -1.72683e-16 1.1486e-15 0.330705 -1.71181e-15 -7.42659e-16)
(0 0 0 0.529952 -1.35619e-15 -1.00861e-15 0.330705 -4.49492e-16 -5.51075e-16)
(2.62967e-15 1.75162e-46 -2.97746e-30 0.49694 3.74709e-30 1.95758e-16 0.324795 1.97425e-46 -6.45681e-17)
(1.96354e-14 -9.42157e-30 -2.03856e-31 0.49694 9.83212e-16 5.75935e-16 0.324795 -3.78551e-16 -1.08819e-15)
(-2.8065e-15 1.22911e-30 1.18389e-30 0.46575 1.58365e-16 2.3599e-16 0.318812 -2.30019e-16 8.15446e-17)
(1.1226e-14 -3.74311e-30 -1.39341e-31 0.46575 1.0271e-15 1.32612e-15 0.318812 -1.94751e-15 -9.1293e-16)
(-2.82947e-15 0 0 0.436248 0 -5.47382e-47 0.312726 0 9.86076e-32)
(-1.13179e-14 4.29587e-30 1.33008e-31 0.436248 9.76966e-16 1.54588e-15 0.312726 -1.53316e-15 9.15733e-17)
(0 2.0314e-30 -1.26962e-31 0.408308 3.00374e-15 -1.39041e-15 0.306503 -1.80354e-15 3.23002e-16)
(1.14081e-14 -3.79805e-30 3.53461e-31 0.408308 3.21722e-15 2.48545e-16 0.306503 -1.90006e-15 9.42562e-17)
(-4.36639e-15 0 -2.42383e-31 0.381809 3.07589e-15 -1.55103e-15 0.300104 -2.77554e-15 2.26897e-16)
(4.36639e-15 0 2.42383e-31 0.381809 1.26619e-15 4.31427e-16 0.300104 -3.00595e-15 -3.84696e-16)
(-2.89593e-15 -2.90985e-31 2.89208e-31 0.356639 2.95823e-30 -2.63395e-15 0.293485 -2.09677e-15 -1.29177e-16)
(-1.57516e-14 6.03127e-30 -5.02126e-32 0.356639 -1.49153e-15 -2.46519e-32 0.293485 -1.4014e-15 0)
(0 0 0 0.332686 -2.67231e-16 -4.93038e-31 0.286594 -1.73452e-15 1.97215e-31)
(-1.1669e-14 4.3091e-30 -1.98766e-30 0.332686 0 -2.12362e-15 0.286594 -1.57772e-30 1.23247e-16)
(-4.65719e-15 -9.24234e-31 2.50945e-31 0.309845 -5.9455e-16 -2.87983e-16 0.279371 -1.70161e-15 -9.13203e-16)
(-4.15722e-15 4.48769e-30 0 0.309845 1.41286e-15 -8.63452e-16 0.279371 -6.88114e-16 -1.21672e-15)
(6.58363e-15 -2.37439e-30 -9.2118e-31 0.28801 2.46519e-30 -4.93038e-31 0.271746 0 0)
(8.20927e-15 -3.29979e-30 1.00615e-30 0.28801 2.60374e-15 1.38806e-15 0.271746 -2.01466e-15 -9.63049e-16)
(5.95713e-15 -1.74401e-30 -8.64381e-31 0.267077 2.53115e-15 2.05648e-15 0.263633 -1.99721e-15 -1.67888e-15)
(0 0 7.20317e-31 0.267077 4.28991e-16 1.55093e-15 0.263633 -3.10644e-15 9.89838e-16)
(2.99806e-15 -5.08634e-31 -4.81305e-31 0.24694 5.45973e-16 1.03305e-15 0.25493 -3.10422e-15 -5.14859e-16)
(0 0 4.81305e-31 0.24694 -3.21968e-29 1.43569e-15 0.25493 0 1.74113e-16)
(3.15289e-15 -3.55579e-31 -1.7502e-31 0.227488 -3.47228e-29 1.69537e-15 0.245508 0 -5.93357e-16)
(0 0 1.6947e-44 0.227488 1.33938e-15 -3.82093e-30 0.245508 -2.04923e-15 9.86076e-32)
(0 0 0 0.208605 5.40567e-17 6.27099e-16 0.235211 -5.8848e-16 7.15376e-16)
(0 0 -8.35327e-32 0.208605 0 -2.82989e-15 0.235211 -3.33277e-15 6.73695e-16)
(5.74559e-15 -1.27578e-30 3.18944e-31 0.190163 -4.70672e-16 5.46746e-16 0.22384 -6.5174e-16 1.44242e-15)
(0 1.27578e-30 1.27175e-31 0.190163 -1.99953e-15 1.97215e-31 0.22384 -3.18639e-15 9.16389e-16)
(-5.48444e-15 -2.72503e-31 -4.56671e-31 0.172019 6.1854e-16 -2.86908e-16 0.211141 -3.91287e-16 8.22326e-16)
(0 7.66315e-32 3.04448e-31 0.172019 1.82424e-30 1.86689e-15 0.211141 0 2.3446e-16)
(6.17472e-15 3.81661e-32 1.45305e-31 0.15401 -1.08922e-29 -1.10821e-15 0.196788 -3.89418e-15 -2.17372e-16)
(7.11428e-15 -7.46031e-31 1.24803e-44 0.15401 2.22657e-15 2.79375e-30 0.196788 -3.11187e-15 0)
(-4.99722e-15 1.2962e-43 -5.28129e-32 0.135944 2.91596e-29 -1.80531e-15 0.180359 2.42026e-46 5.30218e-16)
(0 0 1.04025e-31 0.135944 0 -1.87803e-15 0.180359 -2.78285e-15 5.52739e-17)
(-3.11845e-15 6.29387e-31 0 0.117592 1.18329e-30 0 0.161312 -2.27312e-15 3.49571e-49)
(1.24738e-14 -2.32344e-30 2.64793e-31 0.117592 -3.73408e-16 -3.78968e-16 0.161312 -1.9943e-15 -4.53501e-16)
(-3.13275e-15 -4.2316e-31 -5.05515e-31 0.0986897 -6.54289e-16 1.3393e-15 0.138961 -2.4948e-15 -1.16154e-15)
(0 0 5.05515e-31 0.0986897 -1.47755e-19 -2.09806e-16 0.138961 -6.004e-16 -1.33159e-16)
(4.34633e-15 -4.87021e-33 0 0.0789432 2.60064e-29 7.20075e-17 0.112488 -7.88861e-31 3.8818e-16)
(2.08222e-14 -2.73747e-30 9.02086e-45 0.0789432 5.93381e-16 2.04142e-30 0.112488 -2.76426e-15 0)
(-3.15824e-15 4.04632e-31 -4.37906e-46 0.0580621 8.43893e-16 1.74215e-30 0.080999 -2.5678e-15 0)
(1.2633e-14 -2.37144e-30 0 0.0580621 1.26252e-15 -2.87751e-15 0.080999 -1.1463e-15 -1.82984e-16)
(-7.92042e-15 6.98595e-31 0 0.0358267 1.58399e-15 -8.61504e-16 0.0436809 -1.3877e-15 1.91806e-15)
(3.96021e-15 0 1.75869e-30 0.0358267 -7.39557e-31 -1.58918e-29 0.0436809 -4.86821e-15 -3.9443e-31)
(1.84097e-18 -9.90387e-31 -8.15226e-32 9.38896e-11 1.72107e-16 0 8.61675e-11 -3.34597e-15 -2.44811e-30)
(-7.56042e-15 1.25906e-30 0 9.39089e-11 7.06946e-16 4.23154e-15 8.61924e-11 -6.55148e-16 -9.66725e-16)
(0 -5.12314e-33 -5.12314e-32 13.3705 -8.91906e-17 -2.79804e-15 -0.0613706 7.31445e-15 1.07634e-16)
(0 5.12314e-33 -2.65472e-28 13.3705 1.33674e-16 2.78274e-14 -0.0613706 2.07487e-17 -6.38961e-17)
(2.20239e-17 -6.84228e-49 1.15757e-31 13.3642 -1.59062e-50 -9.50283e-16 -0.186976 2.28274e-14 9.1369e-18)
(-2.20239e-17 1.22257e-33 6.71417e-28 13.3642 4.77148e-16 8.82692e-15 -0.186976 -1.34179e-17 -8.48702e-17)
(5.39992e-17 0 1.12032e-31 13.3576 -1.58179e-16 -4.2908e-16 -0.275433 2.133e-14 4.5441e-18)
(-4.20458e-17 0 -1.12032e-31 13.3576 1.48247e-16 4.30481e-15 -0.275433 -4.34221e-18 -8.86629e-17)
(0 0 0 13.3507 4.59944e-16 -3.52263e-16 -0.288395 2.04528e-14 -2.65683e-17)
(0 -2.22792e-33 -7.12936e-32 13.3507 3.70291e-16 4.27976e-15 -0.288395 -8.20968e-18 -9.20627e-17)
(4.14188e-17 0 6.80532e-32 13.3435 4.02603e-16 -2.61904e-16 -0.30196 2.02041e-14 -6.06041e-17)
(-2.42296e-16 -1.58012e-33 -2.17349e-31 13.3435 3.98515e-16 4.23181e-15 -0.30196 -9.244e-18 -9.51364e-17)
(0 0 3.248e-31 13.3359 2.61624e-16 -1.60963e-16 -0.316154 2.01764e-14 -9.66583e-17)
(-2.41607e-16 -6.51902e-34 -4.51815e-31 13.3359 4.82714e-16 4.16381e-15 -0.316154 -1.32099e-17 -9.7814e-17)
(0 0 -4.95918e-31 13.328 1.621e-16 6.28007e-30 -0.331006 2.02258e-14 -1.37293e-16)
(0 -3.87547e-33 -6.20075e-32 13.328 5.58562e-16 4.07446e-15 -0.331006 -1.39138e-17 -9.99723e-17)
(0 0 1.77568e-31 13.3196 8.51357e-17 1.6092e-17 -0.346544 2.0232e-14 -1.83596e-16)
(-4.0436e-16 0 -3.29962e-31 13.3196 6.70784e-16 3.96198e-15 -0.346544 -1.82195e-17 -1.01496e-16)
(-8.68766e-18 0 3.38994e-31 13.3108 -1.05525e-16 1.96015e-16 -0.362799 2.02307e-14 -2.36152e-16)
(-2.54449e-16 -1.41247e-32 -5.0849e-31 13.3108 8.98588e-16 3.83684e-15 -0.362799 -2.08101e-17 -1.02896e-16)
(6.31462e-16 1.34827e-32 3.23586e-31 13.3015 -2.57086e-16 3.17159e-16 -0.3798 2.0233e-14 -2.95459e-16)
(-1.06855e-15 -1.34827e-32 -5.57016e-31 13.3015 9.28062e-16 3.70213e-15 -0.3798 -2.33662e-17 -1.03696e-16)
(0 0 -2.05919e-31 13.2916 -1.7899e-16 4.47426e-16 -0.397579 2.0233e-14 -3.62025e-16)
(-6.78328e-16 3.34642e-33 1.15265e-31 13.2916 6.72399e-16 3.55079e-15 -0.397579 -1.50919e-17 -1.03871e-16)
(0 2.45699e-32 3.93119e-31 13.281 -1.11826e-16 5.90669e-16 -0.416164 2.02258e-14 -4.36668e-16)
(-7.78361e-16 -3.08462e-32 -6.0106e-31 13.281 4.66226e-16 3.38848e-15 -0.416164 -1.34202e-17 -1.0363e-16)
(-2.20772e-16 1.17266e-32 1.87626e-31 13.2694 -6.34153e-17 7.53177e-16 -0.435584 2.02155e-14 -4.07655e-16)
(8.8309e-16 -1.17266e-32 1.29244e-31 13.2694 4.4721e-16 3.20648e-15 -0.435584 -6.18109e-18 -1.02044e-16)
(-2.48183e-16 4.47744e-32 4.47744e-31 13.2567 -1.99821e-16 9.31091e-16 -0.455863 2.02038e-14 -3.46907e-16)
(-9.92732e-16 -4.47744e-32 -6.86068e-31 13.2567 5.25099e-16 2.99885e-15 -0.455863 1.76184e-18 -9.94468e-17)
(3.84962e-16 4.27394e-32 5.12872e-31 13.2423 -5.6148e-16 1.06829e-15 -0.477018 2.01886e-14 -2.79249e-16)
(-1.49248e-15 -4.27394e-32 -7.64875e-31 13.2423 7.96937e-16 2.8119e-15 -0.477018 1.46108e-17 -9.85166e-17)
(6.1384e-16 0 0 13.2258 -7.36136e-16 1.1753e-15 -0.499058 2.01679e-14 -2.03349e-16)
(0 0 0 13.2258 1.13931e-15 2.64516e-15 -0.499058 3.2448e-17 -9.65508e-17)
(-3.38369e-16 0 0 13.2062 -9.10003e-16 1.30337e-15 -0.521976 2.01439e-14 -1.1868e-16)
(1.35347e-15 1.94713e-32 4.36463e-31 13.2062 1.11422e-15 2.46309e-15 -0.521976 5.14196e-17 -9.37176e-17)
(5.96703e-16 5.57588e-32 4.4607e-31 13.1824 -1.0401e-15 1.43183e-15 -0.545744 2.01183e-14 -2.43682e-17)
(-2.1548e-15 -4.64657e-32 -6.67225e-31 13.1824 6.51892e-16 2.25497e-15 -0.545744 7.11767e-17 -8.87153e-17)
(1.04495e-15 -2.66122e-32 -1.41932e-31 13.1528 -9.32507e-16 1.55198e-15 -0.570302 2.00734e-14 8.16953e-17)
(0 5.32245e-32 2.83864e-31 13.1528 2.51785e-16 2.01389e-15 -0.570302 1.08269e-16 -8.19221e-17)
(4.41819e-16 6.77404e-32 2.70962e-31 13.1154 -1.12084e-15 1.68446e-15 -0.595547 2.00171e-14 1.994e-16)
(0 -9.31431e-32 -4.06443e-31 13.1154 2.67369e-16 1.76983e-15 -0.595547 1.57602e-16 -7.51652e-17)
(4.79566e-16 -6.06202e-32 -1.29323e-31 13.0673 -1.76131e-15 1.73882e-15 -0.621322 1.99694e-14 3.30743e-16)
(-1.91827e-15 6.46615e-32 -7.69701e-32 13.0673 5.79687e-16 1.53361e-15 -0.621322 2.09523e-16 -6.73985e-17)
(5.19061e-16 0 0 13.005 -2.09617e-15 1.70961e-15 -0.647394 1.99262e-14 4.80916e-16)
(0 -1.54306e-32 -2.4689e-31 13.005 9.63093e-16 1.30857e-15 -0.647394 2.7082e-16 -6.00283e-17)
(1.12074e-15 -1.23358e-31 -2.35669e-31 12.9242 -1.99016e-15 1.66182e-15 -0.673446 1.98764e-14 6.50172e-16)
(0 1.23358e-31 2.35669e-31 12.9242 1.26401e-15 1.10863e-15 -0.673446 3.21363e-16 -5.30593e-17)
(1.01312e-15 -7.71094e-32 -1.12479e-31 12.8196 -1.64302e-15 1.57728e-15 -0.699061 1.98044e-14 8.38234e-16)
(0 4.92135e-30 2.24957e-31 12.8196 7.63963e-16 8.53537e-16 -0.699061 3.70619e-16 -3.79314e-17)
(0 0 0 12.6856 -1.1313e-15 1.51558e-15 -0.72372 1.97099e-14 1.05172e-15)
(0 2.48877e-31 -1.07366e-31 12.6856 8.88701e-30 4.9601e-16 -0.72372 4.48337e-16 -1.71951e-17)
(-9.23115e-16 2.4981e-31 2.04973e-31 12.5159 -7.77065e-16 1.47969e-15 -0.746814 1.9598e-14 1.2885e-15)
(0 -2.43405e-31 7.00649e-46 12.5159 -2.81387e-16 -5.82489e-46 -0.746814 5.3244e-16 -1.27034e-30)
(7.44567e-16 -1.28399e-31 -1.95656e-31 12.3046 -7.49736e-16 1.43398e-15 -0.76767 1.94761e-14 1.54988e-15)
(0 1.28399e-31 3.35019e-30 12.3046 1.92614e-16 -3.02552e-16 -0.76767 6.30701e-16 -9.30673e-18)
(-8.41108e-16 1.22564e-31 0 12.0468 -1.7837e-15 1.33584e-15 -0.785603 1.93321e-14 1.84142e-15)
(3.18138e-15 -9.33817e-32 1.57642e-31 12.0468 8.75826e-16 -7.57804e-16 -0.785603 7.46639e-16 -3.93736e-17)
(-8.47863e-16 2.67412e-31 3.5655e-31 11.7392 -2.82448e-15 1.11948e-15 -0.79998 1.91896e-14 2.1544e-15)
(-1.60576e-15 1.56747e-30 -5.34824e-31 11.7392 5.51691e-16 -1.03026e-15 -0.79998 8.68806e-16 -5.87595e-17)
(1.80388e-15 -2.76529e-31 -1.70172e-31 11.3808 -2.31644e-15 9.27133e-16 -0.810296 1.90474e-14 2.49335e-15)
(3.60777e-15 0 4.60691e-31 11.3808 -8.24147e-46 -1.45276e-15 -0.810296 1.01997e-15 -8.08813e-17)
(1.91469e-15 0 0 10.9739 -1.89019e-15 8.28059e-16 -0.816233 1.88697e-14 2.85111e-15)
(0 7.30668e-31 0 10.9739 -1.23171e-15 -1.94326e-15 -0.816233 1.18473e-15 -1.25682e-16)
(0 2.71345e-31 1.55054e-31 10.5235 -2.11229e-15 7.81116e-16 -0.817705 1.86828e-14 3.228e-15)
(0 -4.26399e-31 -3.10109e-31 10.5235 -1.44948e-15 -2.34209e-15 -0.817705 1.37559e-15 -1.63192e-16)
(0 -1.85009e-31 0 10.0374 -1.81838e-15 7.06341e-16 -0.814862 1.84998e-14 3.61632e-15)
(0 1.85009e-31 2.96014e-31 10.0374 -1.05519e-15 -2.69491e-15 -0.814862 1.58509e-15 -2.01333e-16)
(1.1284e-15 -2.1192e-31 -1.4128e-31 9.52512 -2.27292e-15 6.85857e-16 -0.808065 1.82989e-14 4.03241e-15)
(0 2.1192e-31 1.4128e-31 9.52512 -7.52011e-16 -3.05636e-15 -0.808065 1.78688e-15 -2.37859e-16)
(0 4.72004e-31 1.34858e-31 8.99721 -3.67283e-15 4.63024e-16 -0.797827 1.80993e-14 4.14255e-15)
(0 -4.72004e-31 -1.34858e-31 8.99721 3.7428e-16 -3.18619e-15 -0.797827 1.96388e-15 -2.73237e-16)
(1.24306e-15 0 0 8.46397 -2.64159e-15 -1.40467e-16 -0.784753 1.78762e-14 4.10645e-15)
(-1.15949e-15 1.21887e-30 -1.28729e-31 8.46397 2.60324e-29 -3.03879e-15 -0.784753 2.19572e-15 -1.84658e-16)
(-9.13935e-16 7.98706e-31 -1.22878e-31 7.9348 9.92298e-16 -4.04054e-16 -0.769472 1.75756e-14 4.05851e-15)
(5.19854e-15 7.02916e-30 0 7.9348 -4.36212e-17 -3.05279e-15 -0.769472 2.31884e-15 -9.23439e-17)
(-7.57589e-16 -1.17293e-31 -1.17293e-31 7.41763 1.9082e-15 1.04232e-17 -0.752589 1.72005e-14 3.98508e-15)
(5.42149e-15 2.34586e-31 0 7.41763 -9.27447e-16 -3.25206e-15 -0.752589 2.47127e-15 -3.04348e-19)
(4.83709e-15 5.59809e-32 9.71076e-32 6.91865 -4.36148e-16 3.99422e-29 -0.734649 1.69115e-14 3.8679e-15)
(-2.01692e-15 -5.59809e-32 0 6.91865 -4.61583e-16 -3.21979e-15 -0.734649 2.66303e-15 1.00825e-16)
(2.92726e-15 0 2.98063e-34 6.44233 -1.16176e-15 -5.60941e-16 -0.716116 1.66459e-14 3.75154e-15)
(0 0 0 6.44233 5.67078e-16 -2.76792e-15 -0.716116 2.86887e-15 1.94723e-16)
(-3.21822e-16 3.06046e-31 -1.53023e-31 5.99157 -6.74935e-16 -7.22473e-16 -0.697371 1.63508e-14 3.64511e-15)
(2.3882e-15 1.70631e-30 5.10077e-32 5.99157 -2.8892e-29 -2.44147e-15 -0.697371 3.07382e-15 2.72354e-16)
(1.5669e-15 0 0 5.56794 -1.30895e-15 -6.37662e-16 -0.678711 1.60356e-14 3.50894e-15)
(0 0 0 5.56794 -2.01368e-15 -2.26234e-15 -0.678711 3.34772e-15 3.55128e-16)
(-3.23309e-15 0 0 5.17194 -2.1414e-15 -5.86705e-16 -0.660362 1.57063e-14 3.38197e-15)
(0 0 4.64763e-32 5.17194 -2.04254e-15 -1.93436e-15 -0.660362 3.77868e-15 4.24513e-16)
(1.66485e-15 -3.54911e-31 1.55274e-31 4.80332 -1.76e-15 -3.85674e-16 -0.642486 1.53988e-14 3.25195e-15)
(6.65939e-15 3.54911e-31 -3.83508e-31 4.80332 -2.0257e-15 -1.77431e-15 -0.642486 4.11088e-15 2.46908e-16)
(0 3.3878e-31 -2.43498e-31 4.46123 -1.36903e-15 -2.69279e-16 -0.625196 1.50713e-14 3.10997e-15)
(-8.37304e-15 -1.6939e-31 -7.00649e-46 4.46123 -1.68762e-15 0 -0.625196 4.45315e-15 0)
(1.75752e-15 -3.23382e-31 1.81902e-31 4.14449 -2.49261e-15 -3.89114e-16 -0.608562 1.47417e-14 2.95754e-15)
(7.03007e-15 3.23382e-31 -1.81902e-31 4.14449 -2.49922e-16 3.09023e-15 -0.608562 4.75488e-15 4.49716e-16)
(4.58233e-15 4.63025e-31 -1.54342e-31 3.85165 -2.31459e-15 -8.18894e-16 -0.592624 1.44369e-14 2.82317e-15)
(-9.9882e-15 -2.78133e-30 1.54342e-31 3.85165 -3.56628e-29 1.70574e-15 -0.592624 5.0104e-15 3.45897e-16)
(1.84519e-15 -2.94653e-31 5.52475e-32 3.58118 -7.15581e-16 -1.23146e-15 -0.577398 1.4039e-14 2.74122e-15)