/*--------------------------------*- C++ -*----------------------------------*\
| =========                 |                                                 |
| \\      /  F ield         | OpenFOAM: The Open Source CFD Toolbox           |
|  \\    /   O peration     | Version:  2106                                  |
|   \\  /    A nd           | Website:  www.openfoam.com                      |
|    \\/     M anipulation  |                                                 |
\*---------------------------------------------------------------------------*/
FoamFile
{
    version     2.0;
    format      ascii;
    arch        "LSB;label=32;scalar=64";
    class       volScalarField;
    location    "10100";
    object      p;
}
// * * * * * * * * * * * * * * * * * * * * * * * * * * * * * * * * * * * * * //

dimensions      [0 2 -2 0 0 0 0];

internalField   nonuniform List<scalar> 
2000
(
7.11808e-15
6.45403e-14
1.58682e-14
6.45422e-14
1.84158e-14
6.45455e-14
1.93376e-14
6.4551e-14
2.03719e-14
6.45587e-14
2.16119e-14
6.45687e-14
2.28401e-14
6.45808e-14
2.4013e-14
6.45952e-14
2.51478e-14
6.46117e-14
2.62556e-14
6.46304e-14
2.73386e-14
6.46511e-14
2.83976e-14
6.46739e-14
2.94329e-14
6.46987e-14
3.04453e-14
6.47254e-14
3.14349e-14
6.47541e-14
3.2402e-14
6.47845e-14
3.33475e-14
6.48168e-14
3.42716e-14
6.48509e-14
3.51744e-14
6.4887e-14
3.60564e-14
6.49247e-14
3.6918e-14
6.49643e-14
3.77596e-14
6.50057e-14
3.85815e-14
6.50488e-14
3.93842e-14
6.50935e-14
4.0168e-14
6.51397e-14
4.09332e-14
6.51874e-14
4.16799e-14
6.52366e-14
4.2409e-14
6.52872e-14
4.31207e-14
6.53391e-14
4.38152e-14
6.53921e-14
4.44924e-14
6.54463e-14
4.51533e-14
6.55017e-14
4.57979e-14
6.55583e-14
4.64263e-14
6.5616e-14
4.70392e-14
6.56749e-14
4.76369e-14
6.57348e-14
4.82196e-14
6.57954e-14
4.87874e-14
6.58573e-14
4.93406e-14
6.59205e-14
4.98796e-14
6.59845e-14
5.04045e-14
6.60497e-14
5.09154e-14
6.61164e-14
5.1413e-14
6.6184e-14
5.18979e-14
6.62523e-14
5.237e-14
6.6321e-14
5.28295e-14
6.63903e-14
5.32765e-14
6.64604e-14
5.37119e-14
6.65311e-14
5.41356e-14
6.66031e-14
5.45477e-14
6.66759e-14
5.49483e-14
6.67488e-14
5.53382e-14
6.6822e-14
5.57167e-14
6.68962e-14
5.60854e-14
6.69709e-14
5.64437e-14
6.7046e-14
5.67911e-14
6.71213e-14
5.7129e-14
6.71971e-14
5.74573e-14
6.7274e-14
5.77759e-14
6.73517e-14
5.80852e-14
6.74293e-14
5.83863e-14
6.75065e-14
5.86781e-14
6.75834e-14
5.89615e-14
6.76613e-14
5.92367e-14
6.77393e-14
5.95048e-14
6.7817e-14
5.97645e-14
6.7895e-14
6.00165e-14
6.7973e-14
6.0262e-14
6.805e-14
6.05005e-14
6.81267e-14
6.07334e-14
6.82027e-14
6.09596e-14
6.82789e-14
6.11801e-14
6.8355e-14
6.13949e-14
6.84316e-14
6.16033e-14
6.85071e-14
6.18075e-14
6.85813e-14
6.20058e-14
6.86563e-14
6.21985e-14
6.87319e-14
6.23872e-14
6.88078e-14
6.2568e-14
6.88844e-14
6.27454e-14
6.89598e-14
6.29201e-14
6.90335e-14
6.30902e-14
6.91074e-14
6.32562e-14
6.91817e-14
6.34193e-14
6.9253e-14
6.35788e-14
6.9324e-14
6.37361e-14
6.93954e-14
6.38891e-14
6.94674e-14
6.40393e-14
6.95381e-14
6.41852e-14
6.96098e-14
6.43276e-14
6.96834e-14
6.44672e-14
6.97569e-14
6.46026e-14
6.98312e-14
6.47358e-14
6.99058e-14
6.48648e-14
6.99788e-14
6.4993e-14
7.00511e-14
6.51196e-14
7.01244e-14
6.52439e-14
7.0198e-14
6.53666e-14
7.02715e-14
6.54874e-14
7.03444e-14
6.56079e-14
7.04169e-14
6.57264e-14
7.04898e-14
6.58444e-14
7.05635e-14
6.59588e-14
7.06366e-14
6.60709e-14
7.07078e-14
6.61792e-14
7.07833e-14
6.62863e-14
7.08574e-14
6.63878e-14
7.09361e-14
6.64878e-14
7.10154e-14
6.65831e-14
7.10954e-14
6.66856e-14
7.1172e-14
6.67844e-14
7.12497e-14
6.6884e-14
7.13275e-14
6.69841e-14
7.14054e-14
6.70876e-14
7.14837e-14
6.71912e-14
7.15596e-14
6.72931e-14
7.16317e-14
6.73962e-14
7.17081e-14
6.75003e-14
7.17843e-14
6.76003e-14
7.18573e-14
6.77056e-14
7.19258e-14
6.78079e-14
7.20013e-14
6.79101e-14
7.20808e-14
6.80119e-14
7.21548e-14
6.81179e-14
7.22286e-14
6.82229e-14
7.23039e-14
6.83249e-14
7.23829e-14
6.84268e-14
7.24591e-14
6.85248e-14
7.25361e-14
6.8615e-14
7.26179e-14
6.87073e-14
7.27012e-14
6.88011e-14
7.27937e-14
6.88926e-14
7.28922e-14
6.89809e-14
7.29832e-14
6.90763e-14
7.30742e-14
6.9171e-14
7.31692e-14
6.9268e-14
7.32652e-14
6.93703e-14
7.33553e-14
6.94811e-14
7.34475e-14
6.95924e-14
7.35347e-14
6.97074e-14
7.361e-14
6.98217e-14
7.36772e-14
6.99388e-14
7.3748e-14
7.00617e-14
7.38227e-14
7.01825e-14
7.38943e-14
7.03042e-14
7.39513e-14
7.04228e-14
7.40132e-14
7.05414e-14
7.40764e-14
7.06597e-14
7.41373e-14
7.07809e-14
7.41922e-14
7.09046e-14
7.4245e-14
7.10104e-14
7.4296e-14
7.11175e-14
7.43412e-14
7.12253e-14
7.43889e-14
7.13651e-14
7.44232e-14
7.15047e-14
7.44679e-14
7.16438e-14
7.45067e-14
7.17741e-14
7.45555e-14
7.19114e-14
7.46063e-14
7.2039e-14
7.46341e-14
7.21648e-14
7.46713e-14
7.2305e-14
7.47175e-14
7.24513e-14
7.47641e-14
7.2587e-14
7.48021e-14
7.27204e-14
7.48476e-14
7.28681e-14
7.49002e-14
7.30051e-14
7.4951e-14
7.31397e-14
7.49824e-14
7.32805e-14
7.50439e-14
7.3419e-14
7.51096e-14
7.35551e-14
7.51705e-14
7.36804e-14
7.52176e-14
7.38203e-14
7.52501e-14
7.39499e-14
7.52751e-14
7.41038e-14
7.53251e-14
7.42233e-14
7.53899e-14
7.43593e-14
7.54516e-14
7.44694e-14
7.54918e-14
7.4588e-14
7.55436e-14
7.4698e-14
7.56312e-14
7.485e-14
7.56947e-14
7.50449e-14
7.57231e-14
7.51916e-14
7.57378e-14
7.53093e-14
7.57866e-14
7.54501e-14
7.58505e-14
7.55975e-14
7.58935e-14
7.57369e-14
7.59811e-14
7.58526e-14
7.61451e-14
7.59765e-14
7.62672e-14
7.60912e-14
7.63468e-14
7.62144e-14
7.64162e-14
7.63301e-14
7.64899e-14
7.64392e-14
7.65835e-14
7.65582e-14
7.67128e-14
7.66694e-14
7.68274e-14
7.6789e-14
7.69275e-14
7.69343e-14
7.70463e-14
7.70387e-14
7.72159e-14
7.71327e-14
7.7338e-14
7.72306e-14
7.74645e-14
7.73309e-14
7.75633e-14
7.745e-14
7.76167e-14
7.75227e-14
7.77545e-14
7.76463e-14
7.78456e-14
7.77717e-14
7.79384e-14
7.78496e-14
7.80143e-14
7.79289e-14
7.81573e-14
7.80221e-14
7.82049e-14
7.8115e-14
7.8237e-14
7.81943e-14
7.83641e-14
7.82732e-14
7.84415e-14
7.83507e-14
7.85179e-14
7.84096e-14
7.85939e-14
7.84955e-14
7.86551e-14
7.86092e-14
7.87665e-14
7.87505e-14
7.87979e-14
7.88305e-14
7.88659e-14
7.89742e-14
7.90625e-14
7.91105e-14
7.92028e-14
7.92401e-14
7.92901e-14
7.93667e-14
7.9416e-14
7.95829e-14
7.9549e-14
7.9683e-14
7.95875e-14
7.97672e-14
7.96747e-14
7.9865e-14
7.98401e-14
7.99647e-14
8.00308e-14
8.0056e-14
8.01064e-14
8.01386e-14
8.01875e-14
8.02678e-14
8.02724e-14
8.02996e-14
8.04125e-14
8.04216e-14
8.05336e-14
8.05752e-14
8.06691e-14
8.07353e-14
8.07873e-14
8.08515e-14
8.08797e-14
8.09601e-14
8.09998e-14
8.1116e-14
8.11487e-14
8.12377e-14
8.13022e-14
8.14046e-14
8.14364e-14
8.15949e-14
8.15735e-14
8.17143e-14
8.17094e-14
8.18128e-14
8.18748e-14
8.19807e-14
8.19924e-14
8.21188e-14
8.21337e-14
8.23402e-14
8.23312e-14
8.24425e-14
8.25114e-14
8.25418e-14
8.25894e-14
8.26687e-14
8.26653e-14
8.27319e-14
8.27286e-14
8.28826e-14
8.28693e-14
8.29772e-14
8.29819e-14
8.30712e-14
8.30833e-14
6.44893e-14
6.68752e-14
6.44903e-14
6.68754e-14
6.4492e-14
6.68758e-14
6.44949e-14
6.68765e-14
6.44989e-14
6.68774e-14
6.45041e-14
6.68786e-14
6.45104e-14
6.68801e-14
6.45179e-14
6.68818e-14
6.45265e-14
6.68838e-14
6.45363e-14
6.68862e-14
6.45472e-14
6.68888e-14
6.45592e-14
6.68916e-14
6.45723e-14
6.68948e-14
6.45865e-14
6.68983e-14
6.46018e-14
6.6902e-14
6.46183e-14
6.69061e-14
6.46357e-14
6.69104e-14
6.46543e-14
6.6915e-14
6.46738e-14
6.69199e-14
6.46943e-14
6.69252e-14
6.47158e-14
6.69309e-14
6.47383e-14
6.69368e-14
6.47617e-14
6.69432e-14
6.4786e-14
6.69499e-14
6.48113e-14
6.69568e-14
6.48375e-14
6.69641e-14
6.48648e-14
6.6972e-14
6.48927e-14
6.69801e-14
6.49217e-14
6.69886e-14
6.49513e-14
6.69977e-14
6.49817e-14
6.70071e-14
6.50131e-14
6.7017e-14
6.50455e-14
6.70269e-14
6.50788e-14
6.70372e-14
6.51127e-14
6.70475e-14
6.51473e-14
6.70585e-14
6.51828e-14
6.70699e-14
6.52188e-14
6.70819e-14
6.52553e-14
6.70945e-14
6.52926e-14
6.7107e-14
6.53307e-14
6.712e-14
6.53694e-14
6.71338e-14
6.54088e-14
6.71478e-14
6.54486e-14
6.71624e-14
6.54891e-14
6.71774e-14
6.55303e-14
6.71929e-14
6.55726e-14
6.72083e-14
6.56151e-14
6.72239e-14
6.5658e-14
6.7241e-14
6.57016e-14
6.72591e-14
6.57455e-14
6.72765e-14
6.579e-14
6.72937e-14
6.58347e-14
6.73123e-14
6.58801e-14
6.7331e-14
6.59259e-14
6.73502e-14
6.59724e-14
6.73705e-14
6.60193e-14
6.7391e-14
6.60663e-14
6.74122e-14
6.61139e-14
6.74337e-14
6.61618e-14
6.74554e-14
6.62104e-14
6.74775e-14
6.62588e-14
6.7501e-14
6.63075e-14
6.7525e-14
6.63572e-14
6.75493e-14
6.64073e-14
6.7574e-14
6.64572e-14
6.75993e-14
6.6507e-14
6.76256e-14
6.65575e-14
6.76518e-14
6.66083e-14
6.76775e-14
6.66599e-14
6.77039e-14
6.67106e-14
6.77328e-14
6.67616e-14
6.77627e-14
6.68129e-14
6.77926e-14
6.68642e-14
6.78222e-14
6.69175e-14
6.78517e-14
6.69708e-14
6.78807e-14
6.70234e-14
6.79135e-14
6.70748e-14
6.79488e-14
6.71286e-14
6.79813e-14
6.71826e-14
6.80139e-14
6.72363e-14
6.80499e-14
6.72903e-14
6.80875e-14
6.7344e-14
6.81253e-14
6.73981e-14
6.81622e-14
6.74539e-14
6.81997e-14
6.75101e-14
6.824e-14
6.75667e-14
6.82837e-14
6.76237e-14
6.83272e-14
6.76798e-14
6.83707e-14
6.77371e-14
6.84147e-14
6.77971e-14
6.84607e-14
6.78563e-14
6.85074e-14
6.79155e-14
6.85561e-14
6.79776e-14
6.8604e-14
6.80397e-14
6.86526e-14
6.81026e-14
6.87039e-14
6.81672e-14
6.87552e-14
6.8232e-14
6.88064e-14
6.82978e-14
6.88583e-14
6.83646e-14
6.89088e-14
6.84305e-14
6.89627e-14
6.84996e-14
6.90217e-14
6.857e-14
6.9082e-14
6.86431e-14
6.9138e-14
6.87117e-14
6.91983e-14
6.87876e-14
6.926e-14
6.88636e-14
6.93216e-14
6.89395e-14
6.9386e-14
6.90142e-14
6.94534e-14
6.90935e-14
6.95206e-14
6.91775e-14
6.95892e-14
6.92574e-14
6.96606e-14
6.93422e-14
6.97304e-14
6.94259e-14
6.98029e-14
6.95133e-14
6.98767e-14
6.96043e-14
6.99518e-14
6.96898e-14
7.00328e-14
6.97791e-14
7.01119e-14
6.98724e-14
7.01857e-14
6.99682e-14
7.02606e-14
7.00683e-14
7.03397e-14
7.01614e-14
7.04297e-14
7.02589e-14
7.05157e-14
7.03593e-14
7.0596e-14
7.04595e-14
7.06788e-14
7.05561e-14
7.0764e-14
7.06559e-14
7.0855e-14
7.07661e-14
7.09483e-14
7.08765e-14
7.10475e-14
7.09802e-14
7.11454e-14
7.10808e-14
7.12421e-14
7.1189e-14
7.13446e-14
7.12978e-14
7.14527e-14
7.14039e-14
7.15629e-14
7.15145e-14
7.16717e-14
7.16262e-14
7.17789e-14
7.17391e-14
7.18881e-14
7.18497e-14
7.19993e-14
7.1947e-14
7.21123e-14
7.20569e-14
7.22162e-14
7.21685e-14
7.23219e-14
7.22934e-14
7.24332e-14
7.24166e-14
7.25464e-14
7.25116e-14
7.26576e-14
7.2605e-14
7.27784e-14
7.27082e-14
7.28936e-14
7.2806e-14
7.30112e-14
7.29216e-14
7.31391e-14
7.30318e-14
7.32737e-14
7.31405e-14
7.33997e-14
7.32674e-14
7.35013e-14
7.33932e-14
7.35943e-14
7.35264e-14
7.37105e-14
7.36434e-14
7.3834e-14
7.37765e-14
7.39492e-14
7.39017e-14
7.40479e-14
7.40114e-14
7.41544e-14
7.41382e-14
7.42854e-14
7.42661e-14
7.44002e-14
7.43873e-14
7.45075e-14
7.45103e-14
7.46237e-14
7.46107e-14
7.47575e-14
7.47296e-14
7.48517e-14
7.48176e-14
7.49395e-14
7.49247e-14
7.50544e-14
7.50344e-14
7.51638e-14
7.51552e-14
7.52847e-14
7.52622e-14
7.54011e-14
7.53554e-14
7.54966e-14
7.54601e-14
7.55968e-14
7.55597e-14
7.56853e-14
7.5663e-14
7.57623e-14
7.57705e-14
7.58619e-14
7.58656e-14
7.59762e-14
7.59651e-14
7.60979e-14
7.60688e-14
7.62025e-14
7.61683e-14
7.62991e-14
7.62725e-14
7.63886e-14
7.63822e-14
7.64884e-14
7.6498e-14
7.66246e-14
7.66025e-14
7.67559e-14
7.67203e-14
7.68501e-14
7.68351e-14
7.69251e-14
7.69654e-14
7.69639e-14
7.70451e-14
7.70502e-14
7.70911e-14
7.71853e-14
7.72207e-14
7.73039e-14
7.72977e-14
7.74401e-14
7.73718e-14
7.75622e-14
7.74588e-14
7.76727e-14
7.75407e-14
7.77398e-14
7.76522e-14
7.78323e-14
7.77431e-14
7.78991e-14
7.78313e-14
7.79738e-14
7.79175e-14
7.8056e-14
7.79847e-14
7.81803e-14
7.80981e-14
7.82647e-14
7.82083e-14
7.83586e-14
7.82661e-14
7.84449e-14
7.83378e-14
7.85589e-14
7.84216e-14
7.86866e-14
7.84813e-14
7.87657e-14
7.855e-14
7.88645e-14
7.86586e-14
7.89357e-14
7.87418e-14
7.89619e-14
7.88031e-14
7.90573e-14
7.88409e-14
7.91239e-14
7.89022e-14
7.91819e-14
7.89534e-14
7.92504e-14
7.90258e-14
7.93302e-14
7.90861e-14
7.9358e-14
7.91686e-14
7.93978e-14
7.92284e-14
7.93823e-14
7.93028e-14
7.95e-14
7.94199e-14
7.96256e-14
7.95782e-14
7.97329e-14
7.97529e-14
7.98216e-14
7.98254e-14
7.98823e-14
7.99227e-14
7.99443e-14
8.00472e-14
8.00363e-14
8.01087e-14
8.01548e-14
8.01902e-14
8.03052e-14
8.02847e-14
8.03768e-14
8.0457e-14
8.04618e-14
8.05362e-14
8.05792e-14
8.06412e-14
8.06389e-14
8.07787e-14
8.07279e-14
8.08683e-14
8.0842e-14
8.09969e-14
8.09268e-14
8.10584e-14
8.09751e-14
8.11424e-14
8.11e-14
8.12405e-14
8.12475e-14
8.12852e-14
8.13398e-14
8.1382e-14
8.14441e-14
8.1472e-14
8.15046e-14
8.1584e-14
8.16545e-14
8.1712e-14
8.17869e-14
8.17961e-14
8.18485e-14
8.19438e-14
8.19706e-14
8.21062e-14
8.22032e-14
8.22495e-14
8.2319e-14
8.23228e-14
8.23979e-14
8.2455e-14
8.24644e-14
8.25697e-14
8.26e-14
8.26642e-14
8.26978e-14
8.27643e-14
8.27621e-14
8.28757e-14
8.29421e-14
8.29356e-14
8.30589e-14
8.29706e-14
8.30743e-14
8.30292e-14
8.31291e-14
8.31676e-14
8.31817e-14
8.33654e-14
8.33759e-14
8.34642e-14
8.3518e-14
8.35479e-14
8.35711e-14
8.3667e-14
8.36305e-14
8.37936e-14
8.37897e-14
8.38685e-14
8.38894e-14
8.39423e-14
8.3977e-14
8.39901e-14
8.40031e-14
8.4008e-14
8.39967e-14
8.40516e-14
8.40278e-14
8.40663e-14
8.40714e-14
8.41224e-14
8.41597e-14
8.41364e-14
8.42522e-14
8.41538e-14
8.42532e-14
8.41815e-14
8.42387e-14
8.41965e-14
8.43156e-14
8.42452e-14
8.43802e-14
8.42693e-14
8.43773e-14
8.42722e-14
8.44205e-14
8.43093e-14
8.44636e-14
8.43524e-14
8.45065e-14
8.43732e-14
8.45153e-14
8.44332e-14
8.45448e-14
8.4478e-14
8.45895e-14
8.4539e-14
8.46163e-14
8.45919e-14
8.46512e-14
8.46081e-14
8.46316e-14
8.45911e-14
8.46131e-14
8.4633e-14
8.45967e-14
8.4646e-14
8.46078e-14
8.46596e-14
8.46451e-14
8.46424e-14
8.46818e-14
8.45875e-14
8.4664e-14
8.46473e-14
8.46241e-14
8.46743e-14
8.46163e-14
8.46735e-14
8.46358e-14
8.46411e-14
8.45873e-14
8.46431e-14
8.46307e-14
8.46126e-14
8.46729e-14
8.4561e-14
8.46375e-14
8.45694e-14
8.45589e-14
8.45959e-14
8.45458e-14
8.45778e-14
8.44963e-14
8.45334e-14
8.45234e-14
8.45074e-14
8.44855e-14
8.44842e-14
8.44812e-14
8.44297e-14
8.44772e-14
8.44075e-14
8.44426e-14
8.44021e-14
8.44438e-14
8.43793e-14
8.44638e-14
8.4337e-14
8.44714e-14
8.43065e-14
8.45027e-14
8.43192e-14
8.44588e-14
8.43448e-14
8.43874e-14
8.43524e-14
8.44021e-14
8.43589e-14
8.44689e-14
8.43459e-14
8.44881e-14
8.43287e-14
8.4461e-14
8.43244e-14
8.43872e-14
8.43175e-14
8.43837e-14
8.43252e-14
8.43992e-14
8.43305e-14
8.4417e-14
8.4333e-14
8.44205e-14
8.43497e-14
8.44099e-14
8.43301e-14
8.44528e-14
8.43068e-14
8.44651e-14
8.43132e-14
8.44643e-14
8.43323e-14
8.44498e-14
8.43483e-14
8.44205e-14
8.43106e-14
8.44095e-14
8.42699e-14
8.4417e-14
8.42851e-14
8.44443e-14
8.42621e-14
8.44575e-14
8.42432e-14
8.44485e-14
8.42367e-14
8.44341e-14
8.42429e-14
8.44315e-14
8.42368e-14
8.44063e-14
8.42189e-14
8.43751e-14
8.42066e-14
8.43886e-14
8.4191e-14
8.44045e-14
8.42141e-14
8.43979e-14
8.42089e-14
8.43938e-14
8.42009e-14
8.43755e-14
8.41903e-14
8.43681e-14
8.41857e-14
8.43632e-14
8.41954e-14
8.43526e-14
8.42031e-14
8.43526e-14
8.41924e-14
8.43546e-14
8.41881e-14
8.43587e-14
8.41902e-14
8.43652e-14
8.41904e-14
8.43822e-14
8.41804e-14
8.43852e-14
8.41765e-14
8.43664e-14
8.41706e-14
8.435e-14
8.41631e-14
8.4344e-14
8.41539e-14
8.43321e-14
8.41513e-14
8.43143e-14
8.41473e-14
8.43063e-14
8.4134e-14
8.42922e-14
8.41196e-14
8.42718e-14
8.41119e-14
8.4249e-14
8.40993e-14
8.42355e-14
8.40936e-14
8.42194e-14
8.40833e-14
8.42161e-14
8.40837e-14
8.42061e-14
8.40757e-14
8.41854e-14
8.40594e-14
8.41695e-14
8.40463e-14
8.41582e-14
8.40401e-14
8.41438e-14
8.40334e-14
8.41338e-14
8.40262e-14
8.41281e-14
8.40185e-14
8.41266e-14
8.40066e-14
8.41257e-14
8.40052e-14
8.41179e-14
8.39996e-14
8.41033e-14
8.40008e-14
8.40964e-14
8.40016e-14
8.40935e-14
8.39984e-14
8.40945e-14
8.39984e-14
8.41029e-14
8.39946e-14
8.4101e-14
8.39973e-14
8.40925e-14
8.39963e-14
8.40879e-14
8.39985e-14
8.40905e-14
8.40004e-14
8.40933e-14
8.39986e-14
8.40896e-14
8.39966e-14
8.40795e-14
8.40027e-14
8.40748e-14
8.40102e-14
8.40785e-14
8.40094e-14
8.40774e-14
8.40084e-14
8.40717e-14
8.40041e-14
8.40709e-14
8.40077e-14
8.40671e-14
8.40081e-14
8.40635e-14
8.40067e-14
8.40568e-14
8.40053e-14
8.40534e-14
8.40008e-14
8.40548e-14
8.39931e-14
8.40609e-14
8.39915e-14
8.40609e-14
8.39884e-14
8.4058e-14
8.39836e-14
8.40567e-14
8.39818e-14
8.40541e-14
8.39814e-14
8.40515e-14
8.39795e-14
8.4049e-14
8.39775e-14
8.40482e-14
8.39754e-14
8.40459e-14
8.39761e-14
8.40423e-14
8.39754e-14
8.40402e-14
8.39717e-14
8.40396e-14
8.39708e-14
8.40419e-14
8.39748e-14
8.40429e-14
8.39745e-14
8.40432e-14
8.39741e-14
8.40436e-14
8.39744e-14
8.40433e-14
8.39746e-14
8.40445e-14
8.39754e-14
8.40478e-14
8.39748e-14
8.40512e-14
8.39733e-14
8.40519e-14
8.3974e-14
8.40526e-14
8.39738e-14
8.40547e-14
8.39736e-14
8.4057e-14
8.39734e-14
8.40593e-14
8.39723e-14
8.40609e-14
8.39719e-14
8.40626e-14
8.39721e-14
8.40637e-14
8.39723e-14
8.40641e-14
8.39724e-14
8.40645e-14
8.39724e-14
8.40658e-14
8.39717e-14
8.40685e-14
8.39727e-14
8.40706e-14
8.39737e-14
8.40725e-14
8.39727e-14
8.40736e-14
8.39724e-14
8.40751e-14
8.39725e-14
8.40767e-14
8.39725e-14
8.408e-14
8.39729e-14
8.40834e-14
8.39732e-14
8.40848e-14
8.39726e-14
8.40854e-14
8.39712e-14
8.4087e-14
8.39713e-14
8.40882e-14
8.39715e-14
8.40899e-14
8.39707e-14
8.40907e-14
8.39703e-14
8.40904e-14
8.39698e-14
8.40913e-14
8.39693e-14
8.40929e-14
8.39692e-14
8.40933e-14
8.3969e-14
8.40932e-14
8.39688e-14
8.40945e-14
8.39686e-14
8.4096e-14
8.39686e-14
8.40958e-14
8.39682e-14
8.40952e-14
8.39671e-14
8.40956e-14
8.39667e-14
8.40964e-14
8.39665e-14
8.40966e-14
8.3966e-14
8.40971e-14
8.3965e-14
8.40977e-14
8.39638e-14
8.40986e-14
8.39629e-14
8.40996e-14
8.3962e-14
8.41003e-14
8.39613e-14
8.41013e-14
8.39607e-14
8.41018e-14
8.39603e-14
8.41014e-14
8.39595e-14
8.41014e-14
8.39591e-14
8.41023e-14
8.39587e-14
8.4103e-14
8.39581e-14
8.41028e-14
8.39574e-14
8.41028e-14
8.39573e-14
8.41025e-14
8.39571e-14
8.41025e-14
8.39571e-14
8.41023e-14
8.3957e-14
8.41011e-14
8.39571e-14
8.41005e-14
8.39574e-14
8.41004e-14
8.39579e-14
8.40998e-14
8.3958e-14
8.40992e-14
8.39581e-14
8.40987e-14
8.39582e-14
8.40981e-14
8.39588e-14
8.40972e-14
8.39593e-14
8.40965e-14
8.39594e-14
8.4096e-14
8.39596e-14
8.40955e-14
8.39599e-14
8.40948e-14
8.39603e-14
8.4094e-14
8.39604e-14
8.40938e-14
8.39605e-14
8.40937e-14
8.39607e-14
8.40933e-14
8.39608e-14
8.4093e-14
8.39608e-14
8.40927e-14
8.39607e-14
8.40925e-14
8.39606e-14
8.40924e-14
8.39606e-14
8.40922e-14
8.39607e-14
8.4092e-14
8.39607e-14
8.40918e-14
8.39609e-14
8.40916e-14
8.3961e-14
8.40914e-14
8.39609e-14
8.40913e-14
8.39609e-14
8.40912e-14
8.39609e-14
8.40912e-14
8.3961e-14
8.40911e-14
8.39609e-14
8.4091e-14
8.39609e-14
8.4091e-14
8.39609e-14
8.4091e-14
8.3961e-14
8.4091e-14
8.3961e-14
8.4091e-14
8.3961e-14
8.4091e-14
8.3961e-14
8.4091e-14
8.3961e-14
8.4091e-14
8.3961e-14
8.4091e-14
8.3961e-14
8.4091e-14
8.3961e-14
8.4091e-14
8.31586e-14
8.32696e-14
8.33084e-14
8.34006e-14
8.34787e-14
8.35075e-14
8.36442e-14
8.35685e-14
8.36833e-14
8.36109e-14
8.37946e-14
8.38456e-14
8.38418e-14
8.40467e-14
8.3868e-14
8.41239e-14
8.39941e-14
8.40828e-14
8.4049e-14
8.41491e-14
8.4116e-14
8.41412e-14
8.42124e-14
8.4204e-14
8.42132e-14
8.41945e-14
8.41974e-14
8.42407e-14
8.41792e-14
8.42937e-14
8.42295e-14
8.42838e-14
8.42755e-14
8.43434e-14
8.43174e-14
8.43869e-14
8.43547e-14
8.43541e-14
8.43399e-14
8.42902e-14
8.43658e-14
8.43281e-14
8.44006e-14
8.44118e-14
8.44373e-14
8.44616e-14
8.44751e-14
8.45115e-14
8.45113e-14
8.45942e-14
8.45403e-14
8.46262e-14
8.45909e-14
8.46376e-14
8.46059e-14
8.46533e-14
8.46161e-14
8.46129e-14
8.46591e-14
8.46032e-14
8.47088e-14
8.46512e-14
8.46722e-14
8.46331e-14
8.47028e-14
8.45477e-14
8.47491e-14
8.45705e-14
8.47208e-14
8.45751e-14
8.46745e-14
8.46307e-14
8.4728e-14
8.46514e-14
8.46922e-14
8.4635e-14
8.46619e-14
8.46486e-14
8.46331e-14
8.4662e-14
8.45866e-14
8.4595e-14
8.45402e-14
8.45435e-14
8.45256e-14
8.45574e-14
8.44905e-14
8.45571e-14
8.44823e-14
8.4446e-14
8.44414e-14
8.44304e-14
8.43992e-14
8.44628e-14
8.4385e-14
8.44478e-14
8.43332e-14
8.44183e-14
8.43428e-14
8.44427e-14
8.43298e-14
8.44209e-14
8.43118e-14
8.4419e-14
8.42887e-14
8.44205e-14
8.426e-14
8.43916e-14
8.43099e-14
8.44175e-14
8.43213e-14
8.4448e-14
8.42764e-14
8.44839e-14
8.43082e-14
8.4476e-14
8.43339e-14
8.44394e-14
8.43562e-14
8.43886e-14
8.4361e-14
8.43902e-14
8.43484e-14
8.43928e-14
8.4352e-14
8.43794e-14
8.43894e-14
8.43662e-14
8.43768e-14
8.43689e-14
8.43819e-14
8.44051e-14
8.4387e-14
8.44414e-14
8.43918e-14
8.44614e-14
8.43787e-14
8.44659e-14
8.44157e-14
8.44725e-14
8.44007e-14
8.44637e-14
8.4394e-14
8.44397e-14
8.4379e-14
8.4451e-14
8.43635e-14
8.44809e-14
8.43554e-14
8.44874e-14
8.43459e-14
8.44625e-14
8.43354e-14
8.44484e-14
8.43153e-14
8.44278e-14
8.42855e-14
8.44092e-14
8.42884e-14
8.44182e-14
8.42815e-14
8.44209e-14
8.42733e-14
8.44002e-14
8.42637e-14
8.4373e-14
8.42616e-14
8.43302e-14
8.42337e-14
8.4305e-14
8.42304e-14
8.42886e-14
8.42351e-14
8.4281e-14
8.42312e-14
8.42734e-14
8.42269e-14
8.42659e-14
8.42224e-14
8.42501e-14
8.42261e-14
8.42423e-14
8.42298e-14
8.42259e-14
8.42338e-14
8.4217e-14
8.42381e-14
8.4199e-14
8.42185e-14
8.41799e-14
8.42077e-14
8.41762e-14
8.41893e-14
8.41715e-14
8.42034e-14
8.4158e-14
8.4186e-14
8.41516e-14
8.4169e-14
8.41445e-14
8.41683e-14
8.41367e-14
8.41522e-14
8.41283e-14
8.41325e-14
8.41233e-14
8.41248e-14
8.41179e-14
8.41134e-14
8.41277e-14
8.41059e-14
8.41373e-14
8.41022e-14
8.41276e-14
8.41061e-14
8.41218e-14
8.4091e-14
8.41235e-14
8.40797e-14
8.41216e-14
8.40721e-14
8.4116e-14
8.40682e-14
8.41182e-14
8.40605e-14
8.41205e-14
8.40527e-14
8.41267e-14
8.40411e-14
8.41222e-14
8.40438e-14
8.41144e-14
8.40355e-14
8.41106e-14
8.4027e-14
8.41035e-14
8.40148e-14
8.41003e-14
8.4013e-14
8.40975e-14
8.40075e-14
8.40879e-14
8.40053e-14
8.40821e-14
8.40028e-14
8.40801e-14
8.40002e-14
8.40783e-14
8.40008e-14
8.40698e-14
8.39977e-14
8.4065e-14
8.39979e-14
8.40604e-14
8.39929e-14
8.40676e-14
8.39895e-14
8.40716e-14
8.39874e-14
8.40693e-14
8.39868e-14
8.40638e-14
8.39812e-14
8.40667e-14
8.39802e-14
8.40729e-14
8.39774e-14
8.40713e-14
8.39744e-14
8.40667e-14
8.39666e-14
8.40671e-14
8.39678e-14
8.40661e-14
8.39674e-14
8.40653e-14
8.39591e-14
8.40647e-14
8.39567e-14
8.40673e-14
8.39587e-14
8.407e-14
8.3959e-14
8.40714e-14
8.39576e-14
8.40701e-14
8.3953e-14
8.40703e-14
8.39542e-14
8.40679e-14
8.39567e-14
8.4067e-14
8.3959e-14
8.40663e-14
8.39598e-14
8.40672e-14
8.39575e-14
8.40697e-14
8.39594e-14
8.40723e-14
8.39632e-14
8.40722e-14
8.3967e-14
8.40709e-14
8.39699e-14
8.40689e-14
8.39741e-14
8.4067e-14
8.39768e-14
8.4066e-14
8.39802e-14
8.4065e-14
8.39834e-14
8.40655e-14
8.39866e-14
8.40662e-14
8.39898e-14
8.40668e-14
8.39907e-14
8.4069e-14
8.39917e-14
8.40705e-14
8.39932e-14
8.40707e-14
8.39969e-14
8.40716e-14
8.39984e-14
8.40719e-14
8.39992e-14
8.40737e-14
8.39999e-14
8.40748e-14
8.40028e-14
8.40745e-14
8.40034e-14
8.40758e-14
8.40041e-14
8.40778e-14
8.4005e-14
8.4078e-14
8.40056e-14
8.40783e-14
8.40058e-14
8.40782e-14
8.40063e-14
8.40793e-14
8.40053e-14
8.40816e-14
8.40054e-14
8.40828e-14
8.40051e-14
8.40837e-14
8.40051e-14
8.40842e-14
8.40047e-14
8.40839e-14
8.40047e-14
8.40828e-14
8.40043e-14
8.4083e-14
8.40047e-14
8.40836e-14
8.40055e-14
8.40826e-14
8.40063e-14
8.40811e-14
8.40075e-14
8.40805e-14
8.40074e-14
8.40804e-14
8.40063e-14
8.40803e-14
8.40064e-14
8.40802e-14
8.40062e-14
8.40799e-14
8.4006e-14
8.40793e-14
8.40058e-14
8.40788e-14
8.4006e-14
8.40785e-14
8.40063e-14
8.40782e-14
8.4006e-14
8.40775e-14
8.4006e-14
8.40764e-14
8.40062e-14
8.40756e-14
8.40065e-14
8.40754e-14
8.40064e-14
8.40749e-14
8.40066e-14
8.40741e-14
8.40069e-14
8.40733e-14
8.40071e-14
8.40734e-14
8.40065e-14
8.40737e-14
8.40064e-14
8.40738e-14
8.40065e-14
8.40731e-14
8.40067e-14
8.40725e-14
8.40069e-14
8.40723e-14
8.40064e-14
8.40725e-14
8.40068e-14
8.40728e-14
8.40066e-14
8.40725e-14
8.40066e-14
8.40721e-14
8.40072e-14
8.4072e-14
8.40077e-14
8.4072e-14
8.40081e-14
8.40718e-14
8.40081e-14
8.40713e-14
8.40083e-14
8.4071e-14
8.40086e-14
8.40707e-14
8.40089e-14
8.40707e-14
8.40091e-14
8.40706e-14
8.40095e-14
8.40704e-14
8.40098e-14
8.40701e-14
8.40096e-14
8.40697e-14
8.40098e-14
8.40695e-14
8.401e-14
8.40693e-14
8.40103e-14
8.40693e-14
8.40105e-14
8.40692e-14
8.40107e-14
8.40692e-14
8.40107e-14
8.40692e-14
8.40109e-14
8.4069e-14
8.4011e-14
8.40689e-14
8.40111e-14
8.4069e-14
8.40111e-14
8.40691e-14
8.40113e-14
8.4069e-14
8.40114e-14
8.40691e-14
8.40114e-14
8.40692e-14
8.40115e-14
8.40691e-14
8.40117e-14
8.4069e-14
8.40119e-14
8.4069e-14
8.4012e-14
8.40691e-14
8.40121e-14
8.4069e-14
8.40122e-14
8.40689e-14
8.40122e-14
8.40688e-14
8.40123e-14
8.40688e-14
8.40124e-14
8.40687e-14
8.40125e-14
8.40687e-14
8.40125e-14
8.40686e-14
8.40125e-14
8.40687e-14
8.40125e-14
8.40687e-14
8.40125e-14
8.40686e-14
8.40125e-14
8.40686e-14
8.40125e-14
8.40686e-14
8.40125e-14
8.40686e-14
)
;

boundaryField
{
    walls
    {
        type            zeroGradient;
    }
    inlet
    {
        type            cyclic;
    }
    outlet
    {
        type            cyclic;
    }
    sides
    {
        type            empty;
    }
}


// ************************************************************************* //
