/*--------------------------------*- C++ -*----------------------------------*\
| =========                 |                                                 |
| \\      /  F ield         | OpenFOAM: The Open Source CFD Toolbox           |
|  \\    /   O peration     | Version:  2106                                  |
|   \\  /    A nd           | Website:  www.openfoam.com                      |
|    \\/     M anipulation  |                                                 |
\*---------------------------------------------------------------------------*/
FoamFile
{
    version     2.0;
    format      ascii;
    arch        "LSB;label=32;scalar=64";
    class       surfaceScalarField;
    location    "10100";
    object      phi;
}
// * * * * * * * * * * * * * * * * * * * * * * * * * * * * * * * * * * * * * //

dimensions      [0 3 -1 0 0 0 0];

oriented        oriented;

internalField   nonuniform List<scalar> 
3996
(
9.0411e-09
-5.121e-18
-2.49047e-22
-4.73537e-22
-1.42313e-23
2.77981e-08
-5.11786e-18
-1.07893e-21
-2.4305e-21
-9.70602e-23
4.76021e-08
-5.11467e-18
-1.09851e-21
-4.42616e-21
-1.02519e-22
6.84985e-08
-5.1114e-18
-1.12737e-21
-6.4684e-21
-1.08234e-22
9.05349e-08
-5.10804e-18
-1.15783e-21
-8.56121e-21
-1.14213e-22
1.1376e-07
-5.1046e-18
-1.18854e-21
-1.06843e-20
-1.20465e-22
1.38226e-07
-5.1011e-18
-1.2202e-21
-1.28907e-20
-1.27e-22
1.63986e-07
-5.09746e-18
-1.25291e-21
-1.51303e-20
-1.33824e-22
1.91094e-07
-5.09375e-18
-1.28646e-21
-1.74148e-20
-1.40948e-22
2.19609e-07
-5.08996e-18
-1.32075e-21
-1.97532e-20
-1.48382e-22
2.49591e-07
-5.08616e-18
-1.35575e-21
-2.21129e-20
-1.56135e-22
2.811e-07
-5.08217e-18
-1.39145e-21
-2.44606e-20
-1.64218e-22
3.14204e-07
-5.07811e-18
-1.42787e-21
-2.69177e-20
-1.72643e-22
3.48967e-07
-5.07389e-18
-1.465e-21
-2.94464e-20
-1.81421e-22
3.85461e-07
-5.06957e-18
-1.50286e-21
-3.19358e-20
-1.9056e-22
4.23758e-07
-5.06523e-18
-1.54143e-21
-3.45976e-20
-2.00076e-22
4.63933e-07
-5.06079e-18
-1.58073e-21
-3.74008e-20
-2.09977e-22
5.06064e-07
-5.05611e-18
-1.62075e-21
-4.02014e-20
-2.20268e-22
5.50233e-07
-5.05131e-18
-1.66151e-21
-4.31375e-20
-2.30963e-22
5.96526e-07
-5.04641e-18
-1.70299e-21
-4.61897e-20
-2.42069e-22
6.45028e-07
-5.04142e-18
-1.74521e-21
-4.91584e-20
-2.53594e-22
6.95833e-07
-5.03632e-18
-1.78817e-21
-5.21336e-20
-2.65547e-22
7.49034e-07
-5.03106e-18
-1.83187e-21
-5.52812e-20
-2.77945e-22
8.0473e-07
-5.02583e-18
-1.8763e-21
-5.84031e-20
-2.90795e-22
8.63024e-07
-5.02041e-18
-1.92147e-21
-6.14702e-20
-3.04107e-22
9.24022e-07
-5.0147e-18
-1.96738e-21
-6.48322e-20
-3.17893e-22
9.87835e-07
-5.00927e-18
-2.01405e-21
-6.79836e-20
-3.32158e-22
1.05458e-06
-5.00363e-18
-2.06144e-21
-7.11524e-20
-3.46924e-22
1.12437e-06
-4.99802e-18
-2.10958e-21
-7.42893e-20
-3.62208e-22
1.19733e-06
-4.99167e-18
-2.15842e-21
-7.7853e-20
-3.78033e-22
1.27359e-06
-4.98557e-18
-2.20802e-21
-8.09664e-20
-3.94383e-22
1.35329e-06
-4.97899e-18
-2.25835e-21
-8.46119e-20
-4.11278e-22
1.43655e-06
-4.97244e-18
-2.30946e-21
-8.83119e-20
-4.28699e-22
1.52354e-06
-4.96608e-18
-2.36131e-21
-9.19547e-20
-4.46674e-22
1.61439e-06
-4.95952e-18
-2.41389e-21
-9.54566e-20
-4.65195e-22
1.70926e-06
-4.95278e-18
-2.46717e-21
-9.91339e-20
-4.843e-22
1.80831e-06
-4.94542e-18
-2.52117e-21
-1.02973e-19
-5.03987e-22
1.91171e-06
-4.9383e-18
-2.57589e-21
-1.0754e-19
-5.24247e-22
2.01962e-06
-4.93068e-18
-2.63132e-21
-1.1201e-19
-5.45075e-22
2.13224e-06
-4.923e-18
-2.68746e-21
-1.16336e-19
-5.66445e-22
2.24975e-06
-4.91527e-18
-2.74435e-21
-1.21218e-19
-5.88402e-22
2.37233e-06
-4.90725e-18
-2.80198e-21
-1.25973e-19
-6.10915e-22
2.5002e-06
-4.89977e-18
-2.86037e-21
-1.30149e-19
-6.33956e-22
2.63355e-06
-4.89199e-18
-2.91942e-21
-1.34268e-19
-6.57586e-22
2.77261e-06
-4.8838e-18
-2.97912e-21
-1.38648e-19
-6.81828e-22
2.91759e-06
-4.87545e-18
-3.03951e-21
-1.43394e-19
-7.06656e-22
3.06873e-06
-4.86751e-18
-3.10055e-21
-1.47936e-19
-7.32053e-22
3.22627e-06
-4.85884e-18
-3.16215e-21
-1.52761e-19
-7.58046e-22
3.39045e-06
-4.84979e-18
-3.22438e-21
-1.56954e-19
-7.84616e-22
3.56153e-06
-4.84085e-18
-3.28723e-21
-1.61812e-19
-8.11805e-22
3.73978e-06
-4.83198e-18
-3.35067e-21
-1.66559e-19
-8.39419e-22
3.92546e-06
-4.82191e-18
-3.41473e-21
-1.72032e-19
-8.67437e-22
4.11888e-06
-4.81268e-18
-3.4795e-21
-1.77172e-19
-8.95872e-22
4.32031e-06
-4.80274e-18
-3.54486e-21
-1.82079e-19
-9.24662e-22
4.53006e-06
-4.79139e-18
-3.61077e-21
-1.88106e-19
-9.53807e-22
4.74844e-06
-4.78135e-18
-3.67743e-21
-1.93286e-19
-9.83208e-22
4.97578e-06
-4.77083e-18
-3.74458e-21
-1.9972e-19
-1.01288e-21
5.2124e-06
-4.75997e-18
-3.81224e-21
-2.05372e-19
-1.04256e-21
5.45865e-06
-4.74836e-18
-3.88043e-21
-2.12324e-19
-1.07231e-21
5.71487e-06
-4.73717e-18
-3.9492e-21
-2.19166e-19
-1.10204e-21
5.98143e-06
-4.72577e-18
-4.01839e-21
-2.23312e-19
-1.13178e-21
6.25869e-06
-4.71486e-18
-4.08769e-21
-2.28734e-19
-1.16203e-21
6.54704e-06
-4.70322e-18
-4.15718e-21
-2.34228e-19
-1.19221e-21
6.84685e-06
-4.69221e-18
-4.2268e-21
-2.39743e-19
-1.22234e-21
7.15853e-06
-4.67958e-18
-4.29625e-21
-2.45094e-19
-1.25241e-21
7.48247e-06
-4.66783e-18
-4.36563e-21
-2.50305e-19
-1.28217e-21
7.81908e-06
-4.65859e-18
-4.43467e-21
-2.54911e-19
-1.31152e-21
8.16878e-06
-4.64617e-18
-4.50316e-21
-2.59664e-19
-1.34021e-21
8.53199e-06
-4.63819e-18
-4.57137e-21
-2.62295e-19
-1.3681e-21
8.90913e-06
-4.62555e-18
-4.63818e-21
-2.68813e-19
-1.39535e-21
9.30062e-06
-4.61535e-18
-4.70369e-21
-2.739e-19
-1.42199e-21
9.70691e-06
-4.60334e-18
-4.76735e-21
-2.81182e-19
-1.44768e-21
1.01284e-05
-4.59098e-18
-4.82913e-21
-2.86977e-19
-1.47183e-21
1.05656e-05
-4.57943e-18
-4.88865e-21
-2.94025e-19
-1.49532e-21
1.10188e-05
-4.56695e-18
-4.94589e-21
-3.0244e-19
-1.51764e-21
1.14885e-05
-4.55265e-18
-5.00023e-21
-3.10492e-19
-1.53765e-21
1.19751e-05
-4.54117e-18
-5.05168e-21
-3.17381e-19
-1.55672e-21
1.24791e-05
-4.52122e-18
-5.09909e-21
-3.28128e-19
-1.57446e-21
1.30008e-05
-4.50939e-18
-5.14536e-21
-3.31833e-19
-1.58856e-21
1.35407e-05
-4.49968e-18
-5.1874e-21
-3.34423e-19
-1.60128e-21
1.4099e-05
-4.48709e-18
-5.22416e-21
-3.40203e-19
-1.61437e-21
1.46763e-05
-4.47407e-18
-5.25674e-21
-3.45833e-19
-1.62582e-21
1.52729e-05
-4.46223e-18
-5.28397e-21
-3.52244e-19
-1.63526e-21
1.58891e-05
-4.44664e-18
-5.30452e-21
-3.60797e-19
-1.64378e-21
1.65252e-05
-4.43593e-18
-5.3204e-21
-3.65298e-19
-1.65106e-21
1.71817e-05
-4.41762e-18
-5.32868e-21
-3.7129e-19
-1.65774e-21
1.78588e-05
-4.40539e-18
-5.33154e-21
-3.80947e-19
-1.6642e-21
1.85568e-05
-4.38822e-18
-5.32739e-21
-3.90201e-19
-1.66908e-21
1.9276e-05
-4.37041e-18
-5.31855e-21
-4.00582e-19
-1.66958e-21
2.00168e-05
-4.35731e-18
-5.30675e-21
-4.1025e-19
-1.66448e-21
2.07793e-05
-4.33824e-18
-5.29182e-21
-4.21923e-19
-1.65621e-21
2.1564e-05
-4.32608e-18
-5.27481e-21
-4.27504e-19
-1.64155e-21
2.2371e-05
-4.31184e-18
-5.25246e-21
-4.30738e-19
-1.62324e-21
2.32005e-05
-4.29824e-18
-5.22693e-21
-4.37763e-19
-1.60069e-21
2.4053e-05
-4.28271e-18
-5.19673e-21
-4.45032e-19
-1.57316e-21
2.49286e-05
-4.26752e-18
-5.16304e-21
-4.54597e-19
-1.54194e-21
2.58276e-05
-4.25362e-18
-5.12615e-21
-4.65402e-19
-1.50552e-21
2.67502e-05
-4.24087e-18
-5.08262e-21
-4.7293e-19
-1.46413e-21
2.76968e-05
-4.22518e-18
-5.0331e-21
-4.83076e-19
-1.42108e-21
2.86676e-05
-4.20703e-18
-4.97914e-21
-4.91793e-19
-1.37239e-21
2.9663e-05
-4.19286e-18
-4.91924e-21
-4.92969e-19
-1.32379e-21
3.06832e-05
-4.16793e-18
-4.85177e-21
-5.0192e-19
-1.27817e-21
3.17285e-05
-4.14771e-18
-4.78438e-21
-5.12913e-19
-1.23161e-21
3.27993e-05
-4.1309e-18
-4.71782e-21
-5.22164e-19
-1.18056e-21
3.38959e-05
-4.10899e-18
-4.64774e-21
-5.32783e-19
-1.13051e-21
3.50187e-05
-4.08853e-18
-4.58886e-21
-5.43527e-19
-1.07827e-21
3.6168e-05
-4.07031e-18
-4.53702e-21
-5.5783e-19
-1.02017e-21
3.73443e-05
-4.05106e-18
-4.49605e-21
-5.77635e-19
-9.52918e-22
3.85479e-05
-4.05887e-18
-4.46221e-21
-5.61318e-19
-8.72256e-22
3.97794e-05
-4.04583e-18
-4.42332e-21
-5.67997e-19
-7.96743e-22
4.10391e-05
-4.0388e-18
-4.39453e-21
-5.70943e-19
-7.16359e-22
4.23274e-05
-4.03537e-18
-4.36625e-21
-5.72491e-19
-6.3803e-22
4.3645e-05
-4.02755e-18
-4.34139e-21
-5.81232e-19
-5.52839e-22
4.49923e-05
-4.01258e-18
-4.30993e-21
-5.88976e-19
-4.61355e-22
4.63697e-05
-3.99053e-18
-4.28108e-21
-5.98834e-19
-3.69307e-22
4.7778e-05
-3.97581e-18
-4.26211e-21
-6.1409e-19
-2.78659e-22
4.92176e-05
-3.96204e-18
-4.2431e-21
-6.23547e-19
-1.76129e-22
5.06891e-05
-3.9316e-18
-4.2224e-21
-6.4351e-19
-6.60323e-23
5.21931e-05
-3.91243e-18
-4.21709e-21
-6.51085e-19
5.24339e-23
5.37302e-05
-3.89063e-18
-4.2029e-21
-6.68321e-19
1.5839e-22
5.53012e-05
-3.86869e-18
-4.18799e-21
-6.82411e-19
2.67748e-22
5.69066e-05
-3.84626e-18
-4.16218e-21
-6.97367e-19
3.66373e-22
5.85471e-05
-3.8231e-18
-4.14835e-21
-7.14079e-19
4.78453e-22
6.02235e-05
-3.80442e-18
-4.13776e-21
-7.33192e-19
5.97752e-22
6.19364e-05
-3.78255e-18
-4.12766e-21
-7.4979e-19
7.207e-22
6.36867e-05
-3.76395e-18
-4.10918e-21
-7.49896e-19
8.44192e-22
6.5475e-05
-3.73947e-18
-4.07413e-21
-7.576e-19
9.23549e-22
6.73021e-05
-3.70251e-18
-4.08188e-21
-7.96555e-19
1.00889e-21
6.9169e-05
-3.69184e-18
-4.13968e-21
-8.15173e-19
1.10115e-21
7.10762e-05
-3.66998e-18
-4.20557e-21
-8.29875e-19
1.22345e-21
7.30249e-05
-3.64785e-18
-4.30389e-21
-8.53775e-19
1.3933e-21
7.50157e-05
-3.62745e-18
-4.45103e-21
-8.48679e-19
1.59571e-21
7.70495e-05
-3.62621e-18
-4.62206e-21
-8.48866e-19
1.77208e-21
7.91274e-05
-3.61398e-18
-4.77294e-21
-8.37472e-19
1.9615e-21
8.12502e-05
-3.59355e-18
-4.91618e-21
-8.38359e-19
2.14583e-21
8.34188e-05
-3.59684e-18
-5.05522e-21
-8.49407e-19
2.3369e-21
8.56342e-05
-3.58347e-18
-5.14314e-21
-8.56946e-19
2.55121e-21
8.78975e-05
-3.55907e-18
-5.21995e-21
-8.58041e-19
2.78994e-21
9.02096e-05
-3.54648e-18
-5.25563e-21
-8.58557e-19
3.03922e-21
9.25716e-05
-3.5272e-18
-5.3263e-21
-8.70001e-19
3.28929e-21
9.49845e-05
-3.51585e-18
-5.37199e-21
-8.8311e-19
3.52249e-21
9.74494e-05
-3.48807e-18
-5.4359e-21
-8.84033e-19
3.78316e-21
9.99675e-05
-3.46641e-18
-5.49377e-21
-9.04412e-19
4.01291e-21
0.00010254
-3.44155e-18
-5.41462e-21
-9.01069e-19
4.22513e-21
0.000105168
-3.40418e-18
-5.30594e-21
-9.25651e-19
4.32394e-21
0.000107852
-3.38103e-18
-5.26708e-21
-9.39425e-19
4.45915e-21
0.000110594
-3.34902e-18
-5.18755e-21
-9.67714e-19
4.57021e-21
0.000113395
-3.32794e-18
-5.22899e-21
-9.85247e-19
4.6168e-21
0.000116257
-3.29279e-18
-5.25119e-21
-1.02172e-18
4.59257e-21
0.00011918
-3.24397e-18
-5.33016e-21
-1.05424e-18
4.59055e-21
0.000122165
-3.20691e-18
-5.61599e-21
-1.06534e-18
4.6044e-21
0.000125215
-3.18728e-18
-6.02173e-21
-1.12252e-18
4.63336e-21
0.000128331
-3.21077e-18
-6.52493e-21
-1.11304e-18
4.6622e-21
0.000131514
-3.18265e-18
-6.84529e-21
-1.157e-18
4.47205e-21
0.000134765
-3.17253e-18
-7.30705e-21
-1.1671e-18
4.35867e-21
0.000138085
-3.10923e-18
-7.58798e-21
-1.21771e-18
4.21874e-21
0.000141477
-3.08267e-18
-7.83698e-21
-1.24361e-18
4.09751e-21
0.000144942
-3.04828e-18
-8.04086e-21
-1.25008e-18
3.80041e-21
0.000148482
-3.005e-18
-8.2847e-21
-1.28006e-18
3.3819e-21
0.000152097
-2.97705e-18
-8.49338e-21
-1.31487e-18
2.94363e-21
0.000155789
-2.94245e-18
-8.6209e-21
-1.33645e-18
2.58861e-21
0.000159561
-2.91531e-18
-8.57097e-21
-1.331e-18
2.03553e-21
0.000163414
-2.87945e-18
-8.73237e-21
-1.37335e-18
1.51852e-21
0.000167349
-2.86026e-18
-8.80323e-21
-1.38688e-18
1.2649e-21
0.000171368
-2.83601e-18
-8.96378e-21
-1.40072e-18
8.84986e-22
0.000175473
-2.78982e-18
-9.15691e-21
-1.41946e-18
6.23922e-22
0.000179667
-2.76353e-18
-9.50807e-21
-1.44412e-18
2.85583e-22
0.000183949
-2.71153e-18
-9.69972e-21
-1.4635e-18
2.86909e-22
0.000188323
-2.67638e-18
-9.77409e-21
-1.47789e-18
6.1394e-22
0.000192791
-2.64472e-18
-1.00324e-20
-1.47985e-18
9.47657e-22
0.000197354
-2.6446e-18
-1.01682e-20
-1.46086e-18
1.08156e-21
0.000202014
-2.58436e-18
-9.90416e-21
-1.4494e-18
8.53249e-22
0.000206774
-2.57189e-18
-9.67812e-21
-1.49434e-18
1.67426e-22
0.000211635
-2.50844e-18
-9.23156e-21
-1.49762e-18
-4.05272e-22
0.000216599
-2.5014e-18
-9.14126e-21
-1.53633e-18
-1.20091e-21
0.000221669
-2.43014e-18
-8.99938e-21
-1.52452e-18
-1.8635e-21
0.000226847
-2.41302e-18
-9.60642e-21
-1.53725e-18
-2.62649e-21
0.000232135
-2.40265e-18
-1.02796e-20
-1.55873e-18
-3.02442e-21
0.000237535
-2.44507e-18
-1.12042e-20
-1.5178e-18
-3.31124e-21
0.00024305
-2.4671e-18
-1.17418e-20
-1.49538e-18
-4.30186e-21
0.000248681
-2.42398e-18
-1.12688e-20
-1.51037e-18
-5.96079e-21
0.000254432
-2.32445e-18
-1.08724e-20
-1.63231e-18
-7.8133e-21
0.000260304
-2.31431e-18
-1.14375e-20
-1.68654e-18
-8.7232e-21
0.000266301
-2.26758e-18
-1.17869e-20
-1.69413e-18
-9.05926e-21
0.000272424
-2.21338e-18
-1.12999e-20
-1.72783e-18
-1.017e-20
0.000278677
-2.173e-18
-1.0732e-20
-1.84029e-18
-1.13765e-20
0.000285061
-2.12042e-18
-1.17482e-20
-1.83829e-18
-1.14644e-20
0.00029158
-2.09046e-18
-1.23357e-20
-1.85672e-18
-1.23034e-20
0.000298235
-2.07878e-18
-1.28408e-20
-1.85265e-18
-1.2999e-20
0.000305031
-2.05174e-18
-1.32616e-20
-1.84011e-18
-1.47693e-20
0.000311969
-2.02281e-18
-1.4145e-20
-1.86508e-18
-1.59041e-20
0.000319053
-2.00368e-18
-1.54757e-20
-1.88995e-18
-1.59337e-20
0.000326285
-1.9734e-18
-1.56752e-20
-1.88789e-18
-1.4866e-20
0.000333668
-1.96051e-18
-1.58771e-20
-1.91494e-18
-1.32445e-20
0.000341206
-1.95183e-18
-1.58627e-20
-1.9083e-18
-1.15674e-20
0.0003489
-1.92322e-18
-1.50633e-20
-1.8998e-18
-1.04176e-20
0.000356755
-1.84734e-18
-1.58838e-20
-1.92933e-18
-8.33988e-21
0.000364773
-1.80707e-18
-1.70346e-20
-1.90648e-18
-7.20557e-21
0.000372958
-1.80964e-18
-1.73415e-20
-1.82542e-18
-8.00464e-21
0.000381312
-1.84425e-18
-1.72798e-20
-1.74896e-18
-1.16056e-20
0.000389839
-1.73407e-18
-1.71252e-20
-1.79072e-18
-1.6955e-20
0.000398542
-1.80794e-18
-1.82426e-20
-1.69505e-18
-1.84468e-20
0.000407424
-1.76864e-18
-1.8333e-20
-1.72611e-18
-1.94933e-20
0.00041649
-1.68736e-18
-1.92649e-20
-1.61452e-18
-1.95952e-20
0.000425741
-1.59462e-18
-2.08055e-20
-1.58528e-18
-1.9587e-20
0.000435182
-1.54396e-18
-2.18744e-20
-1.53781e-18
-1.92262e-20
0.000444815
-1.51559e-18
-2.20961e-20
-1.51695e-18
-2.23145e-20
0.000454645
-1.4723e-18
-2.09e-20
-1.48339e-18
-2.441e-20
0.000464675
-1.37348e-18
-1.96466e-20
-1.37675e-18
-2.50562e-20
0.000474909
-1.32381e-18
-2.10187e-20
-1.35563e-18
-2.64377e-20
0.000485349
-1.28342e-18
-2.19013e-20
-1.34525e-18
-2.50368e-20
0.000496001
-1.37245e-18
-2.40878e-20
-1.29696e-18
-2.11871e-20
0.000506866
-1.45234e-18
-2.48943e-20
-1.3135e-18
-1.75161e-20
0.000517949
-1.46671e-18
-2.29614e-20
-1.29158e-18
-2.09391e-20
0.000529253
-1.46179e-18
-2.435e-20
-1.2701e-18
-2.72573e-20
0.000540783
-1.50831e-18
-3.00308e-20
-1.45866e-18
-3.42904e-20
0.000552541
-1.48435e-18
-3.42673e-20
-1.37774e-18
-3.26733e-20
0.000564531
-1.46449e-18
-3.17883e-20
-1.43462e-18
-3.2123e-20
0.000576756
-1.45665e-18
-3.0386e-20
-1.44892e-18
-3.10022e-20
0.000589221
-1.54894e-18
-3.00479e-20
-1.43865e-18
-2.96625e-20
0.000601929
-1.34704e-18
-2.18001e-20
-1.33794e-18
-2.93927e-20
0.000614883
-1.3018e-18
-2.26851e-20
-1.35195e-18
-3.58372e-20
0.000628086
-1.28609e-18
-2.4575e-20
-1.34685e-18
-3.61988e-20
0.000641542
-1.27401e-18
-2.96541e-20
-1.31207e-18
-3.30198e-20
0.000655254
-1.25188e-18
-3.325e-20
-1.30634e-18
-3.40856e-20
0.000669225
-1.25185e-18
-3.46308e-20
-1.33012e-18
-3.48473e-20
0.000683458
-1.25525e-18
-3.82062e-20
-1.3425e-18
-3.78282e-20
0.000697955
-1.22872e-18
-4.40832e-20
-1.36124e-18
-3.89601e-20
0.00071272
-1.35947e-18
-5.5922e-20
-1.42373e-18
-3.41261e-20
0.000727754
-1.46018e-18
-5.46855e-20
-1.29772e-18
-3.1164e-20
0.00074306
-1.37634e-18
-4.47195e-20
-1.27579e-18
-3.6327e-20
0.000758638
-1.26993e-18
-3.44555e-20
-1.26786e-18
-4.04547e-20
0.000774492
-1.24825e-18
-2.58541e-20
-1.35528e-18
-3.89619e-20
0.000790621
-1.30228e-18
-2.41983e-20
-1.2786e-18
-3.20066e-20
0.000807026
-1.28273e-18
-2.06722e-20
-1.29651e-18
-2.38502e-20
0.000823708
-1.43232e-18
-2.58987e-20
-1.35023e-18
-2.20571e-20
0.000840665
-1.39774e-18
-2.18346e-20
-1.39396e-18
-2.40952e-20
0.000857897
-1.36714e-18
-1.60599e-20
-1.3561e-18
-1.65682e-20
0.000875401
-1.33322e-18
-2.45256e-20
-1.44363e-18
-1.84483e-20
0.000893176
-1.53504e-18
-3.94828e-20
-1.45735e-18
-3.31069e-20
0.000911216
-1.47957e-18
-3.36855e-20
-1.43286e-18
-3.81895e-20
0.000929518
-1.5787e-18
-2.33224e-20
-1.4587e-18
-3.57312e-20
0.000948076
-1.41827e-18
-1.55047e-20
-1.34414e-18
-9.84506e-21
0.000966882
-1.22003e-18
-1.40446e-20
-1.19697e-18
-6.55444e-21
0.000985929
-1.22177e-18
-1.85919e-20
-1.20814e-18
-1.01914e-20
0.00100521
-1.1416e-18
-2.21674e-20
-1.16043e-18
-6.82499e-21
0.0010247
-1.10182e-18
-2.4549e-20
-1.2436e-18
-3.57277e-20
0.00104441
-1.02911e-18
-5.59148e-21
-1.11366e-18
-2.63465e-20
0.00106431
-1.02864e-18
1.03314e-20
-1.09532e-18
-2.78367e-21
0.00108439
2.49766e-20
-9.70891e-19
-2.49844e-21
-9.9072e-19
9.0411e-09
-2.30535e-22
-3.19017e-23
2.77981e-08
-1.2154e-21
-2.18823e-22
4.76021e-08
-2.21816e-21
-4.16211e-22
6.84985e-08
-3.23594e-21
-6.42073e-22
9.05349e-08
-4.30303e-21
-8.53585e-22
1.1376e-07
-5.38994e-21
-1.08299e-21
1.38226e-07
-6.48429e-21
-1.28539e-21
1.63986e-07
-7.61821e-21
-1.50843e-21
1.91094e-07
-8.77183e-21
-1.7651e-21
2.19609e-07
-9.9772e-21
-1.98964e-21
2.49591e-07
-1.11897e-20
-2.21554e-21
2.811e-07
-1.24553e-20
-2.50319e-21
3.14204e-07
-1.37644e-20
-2.83314e-21
3.48967e-07
-1.51638e-20
-3.07708e-21
3.85461e-07
-1.65633e-20
-3.43626e-21
4.23758e-07
-1.79879e-20
-3.71192e-21
4.63933e-07
-1.94116e-20
-4.0163e-21
5.06064e-07
-2.09071e-20
-4.40895e-21
5.50233e-07
-2.22902e-20
-4.83383e-21
5.96526e-07
-2.37914e-20
-5.3026e-21
6.45028e-07
-2.53899e-20
-5.66193e-21
6.95833e-07
-2.69578e-20
-6.13794e-21
7.49034e-07
-2.8558e-20
-6.6965e-21
8.0473e-07
-3.0197e-20
-7.25162e-21
8.63024e-07
-3.18921e-20
-7.76017e-21
9.24022e-07
-3.38577e-20
-8.43351e-21
9.87835e-07
-3.54904e-20
-9.18362e-21
1.05458e-06
-3.73712e-20
-9.94314e-21
1.12437e-06
-3.88234e-20
-1.0747e-20
1.19733e-06
-4.06147e-20
-1.13741e-20
1.27359e-06
-4.28174e-20
-1.18679e-20
1.35329e-06
-4.52013e-20
-1.21295e-20
1.43655e-06
-4.73139e-20
-1.28391e-20
1.52354e-06
-4.92212e-20
-1.32755e-20
1.61439e-06
-5.11828e-20
-1.42099e-20
1.70926e-06
-5.32645e-20
-1.50959e-20
1.80831e-06
-5.51926e-20
-1.57709e-20
1.91171e-06
-5.71877e-20
-1.69854e-20
2.01962e-06
-5.94452e-20
-1.74385e-20
2.13224e-06
-6.20432e-20
-1.82643e-20
2.24975e-06
-6.45461e-20
-1.93926e-20
2.37233e-06
-6.70924e-20
-2.03094e-20
2.5002e-06
-6.92641e-20
-2.12962e-20
2.63355e-06
-7.14496e-20
-2.21892e-20
2.77261e-06
-7.43924e-20
-2.26337e-20
2.91759e-06
-7.73633e-20
-2.33325e-20
3.06873e-06
-7.97335e-20
-2.47096e-20
3.22627e-06
-8.22234e-20
-2.61116e-20
3.39045e-06
-8.46102e-20
-2.75891e-20
3.56153e-06
-8.68217e-20
-2.81139e-20
3.73978e-06
-8.93731e-20
-2.85725e-20
3.92546e-06
-9.19147e-20
-3.04641e-20
4.11888e-06
-9.46907e-20
-3.23593e-20
4.32031e-06
-9.71884e-20
-3.37992e-20
4.53006e-06
-1.00394e-19
-3.57109e-20
4.74844e-06
-1.02864e-19
-3.801e-20
4.97578e-06
-1.05602e-19
-3.9505e-20
5.2124e-06
-1.08117e-19
-4.13463e-20
5.45865e-06
-1.1116e-19
-4.3526e-20
5.71487e-06
-1.14761e-19
-4.55679e-20
5.98143e-06
-1.16738e-19
-4.91848e-20
6.25869e-06
-1.20732e-19
-5.04489e-20
6.54704e-06
-1.24352e-19
-5.17316e-20
6.84685e-06
-1.27327e-19
-5.3419e-20
7.15853e-06
-1.29946e-19
-5.54933e-20
7.48247e-06
-1.32351e-19
-5.75726e-20
7.81908e-06
-1.36451e-19
-5.93725e-20
8.16878e-06
-1.39703e-19
-6.33287e-20
8.53199e-06
-1.42645e-19
-6.53535e-20
8.90913e-06
-1.44358e-19
-6.93072e-20
9.30062e-06
-1.4781e-19
-7.18034e-20
9.70691e-06
-1.51503e-19
-7.4737e-20
1.01284e-05
-1.55249e-19
-7.84801e-20
1.05656e-05
-1.62461e-19
-8.06651e-20
1.10188e-05
-1.66601e-19
-8.09747e-20
1.14885e-05
-1.6946e-19
-8.65417e-20
1.19751e-05
-1.71724e-19
-9.05224e-20
1.24791e-05
-1.78403e-19
-9.3008e-20
1.30008e-05
-1.81696e-19
-9.57185e-20
1.35407e-05
-1.84312e-19
-1.00557e-19
1.4099e-05
-1.8825e-19
-1.03767e-19
1.46763e-05
-1.90787e-19
-1.05816e-19
1.52729e-05
-1.93461e-19
-1.09728e-19
1.58891e-05
-1.99578e-19
-1.14435e-19
1.65252e-05
-2.01803e-19
-1.16415e-19
1.71817e-05
-2.03634e-19
-1.21235e-19
1.78588e-05
-2.04646e-19
-1.25761e-19
1.85568e-05
-2.06677e-19
-1.23612e-19
1.9276e-05
-2.11153e-19
-1.23421e-19
2.00168e-05
-2.17758e-19
-1.30234e-19
2.07793e-05
-2.20391e-19
-1.31705e-19
2.1564e-05
-2.21758e-19
-1.35655e-19
2.2371e-05
-2.27684e-19
-1.37336e-19
2.32005e-05
-2.31957e-19
-1.3972e-19
2.4053e-05
-2.36209e-19
-1.40557e-19
2.49286e-05
-2.41485e-19
-1.41083e-19
2.58276e-05
-2.42815e-19
-1.45184e-19
2.67502e-05
-2.4689e-19
-1.50995e-19
2.76968e-05
-2.50747e-19
-1.52792e-19
2.86676e-05
-2.4991e-19
-1.62837e-19
2.9663e-05
-2.52402e-19
-1.65712e-19
3.06832e-05
-2.57041e-19
-1.68551e-19
3.17285e-05
-2.62993e-19
-1.64676e-19
3.27993e-05
-2.59737e-19
-1.63713e-19
3.38959e-05
-2.68725e-19
-1.64331e-19
3.50187e-05
-2.68766e-19
-1.68949e-19
3.6168e-05
-2.73266e-19
-1.73149e-19
3.73443e-05
-2.6969e-19
-1.7741e-19
3.85479e-05
-2.76929e-19
-1.74519e-19
3.97794e-05
-2.83449e-19
-1.80156e-19
4.10391e-05
-2.83402e-19
-1.85765e-19
4.23274e-05
-2.89302e-19
-1.79635e-19
4.3645e-05
-2.82833e-19
-1.82178e-19
4.49923e-05
-2.84147e-19
-1.84499e-19
4.63697e-05
-2.83636e-19
-1.90563e-19
4.7778e-05
-2.77848e-19
-1.89697e-19
4.92176e-05
-2.77346e-19
-1.86738e-19
5.06891e-05
-2.86743e-19
-1.88652e-19
5.21931e-05
-2.87732e-19
-1.92537e-19
5.37302e-05
-2.89393e-19
-1.91444e-19
5.53012e-05
-2.79339e-19
-1.96541e-19
5.69066e-05
-2.87168e-19
-1.87752e-19
5.85471e-05
-2.84589e-19
-1.92997e-19
6.02235e-05
-2.86869e-19
-1.96703e-19
6.19364e-05
-2.86135e-19
-1.93178e-19
6.36867e-05
-2.81378e-19
-2.0509e-19
6.5475e-05
-3.00829e-19
-1.90262e-19
6.73021e-05
-3.0079e-19
-2.03975e-19
6.9169e-05
-2.93066e-19
-1.97422e-19
7.10762e-05
-2.84407e-19
-1.90319e-19
7.30249e-05
-2.87782e-19
-1.91471e-19
7.50157e-05
-2.89191e-19
-1.91347e-19
7.70495e-05
-2.93288e-19
-1.87692e-19
7.91274e-05
-3.00216e-19
-1.96331e-19
8.12502e-05
-3.03766e-19
-2.01441e-19
8.34188e-05
-3.06316e-19
-1.99432e-19
8.56342e-05
-3.13532e-19
-1.98967e-19
8.78975e-05
-2.95242e-19
-2.00459e-19
9.02096e-05
-3.21273e-19
-1.96525e-19
9.25716e-05
-3.18404e-19
-1.97467e-19
9.49845e-05
-3.41456e-19
-1.81223e-19
9.74494e-05
-3.37958e-19
-1.8149e-19
9.99675e-05
-2.95237e-19
-1.9376e-19
0.00010254
-2.88688e-19
-2.14218e-19
0.000105168
-3.03155e-19
-2.0884e-19
0.000107852
-2.99022e-19
-2.06611e-19
0.000110594
-3.38869e-19
-2.19361e-19
0.000113395
-3.3637e-19
-2.17497e-19
0.000116257
-3.38589e-19
-2.10184e-19
0.00011918
-3.69036e-19
-2.11511e-19
0.000122165
-3.7514e-19
-1.76372e-19
0.000125215
-3.82316e-19
-1.71416e-19
0.000128331
-3.60416e-19
-1.67474e-19
0.000131514
-3.72517e-19
-1.67898e-19
0.000134765
-3.46348e-19
-1.65729e-19
0.000138085
-3.31489e-19
-1.65754e-19
0.000141477
-3.43201e-19
-1.71798e-19
0.000144942
-3.52036e-19
-1.59971e-19
0.000148482
-3.31312e-19
-1.69711e-19
0.000152097
-3.11514e-19
-1.55089e-19
0.000155789
-2.63043e-19
-1.92018e-19
0.000159561
-2.91271e-19
-1.76538e-19
0.000163414
-2.48526e-19
-1.46615e-19
0.000167349
-2.53722e-19
-1.60471e-19
0.000171368
-2.54304e-19
-1.39416e-19
0.000175473
-2.71956e-19
-1.5269e-19
0.000179667
-2.63015e-19
-1.48284e-19
0.000183949
-2.32909e-19
-1.43362e-19
0.000188323
-2.63096e-19
-1.35347e-19
0.000192791
-2.53541e-19
-1.48133e-19
0.000197354
-2.45218e-19
-1.62663e-19
0.000202014
-2.32398e-19
-1.68065e-19
0.000206774
-2.15941e-19
-1.63298e-19
0.000211635
-2.16183e-19
-1.77367e-19
0.000216599
-2.25594e-19
-1.95469e-19
0.000221669
-2.45988e-19
-1.91393e-19
0.000226847
-2.35779e-19
-1.66028e-19
0.000232135
-2.51662e-19
-1.78801e-19
0.000237535
-2.85324e-19
-1.9067e-19
0.00024305
-2.69609e-19
-1.99086e-19
0.000248681
-2.85975e-19
-1.76654e-19
0.000254432
-3.17271e-19
-1.85641e-19
0.000260304
-3.19431e-19
-1.72363e-19
0.000266301
-2.25583e-19
-1.89318e-19
0.000272424
-1.74447e-19
-2.23006e-19
0.000278677
-2.56314e-19
-2.85917e-19
0.000285061
-1.94784e-19
-3.28355e-19
0.00029158
-2.0328e-19
-2.94204e-19
0.000298235
-2.41289e-19
-3.61568e-19
0.000305031
-3.05053e-19
-3.33344e-19
0.000311969
-3.53604e-19
-3.21129e-19
0.000319053
-3.1627e-19
-3.20785e-19
0.000326285
-3.31903e-19
-3.22998e-19
0.000333668
-3.46613e-19
-3.66954e-19
0.000341206
-3.46988e-19
-4.05657e-19
0.0003489
-4.37785e-19
-3.56802e-19
0.000356755
-3.95823e-19
-4.01664e-19
0.000364773
-3.36649e-19
-4.34151e-19
0.000372958
-3.38184e-19
-4.60198e-19
0.000381312
-3.83458e-19
-4.90704e-19
0.000389839
-3.5889e-19
-4.38215e-19
0.000398542
-4.34365e-19
-3.67132e-19
0.000407424
-4.71559e-19
-4.25174e-19
0.00041649
-4.56927e-19
-4.21574e-19
0.000425741
-4.18173e-19
-4.66866e-19
0.000435182
-4.16593e-19
-5.55569e-19
0.000444815
-4.1197e-19
-4.98317e-19
0.000454645
-4.41694e-19
-4.54761e-19
0.000464675
-4.94578e-19
-4.31369e-19
0.000474909
-4.72967e-19
-4.48948e-19
0.000485349
-5.01703e-19
-4.86502e-19
0.000496001
-5.76062e-19
-4.73854e-19
0.000506866
-6.08765e-19
-6.35496e-19
0.000517949
-7.53379e-19
-5.98646e-19
0.000529253
-8.81097e-19
-6.11508e-19
0.000540783
-9.03618e-19
-7.13876e-19
0.000552541
-7.46e-19
-7.20651e-19
0.000564531
-7.47256e-19
-7.53963e-19
0.000576756
-7.48794e-19
-7.64671e-19
0.000589221
-6.99946e-19
-7.24928e-19
0.000601929
-7.39545e-19
-7.52452e-19
0.000614883
-7.66444e-19
-7.42363e-19
0.000628086
-8.63199e-19
-7.25009e-19
0.000641542
-8.34249e-19
-7.57241e-19
0.000655254
-7.60757e-19
-7.34115e-19
0.000669225
-7.86392e-19
-7.60853e-19
0.000683458
-7.8325e-19
-7.73122e-19
0.000697955
-7.93264e-19
-7.23454e-19
0.00071272
-6.92347e-19
-6.98367e-19
0.000727754
-6.53363e-19
-6.51185e-19
0.00074306
-5.5939e-19
-6.50786e-19
0.000758638
-4.53964e-19
-5.33082e-19
0.000774492
-5.16568e-19
-5.73989e-19
0.000790621
-5.31575e-19
-5.15857e-19
0.000807026
-5.73666e-19
-5.46624e-19
0.000823708
-6.42236e-19
-6.45843e-19
0.000840665
-6.53521e-19
-6.76343e-19
0.000857897
-7.82284e-19
-7.19831e-19
0.000875401
-8.16721e-19
-8.37833e-19
0.000893176
-8.61705e-19
-7.85665e-19
0.000911216
-8.19706e-19
-8.29096e-19
0.000929518
-9.35891e-19
-7.04735e-19
0.000948076
-8.5271e-19
-8.18501e-19
0.000966882
-8.21981e-19
-8.45476e-19
0.000985929
-9.01171e-19
-8.83615e-19
0.00100521
-8.31619e-19
-1.05985e-18
0.0010247
-6.48359e-19
-8.36388e-19
0.00104441
-6.06008e-19
-6.56961e-19
0.00106431
-6.16081e-19
-7.66303e-19
0.00108439
-8.05457e-19
-8.08839e-19
0.00108439
-1.11858e-18
1.49735e-20
-1.06719e-18
-1.92304e-20
0.00106431
-7.55747e-19
2.63504e-20
-8.91244e-19
-2.95411e-21
0.00104441
-8.05164e-19
-1.24261e-20
-7.28987e-19
2.32216e-20
0.0010247
-7.89656e-19
-2.28781e-20
-5.92685e-19
1.66836e-20
0.00100521
-8.01817e-19
1.34699e-21
-6.71514e-19
5.97606e-21
0.000985929
-6.37797e-19
-1.64955e-21
-6.93097e-19
-1.62861e-20
0.000966882
-6.69708e-19
-1.57077e-21
-7.00493e-19
-2.69617e-20
0.000948076
-6.01445e-19
8.09657e-21
-6.09311e-19
-2.37987e-20
0.000929518
-5.92525e-19
1.99931e-21
-6.73905e-19
-2.33417e-20
0.000911216
-6.32884e-19
-2.5191e-21
-6.43774e-19
-3.02834e-20
0.000893176
-6.15907e-19
-9.07522e-21
-6.15904e-19
-2.20199e-20
0.000875401
-5.94583e-19
-1.34141e-20
-5.83277e-19
-2.36758e-20
0.000857897
-4.60196e-19
-7.50143e-21
-5.78589e-19
-1.02219e-20
0.000840665
-5.52617e-19
-1.56553e-20
-5.11371e-19
-5.47948e-21
0.000823708
-5.07127e-19
-6.18724e-21
-5.30523e-19
-1.70874e-20
0.000807026
-4.48831e-19
-1.37059e-20
-5.36242e-19
-1.51538e-20
0.000790621
-4.25577e-19
-1.67354e-20
-4.65892e-19
-1.34002e-20
0.000774492
-3.66205e-19
-1.76906e-20
-4.23547e-19
-1.32292e-20
0.000758638
-2.9463e-19
-1.63296e-20
-4.33614e-19
-1.42825e-20
0.00074306
-3.77443e-19
-1.82693e-20
-5.11267e-19
-7.359e-21
0.000727754
-3.82536e-19
-1.67706e-20
-4.65031e-19
3.73836e-21
0.00071272
-2.99483e-19
-1.32384e-20
-3.57186e-19
6.12128e-21
0.000697955
-4.13001e-19
-1.3907e-20
-1.61065e-19
4.83372e-21
0.000683458
-3.3149e-19
-1.00923e-20
-2.08542e-19
-2.46438e-21
0.000669225
-3.63699e-19
-8.55028e-21
-2.13192e-19
-1.91109e-21
0.000655254
-3.19476e-19
-2.88729e-21
-2.54235e-19
8.76615e-22
0.000641542
-2.93887e-19
-4.83789e-23
-2.41284e-19
5.63174e-21
0.000628086
-2.2431e-19
1.99635e-21
-2.99904e-19
4.06038e-21
0.000614883
-2.87651e-19
-1.38294e-21
-2.29293e-19
2.67184e-21
0.000601929
-2.24815e-19
-3.49034e-21
-2.71359e-19
4.94316e-22
0.000589221
-2.89745e-19
-4.15214e-21
-2.58442e-19
8.39391e-22
0.000576756
-3.17211e-19
1.97934e-21
-2.55446e-19
5.89969e-21
0.000564531
-2.45125e-19
3.39751e-21
-2.12814e-19
1.0936e-20
0.000552541
-3.5662e-19
-2.47223e-24
-2.57041e-19
6.13587e-21
0.000540783
-3.40509e-19
2.27621e-21
-3.42684e-19
4.33026e-21
0.000529253
-3.50946e-19
7.23938e-21
-3.13214e-19
1.91518e-21
0.000517949
-2.95295e-19
5.28994e-21
-2.72056e-19
-9.58181e-22
0.000506866
-3.25474e-19
6.54611e-21
-4.13085e-19
-5.2473e-21
0.000496001
-3.00144e-19
7.47508e-21
-4.03945e-19
-3.07971e-21
0.000485349
-2.6524e-19
5.98634e-21
-3.85461e-19
-1.95164e-21
0.000474909
-3.36649e-19
4.28655e-21
-2.68916e-19
-3.39494e-22
0.000464675
-3.48699e-19
5.19555e-21
-2.63692e-19
-2.2368e-21
0.000454645
-2.77944e-19
6.29027e-21
-2.50984e-19
-4.54932e-21
0.000444815
-1.8784e-19
6.2859e-21
-3.51699e-19
-6.93755e-21
0.000435182
-2.04804e-19
1.49589e-21
-2.4058e-19
-9.0116e-22
0.000425741
-1.99848e-19
4.89033e-22
-2.31987e-19
-6.75354e-22
0.00041649
-1.57398e-19
-3.6148e-22
-2.47635e-19
-1.60172e-23
0.000407424
-1.62935e-19
-1.83462e-21
-2.42831e-19
8.71234e-22
0.000398542
-1.58225e-19
-1.01989e-21
-2.54939e-19
6.01246e-22
0.000389839
-1.45848e-19
-6.23949e-22
-2.79365e-19
8.63478e-23
0.000381312
-1.31364e-19
1.3203e-21
-2.40221e-19
1.04397e-21
0.000372958
-1.43232e-19
4.86995e-22
-2.83979e-19
2.07448e-21
0.000364773
-1.84346e-19
-4.76041e-24
-1.64432e-19
3.49866e-21
0.000356755
-2.05321e-19
3.44445e-22
-1.44139e-19
3.41273e-21
0.0003489
-2.04664e-19
6.31785e-23
-1.42755e-19
2.05925e-21
0.000341206
-1.71814e-19
2.42152e-23
-1.57486e-19
1.04388e-21
0.000333668
-1.47498e-19
7.95384e-22
-1.26382e-19
3.59187e-22
0.000326285
-9.10122e-20
-7.17451e-23
-9.09604e-20
3.52095e-22
0.000319053
-1.20931e-19
-1.49996e-21
1.21301e-20
7.17435e-22
0.000311969
-9.9099e-20
-1.51471e-21
-1.13935e-19
-5.28212e-22
0.000305031
-1.3909e-19
-1.92376e-21
-7.64981e-20
2.6671e-22
0.000298235
-1.27462e-19
-1.40818e-21
-1.12131e-19