/*--------------------------------*- C++ -*----------------------------------*\
| =========                 |                                                 |
| \\      /  F ield         | OpenFOAM: The Open Source CFD Toolbox           |
|  \\    /   O peration     | Version:  2106                                  |
|   \\  /    A nd           | Website:  www.openfoam.com                      |
|    \\/     M anipulation  |                                                 |
\*---------------------------------------------------------------------------*/
FoamFile
{
    version     2.0;
    format      ascii;
    arch        "LSB;label=32;scalar=64";
    class       surfaceScalarField;
    location    "10100";
    object      phi;
}
// * * * * * * * * * * * * * * * * * * * * * * * * * * * * * * * * * * * * * //

dimensions      [0 3 -1 0 0 0 0];

oriented        oriented;

internalField   nonuniform List<scalar> 
1596
(
7.04068e-08
-5.05341e-18
-2.5614e-22
-7.63609e-22
7.32506e-23
2.24721e-07
-5.05516e-18
7.35353e-22
-3.59366e-23
2.83447e-22
4.01021e-07
-5.057e-18
7.60282e-22
7.69483e-22
3.23658e-22
6.0177e-07
-5.0586e-18
7.18775e-22
1.41547e-21
3.68307e-22
8.29684e-07
-5.05992e-18
6.69548e-22
1.62143e-21
4.17649e-22
1.08776e-06
-5.06067e-18
6.194e-22
1.53688e-21
4.71967e-22
1.37929e-06
-5.06146e-18
5.55487e-22
1.18307e-21
5.31525e-22
1.70791e-06
-5.062e-18
4.72362e-22
7.9011e-22
5.96543e-22
2.07764e-06
-5.0616e-18
3.67246e-22
-1.22843e-22
6.67182e-22
2.49288e-06
-5.06182e-18
2.37342e-22
-1.78872e-21
7.43805e-22
2.95847e-06
-5.06145e-18
7.96796e-23
-3.97091e-21
8.26578e-22
3.47977e-06
-5.05853e-18
-1.08899e-22
-6.89389e-21
9.15631e-22
4.06263e-06
-5.05619e-18
-3.32619e-22
-1.00283e-20
1.01117e-21
4.7135e-06
-5.05274e-18
-5.95062e-22
-1.28522e-20
1.1129e-21
5.43946e-06
-5.04658e-18
-9.00423e-22
-1.89325e-20
1.22059e-21
6.24824e-06
-5.03935e-18
-1.25472e-21
-2.60451e-20
1.33548e-21
7.14832e-06
-5.03109e-18
-1.66296e-21
-3.46514e-20
1.45736e-21
8.14895e-06
-5.02106e-18
-2.13021e-21
-4.19976e-20
1.58603e-21
9.26015e-06
-5.00365e-18
-2.66172e-21
-5.34855e-20
1.72033e-21
1.04928e-05
-4.98845e-18
-3.26663e-21
-6.84856e-20
1.85911e-21
1.18585e-05
-4.97156e-18
-3.94835e-21
-8.21762e-20
2.00229e-21
1.33698e-05
-4.95496e-18
-4.71466e-21
-9.99533e-20
2.14897e-21
1.50398e-05
-4.93256e-18
-5.56883e-21
-1.186e-19
2.2992e-21
1.6882e-05
-4.90626e-18
-6.51648e-21
-1.35284e-19
2.45304e-21
1.89104e-05
-4.87665e-18
-7.55928e-21
-1.56923e-19
2.60307e-21
2.1139e-05
-4.84201e-18
-8.69365e-21
-1.77301e-19
2.74279e-21
2.35813e-05
-4.81189e-18
-9.91318e-21
-2.03956e-19
2.86445e-21
2.62503e-05
-4.76281e-18
-1.11976e-20
-2.38949e-19
2.96119e-21
2.91579e-05
-4.71644e-18
-1.25446e-20
-2.79251e-19
3.0402e-21
3.23146e-05
-4.66868e-18
-1.39364e-20
-3.12108e-19
3.09556e-21
3.57297e-05
-4.61291e-18
-1.53376e-20
-3.52607e-19
3.09744e-21
3.94111e-05
-4.5538e-18
-1.67328e-20
-3.97607e-19
3.04698e-21
4.33659e-05
-4.50145e-18
-1.80958e-20
-4.41128e-19
2.93622e-21
4.76004e-05
-4.43758e-18
-1.9393e-20
-4.83028e-19
2.75938e-21
5.21208e-05
-4.3652e-18
-2.06148e-20
-5.33914e-19
2.49466e-21
5.69339e-05
-4.28425e-18
-2.18015e-20
-5.81307e-19
2.19737e-21
6.20472e-05
-4.20039e-18
-2.29801e-20
-6.18447e-19
1.86809e-21
6.74693e-05
-4.13436e-18
-2.41089e-20
-6.52699e-19
1.45137e-21
7.32104e-05
-4.06315e-18
-2.50625e-20
-7.00414e-19
9.27489e-22
7.92821e-05
-3.97294e-18
-2.60333e-20
-7.58432e-19
3.75074e-22
8.56977e-05
-3.91248e-18
-2.70102e-20
-8.1223e-19
-1.29197e-22
9.24721e-05
-3.80699e-18
-2.78105e-20
-8.88762e-19
-7.01593e-22
9.96218e-05
-3.71045e-18
-2.86443e-20
-9.6749e-19
-1.27217e-21
0.000107165
-3.61959e-18
-2.94035e-20
-1.03787e-18
-1.83044e-21
0.000115121
-3.52675e-18
-3.00907e-20
-1.09463e-18
-2.4659e-21
0.000123512
-3.42567e-18
-3.06193e-20
-1.16644e-18
-3.09762e-21
0.000132359
-3.30558e-18
-3.11618e-20
-1.23818e-18
-3.63949e-21
0.000141688
-3.20831e-18
-3.19514e-20
-1.32031e-18
-3.9556e-21
0.000151523
-3.14578e-18
-3.2765e-20
-1.35147e-18
-3.93476e-21
0.000161893
-3.06896e-18
-3.32916e-20
-1.37848e-18
-3.96429e-21
0.000172825
-2.94185e-18
-3.36382e-20
-1.45457e-18
-4.09937e-21
0.00018435
-2.83489e-18
-3.38516e-20
-1.4692e-18
-4.23848e-21
0.000196501
-2.7175e-18
-3.40265e-20
-1.51573e-18
-4.89591e-21
0.000209311
-2.62096e-18
-3.43153e-20
-1.58282e-18
-6.07965e-21
0.000222815
-2.54688e-18
-3.45414e-20
-1.61383e-18
-7.31896e-21
0.000237051
-2.45927e-18
-3.40754e-20
-1.63936e-18
-9.04412e-21
0.000252058
-2.35709e-18
-3.40284e-20
-1.59752e-18
-1.06119e-20
0.000267877
-2.29062e-18
-3.36706e-20
-1.61259e-18
-1.28683e-20
0.000284552
-2.28537e-18
-3.3527e-20
-1.61712e-18
-1.47517e-20
0.000302128
-2.17609e-18
-3.21735e-20
-1.63731e-18
-1.67101e-20
0.000320653
-2.15763e-18
-3.19816e-20
-1.62854e-18
-1.69181e-20
0.000340176
-2.12749e-18
-3.05209e-20
-1.65035e-18
-1.89809e-20
0.000360751
-2.06243e-18
-2.95208e-20
-1.64127e-18
-2.02321e-20
0.000382433
-2.04082e-18
-3.05601e-20
-1.59729e-18
-2.17295e-20
0.000405279
-1.94198e-18
-2.86939e-20
-1.65468e-18
-2.52176e-20
0.000429351
-1.9111e-18
-2.9889e-20
-1.66628e-18
-2.51402e-20
0.000454711
-1.78512e-18
-2.8303e-20
-1.67409e-18
-2.32915e-20
0.000481427
-1.7629e-18
-2.58225e-20
-1.59082e-18
-1.97198e-20
0.000509568
-1.60032e-18
-2.18801e-20
-1.5608e-18
-1.94035e-20
0.000539208
-1.52662e-18
-2.12151e-20
-1.48639e-18
-1.72845e-20
0.000570422
-1.50563e-18
-2.3096e-20
-1.45424e-18
-1.79783e-20
0.000603292
-1.35675e-18
-1.65827e-20
-1.50115e-18
-1.8242e-20
0.000637901
-1.29838e-18
-1.81188e-20
-1.39594e-18
-1.37667e-20
0.000674336
-1.42793e-18
-2.79717e-20
-1.41587e-18
-1.54106e-20
0.000712689
-1.33692e-18
-3.8058e-20
-1.40482e-18
-1.50471e-20
0.000753056
-1.42248e-18
-3.63574e-20
-1.38878e-18
-1.69581e-20
0.000795537
-1.31552e-18
-2.47861e-20
-1.42243e-18
-1.54112e-20
0.000840234
-1.53909e-18
-2.53008e-20
-1.46036e-18
-2.06098e-20
0.000887257
-1.46725e-18
3.10163e-21
-1.39452e-18
-1.36854e-20
0.000936718
-1.44526e-18
1.36362e-20
-1.31955e-18
-2.05441e-21
0.000988732
-1.25297e-18
9.61393e-21
-1.1061e-18
2.00522e-21
0.00104342
-1.18819e-18
2.0346e-20
-1.34242e-18
-1.86975e-20
0.00110091
-9.74195e-19
-6.283e-21
-1.22454e-18
4.37547e-22
0.00116133
-1.23101e-18
-5.88772e-20
-1.12461e-18
2.57059e-20
0.00122481
-9.21824e-19
-5.8802e-20
-1.19675e-18
-2.141e-21
0.00129149
-1.21335e-18
-1.10625e-19
-9.1027e-19
-1.0248e-20
0.0013615
-9.52234e-19
-7.63012e-20
-9.17556e-19
1.97186e-20
0.00143498
-8.32493e-19
-3.46426e-20
-9.80991e-19
1.74603e-20
0.00151207
-9.18941e-19
-5.67529e-20
-7.38643e-19
5.63591e-20
0.00159292
-8.91122e-19
1.26646e-20
-7.31072e-19
2.07416e-20
0.00167764
-1.04132e-18
7.4256e-20
-1.03019e-18
2.28818e-20
0.00176637
-8.03612e-19
1.77183e-19
-1.03988e-18
9.71659e-20
0.00185922
-7.79703e-19
8.72763e-20
-7.19048e-19
1.42441e-19
0.00195629
-6.73376e-19
7.33454e-20
-7.14317e-19
1.0404e-19
0.00205764
-7.19035e-19
3.2911e-20
-7.38166e-19
4.01159e-20
0.0021633
-6.51956e-19
1.45109e-20
-7.45908e-19
1.87962e-20
0.00227324
-7.32233e-19
5.59018e-21
-6.08679e-19
2.26209e-20
0.00238736
-9.22447e-19
3.92224e-20
-4.90929e-19
-8.21746e-21
0.00250547
-2.86863e-19
2.10046e-19
-6.52735e-19
-1.28959e-19
0.00262728
9.52806e-20
-3.77156e-19
-1.79611e-21
-4.76468e-19
7.04068e-08
-2.57682e-22
7.74279e-23
2.24721e-07
3.9412e-22
4.82952e-22
4.01021e-07
1.04764e-21
8.82467e-22
6.0177e-07
1.70865e-21
1.40362e-21
8.29684e-07
2.32817e-21
1.91932e-21
1.08776e-06
2.70006e-21
2.67681e-21
1.37929e-06
2.99344e-21
3.5315e-21
1.70791e-06
3.14629e-21
4.42045e-21
2.07764e-06
3.11499e-21
6.13368e-21
2.49288e-06
2.23467e-21
7.68096e-21
2.95847e-06
2.28474e-21
9.03234e-21
3.47977e-06
1.85361e-21
1.01138e-20
4.06263e-06
1.72781e-21
1.04397e-20
4.7135e-06
2.10684e-21
1.13283e-20
5.43946e-06
6.01007e-23
1.393e-20
6.24824e-06
-1.6779e-21
1.65392e-20
7.14832e-06
-3.84637e-21
1.85617e-20
8.14895e-06
-5.92845e-21
2.12703e-20
9.26015e-06
-9.28709e-21
2.12337e-20
1.04928e-05
-1.08297e-20
2.082e-20
1.18585e-05
-1.7342e-20
2.42595e-20
1.33698e-05
-2.35939e-20
2.65483e-20
1.50398e-05
-3.00441e-20
3.08269e-20
1.6882e-05
-3.61797e-20
3.4621e-20
1.89104e-05
-3.98498e-20
3.34945e-20
2.1139e-05
-4.23219e-20
3.32339e-20
2.35813e-05
-4.56492e-20
3.18766e-20
2.62503e-05
-5.05284e-20
3.75921e-20
2.91579e-05
-6.63763e-20
4.09882e-20
3.23146e-05
-7.46204e-20
3.92124e-20
3.57297e-05
-8.43657e-20
3.34082e-20
3.94111e-05
-9.31076e-20
2.40619e-20
4.33659e-05
-1.0402e-19
2.32712e-20
4.76004e-05
-1.09865e-19
1.14364e-20
5.21208e-05
-1.35408e-19
1.78416e-20
5.69339e-05
-1.58295e-19
2.66244e-20
6.20472e-05
-1.52002e-19
2.04152e-20
6.74693e-05
-1.1609e-19
8.62714e-21
7.32104e-05
-1.40986e-19
7.16116e-21
7.92821e-05
-1.47412e-19
2.28142e-20
8.56977e-05
-1.45278e-19
1.19583e-20
9.24721e-05
-1.62779e-19
-3.17856e-21
9.96218e-05
-1.7263e-19
-1.43706e-20
0.000107165
-1.95017e-19
-4.42354e-20
0.000115121
-1.96753e-19
-4.7859e-20
0.000123512
-2.22274e-19
-5.50204e-20
0.000132359
-2.53432e-19
-6.00328e-20
0.000141688
-2.59065e-19
-7.53594e-20
0.000151523
-2.56356e-19
-8.43799e-20
0.000161893
-2.69386e-19
-6.93938e-20
0.000172825
-2.59753e-19
-1.15706e-19
0.00018435
-2.79036e-19
-1.57803e-19
0.000196501
-2.89234e-19
-1.88032e-19
0.000209311
-2.9918e-19
-2.21832e-19
0.000222815
-2.76612e-19
-2.5734e-19
0.000237051
-3.08669e-19
-2.35632e-19
0.000252058
-2.69149e-19
-2.53543e-19
0.000267877
-2.95598e-19
-2.66546e-19
0.000284552
-3.00606e-19
-2.81773e-19
0.000302128
-3.23235e-19
-2.16694e-19
0.000320653
-3.32081e-19
-3.08579e-19
0.000340176
-4.06293e-19
-3.2741e-19
0.000360751
-4.97249e-19
-3.53826e-19
0.000382433
-4.74124e-19
-3.92828e-19
0.000405279
-5.53059e-19
-3.64215e-19
0.000429351
-5.18106e-19
-4.10219e-19
0.000454711
-4.65227e-19
-4.05898e-19
0.000481427
-5.02192e-19
-4.20885e-19
0.000509568
-4.79078e-19
-4.52889e-19
0.000539208
-5.44013e-19
-5.04017e-19
0.000570422
-4.95187e-19
-5.27027e-19
0.000603292
-5.56788e-19
-5.64635e-19
0.000637901
-6.46568e-19
-5.83175e-19
0.000674336
-7.87601e-19
-6.30949e-19
0.000712689
-5.97912e-19
-7.34166e-19
0.000753056
-6.12158e-19
-6.98432e-19
0.000795537
-6.44176e-19
-7.61818e-19
0.000840234
-7.04594e-19
-7.86014e-19
0.000887257
-8.78334e-19
-8.50255e-19
0.000936718
-1.00917e-18
-8.93964e-19
0.000988732
-8.23103e-19
-9.29903e-19
0.00104342
-1.11738e-18
-1.07981e-18
0.00110091
-1.08007e-18
-1.01554e-18
0.00116133
-1.03758e-18
-1.08844e-18
0.00122481
-9.64935e-19
-9.71553e-19
0.00129149
-9.5948e-19
-6.83123e-19
0.0013615
-7.70486e-19
-9.40287e-19
0.00143498
-8.72933e-19
-8.11716e-19
0.00151207
-6.54655e-19
-8.38756e-19
0.00159292
-6.86329e-19
-7.43899e-19
0.00167764
-7.54135e-19
-8.28762e-19
0.00176637
-9.82566e-19
-8.76019e-19
0.00185922
-7.78197e-19
-7.19258e-19
0.00195629
-7.70935e-19
-8.20082e-19
0.00205764
-7.75111e-19
-8.06844e-19
0.0021633
-6.23415e-19
-6.94223e-19
0.00227324
-6.03462e-19
-5.51452e-19
0.00238736
-7.50537e-19
-6.73244e-19
0.00250547
-6.30804e-19
-7.06702e-19
0.00262728
-6.31463e-19
-5.70133e-19
0.00262728
-2.48584e-19
3.29799e-20
-2.36978e-19
1.15444e-19
0.00250547
-1.23333e-19
-1.0375e-19
-3.12585e-19
-4.93215e-20
0.00238736
-3.45458e-19
-2.28197e-19
-1.60719e-19
3.29501e-20
0.00227324
-2.48164e-19
4.32864e-20
-2.19415e-19
1.18277e-19
0.0021633
-5.70577e-19
-1.85655e-20
-3.17263e-19
6.03207e-20
0.00205764
-3.63152e-19
1.49565e-19
-5.16354e-19
-2.63834e-21
0.00195629
-4.96009e-19
3.57895e-20
-6.02076e-19
4.44382e-21
0.00185922
-5.47715e-19
5.65317e-20
-5.68793e-19
-1.34682e-20
0.00176637
-4.57703e-19
6.21118e-20
-5.84839e-19
1.7938e-20
0.00167764
-4.84184e-19
5.69041e-20
-4.40716e-19
4.90952e-20
0.00159292
-5.15292e-19
2.27803e-20
-4.93668e-19
8.25997e-21
0.00151207
-6.41448e-19
-2.32884e-20
-5.82224e-19
-3.02552e-20
0.00143498
-4.39698e-19
2.54487e-20
-6.0216e-19
-4.87358e-21
0.0013615
-4.9763e-19
3.98676e-20
-6.0462e-19
2.08384e-20
0.00129149
-3.63274e-19
4.39767e-20
-4.48766e-19
7.85019e-20
0.00122481
-4.70189e-19
5.42504e-21
-3.2042e-19
7.39557e-20
0.00116133
-3.86756e-19
-2.6549e-20
-3.31145e-19
3.68806e-20
0.00110091
-3.24288e-19
-3.1837e-20
-3.81633e-19
1.37671e-20
0.00104342
-1.99108e-19
-1.58505e-20
-3.47755e-19
2.34128e-20
0.000988732
-3.34097e-19
-1.50724e-20
-2.31679e-19
2.12889e-20
0.000936718
-2.33215e-19
7.77304e-22
-2.23524e-19
1.45199e-20
0.000887257
-3.91094e-19
-2.01305e-21
-3.28827e-19
8.97198e-21
0.000840234
-3.45606e-19
1.06558e-20
-3.00163e-19
2.40957e-20
0.000795537
-2.30679e-19
1.96677e-20
-2.50129e-19
3.12304e-20
0.000753056
-2.09559e-19
1.57864e-20
-1.05743e-19
3.59712e-20
0.000712689
-1.96694e-19
1.43717e-20
-1.7074e-19
2.65538e-20
0.000674336
-2.06889e-19
7.66536e-21
-2.23217e-19
1.60698e-20
0.000637901
-2.52832e-19
1.84081e-21
-1.84459e-19
1.27186e-20
0.000603292
-1.74926e-19
2.58224e-21
-2.1754e-19
7.99759e-21
0.000570422
-1.82879e-19
3.8402e-22
-1.43663e-19
7.97389e-21
0.000539208
-1.51064e-19
3.38467e-23
-1.61479e-19
2.17128e-21
0.000509568
-1.39838e-19
-4.07135e-21
-1.71432e-19
-2.33952e-21
0.000481427
-1.40658e-19
-5.20102e-21
-1.14149e-19
-2.90322e-21
0.000454711
-1.75157e-19
-6.0733e-21
-1.23862e-19
-3.40931e-21
0.000429351
-1.5677e-19
-4.2811e-21
-9.12694e-20
-7.49213e-22
0.000405279
-1.3417e-19
-2.53994e-21
-9.82149e-20
-8.92982e-23
0.000382433
-1.32188e-19
-2.15994e-22
-5.99045e-20
-1.98028e-21
0.000360751
-1.22305e-19
1.24556e-21
-4.82822e-20
-4.80467e-21
0.000340176
-7.88988e-20
1.49207e-21
-9.43202e-20
-4.20787e-21
0.000320653
-6.76393e-20
7.91488e-22
-7.60957e-20
-1.67446e-21
0.000302128
-5.18707e-20
-7.24529e-24
-8.74226e-20
-3.59952e-22
0.000284552
-7.01516e-20
-3.65458e-22
-5.59477e-20
1.33941e-21
0.000267877
-4.77252e-20
1.89754e-22
-9.21485e-20
1.94823e-21
0.000252058
-4.68358e-20
3.56822e-22
-5.42937e-20
2.31506e-21
0.000237051
-5.27345e-20
4.50958e-22
-3.51388e-20
1.65594e-21
0.000222815
-6.01769e-20
8.59799e-22
-1.21485e-20
8.45509e-22
0.000209311
-5.42025e-20
8.38807e-22
3.52744e-22
-1.15531e-22
0.000196501
-1.92497e-20
6.21674e-22
-2.93226e-20
-1.01256e-21
0.00018435
6.06325e-21
3.18533e-22
-1.32457e-20
-1.34298e-21
0.000172825
-6.25924e-21
1.18643e-22
-2.86243e-20
-1.74313e-21
0.000161893
1.11434e-20
3.33428e-22
-1.40074e-20
-2.17726e-21
0.000151523
2.02891e-20
4.15923e-22
-7.11891e-22
-2.34346e-21
0.000141688
1.30309e-20
4.71979e-22
-1.57754e-20
-2.30341e-21
0.000132359
1.49113e-20
4.40345e-22
-1.48446e-20
-1.86858e-21
0.000123512
1.03152e-20
3.96263e-22
-9.39117e-21
-1.38256e-21
0.000115121
1.33641e-20
2.81657e-22
-1.42494e-20
-1.09014e-21
0.000107165
1.07697e-20
1.09199e-22
-1.72095e-20
-8.4503e-22
9.96218e-05
1.92836e-20
-8.72275e-23
-8.09108e-21
-6.81025e-22
9.24721e-05
-7.02448e-21
-2.66257e-22
-1.20917e-20
-5.4702e-22
8.56977e-05
-1.54072e-20
-3.26473e-22
-5.04104e-21
-4.01738e-22
7.92821e-05
-5.82217e-21
-3.64329e-22
-6.70895e-21
-3.65498e-22
7.32104e-05
-1.42675e-21
-3.8039e-22
-1.06844e-20
-3.22385e-22
6.74693e-05
2.40077e-21
-4.04469e-22
-1.12842e-20
-3.10042e-22
6.20472e-05
-7.57998e-21
-4.14271e-22
-1.09514e-20
-2.78406e-22
5.69339e-05
-3.53233e-21
-3.91485e-22
-1.3404e-20
-2.40825e-22
5.21208e-05
-9.5196e-21
-3.57072e-22
-1.53089e-20
-2.23473e-22
4.76004e-05
-6.23169e-21
-3.13804e-22
-1.67402e-20
-1.9573e-22
4.33659e-05
-1.42912e-20
-2.7993e-22
-1.49075e-20
-1.51394e-22
3.94111e-05
-1.1829e-20
-2.46447e-22
-9.02457e-21
-1.25935e-22
3.57297e-05
-9.62447e-21
-2.16503e-22
-8.73994e-21
-1.15287e-22
3.23146e-05
-1.37444e-20
-2.0319e-22
-8.30147e-21
-1.07522e-22
2.91579e-05
-1.1885e-20
-1.87837e-22
-8.63995e-21
-9.73918e-23
2.62503e-05
-1.28697e-20
-1.71505e-22
-4.38326e-21
-8.21945e-23
2.35813e-05
-1.17924e-20
-1.55373e-22
-5.21268e-21
-7.69235e-23
2.1139e-05
-1.02964e-20
-1.41144e-22
-5.3446e-21
-6.72686e-23
1.89104e-05
-9.59614e-21
-1.28874e-22
-4.39887e-21
-5.85629e-23
1.6882e-05
-9.10562e-21
-1.13289e-22
-1.5577e-21
-5.53032e-23
1.50398e-05
-5.22959e-21
-9.95509e-23
-1.95661e-21
-5.19667e-23
1.33698e-05
-2.65224e-21
-8.92533e-23
-2.6176e-21
-4.70621e-23
1.18585e-05
-2.77296e-21
-8.12324e-23
-2.63283e-21
-4.13987e-23
1.04928e-05
-1.7804e-21
-7.159e-23
-2.7275e-21
-3.6791e-23
9.26015e-06
-1.17033e-21
-6.33705e-23
-2.29643e-21
-3.25329e-23
8.14895e-06
-1.88172e-21
-5.568e-23
-1.83581e-21
-2.82857e-23
7.14833e-06
-1.21709e-21
-4.83542e-23
-1.54913e-22
-2.42068e-23
6.24824e-06
-1.2313e-21
-4.19049e-23
-7.79533e-23
-2.14162e-23
5.43946e-06
-8.46833e-22
-3.61546e-23
-8.28533e-22
-1.90285e-23
4.7135e-06
-7.54785e-22
-3.10601e-23
-9.20152e-23
-1.67495e-23
4.06263e-06
-5.26437e-22
-2.6553e-23
1.21726e-22
-1.49612e-23
3.47977e-06
-3.82502e-22
-2.27461e-23
7.14676e-23
-1.33125e-23
2.95847e-06
-1.69906e-22
-1.9592e-23
-1.40009e-22
-1.18258e-23
2.49288e-06
1.2381e-22
-1.69471e-23
-1.37583e-22
-1.05115e-23
2.07764e-06
-4.72853e-23
-1.46034e-23
-2.41964e-22
-9.29776e-24
1.70792e-06
2.98433e-22
-1.26896e-23
-3.27763e-22
-8.14226e-24
1.37929e-06
1.18492e-22
-1.10915e-23
-4.54265e-22
-7.12999e-24
1.08776e-06
-3.32878e-23
-9.68093e-24
-4.74545e-23
-6.2015e-24
8.29683e-07
4.91047e-24
-8.45389e-24
-7.782e-23
-5.43739e-24
6.01771e-07
7.81569e-23
-7.3676e-24
-5.38903e-23
-4.7567e-24
4.01021e-07
-3.22582e-23
-6.42015e-24
1.92624e-23
-4.15519e-24
2.2472e-07
-1.08485e-23
-5.58834e-24
5.57243e-24
-3.6283e-24
7.04069e-08
-2.56343e-24
-1.95365e-24
0.00262728
-4.98115e-19
-5.02246e-19
0.00250547
-3.91769e-19
-2.71115e-19
0.00238736
-4.7285e-20
-1.64164e-19
0.00227324
-3.16824e-19
-2.94654e-19
0.0021633
-2.48312e-19
-4.16308e-19
0.00205764
-5.63649e-19
-4.95183e-19
0.00195629
-3.66431e-19
-5.17083e-19
0.00185922
-5.28664e-19
-4.3758e-19
0.00176637
-4.67881e-19
-5.14864e-19
0.00167764
-5.22583e-19
-4.9657e-19
0.00159292
-6.13762e-19
-5.34562e-19
0.00151207
-4.779e-19
-5.43438e-19
0.00143498
-4.55199e-19
-6.35853e-19
0.0013615
-5.21478e-19
-3.7407e-19
0.00129149
-4.61716e-19
-3.35488e-19
0.00122481
-5.01063e-19
-3.63367e-19
0.00116133
-3.58508e-19
-4.14093e-19
0.00110091
-2.33387e-19
-3.49044e-19
0.00104342
-3.05485e-19
-4.17937e-19
0.000988732
-4.02085e-19
-3.50837e-19
0.000936718
-3.81644e-19
-3.57461e-19
0.000887257
-3.82132e-19
-3.06444e-19
0.000840234
-3.54944e-19
-3.02348e-19
0.000795537
-3.25318e-19
-2.74719e-19
0.000753056
-2.31008e-19
-2.55121e-19
0.000712689
-2.56643e-19
-2.76954e-19
0.000674336
-2.52833e-19
-2.63126e-19
0.000637901
-2.20718e-19
-2.59163e-19
0.000603292
-1.95675e-19
-1.71775e-19
0.000570422
-1.45434e-19
-1.74247e-19
0.000539208
-1.61697e-19
-1.88382e-19
0.000509568
-9.34808e-20
-1.48497e-19
0.000481427
-1.06395e-19
-1.20647e-19
0.000454711
-7.02129e-20
-6.05085e-20
0.000429351
-4.96137e-20
-6.34578e-20
0.000405279
-2.10949e-20
-1.19424e-19
0.000382433
-5.41717e-20
-1.46329e-19
0.000360751
-8.8044e-20
-7.23456e-20
0.000340176
-7.70222e-20
-3.83251e-20
0.000320653
-7.91704e-20
-4.08974e-20
0.000302128
-6.52454e-20
-2.30341e-20
0.000284552
-3.85939e-20
-5.36224e-20
0.000267877
-3.38422e-20
-6.7369e-20
0.000252058
-3.83455e-20
-5.89221e-20
0.000237051
-2.53093e-20
-7.20456e-20
0.000222815
-7.85095e-20
-7.61857e-20
0.000209311
-1.08e-19
-7.55158e-20
0.000196501
-9.27649e-20
-8.82146e-20
0.00018435
-6.68792e-20
-8.20016e-20
0.000172825
-4.30038e-20
-1.0554e-19
0.000161893
-4.32851e-20
-8.81582e-20
0.000151523
-4.09298e-20
-7.01798e-20
0.000141688
-6.48558e-20
-2.90923e-20
0.000132359
-5.85105e-20
6.38656e-21
0.000123512
-6.76239e-20
1.69744e-21
0.000115121
-6.41763e-20
3.32683e-21
0.000107165
-5.82689e-20
-4.96742e-21
9.96218e-05
-4.19478e-20
-5.951e-21
9.24721e-05
-3.56403e-20
-1.647e-21
8.56977e-05
-3.42322e-20
-1.41886e-20
7.92821e-05
-1.74253e-20
-7.30383e-21
7.32104e-05
-1.83601e-20
-1.86638e-20
6.74693e-05
-1.27405e-20
-1.20922e-20
6.20472e-05
-1.06973e-20
-2.54267e-22
5.69339e-05
-1.15999e-21
-4.38904e-21
5.21208e-05
-5.48143e-23
-5.76937e-21
4.76004e-05
2.71497e-22
1.96946e-21
4.33659e-05
-6.81229e-21
-3.59428e-21
3.94111e-05
-1.84647e-21
-5.10698e-21
3.57297e-05
-8.73067e-21
-5.02293e-21
3.23146e-05
-1.25761e-20
-4.82076e-21
2.91579e-05
-1.02775e-20
-9.79597e-23
2.62503e-05
-9.82916e-21
-3.24149e-21
2.35813e-05
-8.33351e-21
-1.31152e-21
2.1139e-05
-7.81207e-21
-1.21225e-21
1.89104e-05
-2.25826e-21
-2.68155e-21
1.6882e-05
-2.54927e-21
6.30459e-22
1.50398e-05
-2.46824e-21
-2.89504e-22
1.33698e-05
-3.81927e-21
-6.12106e-22
1.18585e-05
-1.04969e-21
-1.78424e-21
1.04928e-05
-1.90589e-21
-1.53338e-21
9.26015e-06
-1.08054e-21
-4.83544e-22
8.14895e-06
-1.40354e-21
2.99126e-23
7.14833e-06
-1.49985e-21
-7.98507e-23
6.24824e-06
-1.32362e-21
2.97935e-22
5.43946e-06
-3.45417e-22
2.13957e-23
4.7135e-06
5.54791e-22
-2.63469e-22
4.06263e-06
7.36546e-22
-2.88572e-22
3.47977e-06
5.84333e-22
-5.24641e-22
2.95847e-06
6.11405e-22
-6.53139e-22
2.49288e-06
1.22715e-21
-4.71265e-22
2.07764e-06
4.55557e-22
-1.00759e-22
1.70792e-06
4.30289e-22
-1.01169e-22
1.37929e-06
3.06692e-22
5.17644e-23
1.08776e-06
3.30341e-23
2.95531e-23
8.29683e-07
9.53126e-23
5.19337e-23
6.01771e-07
8.37903e-23
4.74438e-23
4.01021e-07
-1.27708e-23
3.68575e-23
2.2472e-07
-3.06618e-24
7.00271e-24
7.04069e-08
)
;

boundaryField
{
    walls
    {
        type            calculated;
        value           uniform 0;
    }
    inlet
    {
        type            cyclic;
        value           nonuniform List<scalar> 
400
(
-7.04068e-08
-2.24721e-07
-4.01021e-07
-6.0177e-07
-8.29684e-07
-1.08776e-06
-1.37929e-06
-1.70791e-06
-2.07764e-06
-2.49288e-06
-2.95847e-06
-3.47977e-06
-4.06263e-06
-4.7135e-06
-5.43946e-06
-6.24824e-06
-7.14832e-06
-8.14895e-06
-9.26015e-06
-1.04928e-05
-1.18585e-05
-1.33698e-05
-1.50398e-05
-1.6882e-05
-1.89104e-05
-2.1139e-05
-2.35813e-05
-2.62503e-05
-2.91579e-05
-3.23146e-05
-3.57297e-05
-3.94111e-05
-4.33659e-05
-4.76004e-05
-5.21208e-05
-5.69339e-05
-6.20472e-05
-6.74693e-05
-7.32104e-05
-7.92821e-05
-8.56977e-05
-9.24721e-05
-9.96218e-05
-0.000107165
-0.000115121
-0.000123512
-0.000132359
-0.000141688
-0.000151523
-0.000161893
-0.000172825
-0.00018435
-0.000196501
-0.000209311
-0.000222815
-0.000237051
-0.000252058
-0.000267877
-0.000284552
-0.000302128
-0.000320653
-0.000340176
-0.000360751
-0.000382433
-0.000405279
-0.000429351
-0.000454711
-0.000481427
-0.000509568
-0.000539208
-0.000570422
-0.000603292
-0.000637901
-0.000674336
-0.000712689
-0.000753056
-0.000795537
-0.000840234
-0.000887257
-0.000936718
-0.000988732
-0.00104342
-0.00110091
-0.00116133
-0.00122481
-0.00129149
-0.0013615
-0.00143498
-0.00151207
-0.00159292
-0.00167764
-0.00176637
-0.00185922
-0.00195629
-0.00205764
-0.0021633
-0.00227324
-0.00238736
-0.00250547
-0.00262728
-7.04068e-08
-2.24721e-07
-4.01021e-07
-6.0177e-07
-8.29684e-07
-1.08776e-06
-1.37929e-06
-1.70791e-06
-2.07764e-06
-2.49288e-06
-2.95847e-06
-3.47977e-06
-4.06263e-06
-4.7135e-06
-5.43946e-06
-6.24824e-06
-7.14832e-06
-8.14895e-06
-9.26015e-06
-1.04928e-05
-1.18585e-05
-1.33698e-05
-1.50398e-05
-1.6882e-05
-1.89104e-05
-2.1139e-05
-2.35813e-05
-2.62503e-05
-2.91579e-05
-3.23146e-05
-3.57297e-05
-3.94111e-05
-4.33659e-05
-4.76004e-05
-5.21208e-05
-5.69339e-05
-6.20472e-05
-6.74693e-05
-7.32104e-05
-7.92821e-05
-8.56977e-05
-9.24721e-05
-9.96218e-05
-0.000107165
-0.000115121
-0.000123512
-0.000132359
-0.000141688
-0.000151523
-0.000161893
-0.000172825
-0.00018435
-0.000196501
-0.000209311
-0.000222815
-0.000237051
-0.000252058
-0.000267877
-0.000284552
-0.000302128
-0.000320653
-0.000340176
-0.000360751
-0.000382433
-0.000405279
-0.000429351
-0.000454711
-0.000481427
-0.000509568
-0.000539208
-0.000570422
-0.000603292
-0.000637901
-0.000674336
-0.000712689
-0.000753056
-0.000795537
-0.000840234
-0.000887257
-0.000936718
-0.000988732
-0.00104342
-0.00110091
-0.00116133
-0.00122481
-0.00129149
-0.0013615
-0.00143498
-0.00151207
-0.00159292
-0.00167764
-0.00176637
-0.00185922
-0.00195629
-0.00205764
-0.0021633
-0.00227324
-0.00238736
-0.00250547
-0.00262728
-0.00262728
-0.00250547
-0.00238736
-0.00227324
-0.0021633
-0.00205764
-0.00195629
-0.00185922
-0.00176637
-0.00167764
-0.00159292
-0.00151207
-0.00143498
-0.0013615
-0.00129149
-0.00122481
-0.00116133
-0.00110091
-0.00104342
-0.000988732
-0.000936718
-0.000887257
-0.000840234
-0.000795537
-0.000753056
-0.000712689
-0.000674336
-0.000637901
-0.000603292
-0.000570422
-0.000539208
-0.000509568
-0.000481427
-0.000454711
-0.000429351
-0.000405279
-0.000382433
-0.000360751
-0.000340176
-0.000320653
-0.000302128
-0.000284552
-0.000267877
-0.000252058
-0.000237051
-0.000222815
-0.000209311
-0.000196501
-0.00018435
-0.000172825
-0.000161893
-0.000151523
-0.000141688
-0.000132359
-0.000123512
-0.000115121
-0.000107165
-9.96218e-05
-9.24721e-05
-8.56977e-05
-7.92821e-05
-7.32104e-05
-6.74693e-05
-6.20472e-05
-5.69339e-05
-5.21208e-05
-4.76004e-05
-4.33659e-05
-3.94111e-05
-3.57297e-05
-3.23146e-05
-2.91579e-05
-2.62503e-05
-2.35813e-05
-2.1139e-05
-1.89104e-05
-1.6882e-05
-1.50398e-05
-1.33698e-05
-1.18585e-05
-1.04928e-05
-9.26015e-06
-8.14895e-06
-7.14833e-06
-6.24824e-06
-5.43946e-06
-4.7135e-06
-4.06263e-06
-3.47977e-06
-2.95847e-06
-2.49288e-06
-2.07764e-06
-1.70792e-06
-1.37929e-06
-1.08776e-06
-8.29683e-07
-6.01771e-07
-4.01021e-07
-2.2472e-07
-7.04069e-08
-0.00262728
-0.00250547
-0.00238736
-0.00227324
-0.0021633
-0.00205764
-0.00195629
-0.00185922
-0.00176637
-0.00167764
-0.00159292
-0.00151207
-0.00143498
-0.0013615
-0.00129149
-0.00122481
-0.00116133
-0.00110091
-0.00104342
-0.000988732
-0.000936718
-0.000887257
-0.000840234
-0.000795537
-0.000753056
-0.000712689
-0.000674336
-0.000637901
-0.000603292
-0.000570422
-0.000539208
-0.000509568
-0.000481427
-0.000454711
-0.000429351
-0.000405279
-0.000382433
-0.000360751
-0.000340176
-0.000320653
-0.000302128
-0.000284552
-0.000267877
-0.000252058
-0.000237051
-0.000222815
-0.000209311
-0.000196501
-0.00018435
-0.000172825
-0.000161893
-0.000151523
-0.000141688
-0.000132359
-0.000123512
-0.000115121
-0.000107165
-9.96218e-05
-9.24721e-05
-8.56977e-05
-7.92821e-05
-7.32104e-05
-6.74693e-05
-6.20472e-05
-5.69339e-05
-5.21208e-05
-4.76004e-05
-4.33659e-05
-3.94111e-05
-3.57297e-05
-3.23146e-05
-2.91579e-05
-2.62503e-05
-2.35813e-05
-2.1139e-05
-1.89104e-05
-1.6882e-05
-1.50398e-05
-1.33698e-05
-1.18585e-05
-1.04928e-05
-9.26015e-06
-8.14895e-06
-7.14833e-06
-6.24824e-06
-5.43946e-06
-4.7135e-06
-4.06263e-06
-3.47977e-06
-2.95847e-06
-2.49288e-06
-2.07764e-06
-1.70792e-06
-1.37929e-06
-1.08776e-06
-8.29683e-07
-6.01771e-07
-4.01021e-07
-2.2472e-07
-7.04069e-08
)
;
    }
    outlet
    {
        type            cyclic;
        value           nonuniform List<scalar> 
400
(
7.04068e-08
2.24721e-07
4.01021e-07
6.0177e-07
8.29684e-07
1.08776e-06
1.37929e-06
1.70791e-06
2.07764e-06
2.49288e-06
2.95847e-06
3.47977e-06
4.06263e-06
4.7135e-06
5.43946e-06
6.24824e-06
7.14832e-06
8.14895e-06
9.26015e-06
1.04928e-05
1.18585e-05
1.33698e-05
1.50398e-05
1.6882e-05
1.89104e-05
2.1139e-05
2.35813e-05
2.62503e-05
2.91579e-05
3.23146e-05
3.57297e-05
3.94111e-05
4.33659e-05
4.76004e-05
5.21208e-05
5.69339e-05
6.20472e-05
6.74693e-05
7.32104e-05
7.92821e-05
8.56977e-05
9.24721e-05
9.96218e-05
0.000107165
0.000115121
0.000123512
0.000132359
0.000141688
0.000151523
0.000161893
0.000172825
0.00018435
0.000196501
0.000209311
0.000222815
0.000237051
0.000252058
0.000267877
0.000284552
0.000302128
0.000320653
0.000340176
0.000360751
0.000382433
0.000405279
0.000429351
0.000454711
0.000481427
0.000509568
0.000539208
0.000570422
0.000603292
0.000637901
0.000674336
0.000712689
0.000753056
0.000795537
0.000840234
0.000887257
0.000936718
0.000988732
0.00104342
0.00110091
0.00116133
0.00122481
0.00129149
0.0013615
0.00143498
0.00151207
0.00159292
0.00167764
0.00176637
0.00185922
0.00195629
0.00205764
0.0021633
0.00227324
0.00238736
0.00250547
0.00262728
7.04068e-08
2.24721e-07
4.01021e-07
6.0177e-07
8.29684e-07
1.08776e-06
1.37929e-06
1.70791e-06
2.07764e-06
2.49288e-06
2.95847e-06
3.47977e-06
4.06263e-06
4.7135e-06
5.43946e-06
6.24824e-06
7.14832e-06
8.14895e-06
9.26015e-06
1.04928e-05
1.18585e-05
1.33698e-05
1.50398e-05
1.6882e-05
1.89104e-05
2.1139e-05
2.35813e-05
2.62503e-05
2.91579e-05
3.23146e-05
3.57297e-05
3.94111e-05
4.33659e-05
4.76004e-05
5.21208e-05
5.69339e-05
6.20472e-05
6.74693e-05
7.32104e-05
7.92821e-05
8.56977e-05
9.24721e-05
9.96218e-05
0.000107165
0.000115121
0.000123512
0.000132359
0.000141688
0.000151523
0.000161893
0.000172825
0.00018435
0.000196501
0.000209311
0.000222815
0.000237051
0.000252058
0.000267877
0.000284552
0.000302128
0.000320653
0.000340176
0.000360751
0.000382433
0.000405279
0.000429351
0.000454711
0.000481427
0.000509568
0.000539208
0.000570422
0.000603292
0.000637901
0.000674336
0.000712689
0.000753056
0.000795537
0.000840234
0.000887257
0.000936718
0.000988732
0.00104342
0.00110091
0.00116133
0.00122481
0.00129149
0.0013615
0.00143498
0.00151207
0.00159292
0.00167764
0.00176637
0.00185922
0.00195629
0.00205764
0.0021633
0.00227324
0.00238736
0.00250547
0.00262728
0.00262728
0.00250547
0.00238736
0.00227324
0.0021633
0.00205764
0.00195629
0.00185922
0.00176637
0.00167764
0.00159292
0.00151207
0.00143498
0.0013615
0.00129149
0.00122481
0.00116133
0.00110091
0.00104342
0.000988732
0.000936718
0.000887257
0.000840234
0.000795537
0.000753056
0.000712689
0.000674336
0.000637901
0.000603292
0.000570422
0.000539208
0.000509568
0.000481427
0.000454711
0.000429351
0.000405279
0.000382433
0.000360751
0.000340176
0.000320653
0.000302128
0.000284552
0.000267877
0.000252058
0.000237051
0.000222815
0.000209311
0.000196501
0.00018435
0.000172825
0.000161893
0.000151523
0.000141688
0.000132359
0.000123512
0.000115121
0.000107165
9.96218e-05
9.24721e-05
8.56977e-05
7.92821e-05
7.32104e-05
6.74693e-05
6.20472e-05
5.69339e-05
5.21208e-05
4.76004e-05
4.33659e-05
3.94111e-05
3.57297e-05
3.23146e-05
2.91579e-05
2.62503e-05
2.35813e-05
2.1139e-05
1.89104e-05
1.6882e-05
1.50398e-05
1.33698e-05
1.18585e-05
1.04928e-05
9.26015e-06
8.14895e-06
7.14833e-06
6.24824e-06
5.43946e-06
4.7135e-06
4.06263e-06
3.47977e-06
2.95847e-06
2.49288e-06
2.07764e-06
1.70792e-06
1.37929e-06
1.08776e-06
8.29683e-07
6.01771e-07
4.01021e-07
2.2472e-07
7.04069e-08
0.00262728
0.00250547
0.00238736
0.00227324
0.0021633
0.00205764
0.00195629
0.00185922
0.00176637
0.00167764
0.00159292
0.00151207
0.00143498
0.0013615
0.00129149
0.00122481
0.00116133
0.00110091
0.00104342
0.000988732
0.000936718
0.000887257
0.000840234