/*--------------------------------*- C++ -*----------------------------------*\
| =========                 |                                                 |
| \\      /  F ield         | OpenFOAM: The Open Source CFD Toolbox           |
|  \\    /   O peration     | Version:  2106                                  |
|   \\  /    A nd           | Website:  www.openfoam.com                      |
|    \\/     M anipulation  |                                                 |
\*---------------------------------------------------------------------------*/
FoamFile
{
    version     2.0;
    format      ascii;
    arch        "LSB;label=32;scalar=64";
    class       volSymmTensorField;
    location    "10100";
    object      turbulenceProperties:R;
}
// * * * * * * * * * * * * * * * * * * * * * * * * * * * * * * * * * * * * * //

dimensions      [0 2 -2 0 0 0 0];

internalField   nonuniform List<symmTensor> 
800
(
(2.04313e-07 -7.70449e-12 -3.53637e-14 2.04313e-07 4.21482e-27 2.04313e-07)
(2.04313e-07 -7.70449e-12 -3.53637e-14 2.04313e-07 8.59557e-30 2.04313e-07)
(3.29496e-08 -7.27602e-12 -1.01798e-13 3.29496e-08 -4.18475e-27 3.29496e-08)
(3.29496e-08 -7.27602e-12 -1.01798e-13 3.29496e-08 -1.85333e-42 3.29496e-08)
(3.54246e-08 -2.37801e-11 -4.90343e-13 3.54246e-08 1.62694e-27 3.54246e-08)
(3.54246e-08 -2.37801e-11 -4.90343e-13 3.54246e-08 -9.35704e-29 3.54246e-08)
(1.08624e-07 -1.59865e-10 -3.45333e-12 1.08624e-07 -3.61647e-26 1.08624e-07)
(1.08624e-07 -1.59865e-10 -3.45333e-12 1.08624e-07 -2.88252e-28 1.08624e-07)
(2.93632e-07 -7.89001e-10 -1.78549e-11 2.93632e-07 -3.31911e-25 2.93632e-07)
(2.93632e-07 -7.89001e-10 -1.78549e-11 2.93632e-07 -9.23977e-28 2.93632e-07)
(6.63369e-07 -2.90535e-09 -6.8877e-11 6.63369e-07 -1.43171e-24 6.63369e-07)
(6.63369e-07 -2.90535e-09 -6.8877e-11 6.63369e-07 -4.21586e-27 6.63369e-07)
(1.31815e-06 -8.72024e-09 -2.16571e-10 1.31815e-06 -4.69543e-24 1.31815e-06)
(1.31815e-06 -8.72024e-09 -2.16571e-10 1.31815e-06 -8.54091e-27 1.31815e-06)
(2.38995e-06 -2.26231e-08 -5.88598e-10 2.38995e-06 -1.30694e-23 2.38995e-06)
(2.38995e-06 -2.26231e-08 -5.88598e-10 2.38995e-06 -2.6902e-26 2.38995e-06)
(4.0489e-06 -5.26722e-08 -1.43563e-09 4.0489e-06 -3.2403e-23 4.0489e-06)
(4.0489e-06 -5.26722e-08 -1.43563e-09 4.0489e-06 -6.18502e-26 4.0489e-06)
(6.5114e-06 -1.12843e-07 -3.22204e-09 6.5114e-06 -7.37572e-23 6.5114e-06)
(6.5114e-06 -1.12843e-07 -3.22204e-09 6.5114e-06 3.35197e-26 6.5114e-06)
(1.00498e-05 -2.26345e-07 -6.77045e-09 1.00498e-05 -1.56578e-22 1.00498e-05)
(1.00498e-05 -2.26345e-07 -6.77045e-09 1.00498e-05 4.88816e-25 1.00498e-05)
(1.50039e-05 -4.30409e-07 -1.3487e-08 1.50039e-05 1.02693e-24 1.50039e-05)
(1.50039e-05 -4.30409e-07 -1.3487e-08 1.50039e-05 9.63701e-25 1.50039e-05)
(2.17945e-05 -7.83087e-07 -2.57057e-08 2.17945e-05 3.74676e-22 2.17945e-05)
(2.17945e-05 -7.83087e-07 -2.57057e-08 2.17945e-05 2.80314e-24 2.17945e-05)
(3.09388e-05 -1.37272e-06 -4.72044e-08 3.09388e-05 8.91591e-22 3.09388e-05)
(3.09388e-05 -1.37272e-06 -4.72044e-08 3.09388e-05 1.09214e-23 3.09388e-05)
(4.30686e-05 -2.33091e-06 -8.39646e-08 4.30686e-05 1.63481e-21 4.30686e-05)
(4.30686e-05 -2.33091e-06 -8.39646e-08 4.30686e-05 2.30611e-23 4.30686e-05)
(5.89501e-05 -3.84984e-06 -1.45269e-07 5.89501e-05 2.90519e-21 5.89501e-05)
(5.89501e-05 -3.84984e-06 -1.45269e-07 5.89501e-05 3.91408e-23 5.89501e-05)
(7.95056e-05 -6.20493e-06 -2.45251e-07 7.95056e-05 5.01835e-21 7.95056e-05)
(7.95056e-05 -6.20493e-06 -2.45251e-07 7.95056e-05 9.05058e-23 7.95056e-05)
(0.000105836 -9.78353e-06 -4.05033e-07 0.000105836 8.50795e-21 0.000105836)
(0.000105836 -9.78353e-06 -4.05033e-07 0.000105836 2.37862e-22 0.000105836)
(0.000139245 -1.51198e-05 -6.55589e-07 0.000139245 1.41566e-20 0.000139245)
(0.000139245 -1.51198e-05 -6.55589e-07 0.000139245 4.75316e-22 0.000139245)
(0.000181253 -2.29348e-05 -1.04143e-06 0.000181253 2.2986e-20 0.000181253)
(0.000181253 -2.29348e-05 -1.04143e-06 0.000181253 8.38831e-22 0.000181253)
(0.000233616 -3.41786e-05 -1.62512e-06 0.000233616 3.68076e-20 0.000233616)
(0.000233616 -3.41786e-05 -1.62512e-06 0.000233616 1.59537e-21 0.000233616)
(0.000298317 -5.00695e-05 -2.49248e-06 0.000298317 5.8016e-20 0.000298317)
(0.000298317 -5.00695e-05 -2.49248e-06 0.000298317 2.32831e-21 0.000298317)
(0.000377549 -7.21177e-05 -3.75787e-06 0.000377549 8.8937e-20 0.000377549)
(0.000377549 -7.21177e-05 -3.75787e-06 0.000377549 3.31473e-21 0.000377549)
(0.00047366 -0.000102123 -5.5688e-06 0.00047366 1.35044e-19 0.00047366)
(0.00047366 -0.000102123 -5.5688e-06 0.00047366 7.11536e-21 0.00047366)
(0.000589064 -0.000142123 -8.1082e-06 0.000589064 2.01823e-19 0.000589064)
(0.000589064 -0.000142123 -8.1082e-06 0.000589064 1.35024e-20 0.000589064)
(0.000726098 -0.000194283 -1.15927e-05 0.000726098 2.93766e-19 0.000726098)
(0.000726098 -0.000194283 -1.15927e-05 0.000726098 2.12955e-20 0.000726098)
(0.000886839 -0.000260709 -1.62653e-05 0.000886839 4.21925e-19 0.000886839)
(0.000886839 -0.000260709 -1.62653e-05 0.000886839 3.08559e-20 0.000886839)
(0.00107288 -0.000343193 -2.23805e-05 0.00107288 5.89947e-19 0.00107288)
(0.00107288 -0.000343193 -2.23805e-05 0.00107288 4.1155e-20 0.00107288)
(0.00128506 -0.000442928 -3.01839e-05 0.00128506 7.98466e-19 0.00128506)
(0.00128506 -0.000442928 -3.01839e-05 0.00128506 5.58709e-20 0.00128506)
(0.0015233 -0.000560239 -3.98882e-05 0.0015233 1.05272e-18 0.0015233)
(0.0015233 -0.000560239 -3.98882e-05 0.0015233 8.49008e-20 0.0015233)
(0.00178638 -0.000694402 -5.16493e-05 0.00178638 1.35912e-18 0.00178638)
(0.00178638 -0.000694402 -5.16493e-05 0.00178638 1.23355e-19 0.00178638)
(0.00207197 -0.000843609 -6.55508e-05 0.00207197 1.71493e-18 0.00207197)
(0.00207197 -0.000843609 -6.55508e-05 0.00207197 1.71225e-19 0.00207197)
(0.00237664 -0.0010051 -8.15971e-05 0.00237664 2.1405e-18 0.00237664)
(0.00237664 -0.0010051 -8.15971e-05 0.00237664 2.48046e-19 0.00237664)
(0.00269613 -0.00117545 -9.97197e-05 0.00269613 1.57757e-18 0.00269613)
(0.00269613 -0.00117545 -9.97197e-05 0.00269613 3.18347e-19 0.00269613)
(0.00302568 -0.00135091 -0.000119792 0.00302568 1.59999e-19 0.00302568)
(0.00302568 -0.00135091 -0.000119792 0.00302568 3.97789e-19 0.00302568)
(0.0033603 -0.00152777 -0.00014165 0.0033603 -1.16987e-19 0.0033603)
(0.0033603 -0.00152777 -0.00014165 0.0033603 5.45866e-19 0.0033603)
(0.00369516 -0.00170267 -0.000165115 0.00369516 -3.37278e-19 0.00369516)
(0.00369516 -0.00170267 -0.000165115 0.00369516 6.50199e-19 0.00369516)
(0.00402586 -0.00187277 -0.00019001 0.00402586 -6.27026e-19 0.00402586)
(0.00402586 -0.00187277 -0.00019001 0.00402586 7.52295e-19 0.00402586)
(0.00434858 -0.00203585 -0.000216174 0.00434858 -9.52934e-19 0.00434858)
(0.00434858 -0.00203585 -0.000216174 0.00434858 9.04667e-19 0.00434858)
(0.00466019 -0.0021903 -0.000243469 0.00466019 -1.11229e-18 0.00466019)
(0.00466019 -0.0021903 -0.000243469 0.00466019 1.07217e-18 0.00466019)
(0.00495828 -0.00233509 -0.000271785 0.00495828 -1.39162e-18 0.00495828)
(0.00495828 -0.00233509 -0.000271785 0.00495828 1.30529e-18 0.00495828)
(0.00524113 -0.00246964 -0.00030104 0.00524113 -1.57461e-18 0.00524113)
(0.00524113 -0.00246964 -0.00030104 0.00524113 1.57562e-18 0.00524113)
(0.00550759 -0.00259375 -0.000331175 0.00550759 -1.50356e-18 0.00550759)
(0.00550759 -0.00259375 -0.000331175 0.00550759 1.9569e-18 0.00550759)
(0.00575705 -0.0027075 -0.000362152 0.00575705 -1.60325e-18 0.00575705)
(0.00575705 -0.0027075 -0.000362152 0.00575705 2.35847e-18 0.00575705)
(0.0059893 -0.00281116 -0.000393955 0.0059893 -1.85406e-18 0.0059893)
(0.0059893 -0.00281116 -0.000393955 0.0059893 2.80607e-18 0.0059893)
(0.00620449 -0.00290512 -0.000426577 0.00620449 -1.88863e-18 0.00620449)
(0.00620449 -0.00290512 -0.000426577 0.00620449 3.58015e-18 0.00620449)
(0.00640296 -0.00298986 -0.000460026 0.00640296 -1.45536e-18 0.00640296)
(0.00640296 -0.00298986 -0.000460026 0.00640296 4.85124e-18 0.00640296)
(0.00658526 -0.00306588 -0.000494315 0.00658526 -8.75618e-19 0.00658526)
(0.00658526 -0.00306588 -0.000494315 0.00658526 5.40768e-18 0.00658526)
(0.00675206 -0.00313371 -0.000529465 0.00675206 -1.32835e-18 0.00675206)
(0.00675206 -0.00313371 -0.000529465 0.00675206 4.93431e-18 0.00675206)
(0.00690409 -0.00319385 -0.000565499 0.00690409 3.58358e-19 0.00690409)
(0.00690409 -0.00319385 -0.000565499 0.00690409 5.72029e-18 0.00690409)
(0.00704211 -0.0032468 -0.000602442 0.00704211 1.96211e-18 0.00704211)
(0.00704211 -0.0032468 -0.000602442 0.00704211 6.70521e-18 0.00704211)
(0.00716691 -0.00329301 -0.000640321 0.00716691 2.34833e-18 0.00716691)
(0.00716691 -0.00329301 -0.000640321 0.00716691 8.214e-18 0.00716691)
(0.00727924 -0.0033329 -0.00067916 0.00727924 -3.71992e-19 0.00727924)
(0.00727924 -0.0033329 -0.00067916 0.00727924 1.01938e-17 0.00727924)
(0.00737986 -0.00336687 -0.000718981 0.00737986 -1.15289e-19 0.00737986)
(0.00737986 -0.00336687 -0.000718981 0.00737986 1.18979e-17 0.00737986)
(0.00746946 -0.00339527 -0.000759806 0.00746946 -1.36714e-18 0.00746946)
(0.00746946 -0.00339527 -0.000759806 0.00746946 1.36417e-17 0.00746946)
(0.00754872 -0.0034184 -0.000801649 0.00754872 -1.16514e-18 0.00754872)
(0.00754872 -0.0034184 -0.000801649 0.00754872 1.49136e-17 0.00754872)
(0.00761826 -0.00343655 -0.000844523 0.00761826 -7.61853e-19 0.00761826)
(0.00761826 -0.00343655 -0.000844523 0.00761826 1.6098e-17 0.00761826)
(0.00767866 -0.00344998 -0.000888434 0.00767866 -6.41486e-19 0.00767866)
(0.00767866 -0.00344998 -0.000888434 0.00767866 1.68648e-17 0.00767866)
(0.00773043 -0.00345889 -0.00093338 0.00773043 -2.60041e-18 0.00773043)
(0.00773043 -0.00345889 -0.00093338 0.00773043 1.79307e-17 0.00773043)
(0.00777406 -0.00346347 -0.000979355 0.00777406 -2.43487e-18 0.00777406)
(0.00777406 -0.00346347 -0.000979355 0.00777406 1.74416e-17 0.00777406)
(0.00780997 -0.00346389 -0.00102634 0.00780997 -1.17982e-18 0.00780997)
(0.00780997 -0.00346389 -0.00102634 0.00780997 1.81333e-17 0.00780997)
(0.00783854 -0.0034603 -0.00107431 0.00783854 -3.37631e-18 0.00783854)
(0.00783854 -0.0034603 -0.00107431 0.00783854 2.09333e-17 0.00783854)
(0.00786011 -0.00345279 -0.00112323 0.00786011 -6.68953e-19 0.00786011)
(0.00786011 -0.00345279 -0.00112323 0.00786011 1.98218e-17 0.00786011)
(0.00787497 -0.00344147 -0.00117305 0.00787497 7.00464e-19 0.00787497)
(0.00787497 -0.00344147 -0.00117305 0.00787497 2.19942e-17 0.00787497)
(0.00788334 -0.00342641 -0.00122371 0.00788334 6.17467e-19 0.00788334)
(0.00788334 -0.00342641 -0.00122371 0.00788334 1.82127e-17 0.00788334)
(0.00788543 -0.00340766 -0.00127512 0.00788543 3.3729e-18 0.00788543)
(0.00788543 -0.00340766 -0.00127512 0.00788543 1.07888e-17 0.00788543)
(0.00788138 -0.00338528 -0.0013272 0.00788138 -1.05773e-18 0.00788138)
(0.00788138 -0.00338528 -0.0013272 0.00788138 5.80628e-18 0.00788138)
(0.00787129 -0.00335927 -0.00137983 0.00787129 6.18949e-19 0.00787129)
(0.00787129 -0.00335927 -0.00137983 0.00787129 2.9015e-19 0.00787129)
(0.00785522 -0.00332966 -0.00143288 0.00785522 -6.15981e-19 0.00785522)
(0.00785522 -0.00332966 -0.00143288 0.00785522 4.13532e-18 0.00785522)
(0.00783316 -0.00329642 -0.00148618 0.00783316 5.68245e-18 0.00783316)
(0.00783316 -0.00329642 -0.00148618 0.00783316 1.38311e-18 0.00783316)
(0.00780507 -0.00325955 -0.00153955 0.00780507 4.91536e-18 0.00780507)
(0.00780507 -0.00325955 -0.00153955 0.00780507 2.85904e-18 0.00780507)
(0.00777086 -0.003219 -0.00159277 0.00777086 1.59572e-18 0.00777086)
(0.00777086 -0.003219 -0.00159277 0.00777086 -3.04972e-19 0.00777086)
(0.00773038 -0.00317474 -0.0016456 0.00773038 1.40774e-17 0.00773038)
(0.00773038 -0.00317474 -0.0016456 0.00773038 -8.52737e-19 0.00773038)
(0.00768341 -0.00312671 -0.00169775 0.00768341 1.13542e-17 0.00768341)
(0.00768341 -0.00312671 -0.00169775 0.00768341 1.26698e-18 0.00768341)
(0.0076297 -0.00307483 -0.0017489 0.0076297 6.04118e-18 0.0076297)
(0.0076297 -0.00307483 -0.0017489 0.0076297 -4.10193e-18 0.0076297)
(0.00756893 -0.00301903 -0.00179867 0.00756893 -6.65101e-18 0.00756893)
(0.00756893 -0.00301903 -0.00179867 0.00756893 9.50073e-18 0.00756893)
(0.00750072 -0.00295922 -0.00184664 0.00750072 3.14492e-18 0.00750072)
(0.00750072 -0.00295922 -0.00184664 0.00750072 8.14198e-18 0.00750072)
(0.00742462 -0.00289529 -0.00189233 0.00742462 -1.14053e-18 0.00742462)
(0.00742462 -0.00289529 -0.00189233 0.00742462 -1.15001e-18 0.00742462)
(0.00734013 -0.00282713 -0.00193521 0.00734013 -3.62451e-20 0.00734013)
(0.00734013 -0.00282713 -0.00193521 0.00734013 3.77189e-18 0.00734013)
(0.0072467 -0.00275461 -0.00197466 0.0072467 3.45635e-49 0.0072467)
(0.0072467 -0.00275461 -0.00197466 0.0072467 -8.02708e-20 0.0072467)
(0.00714369 -0.0026776 -0.00200999 0.00714369 2.09453e-17 0.00714369)
(0.00714369 -0.0026776 -0.00200999 0.00714369 1.08303e-17 0.00714369)
(0.00703044 -0.00259596 -0.00204044 0.00703044 2.94167e-17 0.00703044)
(0.00703044 -0.00259596 -0.00204044 0.00703044 1.75044e-17 0.00703044)
(0.00690624 -0.00250951 -0.00206513 0.00690624 3.3288e-17 0.00690624)
(0.00690624 -0.00250951 -0.00206513 0.00690624 9.86105e-18 0.00690624)
(0.00677033 -0.00241811 -0.00208309 0.00677033 1.26073e-17 0.00677033)
(0.00677033 -0.00241811 -0.00208309 0.00677033 1.54354e-17 0.00677033)
(0.00662198 -0.00232156 -0.00209323 0.00662198 1.49073e-17 0.00662198)
(0.00662198 -0.00232156 -0.00209323 0.00662198 1.16253e-17 0.00662198)
(0.00646047 -0.00221967 -0.00209432 0.00646047 3.7998e-33 0.00646047)
(0.00646047 -0.00221967 -0.00209432 0.00646047 4.82912e-18 0.00646047)
(0.00628514 -0.00211225 -0.00208501 0.00628514 -4.68736e-19 0.00628514)
(0.00628514 -0.00211225 -0.00208501 0.00628514 1.23022e-17 0.00628514)
(0.00609547 -0.00199907 -0.00206375 0.00609547 1.67669e-17 0.00609547)
(0.00609547 -0.00199907 -0.00206375 0.00609547 -1.16224e-17 0.00609547)
(0.00589117 -0.00187991 -0.00202883 0.00589117 -1.40102e-17 0.00589117)
(0.00589117 -0.00187991 -0.00202883 0.00589117 1.69344e-17 0.00589117)
(0.00567228 -0.00175454 -0.00197832 0.00567228 -3.2482e-19 0.00567228)
(0.00567228 -0.00175454 -0.00197832 0.00567228 5.18331e-17 0.00567228)
(0.00543932 -0.00162271 -0.00191008 0.00543932 8.95937e-19 0.00543932)
(0.00543932 -0.00162271 -0.00191008 0.00543932 2.71902e-17 0.00543932)
(0.00519358 -0.00148415 -0.00182168 0.00519358 5.85133e-18 0.00519358)
(0.00519358 -0.00148415 -0.00182168 0.00519358 -1.61072e-17 0.00519358)
(0.00493732 -0.0013386 -0.00171041 0.00493732 4.34788e-17 0.00493732)
(0.00493732 -0.0013386 -0.00171041 0.00493732 2.70472e-17 0.00493732)
(0.00467423 -0.00118579 -0.00157321 0.00467423 1.57471e-17 0.00467423)
(0.00467423 -0.00118579 -0.00157321 0.00467423 4.06553e-17 0.00467423)
(0.00440993 -0.00102545 -0.0014067 0.00440993 1.98225e-17 0.00440993)
(0.00440993 -0.00102545 -0.0014067 0.00440993 2.06958e-17 0.00440993)
(0.00415251 -0.000857321 -0.00120716 0.00415251 1.00379e-17 0.00415251)
(0.00415251 -0.000857321 -0.00120716 0.00415251 7.03829e-18 0.00415251)
(0.00391319 -0.00068119 -0.000970643 0.00391319 -6.21342e-19 0.00391319)
(0.00391319 -0.00068119 -0.000970643 0.00391319 2.38524e-17 0.00391319)
(0.00370669 -0.000496877 -0.000693164 0.00370669 2.19745e-17 0.00370669)
(0.00370669 -0.000496877 -0.000693164 0.00370669 3.44345e-17 0.00370669)
(0.00355086 -0.000304212 -0.000370904 0.00355086 1.90985e-17 0.00355086)
(0.00355086 -0.000304212 -0.000370904 0.00355086 4.13371e-17 0.00355086)
(0.00346478 -7.93372e-13 -7.2812e-13 0.00346478 2.82736e-17 0.00346478)
(0.00346478 -7.93535e-13 -7.2833e-13 0.00346478 -3.02207e-17 0.00346478)
(2.04313e-07 -7.70449e-12 3.53637e-14 2.04313e-07 -2.6025e-27 2.04313e-07)
(2.04313e-07 -7.70449e-12 3.53637e-14 2.04313e-07 -1.6047e-26 2.04313e-07)
(3.29496e-08 -7.27602e-12 1.01798e-13 3.29496e-08 -1.19108e-26 3.29496e-08)
(3.29496e-08 -7.27602e-12 1.01798e-13 3.29496e-08 -4.79844e-27 3.29496e-08)
(3.54246e-08 -2.37801e-11 4.90343e-13 3.54246e-08 -3.72091e-26 3.54246e-08)
(3.54246e-08 -2.37801e-11 4.90343e-13 3.54246e-08 -7.65596e-27 3.54246e-08)
(1.08624e-07 -1.59865e-10 3.45333e-12 1.08624e-07 -2.4069e-25 1.08624e-07)
(1.08624e-07 -1.59865e-10 3.45333e-12 1.08624e-07 -5.11489e-26 1.08624e-07)
(2.93632e-07 -7.89001e-10 1.78549e-11 2.93632e-07 -1.17918e-24 2.93632e-07)
(2.93632e-07 -7.89001e-10 1.78549e-11 2.93632e-07 -2.4968e-25 2.93632e-07)
(6.63369e-07 -2.90535e-09 6.8877e-11 6.63369e-07 -4.36055e-24 6.63369e-07)
(6.63369e-07 -2.90535e-09 6.8877e-11 6.63369e-07 -9.04246e-25 6.63369e-07)
(1.31815e-06 -8.72024e-09 2.16571e-10 1.31815e-06 -1.32333e-23 1.31815e-06)
(1.31815e-06 -8.72024e-09 2.16571e-10 1.31815e-06 -2.65674e-24 1.31815e-06)
(2.38995e-06 -2.26231e-08 5.88598e-10 2.38995e-06 -3.4391e-23 2.38995e-06)
(2.38995e-06 -2.26231e-08 5.88598e-10 2.38995e-06 -6.69839e-24 2.38995e-06)
(4.0489e-06 -5.26722e-08 1.43563e-09 4.0489e-06 -8.08305e-23 4.0489e-06)
(4.0489e-06 -5.26722e-08 1.43563e-09 4.0489e-06 -1.51004e-23 4.0489e-06)
(6.5114e-06 -1.12843e-07 3.22204e-09 6.5114e-06 -1.74338e-22 6.5114e-06)
(6.5114e-06 -1.12843e-07 3.22204e-09 6.5114e-06 -3.12089e-23 6.5114e-06)
(1.00498e-05 -2.26345e-07 6.77045e-09 1.00498e-05 -3.52171e-22 1.00498e-05)
(1.00498e-05 -2.26345e-07 6.77045e-09 1.00498e-05 -6.02101e-23 1.00498e-05)
(1.50039e-05 -4.30409e-07 1.3487e-08 1.50039e-05 -6.74617e-22 1.50039e-05)
(1.50039e-05 -4.30409e-07 1.3487e-08 1.50039e-05 -1.09379e-22 1.50039e-05)
(2.17945e-05 -7.83087e-07 2.57057e-08 2.17945e-05 -1.23745e-21 2.17945e-05)
(2.17945e-05 -7.83087e-07 2.57057e-08 2.17945e-05 -1.88863e-22 2.17945e-05)
(3.09388e-05 -1.37272e-06 4.72044e-08 3.09388e-05 -2.18851e-21 3.09388e-05)
(3.09388e-05 -1.37272e-06 4.72044e-08 3.09388e-05 -3.10712e-22 3.09388e-05)
(4.30686e-05 -2.33091e-06 8.39646e-08 4.30686e-05 -3.74164e-21 4.30686e-05)
(4.30686e-05 -2.33091e-06 8.39646e-08 4.30686e-05 -4.97522e-22 4.30686e-05)
(5.89501e-05 -3.84984e-06 1.45269e-07 5.89501e-05 -6.21271e-21 5.89501e-05)
(5.89501e-05 -3.84984e-06 1.45269e-07 5.89501e-05 -7.79415e-22 5.89501e-05)
(7.95056e-05 -6.20493e-06 2.45251e-07 7.95056e-05 -1.0077e-20 7.95056e-05)
(7.95056e-05 -6.20493e-06 2.45251e-07 7.95056e-05 -1.18145e-21 7.95056e-05)
(0.000105836 -9.78353e-06 4.05033e-07 0.000105836 -1.59938e-20 0.000105836)
(0.000105836 -9.78353e-06 4.05033e-07 0.000105836 -1.72639e-21 0.000105836)
(0.000139245 -1.51198e-05 6.55589e-07 0.000139245 -2.48594e-20 0.000139245)
(0.000139245 -1.51198e-05 6.55589e-07 0.000139245 -2.43952e-21 0.000139245)
(0.000181253 -2.29348e-05 1.04143e-06 0.000181253 -3.79493e-20 0.000181253)
(0.000181253 -2.29348e-05 1.04143e-06 0.000181253 -3.37049e-21 0.000181253)
(0.000233616 -3.41786e-05 1.62512e-06 0.000233616 -5.67797e-20 0.000233616)
(0.000233616 -3.41786e-05 1.62512e-06 0.000233616 -4.55931e-21 0.000233616)
(0.000298317 -5.00695e-05 2.49248e-06 0.000298317 -8.32982e-20 0.000298317)
(0.000298317 -5.00695e-05 2.49248e-06 0.000298317 -6.08068e-21 0.000298317)
(0.000377549 -7.21177e-05 3.75787e-06 0.000377549 -1.20185e-19 0.000377549)
(0.000377549 -7.21177e-05 3.75787e-06 0.000377549 -7.97947e-21 0.000377549)
(0.00047366 -0.000102123 5.5688e-06 0.00047366 -1.70329e-19 0.00047366)
(0.00047366 -0.000102123 5.5688e-06 0.00047366 -9.75176e-21 0.00047366)
(0.000589064 -0.000142123 8.1082e-06 0.000589064 -2.37799e-19 0.000589064)
(0.000589064 -0.000142123 8.1082e-06 0.000589064 -1.058e-20 0.000589064)
(0.000726098 -0.000194283 1.15927e-05 0.000726098 -3.27188e-19 0.000726098)
(0.000726098 -0.000194283 1.15927e-05 0.000726098 -8.26503e-21 0.000726098)
(0.000886839 -0.000260709 1.62653e-05 0.000886839 -4.4304e-19 0.000886839)
(0.000886839 -0.000260709 1.62653e-05 0.000886839 -6.95279e-21 0.000886839)
(0.00107288 -0.000343193 2.23805e-05 0.00107288 -5.88794e-19 0.00107288)
(0.00107288 -0.000343193 2.23805e-05 0.00107288 3.18091e-22 0.00107288)
(0.00128506 -0.000442928 3.01839e-05 0.00128506 -7.66281e-19 0.00128506)
(0.00128506 -0.000442928 3.01839e-05 0.00128506 6.09196e-21 0.00128506)
(0.0015233 -0.000560239 3.98882e-05 0.0015233 -9.83279e-19 0.0015233)
(0.0015233 -0.000560239 3.98882e-05 0.0015233 2.13051e-20 0.0015233)
(0.00178638 -0.000694402 5.16493e-05 0.00178638 -1.24643e-18 0.00178638)
(0.00178638 -0.000694402 5.16493e-05 0.00178638 4.79977e-20 0.00178638)
(0.00207197 -0.000843609 6.55508e-05 0.00207197 -1.56031e-18 0.00207197)
(0.00207197 -0.000843609 6.55508e-05 0.00207197 7.74787e-20 0.00207197)
(0.00237664 -0.0010051 8.15971e-05 0.00237664 -1.92323e-18 0.00237664)
(0.00237664 -0.0010051 8.15971e-05 0.00237664 1.11133e-19 0.00237664)
(0.00269613 -0.00117545 9.97197e-05 0.00269613 -2.34282e-18 0.00269613)
(0.00269613 -0.00117545 9.97197e-05 0.00269613 1.56661e-19 0.00269613)
(0.00302568 -0.00135091 0.000119792 0.00302568 -2.7871e-18 0.00302568)
(0.00302568 -0.00135091 0.000119792 0.00302568 1.83528e-19 0.00302568)
(0.0033603 -0.00152777 0.00014165 0.0033603 -3.20135e-18 0.0033603)
(0.0033603 -0.00152777 0.00014165 0.0033603 1.52177e-19 0.0033603)
(0.00369516 -0.00170267 0.000165115 0.00369516 -3.68472e-18 0.00369516)
(0.00369516 -0.00170267 0.000165115 0.00369516 1.57493e-19 0.00369516)
(0.00402586 -0.00187277 0.00019001 0.00402586 -4.34533e-18 0.00402586)
(0.00402586 -0.00187277 0.00019001 0.00402586 1.97131e-19 0.00402586)
(0.00434858 -0.00203585 0.000216174 0.00434858 -4.97629e-18 0.00434858)
(0.00434858 -0.00203585 0.000216174 0.00434858 1.63828e-19 0.00434858)
(0.00466019 -0.0021903 0.000243469 0.00466019 -5.46866e-18 0.00466019)
(0.00466019 -0.0021903 0.000243469 0.00466019 -3.43207e-20 0.00466019)
(0.00495828 -0.00233509 0.000271785 0.00495828 -6.09081e-18 0.00495828)
(0.00495828 -0.00233509 0.000271785 0.00495828 -2.46444e-19 0.00495828)
(0.00524113 -0.00246964 0.00030104 0.00524113 -6.82971e-18 0.00524113)
(0.00524113 -0.00246964 0.00030104 0.00524113 -4.81416e-19 0.00524113)
(0.00550759 -0.00259375 0.000331175 0.00550759 -7.58253e-18 0.00550759)
(0.00550759 -0.00259375 0.000331175 0.00550759 -9.24939e-19 0.00550759)
(0.00575705 -0.0027075 0.000362152 0.00575705 -8.46251e-18 0.00575705)
(0.00575705 -0.0027075 0.000362152 0.00575705 -1.31706e-18 0.00575705)
(0.0059893 -0.00281116 0.000393955 0.0059893 -9.32719e-18 0.0059893)
(0.0059893 -0.00281116 0.000393955 0.0059893 -2.80607e-18 0.0059893)
(0.00620449 -0.00290512 0.000426577 0.00620449 -1.00606e-17 0.00620449)
(0.00620449 -0.00290512 0.000426577 0.00620449 -5.4991e-18 0.00620449)
(0.00640296 -0.00298986 0.000460026 0.00640296 -1.0571e-17 0.00640296)
(0.00640296 -0.00298986 0.000460026 0.00640296 -5.21342e-18 0.00640296)
(0.00658526 -0.00306588 0.000494315 0.00658526 -1.09646e-17 0.00658526)
(0.00658526 -0.00306588 0.000494315 0.00658526 -5.066e-18 0.00658526)
(0.00675206 -0.00313371 0.000529465 0.00675206 -1.17114e-17 0.00675206)
(0.00675206 -0.00313371 0.000529465 0.00675206 -5.43491e-18 0.00675206)
(0.00690409 -0.00319385 0.000565499 0.00690409 -1.23994e-17 0.00690409)
(0.00690409 -0.00319385 0.000565499 0.00690409 -5.63121e-18 0.00690409)
(0.00704211 -0.0032468 0.000602442 0.00704211 -1.31598e-17 0.00704211)
(0.00704211 -0.0032468 0.000602442 0.00704211 -6.39376e-18 0.00704211)
(0.00716691 -0.00329301 0.000640321 0.00716691 -1.44499e-17 0.00716691)
(0.00716691 -0.00329301 0.000640321 0.00716691 -7.6156e-18 0.00716691)
(0.00727924 -0.0033329 0.00067916 0.00727924 -1.58118e-17 0.00727924)
(0.00727924 -0.0033329 0.00067916 0.00727924 -8.95639e-18 0.00727924)
(0.00737986 -0.00336687 0.000718981 0.00737986 -1.73364e-17 0.00737986)
(0.00737986 -0.00336687 0.000718981 0.00737986 -1.08452e-17 0.00737986)
(0.00746946 -0.00339527 0.000759806 0.00746946 -1.93936e-17 0.00746946)
(0.00746946 -0.00339527 0.000759806 0.00746946 -1.14541e-17 0.00746946)
(0.00754872 -0.0034184 0.000801649 0.00754872 -2.03677e-17 0.00754872)
(0.00754872 -0.0034184 0.000801649 0.00754872 -1.15262e-17 0.00754872)
(0.00761826 -0.00343655 0.000844523 0.00761826 -2.1221e-17 0.00761826)
(0.00761826 -0.00343655 0.000844523 0.00761826 -1.24319e-17 0.00761826)
(0.00767866 -0.00344998 0.000888434 0.00767866 -2.21916e-17 0.00767866)
(0.00767866 -0.00344998 0.000888434 0.00767866 -1.57819e-17 0.00767866)
(0.00773043 -0.00345889 0.00093338 0.00773043 -2.23979e-17 0.00773043)
(0.00773043 -0.00345889 0.00093338 0.00773043 -1.81381e-17 0.00773043)
(0.00777406 -0.00346347 0.000979355 0.00777406 -2.25312e-17 0.00777406)
(0.00777406 -0.00346347 0.000979355 0.00777406 -1.62216e-17 0.00777406)
(0.00780997 -0.00346389 0.00102634 0.00780997 -2.38661e-17 0.00780997)
(0.00780997 -0.00346389 0.00102634 0.00780997 -1.39041e-17 0.00780997)
(0.00783854 -0.0034603 0.00107431 0.00783854 -2.52779e-17 0.00783854)
(0.00783854 -0.0034603 0.00107431 0.00783854 -1.90653e-17 0.00783854)
(0.00786011 -0.00345279 0.00112323 0.00786011 -2.73677e-17 0.00786011)
(0.00786011 -0.00345279 0.00112323 0.00786011 -2.62057e-17 0.00786011)
(0.00787497 -0.00344147 0.00117305 0.00787497 -2.40872e-17 0.00787497)
(0.00787497 -0.00344147 0.00117305 0.00787497 -2.34954e-17 0.00787497)
(0.00788334 -0.00342641 0.00122371 0.00788334 -2.18426e-17 0.00788334)
(0.00788334 -0.00342641 0.00122371 0.00788334 -2.08912e-17 0.00788334)
(0.00788543 -0.00340766 0.00127512 0.00788543 -3.00477e-17 0.00788543)
(0.00788543 -0.00340766 0.00127512 0.00788543 -2.60946e-17 0.00788543)
(0.00788138 -0.00338528 0.0013272 0.00788138 -4.45318e-17 0.00788138)
(0.00788138 -0.00338528 0.0013272 0.00788138 -3.34607e-17 0.00788138)
(0.00787129 -0.00335927 0.00137983 0.00787129 -3.19331e-17 0.00787129)
(0.00787129 -0.00335927 0.00137983 0.00787129 -3.35841e-17 0.00787129)
(0.00785522 -0.00332966 0.00143288 0.00785522 -2.40287e-17 0.00785522)
(0.00785522 -0.00332966 0.00143288 0.00785522 -3.07087e-17 0.00785522)
(0.00783316 -0.00329642 0.00148618 0.00783316 -3.32635e-17 0.00783316)
(0.00783316 -0.00329642 0.00148618 0.00783316 -3.22565e-17 0.00783316)
(0.00780507 -0.00325955 0.00153955 0.00780507 -4.77785e-17 0.00780507)
(0.00780507 -0.00325955 0.00153955 0.00780507 -2.93311e-17 0.00780507)
(0.00777086 -0.003219 0.00159277 0.00777086 -3.46474e-17 0.00777086)
(0.00777086 -0.003219 0.00159277 0.00777086 -3.22959e-17 0.00777086)
(0.00773038 -0.00317474 0.0016456 0.00773038 -1.69008e-17 0.00773038)
(0.00773038 -0.00317474 0.0016456 0.00773038 -3.70164e-17 0.00773038)
(0.00768341 -0.00312671 0.00169775 0.00768341 -2.99601e-17 0.00768341)
(0.00768341 -0.00312671 0.00169775 0.00768341 -4.41686e-17 0.00768341)
(0.0076297 -0.00307483 0.0017489 0.0076297 -5.43568e-17 0.0076297)
(0.0076297 -0.00307483 0.0017489 0.0076297 -4.30497e-17 0.0076297)
(0.00756893 -0.00301903 0.00179867 0.00756893 -4.47897e-17 0.00756893)
(0.00756893 -0.00301903 0.00179867 0.00756893 -4.45403e-17 0.00756893)
(0.00750072 -0.00295922 0.00184664 0.00750072 -3.78101e-17 0.00750072)
(0.00750072 -0.00295922 0.00184664 0.00750072 -4.57314e-17 0.00750072)
(0.00742462 -0.00289529 0.00189233 0.00742462 -5.53409e-17 0.00742462)
(0.00742462 -0.00289529 0.00189233 0.00742462 -5.16481e-17 0.00742462)
(0.00734013 -0.00282713 0.00193521 0.00734013 -5.90623e-17 0.00734013)
(0.00734013 -0.00282713 0.00193521 0.00734013 -5.61181e-17 0.00734013)
(0.0072467 -0.00275461 0.00197466 0.0072467 -4.86984e-17 0.0072467)
(0.0072467 -0.00275461 0.00197466 0.0072467 -6.07647e-17 0.0072467)
(0.00714369 -0.0026776 0.00200999 0.00714369 -1.88762e-17 0.00714369)
(0.00714369 -0.0026776 0.00200999 0.00714369 -3.49674e-17 0.00714369)
(0.00703044 -0.00259596 0.00204044 0.00703044 -3.091e-18 0.00703044)
(0.00703044 -0.00259596 0.00204044 0.00703044 -2.25856e-17 0.00703044)
(0.00690624 -0.00250951 0.00206513 0.00690624 2.70312e-18 0.00690624)
(0.00690624 -0.00250951 0.00206513 0.00690624 -1.66052e-17 0.00690624)
(0.00677033 -0.00241811 0.00208309 0.00677033 3.45027e-18 0.00677033)
(0.00677033 -0.00241811 0.00208309 0.00677033 -1.21807e-17 0.00677033)
(0.00662198 -0.00232156 0.00209323 0.00662198 -1.28843e-17 0.00662198)
(0.00662198 -0.00232156 0.00209323 0.00662198 -2.23487e-17 0.00662198)
(0.00646047 -0.00221967 0.00209432 0.00646047 -3.11283e-17 0.00646047)
(0.00646047 -0.00221967 0.00209432 0.00646047 -2.14321e-17 0.00646047)
(0.00628514 -0.00211225 0.00208501 0.00628514 -9.01929e-18 0.00628514)
(0.00628514 -0.00211225 0.00208501 0.00628514 -1.72496e-17 0.00628514)
(0.00609547 -0.00199907 0.00206375 0.00609547 -2.38101e-17 0.00609547)
(0.00609547 -0.00199907 0.00206375 0.00609547 -1.04713e-17 0.00609547)
(0.00589117 -0.00187991 0.00202883 0.00589117 -3.41466e-17 0.00589117)
(0.00589117 -0.00187991 0.00202883 0.00589117 -2.39169e-17 0.00589117)
(0.00567228 -0.00175454 0.00197832 0.00567228 -6.11112e-17 0.00567228)
(0.00567228 -0.00175454 0.00197832 0.00567228 -2.51635e-17 0.00567228)
(0.00543932 -0.00162271 0.00191008 0.00543932 -5.05313e-17 0.00543932)
(0.00543932 -0.00162271 0.00191008 0.00543932 -3.0368e-17 0.00543932)
(0.00519358 -0.00148415 0.00182168 0.00519358 7.001e-18 0.00519358)
(0.00519358 -0.00148415 0.00182168 0.00519358 1.13672e-17 0.00519358)
(0.00493732 -0.0013386 0.00171041 0.00493732 -2.46569e-17 0.00493732)
(0.00493732 -0.0013386 0.00171041 0.00493732 -3.13031e-17 0.00493732)
(0.00467423 -0.00118579 0.00157321 0.00467423 -1.83058e-17 0.00467423)
(0.00467423 -0.00118579 0.00157321 0.00467423 -1.1547e-17 0.00467423)
(0.00440993 -0.00102545 0.0014067 0.00440993 3.50735e-19 0.00440993)
(0.00440993 -0.00102545 0.0014067 0.00440993 -8.14362e-19 0.00440993)
(0.00415251 -0.000857321 0.00120716 0.00415251 -1.24586e-17 0.00415251)
(0.00415251 -0.000857321 0.00120716 0.00415251 -4.26944e-18 0.00415251)
(0.00391319 -0.00068119 0.000970643 0.00391319 -4.09359e-17 0.00391319)
(0.00391319 -0.00068119 0.000970643 0.00391319 -2.77079e-17 0.00391319)
(0.00370669 -0.000496877 0.000693164 0.00370669 -3.14737e-17 0.00370669)
(0.00370669 -0.000496877 0.000693164 0.00370669 -4.57685e-18 0.00370669)
(0.00355086 -0.000304212 0.000370904 0.00355086 -1.33968e-32 0.00355086)
(0.00355086 -0.000304212 0.000370904 0.00355086 1.24414e-18 0.00355086)
(0.00346478 -7.93454e-13 7.2824e-13 0.00346478 -1.32815e-17 0.00346478)
(0.00346478 -7.93535e-13 7.283e-13 0.00346478 -2.91898e-17 0.00346478)
(0.00346478 5.56065e-15 -5.10351e-15 0.00346478 1.29011e-17 0.00346478)