/*--------------------------------*- C++ -*----------------------------------*\
| =========                 |                                                 |
| \\      /  F ield         | OpenFOAM: The Open Source CFD Toolbox           |
|  \\    /   O peration     | Version:  2106                                  |
|   \\  /    A nd           | Website:  www.openfoam.com                      |
|    \\/     M anipulation  |                                                 |
\*---------------------------------------------------------------------------*/
FoamFile
{
    version     2.0;
    format      ascii;
    arch        "LSB;label=32;scalar=64";
    class       volSymmTensorField;
    location    "10100";
    object      turbulenceProperties:R;
}
// * * * * * * * * * * * * * * * * * * * * * * * * * * * * * * * * * * * * * //

dimensions      [0 2 -2 0 0 0 0];

internalField   nonuniform List<symmTensor> 
2000
(
(2.06835e-08 -7.30407e-14 -1.35184e-16 2.06835e-08 1.38245e-27 2.06835e-08)
(2.06835e-08 -7.30407e-14 -1.35184e-16 2.06835e-08 2.29982e-28 2.06835e-08)
(3.10013e-09 -6.30652e-14 -3.52365e-16 3.10013e-09 3.10012e-28 3.10013e-09)
(3.10013e-09 -6.30652e-14 -3.52365e-16 3.10013e-09 2.92123e-28 3.10013e-09)
(1.41863e-09 -8.54463e-14 -6.62417e-16 1.41863e-09 3.58033e-28 1.41863e-09)
(1.41863e-09 -8.54463e-14 -6.62417e-16 1.41863e-09 3.25128e-29 1.41863e-09)
(2.30813e-09 -2.96013e-13 -2.33765e-15 2.30813e-09 6.73291e-28 2.30813e-09)
(2.30813e-09 -2.96013e-13 -2.33765e-15 2.30813e-09 1.13364e-28 2.30813e-09)
(5.27725e-09 -1.19906e-12 -9.64583e-15 5.27725e-09 2.9305e-27 5.27725e-09)
(5.27725e-09 -1.19906e-12 -9.64583e-15 5.27725e-09 4.61852e-28 5.27725e-09)
(1.10639e-08 -3.97484e-12 -3.25725e-14 1.10639e-08 9.49189e-27 1.10639e-08)
(1.10639e-08 -3.97484e-12 -3.25725e-14 1.10639e-08 1.53889e-27 1.10639e-08)
(2.07578e-08 -1.09262e-11 -9.12079e-14 2.07578e-08 2.65355e-26 2.07578e-08)
(2.07578e-08 -1.09262e-11 -9.12079e-14 2.07578e-08 4.24897e-27 2.07578e-08)
(3.56802e-08 -2.60634e-11 -2.21628e-13 3.56802e-08 6.48585e-26 3.56802e-08)
(3.56802e-08 -2.60634e-11 -2.21628e-13 3.56802e-08 1.01734e-26 3.56802e-08)
(5.73665e-08 -5.58507e-11 -4.83784e-13 5.73665e-08 1.42233e-25 5.73665e-08)
(5.73665e-08 -5.58507e-11 -4.83784e-13 5.73665e-08 2.18743e-26 5.73665e-08)
(8.75739e-08 -1.10145e-10 -9.71891e-13 8.75739e-08 2.86856e-25 8.75739e-08)
(8.75739e-08 -1.10145e-10 -9.71891e-13 8.75739e-08 4.32656e-26 8.75739e-08)
(1.28295e-07 -2.03357e-10 -1.82786e-12 1.28295e-07 5.41937e-25 1.28295e-07)
(1.28295e-07 -2.03357e-10 -1.82786e-12 1.28295e-07 8.00712e-26 1.28295e-07)
(1.81773e-07 -3.5588e-10 -3.25851e-12 1.81773e-07 9.70656e-25 1.81773e-07)
(1.81773e-07 -3.5588e-10 -3.25851e-12 1.81773e-07 1.40431e-25 1.81773e-07)
(2.50526e-07 -5.95823e-10 -5.55731e-12 2.50526e-07 1.66315e-24 2.50526e-07)
(2.50526e-07 -5.95823e-10 -5.55731e-12 2.50526e-07 2.35587e-25 2.50526e-07)
(3.37366e-07 -9.61108e-10 -9.13166e-12 3.37366e-07 2.74528e-24 3.37366e-07)
(3.37366e-07 -9.61108e-10 -9.13166e-12 3.37366e-07 3.80529e-25 3.37366e-07)
(4.45421e-07 -1.50198e-09 -1.45369e-11 4.45421e-07 4.38957e-24 4.45421e-07)
(4.45421e-07 -1.50198e-09 -1.45369e-11 4.45421e-07 5.95319e-25 4.45421e-07)
(5.78166e-07 -2.284e-09 -2.25183e-11 5.78166e-07 6.82885e-24 5.78166e-07)
(5.78166e-07 -2.284e-09 -2.25183e-11 5.78166e-07 9.06003e-25 5.78166e-07)
(7.39447e-07 -3.39163e-09 -3.40627e-11 7.39447e-07 1.03729e-23 7.39447e-07)
(7.39447e-07 -3.39163e-09 -3.40627e-11 7.39447e-07 1.34516e-24 7.39447e-07)
(9.33512e-07 -4.93242e-09 -5.04616e-11 9.33512e-07 1.54297e-23 9.33512e-07)
(9.33512e-07 -4.93242e-09 -5.04616e-11 9.33512e-07 1.95469e-24 9.33512e-07)
(1.16505e-06 -7.04197e-09 -7.33881e-11 1.16505e-06 2.25295e-23 1.16505e-06)
(1.16505e-06 -7.04197e-09 -7.33881e-11 1.16505e-06 2.78729e-24 1.16505e-06)
(1.4392e-06 -9.88975e-09 -1.0499e-10 1.4392e-06 3.23553e-23 1.4392e-06)
(1.4392e-06 -9.88975e-09 -1.0499e-10 1.4392e-06 3.90699e-24 1.4392e-06)
(1.76164e-06 -1.36859e-08 -1.48002e-10 1.76164e-06 4.57818e-23 1.76164e-06)
(1.76164e-06 -1.36859e-08 -1.48002e-10 1.76164e-06 5.3915e-24 1.76164e-06)
(2.13857e-06 -1.86893e-08 -2.05881e-10 2.13857e-06 6.3918e-23 2.13857e-06)
(2.13857e-06 -1.86893e-08 -2.05881e-10 2.13857e-06 7.34095e-24 2.13857e-06)
(2.57679e-06 -2.52164e-08 -2.82968e-10 2.57679e-06 7.70495e-23 2.57679e-06)
(2.57679e-06 -2.52164e-08 -2.82968e-10 2.57679e-06 9.87452e-24 2.57679e-06)
(3.08375e-06 -3.36524e-08 -3.84681e-10 3.08375e-06 6.22537e-23 3.08375e-06)
(3.08375e-06 -3.36524e-08 -3.84681e-10 3.08375e-06 1.31291e-23 3.08375e-06)
(3.66756e-06 -4.44635e-08 -5.17748e-10 3.66756e-06 4.66346e-23 3.66756e-06)
(3.66756e-06 -4.44635e-08 -5.17748e-10 3.66756e-06 1.72758e-23 3.66756e-06)
(4.3371e-06 -5.82108e-08 -6.90476e-10 4.3371e-06 6.13858e-23 4.3371e-06)
(4.3371e-06 -5.82108e-08 -6.90476e-10 4.3371e-06 2.25111e-23 4.3371e-06)
(5.10202e-06 -7.55673e-08 -9.13082e-10 5.10202e-06 8.00941e-23 5.10202e-06)
(5.10202e-06 -7.55673e-08 -9.13082e-10 5.10202e-06 2.90867e-23 5.10202e-06)
(5.97285e-06 -9.73364e-08 -1.19807e-09 5.97285e-06 1.03659e-22 5.97285e-06)
(5.97285e-06 -9.73364e-08 -1.19807e-09 5.97285e-06 3.73116e-23 5.97285e-06)
(6.96103e-06 -1.24474e-07 -1.56068e-09 6.96103e-06 1.33324e-22 6.96103e-06)
(6.96103e-06 -1.24474e-07 -1.56068e-09 6.96103e-06 4.75297e-23 6.96103e-06)
(8.079e-06 -1.58112e-07 -2.01945e-09 8.079e-06 1.70638e-22 8.079e-06)
(8.079e-06 -1.58112e-07 -2.01945e-09 8.079e-06 6.00863e-23 8.079e-06)
(9.34027e-06 -1.9959e-07 -2.59678e-09 9.34027e-06 2.17154e-22 9.34027e-06)
(9.34027e-06 -1.9959e-07 -2.59678e-09 9.34027e-06 7.53684e-23 9.34027e-06)
(1.07595e-05 -2.50481e-07 -3.31973e-09 1.07595e-05 2.74646e-22 1.07595e-05)
(1.07595e-05 -2.50481e-07 -3.31973e-09 1.07595e-05 9.38369e-23 1.07595e-05)
(1.23525e-05 -3.12637e-07 -4.22083e-09 1.23525e-05 3.45965e-22 1.23525e-05)
(1.23525e-05 -3.12637e-07 -4.22083e-09 1.23525e-05 1.16148e-22 1.23525e-05)
(1.41365e-05 -3.88223e-07 -5.33909e-09 1.41365e-05 4.33663e-22 1.41365e-05)
(1.41365e-05 -3.88223e-07 -5.33909e-09 1.41365e-05 1.43017e-22 1.41365e-05)
(1.61302e-05 -4.79767e-07 -6.72119e-09 1.61302e-05 5.41141e-22 1.61302e-05)
(1.61302e-05 -4.79767e-07 -6.72119e-09 1.61302e-05 1.75231e-22 1.61302e-05)
(1.83535e-05 -5.90215e-07 -8.42277e-09 1.83535e-05 6.72357e-22 1.83535e-05)
(1.83535e-05 -5.90215e-07 -8.42277e-09 1.83535e-05 2.13881e-22 1.83535e-05)
(2.08284e-05 -7.22987e-07 -1.051e-08 2.08284e-05 8.33337e-22 2.08284e-05)
(2.08284e-05 -7.22987e-07 -1.051e-08 2.08284e-05 2.59571e-22 2.08284e-05)
(2.35781e-05 -8.8205e-07 -1.30616e-08 2.35781e-05 1.03045e-21 2.35781e-05)
(2.35781e-05 -8.8205e-07 -1.30616e-08 2.35781e-05 3.13298e-22 2.35781e-05)
(2.66281e-05 -1.07199e-06 -1.61705e-08 2.66281e-05 1.26833e-21 2.66281e-05)
(2.66281e-05 -1.07199e-06 -1.61705e-08 2.66281e-05 3.7625e-22 2.66281e-05)
(3.00056e-05 -1.2981e-06 -1.99465e-08 3.00056e-05 1.55714e-21 3.00056e-05)
(3.00056e-05 -1.2981e-06 -1.99465e-08 3.00056e-05 4.49947e-22 3.00056e-05)
(3.37401e-05 -1.56647e-06 -2.45194e-08 3.37401e-05 1.90915e-21 3.37401e-05)
(3.37401e-05 -1.56647e-06 -2.45194e-08 3.37401e-05 5.36055e-22 3.37401e-05)
(3.78631e-05 -1.8841e-06 -3.00413e-08 3.78631e-05 1.7231e-21 3.78631e-05)
(3.78631e-05 -1.8841e-06 -3.00413e-08 3.78631e-05 6.35565e-22 3.78631e-05)
(4.24087e-05 -2.25901e-06 -3.66912e-08 4.24087e-05 1.08462e-21 4.24087e-05)
(4.24087e-05 -2.25901e-06 -3.66912e-08 4.24087e-05 7.51088e-22 4.24087e-05)
(4.74134e-05 -2.70039e-06 -4.46783e-08 4.74134e-05 9.6264e-22 4.74134e-05)
(4.74134e-05 -2.70039e-06 -4.46783e-08 4.74134e-05 8.86843e-22 4.74134e-05)
(5.29164e-05 -3.21872e-06 -5.42474e-08 5.29164e-05 1.12823e-21 5.29164e-05)
(5.29164e-05 -3.21872e-06 -5.42474e-08 5.29164e-05 1.04275e-21 5.29164e-05)
(5.89599e-05 -3.82593e-06 -6.56839e-08 5.89599e-05 1.32113e-21 5.89599e-05)
(5.89599e-05 -3.82593e-06 -6.56839e-08 5.89599e-05 1.22035e-21 5.89599e-05)
(6.55889e-05 -4.53561e-06 -7.932e-08 6.55889e-05 1.54216e-21 6.55889e-05)
(6.55889e-05 -4.53561e-06 -7.932e-08 6.55889e-05 1.42734e-21 6.55889e-05)
(7.28518e-05 -5.36315e-06 -9.55413e-08 7.28518e-05 1.81215e-21 7.28518e-05)
(7.28518e-05 -5.36315e-06 -9.55413e-08 7.28518e-05 1.66382e-21 7.28518e-05)
(8.08001e-05 -6.32598e-06 -1.14795e-07 8.08001e-05 2.13807e-21 8.08001e-05)
(8.08001e-05 -6.32598e-06 -1.14795e-07 8.08001e-05 1.93362e-21 8.08001e-05)
(8.94891e-05 -7.4438e-06 -1.37598e-07 8.94891e-05 2.49429e-21 8.94891e-05)
(8.94891e-05 -7.4438e-06 -1.37598e-07 8.94891e-05 2.2336e-21 8.94891e-05)
(9.89775e-05 -8.73879e-06 -1.64547e-07 9.89775e-05 2.90167e-21 9.89775e-05)
(9.89775e-05 -8.73879e-06 -1.64547e-07 9.89775e-05 2.55695e-21 9.89775e-05)
(0.000109328 -1.02359e-05 -1.96329e-07 0.000109328 3.42063e-21 0.000109328)
(0.000109328 -1.02359e-05 -1.96329e-07 0.000109328 2.91939e-21 0.000109328)
(0.000120607 -1.1963e-05 -2.33732e-07 0.000120607 4.01967e-21 0.000120607)
(0.000120607 -1.1963e-05 -2.33732e-07 0.000120607 3.33065e-21 0.000120607)
(0.000132887 -1.39515e-05 -2.77662e-07 0.000132887 4.6841e-21 0.000132887)
(0.000132887 -1.39515e-05 -2.77662e-07 0.000132887 3.7863e-21 0.000132887)
(0.000146241 -1.62363e-05 -3.29151e-07 0.000146241 5.48988e-21 0.000146241)
(0.000146241 -1.62363e-05 -3.29151e-07 0.000146241 4.28333e-21 0.000146241)
(0.000160749 -1.8856e-05 -3.89379e-07 0.000160749 6.404e-21 0.000160749)
(0.000160749 -1.8856e-05 -3.89379e-07 0.000160749 4.83776e-21 0.000160749)
(0.000176497 -2.18537e-05 -4.59685e-07 0.000176497 7.49313e-21 0.000176497)
(0.000176497 -2.18537e-05 -4.59685e-07 0.000176497 5.41868e-21 0.000176497)
(0.000193572 -2.5277e-05 -5.4159e-07 0.000193572 8.82154e-21 0.000193572)
(0.000193572 -2.5277e-05 -5.4159e-07 0.000193572 6.02629e-21 0.000193572)
(0.000212067 -2.91783e-05 -6.3681e-07 0.000212067 1.02772e-20 0.000212067)
(0.000212067 -2.91783e-05 -6.3681e-07 0.000212067 1.06042e-20 0.000212067)
(0.000232082 -3.36148e-05 -7.47284e-07 0.000232082 1.18585e-20 0.000232082)
(0.000232082 -3.36148e-05 -7.47284e-07 0.000232082 1.70195e-20 0.000232082)
(0.000253718 -3.86496e-05 -8.75185e-07 0.000253718 1.35857e-20 0.000253718)
(0.000253718 -3.86496e-05 -8.75185e-07 0.000253718 2.03359e-20 0.000253718)
(0.000277082 -4.43508e-05 -1.02295e-06 0.000277082 1.566e-20 0.000277082)
(0.000277082 -4.43508e-05 -1.02295e-06 0.000277082 2.37498e-20 0.000277082)
(0.000302287 -5.07926e-05 -1.19329e-06 0.000302287 1.79935e-20 0.000302287)
(0.000302287 -5.07926e-05 -1.19329e-06 0.000302287 2.74911e-20 0.000302287)
(0.000329446 -5.80548e-05 -1.38923e-06 0.000329446 2.03854e-20 0.000329446)
(0.000329446 -5.80548e-05 -1.38923e-06 0.000329446 3.18674e-20 0.000329446)
(0.00035868 -6.62231e-05 -1.6141e-06 0.00035868 2.32504e-20 0.00035868)
(0.00035868 -6.62231e-05 -1.6141e-06 0.00035868 3.68626e-20 0.00035868)
(0.00039011 -7.53888e-05 -1.87158e-06 0.00039011 2.66848e-20 0.00039011)
(0.00039011 -7.53888e-05 -1.87158e-06 0.00039011 4.204e-20 0.00039011)
(0.000423861 -8.56486e-05 -2.1657e-06 0.000423861 2.96656e-20 0.000423861)
(0.000423861 -8.56486e-05 -2.1657e-06 0.000423861 4.78069e-20 0.000423861)
(0.00046006 -9.71044e-05 -2.50085e-06 0.00046006 3.29366e-20 0.00046006)
(0.00046006 -9.71044e-05 -2.50085e-06 0.00046006 5.47482e-20 0.00046006)
(0.000498835 -0.000109863 -2.8818e-06 0.000498835 3.60856e-20 0.000498835)
(0.000498835 -0.000109863 -2.8818e-06 0.000498835 6.25791e-20 0.000498835)
(0.000540315 -0.000124033 -3.31369e-06 0.000540315 3.98033e-20 0.000540315)
(0.000540315 -0.000124033 -3.31369e-06 0.000540315 7.06733e-20 0.000540315)
(0.000584627 -0.00013973 -3.80202e-06 0.000584627 4.43923e-20 0.000584627)
(0.000584627 -0.00013973 -3.80202e-06 0.000584627 7.95768e-20 0.000584627)
(0.000631896 -0.000157066 -4.35268e-06 0.000631896 4.84199e-20 0.000631896)
(0.000631896 -0.000157066 -4.35268e-06 0.000631896 8.96595e-20 0.000631896)
(0.000682244 -0.000176159 -4.97185e-06 0.000682244 5.23674e-20 0.000682244)
(0.000682244 -0.000176159 -4.97185e-06 0.000682244 1.00869e-19 0.000682244)
(0.000735788 -0.000197121 -5.66604e-06 0.000735788 5.39218e-20 0.000735788)
(0.000735788 -0.000197121 -5.66604e-06 0.000735788 1.15109e-19 0.000735788)
(0.000792639 -0.000220065 -6.44204e-06 0.000792639 5.60069e-20 0.000792639)
(0.000792639 -0.000220065 -6.44204e-06 0.000792639 1.31342e-19 0.000792639)
(0.000852898 -0.000245096 -7.30683e-06 0.000852898 6.12697e-20 0.000852898)
(0.000852898 -0.000245096 -7.30683e-06 0.000852898 1.46266e-19 0.000852898)
(0.000916659 -0.000272315 -8.26755e-06 0.000916659 6.71479e-20 0.000916659)
(0.000916659 -0.000272315 -8.26755e-06 0.000916659 1.60697e-19 0.000916659)
(0.000984001 -0.000301812 -9.33144e-06 0.000984001 7.33033e-20 0.000984001)
(0.000984001 -0.000301812 -9.33144e-06 0.000984001 1.79209e-19 0.000984001)
(0.00105499 -0.000333667 -1.05057e-05 0.00105499 7.50423e-20 0.00105499)
(0.00105499 -0.000333667 -1.05057e-05 0.00105499 1.99547e-19 0.00105499)
(0.00112968 -0.000367947 -1.17975e-05 0.00112968 6.97921e-20 0.00112968)
(0.00112968 -0.000367947 -1.17975e-05 0.00112968 2.19066e-19 0.00112968)
(0.0012081 -0.000404702 -1.32138e-05 0.0012081 1.5424e-19 0.0012081)
(0.0012081 -0.000404702 -1.32138e-05 0.0012081 3.26102e-19 0.0012081)
(0.00129026 -0.000443966 -1.47613e-05 0.00129026 2.62089e-19 0.00129026)
(0.00129026 -0.000443966 -1.47613e-05 0.00129026 4.61204e-19 0.00129026)
(0.00137617 -0.000485753 -1.64464e-05 0.00137617 2.75703e-19 0.00137617)
(0.00137617 -0.000485753 -1.64464e-05 0.00137617 5.1816e-19 0.00137617)
(0.00146579 -0.000530059 -1.82748e-05 0.00146579 2.85577e-19 0.00146579)
(0.00146579 -0.000530059 -1.82748e-05 0.00146579 5.73521e-19 0.00146579)
(0.00155907 -0.000576854 -2.02518e-05 0.00155907 2.9851e-19 0.00155907)
(0.00155907 -0.000576854 -2.02518e-05 0.00155907 6.31759e-19 0.00155907)
(0.00165594 -0.00062609 -2.23822e-05 0.00165594 3.18819e-19 0.00165594)
(0.00165594 -0.00062609 -2.23822e-05 0.00165594 6.89033e-19 0.00165594)
(0.0017563 -0.000677695 -2.46698e-05 0.0017563 3.35089e-19 0.0017563)
(0.0017563 -0.000677695 -2.46698e-05 0.0017563 7.52534e-19 0.0017563)
(0.00186003 -0.000731577 -2.71179e-05 0.00186003 3.46404e-19 0.00186003)
(0.00186003 -0.000731577 -2.71179e-05 0.00186003 8.24413e-19 0.00186003)
(0.00196698 -0.000787619 -2.97287e-05 0.00196698 3.79031e-19 0.00196698)
(0.00196698 -0.000787619 -2.97287e-05 0.00196698 8.85811e-19 0.00196698)
(0.002077 -0.000845689 -3.2504e-05 0.002077 4.01256e-19 0.002077)
(0.002077 -0.000845689 -3.2504e-05 0.002077 9.44934e-19 0.002077)
(0.00218989 -0.000905635 -3.54442e-05 0.00218989 4.2392e-19 0.00218989)
(0.00218989 -0.000905635 -3.54442e-05 0.00218989 1.00772e-18 0.00218989)
(0.00230544 -0.00096729 -3.85494e-05 0.00230544 4.57233e-19 0.00230544)
(0.00230544 -0.00096729 -3.85494e-05 0.00230544 1.05563e-18 0.00230544)
(0.00242344 -0.00103047 -4.18185e-05 0.00242344 4.64611e-19 0.00242344)
(0.00242344 -0.00103047 -4.18185e-05 0.00242344 1.11611e-18 0.00242344)
(0.00254364 -0.00109499 -4.525e-05 0.00254364 4.57005e-19 0.00254364)
(0.00254364 -0.00109499 -4.525e-05 0.00254364 1.18977e-18 0.00254364)
(0.0026658 -0.00116064 -4.88414e-05 0.0026658 4.70494e-19 0.0026658)
(0.0026658 -0.00116064 -4.88414e-05 0.0026658 1.25167e-18 0.0026658)
(0.00278964 -0.00122723 -5.25897e-05 0.00278964 4.92604e-19 0.00278964)
(0.00278964 -0.00122723 -5.25897e-05 0.00278964 1.3186e-18 0.00278964)
(0.00291491 -0.00129454 -5.64914e-05 0.00291491 5.10937e-19 0.00291491)
(0.00291491 -0.00129454 -5.64914e-05 0.00291491 1.39736e-18 0.00291491)
(0.00304131 -0.00136238 -6.05424e-05 0.00304131 5.00608e-19 0.00304131)
(0.00304131 -0.00136238 -6.05424e-05 0.00304131 1.48563e-18 0.00304131)
(0.00316859 -0.00143053 -6.47384e-05 0.00316859 4.87193e-19 0.00316859)
(0.00316859 -0.00143053 -6.47384e-05 0.00316859 1.57548e-18 0.00316859)
(0.00329646 -0.00149879 -6.90746e-05 0.00329646 5.03415e-19 0.00329646)
(0.00329646 -0.00149879 -6.90746e-05 0.00329646 1.67348e-18 0.00329646)
(0.00342465 -0.00156699 -7.35462e-05 0.00342465 5.2243e-19 0.00342465)
(0.00342465 -0.00156699 -7.35462e-05 0.00342465 1.77249e-18 0.00342465)
(0.00355289 -0.00163493 -7.8148e-05 0.00355289 5.68312e-19 0.00355289)
(0.00355289 -0.00163493 -7.8148e-05 0.00355289 1.86154e-18 0.00355289)
(0.00368091 -0.00170245 -8.28751e-05 0.00368091 6.01916e-19 0.00368091)
(0.00368091 -0.00170245 -8.28751e-05 0.00368091 2.0207e-18 0.00368091)
(0.00380848 -0.00176938 -8.77222e-05 0.00380848 6.17037e-19 0.00380848)
(0.00380848 -0.00176938 -8.77222e-05 0.00380848 2.1852e-18 0.00380848)
(0.00393533 -0.00183558 -9.26843e-05 0.00393533 6.83853e-19 0.00393533)
(0.00393533 -0.00183558 -9.26843e-05 0.00393533 2.29381e-18 0.00393533)
(0.00406125 -0.0019009 -9.77566e-05 0.00406125 8.10719e-19 0.00406125)
(0.00406125 -0.0019009 -9.77566e-05 0.00406125 2.41285e-18 0.00406125)
(0.00418602 -0.00196524 -0.000102934 0.00418602 9.50392e-19 0.00418602)
(0.00418602 -0.00196524 -0.000102934 0.00418602 2.4688e-18 0.00418602)
(0.00430942 -0.00202847 -0.000108213 0.00430942 1.03073e-18 0.00430942)
(0.00430942 -0.00202847 -0.000108213 0.00430942 2.44556e-18 0.00430942)
(0.00443128 -0.0020905 -0.000113588 0.00443128 9.19364e-19 0.00443128)
(0.00443128 -0.0020905 -0.000113588 0.00443128 2.44771e-18 0.00443128)
(0.00455142 -0.00215124 -0.000119056 0.00455142 8.79557e-19 0.00455142)
(0.00455142 -0.00215124 -0.000119056 0.00455142 2.54985e-18 0.00455142)
(0.00466968 -0.00221063 -0.000124613 0.00466968 9.70436e-19 0.00466968)
(0.00466968 -0.00221063 -0.000124613 0.00466968 2.67547e-18 0.00466968)
(0.00478592 -0.00226859 -0.000130254 0.00478592 8.98849e-19 0.00478592)
(0.00478592 -0.00226859 -0.000130254 0.00478592 2.78878e-18 0.00478592)
(0.00489999 -0.00232508 -0.000135978 0.00489999 8.45434e-19 0.00489999)
(0.00489999 -0.00232508 -0.000135978 0.00489999 2.81134e-18 0.00489999)
(0.00501179 -0.00238006 -0.000141781 0.00501179 8.63437e-19 0.00501179)
(0.00501179 -0.00238006 -0.000141781 0.00501179 2.77829e-18 0.00501179)
(0.00512122 -0.00243349 -0.000147661 0.00512122 8.31519e-19 0.00512122)
(0.00512122 -0.00243349 -0.000147661 0.00512122 2.94351e-18 0.00512122)
(0.00522818 -0.00248534 -0.000153614 0.00522818 8.56878e-19 0.00522818)
(0.00522818 -0.00248534 -0.000153614 0.00522818 3.10673e-18 0.00522818)
(0.0053326 -0.00253561 -0.00015964 0.0053326 9.53622e-19 0.0053326)
(0.0053326 -0.00253561 -0.00015964 0.0053326 3.117e-18 0.0053326)
(0.00543441 -0.00258427 -0.000165735 0.00543441 9.79706e-19 0.00543441)
(0.00543441 -0.00258427 -0.000165735 0.00543441 3.19176e-18 0.00543441)
(0.00553356 -0.00263134 -0.000171899 0.00553356 8.9175e-19 0.00553356)
(0.00553356 -0.00263134 -0.000171899 0.00553356 3.49035e-18 0.00553356)
(0.00563 -0.0026768 -0.00017813 0.00563 9.56278e-19 0.00563)
(0.00563 -0.0026768 -0.00017813 0.00563 3.97175e-18 0.00563)
(0.00572371 -0.00272066 -0.000184426 0.00572371 1.17413e-18 0.00572371)
(0.00572371 -0.00272066 -0.000184426 0.00572371 4.17151e-18 0.00572371)
(0.00581465 -0.00276294 -0.000190787 0.00581465 1.08413e-18 0.00581465)
(0.00581465 -0.00276294 -0.000190787 0.00581465 4.22563e-18 0.00581465)
(0.00590282 -0.00280365 -0.000197212 0.00590282 9.32898e-19 0.00590282)
(0.00590282 -0.00280365 -0.000197212 0.00590282 4.33804e-18 0.00590282)
(0.0059882 -0.0028428 -0.0002037 0.0059882 1.04293e-18 0.0059882)
(0.0059882 -0.0028428 -0.0002037 0.0059882 4.57935e-18 0.0059882)
(0.00607079 -0.00288041 -0.00021025 0.00607079 1.37355e-18 0.00607079)
(0.00607079 -0.00288041 -0.00021025 0.00607079 4.90491e-18 0.00607079)
(0.00615059 -0.00291651 -0.000216863 0.00615059 1.53031e-18 0.00615059)
(0.00615059 -0.00291651 -0.000216863 0.00615059 5.32585e-18 0.00615059)
(0.00622762 -0.00295112 -0.000223537 0.00622762 1.5902e-18 0.00622762)
(0.00622762 -0.00295112 -0.000223537 0.00622762 5.95657e-18 0.00622762)
(0.00630189 -0.00298427 -0.000230272 0.00630189 2.0851e-18 0.00630189)
(0.00630189 -0.00298427 -0.000230272 0.00630189 6.27567e-18 0.00630189)
(0.00637342 -0.00301598 -0.00023707 0.00637342 2.17482e-18 0.00637342)
(0.00637342 -0.00301598 -0.00023707 0.00637342 6.4911e-18 0.00637342)
(0.00644223 -0.00304627 -0.000243928 0.00644223 2.50278e-18 0.00644223)
(0.00644223 -0.00304627 -0.000243928 0.00644223 6.56168e-18 0.00644223)
(0.00650834 -0.00307518 -0.000250848 0.00650834 3.44063e-18 0.00650834)
(0.00650834 -0.00307518 -0.000250848 0.00650834 6.08024e-18 0.00650834)
(0.0065718 -0.00310274 -0.000257829 0.0065718 3.696e-18 0.0065718)
(0.0065718 -0.00310274 -0.000257829 0.0065718 5.83688e-18 0.0065718)
(0.00663262 -0.00312897 -0.000264872 0.00663262 3.29216e-18 0.00663262)
(0.00663262 -0.00312897 -0.000264872 0.00663262 6.08258e-18 0.00663262)
(0.00669084 -0.00315389 -0.000271976 0.00669084 3.22583e-18 0.00669084)
(0.00669084 -0.00315389 -0.000271976 0.00669084 6.3705e-18 0.00669084)
(0.0067465 -0.00317754 -0.000279142 0.0067465 3.66733e-18 0.0067465)
(0.0067465 -0.00317754 -0.000279142 0.0067465 6.32069e-18 0.0067465)
(0.00679963 -0.00319995 -0.00028637 0.00679963 2.99407e-18 0.00679963)
(0.00679963 -0.00319995 -0.00028637 0.00679963 6.20205e-18 0.00679963)
(0.00685027 -0.00322114 -0.000293661 0.00685027 2.26564e-18 0.00685027)
(0.00685027 -0.00322114 -0.000293661 0.00685027 5.92074e-18 0.00685027)
(0.00689846 -0.00324115 -0.000301013 0.00689846 2.44609e-18 0.00689846)
(0.00689846 -0.00324115 -0.000301013 0.00689846 5.01972e-18 0.00689846)
(0.00694424 -0.00325998 -0.000308428 0.00694424 1.79116e-18 0.00694424)
(0.00694424 -0.00325998 -0.000308428 0.00694424 4.38717e-18 0.00694424)
(0.00698765 -0.00327768 -0.000315906 0.00698765 9.67185e-19 0.00698765)
(0.00698765 -0.00327768 -0.000315906 0.00698765 4.78368e-18 0.00698765)
(0.00702872 -0.00329427 -0.000323446 0.00702872 3.32996e-19 0.00702872)
(0.00702872 -0.00329427 -0.000323446 0.00702872 5.49366e-18 0.00702872)
(0.0070675 -0.00330977 -0.00033105 0.0070675 5.84337e-19 0.0070675)
(0.0070675 -0.00330977 -0.00033105 0.0070675 5.63003e-18 0.0070675)
(0.00710402 -0.0033242 -0.000338716 0.00710402 6.12384e-19 0.00710402)
(0.00710402 -0.0033242 -0.000338716 0.00710402 5.34285e-18 0.00710402)
(0.00713832 -0.00333759 -0.000346445 0.00713832 1.1273e-19 0.00713832)
(0.00713832 -0.00333759 -0.000346445 0.00713832 5.61577e-18 0.00713832)
(0.00717045 -0.00334996 -0.000354237 0.00717045 -4.61062e-19 0.00717045)
(0.00717045 -0.00334996 -0.000354237 0.00717045 6.29926e-18 0.00717045)
(0.00720044 -0.00336133 -0.000362091 0.00720044 -1.96006e-19 0.00720044)
(0.00720044 -0.00336133 -0.000362091 0.00720044 6.42489e-18 0.00720044)
(0.00722832 -0.00337173 -0.000370009 0.00722832 -4.00482e-19 0.00722832)
(0.00722832 -0.00337173 -0.000370009 0.00722832 6.2584e-18 0.00722832)
(0.00725413 -0.00338116 -0.000377988 0.00725413 -1.19664e-18 0.00725413)
(0.00725413 -0.00338116 -0.000377988 0.00725413 6.1564e-18 0.00725413)
(0.00727791 -0.00338966 -0.000386029 0.00727791 -1.07739e-18 0.00727791)
(0.00727791 -0.00338966 -0.000386029 0.00727791 5.95351e-18 0.00727791)
(0.00729969 -0.00339723 -0.000394132 0.00729969 -1.20368e-19 0.00729969)
(0.00729969 -0.00339723 -0.000394132 0.00729969 6.46367e-18 0.00729969)
(0.00731951 -0.0034039 -0.000402296 0.00731951 -1.24779e-19 0.00731951)
(0.00731951 -0.0034039 -0.000402296 0.00731951 7.45772e-18 0.00731951)
(0.00733739 -0.00340969 -0.000410521 0.00733739 -1.68918e-18 0.00733739)
(0.00733739 -0.00340969 -0.000410521 0.00733739 6.71193e-18 0.00733739)
(0.00735337 -0.0034146 -0.000418805 0.00735337 -5.06624e-18 0.00735337)
(0.00735337 -0.0034146 -0.000418805 0.00735337 6.41967e-18 0.00735337)
(0.00736748 -0.00341865 -0.000427148 0.00736748 -5.79865e-18 0.00736748)
(0.00736748 -0.00341865 -0.000427148 0.00736748 6.74816e-18 0.00736748)
(0.00737975 -0.00342186 -0.000435549 0.00737975 -5.36475e-18 0.00737975)
(0.00737975 -0.00342186 -0.000435549 0.00737975 7.95927e-18 0.00737975)
(0.00739021 -0.00342425 -0.000444007 0.00739021 -4.64626e-18 0.00739021)
(0.00739021 -0.00342425 -0.000444007 0.00739021 9.94624e-18 0.00739021)
(0.00739888 -0.00342581 -0.000452521 0.00739888 -3.16519e-18 0.00739888)
(0.00739888 -0.00342581 -0.000452521 0.00739888 8.96232e-18 0.00739888)
(0.00740579 -0.00342657 -0.000461089 0.00740579 -5.1808e-18 0.00740579)
(0.00740579 -0.00342657 -0.000461089 0.00740579 9.7281e-18 0.00740579)
(0.00741097 -0.00342654 -0.00046971 0.00741097 -6.76148e-18 0.00741097)
(0.00741097 -0.00342654 -0.00046971 0.00741097 1.24451e-17 0.00741097)
(0.00741444 -0.00342572 -0.000478382 0.00741444 -6.95325e-18 0.00741444)
(0.00741444 -0.00342572 -0.000478382 0.00741444 1.14395e-17 0.00741444)
(0.00741622 -0.00342413 -0.000487104 0.00741622 -6.20547e-18 0.00741622)
(0.00741622 -0.00342413 -0.000487104 0.00741622 9.28635e-18 0.00741622)
(0.00741633 -0.00342177 -0.000495874 0.00741633 -7.31407e-18 0.00741633)
(0.00741633 -0.00342177 -0.000495874 0.00741633 1.06199e-17 0.00741633)
(0.00741479 -0.00341866 -0.000504689 0.00741479 -7.55043e-18 0.00741479)
(0.00741479 -0.00341866 -0.000504689 0.00741479 1.48697e-17 0.00741479)
(0.00741164 -0.0034148 -0.000513547 0.00741164 -5.1973e-18 0.00741164)
(0.00741164 -0.0034148 -0.000513547 0.00741164 1.79992e-17 0.00741164)
(0.00740687 -0.0034102 -0.000522447 0.00740687 -1.44906e-18 0.00740687)
(0.00740687 -0.0034102 -0.000522447 0.00740687 1.96461e-17 0.00740687)
(0.00740051 -0.00340487 -0.000531384 0.00740051 2.87124e-18 0.00740051)
(0.00740051 -0.00340487 -0.000531384 0.00740051 2.13969e-17 0.00740051)
(0.00739258 -0.00339881 -0.000540356 0.00739258 2.10594e-18 0.00739258)
(0.00739258 -0.00339881 -0.000540356 0.00739258 2.15149e-17 0.00739258)
(0.00738309 -0.00339202 -0.00054936 0.00738309 1.98411e-18 0.00738309)
(0.00738309 -0.00339202 -0.00054936 0.00738309 1.85517e-17 0.00738309)
(0.00737206 -0.00338452 -0.000558393 0.00737206 1.76303e-18 0.00737206)
(0.00737206 -0.00338452 -0.000558393 0.00737206 1.70539e-17 0.00737206)
(0.0073595 -0.00337631 -0.000567451 0.0073595 2.70174e-18 0.0073595)
(0.0073595 -0.00337631 -0.000567451 0.0073595 1.8842e-17 0.0073595)
(0.00734542 -0.00336738 -0.00057653 0.00734542 1.71018e-18 0.00734542)
(0.00734542 -0.00336738 -0.00057653 0.00734542 2.09265e-17 0.00734542)
(0.00732984 -0.00335775 -0.000585626 0.00732984 1.92833e-18 0.00732984)
(0.00732984 -0.00335775 -0.000585626 0.00732984 2.47734e-17 0.00732984)
(0.00731276 -0.00334742 -0.000594735 0.00731276 1.61675e-18 0.00731276)
(0.00731276 -0.00334742 -0.000594735 0.00731276 2.69579e-17 0.00731276)
(0.00729419 -0.00333638 -0.000603852 0.00729419 1.16071e-18 0.00729419)
(0.00729419 -0.00333638 -0.000603852 0.00729419 2.93481e-17 0.00729419)
(0.00727415 -0.00332465 -0.000612973 0.00727415 2.87003e-18 0.00727415)
(0.00727415 -0.00332465 -0.000612973 0.00727415 3.03208e-17 0.00727415)
(0.00725264 -0.00331221 -0.000622091 0.00725264 3.44014e-18 0.00725264)
(0.00725264 -0.00331221 -0.000622091 0.00725264 2.94522e-17 0.00725264)
(0.00722967 -0.00329908 -0.000631201 0.00722967 5.4234e-18 0.00722967)
(0.00722967 -0.00329908 -0.000631201 0.00722967 2.88597e-17 0.00722967)
(0.00720524 -0.00328526 -0.000640297 0.00720524 3.82969e-18 0.00720524)
(0.00720524 -0.00328526 -0.000640297 0.00720524 2.76464e-17 0.00720524)
(0.00717937 -0.00327074 -0.000649374 0.00717937 4.74702e-18 0.00717937)
(0.00717937 -0.00327074 -0.000649374 0.00717937 3.10949e-17 0.00717937)
(0.00715204 -0.00325551 -0.000658424 0.00715204 -3.57307e-18 0.00715204)
(0.00715204 -0.00325551 -0.000658424 0.00715204 3.22229e-17 0.00715204)
(0.00712328 -0.0032396 -0.00066744 0.00712328 -6.99146e-22 0.00712328)
(0.00712328 -0.0032396 -0.00066744 0.00712328 3.3968e-17 0.00712328)
(0.00709308 -0.00322298 -0.000676415 0.00709308 6.56468e-18 0.00709308)
(0.00709308 -0.00322298 -0.000676415 0.00709308 3.50428e-17 0.00709308)
(0.00706144 -0.00320566 -0.00068534 0.00706144 5.50777e-18 0.00706144)
(0.00706144 -0.00320566 -0.00068534 0.00706144 2.79654e-17 0.00706144)
(0.00702837 -0.00318763 -0.000694209 0.00702837 2.02121e-18 0.00702837)
(0.00702837 -0.00318763 -0.000694209 0.00702837 2.76624e-17 0.00702837)
(0.00699386 -0.0031689 -0.000703011 0.00699386 -6.88583e-18 0.00699386)
(0.00699386 -0.0031689 -0.000703011 0.00699386 3.5773e-17 0.00699386)
(0.00695793 -0.00314946 -0.000711738 0.00695793 7.05678e-19 0.00695793)
(0.00695793 -0.00314946 -0.000711738 0.00695793 2.93114e-17 0.00695793)
(0.00692056 -0.00312931 -0.000720381 0.00692056 4.73785e-18 0.00692056)
(0.00692056 -0.00312931 -0.000720381 0.00692056 2.36031e-17 0.00692056)
(0.00688176 -0.00310844 -0.000728927 0.00688176 -9.32033e-19 0.00688176)
(0.00688176 -0.00310844 -0.000728927 0.00688176 2.2216e-17 0.00688176)
(0.00684152 -0.00308685 -0.000737368 0.00684152 -1.66007e-18 0.00684152)
(0.00684152 -0.00308685 -0.000737368 0.00684152 1.98048e-17 0.00684152)
(0.00679985 -0.00306454 -0.000745691 0.00679985 -9.03973e-20 0.00679985)
(0.00679985 -0.00306454 -0.000745691 0.00679985 1.6258e-17 0.00679985)
(0.00675673 -0.00304149 -0.000753885 0.00675673 3.64463e-18 0.00675673)
(0.00675673 -0.00304149 -0.000753885 0.00675673 1.2318e-17 0.00675673)
(0.00671218 -0.00301772 -0.000761937 0.00671218 3.94225e-18 0.00671218)
(0.00671218 -0.00301772 -0.000761937 0.00671218 1.04905e-17 0.00671218)
(0.00666619 -0.0029932 -0.000769834 0.00666619 1.5201e-18 0.00666619)
(0.00666619 -0.0029932 -0.000769834 0.00666619 1.90157e-18 0.00666619)
(0.00661874 -0.00296793 -0.000777562 0.00661874 -6.86749e-19 0.00661874)
(0.00661874 -0.00296793 -0.000777562 0.00661874 2.82359e-18 0.00661874)
(0.00656984 -0.00294191 -0.000785107 0.00656984 -1.74962e-18 0.00656984)
(0.00656984 -0.00294191 -0.000785107 0.00656984 7.47681e-19 0.00656984)
(0.00651949 -0.00291513 -0.000792453 0.00651949 -8.77237e-19 0.00651949)
(0.00651949 -0.00291513 -0.000792453 0.00651949 4.054e-18 0.00651949)
(0.00646768 -0.00288758 -0.000799585 0.00646768 6.70691e-18 0.00646768)
(0.00646768 -0.00288758 -0.000799585 0.00646768 -8.26569e-18 0.00646768)
(0.00641441 -0.00285926 -0.000806485 0.00641441 7.61898e-18 0.00641441)
(0.00641441 -0.00285926 -0.000806485 0.00641441 -6.31837e-18 0.00641441)
(0.00635967 -0.00283016 -0.000813137 0.00635967 6.37304e-19 0.00635967)
(0.00635967 -0.00283016 -0.000813137 0.00635967 1.2272e-17 0.00635967)