/*--------------------------------*- C++ -*----------------------------------*\
| =========                 |                                                 |
| \\      /  F ield         | OpenFOAM: The Open Source CFD Toolbox           |
|  \\    /   O peration     | Version:  2106                                  |
|   \\  /    A nd           | Website:  www.openfoam.com                      |
|    \\/     M anipulation  |                                                 |
\*---------------------------------------------------------------------------*/
FoamFile
{
    version     2.0;
    format      ascii;
    arch        "LSB;label=32;scalar=64";
    class       volVectorField;
    location    "10100";
    object      U;
}
// * * * * * * * * * * * * * * * * * * * * * * * * * * * * * * * * * * * * * //

dimensions      [0 1 -1 0 0 0 0];

internalField   nonuniform List<vector> 
800
(
(0.00306853 -7.30729e-16 -1.12487e-17)
(0.00306853 -1.90453e-18 4.66645e-21)
(0.00934882 -2.2834e-15 1.064e-18)
(0.00934882 1.03774e-18 5.91186e-22)
(0.015925 -2.13328e-15 2.91158e-18)
(0.015925 1.57451e-19 3.70613e-20)
(0.0228108 -2.0458e-15 6.22601e-18)
(0.0228108 3.62734e-19 4.85794e-20)
(0.0300207 -2.02118e-15 9.7973e-18)
(0.0300207 5.40871e-19 5.48218e-20)
(0.0375697 -2.01861e-15 1.35235e-17)
(0.0375697 5.39149e-19 6.02045e-20)
(0.0454735 -2.02365e-15 1.76513e-17)
(0.0454735 4.34242e-19 6.04549e-20)
(0.0537487 -2.02437e-15 2.22765e-17)
(0.0537487 2.44579e-19 5.57409e-20)
(0.0624123 -2.02425e-15 2.74443e-17)
(0.0624123 -4.83745e-21 5.49845e-20)
(0.0714823 -2.02432e-15 3.31997e-17)
(0.0714823 -4.41552e-19 4.87153e-20)
(0.0809773 -2.02412e-15 3.9587e-17)
(0.0809773 -1.31274e-18 1.62691e-20)
(0.0909168 -2.02333e-15 4.66641e-17)
(0.0909168 -2.3895e-18 -2.35915e-20)
(0.101321 -2.0222e-15 4.32427e-17)
(0.101321 -3.47302e-18 -4.98553e-20)
(0.11221 -2.02104e-15 3.64759e-17)
(0.11221 -4.65017e-18 -1.10487e-19)
(0.123607 -2.01917e-15 2.88333e-17)
(0.123607 -6.43727e-18 -2.25371e-19)
(0.135532 -2.01645e-15 2.02366e-17)
(0.135532 -9.13107e-18 -3.14793e-19)
(0.148009 -2.01334e-15 1.06055e-17)
(0.148009 -1.22258e-17 -4.13717e-19)
(0.161058 -2.00973e-15 -1.83852e-19)
(0.161058 -1.51507e-17 -5.8937e-19)
(0.174702 -2.00418e-15 -1.23343e-17)
(0.174702 -1.92162e-17 -9.21952e-19)
(0.188959 -1.99763e-15 -2.58561e-17)
(0.188959 -2.43229e-17 -1.23606e-18)
(0.203848 -1.99128e-15 -4.09862e-17)
(0.203848 -2.99414e-17 -1.63944e-18)
(0.219381 -1.98442e-15 -5.8055e-17)
(0.219381 -3.70053e-17 -2.17079e-18)
(0.235566 -1.97687e-15 -7.70982e-17)
(0.235566 -4.34846e-17 -2.44756e-18)
(0.252402 -1.96717e-15 -9.8031e-17)
(0.252402 -5.02223e-17 -2.87054e-18)
(0.269879 -1.95583e-15 -1.21472e-16)
(0.269879 -5.8505e-17 -3.85884e-18)
(0.287972 -1.94337e-15 -1.47307e-16)
(0.287972 -6.65614e-17 -4.9953e-18)
(0.306642 -1.93018e-15 -1.75633e-16)
(0.306642 -7.59124e-17 -6.3282e-18)
(0.325834 -1.91446e-15 -2.07011e-16)
(0.325834 -8.86104e-17 -7.5319e-18)
(0.345474 -1.89572e-15 -2.40387e-16)
(0.345474 -1.0256e-16 -8.57374e-18)
(0.365473 -1.87644e-15 -2.75974e-16)
(0.365473 -1.18142e-16 -9.59747e-18)
(0.385731 -1.85557e-15 -3.13335e-16)
(0.385731 -1.33477e-16 -1.10768e-17)
(0.406137 -1.83296e-15 -3.52505e-16)
(0.406137 -1.48901e-16 -1.24278e-17)
(0.426579 -1.81037e-15 -3.92889e-16)
(0.426579 -1.67927e-16 -1.4034e-17)
(0.446951 -1.7872e-15 -4.35813e-16)
(0.446951 -1.85728e-16 -1.60649e-17)
(0.467152 -1.76056e-15 -4.4844e-16)
(0.467152 -2.0264e-16 -1.7395e-17)
(0.487098 -1.72847e-15 -4.45255e-16)
(0.487098 -2.2836e-16 -1.91334e-17)
(0.506717 -1.69601e-15 -4.39345e-16)
(0.506717 -2.40619e-16 -2.12776e-17)
(0.525954 -1.66599e-15 -4.31145e-16)
(0.525954 -2.53994e-16 -2.25977e-17)
(0.544768 -1.63927e-15 -4.20378e-16)
(0.544768 -2.70255e-16 -2.38856e-17)
(0.563135 -1.60803e-15 -4.07953e-16)
(0.563135 -2.91353e-16 -2.48006e-17)
(0.581038 -1.57673e-15 -3.94903e-16)
(0.581038 -3.14578e-16 -2.54835e-17)
(0.598472 -1.54301e-15 -3.79444e-16)
(0.598472 -3.38121e-16 -2.64315e-17)
(0.61544 -1.50409e-15 -3.64641e-16)
(0.61544 -3.72506e-16 -2.6733e-17)
(0.631949 -1.46541e-15 -3.49956e-16)
(0.631949 -4.01312e-16 -2.7235e-17)
(0.648011 -1.42875e-15 -3.34843e-16)
(0.648011 -4.26096e-16 -2.72176e-17)
(0.663641 -1.38993e-15 -3.18599e-16)
(0.663641 -4.53884e-16 -2.88822e-17)
(0.678855 -1.34659e-15 -3.03245e-16)
(0.678855 -4.80029e-16 -2.9826e-17)
(0.69367 -1.30179e-15 -2.9052e-16)
(0.69367 -5.14053e-16 -3.87314e-17)
(0.708105 -1.26972e-15 -2.80304e-16)
(0.708105 -5.31657e-16 -3.67762e-17)
(0.722177 -1.24548e-15 -2.67389e-16)
(0.722177 -5.45222e-16 -3.53682e-17)
(0.735904 -1.20184e-15 -2.75214e-16)
(0.735904 -5.71431e-16 -3.49109e-17)
(0.749302 -1.15354e-15 -2.75183e-16)
(0.749302 -5.82913e-16 -3.44551e-17)
(0.762388 -1.10952e-15 -2.64033e-16)
(0.762388 -5.96663e-16 -3.79904e-17)
(0.775177 -1.06567e-15 -2.54171e-16)
(0.775177 -6.22657e-16 -4.50316e-17)
(0.787683 -1.03444e-15 -2.44218e-16)
(0.787683 -6.37684e-16 -5.17471e-17)
(0.79992 -9.98957e-16 -2.29972e-16)
(0.79992 -6.54506e-16 -6.10381e-17)
(0.811902 -9.6347e-16 -2.19217e-16)
(0.811902 -6.51856e-16 -6.83638e-17)
(0.823639 -9.28612e-16 -2.07053e-16)
(0.823639 -6.33404e-16 -7.91321e-17)
(0.835143 -9.11181e-16 -1.968e-16)
(0.835143 -6.48532e-16 -8.65906e-17)
(0.846423 -8.93314e-16 -1.80271e-16)
(0.846423 -6.53491e-16 -9.36278e-17)
(0.857491 -8.65167e-16 -1.71051e-16)
(0.857491 -6.51254e-16 -9.04851e-17)
(0.868354 -8.55191e-16 -1.55819e-16)
(0.868354 -6.51475e-16 -9.69036e-17)
(0.87902 -8.40264e-16 -1.43863e-16)
(0.87902 -6.61717e-16 -9.85965e-17)
(0.889496 -8.24206e-16 -1.42159e-16)
(0.889496 -6.50367e-16 -1.01081e-16)
(0.89979 -7.97178e-16 -1.27411e-16)
(0.89979 -6.5473e-16 -1.11975e-16)
(0.909907 -7.67025e-16 -1.26685e-16)
(0.909907 -6.5959e-16 -1.06557e-16)
(0.919853 -7.40811e-16 -1.14511e-16)
(0.919853 -6.59762e-16 -9.42345e-17)
(0.929632 -6.95763e-16 -9.97263e-17)
(0.929632 -6.65962e-16 -7.61576e-17)
(0.939249 -6.70596e-16 -8.06598e-17)
(0.939249 -6.25794e-16 -7.15302e-17)
(0.948708 -6.31405e-16 -7.46539e-17)
(0.948708 -6.10232e-16 -6.08223e-17)
(0.958012 -6.02186e-16 -7.75786e-17)
(0.958012 -5.90823e-16 -6.03885e-17)
(0.967164 -5.70377e-16 -5.31688e-17)
(0.967164 -5.84933e-16 -5.8489e-17)
(0.976166 -5.27245e-16 -5.54535e-17)
(0.976166 -5.76212e-16 -4.21339e-17)
(0.985019 -5.57761e-16 -8.1718e-17)
(0.985019 -5.69684e-16 -4.50212e-17)
(0.993726 -5.60327e-16 -1.06131e-16)
(0.993726 -5.6703e-16 -4.19614e-17)
(1.00229 -5.89897e-16 -9.67803e-17)
(1.00229 -5.45452e-16 -1.84616e-17)
(1.0107 -5.5436e-16 -6.29798e-17)
(1.0107 -5.76455e-16 -3.91587e-17)
(1.01897 -5.97156e-16 -6.13656e-17)
(1.01897 -5.87692e-16 -4.99879e-17)
(1.02709 -5.91405e-16 5.13231e-17)
(1.02709 -5.42717e-16 -1.91943e-17)
(1.03506 -5.91827e-16 5.33617e-17)
(1.03506 -5.53498e-16 -4.54018e-18)
(1.04288 -5.46739e-16 3.97567e-17)
(1.04288 -5.05996e-16 3.74003e-17)
(1.05054 -4.7735e-16 2.53014e-20)
(1.05054 -4.30848e-16 3.0149e-17)
(1.05804 -4.24931e-16 -2.14393e-17)
(1.05804 -4.58073e-16 5.52939e-17)
(1.06538 -4.49745e-16 -1.1119e-16)
(1.06538 -4.93108e-16 2.04713e-17)
(1.07254 -4.35679e-16 -4.11363e-17)
(1.07254 -4.75905e-16 -3.78476e-17)
(1.07953 -4.78219e-16 -1.47307e-16)
(1.07953 -4.27853e-16 -1.71322e-17)
(1.08632 -4.28289e-16 -6.08807e-17)
(1.08632 -3.50628e-16 2.91715e-17)
(1.09291 -3.50683e-16 -4.5872e-17)
(1.09291 -3.78741e-16 6.02657e-17)
(1.09929 -4.02627e-16 -6.04874e-18)
(1.09929 -3.51397e-16 1.04888e-16)
(1.10542 -3.87915e-16 4.77321e-17)
(1.10542 -3.04596e-16 2.71168e-17)
(1.1113 -4.00138e-16 2.8397e-17)
(1.1113 -3.46554e-16 -5.84073e-17)
(1.1169 -4.16431e-16 8.24538e-17)
(1.1169 -4.26214e-16 -2.46043e-17)
(1.12218 -3.19077e-16 7.24119e-18)
(1.12218 -3.48417e-16 6.08941e-17)
(1.1271 -3.34101e-16 1.08436e-17)
(1.1271 -2.78845e-16 -3.17974e-17)
(1.13161 -2.77273e-16 -1.36524e-16)
(1.13161 -2.84063e-16 -6.81839e-17)
(1.13564 -2.89737e-16 -1.04844e-16)
(1.13564 -3.06624e-16 -5.82846e-17)
(1.13911 -3.52107e-16 -3.35521e-17)
(1.13911 -2.83001e-16 -8.50224e-17)
(1.14193 -2.87912e-16 -1.02354e-16)
(1.14193 -2.59254e-16 -5.9099e-17)
(1.14395 -2.82912e-16 0)
(1.14395 -1.76038e-16 -3.3262e-16)
(1.14504 -1.11962e-16 -1.84499e-16)
(1.14504 -2.37306e-16 -1.02366e-16)
(0.00306853 -7.1581e-19 4.85303e-19)
(0.00306853 -1.70338e-19 6.38495e-18)
(0.00934882 6.66086e-19 -3.13757e-18)
(0.00934882 3.04054e-19 2.35839e-17)
(0.015925 2.8958e-19 -3.36599e-18)
(0.015925 2.76771e-19 2.57057e-17)
(0.0228108 5.20891e-19 -3.56918e-18)
(0.0228108 4.58234e-19 2.79222e-17)
(0.0300207 7.75471e-19 -3.73689e-18)
(0.0300207 6.68178e-19 3.02238e-17)
(0.0375697 9.64435e-19 -3.85762e-18)
(0.0375697 8.99278e-19 3.26022e-17)
(0.0454735 1.07668e-18 -3.92199e-18)
(0.0454735 1.22953e-18 3.50476e-17)
(0.0537487 1.16044e-18 -3.91688e-18)
(0.0537487 1.57737e-18 3.75469e-17)
(0.0624123 1.18348e-18 -3.82915e-18)
(0.0624123 2.08585e-18 4.00843e-17)
(0.0714823 1.01549e-18 -3.65384e-18)
(0.0714823 2.77817e-18 4.26567e-17)
(0.0809773 8.24313e-19 -3.38454e-18)
(0.0809773 3.37832e-18 4.52491e-17)
(0.0909168 7.5679e-19 -2.99723e-18)
(0.0909168 3.75562e-18 4.78458e-17)
(0.101321 6.52251e-19 -2.47716e-18)
(0.101321 4.09112e-18 5.04366e-17)
(0.11221 6.57637e-19 -1.78524e-18)
(0.11221 4.47399e-18 5.29877e-17)
(0.123607 3.08255e-19 -9.08403e-19)
(0.123607 4.97619e-18 5.54738e-17)
(0.135532 -3.37599e-19 9.82278e-20)
(0.135532 5.88627e-18 5.79368e-17)
(0.148009 -1.05079e-18 1.26259e-18)
(0.148009 7.08382e-18 6.03505e-17)
(0.161058 -2.1035e-18 2.62067e-18)
(0.161058 8.03302e-18 6.26935e-17)
(0.174702 -3.15579e-18 4.16473e-18)
(0.174702 8.38937e-18 6.49114e-17)
(0.188959 -4.07758e-18 5.91602e-18)
(0.188959 8.5626e-18 6.69594e-17)
(0.203848 -5.66074e-18 7.9119e-18)
(0.203848 8.98913e-18 6.88385e-17)
(0.219381 -8.19824e-18 9.96343e-18)
(0.219381 9.9233e-18 7.05235e-17)
(0.235566 -1.07715e-17 1.2081e-17)
(0.235566 1.13483e-17 7.20242e-17)
(0.252402 -1.32792e-17 1.42076e-17)
(0.252402 1.31603e-17 7.33507e-17)
(0.269879 -1.51525e-17 1.63001e-17)
(0.269879 1.36713e-17 7.4299e-17)
(0.287972 -1.64363e-17 1.8457e-17)
(0.287972 1.33174e-17 7.47288e-17)
(0.306642 -1.74273e-17 2.06456e-17)
(0.306642 1.28423e-17 7.44962e-17)
(0.325834 -1.87503e-17 2.28688e-17)
(0.325834 1.39466e-17 7.35118e-17)
(0.345474 -2.32493e-17 2.4947e-17)
(0.345474 1.56793e-17 7.20429e-17)
(0.365473 -2.82985e-17 2.66392e-17)
(0.365473 1.61449e-17 7.00208e-17)
(0.385731 -3.13965e-17 2.82235e-17)
(0.385731 1.5004e-17 6.68788e-17)
(0.406137 -3.53211e-17 2.97048e-17)
(0.406137 1.13419e-17 6.2799e-17)
(0.426579 -3.96038e-17 3.12571e-17)
(0.426579 9.41817e-18 5.77656e-17)
(0.446951 -4.26875e-17 3.25716e-17)
(0.446951 7.04055e-18 5.18192e-17)
(0.467152 -4.93702e-17 3.41859e-17)
(0.467152 6.25153e-18 4.47187e-17)
(0.487098 -5.91508e-17 3.46103e-17)
(0.487098 8.78825e-18 3.75992e-17)
(0.506717 -6.15489e-17 3.34933e-17)
(0.506717 8.73483e-18 3.0512e-17)
(0.525954 -5.40607e-17 3.26373e-17)
(0.525954 6.86748e-18 2.26282e-17)
(0.544768 -5.1881e-17 3.35888e-17)
(0.544768 3.95154e-18 1.38031e-17)
(0.563135 -5.65648e-17 3.2799e-17)
(0.563135 4.466e-18 5.32825e-18)
(0.581038 -5.83561e-17 3.03915e-17)
(0.581038 7.19656e-18 -1.75194e-18)
(0.598472 -6.05562e-17 2.85499e-17)
(0.598472 3.34956e-18 -9.0813e-18)
(0.61544 -6.6534e-17 2.64443e-17)
(0.61544 -5.36223e-18 -1.57183e-17)
(0.631949 -7.44669e-17 2.47609e-17)
(0.631949 -9.77563e-18 -2.15881e-17)
(0.648011 -7.83789e-17 2.38461e-17)
(0.648011 -1.92198e-17 -2.77608e-17)
(0.663641 -8.42407e-17 2.28453e-17)
(0.663641 -2.16039e-17 -1.60895e-17)
(0.678855 -9.70978e-17 2.0928e-17)
(0.678855 -2.10112e-17 -4.76367e-18)
(0.69367 -1.0211e-16 1.63981e-17)
(0.69367 -2.94488e-17 -3.00904e-18)
(0.708105 -1.02845e-16 1.08427e-17)
(0.708105 -3.23608e-17 -8.115e-19)
(0.722177 -1.05878e-16 5.48908e-18)
(0.722177 -3.12345e-17 -1.90639e-18)
(0.735904 -1.04644e-16 -2.43817e-18)
(0.735904 -3.47766e-17 -3.48575e-18)
(0.749302 -1.08438e-16 -7.19512e-18)
(0.749302 -5.81921e-17 -5.43064e-18)
(0.762388 -1.13386e-16 -1.03503e-17)
(0.762388 -6.93488e-17 -5.26394e-18)
(0.775177 -1.16531e-16 -1.04174e-17)
(0.775177 -7.77315e-17 -4.53162e-18)
(0.787683 -1.18104e-16 -7.69037e-18)
(0.787683 -1.0023e-16 6.93896e-19)
(0.79992 -1.16594e-16 6.73695e-19)
(0.79992 -9.65106e-17 -1.22335e-18)
(0.811902 -1.15391e-16 4.30157e-18)
(0.811902 -9.79909e-17 -6.7326e-18)
(0.823639 -1.1331e-16 1.33221e-17)
(0.823639 -9.93948e-17 -8.42919e-18)
(0.835143 -1.16086e-16 1.81859e-17)
(0.835143 -1.11888e-16 4.61759e-18)
(0.846423 -1.25166e-16 2.08412e-17)
(0.846423 -1.05991e-16 7.19937e-18)
(0.857491 -1.28487e-16 1.58987e-17)
(0.857491 -9.60178e-17 6.62696e-19)
(0.868354 -1.47484e-16 2.36393e-17)
(0.868354 -1.27375e-16 -1.67819e-17)
(0.87902 -1.80781e-16 2.36855e-17)
(0.87902 -1.36686e-16 -1.9904e-18)
(0.889496 -1.9787e-16 1.36365e-17)
(0.889496 -1.56232e-16 1.26472e-17)
(0.89979 -2.09257e-16 -6.93003e-18)
(0.89979 -1.51069e-16 5.00079e-19)
(0.909907 -2.09467e-16 -3.77883e-17)
(0.909907 -1.46439e-16 -7.97388e-18)
(0.919853 -2.31558e-16 -1.30025e-17)
(0.919853 -1.71542e-16 2.46875e-18)
(0.929632 -1.94515e-16 2.98884e-17)
(0.929632 -1.61877e-16 2.28864e-17)
(0.939249 -1.95399e-16 4.03849e-18)
(0.939249 -1.71023e-16 2.44998e-17)
(0.948708 -2.03524e-16 -2.03159e-17)
(0.948708 -1.97519e-16 2.59343e-17)
(0.958012 -2.16966e-16 4.74135e-18)
(0.958012 -2.04642e-16 1.72722e-17)
(0.967164 -2.12891e-16 5.57697e-17)
(0.967164 -2.1798e-16 2.44277e-18)
(0.976166 -2.38862e-16 1.66132e-17)
(0.976166 -2.26837e-16 -6.19505e-19)
(0.985019 -2.8267e-16 -5.00498e-17)
(0.985019 -2.44577e-16 8.69294e-19)
(0.993726 -3.61519e-16 -4.3529e-17)
(0.993726 -2.75841e-16 2.50444e-17)
(1.00229 -2.48218e-16 2.86528e-17)
(1.00229 -2.87996e-16 -3.03201e-17)
(1.0107 -2.50606e-16 -1.12861e-17)
(1.0107 -3.01765e-16 -1.59488e-17)
(1.01897 -2.66274e-16 -1.06554e-17)
(1.01897 -2.98783e-16 -7.71926e-17)
(1.02709 -3.17266e-16 1.78693e-17)
(1.02709 -3.26332e-16 -7.20987e-17)
(1.03506 -3.81705e-16 1.07473e-17)
(1.03506 -3.73694e-16 1.36975e-17)
(1.04288 -4.74778e-16 -7.4565e-18)
(1.04288 -3.68206e-16 3.56991e-17)
(1.05054 -4.65985e-16 2.26644e-17)
(1.05054 -3.82938e-16 -6.86185e-17)
(1.05804 -4.41608e-16 8.52157e-18)
(1.05804 -4.3513e-16 -4.80575e-17)
(1.06538 -4.27417e-16 -4.08993e-17)
(1.06538 -4.32245e-16 -8.1466e-18)
(1.07254 -4.00463e-16 -5.0184e-17)
(1.07254 -4.01336e-16 -8.38243e-17)
(1.07953 -3.77244e-16 -2.59141e-17)
(1.07953 -3.68051e-16 -7.91727e-17)
(1.08632 -3.99778e-16 -1.07008e-16)
(1.08632 -3.45251e-16 6.98123e-17)
(1.09291 -3.26248e-16 -5.61389e-18)
(1.09291 -3.46404e-16 -4.28544e-17)
(1.09929 -2.99325e-16 -5.3287e-17)
(1.09929 -3.16336e-16 -2.34723e-17)
(1.10542 -2.80321e-16 6.56165e-17)
(1.10542 -3.37905e-16 4.02527e-17)
(1.1113 -2.85668e-16 1.15845e-16)
(1.1113 -3.12345e-16 1.50046e-16)
(1.1169 -4.17621e-16 1.03012e-16)
(1.1169 -4.01315e-16 4.80503e-17)
(1.12218 -3.46699e-16 -2.89784e-17)
(1.12218 -3.0657e-16 5.06863e-18)
(1.1271 -2.94233e-16 4.21782e-17)
(1.1271 -3.07614e-16 3.73247e-17)
(1.13161 -3.16651e-16 2.23382e-17)
(1.13161 -3.33921e-16 2.28338e-17)
(1.13564 -3.013e-16 -1.13101e-17)
(1.13564 -3.21634e-16 4.49687e-17)
(1.13911 -2.33505e-16 7.23701e-17)
(1.13911 -2.39995e-16 3.89844e-17)
(1.14193 -2.60437e-16 6.53446e-17)
(1.14193 -2.82577e-16 4.08006e-17)
(1.14395 -3.17605e-16 1.91806e-16)
(1.14395 -3.10783e-16 -1.19095e-17)
(1.14504 -2.22635e-16 8.30521e-17)
(1.14504 -2.53685e-16 5.69304e-18)
(1.14504 -1.08013e-16 -4.51915e-17)
(1.14504 -1.09731e-16 5.03932e-17)
(1.14395 -6.93999e-17 -2.47622e-17)
(1.14395 -1.0722e-16 -1.05255e-17)
(1.14193 -1.28928e-16 -1.06053e-16)
(1.14193 -1.31871e-16 -1.8861e-30)
(1.13911 -7.46025e-17 9.71003e-17)
(1.13911 -1.37041e-16 5.91195e-17)
(1.13564 -1.77977e-16 -1.03582e-16)
(1.13564 -1.19849e-16 3.1733e-17)
(1.13161 -1.23917e-16 1.29608e-17)
(1.13161 -1.85017e-16 -8.21726e-17)
(1.1271 -1.8755e-16 -1.40212e-18)
(1.1271 -2.45788e-16 -9.89875e-18)
(1.12218 -2.07833e-16 5.4265e-18)
(1.12218 -2.38181e-16 -1.6258e-17)
(1.1169 -2.00991e-16 3.13896e-17)
(1.1169 -1.99925e-16 -2.9189e-17)
(1.1113 -2.01755e-16 2.55048e-17)
(1.1113 -2.07439e-16 2.96e-17)
(1.10542 -2.19224e-16 -8.05375e-18)
(1.10542 -1.91849e-16 -2.27995e-17)
(1.09929 -2.1446e-16 -9.61113e-17)
(1.09929 -2.17644e-16 -9.89592e-17)
(1.09291 -2.13925e-16 -4.22327e-17)
(1.09291 -2.01508e-16 -4.11254e-17)
(1.08632 -1.81163e-16 -7.82157e-17)
(1.08632 -2.4073e-16 -4.03157e-17)
(1.07953 -1.70483e-16 -1.34525e-16)
(1.07953 -1.19531e-16 7.92124e-19)
(1.07254 -1.25423e-16 -4.71528e-17)
(1.07254 -1.67226e-16 5.02056e-17)
(1.06538 -1.33891e-16 -2.4355e-17)
(1.06538 -1.35641e-16 5.874e-18)
(1.05804 -9.90292e-17 1.47598e-17)
(1.05804 -1.11547e-16 -5.68051e-17)
(1.05054 -5.89689e-17 -4.20915e-17)
(1.05054 -1.17058e-16 2.29303e-17)
(1.04288 -1.12574e-16 2.4239e-17)
(1.04288 -1.07345e-16 8.15546e-17)
(1.03506 -1.05182e-16 1.71782e-18)
(1.03506 -7.38104e-17 1.17109e-17)
(1.02709 -9.16752e-17 -4.66061e-18)
(1.02709 -1.05584e-16 -6.79026e-17)
(1.01897 -1.23736e-16 -3.41951e-17)
(1.01897 -9.07136e-17 -5.88275e-17)
(1.0107 -1.09867e-16 -1.44928e-17)
(1.0107 -1.11993e-16 1.74729e-17)
(1.00229 -9.46264e-17 7.54205e-18)
(1.00229 -6.70484e-17 7.13169e-17)
(0.993726 -6.2214e-17 2.64094e-17)
(0.993726 -5.51964e-17 3.67493e-17)
(0.985019 -7.19365e-17 6.11833e-18)
(0.985019 -7.88971e-17 5.86002e-19)
(0.976166 -9.22214e-17 -1.3149e-17)
(0.976166 -7.88789e-17 -2.07318e-17)
(0.967164 -7.88269e-17 8.2794e-18)
(0.967164 -7.39241e-17 -2.89897e-17)
(0.958012 -7.37529e-17 -1.13394e-17)
(0.958012 -5.6218e-17 5.98604e-18)
(0.948708 -4.51813e-17 1.19103e-19)
(0.948708 -6.32902e-17 9.43757e-18)
(0.939249 -5.77558e-17 -1.50088e-17)
(0.939249 -7.18563e-17 -4.24765e-18)
(0.929632 -5.6671e-17 -2.00863e-17)
(0.929632 -5.24948e-17 -1.12122e-17)
(0.919853 -6.64467e-17 -2.45718e-17)
(0.919853 -4.32035e-17 -1.37936e-17)
(0.909907 -7.13147e-17 -1.81456e-17)
(0.909907 -4.8097e-17 -3.17556e-18)
(0.89979 -5.81429e-17 -1.41019e-17)
(0.89979 -3.21852e-17 -3.96515e-19)
(0.889496 -5.52827e-17 -2.78265e-18)
(0.889496 -3.7473e-17 -9.21179e-18)
(0.87902 -5.05489e-17 6.06997e-18)
(0.87902 -2.30148e-17 -2.34145e-17)
(0.868354 -3.72091e-17 7.61747e-18)
(0.868354 -2.31608e-17 -2.14825e-17)
(0.857491 -3.27819e-17 4.2332e-18)
(0.857491 -3.89139e-17 -8.95571e-18)
(0.846423 -2.4403e-17 -4.05959e-20)
(0.846423 -2.31476e-17 -2.01684e-18)
(0.835143 -2.97649e-17 -1.81673e-19)
(0.835143 -2.26077e-17 7.86217e-18)
(0.823639 -2.31769e-17 -1.04108e-18)
(0.823639 -2.65258e-17 1.19804e-17)
(0.811902 -1.80859e-17 -4.26206e-18)
(0.811902 -3.50275e-17 1.4914e-17)
(0.79992 -2.16688e-17 -5.55878e-19)
(0.79992 -2.52503e-17 1.11758e-17)
(0.787683 -2.20443e-17 3.90005e-19)
(0.787683 -7.77696e-18 5.97799e-18)
(0.775177 -2.84367e-17 -8.53806e-19)
(0.775177 -3.00467e-18 -8.55728e-19)
(0.762388 -1.43785e-17 1.75651e-18)
(0.762388 -2.40167e-17 -7.85708e-18)
(0.749302 -1.89096e-17 1.76463e-18)
(0.749302 -8.29571e-18 -1.09172e-17)
(0.735904 6.922e-18 -1.29511e-18)
(0.735904 -4.48295e-18 -1.48448e-17)
(0.722177 -1.26375e-18 2.97474e-18)
(0.722177 -9.67413e-18 -1.94249e-17)
(0.708105 5.76976e-18 3.88743e-18)
(0.708105 -1.68711e-18 -2.19031e-17)
(0.69367 6.48434e-18 4.6214e-18)
(0.69367 -2.79206e-18 -2.2554e-17)
(0.678855 6.54205e-18 4.51696e-18)
(0.678855 -6.18367e-18 -1.91675e-17)
(0.663641 3.92969e-18 4.25832e-18)
(0.663641 -5.82559e-18 -1.48573e-17)
(0.648011 2.30516e-18 3.17087e-18)
(0.648011 -2.67825e-18 -1.22727e-17)
(0.631949 5.10908e-18 1.28789e-18)
(0.631949 -7.896e-18 -9.96623e-18)
(0.61544 5.59777e-18 -1.07774e-18)
(0.61544 -5.16272e-18 -8.41442e-18)
(0.598472 -6.15743e-18 -3.44639e-18)
(0.598472 -2.23807e-18 -7.08053e-18)
(0.581038 -3.62534e-18 -4.42703e-18)
(0.581038 -3.79562e-18 -5.44764e-18)
(0.563135 -4.91774e-18 -5.1756e-18)
(0.563135 -3.63212e-18 -5.1922e-18)
(0.544768 -1.37587e-18 -5.66107e-18)
(0.544768 -4.23631e-18 -4.79782e-18)
(0.525954 2.36699e-19 -6.30603e-18)
(0.525954 -3.65408e-18 -4.83383e-18)
(0.506717 -1.05028e-18 -6.76641e-18)
(0.506717 -2.99126e-18 -4.54728e-18)
(0.487098 -1.93686e-18 -6.6987e-18)
(0.487098 -5.37005e-18 -4.12075e-18)
(0.467152 -6.46169e-18 -6.40079e-18)
(0.467152 -7.32371e-18 -4.00591e-18)
(0.446951 -3.46429e-18 -5.89302e-18)
(0.446951 -6.28598e-18 -3.67567e-18)
(0.426579 -4.97726e-18 -5.5072e-18)
(0.426579 -5.48134e-18 -2.97844e-18)
(0.406137 -4.76843e-18 -5.07933e-18)
(0.406137 -4.79857e-18 -2.59555e-18)
(0.385731 -4.64869e-18 -4.67465e-18)
(0.385731 -3.60717e-18 -2.48923e-18)
(0.365473 -4.8447e-18 -4.59611e-18)
(0.365473 -3.8026e-18 -2.43213e-18)
(0.345474 -6.06821e-18 -4.45114e-18)
(0.345474 -2.89812e-18 -2.30787e-18)
(0.325834 -4.98852e-18 -4.25764e-18)
(0.325834 -2.55966e-18 -2.04049e-18)
(0.306642 -4.89739e-18 -4.04082e-18)
(0.306642 -2.33393e-18 -2.00056e-18)
(0.287972 -4.51353e-18 -3.84556e-18)
(0.287972 -1.67924e-18 -1.83277e-18)
(0.269879 -4.29118e-18 -3.67843e-18)
(0.269879 -2.17425e-18 -1.67155e-18)
(0.252402 -2.84874e-18 -3.38756e-18)
(0.252402 -1.3331e-18 -1.65367e-18)
(0.235566 -2.84235e-18 -3.11851e-18)
(0.235566 -5.84824e-19 -1.62789e-18)
(0.219381 -1.61748e-18 -2.92906e-18)
(0.219381 -1.0262e-18 -1.54445e-18)
(0.203848 -1.1047e-18 -2.79277e-18)
(0.203848 -9.13086e-19 -1.42329e-18)
(0.188959 -8.23143e-19 -2.57846e-18)
(0.188959 -9.7192e-19 -1.3251e-18)
(0.174702 -6.02759e-19 -2.39109e-18)
(0.174702 -1.20642e-18 -1.22753e-18)
(0.161058 -8.01114e-19 -2.20095e-18)
(0.161058 -7.52013e-19 -1.11809e-18)
(0.148009 -6.25313e-19 -2.00238e-18)
(0.148009 -2.3665e-19 -1.00242e-18)
(0.135532 -5.40949e-19 -1.81794e-18)
(0.135532 -1.81783e-19 -9.29093e-19)
(0.123607 -4.04425e-19 -1.64317e-18)
(0.123607 -1.63974e-19 -8.64813e-19)
(0.11221 -3.03618e-19 -1.47885e-18)
(0.11221 -1.13798e-19 -7.97484e-19)
(0.101321 -2.2982e-19 -1.32445e-18)
(0.101321 -6.43654e-20 -7.46257e-19)
(0.0909168 -1.65765e-19 -1.18858e-18)
(0.0909168 8.4013e-20 -6.95636e-19)
(0.0809773 -1.3735e-19 -1.07252e-18)
(0.0809773 -5.42222e-20 -6.47374e-19)
(0.0714823 -1.32387e-19 -9.71906e-19)
(0.0714823 -6.4713e-20 -6.02826e-19)
(0.0624123 4.23242e-20 -8.77371e-19)
(0.0624123 1.67314e-22 -5.58609e-19)
(0.0537487 4.77376e-20 -7.98694e-19)
(0.0537487 -1.36452e-19 -5.1248e-19)
(0.0454735 8.20465e-20 -7.3135e-19)
(0.0454735 -1.85777e-19 -4.70135e-19)
(0.0375697 -4.96049e-20 -6.68733e-19)
(0.0375697 -9.10322e-20 -4.28383e-19)
(0.0300207 -3.85344e-21 -6.1178e-19)
(0.0300207 -2.45633e-20 -3.93485e-19)
(0.0228108 1.42561e-20 -5.58555e-19)
(0.0228108 -2.95964e-20 -3.60616e-19)
(0.015925 2.67928e-21 -5.09902e-19)
(0.015925 -7.15524e-21 -3.30014e-19)
(0.00934882 -8.26854e-21 -4.64972e-19)
(0.00934882 1.04237e-20 -3.01889e-19)
(0.00306853 -1.27831e-21 -2.23443e-19)
(0.00306853 -4.7764e-21 -1.70292e-19)
(1.14504 -2.19224e-16 3.1499e-17)
(1.14504 -2.01665e-16 9.51069e-17)
(1.14395 -1.55413e-16 1.47357e-17)
(1.14395 -1.08361e-16 -6.67792e-17)
(1.14193 -1.2295e-16 -1.34038e-16)
(1.14193 -1.16161e-16 -1.58189e-17)
(1.13911 -1.12992e-16 1.38008e-16)
(1.13911 -1.2155e-16 -1.71217e-17)
(1.13564 -1.37885e-16 -5.48235e-17)
(1.13564 -1.11581e-16 3.45775e-17)
(1.13161 -1.47939e-16 1.29022e-16)
(1.13161 -1.93437e-16 3.20704e-17)
(1.1271 -1.8402e-16 1.63099e-17)
(1.1271 -2.10546e-16 4.30706e-17)
(1.12218 -1.58832e-16 8.13261e-17)
(1.12218 -1.59532e-16 -5.4146e-18)
(1.1169 -2.13675e-16 -2.90421e-17)
(1.1169 -2.08381e-16 -7.67831e-18)
(1.1113 -1.99579e-16 1.74579e-17)
(1.1113 -1.91451e-16 2.36858e-17)
(1.10542 -2.23746e-16 7.43951e-17)
(1.10542 -1.93471e-16 7.93755e-17)
(1.09929 -2.26362e-16 3.69861e-17)
(1.09929 -2.49122e-16 5.98956e-17)
(1.09291 -1.82772e-16 7.25378e-17)
(1.09291 -2.47487e-16 -7.42366e-18)
(1.08632 -1.90475e-16 3.79904e-17)
(1.08632 -2.06739e-16 1.0767e-17)
(1.07953 -1.98926e-16 3.72425e-17)
(1.07953 -1.156e-16 1.31236e-16)
(1.07254 -1.82076e-16 6.30274e-17)
(1.07254 -1.47221e-16 6.1929e-17)
(1.06538 -1.67177e-16 -2.69036e-17)
(1.06538 -1.50131e-16 2.69089e-17)
(1.05804 -1.08819e-16 -6.31416e-17)
(1.05804 -1.34557e-16 -2.50866e-17)
(1.05054 -1.04785e-16 -3.55294e-17)
(1.05054 -1.46635e-16 1.0366e-17)
(1.04288 -1.13649e-16 1.12678e-17)
(1.04288 -1.55183e-16 3.05693e-17)
(1.03506 -1.50904e-16 5.1337e-17)
(1.03506 -1.35671e-16 3.56194e-17)
(1.02709 -1.49946e-16 3.30193e-17)
(1.02709 -1.35738e-16 -1.16006e-17)
(1.01897 -1.4768e-16 8.94879e-18)
(1.01897 -1.16973e-16 5.69663e-18)
(1.0107 -1.35976e-16 1.97192e-17)
(1.0107 -1.06777e-16 3.64551e-17)
(1.00229 -1.06217e-16 -2.60479e-17)
(1.00229 -7.4696e-17 2.44355e-17)
(0.993726 -9.05638e-17 -3.6445e-17)
(0.993726 -7.6987e-17 -3.31866e-17)
(0.985019 -1.00032e-16 5.91773e-18)
(0.985019 -9.99722e-17 -5.32541e-18)
(0.976166 -9.57814e-17 3.55398e-17)
(0.976166 -1.11138e-16 7.57836e-19)
(0.967164 -4.96655e-17 1.10782e-17)
(0.967164 -8.30858e-17 6.48363e-18)
(0.958012 -7.27987e-17 -6.43781e-18)
(0.958012 -6.93763e-17 2.41897e-17)
(0.948708 -6.39506e-17 2.29357e-17)
(0.948708 -7.2349e-17 4.43091e-18)
(0.939249 -2.23441e-17 3.0979e-18)
(0.939249 -7.07372e-17 -6.72881e-19)
(0.929632 -4.05052e-17 -1.98722e-18)
(0.929632 -4.99428e-17 1.24682e-17)
(0.919853 -3.36506e-17 8.72844e-18)
(0.919853 -2.21652e-17 8.47149e-46)
(0.909907 -2.55068e-17 3.28676e-18)
(0.909907 -3.40159e-17 2.37322e-18)
(0.89979 -1.35505e-17 3.69236e-18)
(0.89979 -3.13543e-17 7.87526e-18)
(0.889496 -1.65862e-17 1.92489e-17)
(0.889496 -4.86329e-17 6.6973e-18)
(0.87902 -2.92224e-17 2.89119e-17)
(0.87902 -4.94694e-17 1.27554e-45)
(0.868354 -3.13912e-17 1.89727e-17)
(0.868354 -2.31932e-17 7.45921e-18)
(0.857491 -3.13477e-17 5.6535e-18)
(0.857491 -1.98875e-17 6.38551e-18)
(0.846423 -2.95206e-17 -4.08126e-18)
(0.846423 -1.22745e-17 -6.74988e-18)
(0.835143 -2.19775e-17 -9.82569e-18)
(0.835143 -1.01619e-17 -3.56503e-18)
(0.823639 -1.31808e-17 -9.77241e-18)
(0.823639 -3.16442e-17 -9.78065e-19)
(0.811902 -1.3764e-17 -8.35328e-18)
(0.811902 -2.2521e-17 7.00344e-19)
(0.79992 -1.33678e-17 -5.63434e-18)
(0.79992 -2.2239e-17 -2.88711e-20)
(0.787683 -2.62382e-17 -2.88971e-19)
(0.787683 -3.36065e-17 -1.46016e-18)
(0.775177 -3.7242e-17 1.12224e-18)
(0.775177 -2.56654e-17 1.78138e-18)
(0.762388 -4.15225e-17 7.56925e-19)
(0.762388 -2.66362e-17 -5.74887e-31)
(0.749302 -3.15433e-17 1.65597e-18)
(0.749302 -3.91938e-17 -1.32508e-18)
(0.735904 -2.28143e-17 5.1579e-18)
(0.735904 -3.20079e-17 4.60193e-18)
(0.722177 -1.66847e-17 1.24789e-17)
(0.722177 -3.91481e-17 2.24695e-18)
(0.708105 -1.61551e-17 1.68683e-17)
(0.708105 -3.1355e-17 1.63628e-19)
(0.69367 -2.19202e-17 1.92919e-17)
(0.69367 -1.68868e-17 -2.12341e-18)
(0.678855 -2.47305e-17 1.7082e-17)
(0.678855 -7.54467e-18 -1.39363e-18)
(0.663641 -2.60771e-17 1.39102e-17)
(0.663641 3.42516e-18 7.86201e-19)
(0.648011 -2.72276e-17 1.13343e-17)
(0.648011 -1.02405e-18 1.45143e-18)
(0.631949 -2.36561e-17 8.53974e-18)
(0.631949 -8.92658e-20 1.77824e-18)
(0.61544 -1.93826e-17 6.04607e-18)
(0.61544 -1.33503e-18 4.18091e-19)
(0.598472 -1.53624e-17 4.10331e-18)
(0.598472 -2.14978e-18 3.36636e-19)
(0.581038 -1.4043e-17 2.09289e-18)
(0.581038 -2.85514e-18 5.28037e-19)
(0.563135 -1.067e-17 6.71937e-19)
(0.563135 -5.89813e-18 7.24879e-19)
(0.544768 -6.85022e-18 -2.37066e-19)
(0.544768 -5.38079e-18 3.0193e-19)
(0.525954 -6.23175e-18 -3.5873e-19)
(0.525954 -5.35004e-18 -4.69066e-19)
(0.506717 -4.77864e-18 -3.17482e-19)
(0.506717 -2.30629e-18 -3.23613e-19)
(0.487098 -2.01035e-18 -5.93526e-19)
(0.487098 -1.17291e-18 4.09542e-19)
(0.467152 -4.85567e-19 -4.4263e-19)
(0.467152 5.59007e-19 5.86546e-19)
(0.446951 1.84082e-19 -3.32298e-19)
(0.446951 -1.81303e-18 6.08836e-19)
(0.426579 -1.61032e-18 -2.79346e-19)
(0.426579 9.54685e-19 3.96078e-19)
(0.406137 -1.70348e-18 -1.71687e-19)
(0.406137 -4.58547e-18 3.36755e-31)
(0.385731 -1.98463e-18 6.34461e-20)
(0.385731 -1.76776e-18 -1.0638e-20)
(0.365473 -4.26431e-18 8.23275e-20)
(0.365473 -1.85837e-18 -6.33296e-20)
(0.345474 -4.46628e-18 -3.08307e-20)
(0.345474 -1.1594e-18 -1.50504e-19)
(0.325834 -4.15135e-18 -1.69153e-19)
(0.325834 -1.65866e-18 2.94098e-31)
(0.306642 -3.6533e-18 -2.03432e-19)
(0.306642 -9.35525e-19 4.18964e-20)
(0.287972 -3.09275e-18 -2.97784e-19)
(0.287972 -8.48517e-19 1.09164e-19)
(0.269879 -2.0989e-18 -3.59337e-19)
(0.269879 -1.074e-18 8.05896e-20)
(0.252402 -1.11088e-18 -1.9287e-19)
(0.252402 6.44034e-19 1.4913e-22)
(0.235566 -9.09918e-19 -1.08341e-19)
(0.235566 2.77255e-21 -1.64595e-20)
(0.219381 -1.21051e-18 -7.69697e-20)
(0.219381 -5.92609e-19 -6.95392e-21)
(0.203848 -8.63512e-19 -9.02461e-20)
(0.203848 -3.38295e-19 4.70591e-20)
(0.188959 -5.96126e-19 -1.97585e-20)
(0.188959 -6.06232e-19 1.99979e-20)
(0.174702 -5.79242e-19 2.71556e-20)
(0.174702 -4.1089e-19 4.83524e-21)
(0.161058 -5.06287e-19 6.74781e-20)
(0.161058 2.10471e-19 -1.16984e-31)
(0.148009 -6.65437e-19 9.4311e-20)
(0.148009 -1.11287e-19 -8.17286e-21)
(0.135532 -5.42697e-19 1.18267e-19)
(0.135532 4.42244e-20 -1.30976e-20)
(0.123607 -3.62821e-19 1.34985e-19)
(0.123607 8.30969e-20 -8.55997e-21)
(0.11221 3.86331e-20 1.62252e-19)
(0.11221 2.8416e-20 1.00392e-20)
(0.101321 2.99242e-19 1.88482e-19)
(0.101321 9.28434e-20 -4.39239e-21)
(0.0909168 2.49412e-19 2.0144e-19)
(0.0909168 -1.96862e-19 -1.20274e-20)
(0.0809773 2.43816e-19 2.07114e-19)
(0.0809773 -2.76614e-19 -9.65933e-21)
(0.0714823 3.72302e-19 2.11281e-19)
(0.0714823 -1.92719e-19 8.18812e-21)
(0.0624123 3.31649e-19 2.17657e-19)
(0.0624123 -9.24891e-20 7.11641e-21)
(0.0537487 1.99582e-19 2.07255e-19)
(0.0537487 -4.7537e-20 2.01544e-21)
(0.0454735 1.48094e-19 1.9403e-19)
(0.0454735 4.26254e-21 -1.91817e-21)
(0.0375697 7.00707e-20 1.7874e-19)
(0.0375697 1.55663e-20 -1.96258e-21)
(0.0300207 2.89889e-20 1.63126e-19)
(0.0300207 2.35676e-20 -1.97057e-21)
(0.0228108 2.92569e-20 1.49718e-19)
(0.0228108 1.99805e-20 -1.35075e-21)
(0.015925 1.16089e-20 1.37407e-19)
(0.015925 1.66237e-20 -2.94105e-22)
(0.00934882 -5.60549e-21 1.25221e-19)
(0.00934882 7.17335e-21 2.42158e-22)
(0.00306853 2.66736e-21 7.50324e-20)
(0.00306853 8.02317e-22 4.4949e-33)
)
;

boundaryField
{
    walls
    {
        type            fixedValue;
        value           uniform (0 0 0);
    }
    inlet
    {
        type            cyclic;
    }
    outlet
    {
        type            cyclic;
    }
    sides
    {
        type            empty;
    }
}

