/*--------------------------------*- C++ -*----------------------------------*\
| =========                 |                                                 |
| \\      /  F ield         | OpenFOAM: The Open Source CFD Toolbox           |
|  \\    /   O peration     | Version:  2106                                  |
|   \\  /    A nd           | Website:  www.openfoam.com                      |
|    \\/     M anipulation  |                                                 |
\*---------------------------------------------------------------------------*/
FoamFile
{
    version     2.0;
    format      ascii;
    arch        "LSB;label=32;scalar=64";
    class       volTensorField;
    location    "10070";
    object      grad(U);
}
// * * * * * * * * * * * * * * * * * * * * * * * * * * * * * * * * * * * * * //

dimensions      [0 0 -1 0 0 0 0];

internalField   nonuniform List<tensor> 
800
(
(0 -1.81685e-26 7.54725e-28 13.3705 -2.74789e-40 4.12202e-14 0.0613706 1.57772e-30 5.98209e-17)
(-1.15363e-17 9.18067e-30 -2.65821e-28 13.3705 1.61381e-15 3.56168e-14 0.0613706 1.20236e-18 6.15791e-17)
(0 5.97195e-29 5.44487e-28 13.3642 -5.2836e-13 4.83924e-14 0.186976 -1.24731e-15 4.6529e-16)
(0 -3.12978e-31 1.56489e-31 13.3642 3.68567e-15 2.74031e-14 0.186976 1.6436e-17 1.72462e-16)
(-5.97673e-18 -1.55538e-26 4.14244e-31 13.3576 2.01948e-28 2.59844e-14 0.275433 -3.15544e-30 5.84417e-16)
(4.78138e-17 9.5601e-30 -4.4813e-31 13.3576 4.65323e-15 6.18199e-15 0.275433 4.18028e-17 1.89759e-16)
(0 0 0 13.3507 3.02409e-13 2.91327e-14 0.288395 -1.19369e-14 6.46707e-16)
(0 0 0 13.3507 4.82013e-15 6.53397e-15 0.288395 7.0567e-17 2.09093e-16)
(3.52023e-17 -2.76214e-30 -4.86922e-32 13.3435 1.68863e-15 3.07544e-14 0.30196 -5.63194e-16 7.14814e-16)
(-7.66211e-17 6.5331e-30 -2.72213e-31 13.3435 4.77246e-15 6.90194e-15 0.30196 1.01183e-16 2.30733e-16)
(-1.46277e-16 1.45511e-29 -5.1968e-31 13.3359 -1.82442e-14 3.25578e-14 0.316154 -3.27265e-16 7.95294e-16)
(-9.53295e-17 -1.45651e-29 5.1968e-31 13.3359 4.63758e-15 7.28994e-15 0.316154 1.07652e-16 2.54951e-16)
(-8.02781e-17 3.65466e-30 -5.70255e-31 13.328 -1.06178e-14 3.45735e-14 0.331006 -1.84706e-16 8.84657e-16)
(0 0 2.4803e-31 13.328 4.51434e-15 7.70645e-15 0.331006 1.11522e-16 2.82002e-16)
(-1.0109e-16 1.67201e-30 3.83965e-31 13.3196 -7.61797e-15 3.66756e-14 0.346544 -2.03029e-16 9.82253e-16)
(0 1.89405e-30 -4.73513e-31 13.3196 4.49916e-15 8.14971e-15 0.346544 1.17358e-16 3.12298e-16)
(-1.2288e-16 5.28831e-30 -5.5885e-31 13.3108 -8.16833e-15 3.88491e-14 0.362799 -2.32726e-16 1.08943e-15)
(9.83044e-16 -1.67896e-30 4.51991e-31 13.3108 4.49994e-15 8.60781e-15 0.362799 1.22438e-16 3.46302e-16)
(7.28651e-16 -6.90316e-30 1.72579e-30 13.3015 -8.69576e-15 4.11073e-14 0.3798 -2.52954e-16 1.20703e-15)
(0 5.17737e-30 -8.62896e-31 13.3015 4.45373e-15 9.10484e-15 0.3798 1.2616e-16 3.84204e-16)
(2.31844e-16 -1.64735e-30 1.23551e-30 13.2916 -8.82418e-15 4.34519e-14 0.397579 -2.63102e-16 1.33597e-15)
(-6.78328e-16 1.54366e-30 -1.23551e-30 13.2916 4.35797e-15 9.65054e-15 0.397579 1.28644e-16 4.26807e-16)
(-1.9459e-16 6.40229e-30 -1.72941e-31 13.281 -8.67596e-15 4.5885e-14 0.416164 -2.68324e-16 1.47726e-15)
(3.35748e-16 1.24128e-31 0 13.281 4.2645e-15 1.02079e-14 0.416164 1.326e-16 4.74722e-16)
(0 6.00402e-30 -7.50503e-31 13.2694 -8.28815e-15 3.14057e-14 0.435584 -2.63282e-16 5.15198e-16)
(8.8309e-16 -4.34734e-30 7.50503e-31 13.2694 3.96356e-15 1.07959e-14 0.435584 1.21421e-16 5.28284e-16)
(-2.48183e-16 5.99655e-30 -2.53821e-30 13.2567 -7.79124e-15 1.34622e-14 0.455863 -2.60293e-16 3.86602e-16)
(0 -2.86556e-30 7.16391e-31 13.2567 3.47868e-15 1.14379e-14 0.455863 1.12164e-16 5.88356e-16)
(0 2.73532e-30 -1.36766e-30 13.2423 -7.62975e-15 1.12344e-14 0.477018 -2.7731e-16 4.04836e-16)
(0 0 0 13.2423 3.18488e-15 1.21052e-14 0.477018 1.12081e-16 6.55785e-16)
(0 2.611e-30 -1.3055e-30 13.2258 -7.51141e-15 1.52144e-14 0.499058 -2.76735e-16 7.24855e-16)
(-3.67465e-16 -2.611e-30 0 13.2258 2.86898e-15 1.27912e-14 0.499058 9.9243e-17 7.31594e-16)
(0 4.98464e-30 -1.24616e-30 13.2062 -7.16873e-15 2.82385e-14 0.521976 -2.77237e-16 1.4747e-15)
(0 -2.49232e-30 0 13.2062 2.71864e-15 1.35114e-14 0.521976 1.11115e-16 8.16296e-16)
(-7.42579e-16 8.1937e-30 -3.13933e-30 13.1824 -6.99653e-15 3.23141e-14 0.545744 -2.89444e-16 1.13332e-15)
(-1.48516e-15 -2.66845e-30 0 13.1824 2.57705e-15 1.42964e-14 0.545744 9.71834e-17 9.10861e-16)
(-2.33455e-16 5.08643e-30 -7.53217e-31 13.1528 -6.67704e-15 2.7132e-14 0.570302 -2.76527e-16 1.16853e-15)
(-3.246e-15 -5.18633e-30 0 13.1528 2.08053e-15 1.51242e-14 0.570302 7.88375e-17 1.01812e-15)
(-4.41819e-16 1.25718e-29 -3.62146e-30 13.1154 -6.10714e-15 2.69238e-14 0.595547 -2.65825e-16 1.22488e-15)
(0 -1.08385e-29 3.25154e-30 13.1154 1.42435e-15 1.58986e-14 0.595547 4.69702e-17 1.13902e-15)
(4.79566e-16 -7.94741e-30 1.39083e-30 13.0673 -5.556e-15 2.68513e-14 0.621322 -2.50967e-16 1.27554e-15)
(-1.91827e-15 5.8021e-30 -1.03458e-30 13.0673 1.53612e-16 1.67e-14 0.621322 3.57444e-18 1.27323e-15)
(5.55947e-16 -5.92537e-30 9.87561e-31 13.005 -4.97107e-15 2.66253e-14 0.647394 -2.33349e-16 1.32175e-15)
(2.07624e-15 8.31267e-30 -9.87561e-31 13.005 3.01747e-16 1.7459e-14 0.647394 2.63791e-17 1.42375e-15)
(-5.60368e-16 1.74338e-30 -3.2557e-31 12.9242 -5.27518e-15 2.61556e-14 0.673446 -3.07241e-16 1.35079e-15)
(6.72441e-15 1.25022e-30 0 12.9242 9.55729e-16 1.80016e-14 0.673446 7.23192e-17 1.59033e-15)
(1.01312e-15 -5.39897e-30 1.79966e-30 12.8196 -5.20472e-15 2.54891e-14 0.699061 -2.48381e-16 1.37759e-15)
(-1.01312e-15 7.19863e-30 0 12.8196 2.4902e-16 1.85995e-14 0.699061 6.66231e-18 1.76982e-15)
(0 1.71786e-30 0 12.6856 -3.58877e-15 2.43552e-14 0.72372 -1.51716e-16 1.35233e-15)
(0 -2.18953e-47 0 12.6856 -2.62719e-31 1.9253e-14 0.72372 1.97215e-31 1.96846e-15)
(6.95641e-16 1.5064e-30 2.81814e-31 12.5159 -2.95873e-15 2.25616e-14 0.746814 -1.96838e-16 1.29624e-15)
(0 -3.27956e-30 0 12.5159 -1.17631e-15 1.95655e-14 0.746814 5.25863e-17 2.19124e-15)
(0 -7.82625e-30 3.1305e-30 12.3046 -2.63566e-15 2.05568e-14 0.76767 -1.25809e-16 1.23164e-15)
(0 9.3915e-30 -3.1305e-30 12.3046 -2.31415e-15 1.9603e-14 0.76767 8.63573e-17 2.43217e-15)
(-7.95346e-16 1.4013e-45 -1.74889e-30 12.0468 1.80113e-30 1.83343e-14 0.785603 -1.57772e-30 1.1293e-15)
(2.34028e-15 -5.56386e-30 1.49411e-30 12.0468 -3.51209e-15 1.94439e-14 0.785603 2.42822e-16 2.68843e-15)
(-8.47863e-16 -6.76303e-30 4.03377e-30 11.7392 1.13073e-15 1.56929e-14 0.79998 -3.95123e-17 9.86544e-16)
(6.7829e-15 1.16846e-29 -4.27859e-30 11.7392 -4.42441e-15 1.90447e-14 0.79998 7.3495e-16 2.95879e-15)
(-6.30831e-16 -1.78016e-30 2.35857e-31 11.3808 1.8151e-15 1.27374e-14 0.810296 -1.14935e-16 8.11331e-16)
(0 -2.72275e-30 0 11.3808 -5.45145e-15 1.83676e-14 0.810296 9.48578e-16 3.24692e-15)
(0 -1.2995e-29 2.599e-30 10.9739 1.81452e-15 9.68622e-15 0.816233 -1.42487e-16 6.19768e-16)
(7.65874e-15 1.2995e-29 -2.599e-30 10.9739 -5.41661e-15 1.75062e-14 0.816233 8.86752e-16 3.54005e-15)
(1.01378e-15 -1.76695e-30 2.15685e-31 10.5235 1.63161e-15 6.62388e-15 0.817705 -1.26053e-16 4.03647e-16)
(4.0551e-15 0 0 10.5235 -5.1085e-15 1.65787e-14 0.817705 8.2454e-16 3.82588e-15)
(0 -7.10433e-30 2.36811e-30 10.0374 2.81252e-15 3.8454e-15 0.814862 -1.27304e-16 2.175e-16)
(0 9.47244e-30 -2.36811e-30 10.0374 -5.87021e-15 1.57421e-14 0.814862 7.58881e-16 4.11675e-15)
(-1.1284e-15 -5.06148e-30 4.00122e-30 9.52512 4.38059e-15 5.74523e-31 0.808065 -3.34998e-16 1.97215e-31)
(4.51358e-15 9.0419e-30 0 9.52512 -6.31393e-15 1.48331e-14 0.808065 6.73042e-16 4.42317e-15)
(-2.37178e-15 5.54721e-30 -2.90318e-31 8.99721 5.18068e-15 -7.79361e-17 0.797827 -4.13278e-16 3.47818e-18)
(4.74355e-15 -2.15773e-30 0 8.99721 -6.55086e-15 1.38516e-14 0.797827 5.90197e-16 4.7282e-15)
(-1.15949e-15 2.05966e-30 -2.05966e-30 8.46397 5.87959e-15 -2.39125e-15 0.784752 -5.13887e-16 1.59819e-16)
(0 0 -2.05966e-30 8.46397 -6.86298e-15 1.32369e-14 0.784752 4.76142e-16 5.04262e-15)
(-9.13935e-16 1.21347e-29 -5.8738e-30 7.9348 5.45768e-15 -3.57657e-15 0.769472 -5.8739e-16 2.90417e-16)
(5.19854e-15 -1.17963e-29 1.96605e-30 7.9348 -6.35944e-15 1.24381e-14 0.769472 3.56005e-16 5.38422e-15)
(3.46833e-15 -3.49252e-30 0 7.41763 4.70858e-15 -4.77633e-15 0.752589 -4.79362e-16 1.7967e-16)
(3.30853e-15 1.87669e-30 2.89145e-31 7.41763 -6.05672e-15 1.15902e-14 0.752589 1.92453e-16 5.18603e-15)
(1.41008e-15 -6.96217e-30 1.79139e-30 6.91865 5.04403e-15 -5.55814e-15 0.734649 -4.87247e-16 -9.67647e-17)
(5.64033e-15 3.58278e-30 1.42796e-30 6.91865 -6.0615e-15 1.13962e-14 0.734649 -3.57992e-18 3.42496e-15)
(1.46363e-15 1.87225e-30 0 6.44233 5.98719e-15 -6.37147e-15 0.716116 -5.99946e-16 -3.26197e-16)
(-1.92525e-15 -1.70997e-30 0 6.44233 -6.38225e-15 1.12701e-14 0.716116 -1.09534e-16 1.53755e-15)
(3.67549e-15 -4.89674e-30 3.26449e-30 5.99157 6.87678e-15 -6.7272e-15 0.697371 -7.52267e-16 -5.77692e-16)
(0 4.89674e-30 0 5.99157 -6.28983e-15 1.0909e-14 0.697371 -2.25618e-16 1.29766e-15)
(-3.13381e-15 7.57347e-30 0 5.56794 7.66817e-15 -6.75334e-15 0.678711 -8.73368e-16 -7.63135e-16)
(-1.75422e-15 -3.11612e-30 0 5.56794 -7.01531e-15 1.09798e-14 0.678711 -3.77974e-16 1.41963e-15)
(1.61654e-15 -1.39721e-30 0 5.17194 7.24441e-15 -7.55796e-15 0.660362 -1.02592e-15 -9.83469e-16)
(-6.46618e-15 0 -3.34717e-30 5.17194 -7.98922e-15 1.09556e-14 0.660362 -6.37548e-16 1.41776e-15)
(3.26322e-15 -4.23606e-30 0 4.80332 6.2687e-15 -7.55887e-15 0.642486 -8.46156e-16 -1.21827e-15)
(5.06101e-15 2.83929e-30 3.57561e-30 4.80332 -7.04941e-15 1.04323e-14 0.642486 -8.57124e-16 1.41266e-15)
(1.71183e-15 -1.37058e-30 0 4.46123 6.75474e-15 -7.28956e-15 0.625196 -8.54907e-16 -1.40032e-15)
(-6.84731e-15 0 -1.21247e-29 4.46123 -7.65275e-15 -4.58157e-30 0.625196 -1.09675e-15 0)
(-2.91276e-15 2.58705e-30 0 4.14449 7.6074e-15 -7.40013e-15 0.608561 -1.0701e-15 -1.56685e-15)
(0 0 -2.58705e-30 4.14449 -7.63625e-15 -8.85967e-15 0.608561 -1.42337e-15 1.19892e-15)
(-1.80196e-15 1.26077e-30 0 3.85165 6.91572e-15 -7.85358e-15 0.592624 -1.19821e-15 -1.73723e-15)
(-2.78037e-15 0 0 3.85165 -6.30345e-15 -9.69105e-15 0.592624 -1.69714e-15 1.44503e-15)
(0 -4.71445e-30 0 3.58118 6.3621e-15 -6.75565e-15 0.577398 -9.5352e-16 -1.96036e-15)
(0 2.35723e-30 2.35723e-30 3.58118 -5.95557e-15 -1.03425e-14 0.577398 -2.02519e-15 1.58135e-15)
(-3.77454e-15 6.92195e-30 0 3.3315 7.5832e-15 -5.84062e-15 0.562884 -1.12979e-15 -2.0294e-15)
(7.54908e-15 -4.50018e-30 3.00537e-30 3.3315 -6.26218e-15 -9.48791e-15 0.562884 -2.23263e-15 1.80391e-15)
(4.83646e-15 0 2.14782e-30 3.10105 8.1874e-15 -6.68066e-15 0.549067 -1.47451e-15 -2.19207e-15)
(-1.01312e-14 0 -3.038e-30 3.10105 -7.07025e-15 -7.59818e-15 0.549067 -2.51259e-15 1.43595e-15)
(1.62802e-15 -4.81206e-32 2.0502e-30 2.88831 8.03607e-15 -6.20631e-15 0.535926 -1.46182e-15 -2.31119e-15)
(1.0181e-14 -2.0502e-30 8.17519e-31 2.88831 -5.39035e-15 -5.84419e-15 0.535926 -2.82995e-15 1.28585e-15)
(0 1.95701e-30 -1.95701e-30 2.69187 7.06221e-15 -5.31178e-15 0.52343 -1.56006e-15 -2.41523e-15)
(8.02836e-15 1.95701e-30 4.78813e-30 2.69187 -3.22485e-15 -4.17135e-15 0.52343 -3.05054e-15 9.01189e-16)
(-2.10325e-15 5.60419e-30 3.73612e-30 2.51038 6.31036e-15 -3.03463e-15 0.51155 -1.21186e-15 -2.53765e-15)
(2.10325e-15 -5.60419e-30 -3.73612e-30 2.51038 -3.07572e-15 -4.20036e-15 0.51155 -3.18497e-15 7.37033e-16)
(0 7.13262e-30 3.56631e-30 2.34259 6.78408e-15 -8.55309e-16 0.50025 -1.39473e-15 -2.42637e-15)
(0 -7.13262e-30 -3.56631e-30 2.34259 -2.4729e-15 -4.44964e-15 0.50025 -3.3879e-15 1.0013e-15)
(0 1.70211e-30 0 2.18736 6.49069e-15 -1.34806e-15 0.489495 -1.53955e-15 -2.31715e-15)
(8.47331e-15 0 4.72609e-31 2.18736 -2.42941e-15 -4.27771e-15 0.489495 -3.64767e-15 9.1915e-16)
(4.30743e-15 -8.0514e-32 0 2.04363 5.75418e-15 -7.54619e-16 0.479251 -1.39476e-15 -2.24296e-15)
(0 -1.62475e-30 -1.62475e-30 2.04363 -1.76343e-15 -4.41686e-15 0.479251 -3.76683e-15 1.01926e-15)
(-2.18833e-15 -2.28692e-30 -3.1018e-30 1.91043 5.83111e-15 -6.38098e-16 0.469482 -1.33212e-15 -2.02658e-15)
(1.75066e-14 3.1018e-30 4.65849e-30 1.91043 5.59671e-16 -3.61396e-15 0.469482 -3.81817e-15 1.07631e-15)
(2.2222e-15 -7.26664e-31 0 1.78688 4.72263e-15 -1.46335e-15 0.460156 -1.56987e-15 -2.0503e-15)
(8.88879e-15 0 1.57562e-30 1.78688 -4.60903e-16 -2.81967e-15 0.460156 -3.72075e-15 7.10327e-16)
(9.26701e-16 -3.44896e-30 0 1.67218 2.55617e-15 -1.08489e-16 0.451239 -8.71438e-16 -1.9976e-15)
(0 4.23936e-30 1.41312e-30 1.67218 -7.13642e-16 -3.75528e-15 0.451239 -3.96763e-15 7.58079e-16)
(0 -1.34889e-30 0 1.5656 3.09986e-15 -2.6042e-16 0.4427 -5.13759e-16 -1.66948e-15)
(1.83029e-14 1.34889e-30 1.67563e-30 1.5656 5.60958e-16 -3.62601e-15 0.4427 -3.9392e-15 1.30178e-15)
(2.31972e-15 -1.93259e-30 0 1.46647 2.56301e-15 -2.04023e-15 0.434509 -1.2743e-15 -1.5406e-15)
(9.27886e-15 0 9.03828e-31 1.46647 -2.53365e-16 -1.60794e-15 0.434509 -4.08465e-15 7.56405e-16)
(0 -2.45812e-30 0 1.37418 5.13069e-16 -1.50299e-15 0.426639 -2.35001e-16 -1.55185e-15)
(9.40383e-15 0 1.14748e-30 1.37418 -4.20217e-16 -1.22864e-15 0.426639 -4.5002e-15 1.92527e-16)
(0 -3.32117e-31 0 1.28818 5.05943e-16 -1.37215e-15 0.41906 -8.3056e-17 -1.35333e-15)
(-9.52645e-15 0 -1.81219e-30 1.28818 1.18882e-15 -3.5446e-15 0.41906 -4.70849e-15 8.531e-16)
(4.93344e-15 -8.53836e-31 0 1.20798 1.60981e-15 -1.75096e-15 0.411749 -5.17235e-16 -1.35845e-15)
(7.12509e-15 0 0 1.20798 1.49601e-15 -5.69625e-15 0.411749 -4.6253e-15 1.3143e-15)
(2.44126e-15 1.31235e-30 0 1.13311 2.80109e-15 -1.01967e-15 0.404679 -5.91906e-16 -1.11741e-15)
(-2.40712e-15 0 -1.06897e-30 1.13311 -7.90417e-16 -4.63004e-15 0.404679 -4.55509e-15 4.20934e-17)
(-2.47029e-15 -1.39215e-30 1.02039e-30 1.06316 4.07963e-15 1.2802e-15 0.397828 -1.44662e-15 -1.11361e-15)
(2.206e-14 2.04077e-30 -1.02039e-30 1.06316 -9.44961e-16 -7.30806e-16 0.397828 -4.68177e-15 -4.78917e-16)
(-2.49882e-15 -1.38913e-30 4.12946e-31 0.997758 3.87893e-15 -4.93038e-31 0.391172 -1.63786e-15 -5.82299e-16)
(-9.99527e-15 2.98995e-30 0 0.997758 -4.1959e-16 1.00604e-15 0.391172 -3.07821e-15 -1.98593e-16)
(2.09359e-15 -1.85948e-30 9.29739e-31 0.936547 3.44622e-15 -1.15557e-15 0.38469 -1.42515e-15 -5.76735e-16)
(-2.09359e-15 1.85948e-30 -9.29739e-31 0.936547 5.88621e-16 1.37419e-15 0.38469 -1.28428e-15 -2.06765e-17)
(-5.10886e-15 9.45788e-31 -8.87481e-31 0.879215 2.29093e-15 3.56693e-16 0.37836 -1.43048e-15 -2.49017e-16)
(0 0 -1.75162e-46 0.879215 9.16662e-16 -1.11143e-31 0.37836 -8.85677e-16 1.21652e-46)
(-2.58155e-15 6.03631e-31 0 0.825473 9.47267e-16 9.5261e-16 0.372161 -5.37379e-16 7.29431e-17)
(-1.03262e-14 2.59795e-30 0 0.825473 -5.70663e-16 -1.00583e-15 0.372161 -4.12709e-16 5.37989e-17)
(0 0 0 0.775054 -3.22317e-17 -2.575e-31 0.366073 -6.42777e-16 0)
(-3.64179e-15 -6.39342e-45 -1.61728e-30 0.775054 5.71203e-30 -7.46381e-16 0.366073 -7.88861e-31 7.00501e-17)
(-5.2689e-15 -1.65056e-31 0 0.727715 -1.04537e-15 -2.30827e-15 0.360076 -6.85169e-16 -1.80842e-16)
(0 1.54377e-30 0 0.727715 -4.39487e-16 4.2956e-16 0.360076 -5.3991e-16 2.69452e-16)
(2.66026e-15 -6.96939e-31 0 0.683232 -1.38443e-15 -2.72607e-15 0.354148 -7.64172e-16 -6.65953e-16)
(0 -2.94721e-30 0 0.683232 -1.76958e-15 8.08528e-31 0.354148 -1.32863e-15 4.93038e-32)
(-2.20385e-15 9.59647e-32 0 0.641398 -1.48122e-15 -2.15733e-16 0.348269 -8.60516e-16 -1.23206e-15)
(1.07426e-14 -1.47136e-44 0 0.641398 -3.35266e-30 -7.43488e-16 0.348269 -7.88861e-31 5.83461e-17)
(2.71062e-15 -9.89435e-31 -1.19966e-30 0.602023 -1.18687e-29 -1.5455e-16 0.342417 7.88861e-31 -7.91239e-16)
(2.1685e-14 -6.75856e-30 1.34269e-30 0.602023 1.55308e-15 -2.19949e-15 0.342417 -4.45541e-16 -2.06799e-16)
(0 -1.28167e-30 0 0.564928 4.95771e-16 -1.19643e-15 0.336571 -9.51029e-16 -7.23192e-16)
(1.38268e-14 -2.27139e-30 1.28167e-30 0.564928 3.89457e-16 -1.77832e-15 0.336571 -1.72811e-15 -3.69686e-16)
(-2.75936e-15 6.98922e-31 -5.47382e-48 0.529952 -1.69403e-16 -4.73883e-32 0.330705 -5.33359e-17 -1.0751e-16)
(0 0 -1.22341e-30 0.529952 -1.70749e-15 -1.5831e-15 0.330705 -8.07128e-16 -1.09979e-16)
(5.25933e-15 0 0 0.49694 6.64031e-16 -2.29075e-15 0.324794 -4.761e-16 -5.47629e-16)
(2.22651e-14 -4.34403e-44 0 0.49694 -2.01197e-29 -2.30609e-15 0.324794 -1.57772e-30 -5.36348e-16)
(-2.8065e-15 7.9413e-31 0 0.46575 -1.17631e-16 -2.28317e-15 0.318812 -1.16465e-15 -7.53905e-16)
(1.1226e-14 -3.5533e-30 0 0.46575 4.55278e-16 -8.75683e-16 0.318812 -2.84502e-16 -8.23955e-16)
(-7.62157e-15 8.75812e-47 0 0.436247 9.86076e-32 -1.59763e-15 0.312726 0 -9.79414e-16)
(-1.13179e-14 4.06957e-30 -1.36229e-31 0.436247 -4.82563e-17 -3.9443e-31 0.312726 -4.34226e-16 0)
(-4.5743e-15 -2.16547e-30 4.50259e-31 0.408307 5.40161e-16 -1.78336e-15 0.306503 -2.04847e-16 -6.56079e-16)
(1.14081e-14 -1.26117e-44 0 0.408307 5.91646e-30 -2.48489e-15 0.306503 0 -7.6385e-16)
(4.36639e-15 -1.93907e-30 -4.84767e-31 0.381809 2.15859e-15 1.15893e-15 0.300104 -1.26433e-15 -7.99782e-16)
(-4.36639e-15 1.93907e-30 4.84767e-31 0.381809 2.82655e-15 1.60746e-15 0.300104 -2.23389e-15 -4.08746e-16)
(-2.89593e-15 7.24238e-31 -1.89587e-31 0.356638 2.8878e-15 3.83334e-15 0.293484 -2.18748e-15 4.69256e-16)
(-1.15837e-14 3.35908e-30 -1.70581e-31 0.356638 2.00878e-15 8.30104e-16 0.293484 -2.25852e-15 2.66681e-16)
(0 0 0 0.332686 1.44519e-15 2.95823e-31 0.286593 -2.63052e-15 3.46811e-46)
(-1.1669e-14 3.40564e-30 8.83403e-31 0.332686 8.9779e-16 3.39562e-15 0.286593 -1.05784e-15 2.48013e-16)
(1.05335e-14 -8.34638e-31 0 0.309845 -4.15576e-16 1.57153e-15 0.279371 -5.93841e-16 1.62674e-15)
(-1.93479e-14 2.26368e-30 5.60519e-45 0.309845 -1.01899e-15 -2.51868e-30 0.279371 -2.42464e-15 0)
(2.95858e-15 -6.81766e-31 5.8759e-31 0.28801 -2.05522e-16 2.95823e-31 0.271746 -1.89761e-15 0)
(1.18343e-14 0 -8.04924e-31 0.28801 -1.87354e-30 -3.01614e-15 0.271746 7.88861e-31 -6.27406e-16)
(1.28777e-14 -1.84067e-30 1.53668e-30 0.267077 6.56748e-16 -7.08729e-16 0.263633 -3.29243e-16 1.09238e-16)
(0 -1.53668e-30 -1.53668e-30 0.267077 1.1041e-15 -1.96578e-16 0.263633 -1.78772e-15 -3.64972e-17)
(2.99806e-15 7.68914e-31 3.50069e-31 0.24694 2.30613e-16 5.30528e-30 0.254929 -1.21491e-15 0)
(0 -1.46683e-30 0 0.24694 4.80412e-16 -9.14574e-16 0.254929 -3.93906e-16 7.95797e-16)
(6.30577e-15 -1.44702e-30 0 0.227488 -3.23943e-29 -7.52382e-17 0.245508 -7.88861e-31 2.82973e-16)
(-6.30577e-15 0 0 0.227488 2.53348e-16 -2.72362e-16 0.245508 -6.20604e-16 -1.33255e-16)
(0 0 2.3174e-31 0.208604 5.44143e-16 6.67667e-16 0.235211 -6.04455e-16 -9.5057e-16)
(0 0 0 0.208604 0 2.66146e-15 0.235211 0 -2.14342e-16)
(5.74559e-15 -1.27578e-30 0 0.190163 -7.65096e-16 2.72741e-16 0.22384 -2.57421e-15 -1.44397e-15)
(0 1.27578e-30 0 0.190163 -5.86211e-16 1.44454e-15 0.22384 -2.65184e-15 -9.88699e-16)
(0 -2.64368e-31 1.21779e-30 0.172019 -5.80081e-16 2.6795e-16 0.211141 -3.66958e-16 7.09332e-16)
(-5.48444e-15 7.5983e-31 -1.2601e-30 0.172019 1.47911e-30 4.82419e-16 0.211141 7.88861e-31 2.59061e-16)
(9.39558e-16 -1.01594e-44 1.16244e-30 0.15401 -3.24694e-29 -7.59417e-17 0.196788 -1.57772e-30 4.54822e-17)
(1.23494e-14 -3.39552e-30 1.33999e-44 0.15401 4.46342e-16 3.00324e-30 0.196788 -8.83934e-16 9.86076e-32)
(0 1.17469e-31 0 0.135944 7.18236e-16 2.77651e-16 0.180359 -2.27077e-15 -5.88616e-17)
(0 0 0 0.135944 6.22383e-18 -1.54441e-15 0.180359 -6.64303e-16 -3.56206e-16)
(-3.11845e-15 7.38256e-31 0 0.117592 -1.3312e-30 -1.52898e-32 0.161312 -1.89879e-15 -3.08665e-48)
(1.24738e-14 -4.81542e-30 -1.05917e-30 0.117592 7.45094e-17 1.47609e-15 0.161312 -9.18503e-16 -4.22393e-16)
(1.42053e-15 -3.60958e-31 1.01103e-30 0.0986896 -1.43939e-15 -2.99279e-15 0.138961 -3.15337e-15 5.66029e-16)
(0 -3.56393e-31 2.25959e-44 0.0986896 2.0307e-29 -5.10101e-30 0.138961 -2.56809e-15 1.40309e-46)
(0 -1.09848e-30 2.4127e-31 0.0789431 -8.29414e-16 2.17686e-15 0.112488 -6.62079e-16 -1.7645e-15)
(2.51685e-14 -8.1349e-30 -2.4127e-31 0.0789431 -6.88592e-16 -3.162e-15 0.112488 -8.81688e-16 -3.70015e-16)
(-3.15824e-15 1.74286e-43 1.01688e-31 0.058062 3.92516e-29 1.85824e-15 0.0809989 -1.37593e-46 1.55397e-15)
(1.2633e-14 -3.26968e-30 0 0.058062 1.09598e-15 2.80211e-15 0.0809989 -1.98312e-15 9.5211e-17)
(-3.96021e-15 2.63803e-30 -2.63803e-30 0.0358266 2.64661e-15 1.15884e-15 0.0436808 -4.52888e-15 2.03669e-15)
(0 0 8.79343e-31 0.0358266 1.3624e-15 1.35393e-15 0.0436808 -3.29309e-15 1.96722e-15)
(1.84097e-18 0 4.16975e-31 8.38155e-11 2.45695e-15 2.8026e-45 7.69269e-11 -4.7508e-15 2.26959e-45)
(0 0 0 8.38251e-11 1.56685e-15 -1.20709e-15 7.6934e-11 -1.43804e-15 5.56913e-16)
(0 1.60098e-34 -1.02463e-32 13.3705 9.63072e-16 -6.90522e-15 -0.0613706 9.58024e-15 -5.98209e-17)
(0 -4.67486e-30 1.02463e-32 13.3705 1.92123e-16 -1.47922e-14 -0.0613706 -1.20236e-18 -6.15791e-17)
(2.20239e-17 -1.22257e-33 -3.91223e-32 13.3642 2.08904e-15 -4.79458e-15 -0.186976 1.24731e-15 -7.28771e-16)
(-2.20239e-17 0 -5.04282e-28 13.3642 5.12467e-16 -5.11094e-15 -0.186976 -1.6436e-17 -1.72462e-16)
(1.19535e-17 -9.33603e-33 -7.46883e-32 13.3576 2.64637e-15 -7.46701e-15 -0.275433 1.51979e-14 -8.28591e-16)
(0 9.33603e-33 7.46883e-32 13.3576 7.12927e-16 -2.55012e-15 -0.275433 -4.18028e-17 -1.89759e-16)
(0 0 0 13.3507 2.74564e-15 -6.80664e-15 -0.288395 1.21994e-14 -9.1498e-16)
(-8.02694e-17 0 7.12936e-32 13.3507 8.0298e-16 -2.65608e-15 -0.288395 -7.0567e-17 -2.09093e-16)
(4.14188e-17 -8.50665e-33 0 13.3435 2.78639e-15 -2.04518e-15 -0.30196 1.20438e-14 -1.06568e-15)
(-2.42296e-16 0 3.40266e-32 13.3435 8.62505e-16 -2.75913e-15 -0.30196 -1.01183e-16 -2.30733e-16)
(0 -4.872e-32 -6.496e-32 13.3359 2.8216e-15 -2.06384e-15 -0.316154 1.21562e-14 -1.23274e-15)
(-2.41606e-16 4.872e-32 6.496e-32 13.3359 9.35744e-16 -2.86875e-15 -0.316154 -1.32886e-16 -2.54951e-16)
(0 0 0 13.328 2.72755e-15 -2.07608e-15 -0.331006 1.22214e-14 -1.41929e-15)
(0 0 6.20075e-32 13.328 1.11091e-15 -2.98597e-15 -0.331006 -1.65756e-16 -2.82002e-16)
(0 -1.47973e-32 -5.91892e-32 13.3196 2.73309e-15 -2.09039e-15 -0.346544 1.22511e-14 -1.62752e-15)
(-5.37642e-16 0 5.91892e-32 13.3196 1.23133e-15 -3.09759e-15 -0.346544 -2.01195e-16 -3.12298e-16)
(-8.68769e-18 -1.12998e-31 1.12998e-31 13.3108 2.93818e-15 -2.09072e-15 -0.362799 1.22835e-14 -1.85943e-15)
(0 5.64989e-32 0 13.3108 1.17163e-15 -3.21452e-15 -0.362799 -2.38639e-16 -3.46302e-16)
(1.45695e-16 -5.3931e-32 -5.3931e-32 13.3015 2.99117e-15 -2.07166e-15 -0.3798 1.23209e-14 -2.11759e-15)
(-5.82781e-16 5.3931e-32 5.3931e-32 13.3015 1.0512e-15 -3.34159e-15 -0.3798 -2.7673e-16 -3.84204e-16)
(0 7.72196e-32 0 13.2916 2.79786e-15 -2.04582e-15 -0.397579 1.23632e-14 -2.40464e-15)
(-6.78328e-16 -2.57399e-32 0 13.2916 1.07738e-15 -3.46498e-15 -0.397579 -3.15446e-16 -4.26807e-16)
(2.21306e-16 -9.82798e-32 0 13.281 2.65332e-15 -2.01644e-15 -0.416164 1.2409e-14 -2.72343e-15)
(-9.99667e-16 9.82798e-32 0 13.281 1.37215e-15 -3.58817e-15 -0.416164 -3.56209e-16 -4.74722e-16)
(-2.20772e-16 0 0 13.2694 2.78462e-15 -1.97011e-15 -0.435584 1.24554e-14 -3.07706e-15)
(8.8309e-16 0 1.87626e-31 13.2694 1.56257e-15 -3.72029e-15 -0.435584 -4.01854e-16 -5.28284e-16)
(-2.48183e-16 -1.34323e-31 -8.95489e-32 13.2567 2.96394e-15 -1.90744e-15 -0.455863 1.24972e-14 -3.18994e-15)
(-9.92732e-16 1.34323e-31 8.95489e-32 13.2567 1.30788e-15 -3.85982e-15 -0.455863 -4.44778e-16 -5.88356e-16)
(0 -1.28218e-31 -8.54787e-32 13.2423 3.07403e-15 -1.84795e-15 -0.477018 1.25365e-14 -3.27045e-15)
(-1.10752e-15 1.28218e-31 8.54787e-32 13.2423 1.17913e-15 -3.97894e-15 -0.477018 -4.82151e-16 -6.55785e-16)
(6.1384e-16 0 0 13.2258 3.01197e-15 -1.77008e-15 -0.499058 1.25774e-14 -3.35526e-15)
(0 0 0 13.2258 1.7963e-15 -4.09816e-15 -0.499058 -5.21644e-16 -7.31594e-16)
(-3.38369e-16 0 0 13.2062 2.50851e-15 -1.68853e-15 -0.521976 1.26195e-14 -3.52024e-15)
(1.35347e-15 0 -1.5577e-31 13.2062 2.29274e-15 -4.24376e-15 -0.521976 -5.68349e-16 -8.16296e-16)
(-7.29381e-17 0 -1.4869e-31 13.1824 2.2361e-15 -1.2074e-14 -0.545744 1.26676e-14 -3.87253e-15)
(-2.1548e-15 0 0 13.1824 1.93052e-15 -4.33862e-15 -0.545744 -6.18538e-16 -9.10861e-16)
(4.0575e-16 7.0966e-32 0 13.1528 2.52163e-15 -2.61969e-14 -0.570302 1.27158e-14 -3.92285e-15)
(0 0 0 13.1528 1.82499e-15 -4.37782e-15 -0.570302 -6.59357e-16 -1.01812e-15)
(4.41819e-16 0 0 13.1154 2.83937e-15 -3.05218e-14 -0.595547 1.27555e-14 -3.89043e-15)
(0 1.35481e-31 0 13.1154 1.94115e-15 -4.42709e-15 -0.595547 -7.01372e-16 -1.13902e-15)
(1.06199e-15 0 -2.58646e-31 13.0673 2.55309e-15 -3.16469e-14 -0.621322 1.27883e-14 -3.84257e-15)
(-1.91827e-15 0 0 13.0673 2.34555e-15 -4.48024e-15 -0.621322 -7.3389e-16 -1.27323e-15)
(5.19061e-16 0 0 13.005 1.63923e-15 -3.25894e-14 -0.647394 1.28254e-14 -3.77846e-15)
(-5.55947e-16 0 4.93781e-31 13.005 3.33763e-15 -4.46664e-15 -0.647394 -7.68898e-16 -1.42375e-15)
(1.12074e-15 1.17834e-31 -4.71337e-31 12.9242 1.02631e-15 -3.33892e-14 -0.673446 1.28696e-14 -3.69677e-15)
(0 -1.17834e-31 4.71337e-31 12.9242 3.7527e-15 -4.46215e-15 -0.673446 -8.23054e-16 -1.59033e-15)
(2.02623e-15 1.12479e-31 -1.34974e-30 12.8196 1.28485e-15 -3.38341e-14 -0.699061 1.29344e-14 -3.59322e-15)
(-2.02623e-15 -1.12479e-31 8.99829e-31 12.8196 3.87157e-15 -4.48253e-15 -0.699061 -8.10275e-16 -1.76982e-15)
(0 0 0 12.6856 2.15187e-15 -3.38348e-14 -0.72372 1.29739e-14 -3.47313e-15)
(0 0 0 12.6856 3.73634e-15 -4.23733e-15 -0.72372 -5.9512e-16 -1.96846e-15)
(0 -2.04973e-31 3.27956e-30 12.5159 2.82119e-15 -3.33897e-14 -0.746814 1.29738e-14 -3.32692e-15)
(-9.23115e-16 2.04973e-31 -2.45967e-30 12.5159 2.65944e-15 -3.78717e-15 -0.746814 -3.46052e-16 -2.19124e-15)
(7.44567e-16 0 -7.82625e-31 12.3046 2.47971e-15 -3.23037e-14 -0.76767 1.29781e-14 -3.15458e-15)
(0 0 7.82625e-31 12.3046 2.43619e-15 -3.45145e-15 -0.76767 -3.77381e-16 -2.43217e-15)
(0 -3.73527e-31 1.49411e-30 12.0468 1.04407e-16 -3.08488e-14 -0.785603 1.29785e-14 -2.96518e-15)
(1.49917e-15 3.73089e-31 0 12.0468 3.30151e-15 -3.11247e-15 -0.785603 -3.13938e-16 -2.68843e-15)
(-8.47863e-16 -2.83644e-31 2.8524e-30 11.7392 0 -2.91329e-14 -0.79998 1.29678e-14 -2.75071e-15)
(-8.02878e-16 -3.5655e-31 -2.1393e-30 11.7392 3.33602e-15 -2.51421e-15 -0.79998 -2.10569e-16 -2.95879e-15)
(1.80388e-15 0 -2.72275e-30 11.3808 1.97322e-16 -2.70951e-14 -0.810296 1.29423e-14 -2.51086e-15)
(3.60777e-15 4.27216e-31 2.72275e-30 11.3808 2.75875e-15 -1.93582e-15 -0.810296 -1.78974e-16 -3.24692e-15)
(1.91469e-15 0 0 10.9739 4.58799e-16 -2.46024e-14 -0.816233 1.28961e-14 -2.24225e-15)
(0 0 0 10.9739 2.06912e-15 -1.87555e-15 -0.816233 -1.2646e-16 -3.54005e-15)
(1.3966e-15 0 3.7213e-30 10.5235 2.46061e-16 -2.17145e-14 -0.817705 1.28583e-14 -1.95782e-15)
(-1.3966e-15 -3.10109e-31 -4.96174e-30 10.5235 1.81625e-15 -1.7243e-15 -0.817705 -1.56229e-16 -3.82588e-15)
(1.33313e-15 2.96014e-31 -1.18405e-30 10.0374 3.44225e-16 -1.85648e-14 -0.814862 1.28233e-14 -1.6561e-15)
(0 0 2.36811e-30 10.0374 2.15614e-15 -1.06256e-15 -0.814862 -1.9539e-16 -4.11675e-15)
(1.1284e-15 0 -3.39071e-30 9.52512 2.66126e-16 -1.55192e-14 -0.808065 1.27285e-14 -1.35939e-15)
(0 0 3.39071e-30 9.52512 2.35258e-15 -4.79261e-16 -0.808065 -2.05732e-16 -4.42317e-15)
(0 2.69717e-31 5.39433e-30 8.99721 7.19972e-17 -1.2706e-14 -0.797827 1.26252e-14 -1.04946e-15)
(0 -2.69717e-31 -5.39433e-30 8.99721 2.15516e-15 2.36046e-17 -0.797827 -1.78357e-16 -4.7282e-15)
(1.24306e-15 0 0 8.46397 7.18582e-16 -1.00972e-14 -0.784752 1.24934e-14 -7.52734e-16)
(-1.15949e-15 -2.57458e-31 0 8.46397 1.85692e-15 7.81132e-16 -0.784752 -1.68689e-16 -5.04262e-15)
(-9.13935e-16 2.45756e-31 7.86418e-30 7.9348 2.10559e-15 -8.12383e-15 -0.769472 1.23156e-14 -4.65805e-16)
(5.19854e-15 0 -5.89814e-30 7.9348 -9.86076e-32 1.13332e-15 -0.769472 -2.95823e-31 -5.38422e-15)
(-4.98351e-15 -4.69172e-31 -1.87669e-30 7.41763 2.80605e-15 -6.19177e-15 -0.752589 1.21226e-14 -1.7967e-16)
(7.53445e-15 7.42141e-32 3.75337e-30 7.41763 -9.36364e-16 3.73365e-16 -0.752589 -5.8761e-17 -5.70691e-15)
(2.82017e-15 0 3.58278e-30 6.91865 1.85368e-15 -3.87274e-15 -0.734649 1.193e-14 9.67647e-17)
(-4.03385e-15 -2.23923e-31 -3.58278e-30 6.91865 4.0471e-16 1.63739e-16 -0.734649 3.57992e-18 -5.99735e-15)
(2.92726e-15 0 -3.72732e-32 6.44233 8.62645e-16 -2.15939e-15 -0.716116 1.17522e-14 1.91906e-16)
(-1.92525e-15 0 0 6.44233 2.44364e-15 1.00253e-15 -0.716116 1.09534e-16 -6.32928e-15)
(-3.21822e-16 -4.08061e-31 0 5.99157 4.5687e-16 9.86076e-32 -0.697371 1.15435e-14 -2.95823e-31)
(4.22595e-15 5.38043e-30 -1.63225e-30 5.99157 1.4681e-15 1.18367e-15 -0.697371 2.25618e-16 -6.68913e-15)
(1.5669e-15 0 -1.01645e-31 5.56794 -3.92634e-16 2.01078e-16 -0.678711 1.13192e-14 3.07061e-17)
(0 4.64863e-30 0 5.56794 1.31915e-16 1.27085e-15 -0.678711 3.77974e-16 -7.04255e-15)
(-3.23309e-15 0 1.84067e-30 5.17194 -9.24911e-16 2.89214e-16 -0.660362 1.10939e-14 1.87261e-17)
(-1.67449e-15 0 0 5.17194 5.74678e-16 1.57483e-15 -0.660362 6.37548e-16 -7.44748e-15)
(1.66485e-15 0 -2.99144e-30 4.80332 -9.1811e-16 1.3954e-15 -0.642486 1.0911e-14 1.21933e-16)
(6.65939e-15 4.75799e-31 2.83929e-30 4.80332 0 1.4515e-15 -0.642486 8.57124e-16 -7.85392e-15)
(0 3.3878e-31 4.06536e-30 4.46123 -1.48172e-15 2.3792e-15 -0.625196 1.0731e-14 2.59884e-16)
(-8.37304e-15 -3.3878e-31 -1.35512e-30 4.46123 -2.8716e-16 1.92268e-15 -0.625196 1.09675e-15 -8.25341e-15)
(1.75752e-15 -3.23382e-31 -4.03972e-30 4.14449 -1.60772e-15 2.87574e-15 -0.608561 1.05359e-14 4.20119e-16)
(7.03007e-15 5.14032e-30 3.88058e-30 4.14449 -1.22203e-16 2.58463e-15 -0.608561 1.42337e-15 -8.04503e-15)
(1.80196e-15 3.08684e-31 3.5237e-30 3.85165 -1.21428e-15 2.82356e-15 -0.592624 1.0283e-14 4.36599e-16)
(-7.20783e-15 -3.08684e-31 -3.7042e-30 3.85165 -1.39707e-15 2.9325e-15 -0.592624 1.69714e-15 -7.78507e-15)
(1.84519e-15 -2.94653e-31 -4.92483e-30 3.58118 -1.13892e-15 3.13573e-15 -0.577398 1.00927e-14 4.44417e-16)
(0 2.94653e-31 4.71445e-30 3.58118 -6.32886e-16 3.40989e-15 -0.577398 2.02519e-15 -7.51776e-15)
(-6.30792e-15 2.81261e-31 7.15155e-30 3.3315 1.81756e-16 3.15898e-15 -0.562884 9.85514e-15 5.83616e-16)
(0 -5.62522e-31 -5.62522e-30 3.3315 5.87544e-16 2.37506e-15 -0.562884 2.23263e-15 -7.21789e-15)
(-2.41823e-15 2.68477e-31 6.44345e-30 3.10105 1.11383e-15 3.52689e-15 -0.549067 9.42359e-15 4.95899e-16)
(0 -5.36954e-31 -5.36954e-30 3.10105 4.18619e-16 -9.06325e-16 -0.549067 2.51259e-15 -6.90873e-15)
(-1.96817e-15 0 -1.83709e-30 2.88831 -2.88213e-16 3.82703e-15 -0.535926 9.0218e-15 7.75617e-16)