/*--------------------------------*- C++ -*----------------------------------*\
| =========                 |                                                 |
| \\      /  F ield         | OpenFOAM: The Open Source CFD Toolbox           |
|  \\    /   O peration     | Version:  2106                                  |
|   \\  /    A nd           | Website:  www.openfoam.com                      |
|    \\/     M anipulation  |                                                 |
\*---------------------------------------------------------------------------*/
FoamFile
{
    version     2.0;
    format      ascii;
    arch        "LSB;label=32;scalar=64";
    class       volScalarField;
    location    "10070";
    object      p;
}
// * * * * * * * * * * * * * * * * * * * * * * * * * * * * * * * * * * * * * //

dimensions      [0 2 -2 0 0 0 0];

internalField   nonuniform List<scalar> 
2000
(
7.7258e-15
8.60808e-14
1.70682e-14
8.60893e-14
2.0028e-14
8.61013e-14
2.15802e-14
8.61204e-14
2.34667e-14
8.6147e-14
2.5634e-14
8.61813e-14
2.78325e-14
8.62232e-14
2.99936e-14
8.62726e-14
3.21094e-14
8.63296e-14
3.41769e-14
8.6394e-14
3.61932e-14
8.64654e-14
3.81579e-14
8.6544e-14
4.00717e-14
8.66294e-14
4.19357e-14
8.67216e-14
4.37509e-14
8.68206e-14
4.55182e-14
8.6926e-14
4.72389e-14
8.70378e-14
4.89139e-14
8.71557e-14
5.05438e-14
8.72797e-14
5.21297e-14
8.74095e-14
5.36722e-14
8.75452e-14
5.51721e-14
8.76866e-14
5.66302e-14
8.78335e-14
5.80476e-14
8.79855e-14
5.94248e-14
8.81427e-14
6.07626e-14
8.83048e-14
6.20617e-14
8.84718e-14
6.33234e-14
8.86434e-14
6.45479e-14
8.88193e-14
6.57363e-14
8.89995e-14
6.68887e-14
8.91839e-14
6.80065e-14
8.93721e-14
6.90906e-14
8.9564e-14
7.01411e-14
8.97595e-14
7.1159e-14
8.99583e-14
7.2145e-14
9.01603e-14
7.30998e-14
9.03652e-14
7.40238e-14
9.05732e-14
7.49182e-14
9.07838e-14
7.57832e-14
9.09967e-14
7.66194e-14
9.12124e-14
7.74277e-14
9.14305e-14
7.82089e-14
9.16507e-14
7.89636e-14
9.18725e-14
7.96922e-14
9.20962e-14
8.03952e-14
9.23217e-14
8.10733e-14
9.25484e-14
8.17276e-14
9.27763e-14
8.23585e-14
9.30058e-14
8.29671e-14
9.32364e-14
8.35532e-14
9.3467e-14
8.41186e-14
9.36979e-14
8.46616e-14
9.39292e-14
8.51847e-14
9.41607e-14
8.56882e-14
9.43923e-14
8.61718e-14
9.46233e-14
8.66367e-14
9.48543e-14
8.70836e-14
9.50853e-14
8.75133e-14
9.53156e-14
8.79256e-14
9.55446e-14
8.8322e-14
9.57719e-14
8.87035e-14
9.59975e-14
8.90693e-14
9.62227e-14
8.94208e-14
9.64473e-14
8.97595e-14
9.66697e-14
9.00843e-14
9.68909e-14
9.03961e-14
9.71106e-14
9.06963e-14
9.73271e-14
9.0984e-14
9.75416e-14
9.12624e-14
9.7753e-14
9.15296e-14
9.79627e-14
9.17863e-14
9.81714e-14
9.20339e-14
9.83788e-14
9.22713e-14
9.85836e-14
9.25017e-14
9.87843e-14
9.27231e-14
9.89842e-14
9.29364e-14
9.91826e-14
9.31429e-14
9.9379e-14
9.33405e-14
9.95734e-14
9.35329e-14
9.97649e-14
9.37208e-14
9.99538e-14
9.3902e-14
1.00141e-13
9.40775e-14
1.00327e-13
9.42499e-14
1.00507e-13
9.44189e-14
1.00685e-13
9.45847e-14
1.00861e-13
9.47465e-14
1.01037e-13
9.49062e-14
1.01209e-13
9.50631e-14
1.0138e-13
9.52186e-14
1.01549e-13
9.53732e-14
1.01714e-13
9.5526e-14
1.01878e-13
9.56776e-14
1.02039e-13
9.58259e-14
1.02198e-13
9.59747e-14
1.02355e-13
9.6124e-14
1.02512e-13
9.62722e-14
1.02669e-13
9.64191e-14
1.02824e-13
9.65672e-14
1.02975e-13
9.67164e-14
1.03125e-13
9.68673e-14
1.03273e-13
9.70187e-14
1.03421e-13
9.71728e-14
1.03565e-13
9.73264e-14
1.03706e-13
9.74805e-14
1.03846e-13
9.76381e-14
1.03984e-13
9.77958e-14
1.04122e-13
9.79563e-14
1.04256e-13
9.81194e-14
1.04385e-13
9.82893e-14
1.04515e-13
9.84568e-14
1.04644e-13
9.86276e-14
1.04772e-13
9.88014e-14
1.04904e-13
9.8978e-14
1.05035e-13
9.91633e-14
1.0516e-13
9.93509e-14
1.05281e-13
9.95453e-14
1.05405e-13
9.97429e-14
1.0552e-13
9.99373e-14
1.05638e-13
1.00143e-13
1.05752e-13
1.00344e-13
1.05876e-13
1.00548e-13
1.06005e-13
1.00757e-13
1.06129e-13
1.00973e-13
1.06254e-13
1.0119e-13
1.0638e-13
1.01407e-13
1.06513e-13
1.01626e-13
1.06648e-13
1.01845e-13
1.06783e-13
1.02058e-13
1.06922e-13
1.02274e-13
1.07061e-13
1.02494e-13
1.07207e-13
1.02718e-13
1.07357e-13
1.0294e-13
1.07504e-13
1.03165e-13
1.07655e-13
1.03386e-13
1.07811e-13
1.03614e-13
1.07965e-13
1.03848e-13
1.08113e-13
1.04089e-13
1.08262e-13
1.04331e-13
1.08413e-13
1.04571e-13
1.08561e-13
1.04809e-13
1.08704e-13
1.05044e-13
1.0886e-13
1.05291e-13
1.09019e-13
1.05531e-13
1.09175e-13
1.05771e-13
1.0933e-13
1.06011e-13
1.09491e-13
1.06254e-13
1.09658e-13
1.06496e-13
1.09824e-13
1.06745e-13
1.09985e-13
1.07e-13
1.10152e-13
1.07238e-13
1.10314e-13
1.0747e-13
1.10483e-13
1.07695e-13
1.10651e-13
1.07961e-13
1.10819e-13
1.08221e-13
1.10993e-13
1.08473e-13
1.11167e-13
1.08718e-13
1.11347e-13
1.08963e-13
1.11527e-13
1.09207e-13
1.1169e-13
1.09452e-13
1.11851e-13
1.09704e-13
1.12027e-13
1.09964e-13
1.12202e-13
1.10206e-13
1.12374e-13
1.10448e-13
1.12553e-13
1.10696e-13
1.12747e-13
1.10958e-13
1.12913e-13
1.11211e-13
1.13076e-13
1.11471e-13
1.13245e-13
1.11729e-13
1.13435e-13
1.11986e-13
1.1362e-13
1.12241e-13
1.13783e-13
1.12488e-13
1.13957e-13
1.12725e-13
1.14125e-13
1.12987e-13
1.14311e-13
1.13223e-13
1.14516e-13
1.13477e-13
1.14695e-13
1.13704e-13
1.14857e-13
1.1394e-13
1.15026e-13
1.14169e-13
1.1522e-13
1.14423e-13
1.15411e-13
1.14695e-13
1.15589e-13
1.14934e-13
1.15728e-13
1.15159e-13
1.15875e-13
1.15387e-13
1.16047e-13
1.15637e-13
1.16191e-13
1.15893e-13
1.16356e-13
1.16122e-13
1.1659e-13
1.16358e-13
1.16773e-13
1.16584e-13
1.16938e-13
1.16801e-13
1.17083e-13
1.17011e-13
1.17222e-13
1.17214e-13
1.17404e-13
1.17428e-13
1.17594e-13
1.17636e-13
1.1779e-13
1.17853e-13
1.17957e-13
1.18065e-13
1.18161e-13
1.18255e-13
1.18402e-13
1.18452e-13
1.18612e-13
1.18657e-13
1.18825e-13
1.1885e-13
1.19009e-13
1.19049e-13
1.19162e-13
1.19255e-13
1.19415e-13
1.19465e-13
1.19618e-13
1.19698e-13
1.19822e-13
1.1992e-13
1.1999e-13
1.20131e-13
1.20253e-13
1.20378e-13
1.20397e-13
1.20585e-13
1.20564e-13
1.20769e-13
1.20803e-13
1.21009e-13
1.21015e-13
1.2124e-13
1.21231e-13
1.21431e-13
1.21418e-13
1.21628e-13
1.21605e-13
1.21862e-13
1.21891e-13
1.22064e-13
1.22085e-13
1.22267e-13
1.22281e-13
1.2247e-13
1.22573e-13
1.22695e-13
1.22812e-13
1.22911e-13
1.22969e-13
1.23121e-13
1.23167e-13
1.23389e-13
1.23369e-13
1.23567e-13
1.23506e-13
1.23722e-13
1.23661e-13
1.23911e-13
1.23924e-13
1.24093e-13
1.24213e-13
1.24289e-13
1.24387e-13
1.24471e-13
1.24567e-13
1.24696e-13
1.24752e-13
1.24853e-13
1.24964e-13
1.25048e-13
1.25155e-13
1.25278e-13
1.25328e-13
1.25464e-13
1.25533e-13
1.2563e-13
1.25682e-13
1.2578e-13
1.2583e-13
1.25997e-13
1.26033e-13
1.26142e-13
1.26239e-13
1.26319e-13
1.26397e-13
1.2653e-13
1.2656e-13
1.26652e-13
1.26731e-13
1.26758e-13
1.26838e-13
1.26896e-13
1.26928e-13
1.27021e-13
1.27045e-13
1.27191e-13
1.27218e-13
1.27306e-13
1.27345e-13
1.27417e-13
1.2746e-13
1.275e-13
1.27514e-13
1.27564e-13
1.27554e-13
1.2761e-13
1.27623e-13
1.27632e-13
1.27724e-13
1.27666e-13
1.2768e-13
8.96482e-14
9.36918e-14
8.96527e-14
9.36927e-14
8.9659e-14
9.36941e-14
8.9669e-14
9.36963e-14
8.96831e-14
9.36995e-14
8.97011e-14
9.37036e-14
8.97232e-14
9.37088e-14
8.97492e-14
9.37149e-14
8.97793e-14
9.37222e-14
8.98133e-14
9.37306e-14
8.98511e-14
9.374e-14
8.98927e-14
9.37506e-14
8.9938e-14
9.37623e-14
8.9987e-14
9.37753e-14
9.00396e-14
9.37894e-14
9.00957e-14
9.38046e-14
9.0155e-14
9.38211e-14
9.02179e-14
9.38387e-14
9.0284e-14
9.38578e-14
9.03532e-14
9.38782e-14
9.04259e-14
9.38998e-14
9.05017e-14
9.39226e-14
9.05805e-14
9.39469e-14
9.06623e-14
9.39724e-14
9.07472e-14
9.39992e-14
9.08348e-14
9.40276e-14
9.09252e-14
9.40576e-14
9.10181e-14
9.40887e-14
9.11137e-14
9.41215e-14
9.12119e-14
9.4156e-14
9.13125e-14
9.41922e-14
9.14154e-14
9.42301e-14
9.15206e-14
9.42695e-14
9.16283e-14
9.43104e-14
9.17383e-14
9.43527e-14
9.18504e-14
9.43969e-14
9.19646e-14
9.44427e-14
9.20804e-14
9.44904e-14
9.21979e-14
9.45402e-14
9.2317e-14
9.45911e-14
9.24375e-14
9.46445e-14
9.25596e-14
9.47001e-14
9.26827e-14
9.47574e-14
9.2807e-14
9.48169e-14
9.29326e-14
9.48783e-14
9.30595e-14
9.49417e-14
9.31883e-14
9.50062e-14
9.33178e-14
9.50723e-14
9.34483e-14
9.5141e-14
9.35799e-14
9.52119e-14
9.37124e-14
9.52832e-14
9.3846e-14
9.53559e-14
9.39802e-14
9.54313e-14
9.41154e-14
9.55077e-14
9.42517e-14
9.55857e-14
9.43888e-14
9.5666e-14
9.45269e-14
9.57474e-14
9.46647e-14
9.58314e-14
9.48028e-14
9.59175e-14
9.49411e-14
9.60053e-14
9.50794e-14
9.60951e-14
9.52174e-14
9.61877e-14
9.53553e-14
9.62822e-14
9.5494e-14
9.63789e-14
9.56326e-14
9.64771e-14
9.57711e-14
9.65771e-14
9.59094e-14
9.66794e-14
9.60479e-14
9.67825e-14
9.6188e-14
9.6885e-14
9.63287e-14
9.69891e-14
9.64689e-14
9.70969e-14
9.66093e-14
9.72061e-14
9.67501e-14
9.73163e-14
9.68904e-14
9.74275e-14
9.7032e-14
9.754e-14
9.71729e-14
9.76534e-14
9.73132e-14
9.77712e-14
9.74526e-14
9.78918e-14
9.75928e-14
9.80113e-14
9.7733e-14
9.8132e-14
9.78727e-14
9.82565e-14
9.80124e-14
9.83838e-14
9.81513e-14
9.85118e-14
9.82901e-14
9.864e-14
9.8431e-14
9.87691e-14
9.85727e-14
9.89012e-14
9.87153e-14
9.90351e-14
9.88583e-14
9.91692e-14
9.90003e-14
9.93052e-14
9.9143e-14
9.94422e-14
9.92886e-14
9.95804e-14
9.94337e-14
9.97212e-14
9.95785e-14
9.9864e-14
9.97274e-14
1.00007e-13
9.98749e-14
1.00152e-13
1.00023e-13
1.00301e-13
1.00173e-13
1.00452e-13
1.00324e-13
1.00603e-13
1.00475e-13
1.00756e-13
1.00627e-13
1.00908e-13
1.00781e-13
1.01063e-13
1.00938e-13
1.01223e-13
1.01097e-13
1.01386e-13
1.0126e-13
1.01546e-13
1.01418e-13
1.01711e-13
1.01584e-13
1.01878e-13
1.0175e-13
1.02044e-13
1.01917e-13
1.02211e-13
1.02084e-13
1.0238e-13
1.02256e-13
1.0255e-13
1.02435e-13
1.0272e-13
1.02609e-13
1.0289e-13
1.02787e-13
1.03062e-13
1.02965e-13
1.03237e-13
1.03146e-13
1.03414e-13
1.03327e-13
1.03593e-13
1.03501e-13
1.03781e-13
1.03678e-13
1.0397e-13
1.03861e-13
1.04155e-13
1.0405e-13
1.04335e-13
1.04238e-13
1.04526e-13
1.04421e-13
1.04725e-13
1.04606e-13
1.04918e-13
1.04797e-13
1.05106e-13
1.04987e-13
1.05296e-13
1.05176e-13
1.05487e-13
1.05367e-13
1.05682e-13
1.05564e-13
1.05875e-13
1.0576e-13
1.06066e-13
1.05946e-13
1.06254e-13
1.06134e-13
1.06439e-13
1.06328e-13
1.06629e-13
1.06522e-13
1.06828e-13
1.06712e-13
1.07027e-13
1.06908e-13
1.07218e-13
1.07108e-13
1.07402e-13
1.07308e-13
1.07587e-13
1.07505e-13
1.07774e-13
1.0769e-13
1.07963e-13
1.07886e-13
1.08141e-13
1.08083e-13
1.08317e-13
1.08287e-13
1.08501e-13
1.08493e-13
1.08687e-13
1.08672e-13
1.08871e-13
1.08844e-13
1.09059e-13
1.09025e-13
1.09245e-13
1.09199e-13
1.09437e-13
1.09388e-13
1.0963e-13
1.09571e-13
1.0983e-13
1.09746e-13
1.10023e-13
1.09942e-13
1.10191e-13
1.1013e-13
1.10369e-13
1.10311e-13
1.10565e-13
1.10493e-13
1.10772e-13
1.10691e-13
1.10974e-13
1.10881e-13
1.11162e-13
1.11072e-13
1.11362e-13
1.11272e-13
1.11581e-13
1.1148e-13
1.11796e-13
1.11688e-13
1.11999e-13
1.11905e-13
1.12215e-13
1.12114e-13
1.12427e-13
1.12323e-13
1.1261e-13
1.12524e-13
1.12791e-13
1.12727e-13
1.12993e-13
1.12939e-13
1.132e-13
1.13152e-13
1.1343e-13
1.13357e-13
1.13649e-13
1.13563e-13
1.13841e-13
1.13761e-13
1.14049e-13
1.13951e-13
1.14238e-13
1.14149e-13
1.14427e-13
1.14357e-13
1.14616e-13
1.14548e-13
1.14821e-13
1.14739e-13
1.15036e-13
1.14938e-13
1.15234e-13
1.15136e-13
1.15434e-13
1.15334e-13
1.15628e-13
1.15548e-13
1.15825e-13
1.15771e-13
1.16068e-13
1.15984e-13
1.16307e-13
1.16204e-13
1.16509e-13
1.16415e-13
1.16674e-13
1.16633e-13
1.16837e-13
1.16845e-13
1.17015e-13
1.17016e-13
1.17242e-13
1.17264e-13
1.17451e-13
1.1747e-13
1.17659e-13
1.17687e-13
1.1785e-13
1.17897e-13
1.18024e-13
1.18102e-13
1.18182e-13
1.18305e-13
1.18374e-13
1.18505e-13
1.18566e-13
1.18704e-13
1.18777e-13
1.18901e-13
1.18937e-13
1.19081e-13
1.19151e-13
1.19277e-13
1.19369e-13
1.19489e-13
1.19574e-13
1.1965e-13
1.19767e-13
1.19826e-13
1.19967e-13
1.2e-13
1.20177e-13
1.20152e-13
1.20383e-13
1.20332e-13
1.20605e-13
1.20552e-13
1.20812e-13
1.20797e-13
1.20956e-13
1.20989e-13
1.21183e-13
1.21176e-13
1.21345e-13
1.21409e-13
1.21492e-13
1.2156e-13
1.2172e-13
1.21774e-13
1.21935e-13
1.21985e-13
1.22122e-13
1.22227e-13
1.22312e-13
1.22457e-13
1.2244e-13
1.2265e-13
1.2266e-13
1.22838e-13
1.22908e-13
1.23049e-13
1.23126e-13
1.23283e-13
1.23286e-13
1.23421e-13
1.23442e-13
1.23619e-13
1.23593e-13
1.23816e-13
1.23832e-13
1.2398e-13
1.24038e-13
1.24165e-13
1.2428e-13
1.24367e-13
1.24444e-13
1.24592e-13
1.24624e-13
1.24695e-13
1.24842e-13
1.24874e-13
1.24987e-13
1.25073e-13
1.25177e-13
1.25202e-13
1.25384e-13
1.2543e-13
1.25499e-13
1.25624e-13
1.25626e-13
1.25824e-13
1.25813e-13
1.26002e-13
1.26029e-13
1.26125e-13
1.26195e-13
1.26303e-13
1.2632e-13
1.26458e-13
1.26426e-13
1.26596e-13
1.26643e-13
1.26734e-13
1.26814e-13
1.26836e-13
1.26835e-13
1.26964e-13
1.26964e-13
1.27119e-13
1.27169e-13
1.27243e-13
1.27274e-13
1.27312e-13
1.27337e-13
1.27405e-13
1.27435e-13
1.27487e-13
1.27533e-13
1.27578e-13
1.27608e-13
1.27627e-13
1.27654e-13
1.27737e-13
1.27721e-13
1.27766e-13
1.27806e-13
1.27752e-13
1.27818e-13
1.27737e-13
1.27755e-13
1.27687e-13
1.27683e-13
1.27748e-13
1.2777e-13
1.27794e-13
1.27854e-13
1.27813e-13
1.27844e-13
1.27863e-13
1.27835e-13
1.27915e-13
1.27919e-13
1.27908e-13
1.27942e-13
1.27893e-13
1.27983e-13
1.27887e-13
1.27931e-13
1.27842e-13
1.27886e-13
1.27839e-13
1.27847e-13
1.27807e-13
1.27807e-13
1.27798e-13
1.27843e-13
1.27754e-13
1.27856e-13
1.27726e-13
1.278e-13
1.27688e-13
1.27721e-13
1.27672e-13
1.27758e-13
1.27697e-13
1.27776e-13
1.27711e-13
1.27774e-13
1.27686e-13
1.27815e-13
1.27673e-13
1.27857e-13
1.27696e-13
1.27846e-13
1.277e-13
1.27803e-13
1.27721e-13
1.27806e-13
1.27703e-13
1.27793e-13
1.27735e-13
1.27791e-13
1.27762e-13
1.27796e-13
1.27756e-13
1.27776e-13
1.2775e-13
1.27728e-13
1.27748e-13
1.2771e-13
1.27751e-13
1.27722e-13
1.27756e-13
1.27763e-13
1.27763e-13
1.27838e-13
1.27701e-13
1.27833e-13
1.27725e-13
1.27785e-13
1.27745e-13
1.2778e-13
1.27734e-13
1.27785e-13
1.27721e-13
1.27735e-13
1.2774e-13
1.27754e-13
1.27729e-13
1.27812e-13
1.27697e-13
1.27796e-13
1.27726e-13
1.27775e-13
1.27769e-13
1.27826e-13
1.27777e-13
1.27817e-13
1.27767e-13
1.27846e-13
1.27803e-13
1.27832e-13
1.27838e-13
1.27857e-13
1.27824e-13
1.27884e-13
1.27842e-13
1.27899e-13
1.27877e-13
1.27934e-13
1.27893e-13
1.27974e-13
1.27888e-13
1.27984e-13
1.27897e-13
1.28e-13
1.27954e-13
1.2797e-13
1.2796e-13
1.27941e-13
1.27985e-13
1.27979e-13
1.2801e-13
1.28102e-13
1.28e-13
1.28177e-13
1.28018e-13
1.28192e-13
1.28014e-13
1.28161e-13
1.28039e-13
1.28188e-13
1.28059e-13
1.28237e-13
1.28091e-13
1.28256e-13
1.28119e-13
1.28263e-13
1.28142e-13
1.28291e-13
1.28144e-13
1.28341e-13
1.28158e-13
1.28377e-13
1.282e-13
1.28402e-13
1.28256e-13
1.28414e-13
1.28308e-13
1.28412e-13
1.28308e-13
1.28412e-13
1.28314e-13
1.28431e-13
1.28362e-13
1.28479e-13
1.28399e-13
1.28502e-13
1.28426e-13
1.28511e-13
1.28461e-13
1.28538e-13
1.28495e-13
1.28583e-13
1.28528e-13
1.28604e-13
1.28561e-13
1.28601e-13
1.28585e-13
1.28641e-13
1.286e-13
1.28698e-13
1.28631e-13
1.2874e-13
1.28652e-13
1.28767e-13
1.28681e-13
1.28787e-13
1.28708e-13
1.28799e-13
1.28742e-13
1.28814e-13
1.28784e-13
1.28837e-13
1.2881e-13
1.28853e-13
1.28826e-13
1.28877e-13
1.28858e-13
1.28893e-13
1.28874e-13
1.28918e-13
1.28898e-13
1.28959e-13
1.28912e-13
1.28976e-13
1.28926e-13
1.2897e-13
1.28947e-13
1.28971e-13
1.2896e-13
1.28981e-13
1.28956e-13
1.28992e-13
1.28975e-13
1.29002e-13
1.28994e-13
1.29013e-13
1.28997e-13
1.29024e-13
1.28998e-13
1.29027e-13
1.29004e-13
1.29035e-13
1.29008e-13
1.29046e-13
1.2902e-13
1.2905e-13
1.29023e-13
1.2907e-13
1.29034e-13
1.29078e-13
1.2904e-13
1.29082e-13
1.29042e-13
1.2909e-13
1.29043e-13
1.29103e-13
1.2905e-13
1.29111e-13
1.29058e-13
1.29124e-13
1.29068e-13
1.29132e-13
1.29074e-13
1.29142e-13
1.29076e-13
1.29151e-13
1.29088e-13
1.29153e-13
1.29092e-13
1.29148e-13
1.29103e-13
1.29147e-13
1.29111e-13
1.2915e-13
1.2911e-13
1.29156e-13
1.29113e-13
1.29166e-13
1.29112e-13
1.29172e-13
1.29114e-13
1.29175e-13
1.29109e-13
1.29179e-13
1.29114e-13
1.29189e-13
1.29118e-13
1.29196e-13
1.29119e-13
1.29193e-13
1.29119e-13
1.29184e-13
1.29126e-13
1.29179e-13
1.29133e-13
1.29185e-13
1.29131e-13
1.29188e-13
1.29132e-13
1.29184e-13
1.29131e-13
1.29184e-13
1.29134e-13
1.29185e-13
1.29136e-13
1.29185e-13
1.29136e-13
1.29183e-13
1.29137e-13
1.29182e-13
1.2914e-13
1.29185e-13
1.29141e-13
1.2919e-13
1.29144e-13
1.2919e-13
1.29145e-13
1.29189e-13
1.29144e-13
1.2919e-13
1.29144e-13
1.29195e-13
1.29146e-13
1.29196e-13
1.29147e-13
1.29198e-13
1.29149e-13
1.29202e-13
1.2915e-13
1.29204e-13
1.29154e-13
1.29206e-13
1.29155e-13
1.29208e-13
1.29153e-13
1.29212e-13
1.29152e-13
1.29216e-13
1.29154e-13
1.29218e-13
1.29151e-13
1.29219e-13
1.29149e-13
1.29218e-13
1.29147e-13
1.29218e-13
1.29145e-13
1.29219e-13
1.29145e-13
1.29221e-13
1.29144e-13
1.29224e-13
1.29142e-13
1.29223e-13
1.29141e-13
1.29224e-13
1.29141e-13
1.29225e-13
1.2914e-13
1.29226e-13
1.29139e-13
1.29227e-13
1.29137e-13
1.29228e-13
1.29136e-13
1.29229e-13
1.29136e-13
1.2923e-13
1.29134e-13
1.2923e-13
1.29133e-13
1.29229e-13
1.29131e-13
1.29229e-13
1.2913e-13
1.2923e-13
1.2913e-13
1.29232e-13
1.2913e-13
1.29232e-13
1.29127e-13
1.29232e-13
1.29126e-13
1.29232e-13
1.29125e-13
1.29232e-13
1.29125e-13
1.29234e-13
1.29124e-13
1.29235e-13
1.29124e-13
1.29235e-13
1.29123e-13
1.29234e-13
1.29121e-13
1.29234e-13
1.29122e-13
1.29234e-13
1.29123e-13
1.29234e-13
1.29123e-13
1.29233e-13
1.29123e-13
1.29231e-13
1.29123e-13
1.2923e-13
1.29122e-13
1.2923e-13
1.29122e-13
1.29229e-13
1.29122e-13
1.29228e-13
1.29122e-13
1.29228e-13
1.29122e-13
1.29228e-13
1.29122e-13
1.29227e-13
1.29121e-13
1.29227e-13
1.29121e-13
1.29227e-13
1.2912e-13
1.29227e-13
1.2912e-13
1.29226e-13
1.2912e-13
1.29226e-13
1.29119e-13
1.29227e-13
1.29118e-13
1.29228e-13
1.29117e-13
1.29229e-13
1.29116e-13
1.29229e-13
1.29116e-13
1.29229e-13
1.29116e-13
1.29229e-13
1.29115e-13
1.29229e-13
1.29115e-13
1.29228e-13
1.29114e-13
1.2923e-13
1.29114e-13
1.2923e-13
1.29113e-13
1.2923e-13
1.29113e-13
1.29231e-13
1.29112e-13
1.29231e-13
1.29112e-13
1.29231e-13
1.29112e-13
1.29231e-13
1.29111e-13
1.29231e-13
1.29111e-13
1.29231e-13
1.29111e-13
1.29231e-13
1.29111e-13
1.29232e-13
1.2911e-13
1.29232e-13
1.2911e-13
1.29232e-13
1.29109e-13
1.29233e-13
1.29109e-13
1.29232e-13
1.29109e-13
1.29232e-13
1.29109e-13
1.29233e-13
1.29108e-13
1.29233e-13
1.29108e-13
1.29233e-13
1.29108e-13
1.29232e-13
1.29108e-13
1.29232e-13
1.29108e-13
1.29233e-13
1.29108e-13
1.29233e-13
1.29108e-13
1.29233e-13
1.29108e-13
1.29233e-13
1.29108e-13
1.29233e-13
1.29108e-13
1.29233e-13
1.29108e-13
1.29233e-13
1.29108e-13
1.29233e-13
1.29108e-13
1.29233e-13
1.29108e-13
1.29234e-13
1.29108e-13
1.29234e-13
1.29107e-13
1.29234e-13
1.29107e-13
1.29234e-13
1.29107e-13
1.29234e-13
1.29107e-13
1.29234e-13
1.29107e-13
1.29234e-13
1.29107e-13
1.29234e-13
1.29107e-13
1.29234e-13
1.29107e-13
1.29234e-13
1.29107e-13
1.29234e-13
1.29107e-13
1.29234e-13
1.29107e-13
1.29234e-13
1.29107e-13
1.29234e-13
1.29107e-13
1.29234e-13
1.29107e-13
1.29234e-13
1.29107e-13
1.29234e-13
1.27779e-13
1.27813e-13
1.27825e-13
1.27844e-13
1.27876e-13
1.27891e-13
1.27934e-13
1.27894e-13
1.2791e-13
1.27894e-13
1.27949e-13
1.28003e-13
1.27926e-13
1.28081e-13
1.27872e-13
1.28021e-13
1.27918e-13
1.27942e-13
1.2788e-13
1.27924e-13
1.27838e-13
1.27862e-13
1.27846e-13
1.27889e-13
1.27794e-13
1.27876e-13
1.27699e-13
1.2788e-13
1.27682e-13
1.27859e-13
1.27717e-13
1.27787e-13
1.27715e-13
1.27788e-13
1.27706e-13
1.27803e-13
1.27711e-13
1.27717e-13
1.27687e-13
1.27627e-13
1.2767e-13
1.27665e-13
1.27684e-13
1.27718e-13
1.27723e-13
1.27739e-13
1.27702e-13
1.27727e-13
1.27706e-13
1.27774e-13
1.27734e-13
1.27767e-13
1.27727e-13
1.27761e-13
1.27716e-13
1.27758e-13
1.27697e-13
1.27696e-13
1.27739e-13
1.27663e-13
1.27757e-13
1.27746e-13
1.27712e-13
1.27703e-13
1.27697e-13
1.27625e-13
1.27718e-13
1.27596e-13
1.27686e-13
1.27579e-13
1.2766e-13
1.2761e-13
1.27699e-13
1.27631e-13
1.27678e-13
1.27608e-13
1.27659e-13
1.27642e-13
1.27671e-13
1.27704e-13
1.2768e-13
1.2765e-13
1.2769e-13
1.27655e-13
1.27734e-13
1.2772e-13
1.27762e-13
1.27749e-13
1.27773e-13
1.27692e-13
1.27755e-13
1.27726e-13
1.27755e-13
1.27807e-13
1.27766e-13
1.27822e-13
1.27757e-13
1.27838e-13
1.27843e-13
1.2789e-13
1.27876e-13
1.27893e-13
1.27873e-13
1.27929e-13
1.27885e-13
1.27948e-13
1.27878e-13
1.27936e-13
1.27917e-13
1.27976e-13
1.27954e-13
1.28019e-13
1.27937e-13
1.28065e-13
1.27965e-13
1.28081e-13
1.28006e-13
1.28099e-13
1.28044e-13
1.28118e-13
1.28081e-13
1.28156e-13
1.28081e-13
1.28213e-13
1.28095e-13
1.28257e-13
1.28157e-13
1.2827e-13
1.28164e-13
1.28287e-13
1.28168e-13
1.28341e-13
1.28185e-13
1.28383e-13
1.28198e-13
1.28411e-13
1.28189e-13
1.28428e-13
1.28226e-13
1.2845e-13
1.28257e-13
1.28425e-13
1.28284e-13
1.2843e-13
1.28308e-13
1.28464e-13
1.28337e-13
1.28509e-13
1.28362e-13
1.28531e-13
1.28392e-13
1.28548e-13
1.28419e-13
1.28576e-13
1.28451e-13
1.2859e-13
1.28481e-13
1.28597e-13
1.28524e-13
1.28648e-13
1.28558e-13
1.28701e-13
1.28588e-13
1.28723e-13
1.28617e-13
1.28737e-13
1.2866e-13
1.28736e-13
1.28677e-13
1.28761e-13
1.28693e-13
1.28803e-13
1.28741e-13
1.28847e-13
1.2877e-13
1.28875e-13
1.28798e-13
1.28904e-13
1.28833e-13
1.28926e-13
1.28867e-13
1.2894e-13
1.28899e-13
1.28947e-13
1.2894e-13
1.28955e-13
1.2898e-13
1.28962e-13
1.29005e-13
1.28961e-13
1.29021e-13
1.28977e-13
1.2903e-13
1.28983e-13
1.29072e-13
1.28981e-13
1.29083e-13
1.28994e-13
1.29095e-13
1.29007e-13
1.29115e-13
1.29018e-13
1.29117e-13
1.29033e-13
1.29123e-13
1.29048e-13
1.29135e-13
1.29062e-13
1.29143e-13
1.29087e-13
1.29159e-13
1.29107e-13
1.29172e-13
1.29116e-13
1.2919e-13
1.29125e-13
1.29185e-13
1.29137e-13
1.29181e-13
1.29141e-13
1.29181e-13
1.29141e-13
1.29182e-13
1.29149e-13
1.29187e-13
1.29153e-13
1.29188e-13
1.29164e-13
1.29186e-13
1.29168e-13
1.29196e-13
1.29167e-13
1.29198e-13
1.29171e-13
1.29201e-13
1.29174e-13
1.292e-13
1.29181e-13
1.2921e-13
1.29184e-13
1.29213e-13
1.2918e-13
1.29221e-13
1.2918e-13
1.29224e-13
1.29182e-13
1.29232e-13
1.29188e-13
1.29236e-13
1.29191e-13
1.29237e-13
1.29187e-13
1.29242e-13
1.29185e-13
1.29242e-13
1.29193e-13
1.29239e-13
1.29198e-13
1.29238e-13
1.29196e-13
1.29241e-13
1.29188e-13
1.29237e-13
1.29188e-13
1.2924e-13
1.29191e-13
1.29238e-13
1.29191e-13
1.2924e-13
1.29188e-13
1.29232e-13
1.29189e-13
1.29237e-13
1.29188e-13
1.2924e-13
1.29189e-13
1.2923e-13
1.2919e-13
1.29226e-13
1.29193e-13
1.29228e-13
1.29195e-13
1.2923e-13
1.29194e-13
1.29226e-13
1.29195e-13
1.29222e-13
1.29195e-13
1.29222e-13
1.29195e-13
1.29223e-13
1.29194e-13
1.29225e-13
1.29194e-13
1.29224e-13
1.29196e-13
1.29221e-13
1.29198e-13
1.29221e-13
1.29203e-13
1.29221e-13
1.29206e-13
1.29221e-13
1.29207e-13
1.29218e-13
1.29208e-13
1.29219e-13
1.29209e-13
1.29218e-13
1.29211e-13
1.29218e-13
1.29213e-13
1.29218e-13
1.29216e-13
1.29219e-13
1.29219e-13
1.2922e-13
1.2922e-13
1.29219e-13
1.29224e-13
1.29218e-13
1.29226e-13
1.29218e-13
1.29227e-13
1.2922e-13
1.29228e-13
1.29219e-13
1.29229e-13
1.29218e-13
1.2923e-13
1.29217e-13
1.29232e-13
1.29219e-13
1.29232e-13
1.2922e-13
1.29232e-13
1.2922e-13
1.29234e-13
1.29221e-13
1.29233e-13
1.2922e-13
1.29233e-13
1.29221e-13
1.29233e-13
1.29221e-13
1.29234e-13
1.2922e-13
1.29235e-13
1.2922e-13
1.29236e-13
1.2922e-13
1.29237e-13
1.29221e-13
1.29238e-13
1.2922e-13
1.29239e-13
1.29219e-13
1.29239e-13
1.29219e-13
1.2924e-13
1.29219e-13
1.29242e-13
1.29219e-13
1.29242e-13
1.29219e-13
1.29241e-13
1.2922e-13
1.29241e-13
1.2922e-13
1.29242e-13
1.29219e-13
1.29242e-13
1.29219e-13
1.29243e-13
1.29219e-13
1.29243e-13
1.29219e-13
1.29243e-13
1.29219e-13
1.29243e-13
1.2922e-13
1.29243e-13
1.29221e-13
1.29244e-13
1.29221e-13
1.29244e-13
1.29221e-13
1.29243e-13
1.29221e-13
1.29244e-13
1.29221e-13
1.29244e-13
1.29221e-13
1.29244e-13
1.29221e-13
1.29245e-13
1.29221e-13
1.29244e-13
1.29221e-13
1.29245e-13
1.2922e-13
1.29246e-13
1.2922e-13
1.29246e-13
1.2922e-13
1.29245e-13
1.29219e-13
1.29245e-13
1.29219e-13
1.29245e-13
1.29218e-13
1.29245e-13
1.29218e-13
1.29245e-13
1.29218e-13
1.29245e-13
1.29217e-13
1.29245e-13
1.29217e-13
1.29246e-13
1.29217e-13
1.29246e-13
1.29217e-13
1.29246e-13
1.29216e-13
1.29246e-13
1.29216e-13
1.29246e-13
1.29216e-13
1.29246e-13
1.29216e-13
1.29247e-13
1.29215e-13
1.29247e-13
1.29215e-13
1.29247e-13
1.29215e-13
1.29247e-13
1.29215e-13
1.29247e-13
1.29215e-13
1.29248e-13
1.29214e-13
1.29248e-13
1.29215e-13
1.29248e-13
1.29214e-13
1.29248e-13
1.29214e-13
1.29248e-13
1.29214e-13
1.29249e-13
1.29214e-13
1.29249e-13
1.29214e-13
1.29249e-13
1.29215e-13
1.29249e-13
1.29214e-13
1.29249e-13
1.29214e-13
1.29249e-13
1.29214e-13
1.29249e-13
1.29214e-13
1.2925e-13
1.29214e-13
1.2925e-13
1.29214e-13
1.29249e-13
1.29214e-13
1.29249e-13
1.29214e-13
1.2925e-13
1.29214e-13
1.2925e-13
1.29215e-13
1.2925e-13
1.29214e-13
1.2925e-13
1.29215e-13
1.2925e-13
1.29215e-13
1.2925e-13
1.29215e-13
1.2925e-13
1.29214e-13
1.2925e-13
1.29214e-13
1.2925e-13
1.29214e-13
1.2925e-13
1.29214e-13
1.2925e-13
1.29214e-13
1.2925e-13
1.29214e-13
1.2925e-13
1.29214e-13
1.2925e-13
)
;

boundaryField
{
    walls
    {
        type            zeroGradient;
    }
    inlet
    {
        type            cyclic;
    }
    outlet
    {
        type            cyclic;
    }
    sides
    {
        type            empty;
    }
}


// ************************************************************************* //
