/*--------------------------------*- C++ -*----------------------------------*\
| =========                 |                                                 |
| \\      /  F ield         | OpenFOAM: The Open Source CFD Toolbox           |
|  \\    /   O peration     | Version:  2106                                  |
|   \\  /    A nd           | Website:  www.openfoam.com                      |
|    \\/     M anipulation  |                                                 |
\*---------------------------------------------------------------------------*/
FoamFile
{
    version     2.0;
    format      ascii;
    arch        "LSB;label=32;scalar=64";
    class       volScalarField;
    location    "10070";
    object      p;
}
// * * * * * * * * * * * * * * * * * * * * * * * * * * * * * * * * * * * * * //

dimensions      [0 2 -2 0 0 0 0];

internalField   nonuniform List<scalar> 
800
(
1.20477e-15
-1.07661e-15
2.61248e-15
-1.07816e-15
2.47346e-15
-1.08125e-15
1.87026e-15
-1.0863e-15
1.34861e-15
-1.09341e-15
9.06734e-16
-1.10257e-15
4.91084e-16
-1.11376e-15
9.29643e-17
-1.12695e-15
-2.84505e-16
-1.14217e-15
-6.40681e-16
-1.15908e-15
-9.75891e-16
-1.17811e-15
-1.29138e-15
-1.19942e-15
-1.58808e-15
-1.22254e-15
-1.8665e-15
-1.24762e-15
-2.12767e-15
-1.27472e-15
-2.37209e-15
-1.3038e-15
-2.60027e-15
-1.3347e-15
-2.81306e-15
-1.36742e-15
-3.01079e-15
-1.4025e-15
-3.19433e-15
-1.44007e-15
-3.36437e-15
-1.47947e-15
-3.52099e-15
-1.52146e-15
-3.66524e-15
-1.56534e-15
-3.79789e-15
-1.60996e-15
-3.91835e-15
-1.65797e-15
-4.02893e-15
-1.70891e-15
-4.12949e-15
-1.76266e-15
-4.21941e-15
-1.8194e-15
-4.30147e-15
-1.87824e-15
-4.37636e-15
-1.93949e-15
-4.44475e-15
-2.00347e-15
-4.50587e-15
-2.06974e-15
-4.56101e-15
-2.13901e-15
-4.60865e-15
-2.21309e-15
-4.65252e-15
-2.28958e-15
-4.69084e-15
-2.3693e-15
-4.72555e-15
-2.45373e-15
-4.75859e-15
-2.53986e-15
-4.7861e-15
-2.62857e-15
-4.8062e-15
-2.72088e-15
-4.82664e-15
-2.81667e-15
-4.84052e-15
-2.91331e-15
-4.8572e-15
-3.0158e-15
-4.87339e-15
-3.11758e-15
-4.88272e-15
-3.21705e-15
-4.89094e-15
-3.31964e-15
-4.89837e-15
-3.42405e-15
-4.90824e-15
-3.53051e-15
-4.91168e-15
-3.63321e-15
-4.9274e-15
-3.73228e-15
-4.93692e-15
-3.84064e-15
-4.94969e-15
-3.93952e-15
-4.96918e-15
-4.03574e-15
-4.98531e-15
-4.13658e-15
-5.01188e-15
-4.23596e-15
-5.04206e-15
-4.34181e-15
-5.07187e-15
-4.44431e-15
-5.11233e-15
-4.54068e-15
-5.15594e-15
-4.63935e-15
-5.19488e-15
-4.74936e-15
-5.24403e-15
-4.85675e-15
-5.2942e-15
-4.93863e-15
-5.3365e-15
-5.0201e-15
-5.37859e-15
-5.13668e-15
-5.40911e-15
-5.27671e-15
-5.45657e-15
-5.37831e-15
-5.50043e-15
-5.44516e-15
-5.57656e-15
-5.52376e-15
-5.63882e-15
-5.61451e-15
-5.72109e-15
-5.70229e-15
-5.80499e-15
-5.78752e-15
-5.89231e-15
-5.86986e-15
-5.9849e-15
-5.94861e-15
-6.06465e-15
-6.04289e-15
-6.11037e-15
-6.11638e-15
-6.16232e-15
-6.17299e-15
-6.21555e-15
-6.21283e-15
-6.2922e-15
-6.29502e-15
-6.32589e-15
-6.33515e-15
-6.3566e-15
-6.33445e-15
-6.39031e-15
-6.39179e-15
-6.43873e-15
-6.41923e-15
-6.44883e-15
-6.40646e-15
-6.52886e-15
-6.49104e-15
-6.63021e-15
-6.56995e-15
-6.71366e-15
-6.74498e-15
-6.80449e-15
-6.77306e-15
-6.8362e-15
-6.81832e-15
-6.95264e-15
-6.92615e-15
-7.00502e-15
-6.98349e-15
-7.14828e-15
-7.09866e-15
-7.26581e-15
-7.24912e-15
-7.37129e-15
-7.36859e-15
-7.47585e-15
-7.47204e-15
-7.58335e-15
-7.56769e-15
-7.71037e-15
-7.64444e-15
-7.79677e-15
-7.76528e-15
-7.7243e-15
-7.73245e-15
-7.51728e-15
-7.72436e-15
-7.56195e-15
-7.64113e-15
-2.63559e-15
-2.82448e-15
-2.63623e-15
-2.82452e-15
-2.63763e-15
-2.82474e-15
-2.64001e-15
-2.82512e-15
-2.64333e-15
-2.82574e-15
-2.64764e-15
-2.8266e-15
-2.65294e-15
-2.82765e-15
-2.6591e-15
-2.82899e-15
-2.66598e-15
-2.8307e-15
-2.67403e-15
-2.83262e-15
-2.6829e-15
-2.83475e-15
-2.69254e-15
-2.8372e-15
-2.70292e-15
-2.83998e-15
-2.71415e-15
-2.84299e-15
-2.72635e-15
-2.84637e-15
-2.73925e-15
-2.85037e-15
-2.75303e-15
-2.85457e-15
-2.76763e-15
-2.85921e-15
-2.78269e-15
-2.86472e-15
-2.79864e-15
-2.87052e-15
-2.81528e-15
-2.87683e-15
-2.83262e-15
-2.88368e-15
-2.85048e-15
-2.89195e-15
-2.86853e-15
-2.90098e-15
-2.88647e-15
-2.91094e-15
-2.90538e-15
-2.92277e-15
-2.92593e-15
-2.93532e-15
-2.94736e-15
-2.94809e-15
-2.96896e-15
-2.96258e-15
-2.99117e-15
-2.97886e-15
-3.01412e-15
-2.99569e-15
-3.03771e-15
-3.01373e-15
-3.06237e-15
-3.03366e-15
-3.08799e-15
-3.05508e-15
-3.11556e-15
-3.07867e-15
-3.14388e-15
-3.10459e-15
-3.17284e-15
-3.13354e-15
-3.20455e-15
-3.16456e-15
-3.24246e-15
-3.19189e-15
-3.28071e-15
-3.22247e-15
-3.31916e-15
-3.25881e-15
-3.36137e-15
-3.29601e-15
-3.40477e-15
-3.33524e-15
-3.45185e-15
-3.37903e-15
-3.49983e-15
-3.42046e-15
-3.54856e-15
-3.47038e-15
-3.60071e-15
-3.51874e-15
-3.65329e-15
-3.57099e-15
-3.70297e-15
-3.62687e-15
-3.75872e-15
-3.68935e-15
-3.82369e-15
-3.75518e-15
-3.8915e-15
-3.82068e-15
-3.95877e-15
-3.892e-15
-4.02168e-15
-3.96552e-15
-4.08311e-15
-4.0445e-15
-4.16037e-15
-4.12543e-15
-4.22407e-15
-4.21151e-15
-4.3067e-15
-4.28783e-15
-4.37793e-15
-4.3763e-15
-4.45191e-15
-4.48535e-15
-4.55917e-15
-4.57639e-15
-4.66878e-15
-4.6472e-15
-4.74929e-15
-4.7279e-15
-4.81653e-15
-4.81816e-15
-4.90305e-15
-4.90945e-15
-4.98309e-15
-4.98196e-15
-5.04768e-15
-5.06865e-15
-5.16772e-15
-5.17142e-15
-5.29074e-15
-5.26115e-15
-5.38317e-15
-5.37119e-15
-5.46091e-15
-5.48424e-15
-5.55743e-15
-5.58468e-15
-5.6717e-15
-5.67249e-15
-5.7458e-15
-5.743e-15
-5.77658e-15
-5.83369e-15
-5.89904e-15
-5.91211e-15
-5.99744e-15
-6.01421e-15
-6.07256e-15
-6.07954e-15
-6.14613e-15
-6.12401e-15
-6.20482e-15
-6.20788e-15
-6.29094e-15
-6.27749e-15
-6.41638e-15
-6.328e-15
-6.42173e-15
-6.3368e-15
-6.50233e-15
-6.45423e-15
-6.59803e-15
-6.49738e-15
-6.62688e-15
-6.53595e-15
-6.67838e-15
-6.64503e-15
-6.77043e-15
-6.76154e-15
-6.8511e-15
-6.85976e-15
-6.95406e-15
-6.94509e-15
-7.16449e-15
-7.07149e-15
-7.33515e-15
-7.30023e-15
-7.38371e-15
-7.40492e-15
-7.48191e-15
-7.48481e-15
-7.58227e-15
-7.5754e-15
-7.69147e-15
-7.66462e-15
-7.69165e-15
-7.73602e-15
-7.70142e-15
-7.71275e-15
-7.67916e-15
-7.69107e-15
-7.62274e-15
-7.66143e-15
-7.7087e-15
-7.67305e-15
-7.78331e-15
-7.75265e-15
-7.84192e-15
-7.83161e-15
-7.94123e-15
-7.9393e-15
-7.93722e-15
-7.94526e-15
-7.90088e-15
-7.95836e-15
-8.01447e-15
-8.01968e-15
-8.11021e-15
-8.08424e-15
-8.16424e-15
-8.14187e-15
-8.12955e-15
-8.13236e-15
-8.08774e-15
-8.05832e-15
-8.11882e-15
-8.06735e-15
-8.08533e-15
-8.05e-15
-8.13009e-15
-8.06794e-15
-8.04155e-15
-8.04801e-15
-8.03605e-15
-8.01533e-15
-7.97579e-15
-8.00819e-15
-7.94671e-15
-7.95482e-15
-7.8593e-15
-7.90149e-15
-7.8954e-15
-7.90263e-15
-7.88093e-15
-7.85938e-15
-7.85521e-15
-7.79654e-15
-7.80801e-15
-7.7043e-15
-7.7251e-15
-7.63302e-15
-7.69121e-15
-7.6239e-15
-7.69714e-15
-7.64429e-15
-7.67415e-15
-7.63585e-15
-7.64139e-15
-7.6026e-15
-7.59738e-15
-7.56587e-15
-7.58031e-15
-7.54672e-15
-7.58682e-15
-7.56379e-15
-7.57741e-15
-7.57978e-15
-7.58851e-15
-7.57857e-15
-7.58361e-15
-7.55988e-15
-7.57314e-15
-7.55914e-15
-7.58249e-15
-7.5578e-15
-7.57672e-15
-7.57223e-15
-7.57214e-15
-7.5868e-15
-7.56721e-15
-7.57781e-15
-7.57e-15
-7.57026e-15
-7.58087e-15
-7.58745e-15
-7.58355e-15
-7.58131e-15
-7.57864e-15
-7.57574e-15
-7.56642e-15
-7.58594e-15
-7.57609e-15
-7.58971e-15
-7.58515e-15
-7.58346e-15
-7.59049e-15
-7.58474e-15
-7.59249e-15
-7.58957e-15
-7.5913e-15
-7.59114e-15
-7.60367e-15
-7.58956e-15
-7.60658e-15
-7.59116e-15
-7.60993e-15
-7.58948e-15
-7.61069e-15
-7.58771e-15
-7.60599e-15
-7.58581e-15
-7.60769e-15
-7.58673e-15
-7.60693e-15
-7.58464e-15
-7.60383e-15
-7.58383e-15
-7.60381e-15
-7.58157e-15
-7.60542e-15
-7.58053e-15
-7.60351e-15
-7.58189e-15
-7.6007e-15
-7.58681e-15
-7.59936e-15
-7.59036e-15
-7.60055e-15
-7.58915e-15
-7.60072e-15
-7.58681e-15
-7.60105e-15
-7.58339e-15
-7.60153e-15
-7.58386e-15
-7.6016e-15
-7.5843e-15
-7.60126e-15
-7.5831e-15
-7.59997e-15
-7.58134e-15
-7.59933e-15
-7.58116e-15
-7.59932e-15
-7.58096e-15
-7.59939e-15
-7.5802e-15
-7.59928e-15
-7.57939e-15
-7.59924e-15
-7.5794e-15
-7.59926e-15
-7.5791e-15
-7.59965e-15
-7.57848e-15
-7.59981e-15
-7.57812e-15
-7.59873e-15
-7.5787e-15
-7.59884e-15
-7.57895e-15
-7.59881e-15
-7.57903e-15
-7.59883e-15
-7.57891e-15
-7.59907e-15
-7.57898e-15
-7.59935e-15
-7.57903e-15
-7.59946e-15
-7.57866e-15
-7.59972e-15
-7.57892e-15
-7.5999e-15
-7.57907e-15
-7.60011e-15
-7.5791e-15
-7.6001e-15
-7.57925e-15
-7.60024e-15
-7.5794e-15
-7.60047e-15
-7.57949e-15
-7.60073e-15
-7.5795e-15
-7.60079e-15
-7.57937e-15
-7.60087e-15
-7.57921e-15
-7.60104e-15
-7.57922e-15
-7.60119e-15
-7.57917e-15
-7.60122e-15
-7.57913e-15
-7.60124e-15
-7.57912e-15
-7.60127e-15
-7.57911e-15
-7.60129e-15
-7.57909e-15
-7.60131e-15
-7.57909e-15
-7.69461e-15
-7.71367e-15
-7.86326e-15
-7.68952e-15
-7.80184e-15
-7.767e-15
-7.89681e-15
-7.88432e-15
-7.97752e-15
-7.94874e-15
-7.98381e-15
-7.98077e-15
-8.03661e-15
-8.02072e-15
-8.11407e-15
-8.04518e-15
-8.13019e-15
-8.11359e-15
-8.14564e-15
-8.15622e-15
-8.10076e-15
-8.09787e-15
-8.06302e-15
-8.05186e-15
-8.07178e-15
-8.05124e-15
-8.14243e-15
-8.0943e-15
-8.1318e-15
-8.11906e-15
-8.09535e-15
-8.10134e-15
-8.01825e-15
-8.05304e-15
-7.98776e-15
-7.97716e-15
-7.91948e-15
-7.95212e-15
-7.89988e-15
-7.8976e-15
-7.83482e-15
-7.79565e-15
-7.77523e-15
-7.74661e-15
-7.73676e-15
-7.73116e-15
-7.64812e-15
-7.7177e-15
-7.62714e-15
-7.63929e-15
-7.64141e-15
-7.63007e-15
-7.61075e-15
-7.61801e-15
-7.59547e-15
-7.58533e-15
-7.5585e-15
-7.55071e-15
-7.58033e-15
-7.53468e-15
-7.56792e-15
-7.53262e-15
-7.53924e-15
-7.54452e-15
-7.54639e-15
-7.53626e-15
-7.54326e-15
-7.52549e-15
-7.54905e-15
-7.54842e-15
-7.55393e-15
-7.56162e-15
-7.54858e-15
-7.54902e-15
-7.5596e-15
-7.54456e-15
-7.57088e-15
-7.54666e-15
-7.56674e-15
-7.55502e-15
-7.5712e-15
-7.56235e-15
-7.57573e-15
-7.55284e-15
-7.57312e-15
-7.54216e-15
-7.5715e-15
-7.5453e-15
-7.57823e-15
-7.54694e-15
-7.58572e-15
-7.558e-15
-7.57952e-15
-7.56424e-15
-7.57369e-15
-7.55931e-15
-7.5647e-15
-7.57086e-15
-7.56881e-15
-7.57211e-15
-7.57247e-15
-7.57e-15
-7.57264e-15
-7.56774e-15
-7.57262e-15
-7.56838e-15
-7.5724e-15
-7.56881e-15
-7.57202e-15
-7.57201e-15
-7.5743e-15
-7.5722e-15
-7.57224e-15
-7.57369e-15
-7.57007e-15
-7.57242e-15
-7.56781e-15
-7.57247e-15
-7.5667e-15
-7.57125e-15
-7.56423e-15
-7.57006e-15
-7.56407e-15
-7.57009e-15
-7.56261e-15
-7.56658e-15
-7.56336e-15
-7.56311e-15
-7.56401e-15
-7.56077e-15
-7.56513e-15
-7.56062e-15
-7.56454e-15
-7.56204e-15
-7.56499e-15
-7.56232e-15
-7.56538e-15
-7.56148e-15
-7.56519e-15
-7.56167e-15
-7.5655e-15
-7.56075e-15
-7.56579e-15
-7.55978e-15
-7.56633e-15
-7.55903e-15
-7.56687e-15
-7.55851e-15
-7.56682e-15
-7.55911e-15
-7.56646e-15
-7.55969e-15
-7.56762e-15
-7.55934e-15
-7.56817e-15
-7.55927e-15
-7.56856e-15
-7.55968e-15
-7.56896e-15
-7.55973e-15
-7.56956e-15
-7.55921e-15
-7.56999e-15
-7.55923e-15
-7.57043e-15
-7.55902e-15
-7.57089e-15
-7.559e-15
-7.57105e-15
-7.55917e-15
-7.57121e-15
-7.55923e-15
-7.57162e-15
-7.55904e-15
-7.57192e-15
-7.55894e-15
-7.5721e-15
-7.5591e-15
-7.57222e-15
-7.55924e-15
-7.57213e-15
-7.55939e-15
-7.57227e-15
-7.55923e-15
-7.57233e-15
-7.55914e-15
-7.57239e-15
-7.55915e-15
-7.57246e-15
-7.55921e-15
-7.57239e-15
-7.55926e-15
-7.57234e-15
-7.5593e-15
-7.57234e-15
-7.55932e-15
-7.57233e-15
-7.55931e-15
-7.57232e-15
-7.55931e-15
)
;

boundaryField
{
    walls
    {
        type            zeroGradient;
    }
    inlet
    {
        type            cyclic;
    }
    outlet
    {
        type            cyclic;
    }
    sides
    {
        type            empty;
    }
}


// ************************************************************************* //
