/*--------------------------------*- C++ -*----------------------------------*\
| =========                 |                                                 |
| \\      /  F ield         | OpenFOAM: The Open Source CFD Toolbox           |
|  \\    /   O peration     | Version:  2106                                  |
|   \\  /    A nd           | Website:  www.openfoam.com                      |
|    \\/     M anipulation  |                                                 |
\*---------------------------------------------------------------------------*/
FoamFile
{
    version     2.0;
    format      ascii;
    arch        "LSB;label=32;scalar=64";
    class       surfaceScalarField;
    location    "10070";
    object      phi;
}
// * * * * * * * * * * * * * * * * * * * * * * * * * * * * * * * * * * * * * //

dimensions      [0 3 -1 0 0 0 0];

oriented        oriented;

internalField   nonuniform List<scalar> 
1596
(
7.04068e-08
-3.01533e-18
4.77099e-22
5.86673e-22
1.35767e-22
2.24721e-07
-3.02484e-18
3.40582e-21
6.16162e-21
4.92367e-22
4.01021e-07
-3.03521e-18
3.71113e-21
1.2206e-20
5.65197e-22
6.0177e-07
-3.04619e-18
3.95592e-21
1.85612e-20
6.47987e-22
8.29684e-07
-3.05797e-18
4.21618e-21
2.52178e-20
7.41972e-22
1.08776e-06
-3.07015e-18
4.4934e-21
3.20057e-20
8.48511e-22
1.37929e-06
-3.08267e-18
4.7803e-21
3.86691e-20
9.69068e-22
1.70791e-06
-3.09617e-18
5.07451e-21
4.61402e-20
1.10539e-21
2.07764e-06
-3.11014e-18
5.37538e-21
5.30995e-20
1.25927e-21
2.49288e-06
-3.12543e-18
5.68163e-21
6.09901e-20
1.43277e-21
2.95847e-06
-3.14175e-18
5.99126e-21
6.95711e-20
1.62775e-21
3.47977e-06
-3.15803e-18
6.30184e-21
7.72014e-20
1.84624e-21
4.06263e-06
-3.17545e-18
6.61028e-21
8.53875e-20
2.09108e-21
4.7135e-06
-3.19088e-18
6.91361e-21
9.22973e-20
2.36454e-21
5.43946e-06
-3.20809e-18
7.20723e-21
9.98839e-20
2.66964e-21
6.24824e-06
-3.22583e-18
7.48673e-21
1.06241e-19
3.00891e-21
7.14832e-06
-3.24278e-18
7.74714e-21
1.12241e-19
3.38501e-21
8.14895e-06
-3.26039e-18
7.98151e-21
1.1947e-19
3.80147e-21
9.26015e-06
-3.27928e-18
8.18283e-21
1.25512e-19
4.25938e-21
1.04928e-05
-3.29508e-18
8.34401e-21
1.28459e-19
4.75968e-21
1.18585e-05
-3.31239e-18
8.45463e-21
1.30565e-19
5.30454e-21
1.33698e-05
-3.32726e-18
8.50526e-21
1.32384e-19
5.89357e-21
1.50398e-05
-3.3416e-18
8.48042e-21
1.30238e-19
6.52832e-21
1.6882e-05
-3.36624e-18
8.36542e-21
1.39952e-19
7.20746e-21
1.89104e-05
-3.37269e-18
8.1554e-21
1.34026e-19
7.91361e-21
2.1139e-05
-3.38462e-18
7.82853e-21
1.31778e-19
8.64748e-21
2.35813e-05
-3.39841e-18
7.38276e-21
1.24242e-19
9.38524e-21
2.62503e-05
-3.40044e-18
6.81443e-21
1.07654e-19
1.01059e-20
2.91579e-05
-3.39259e-18
6.09803e-21
8.66775e-20
1.08106e-20
3.23146e-05
-3.38615e-18
5.22141e-21
6.79432e-20
1.14783e-20
3.57297e-05
-3.37483e-18
4.18654e-21
3.70293e-20
1.20694e-20
3.94111e-05
-3.37e-18
3.00117e-21
1.37032e-20
1.25744e-20
4.33659e-05
-3.35891e-18
1.6932e-21
-9.87931e-21
1.29679e-20
4.76004e-05
-3.32652e-18
2.82127e-22
-5.02569e-20
1.32093e-20
5.21208e-05
-3.3032e-18
-1.23998e-21
-8.59848e-20
1.33296e-20
5.69339e-05
-3.26487e-18
-2.83203e-21
-1.23256e-19
1.32968e-20
6.20472e-05
-3.232e-18
-4.48905e-21
-1.62299e-19
1.31162e-20
6.74693e-05
-3.20575e-18
-6.17769e-21
-1.99036e-19
1.27629e-20
7.32104e-05
-3.17462e-18
-7.77467e-21
-2.48185e-19
1.21305e-20
7.92821e-05
-3.12233e-18
-9.36289e-21
-2.81692e-19
1.13612e-20
8.56977e-05
-3.08213e-18
-1.10096e-20
-3.41306e-19
1.04497e-20
9.24721e-05
-3.01016e-18
-1.26181e-20
-3.79419e-19
9.36078e-21
9.96218e-05
-2.94748e-18
-1.43588e-20
-4.53194e-19
8.02686e-21
0.000107165
-2.91277e-18
-1.6082e-20
-5.15768e-19
6.66858e-21
0.000115121
-2.84354e-18
-1.7621e-20
-5.78698e-19
5.17939e-21
0.000123512
-2.77922e-18
-1.91107e-20
-6.6246e-19
3.73779e-21
0.000132359
-2.68965e-18
-2.05424e-20
-7.10208e-19
2.23056e-21
0.000141688
-2.66601e-18
-2.20051e-20
-7.70863e-19
6.36251e-22
0.000151523
-2.54139e-18
-2.32517e-20
-8.50321e-19
-9.40257e-22
0.000161893
-2.47273e-18
-2.4564e-20
-9.04977e-19
-2.27332e-21
0.000172825
-2.36966e-18
-2.54704e-20
-9.9393e-19
-3.64119e-21
0.00018435
-2.27972e-18
-2.64262e-20
-1.03286e-18
-4.48865e-21
0.000196501
-2.21682e-18
-2.74312e-20
-1.0598e-18
-4.86219e-21
0.000209311
-2.10808e-18
-2.83415e-20
-1.10129e-18
-5.55011e-21
0.000222815
-2.01826e-18
-2.94608e-20
-1.12579e-18
-6.33357e-21
0.000237051
-1.95011e-18
-3.00887e-20
-1.16539e-18
-7.57708e-21
0.000252058
-1.83066e-18
-3.0952e-20
-1.13461e-18
-8.37086e-21
0.000267877
-1.75507e-18
-3.22839e-20
-1.17017e-18
-9.95515e-21
0.000284552
-1.7414e-18
-3.37494e-20
-1.16091e-18
-1.06031e-20
0.000302128
-1.66356e-18
-3.37126e-20
-1.13863e-18
-1.00218e-20
0.000320653
-1.60761e-18
-3.1893e-20
-1.18598e-18
-1.05821e-20
0.000340176
-1.6423e-18
-2.97335e-20
-1.18831e-18
-1.15702e-20
0.000360751
-1.55945e-18
-2.82251e-20
-1.14891e-18
-1.28818e-20
0.000382433
-1.58011e-18
-3.02232e-20
-1.0689e-18
-1.56247e-20
0.000405279
-1.49319e-18
-2.9319e-20
-1.12884e-18
-2.10863e-20
0.000429351
-1.41352e-18
-2.81983e-20
-1.19507e-18
-2.46589e-20
0.000454711
-1.27227e-18
-2.72337e-20
-1.15489e-18
-2.23536e-20
0.000481427
-1.24641e-18
-2.37795e-20
-1.152e-18
-2.04863e-20
0.000509568
-1.12514e-18
-1.74885e-20
-1.12394e-18
-1.97298e-20
0.000539208
-1.12703e-18
-1.70346e-20
-1.14011e-18
-1.98268e-20
0.000570422
-1.11134e-18
-2.04091e-20
-1.15051e-18
-1.8677e-20
0.000603292
-1.16551e-18
-3.03226e-20
-1.17445e-18
-1.72592e-20
0.000637901
-1.17165e-18
-3.59412e-20
-1.19279e-18
-1.89564e-20
0.000674336
-1.28886e-18
-4.21178e-20
-1.28326e-18
-2.67519e-20
0.00071269
-1.24788e-18
-4.69769e-20
-1.20436e-18
-2.70073e-20
0.000753057
-1.23752e-18
-3.71698e-20
-1.17701e-18
-2.93318e-20
0.000795537
-1.23621e-18
-3.09408e-20
-1.24442e-18
-3.07506e-20
0.000840234
-1.21451e-18
-3.00545e-20
-1.24158e-18
-3.76102e-20
0.000887257
-1.22961e-18
-2.76865e-20
-1.21798e-18
-3.55889e-20
0.000936718
-1.26144e-18
-3.54434e-20
-1.20834e-18
-1.88861e-20
0.000988732
-1.17693e-18
-2.36231e-20
-1.22937e-18
-3.05729e-20
0.00104342
-1.148e-18
-4.53346e-21
-1.13648e-18
-2.19693e-20
0.00110091
-9.344e-19
2.61756e-20
-8.47593e-19
-1.40089e-20
0.00116133
-8.07375e-19
3.00473e-20
-1.02989e-18
-1.26683e-20
0.00122481
-1.01152e-18
3.30948e-20
-7.08064e-19
-1.59561e-20
0.00129149
-8.49358e-19
2.45294e-20
-9.41275e-19
-6.39357e-20
0.0013615
-8.68971e-19
-5.05514e-21
-9.83963e-19
-4.48196e-20
0.00143498
-7.85363e-19
-9.10638e-21
-7.8682e-19
-8.93574e-21
0.00151207
-8.91724e-19
-3.88687e-20
-9.63312e-19
-3.67912e-20
0.00159292
-8.12657e-19
-3.64305e-20
-7.9479e-19
-2.08893e-20
0.00167764
-8.5283e-19
7.45422e-21
-8.81169e-19
-5.85123e-21
0.00176637
-9.76593e-19
4.98307e-20
-9.25826e-19
4.82898e-20
0.00185922
-9.05977e-19
-6.7282e-21
-8.65874e-19
2.98861e-20
0.00195629
-8.52679e-19
-1.12846e-20
-9.5685e-19
-3.2055e-20
0.00205764
-7.95588e-19
-6.64171e-21
-9.52852e-19
-1.22798e-21
0.0021633
-9.14357e-19
-1.49773e-20
-7.21443e-19
3.99774e-20
0.00227324
-1.17227e-18
-1.12948e-19
-1.16822e-18
-6.55434e-20
0.00238736
-1.17184e-18
3.07462e-20
-9.06861e-19
-4.43432e-21
0.00250547
-9.32238e-19
1.68136e-19
-8.60502e-19
7.44647e-21
0.00262728
2.25235e-19
-2.35292e-19
9.09676e-20
-5.3634e-19
7.04068e-08
4.54884e-22
1.61614e-22
2.24721e-07
3.55538e-21
9.49025e-22
4.01021e-07
7.01433e-21
1.78716e-21
6.0177e-07
1.06404e-20
2.85957e-21
8.29684e-07
1.44256e-20
4.14516e-21
1.08776e-06
1.86267e-20
5.34991e-21
1.37929e-06
2.27993e-20
7.07888e-21
1.70791e-06
2.68084e-20
9.17653e-21
2.07764e-06
3.20395e-20
1.10716e-20
2.49288e-06
3.72013e-20
1.2795e-20
2.95847e-06
4.23205e-20
1.47292e-20
3.47977e-06
4.71736e-20
1.75617e-20
4.06263e-06
5.29355e-20
2.03513e-20
4.7135e-06
5.93518e-20
2.3205e-20
5.43946e-06
6.57339e-20
2.61731e-20
6.24824e-06
7.31114e-20
2.95067e-20
7.14832e-06
7.892e-20
3.58322e-20
8.14895e-06
8.43922e-20
4.08637e-20
9.26015e-06
9.11979e-20
4.51752e-20
1.04928e-05
9.92591e-20
5.04199e-20
1.18585e-05
1.07634e-19
5.64075e-20
1.33698e-05
1.11774e-19
6.83459e-20
1.50398e-05
1.14458e-19
7.93663e-20
1.6882e-05
1.17706e-19
9.20221e-20
1.89104e-05
1.25637e-19
1.07401e-19
2.1139e-05
1.37275e-19
1.16463e-19
2.35813e-05
1.48973e-19
1.21772e-19
2.62503e-05
1.5009e-19
1.38814e-19
2.91579e-05
1.50619e-19
1.53427e-19
3.23146e-05
1.49983e-19
1.64911e-19
3.57297e-05
1.52843e-19
1.7217e-19
3.94111e-05
1.53426e-19
1.84386e-19
4.33659e-05
1.5542e-19
1.91991e-19
4.76004e-05
1.58884e-19
2.07462e-19
5.21208e-05
1.58233e-19
2.15533e-19
5.69339e-05
1.62813e-19
2.32682e-19
6.20472e-05
1.67847e-19
2.42331e-19
6.74693e-05
2.01019e-19
2.15892e-19
7.32104e-05
2.05768e-19
2.25638e-19
7.92821e-05
2.08973e-19
2.55927e-19
8.56977e-05
2.197e-19
2.56589e-19
9.24721e-05
2.07918e-19
2.58902e-19
9.96218e-05
2.06941e-19
2.75314e-19
0.000107165
1.96982e-19
2.59943e-19
0.000115121
1.84176e-19
2.77337e-19
0.000123512
1.66201e-19
2.549e-19
0.000132359
1.63732e-19
2.50352e-19
0.000141688
1.30112e-19
2.41748e-19
0.000151523
1.50728e-19
2.52066e-19
0.000161893
1.6878e-19
2.56632e-19
0.000172825
1.58303e-19
2.46152e-19
0.00018435
1.40599e-19
2.56158e-19
0.000196501
1.10371e-19
2.39948e-19
0.000209311
8.55782e-20
2.19738e-19
0.000222815
1.04356e-19
1.93535e-19
0.000237051
7.84788e-20
2.21932e-19
0.000252058
9.96811e-20
1.9397e-19
0.000267877
8.84203e-20
1.92268e-19
0.000284552
9.25359e-20
2.27774e-19
0.000302128
1.56806e-19
1.63893e-19
0.000320653
1.34749e-19
6.58786e-20
0.000340176
1.08899e-20
1.20239e-20
0.000360751
-8.71834e-20
-1.6112e-20
0.000382433
-9.02318e-20
-2.47117e-20
0.000405279
-8.49921e-20
-3.75044e-20
0.000429351
-1.06534e-19
-3.2008e-20
0.000454711
-1.86803e-20
-5.40626e-20
0.000481427
-2.50554e-20
-8.69772e-20
0.000509568
-5.66117e-20
-1.2967e-19
0.000539208
-1.45847e-19
-1.26305e-19
0.000570422
-2.75609e-19
-1.25974e-19
0.000603292
-2.62696e-19
-2.09154e-19
0.000637901
-2.82796e-19
-3.03063e-19
0.000674336
-4.17168e-19
-3.19351e-19
0.00071269
-2.58139e-19
-3.50008e-19
0.000753057
-3.05557e-19
-3.20488e-19
0.000795537
-3.68116e-19
-3.83624e-19
0.000840234
-4.37843e-19
-4.11159e-19
0.000887257
-6.44067e-19
-4.89685e-19
0.000936718
-6.27649e-19
-8.0266e-19
0.000988732
-7.14016e-19
-8.29599e-19
0.00104342
-8.077e-19
-9.73527e-19
0.00110091
-8.04488e-19
-8.08407e-19
0.00116133
-6.78584e-19
-8.93016e-19
0.00122481
-8.61017e-19
-5.99691e-19
0.00129149
-7.8037e-19
-5.96867e-19
0.0013615
-7.40347e-19
-6.96132e-19
0.00143498
-7.33355e-19
-7.33346e-19
0.00151207
-7.97858e-19
-8.56901e-19
0.00159292
-6.46944e-19
-7.48303e-19
0.00167764
-6.42612e-19
-6.63897e-19
0.00176637
-9.75336e-19
-8.0562e-19
0.00185922
-8.51788e-19
-8.75033e-19
0.00195629
-8.89313e-19
-9.32545e-19
0.00205764
-8.69712e-19
-9.76185e-19
0.0021633
-1.07334e-18
-9.2642e-19
0.00227324
-9.5114e-19
-1.07776e-18
0.00238736
-1.04291e-18
-9.67305e-19
0.00250547
-9.28469e-19
-8.78641e-19
0.00262728
-5.34838e-19
-5.89097e-19
0.00262728
-3.36414e-19
5.57594e-22
-2.67075e-19
1.02173e-19
0.00250547
-1.93179e-19
7.4448e-20
-1.55275e-19
-1.55384e-20
0.00238736
-7.57779e-20
1.04374e-21
-7.68992e-20
1.12453e-20
0.00227324
-2.08357e-19
1.07539e-20
-1.44372e-19
-5.02465e-20
0.0021633
-3.16263e-19
1.32659e-21
-1.05586e-19
2.19107e-20
0.00205764
-1.07943e-19
6.54888e-20
-1.97468e-19
-3.39599e-20
0.00195629
-2.54072e-19
5.48801e-21
-3.4592e-19
-6.31798e-20
0.00185922
-2.22494e-19
2.04545e-20
-4.30839e-19
-6.9854e-20
0.00176637
-3.99252e-19
-2.64952e-20
-3.96556e-19
-2.92341e-20
0.00167764
-4.30489e-19
2.02678e-20
-5.76369e-19
5.78563e-21
0.00159292
-2.97016e-19
1.03012e-20
-1.80424e-19
5.87426e-20
0.00151207
-4.51577e-19
-4.14787e-20
-2.8177e-19
-1.03018e-20
0.00143498
-3.45224e-19
-2.89013e-20
-4.02933e-19
-3.90094e-20
0.0013615
-6.71234e-19
1.09689e-20
-4.51376e-19
-1.09303e-20
0.00129149
-3.92808e-19
7.50012e-20
-6.09996e-19
3.28965e-20
0.00122481
-6.32253e-19
4.10003e-20
-4.3685e-19
5.22466e-20
0.00116133
-4.94156e-19
2.33498e-20
-4.5199e-19
9.371e-21
0.00110091
-5.21016e-19
2.13122e-20
-5.25941e-19
-2.06838e-21
0.00104342
-2.55499e-19
9.49231e-21
-5.22675e-19
-9.49239e-21
0.000988732
-2.75196e-19
-1.12174e-20
-4.45991e-19
-2.08488e-20
0.000936718
-2.80499e-19
-2.91093e-20
-3.87388e-19
-3.84074e-20
0.000887257
-2.88063e-19
-3.57735e-20
-3.88738e-19
-3.05306e-20
0.000840234
-3.87566e-19
-3.11329e-20
-3.27189e-19
-1.81196e-21
0.000795537
-2.46232e-19
-2.82522e-20
-2.14337e-19
1.39063e-20
0.000753057
-1.71524e-19
-2.2651e-20
-1.10791e-19
6.68463e-21
0.00071269
-1.95797e-19
-1.73942e-20
-1.40254e-19
-3.39489e-21
0.000674336
-1.74633e-19
-1.1841e-20
-1.6758e-19
-7.83084e-21
0.000637901
-2.53971e-19
-1.00022e-20
-1.26636e-19
-6.82289e-21
0.000603292
-1.65448e-19
-5.26835e-21
-1.58644e-19
-1.11554e-20
0.000570422
-1.72596e-19
-1.78108e-21
-9.91145e-20
-8.00531e-21
0.000539208
-1.47837e-19
-3.44934e-21
-1.46563e-19
-8.47269e-21
0.000509568
-1.15397e-19
-8.29704e-21
-8.87959e-20
-8.55041e-21
0.000481427
-1.3698e-19
-8.34272e-21
-1.24521e-19
-9.32444e-21
0.000454711
-1.46069e-19
-8.26757e-21
-9.93418e-20
-7.95136e-21
0.000429351
-1.06942e-19
-6.23432e-21
-1.04575e-19
-4.75422e-21
0.000405279
-1.51281e-19
-6.0476e-21
-5.75666e-20
-2.76819e-21
0.000382433
-1.35657e-19
-4.79002e-21
-6.81033e-20
-4.60287e-21
0.000360751
-9.16367e-20
-2.04927e-21
-1.20367e-19
-5.92445e-21
0.000340176
-8.16984e-20
3.73121e-22
-1.02941e-19
-5.87923e-21
0.000320653
-6.85437e-20
-9.74849e-23
-3.03101e-20
-4.27073e-21
0.000302128
-7.55433e-20
-3.27456e-22
-6.031e-20
-4.23613e-21
0.000284552
-8.29768e-20
-8.05501e-23
-3.98261e-20
-3.46988e-21
0.000267877
-9.93725e-20
2.42348e-22
-3.60792e-20
-3.03501e-21
0.000252058
-2.16457e-20
8.77991e-22
-9.70158e-20
-2.84567e-21
0.000237051
-2.08979e-20
5.41408e-22
-9.56936e-20
-2.08522e-21
0.000222815
-1.21943e-21
8.90962e-23
-4.8118e-20
-9.18404e-22
0.000209311
5.25764e-22
-5.57443e-22
-4.57318e-20
-4.80087e-22
0.000196501
-1.89699e-20
-1.02974e-21
-2.97832e-20
-8.71949e-22
0.00018435
2.34442e-20
-1.26281e-21
-4.32381e-20
-7.35885e-22
0.000172825
-2.25143e-21
-1.48623e-21
-1.15881e-20
-5.95737e-22
0.000161893
1.14885e-20
-1.50848e-21
-1.75083e-20
-6.00983e-22
0.000151523
-5.66764e-21
-1.61571e-21
-2.08594e-20
-5.37367e-22
0.000141688
-2.76931e-20
-1.55168e-21
-2.46173e-20
-4.18015e-22
0.000132359
-5.64646e-22
-1.30481e-21
-1.61191e-20
-3.05267e-22
0.000123512
-1.67475e-20
-1.20474e-21
-2.24311e-20
-1.99705e-22
0.000115121
-2.2495e-20
-1.05234e-21
-2.15034e-20
-1.0033e-22
0.000107165
-1.28227e-20
-9.54303e-22
-2.84765e-20
-5.13016e-23
9.96218e-05
-4.54286e-21
-9.56104e-22
-9.97798e-21
-1.92113e-23
9.24721e-05
-1.9639e-20
-1.0194e-21
-1.62179e-21
-2.13569e-23
8.56977e-05
-2.18834e-20
-1.02419e-21
4.99335e-21
-5.92261e-23
7.92821e-05
-1.45274e-20
-1.00411e-21
-5.04123e-22
-1.55063e-22
7.32104e-05
5.52235e-21
-9.23619e-22
-9.46406e-21
-2.07826e-22
6.74693e-05
-4.29744e-21
-9.14926e-22
-7.71125e-21
-2.37675e-22
6.20472e-05
4.76247e-22
-8.32363e-22
-1.79705e-20
-2.72174e-22
5.69339e-05
-1.80124e-21
-7.61303e-22
-1.25582e-20
-2.58874e-22
5.21208e-05
-4.43193e-21
-6.85478e-22
-1.5617e-20
-2.46917e-22
4.76004e-05
-7.27582e-21
-6.26051e-22
-1.58348e-20
-2.1378e-22
4.33659e-05
-1.17092e-20
-5.62499e-22
-1.74693e-20
-1.63801e-22
3.94111e-05
-1.13749e-20
-4.85118e-22
-8.84807e-21
-1.29638e-22
3.57297e-05
-6.73597e-21
-4.1605e-22
-1.01719e-20
-1.14801e-22
3.23146e-05
-6.86718e-21
-3.61165e-22
-1.08502e-20
-1.05619e-22
2.91579e-05
-3.96224e-21
-3.12529e-22
-8.41081e-21
-9.39845e-23
2.62503e-05
-2.93747e-21
-2.69891e-22
-5.69782e-21
-8.43093e-23
2.35813e-05
-3.83747e-21
-2.32325e-22
-8.08072e-21
-7.69809e-23
2.1139e-05
-1.82871e-21
-2.01108e-22
-7.17195e-21
-6.1497e-23
1.89104e-05
-3.08117e-21
-1.77151e-22
-8.19858e-21
-4.91129e-23
1.6882e-05
-9.46043e-21
-1.50019e-22
9.20074e-22
-3.95957e-23
1.50398e-05
-5.29158e-21
-1.23853e-22
1.02984e-21
-3.57074e-23
1.33698e-05
-4.24138e-21
-1.04678e-22
1.36753e-21
-3.06031e-23
1.18585e-05
-1.98849e-21
-8.80004e-23
7.87901e-23
-2.70028e-23
1.04928e-05
-1.22196e-21
-7.35388e-23
8.36237e-22
-2.36895e-23
9.26015e-06
-2.62196e-22
-6.27459e-23
5.27071e-22
-2.08188e-23
8.14895e-06
-6.64305e-22
-5.3502e-23
-1.40519e-22
-1.84749e-23
7.14833e-06
-4.29501e-22
-4.54056e-23
6.94567e-22
-1.62585e-23
6.24824e-06
-2.4233e-22
-3.88317e-23
-3.43149e-23
-1.48341e-23
5.43946e-06
-4.43674e-22
-3.34808e-23
-1.35373e-22
-1.33448e-23
4.7135e-06
-2.77406e-22
-2.87346e-23
-1.2705e-22
-1.20739e-23
4.06263e-06
5.76392e-23
-2.47438e-23
-2.17027e-22
-1.07739e-23
3.47977e-06
2.48699e-22
-2.14257e-23
-2.76396e-22
-9.49982e-24
2.95847e-06
4.29786e-22
-1.86133e-23
-3.14925e-22
-8.28996e-24
2.49288e-06
4.94665e-22
-1.62511e-23
-1.92535e-22
-7.26608e-24
2.07764e-06
2.30871e-22
-1.41696e-23
-4.40314e-22
-6.41362e-24
1.70792e-06
2.49509e-22
-1.23824e-23
-3.85799e-22
-5.59628e-24
1.37929e-06
2.16609e-22
-1.08461e-23
-3.50417e-22
-4.89238e-24
1.08776e-06
7.13757e-23
-9.49892e-24
-1.42884e-22
-4.26086e-24
8.29683e-07
6.99296e-24
-8.32463e-24
-5.60173e-23
-3.69304e-24
6.01771e-07
-1.11429e-23
-7.27734e-24
-1.82748e-23
-3.20697e-24
4.01021e-07
5.63434e-23
-6.34429e-24
-6.70616e-23
-2.79491e-24
2.2472e-07
7.41484e-24
-5.53311e-24
-1.56093e-23
-2.43201e-24
7.04068e-08
-2.05548e-24
-1.30186e-24
0.00262728
-2.69591e-19
-4.01621e-19
0.00250547
-3.35866e-19
-1.54513e-19
0.00238736
-6.8207e-20
-1.97979e-19
0.00227324
-9.99742e-20
1.17523e-19
0.0021633
-3.13213e-20
-5.46699e-20
0.00205764
-1.02904e-19
-1.56422e-19
0.00195629
-1.42933e-19
-2.44736e-19
0.00185922
-3.15002e-19
-2.8589e-19
0.00176637
-3.14976e-19
-3.61951e-19
0.00167764
-4.45166e-19
-4.22141e-19
0.00159292
-4.29474e-19
-3.78406e-19
0.00151207
-4.44855e-19
-4.59979e-19
0.00143498
-2.62119e-19
-4.09192e-19
0.0013615
-4.22504e-19
-2.92312e-19
0.00129149
-4.67266e-19
-3.85089e-19
0.00122481
-6.32992e-19
-5.16792e-19
0.00116133
-4.72332e-19
-5.20977e-19
0.00110091
-5.79753e-19
-6.07167e-19
0.00104342
-4.0881e-19
-5.87117e-19
0.000988732
-4.55415e-19
-5.79268e-19
0.000936718
-4.03877e-19
-4.03523e-19
0.000887257
-3.56528e-19
-2.5015e-19
0.000840234
-4.84097e-19
-2.36643e-19
0.000795537
-2.71981e-19
-3.40103e-19
0.000753057
-1.71813e-19
-2.90974e-19
0.00071269
-2.09514e-19
-2.71862e-19
0.000674336
-2.35968e-19
-2.66948e-19
0.000637901
-2.41447e-19
-3.04547e-19
0.000603292
-1.29256e-19
-1.53728e-19
0.000570422
-1.81613e-19
-8.51603e-20
0.000539208
-2.01536e-19
-8.72707e-20
0.000509568
-6.44771e-20
-5.85573e-20
0.000481427
-8.94976e-20
-8.79844e-20
0.000454711
-5.09272e-20
-2.157e-20
0.000429351
-6.29235e-20
-3.25157e-20
0.000405279
-9.90113e-20
-8.26106e-20
0.000382433
-5.06004e-20
-1.1288e-19
0.000360751
-9.67529e-21
-1.69848e-19
0.000340176
-1.01963e-19
-8.29842e-20
0.000320653
-8.16802e-20
-5.87585e-20
0.000302128
-7.95143e-20
-6.67207e-20
0.000284552
-8.26292e-20
-8.76183e-20
0.000267877
-7.19938e-20
-7.40855e-20
0.000252058
-5.74535e-20
-6.97568e-20
0.000237051
-7.82232e-20
-5.4395e-20
0.000222815
-9.26434e-20
-4.97636e-20
0.000209311
-9.21689e-20
-1.01253e-19
0.000196501
-8.86768e-20
-5.13648e-20
0.00018435
-4.2593e-20
-4.85486e-20
0.000172825
-4.75587e-20
-1.16021e-20
0.000161893
-4.42284e-20
-1.65486e-20
0.000151523
-4.11545e-20
-1.98237e-20
0.000141688
-3.64445e-20
-3.15597e-20
0.000132359
-3.25433e-20
-2.08164e-20
0.000123512
-3.62567e-20
-2.04796e-20
0.000115121
-3.99588e-20
-2.39423e-20
0.000107165
-3.60455e-20
-3.13388e-20
9.96218e-05
-3.33923e-20
-2.97831e-20
9.24721e-05
-2.98244e-20
-3.48871e-20
8.56977e-05
-2.69886e-20
-4.44581e-20
7.92821e-05
-1.88411e-21
-3.59151e-20
7.32104e-05
-7.2052e-21
-3.60392e-20
6.74693e-05
8.01299e-21
-4.06977e-20
6.20472e-05
7.47725e-21
-2.92966e-20
5.69339e-05
8.24863e-21
-2.11204e-20
5.21208e-05
-1.10681e-21
-1.835e-20
4.76004e-05
-2.08468e-21
-7.12603e-21
4.33659e-05
8.71719e-22
-1.10457e-20
3.94111e-05
-1.42816e-21
-9.82408e-21
3.57297e-05
-2.15461e-21
-1.18491e-20
3.23146e-05
-3.66873e-21
-1.33456e-20
2.91579e-05
-4.1913e-21
-1.3741e-20
2.62503e-05
-4.8358e-21
-1.10186e-20
2.35813e-05
-6.21458e-21
-6.28114e-21
2.1139e-05
-7.18769e-21
-8.07592e-21
1.89104e-05
-1.61019e-22
-7.32983e-21
1.6882e-05
-1.63631e-21
-4.25821e-21
1.50398e-05
-1.46338e-21
-3.59229e-21
1.33698e-05
-3.07332e-22
-5.07271e-21
1.18585e-05
1.03381e-21
-4.97509e-21
1.04928e-05
-2.01615e-21
-3.05213e-21
9.26015e-06
-6.69578e-22
-3.04572e-21
8.14895e-06
-4.90956e-22
-2.80697e-21
7.14833e-06
-1.32945e-21
-1.91602e-21
6.24824e-06
-1.60633e-21
-9.51336e-22
5.43946e-06
-5.42358e-22
-1.2835e-21
4.7135e-06
-2.92175e-22
-6.48444e-22
4.06263e-06
-5.57922e-22
-5.10859e-22
3.47977e-06
-5.64808e-22
-2.41271e-22
2.95847e-06
-4.66773e-22
-1.51875e-22
2.49288e-06
2.86835e-23
-2.12333e-22
2.07764e-06
1.95261e-23
1.67906e-23
1.70792e-06
1.80294e-22
7.5556e-23
1.37929e-06
1.48524e-22
8.8002e-23
1.08776e-06
-1.39925e-22
2.53548e-22
8.29683e-07
-1.14399e-22
1.59549e-22
6.01771e-07
-1.30612e-23
4.09019e-23
4.01021e-07
-1.64585e-23
2.06443e-24
2.2472e-07
-2.89036e-24
8.02367e-24
7.04068e-08
)
;

boundaryField
{
    walls
    {
        type            calculated;
        value           uniform 0;
    }
    inlet
    {
        type            cyclic;
        value           nonuniform List<scalar> 
400
(
-7.04068e-08
-2.24721e-07
-4.01021e-07
-6.0177e-07
-8.29684e-07
-1.08776e-06
-1.37929e-06
-1.70791e-06
-2.07764e-06
-2.49288e-06
-2.95847e-06
-3.47977e-06
-4.06263e-06
-4.7135e-06
-5.43946e-06
-6.24824e-06
-7.14832e-06
-8.14895e-06
-9.26015e-06
-1.04928e-05
-1.18585e-05
-1.33698e-05
-1.50398e-05
-1.6882e-05
-1.89104e-05
-2.1139e-05
-2.35813e-05
-2.62503e-05
-2.91579e-05
-3.23146e-05
-3.57297e-05
-3.94111e-05
-4.33659e-05
-4.76004e-05
-5.21208e-05
-5.69339e-05
-6.20472e-05
-6.74693e-05
-7.32104e-05
-7.92821e-05
-8.56977e-05
-9.24721e-05
-9.96218e-05
-0.000107165
-0.000115121
-0.000123512
-0.000132359
-0.000141688
-0.000151523
-0.000161893
-0.000172825
-0.00018435
-0.000196501
-0.000209311
-0.000222815
-0.000237051
-0.000252058
-0.000267877
-0.000284552
-0.000302128
-0.000320653
-0.000340176
-0.000360751
-0.000382433
-0.000405279
-0.000429351
-0.000454711
-0.000481427
-0.000509568
-0.000539208
-0.000570422
-0.000603292
-0.000637901
-0.000674336
-0.00071269
-0.000753057
-0.000795537
-0.000840234
-0.000887257
-0.000936718
-0.000988732
-0.00104342
-0.00110091
-0.00116133
-0.00122481
-0.00129149
-0.0013615
-0.00143498
-0.00151207
-0.00159292
-0.00167764
-0.00176637
-0.00185922
-0.00195629
-0.00205764
-0.0021633
-0.00227324
-0.00238736
-0.00250547
-0.00262728
-7.04068e-08
-2.24721e-07
-4.01021e-07
-6.0177e-07
-8.29684e-07
-1.08776e-06
-1.37929e-06
-1.70791e-06
-2.07764e-06
-2.49288e-06
-2.95847e-06
-3.47977e-06
-4.06263e-06
-4.7135e-06
-5.43946e-06
-6.24824e-06
-7.14832e-06
-8.14895e-06
-9.26015e-06
-1.04928e-05
-1.18585e-05
-1.33698e-05
-1.50398e-05
-1.6882e-05
-1.89104e-05
-2.1139e-05
-2.35813e-05
-2.62503e-05
-2.91579e-05
-3.23146e-05
-3.57297e-05
-3.94111e-05
-4.33659e-05
-4.76004e-05
-5.21208e-05
-5.69339e-05
-6.20472e-05
-6.74693e-05
-7.32104e-05
-7.92821e-05
-8.56977e-05
-9.24721e-05
-9.96218e-05
-0.000107165
-0.000115121
-0.000123512
-0.000132359
-0.000141688
-0.000151523
-0.000161893
-0.000172825
-0.00018435
-0.000196501
-0.000209311
-0.000222815
-0.000237051
-0.000252058
-0.000267877
-0.000284552
-0.000302128
-0.000320653
-0.000340176
-0.000360751
-0.000382433
-0.000405279
-0.000429351
-0.000454711
-0.000481427
-0.000509568
-0.000539208
-0.000570422
-0.000603292
-0.000637901
-0.000674336
-0.00071269
-0.000753057
-0.000795537
-0.000840234
-0.000887257
-0.000936718
-0.000988732
-0.00104342
-0.00110091
-0.00116133
-0.00122481
-0.00129149
-0.0013615
-0.00143498
-0.00151207
-0.00159292
-0.00167764
-0.00176637
-0.00185922
-0.00195629
-0.00205764
-0.0021633
-0.00227324
-0.00238736
-0.00250547
-0.00262728
-0.00262728
-0.00250547
-0.00238736
-0.00227324
-0.0021633
-0.00205764
-0.00195629
-0.00185922
-0.00176637
-0.00167764
-0.00159292
-0.00151207
-0.00143498
-0.0013615
-0.00129149
-0.00122481
-0.00116133
-0.00110091
-0.00104342
-0.000988732
-0.000936718
-0.000887257
-0.000840234
-0.000795537
-0.000753057
-0.00071269
-0.000674336
-0.000637901
-0.000603292
-0.000570422
-0.000539208
-0.000509568
-0.000481427
-0.000454711
-0.000429351
-0.000405279
-0.000382433
-0.000360751
-0.000340176
-0.000320653
-0.000302128
-0.000284552
-0.000267877
-0.000252058
-0.000237051
-0.000222815
-0.000209311
-0.000196501
-0.00018435
-0.000172825
-0.000161893
-0.000151523
-0.000141688
-0.000132359
-0.000123512
-0.000115121
-0.000107165
-9.96218e-05
-9.24721e-05
-8.56977e-05
-7.92821e-05
-7.32104e-05
-6.74693e-05
-6.20472e-05
-5.69339e-05
-5.21208e-05
-4.76004e-05
-4.33659e-05
-3.94111e-05
-3.57297e-05
-3.23146e-05
-2.91579e-05
-2.62503e-05
-2.35813e-05
-2.1139e-05
-1.89104e-05
-1.6882e-05
-1.50398e-05
-1.33698e-05
-1.18585e-05
-1.04928e-05
-9.26015e-06
-8.14895e-06
-7.14833e-06
-6.24824e-06
-5.43946e-06
-4.7135e-06
-4.06263e-06
-3.47977e-06
-2.95847e-06
-2.49288e-06
-2.07764e-06
-1.70792e-06
-1.37929e-06
-1.08776e-06
-8.29683e-07
-6.01771e-07
-4.01021e-07
-2.2472e-07
-7.04068e-08
-0.00262728
-0.00250547
-0.00238736
-0.00227324
-0.0021633
-0.00205764
-0.00195629
-0.00185922
-0.00176637
-0.00167764
-0.00159292
-0.00151207
-0.00143498
-0.0013615
-0.00129149
-0.00122481
-0.00116133
-0.00110091
-0.00104342
-0.000988732
-0.000936718
-0.000887257
-0.000840234
-0.000795537
-0.000753057
-0.00071269
-0.000674336
-0.000637901
-0.000603292
-0.000570422
-0.000539208
-0.000509568
-0.000481427
-0.000454711
-0.000429351
-0.000405279
-0.000382433
-0.000360751
-0.000340176
-0.000320653
-0.000302128
-0.000284552
-0.000267877
-0.000252058
-0.000237051
-0.000222815
-0.000209311
-0.000196501
-0.00018435
-0.000172825
-0.000161893
-0.000151523
-0.000141688
-0.000132359
-0.000123512
-0.000115121
-0.000107165
-9.96218e-05
-9.24721e-05
-8.56977e-05
-7.92821e-05
-7.32104e-05
-6.74693e-05
-6.20472e-05
-5.69339e-05
-5.21208e-05
-4.76004e-05
-4.33659e-05
-3.94111e-05
-3.57297e-05
-3.23146e-05
-2.91579e-05
-2.62503e-05
-2.35813e-05
-2.1139e-05
-1.89104e-05
-1.6882e-05
-1.50398e-05
-1.33698e-05
-1.18585e-05
-1.04928e-05
-9.26015e-06
-8.14895e-06
-7.14833e-06
-6.24824e-06
-5.43946e-06
-4.7135e-06
-4.06263e-06
-3.47977e-06
-2.95847e-06
-2.49288e-06
-2.07764e-06
-1.70792e-06
-1.37929e-06
-1.08776e-06
-8.29683e-07
-6.01771e-07
-4.01021e-07
-2.2472e-07
-7.04068e-08
)
;
    }
    outlet
    {
        type            cyclic;
        value           nonuniform List<scalar> 
400
(
7.04068e-08
2.24721e-07
4.01021e-07
6.0177e-07
8.29684e-07
1.08776e-06
1.37929e-06
1.70791e-06
2.07764e-06
2.49288e-06
2.95847e-06
3.47977e-06
4.06263e-06
4.7135e-06
5.43946e-06
6.24824e-06
7.14832e-06
8.14895e-06
9.26015e-06
1.04928e-05
1.18585e-05
1.33698e-05
1.50398e-05
1.6882e-05
1.89104e-05
2.1139e-05
2.35813e-05
2.62503e-05
2.91579e-05
3.23146e-05
3.57297e-05
3.94111e-05
4.33659e-05
4.76004e-05
5.21208e-05
5.69339e-05
6.20472e-05
6.74693e-05
7.32104e-05
7.92821e-05
8.56977e-05
9.24721e-05
9.96218e-05
0.000107165
0.000115121
0.000123512
0.000132359
0.000141688
0.000151523
0.000161893
0.000172825
0.00018435
0.000196501
0.000209311
0.000222815
0.000237051
0.000252058
0.000267877
0.000284552
0.000302128
0.000320653
0.000340176
0.000360751
0.000382433
0.000405279
0.000429351
0.000454711
0.000481427
0.000509568
0.000539208
0.000570422
0.000603292
0.000637901
0.000674336
0.00071269
0.000753057
0.000795537
0.000840234
0.000887257
0.000936718
0.000988732
0.00104342
0.00110091
0.00116133
0.00122481
0.00129149
0.0013615
0.00143498
0.00151207
0.00159292
0.00167764
0.00176637
0.00185922
0.00195629
0.00205764
0.0021633
0.00227324
0.00238736
0.00250547
0.00262728
7.04068e-08
2.24721e-07
4.01021e-07
6.0177e-07
8.29684e-07
1.08776e-06
1.37929e-06
1.70791e-06
2.07764e-06
2.49288e-06
2.95847e-06
3.47977e-06
4.06263e-06
4.7135e-06
5.43946e-06
6.24824e-06
7.14832e-06
8.14895e-06
9.26015e-06
1.04928e-05
1.18585e-05
1.33698e-05
1.50398e-05
1.6882e-05
1.89104e-05
2.1139e-05
2.35813e-05
2.62503e-05
2.91579e-05
3.23146e-05
3.57297e-05
3.94111e-05
4.33659e-05
4.76004e-05
5.21208e-05
5.69339e-05
6.20472e-05
6.74693e-05
7.32104e-05
7.92821e-05
8.56977e-05
9.24721e-05
9.96218e-05
0.000107165
0.000115121
0.000123512
0.000132359
0.000141688
0.000151523
0.000161893
0.000172825
0.00018435
0.000196501
0.000209311
0.000222815
0.000237051
0.000252058
0.000267877
0.000284552
0.000302128
0.000320653
0.000340176
0.000360751
0.000382433
0.000405279
0.000429351
0.000454711
0.000481427
0.000509568
0.000539208
0.000570422
0.000603292
0.000637901
0.000674336
0.00071269
0.000753057
0.000795537
0.000840234
0.000887257
0.000936718
0.000988732
0.00104342
0.00110091
0.00116133
0.00122481
0.00129149
0.0013615
0.00143498
0.00151207
0.00159292
0.00167764
0.00176637
0.00185922
0.00195629
0.00205764
0.0021633
0.00227324
0.00238736
0.00250547
0.00262728
0.00262728
0.00250547
0.00238736
0.00227324
0.0021633
0.00205764
0.00195629
0.00185922
0.00176637
0.00167764
0.00159292
0.00151207
0.00143498
0.0013615
0.00129149
0.00122481
0.00116133
0.00110091
0.00104342
0.000988732
0.000936718
0.000887257
0.000840234
0.000795537
0.000753057
0.00071269
0.000674336
0.000637901
0.000603292
0.000570422
0.000539208
0.000509568
0.000481427
0.000454711
0.000429351
0.000405279
0.000382433
0.000360751
0.000340176
0.000320653
0.000302128
0.000284552
0.000267877
0.000252058
0.000237051
0.000222815
0.000209311
0.000196501
0.00018435
0.000172825
0.000161893
0.000151523
0.000141688
0.000132359
0.000123512
0.000115121
0.000107165
9.96218e-05
9.24721e-05
8.56977e-05
7.92821e-05
7.32104e-05
6.74693e-05
6.20472e-05
5.69339e-05
5.21208e-05
4.76004e-05
4.33659e-05
3.94111e-05
3.57297e-05
3.23146e-05
2.91579e-05
2.62503e-05
2.35813e-05
2.1139e-05
1.89104e-05
1.6882e-05
1.50398e-05
1.33698e-05
1.18585e-05
1.04928e-05
9.26015e-06
8.14895e-06
7.14833e-06
6.24824e-06
5.43946e-06
4.7135e-06
4.06263e-06
3.47977e-06
2.95847e-06
2.49288e-06
2.07764e-06
1.70792e-06
1.37929e-06
1.08776e-06
8.29683e-07
6.01771e-07
4.01021e-07
2.2472e-07
7.04068e-08
0.00262728
0.00250547
0.00238736
0.00227324
0.0021633
0.00205764
0.00195629
0.00185922
0.00176637
0.00167764
0.00159292
0.00151207
0.00143498
0.0013615
0.00129149
0.00122481
0.00116133
0.00110091
0.00104342
0.000988732
0.000936718
0.000887257
0.000840234
0.000795537
0.000753057
0.00071269
0.000674336
0.000637901