/*--------------------------------*- C++ -*----------------------------------*\
| =========                 |                                                 |
| \\      /  F ield         | OpenFOAM: The Open Source CFD Toolbox           |
|  \\    /   O peration     | Version:  2106                                  |
|   \\  /    A nd           | Website:  www.openfoam.com                      |
|    \\/     M anipulation  |                                                 |
\*---------------------------------------------------------------------------*/
FoamFile
{
    version     2.0;
    format      ascii;
    arch        "LSB;label=32;scalar=64";
    class       volSymmTensorField;
    location    "10070";
    object      turbulenceProperties:R;
}
// * * * * * * * * * * * * * * * * * * * * * * * * * * * * * * * * * * * * * //

dimensions      [0 2 -2 0 0 0 0];

internalField   nonuniform List<symmTensor> 
2000
(
(2.06998e-08 -7.31272e-14 -1.35344e-16 2.06998e-08 2.3285e-27 2.06998e-08)
(2.06998e-08 -7.31272e-14 -1.35344e-16 2.06998e-08 7.35851e-28 2.06998e-08)
(3.10338e-09 -6.31564e-14 -3.52875e-16 3.10338e-09 6.08528e-28 3.10338e-09)
(3.10338e-09 -6.31564e-14 -3.52875e-16 3.10338e-09 9.1772e-28 3.10338e-09)
(1.42567e-09 -8.59046e-14 -6.6597e-16 1.42567e-09 6.03795e-28 1.42567e-09)
(1.42567e-09 -8.59046e-14 -6.6597e-16 1.42567e-09 1.02198e-28 1.42567e-09)
(2.33194e-09 -2.99187e-13 -2.36272e-15 2.33194e-09 1.62283e-27 2.33194e-09)
(2.33194e-09 -2.99187e-13 -2.36272e-15 2.33194e-09 3.56945e-28 2.33194e-09)
(5.33942e-09 -1.21368e-12 -9.76345e-15 5.33942e-09 6.5371e-27 5.33942e-09)
(5.33942e-09 -1.21368e-12 -9.76345e-15 5.33942e-09 1.45039e-27 5.33942e-09)
(1.11976e-08 -4.02455e-12 -3.29799e-14 1.11976e-08 2.23533e-26 1.11976e-08)
(1.11976e-08 -4.02455e-12 -3.29799e-14 1.11976e-08 4.81304e-27 1.11976e-08)
(2.10103e-08 -1.10638e-11 -9.23563e-14 2.10103e-08 6.30206e-26 2.10103e-08)
(2.10103e-08 -1.10638e-11 -9.23563e-14 2.10103e-08 1.32303e-26 2.10103e-08)
(3.61149e-08 -2.63922e-11 -2.24424e-13 3.61149e-08 1.54297e-25 3.61149e-08)
(3.61149e-08 -2.63922e-11 -2.24424e-13 3.61149e-08 3.15336e-26 3.61149e-08)
(5.80656e-08 -5.65559e-11 -4.89896e-13 5.80656e-08 3.39039e-25 5.80656e-08)
(5.80656e-08 -5.65559e-11 -4.89896e-13 5.80656e-08 6.74677e-26 5.80656e-08)
(8.8641e-08 -1.11536e-10 -9.84177e-13 8.8641e-08 6.84871e-25 8.8641e-08)
(8.8641e-08 -1.11536e-10 -9.84177e-13 8.8641e-08 1.32753e-25 8.8641e-08)
(1.29857e-07 -2.05927e-10 -1.85098e-12 1.29857e-07 1.29482e-24 1.29857e-07)
(1.29857e-07 -2.05927e-10 -1.85098e-12 1.29857e-07 2.44381e-25 1.29857e-07)
(1.83985e-07 -3.60381e-10 -3.29974e-12 1.83985e-07 2.32003e-24 1.83985e-07)
(1.83985e-07 -3.60381e-10 -3.29974e-12 1.83985e-07 4.26117e-25 1.83985e-07)
(2.53573e-07 -6.03362e-10 -5.62766e-12 2.53573e-07 3.97638e-24 2.53573e-07)
(2.53573e-07 -6.03362e-10 -5.62766e-12 2.53573e-07 7.103e-25 2.53573e-07)
(3.41466e-07 -9.73273e-10 -9.24732e-12 3.41466e-07 6.56526e-24 3.41466e-07)
(3.41466e-07 -9.73273e-10 -9.24732e-12 3.41466e-07 1.13978e-24 3.41466e-07)
(4.5083e-07 -1.521e-09 -1.47211e-11 4.5083e-07 1.05001e-23 4.5083e-07)
(4.5083e-07 -1.521e-09 -1.47211e-11 4.5083e-07 1.77031e-24 4.5083e-07)
(5.85181e-07 -2.31294e-09 -2.28038e-11 5.85181e-07 1.63385e-23 5.85181e-07)
(5.85181e-07 -2.31294e-09 -2.28038e-11 5.85181e-07 2.67355e-24 5.85181e-07)
(7.4841e-07 -3.43462e-09 -3.44947e-11 7.4841e-07 2.48224e-23 7.4841e-07)
(7.4841e-07 -3.43462e-09 -3.44947e-11 7.4841e-07 3.93955e-24 7.4841e-07)
(9.44816e-07 -4.99497e-09 -5.1102e-11 9.44816e-07 3.69288e-23 9.44816e-07)
(9.44816e-07 -4.99497e-09 -5.1102e-11 9.44816e-07 5.68061e-24 9.44816e-07)
(1.17914e-06 -7.13131e-09 -7.43199e-11 1.17914e-06 5.39271e-23 1.17914e-06)
(1.17914e-06 -7.13131e-09 -7.43199e-11 1.17914e-06 8.03429e-24 1.17914e-06)
(1.45659e-06 -1.00153e-08 -1.06324e-10 1.45659e-06 7.74579e-23 1.45659e-06)
(1.45659e-06 -1.00153e-08 -1.06324e-10 1.45659e-06 1.11643e-23 1.45659e-06)
(1.7829e-06 -1.38597e-08 -1.49883e-10 1.7829e-06 9.0402e-23 1.7829e-06)
(1.7829e-06 -1.38597e-08 -1.49883e-10 1.7829e-06 1.52697e-23 1.7829e-06)
(2.16435e-06 -1.89268e-08 -2.08499e-10 2.16435e-06 8.25341e-23 2.16435e-06)
(2.16435e-06 -1.89268e-08 -2.08499e-10 2.16435e-06 2.05922e-23 2.16435e-06)
(2.60781e-06 -2.5537e-08 -2.86569e-10 2.60781e-06 9.01368e-23 2.60781e-06)
(2.60781e-06 -2.5537e-08 -2.86569e-10 2.60781e-06 2.74119e-23 2.60781e-06)
(3.12082e-06 -3.40805e-08 -3.89579e-10 3.12082e-06 1.22568e-22 3.12082e-06)
(3.12082e-06 -3.40805e-08 -3.89579e-10 3.12082e-06 3.60496e-23 3.12082e-06)
(3.71159e-06 -4.50294e-08 -5.24344e-10 3.71159e-06 1.6508e-22 3.71159e-06)
(3.71159e-06 -4.50294e-08 -5.24344e-10 3.71159e-06 4.68933e-23 3.71159e-06)
(4.38909e-06 -5.8952e-08 -6.99278e-10 4.38909e-06 2.20397e-22 4.38909e-06)
(4.38909e-06 -5.8952e-08 -6.99278e-10 4.38909e-06 6.03863e-23 4.38909e-06)
(5.16309e-06 -7.65301e-08 -9.24727e-10 5.16309e-06 2.91845e-22 5.16309e-06)
(5.16309e-06 -7.65301e-08 -9.24727e-10 5.16309e-06 7.70111e-23 5.16309e-06)
(6.04423e-06 -9.85772e-08 -1.21336e-09 6.04423e-06 3.83555e-22 6.04423e-06)
(6.04423e-06 -9.85772e-08 -1.21336e-09 6.04423e-06 9.73397e-23 6.04423e-06)
(7.04409e-06 -1.26061e-07 -1.58061e-09 7.04409e-06 3.24038e-22 7.04409e-06)
(7.04409e-06 -1.26061e-07 -1.58061e-09 7.04409e-06 1.22005e-22 7.04409e-06)
(8.17524e-06 -1.6013e-07 -2.04524e-09 8.17524e-06 2.75602e-24 8.17524e-06)
(8.17524e-06 -1.6013e-07 -2.04524e-09 8.17524e-06 1.51698e-22 8.17524e-06)
(9.45134e-06 -2.02138e-07 -2.62996e-09 9.45134e-06 -1.79545e-22 9.45134e-06)
(9.45134e-06 -2.02138e-07 -2.62996e-09 9.45134e-06 1.87167e-22 9.45134e-06)
(1.08872e-05 -2.53681e-07 -3.36217e-09 1.08872e-05 -2.38653e-22 1.08872e-05)
(1.08872e-05 -2.53681e-07 -3.36217e-09 1.08872e-05 2.29193e-22 1.08872e-05)
(1.24989e-05 -3.16632e-07 -4.27481e-09 1.24989e-05 -3.13629e-22 1.24989e-05)
(1.24989e-05 -3.16632e-07 -4.27481e-09 1.24989e-05 2.78623e-22 1.24989e-05)
(1.43037e-05 -3.93186e-07 -5.40741e-09 1.43037e-05 -4.08111e-22 1.43037e-05)
(1.43037e-05 -3.93186e-07 -5.40741e-09 1.43037e-05 3.36313e-22 1.43037e-05)
(1.63206e-05 -4.85902e-07 -6.80723e-09 1.63206e-05 -5.26429e-22 1.63206e-05)
(1.63206e-05 -4.85902e-07 -6.80723e-09 1.63206e-05 4.03243e-22 1.63206e-05)
(1.85698e-05 -5.97764e-07 -8.53063e-09 1.85698e-05 -6.73804e-22 1.85698e-05)
(1.85698e-05 -5.97764e-07 -8.53063e-09 1.85698e-05 4.80586e-22 1.85698e-05)
(2.10732e-05 -7.32238e-07 -1.06447e-08 2.10732e-05 -8.55591e-22 2.10732e-05)
(2.10732e-05 -7.32238e-07 -1.06447e-08 2.10732e-05 5.69238e-22 2.10732e-05)
(2.38548e-05 -8.93339e-07 -1.3229e-08 2.38548e-05 -1.08009e-21 2.38548e-05)
(2.38548e-05 -8.93339e-07 -1.3229e-08 2.38548e-05 6.7059e-22 2.38548e-05)
(2.69399e-05 -1.08571e-06 -1.63777e-08 2.69399e-05 -1.35429e-21 2.69399e-05)
(2.69399e-05 -1.08571e-06 -1.63777e-08 2.69399e-05 7.856e-22 2.69399e-05)
(3.03562e-05 -1.31472e-06 -2.02022e-08 3.03562e-05 -1.68583e-21 3.03562e-05)
(3.03562e-05 -1.31472e-06 -2.02022e-08 3.03562e-05 9.14628e-22 3.03562e-05)
(3.41334e-05 -1.58652e-06 -2.48337e-08 3.41334e-05 -2.08834e-21 3.41334e-05)
(3.41334e-05 -1.58652e-06 -2.48337e-08 3.41334e-05 1.05786e-21 3.41334e-05)
(3.83034e-05 -1.90822e-06 -3.04264e-08 3.83034e-05 -2.57235e-21 3.83034e-05)
(3.83034e-05 -1.90822e-06 -3.04264e-08 3.83034e-05 1.21543e-21 3.83034e-05)
(4.29007e-05 -2.28793e-06 -3.71614e-08 4.29007e-05 -3.15287e-21 4.29007e-05)
(4.29007e-05 -2.28793e-06 -3.71614e-08 4.29007e-05 1.38881e-21 4.29007e-05)
(4.79621e-05 -2.73496e-06 -4.52508e-08 4.79621e-05 -3.84392e-21 4.79621e-05)
(4.79621e-05 -2.73496e-06 -4.52508e-08 4.79621e-05 1.57641e-21 4.79621e-05)
(5.35274e-05 -3.25991e-06 -5.49424e-08 5.35274e-05 -4.65736e-21 5.35274e-05)
(5.35274e-05 -3.25991e-06 -5.49424e-08 5.35274e-05 1.77362e-21 5.35274e-05)
(5.96389e-05 -3.87488e-06 -6.65252e-08 5.96389e-05 -5.61548e-21 5.96389e-05)
(5.96389e-05 -3.87488e-06 -6.65252e-08 5.96389e-05 1.97685e-21 5.96389e-05)
(6.63423e-05 -4.59361e-06 -8.03354e-08 6.63423e-05 -6.75171e-21 6.63423e-05)
(6.63423e-05 -4.59361e-06 -8.03354e-08 6.63423e-05 2.18822e-21 6.63423e-05)
(7.36864e-05 -5.4317e-06 -9.67638e-08 7.36864e-05 -8.08763e-21 7.36864e-05)
(7.36864e-05 -5.4317e-06 -9.67638e-08 7.36864e-05 2.40221e-21 7.36864e-05)
(8.17232e-05 -6.40679e-06 -1.16263e-07 8.17232e-05 -9.63975e-21 8.17232e-05)
(8.17232e-05 -6.40679e-06 -1.16263e-07 8.17232e-05 2.60648e-21 8.17232e-05)
(9.05086e-05 -7.53882e-06 -1.39356e-07 9.05086e-05 -1.14392e-20 9.05086e-05)
(9.05086e-05 -7.53882e-06 -1.39356e-07 9.05086e-05 2.79094e-21 9.05086e-05)
(0.000100102 -8.85023e-06 -1.66647e-07 0.000100102 -1.35214e-20 0.000100102)
(0.000100102 -8.85023e-06 -1.66647e-07 0.000100102 2.94496e-21 0.000100102)
(0.000110566 -1.03663e-05 -1.98832e-07 0.000110566 -1.58972e-20 0.000110566)
(0.000110566 -1.03663e-05 -1.98832e-07 0.000110566 3.06939e-21 0.000110566)
(0.000121969 -1.21153e-05 -2.36709e-07 0.000121969 -1.73581e-20 0.000121969)
(0.000121969 -1.21153e-05 -2.36709e-07 0.000121969 3.14617e-21 0.000121969)
(0.000134382 -1.41288e-05 -2.81193e-07 0.000134382 -1.70616e-20 0.000134382)
(0.000134382 -1.41288e-05 -2.81193e-07 0.000134382 3.14903e-21 0.000134382)
(0.000147882 -1.64422e-05 -3.33331e-07 0.000147882 -1.7645e-20 0.000147882)
(0.000147882 -1.64422e-05 -3.33331e-07 0.000147882 3.06403e-21 0.000147882)
(0.000162547 -1.90948e-05 -3.94314e-07 0.000162547 -2.00421e-20 0.000162547)
(0.000162547 -1.90948e-05 -3.94314e-07 0.000162547 2.83917e-21 0.000162547)
(0.000178464 -2.213e-05 -4.655e-07 0.000178464 -2.26392e-20 0.000178464)
(0.000178464 -2.213e-05 -4.655e-07 0.000178464 2.47467e-21 0.000178464)
(0.000195721 -2.55958e-05 -5.48425e-07 0.000195721 -2.55382e-20 0.000195721)
(0.000195721 -2.55958e-05 -5.48425e-07 0.000195721 2.0041e-21 0.000195721)
(0.000214414 -2.95453e-05 -6.44827e-07 0.000214414 -2.87265e-20 0.000214414)
(0.000214414 -2.95453e-05 -6.44827e-07 0.000214414 1.33723e-21 0.000214414)
(0.00023464 -3.40366e-05 -7.56664e-07 0.00023464 -3.21888e-20 0.00023464)
(0.00023464 -3.40366e-05 -7.56664e-07 0.00023464 4.47457e-22 0.00023464)
(0.000256504 -3.9133e-05 -8.86137e-07 0.000256504 -3.61103e-20 0.000256504)
(0.000256504 -3.9133e-05 -8.86137e-07 0.000256504 3.014e-21 0.000256504)
(0.000280112 -4.49037e-05 -1.03571e-06 0.000280112 -4.00597e-20 0.000280112)
(0.000280112 -4.49037e-05 -1.03571e-06 0.000280112 1.81983e-20 0.000280112)
(0.000305578 -5.14235e-05 -1.20812e-06 0.000305578 -4.39929e-20 0.000305578)
(0.000305578 -5.14235e-05 -1.20812e-06 0.000305578 3.31976e-20 0.000305578)
(0.000333018 -5.8773e-05 -1.40642e-06 0.000333018 -4.86401e-20 0.000333018)
(0.000333018 -5.8773e-05 -1.40642e-06 0.000333018 3.71314e-20 0.000333018)
(0.000362551 -6.70387e-05 -1.63398e-06 0.000362551 -5.33344e-20 0.000362551)
(0.000362551 -6.70387e-05 -1.63398e-06 0.000362551 4.15406e-20 0.000362551)
(0.0003943 -7.63128e-05 -1.89452e-06 0.0003943 -5.76245e-20 0.0003943)
(0.0003943 -7.63128e-05 -1.89452e-06 0.0003943 4.56759e-20 0.0003943)
(0.000428391 -8.66929e-05 -2.19211e-06 0.000428391 -6.28477e-20 0.000428391)
(0.000428391 -8.66929e-05 -2.19211e-06 0.000428391 5.00278e-20 0.000428391)
(0.000464952 -9.82817e-05 -2.53116e-06 0.000464952 -6.80873e-20 0.000464952)
(0.000464952 -9.82817e-05 -2.53116e-06 0.000464952 5.49912e-20 0.000464952)
(0.000504111 -0.000111186 -2.91651e-06 0.000504111 -7.39234e-20 0.000504111)
(0.000504111 -0.000111186 -2.91651e-06 0.000504111 6.02312e-20 0.000504111)
(0.000545997 -0.000125518 -3.35333e-06 0.000545997 -7.97713e-20 0.000545997)
(0.000545997 -0.000125518 -3.35333e-06 0.000545997 6.56829e-20 0.000545997)
(0.000590739 -0.00014139 -3.84717e-06 0.000590739 -8.33902e-20 0.000590739)
(0.000590739 -0.00014139 -3.84717e-06 0.000590739 7.11492e-20 0.000590739)
(0.000638461 -0.000158918 -4.40395e-06 0.000638461 -8.68576e-20 0.000638461)
(0.000638461 -0.000158918 -4.40395e-06 0.000638461 7.62914e-20 0.000638461)
(0.000689287 -0.000178219 -5.02992e-06 0.000689287 -4.37605e-20 0.000689287)
(0.000689287 -0.000178219 -5.02992e-06 0.000689287 8.05236e-20 0.000689287)
(0.000743332 -0.000199405 -5.73162e-06 0.000743332 1.20942e-19 0.000743332)
(0.000743332 -0.000199405 -5.73162e-06 0.000743332 8.60279e-20 0.000743332)
(0.000800708 -0.00022259 -6.51588e-06 0.000800708 2.67834e-19 0.000800708)
(0.000800708 -0.00022259 -6.51588e-06 0.000800708 9.30328e-20 0.000800708)
(0.000861517 -0.00024788 -7.38971e-06 0.000861517 3.08755e-19 0.000861517)
(0.000861517 -0.00024788 -7.38971e-06 0.000861517 9.73069e-20 0.000861517)
(0.00092585 -0.000275375 -8.3603e-06 0.00092585 3.5566e-19 0.00092585)
(0.00092585 -0.000275375 -8.3603e-06 0.00092585 3.40505e-19 0.00092585)
(0.000993786 -0.000305164 -9.43489e-06 0.000993786 4.05411e-19 0.000993786)
(0.000993786 -0.000305164 -9.43489e-06 0.000993786 6.43954e-19 0.000993786)
(0.00106539 -0.000337328 -1.06207e-05 0.00106539 4.53825e-19 0.00106539)
(0.00106539 -0.000337328 -1.06207e-05 0.00106539 7.06795e-19 0.00106539)
(0.00114072 -0.000371932 -1.1925e-05 0.00114072 5.07277e-19 0.00114072)
(0.00114072 -0.000371932 -1.1925e-05 0.00114072 7.63661e-19 0.00114072)
(0.00121979 -0.000409025 -1.33546e-05 0.00121979 5.67969e-19 0.00121979)
(0.00121979 -0.000409025 -1.33546e-05 0.00121979 8.26162e-19 0.00121979)
(0.00130263 -0.000448641 -1.49164e-05 0.00130263 6.35444e-19 0.00130263)
(0.00130263 -0.000448641 -1.49164e-05 0.00130263 8.8502e-19 0.00130263)
(0.00138923 -0.000490792 -1.66165e-05 0.00138923 6.94509e-19 0.00138923)
(0.00138923 -0.000490792 -1.66165e-05 0.00138923 9.40435e-19 0.00138923)
(0.00147955 -0.000535471 -1.84608e-05 0.00147955 7.49244e-19 0.00147955)
(0.00147955 -0.000535471 -1.84608e-05 0.00147955 1.0047e-18 0.00147955)
(0.00157355 -0.000582648 -2.04545e-05 0.00157355 8.18875e-19 0.00157355)
(0.00157355 -0.000582648 -2.04545e-05 0.00157355 1.07085e-18 0.00157355)
(0.00167114 -0.000632273 -2.26024e-05 0.00167114 8.94789e-19 0.00167114)
(0.00167114 -0.000632273 -2.26024e-05 0.00167114 1.13124e-18 0.00167114)
(0.00177223 -0.00068427 -2.49082e-05 0.00177223 9.69454e-19 0.00177223)
(0.00177223 -0.00068427 -2.49082e-05 0.00177223 1.18842e-18 0.00177223)
(0.0018767 -0.000738546 -2.73752e-05 0.0018767 1.03863e-18 0.0018767)
(0.0018767 -0.000738546 -2.73752e-05 0.0018767 1.24799e-18 0.0018767)
(0.0019844 -0.000794983 -3.00055e-05 0.0019844 1.10232e-18 0.0019844)
(0.0019844 -0.000794983 -3.00055e-05 0.0019844 1.29729e-18 0.0019844)
(0.00209515 -0.000853445 -3.28007e-05 0.00209515 1.15909e-18 0.00209515)
(0.00209515 -0.000853445 -3.28007e-05 0.00209515 1.33716e-18 0.00209515)
(0.00220878 -0.000913778 -3.57615e-05 0.00220878 1.21738e-18 0.00220878)
(0.00220878 -0.000913778 -3.57615e-05 0.00220878 1.37181e-18 0.00220878)
(0.00232506 -0.000975814 -3.88875e-05 0.00232506 1.29413e-18 0.00232506)
(0.00232506 -0.000975814 -3.88875e-05 0.00232506 1.39038e-18 0.00232506)
(0.00244379 -0.00103937 -4.21778e-05 0.00244379 1.35801e-18 0.00244379)
(0.00244379 -0.00103937 -4.21778e-05 0.00244379 1.41861e-18 0.00244379)
(0.0025647 -0.00110425 -4.56307e-05 0.0025647 1.39844e-18 0.0025647)
(0.0025647 -0.00110425 -4.56307e-05 0.0025647 1.44519e-18 0.0025647)
(0.00268756 -0.00117025 -4.92437e-05 0.00268756 1.45626e-18 0.00268756)
(0.00268756 -0.00117025 -4.92437e-05 0.00268756 1.43904e-18 0.00268756)
(0.00281209 -0.00123718 -5.30138e-05 0.00281209 1.52615e-18 0.00281209)
(0.00281209 -0.00123718 -5.30138e-05 0.00281209 1.42015e-18 0.00281209)
(0.00293802 -0.00130482 -5.69373e-05 0.00293802 1.59914e-18 0.00293802)
(0.00293802 -0.00130482 -5.69373e-05 0.00293802 1.39916e-18 0.00293802)
(0.00306508 -0.00137296 -6.10102e-05 0.00306508 1.61725e-18 0.00306508)
(0.00306508 -0.00137296 -6.10102e-05 0.00306508 1.37179e-18 0.00306508)
(0.003193 -0.0014414 -6.5228e-05 0.003193 1.60871e-18 0.003193)
(0.003193 -0.0014414 -6.5228e-05 0.003193 1.34839e-18 0.003193)
(0.00332148 -0.00150995 -6.9586e-05 0.00332148 1.63077e-18 0.00332148)
(0.00332148 -0.00150995 -6.9586e-05 0.00332148 1.34681e-18 0.00332148)
(0.00345027 -0.00157841 -7.40793e-05 0.00345027 1.65616e-18 0.00345027)
(0.00345027 -0.00157841 -7.40793e-05 0.00345027 1.32062e-18 0.00345027)
(0.00357908 -0.0016466 -7.87027e-05 0.00357908 1.64412e-18 0.00357908)
(0.00357908 -0.0016466 -7.87027e-05 0.00357908 1.27461e-18 0.00357908)
(0.00370767 -0.00171435 -8.34512e-05 0.00370767 1.62804e-18 0.00370767)
(0.00370767 -0.00171435 -8.34512e-05 0.00370767 1.27052e-18 0.00370767)
(0.00383576 -0.00178149 -8.83196e-05 0.00383576 1.60349e-18 0.00383576)
(0.00383576 -0.00178149 -8.83196e-05 0.00383576 1.27484e-18 0.00383576)
(0.00396313 -0.00184789 -9.3303e-05 0.00396313 1.53889e-18 0.00396313)
(0.00396313 -0.00184789 -9.3303e-05 0.00396313 1.27399e-18 0.00396313)
(0.00408955 -0.00191341 -9.83964e-05 0.00408955 1.53209e-18 0.00408955)
(0.00408955 -0.00191341 -9.83964e-05 0.00408955 1.23996e-18 0.00408955)
(0.00421479 -0.00197791 -0.000103595 0.00421479 1.47333e-18 0.00421479)
(0.00421479 -0.00197791 -0.000103595 0.00421479 1.18048e-18 0.00421479)
(0.00433865 -0.00204131 -0.000108895 0.00433865 1.24746e-18 0.00433865)
(0.00433865 -0.00204131 -0.000108895 0.00433865 1.19683e-18 0.00433865)
(0.00446095 -0.00210349 -0.000114291 0.00446095 1.13355e-18 0.00446095)
(0.00446095 -0.00210349 -0.000114291 0.00446095 1.18879e-18 0.00446095)
(0.00458151 -0.00216437 -0.000119779 0.00458151 1.14321e-18 0.00458151)
(0.00458151 -0.00216437 -0.000119779 0.00458151 1.20434e-18 0.00458151)
(0.00470017 -0.00222389 -0.000125357 0.00470017 1.07373e-18 0.00470017)
(0.00470017 -0.00222389 -0.000125357 0.00470017 1.31222e-18 0.00470017)
(0.00481679 -0.00228197 -0.000131019 0.00481679 1.00577e-18 0.00481679)
(0.00481679 -0.00228197 -0.000131019 0.00481679 1.35961e-18 0.00481679)
(0.00493124 -0.00233857 -0.000136764 0.00493124 9.22976e-19 0.00493124)
(0.00493124 -0.00233857 -0.000136764 0.00493124 1.30756e-18 0.00493124)
(0.0050434 -0.00239365 -0.000142588 0.0050434 6.5393e-19 0.0050434)
(0.0050434 -0.00239365 -0.000142588 0.0050434 1.23501e-18 0.0050434)
(0.00515317 -0.00244718 -0.000148488 0.00515317 7.53242e-20 0.00515317)
(0.00515317 -0.00244718 -0.000148488 0.00515317 1.40607e-18 0.00515317)
(0.00526047 -0.00249913 -0.000154463 0.00526047 -7.90711e-20 0.00526047)
(0.00526047 -0.00249913 -0.000154463 0.00526047 1.47402e-18 0.00526047)
(0.00536521 -0.00254948 -0.00016051 0.00536521 -3.33651e-19 0.00536521)
(0.00536521 -0.00254948 -0.00016051 0.00536521 1.45928e-18 0.00536521)
(0.00546734 -0.00259823 -0.000166627 0.00546734 -5.46869e-19 0.00546734)
(0.00546734 -0.00259823 -0.000166627 0.00546734 1.54538e-18 0.00546734)
(0.0055668 -0.00264537 -0.000172812 0.0055668 -8.21489e-19 0.0055668)
(0.0055668 -0.00264537 -0.000172812 0.0055668 1.53954e-18 0.0055668)
(0.00566354 -0.0026909 -0.000179065 0.00566354 -7.9489e-19 0.00566354)
(0.00566354 -0.0026909 -0.000179065 0.00566354 1.60187e-18 0.00566354)
(0.00575754 -0.00273484 -0.000185384 0.00575754 -5.55982e-19 0.00575754)
(0.00575754 -0.00273484 -0.000185384 0.00575754 1.40341e-18 0.00575754)
(0.00584877 -0.00277719 -0.000191768 0.00584877 -9.62331e-19 0.00584877)
(0.00584877 -0.00277719 -0.000191768 0.00584877 1.15659e-18 0.00584877)
(0.00593722 -0.00281796 -0.000198216 0.00593722 -1.2854e-18 0.00593722)
(0.00593722 -0.00281796 -0.000198216 0.00593722 1.00982e-18 0.00593722)
(0.00602288 -0.00285718 -0.000204728 0.00602288 -1.3409e-18 0.00602288)
(0.00602288 -0.00285718 -0.000204728 0.00602288 1.07577e-18 0.00602288)
(0.00610575 -0.00289487 -0.000211303 0.00610575 -1.18758e-18 0.00610575)
(0.00610575 -0.00289487 -0.000211303 0.00610575 1.26998e-18 0.00610575)
(0.00618583 -0.00293104 -0.00021794 0.00618583 -9.42811e-19 0.00618583)
(0.00618583 -0.00293104 -0.00021794 0.00618583 1.2763e-18 0.00618583)
(0.00626313 -0.00296571 -0.000224639 0.00626313 -8.27882e-19 0.00626313)
(0.00626313 -0.00296571 -0.000224639 0.00626313 1.45699e-18 0.00626313)
(0.00633767 -0.00299893 -0.000231401 0.00633767 -5.65489e-19 0.00633767)
(0.00633767 -0.00299893 -0.000231401 0.00633767 1.64894e-18 0.00633767)
(0.00640946 -0.0030307 -0.000238225 0.00640946 -4.89572e-19 0.00640946)
(0.00640946 -0.0030307 -0.000238225 0.00640946 1.95199e-18 0.00640946)
(0.00647854 -0.00306107 -0.00024511 0.00647854 -5.81435e-19 0.00647854)
(0.00647854 -0.00306107 -0.00024511 0.00647854 2.39247e-18 0.00647854)
(0.00654492 -0.00309005 -0.000252058 0.00654492 -3.16122e-19 0.00654492)
(0.00654492 -0.00309005 -0.000252058 0.00654492 2.48062e-18 0.00654492)
(0.00660864 -0.00311767 -0.000259068 0.00660864 -3.05356e-19 0.00660864)
(0.00660864 -0.00311767 -0.000259068 0.00660864 2.92689e-18 0.00660864)
(0.00666973 -0.00314397 -0.00026614 0.00666973 -2.4969e-19 0.00666973)
(0.00666973 -0.00314397 -0.00026614 0.00666973 3.7671e-18 0.00666973)
(0.00672822 -0.00316897 -0.000273275 0.00672822 1.85006e-19 0.00672822)
(0.00672822 -0.00316897 -0.000273275 0.00672822 4.45641e-18 0.00672822)
(0.00678415 -0.0031927 -0.000280472 0.00678415 -4.69717e-19 0.00678415)
(0.00678415 -0.0031927 -0.000280472 0.00678415 5.07182e-18 0.00678415)
(0.00683755 -0.00321518 -0.000287732 0.00683755 -1.77886e-18 0.00683755)
(0.00683755 -0.00321518 -0.000287732 0.00683755 5.39265e-18 0.00683755)
(0.00688847 -0.00323645 -0.000295055 0.00688847 -2.40932e-18 0.00688847)
(0.00688847 -0.00323645 -0.000295055 0.00688847 5.62369e-18 0.00688847)
(0.00693693 -0.00325653 -0.000302441 0.00693693 -2.47627e-18 0.00693693)
(0.00693693 -0.00325653 -0.000302441 0.00693693 5.6978e-18 0.00693693)
(0.00698299 -0.00327545 -0.000309891 0.00698299 -2.29672e-18 0.00698299)
(0.00698299 -0.00327545 -0.000309891 0.00698299 5.51138e-18 0.00698299)
(0.00702667 -0.00329323 -0.000317404 0.00702667 -2.56061e-18 0.00702667)
(0.00702667 -0.00329323 -0.000317404 0.00702667 6.40011e-18 0.00702667)
(0.00706802 -0.0033099 -0.000324981 0.00706802 -2.67624e-18 0.00706802)
(0.00706802 -0.0033099 -0.000324981 0.00706802 7.35827e-18 0.00706802)
(0.00710707 -0.00332549 -0.000332622 0.00710707 -2.37975e-18 0.00710707)
(0.00710707 -0.00332549 -0.000332622 0.00710707 7.0463e-18 0.00710707)
(0.00714387 -0.00334001 -0.000340327 0.00714387 -2.35798e-18 0.00714387)
(0.00714387 -0.00334001 -0.000340327 0.00714387 7.17109e-18 0.00714387)
(0.00717846 -0.00335349 -0.000348096 0.00717846 -2.343e-18 0.00717846)
(0.00717846 -0.00335349 -0.000348096 0.00717846 8.0002e-18 0.00717846)
(0.00721087 -0.00336595 -0.000355928 0.00721087 -2.15556e-18 0.00721087)
(0.00721087 -0.00336595 -0.000355928 0.00721087 8.95824e-18 0.00721087)
(0.00724113 -0.00337741 -0.000363825 0.00724113 -1.92309e-18 0.00724113)
(0.00724113 -0.00337741 -0.000363825 0.00724113 9.40308e-18 0.00724113)
(0.00726929 -0.0033879 -0.000371785 0.00726929 -2.08552e-18 0.00726929)
(0.00726929 -0.0033879 -0.000371785 0.00726929 9.40524e-18 0.00726929)
(0.00729539 -0.00339743 -0.000379808 0.00729539 -2.68673e-18 0.00729539)
(0.00729539 -0.00339743 -0.000379808 0.00729539 9.86586e-18 0.00729539)
(0.00731945 -0.00340602 -0.000387895 0.00731945 -2.94763e-18 0.00731945)
(0.00731945 -0.00340602 -0.000387895 0.00731945 1.00137e-17 0.00731945)
(0.00734151 -0.00341369 -0.000396044 0.00734151 -2.08473e-18 0.00734151)
(0.00734151 -0.00341369 -0.000396044 0.00734151 1.11836e-17 0.00734151)
(0.00736161 -0.00342046 -0.000404255 0.00736161 -2.84382e-19 0.00736161)
(0.00736161 -0.00342046 -0.000404255 0.00736161 1.23835e-17 0.00736161)
(0.00737977 -0.00342634 -0.000412528 0.00737977 -1.36994e-18 0.00737977)
(0.00737977 -0.00342634 -0.000412528 0.00737977 1.23896e-17 0.00737977)
(0.00739603 -0.00343135 -0.000420862 0.00739603 -4.79687e-18 0.00739603)
(0.00739603 -0.00343135 -0.000420862 0.00739603 1.22138e-17 0.00739603)
(0.00741042 -0.0034355 -0.000429256 0.00741042 -4.92336e-18 0.00741042)
(0.00741042 -0.0034355 -0.000429256 0.00741042 1.19083e-17 0.00741042)
(0.00742297 -0.00343881 -0.000437709 0.00742297 -3.12323e-18 0.00742297)
(0.00742297 -0.00343881 -0.000437709 0.00742297 1.31558e-17 0.00742297)
(0.0074337 -0.00344129 -0.00044622 0.0074337 -1.96636e-18 0.0074337)
(0.0074337 -0.00344129 -0.00044622 0.0074337 1.46568e-17 0.0074337)
(0.00744264 -0.00344295 -0.000454789 0.00744264 -9.37302e-19 0.00744264)
(0.00744264 -0.00344295 -0.000454789 0.00744264 1.4006e-17 0.00744264)
(0.00744982 -0.00344381 -0.000463412 0.00744982 -3.26081e-18 0.00744982)
(0.00744982 -0.00344381 -0.000463412 0.00744982 1.39771e-17 0.00744982)
(0.00745526 -0.00344387 -0.00047209 0.00745526 -5.19328e-18 0.00745526)
(0.00745526 -0.00344387 -0.00047209 0.00745526 1.57933e-17 0.00745526)
(0.00745899 -0.00344315 -0.000480821 0.00745899 -4.53995e-18 0.00745899)
(0.00745899 -0.00344315 -0.000480821 0.00745899 1.63286e-17 0.00745899)
(0.00746103 -0.00344165 -0.000489602 0.00746103 -4.14505e-18 0.00746103)
(0.00746103 -0.00344165 -0.000489602 0.00746103 1.77587e-17 0.00746103)
(0.00746139 -0.00343939 -0.000498432 0.00746139 -2.50727e-18 0.00746139)
(0.00746139 -0.00343939 -0.000498432 0.00746139 1.88518e-17 0.00746139)
(0.00746011 -0.00343637 -0.000507309 0.00746011 -2.90163e-18 0.00746011)
(0.00746011 -0.00343637 -0.000507309 0.00746011 1.83099e-17 0.00746011)
(0.00745719 -0.0034326 -0.00051623 0.00745719 -2.60533e-18 0.00745719)
(0.00745719 -0.0034326 -0.00051623 0.00745719 1.91191e-17 0.00745719)
(0.00745267 -0.00342809 -0.000525193 0.00745267 -2.92389e-18 0.00745267)
(0.00745267 -0.00342809 -0.000525193 0.00745267 2.15029e-17 0.00745267)
(0.00744654 -0.00342284 -0.000534195 0.00744654 -2.32356e-18 0.00744654)
(0.00744654 -0.00342284 -0.000534195 0.00744654 2.53927e-17 0.00744654)
(0.00743884 -0.00341686 -0.000543233 0.00743884 4.23394e-19 0.00743884)
(0.00743884 -0.00341686 -0.000543233 0.00743884 2.69523e-17 0.00743884)
(0.00742957 -0.00341016 -0.000552305 0.00742957 -9.72859e-19 0.00742957)
(0.00742957 -0.00341016 -0.000552305 0.00742957 2.46057e-17 0.00742957)
(0.00741875 -0.00340274 -0.000561406 0.00741875 -2.33004e-18 0.00741875)
(0.00741875 -0.00340274 -0.000561406 0.00741875 2.41753e-17 0.00741875)
(0.0074064 -0.0033946 -0.000570533 0.0074064 -2.23448e-18 0.0074064)
(0.0074064 -0.0033946 -0.000570533 0.0074064 2.51804e-17 0.0074064)
(0.00739252 -0.00338574 -0.000579682 0.00739252 -4.39914e-19 0.00739252)
(0.00739252 -0.00338574 -0.000579682 0.00739252 2.55131e-17 0.00739252)
(0.00737712 -0.00337618 -0.000588849 0.00737712 1.20465e-18 0.00737712)
(0.00737712 -0.00337618 -0.000588849 0.00737712 2.68166e-17 0.00737712)
(0.00736022 -0.00336591 -0.00059803 0.00736022 -2.0258e-18 0.00736022)
(0.00736022 -0.00336591 -0.00059803 0.00736022 2.65158e-17 0.00736022)
(0.00734183 -0.00335494 -0.00060722 0.00734183 -2.72448e-18 0.00734183)
(0.00734183 -0.00335494 -0.00060722 0.00734183 2.74587e-17 0.00734183)
(0.00732195 -0.00334326 -0.000616414 0.00732195 -1.04124e-18 0.00732195)
(0.00732195 -0.00334326 -0.000616414 0.00732195 2.8395e-17 0.00732195)
(0.0073006 -0.00333088 -0.000625606 0.0073006 -3.33622e-19 0.0073006)
(0.0073006 -0.00333088 -0.000625606 0.0073006 2.97938e-17 0.0073006)
(0.00727777 -0.0033178 -0.000634791 0.00727777 5.94012e-19 0.00727777)
(0.00727777 -0.0033178 -0.000634791 0.00727777 3.02577e-17 0.00727777)
(0.00725347 -0.00330402 -0.000643964 0.00725347 1.90473e-18 0.00725347)
(0.00725347 -0.00330402 -0.000643964 0.00725347 2.84955e-17 0.00725347)
(0.00722772 -0.00328953 -0.000653116 0.00722772 -1.18752e-32 0.00722772)
(0.00722772 -0.00328953 -0.000653116 0.00722772 3.29418e-17 0.00722772)
(0.00720051 -0.00327434 -0.000662243 0.00720051 -1.21631e-18 0.00720051)
(0.00720051 -0.00327434 -0.000662243 0.00720051 3.49347e-17 0.00720051)
(0.00717184 -0.00325845 -0.000671336 0.00717184 6.20479e-18 0.00717184)
(0.00717184 -0.00325845 -0.000671336 0.00717184 3.47519e-17 0.00717184)
(0.00714173 -0.00324186 -0.000680388 0.00714173 6.45792e-18 0.00714173)
(0.00714173 -0.00324186 -0.000680388 0.00714173 3.46285e-17 0.00714173)
(0.00711017 -0.00322455 -0.000689392 0.00711017 3.52711e-18 0.00711017)
(0.00711017 -0.00322455 -0.000689392 0.00711017 3.06616e-17 0.00711017)
(0.00707716 -0.00320654 -0.000698339 0.00707716 3.05501e-18 0.00707716)
(0.00707716 -0.00320654 -0.000698339 0.00707716 2.86069e-17 0.00707716)
(0.00704271 -0.00318782 -0.000707219 0.00704271 -5.87976e-18 0.00704271)
(0.00704271 -0.00318782 -0.000707219 0.00704271 3.40802e-17 0.00704271)
(0.00700681 -0.00316837 -0.000716024 0.00700681 8.14732e-19 0.00700681)
(0.00700681 -0.00316837 -0.000716024 0.00700681 4.05674e-17 0.00700681)
(0.00696947 -0.00314821 -0.000724744 0.00696947 2.58417e-18 0.00696947)
(0.00696947 -0.00314821 -0.000724744 0.00696947 4.0825e-17 0.00696947)
(0.00693068 -0.00312733 -0.000733369 0.00693068 4.17957e-18 0.00693068)
(0.00693068 -0.00312733 -0.000733369 0.00693068 4.24494e-17 0.00693068)
(0.00689044 -0.00310572 -0.000741887 0.00689044 7.51346e-18 0.00689044)
(0.00689044 -0.00310572 -0.000741887 0.00689044 3.65434e-17 0.00689044)
(0.00684875 -0.00308338 -0.000750287 0.00684875 9.80232e-18 0.00684875)
(0.00684875 -0.00308338 -0.000750287 0.00684875 2.93956e-17 0.00684875)
(0.00680561 -0.0030603 -0.000758557 0.00680561 7.22062e-18 0.00680561)
(0.00680561 -0.0030603 -0.000758557 0.00680561 2.4246e-17 0.00680561)
(0.00676101 -0.00303647 -0.000766685 0.00676101 3.94743e-18 0.00676101)
(0.00676101 -0.00303647 -0.000766685 0.00676101 2.35691e-17 0.00676101)
(0.00671495 -0.0030119 -0.000774657 0.00671495 5.58544e-18 0.00671495)
(0.00671495 -0.0030119 -0.000774657 0.00671495 2.41677e-17 0.00671495)
(0.00666744 -0.00298657 -0.00078246 0.00666744 2.96624e-18 0.00666744)
(0.00666744 -0.00298657 -0.00078246 0.00666744 1.33457e-17 0.00666744)
(0.00661845 -0.00296049 -0.000790077 0.00661845 1.11585e-18 0.00661845)
(0.00661845 -0.00296049 -0.000790077 0.00661845 1.82244e-18 0.00661845)
(0.00656799 -0.00293363 -0.000797495 0.00656799 6.44026e-18 0.00656799)
(0.00656799 -0.00293363 -0.000797495 0.00656799 1.00409e-17 0.00656799)
(0.00651606 -0.002906 -0.000804698 0.00651606 7.27124e-18 0.00651606)
(0.00651606 -0.002906 -0.000804698 0.00651606 8.17721e-18 0.00651606)
(0.00646265 -0.00287759 -0.000811667 0.00646265 1.03097e-18 0.00646265)
(0.00646265 -0.00287759 -0.000811667 0.00646265 5.37044e-18 0.00646265)