/*--------------------------------*- C++ -*----------------------------------*\
| =========                 |                                                 |
| \\      /  F ield         | OpenFOAM: The Open Source CFD Toolbox           |
|  \\    /   O peration     | Version:  2106                                  |
|   \\  /    A nd           | Website:  www.openfoam.com                      |
|    \\/     M anipulation  |                                                 |
\*---------------------------------------------------------------------------*/
FoamFile
{
    version     2.0;
    format      ascii;
    arch        "LSB;label=32;scalar=64";
    class       volVectorField;
    location    "10070";
    object      U;
}
// * * * * * * * * * * * * * * * * * * * * * * * * * * * * * * * * * * * * * //

dimensions      [0 1 -1 0 0 0 0];

internalField   nonuniform List<vector> 
800
(
(0.00306853 -9.5809e-16 7.71999e-18)
(0.00306853 7.61541e-20 7.16505e-18)
(0.00934882 -1.25567e-16 7.75449e-17)
(0.00934882 1.43663e-18 3.00905e-17)
(0.015925 -1.52187e-15 8.91772e-17)
(0.015925 3.63949e-18 3.30486e-17)
(0.0228108 -1.22345e-15 1.03788e-16)
(0.0228108 6.13041e-18 3.63248e-17)
(0.0300207 -1.20937e-15 1.19955e-16)
(0.0300207 8.72835e-18 3.99517e-17)
(0.0375697 -1.22221e-15 1.37826e-16)
(0.0375697 1.14082e-17 4.39638e-17)
(0.0454735 -1.23039e-15 1.57708e-16)
(0.0454735 1.40995e-17 4.84043e-17)
(0.0537487 -1.23501e-15 1.79824e-16)
(0.0537487 1.68875e-17 5.33249e-17)
(0.0624123 -1.24008e-15 2.04381e-16)
(0.0624123 1.98215e-17 5.87752e-17)
(0.0714823 -1.2459e-15 2.31617e-16)
(0.0714823 2.28824e-17 6.48001e-17)
(0.0809773 -1.25223e-15 2.61792e-16)
(0.0809773 2.60364e-17 7.14916e-17)
(0.0909167 -1.2588e-15 2.95191e-16)
(0.0909167 2.92526e-17 7.89204e-17)
(0.101321 -1.26551e-15 3.32123e-16)
(0.101321 3.25676e-17 8.71378e-17)
(0.11221 -1.27209e-15 3.45003e-16)
(0.11221 3.56031e-17 9.62565e-17)
(0.123607 -1.2786e-15 3.54668e-16)
(0.123607 3.84072e-17 1.0638e-16)
(0.135532 -1.28553e-15 3.64789e-16)
(0.135532 4.12092e-17 1.1759e-16)
(0.148009 -1.29245e-15 3.8291e-16)
(0.148009 4.36903e-17 1.29995e-16)
(0.161058 -1.29938e-15 4.19778e-16)
(0.161058 4.64681e-17 1.43723e-16)
(0.174702 -1.30662e-15 4.48111e-16)
(0.174702 4.88977e-17 1.58964e-16)
(0.188959 -1.31353e-15 4.77324e-16)
(0.188959 5.08687e-17 1.75827e-16)
(0.203848 -1.32018e-15 5.07946e-16)
(0.203848 5.20429e-17 1.94315e-16)
(0.219381 -1.32645e-15 5.39835e-16)
(0.219381 5.21323e-17 2.14732e-16)
(0.235566 -1.33229e-15 5.72878e-16)
(0.235566 5.27918e-17 2.36917e-16)
(0.252402 -1.33997e-15 6.06648e-16)
(0.252402 5.45997e-17 2.60743e-16)
(0.269879 -1.34618e-15 6.41088e-16)
(0.269879 5.47663e-17 2.86729e-16)
(0.287972 -1.34997e-15 6.74896e-16)
(0.287972 5.34516e-17 3.14752e-16)
(0.306642 -1.35489e-15 7.07302e-16)
(0.306642 5.12927e-17 3.44211e-16)
(0.325834 -1.35804e-15 7.38093e-16)
(0.325834 4.62665e-17 3.75086e-16)
(0.345474 -1.35705e-15 7.66325e-16)
(0.345474 3.99447e-17 4.06892e-16)
(0.365473 -1.35417e-15 7.90989e-16)
(0.365473 3.12751e-17 4.39397e-16)
(0.385731 -1.35061e-15 8.11272e-16)
(0.385731 2.06182e-17 4.71852e-16)
(0.406137 -1.34746e-15 8.26766e-16)
(0.406137 1.12354e-17 5.04259e-16)
(0.426579 -1.34428e-15 8.36858e-16)
(0.426579 7.63862e-19 5.36192e-16)
(0.446951 -1.3359e-15 8.42295e-16)
(0.446951 -1.27048e-17 5.68276e-16)
(0.467152 -1.32557e-15 8.42208e-16)
(0.467152 -2.61326e-17 5.99358e-16)
(0.487098 -1.31272e-15 8.38213e-16)
(0.487098 -4.1997e-17 6.30085e-16)
(0.506717 -1.29804e-15 8.30952e-16)
(0.506717 -5.8228e-17 6.61256e-16)
(0.525954 -1.28605e-15 8.20623e-16)
(0.525954 -7.31141e-17 6.90973e-16)
(0.544768 -1.27387e-15 8.06352e-16)
(0.544768 -8.93373e-17 7.20728e-16)
(0.563135 -1.25888e-15 7.90714e-16)
(0.563135 -1.05701e-16 7.52275e-16)
(0.581037 -1.24007e-15 7.70362e-16)
(0.581037 -1.25355e-16 7.84205e-16)
(0.598472 -1.21823e-15 7.5105e-16)
(0.598472 -1.42756e-16 8.16646e-16)
(0.61544 -1.19259e-15 7.28548e-16)
(0.61544 -1.68918e-16 8.52137e-16)
(0.631949 -1.17143e-15 7.0202e-16)
(0.631949 -1.94471e-16 8.87581e-16)
(0.648011 -1.15006e-15 6.77318e-16)
(0.648011 -2.16656e-16 9.22897e-16)
(0.663641 -1.12331e-15 6.50162e-16)
(0.663641 -2.49091e-16 8.92924e-16)
(0.678855 -1.09335e-15 6.22209e-16)
(0.678855 -2.73313e-16 8.56799e-16)
(0.69367 -1.06951e-15 5.88785e-16)
(0.69367 -2.98268e-16 8.17265e-16)
(0.708105 -1.04127e-15 5.67291e-16)
(0.708105 -3.21943e-16 7.72167e-16)
(0.722177 -1.00441e-15 5.38626e-16)
(0.722177 -3.52017e-16 7.36268e-16)
(0.735904 -9.67861e-16 5.07324e-16)
(0.735904 -3.85418e-16 7.04122e-16)
(0.749302 -9.28859e-16 4.80427e-16)
(0.749302 -4.02269e-16 6.81593e-16)
(0.762388 -8.98563e-16 4.55086e-16)
(0.762388 -4.17108e-16 6.63167e-16)
(0.775177 -8.63694e-16 4.49603e-16)
(0.775177 -4.34027e-16 6.38134e-16)
(0.787683 -8.25206e-16 4.4589e-16)
(0.787683 -4.43647e-16 6.15155e-16)
(0.79992 -7.90337e-16 4.34163e-16)
(0.79992 -4.61712e-16 5.89674e-16)
(0.811902 -7.57034e-16 4.3729e-16)
(0.811902 -4.64188e-16 5.62766e-16)
(0.823639 -7.17787e-16 4.25902e-16)
(0.823639 -4.54479e-16 5.45008e-16)
(0.835143 -6.96001e-16 4.18342e-16)
(0.835143 -4.70789e-16 5.26056e-16)
(0.846423 -6.83157e-16 4.24748e-16)
(0.846423 -4.6366e-16 4.93511e-16)
(0.857491 -6.51299e-16 4.1423e-16)
(0.857491 -4.62928e-16 4.74601e-16)
(0.868354 -6.45424e-16 3.94005e-16)
(0.868354 -4.67575e-16 4.69788e-16)
(0.87902 -6.43348e-16 3.9108e-16)
(0.87902 -4.69449e-16 4.4846e-16)
(0.889496 -6.30417e-16 3.71083e-16)
(0.889496 -4.47505e-16 4.1123e-16)
(0.89979 -6.15619e-16 3.61203e-16)
(0.89979 -4.44153e-16 3.49938e-16)
(0.909907 -5.79454e-16 3.52745e-16)
(0.909907 -4.62244e-16 3.28744e-16)
(0.919853 -5.38507e-16 3.86344e-16)
(0.919853 -4.61552e-16 3.36825e-16)
(0.929632 -5.02878e-16 3.63056e-16)
(0.929632 -4.70771e-16 3.48726e-16)
(0.939249 -4.67116e-16 3.62946e-16)
(0.939249 -4.4863e-16 3.65402e-16)
(0.948708 -4.53682e-16 3.70986e-16)
(0.948708 -4.5146e-16 3.55546e-16)
(0.958012 -4.45708e-16 3.84736e-16)
(0.958012 -4.61777e-16 3.4246e-16)
(0.967164 -4.54848e-16 3.64751e-16)
(0.967164 -4.5961e-16 3.37969e-16)
(0.976166 -4.71977e-16 3.26723e-16)
(0.976166 -4.73107e-16 3.53647e-16)
(0.98502 -4.91081e-16 2.93609e-16)
(0.98502 -5.06323e-16 3.48557e-16)
(0.993726 -5.12594e-16 3.22251e-16)
(0.993726 -5.01456e-16 3.2336e-16)
(1.00229 -4.88818e-16 2.83363e-16)
(1.00229 -4.58253e-16 2.85157e-16)
(1.0107 -4.98472e-16 2.8729e-16)
(1.0107 -4.91529e-16 2.70462e-16)
(1.01897 -4.99805e-16 2.50253e-16)
(1.01897 -5.11708e-16 2.34827e-16)
(1.02709 -4.75985e-16 2.11697e-16)
(1.02709 -5.04595e-16 1.94284e-16)
(1.03506 -5.05101e-16 1.71317e-16)
(1.03506 -4.9594e-16 2.05778e-16)
(1.04288 -5.01674e-16 1.54409e-16)
(1.04288 -5.06796e-16 1.31374e-16)
(1.05054 -4.70066e-16 5.51094e-17)
(1.05054 -4.50948e-16 1.12843e-16)
(1.05804 -4.15379e-16 2.06277e-16)
(1.05804 -3.94485e-16 1.97639e-16)
(1.06538 -3.49616e-16 2.46163e-16)
(1.06538 -3.68039e-16 1.49627e-16)
(1.07254 -3.53996e-16 2.35166e-16)
(1.07254 -3.55667e-16 3.51508e-16)
(1.07953 -3.68843e-16 3.20182e-16)
(1.07953 -4.16283e-16 2.65832e-16)
(1.08632 -3.63359e-16 2.46339e-16)
(1.08632 -3.7159e-16 2.07818e-16)
(1.09291 -3.32986e-16 2.87322e-16)
(1.09291 -3.61742e-16 2.58504e-16)
(1.09929 -3.52405e-16 2.04388e-16)
(1.09929 -3.46227e-16 1.56228e-16)
(1.10542 -3.37294e-16 2.87032e-16)
(1.10542 -3.4821e-16 2.48032e-16)
(1.1113 -3.21013e-16 2.96653e-16)
(1.1113 -3.19521e-16 3.08915e-16)
(1.1169 -3.85369e-16 3.03436e-16)
(1.1169 -3.85817e-16 3.34438e-16)
(1.12218 -3.94543e-16 3.13685e-16)
(1.12218 -3.72444e-16 3.42067e-16)
(1.1271 -3.37773e-16 2.97795e-16)
(1.1271 -3.56169e-16 2.43019e-16)
(1.13161 -3.25307e-16 3.34177e-16)
(1.13161 -3.72777e-16 2.37006e-16)
(1.13564 -3.5724e-16 2.29843e-16)
(1.13564 -3.4983e-16 3.53222e-16)
(1.13911 -4.36074e-16 1.05675e-16)
(1.13911 -4.14032e-16 7.83332e-17)
(1.14193 -4.52626e-16 4.1366e-16)
(1.14193 -4.03048e-16 1.07896e-16)
(1.14395 -3.39404e-16 4.52509e-16)
(1.14395 -3.20721e-16 3.16833e-16)
(1.14504 -2.20635e-16 5.15751e-16)
(1.14504 -2.8477e-16 2.19386e-16)
(0.00306853 6.59745e-20 -1.73789e-18)
(0.00306853 4.40822e-20 -1.00714e-18)
(0.00934882 8.35827e-19 -4.66779e-18)
(0.00934882 2.0697e-19 -1.28442e-17)
(0.015925 2.08574e-18 -6.31809e-18)
(0.015925 5.4079e-19 -1.40728e-17)
(0.0228108 3.5054e-18 -1.22896e-17)
(0.0228108 9.26285e-19 -1.54156e-17)
(0.0300207 4.98442e-18 -1.33874e-17)
(0.0300207 1.38994e-18 -1.68784e-17)
(0.0375697 6.58862e-18 -1.45521e-17)
(0.0375697 1.88039e-18 -1.84687e-17)
(0.0454735 8.25359e-18 -1.5779e-17)
(0.0454735 2.4761e-18 -2.02041e-17)
(0.0537487 9.89737e-18 -1.70725e-17)
(0.0537487 3.23195e-18 -2.20951e-17)
(0.0624123 1.17319e-17 -1.84376e-17)
(0.0624123 4.04243e-18 -2.41449e-17)
(0.0714823 1.38155e-17 -1.98577e-17)
(0.0714823 4.79059e-18 -2.63797e-17)
(0.0809773 1.59046e-17 -2.13287e-17)
(0.0809773 5.50811e-18 -2.88109e-17)
(0.0909167 1.79022e-17 -2.28485e-17)
(0.0909167 6.36837e-18 -3.14482e-17)
(0.101321 1.99683e-17 -2.44169e-17)
(0.101321 7.61788e-18 -3.43095e-17)
(0.11221 2.23763e-17 -2.60089e-17)
(0.11221 8.87468e-18 -3.74209e-17)
(0.123607 2.49524e-17 -2.76224e-17)
(0.123607 9.80791e-18 -4.08011e-17)
(0.135532 2.77935e-17 -2.92623e-17)
(0.135532 1.09552e-17 -4.44306e-17)
(0.148009 3.05036e-17 -3.08861e-17)
(0.148009 1.31446e-17 -4.83655e-17)
(0.161058 3.26259e-17 -3.25247e-17)
(0.161058 1.53857e-17 -5.26367e-17)
(0.174702 3.50358e-17 -5.58259e-17)
(0.174702 1.7038e-17 -5.71519e-17)
(0.188959 3.79848e-17 -8.82807e-17)
(0.188959 1.92685e-17 -6.19247e-17)
(0.203848 4.13522e-17 -1.23689e-16)
(0.203848 2.13461e-17 -6.69921e-17)
(0.219381 4.39068e-17 -1.61988e-16)
(0.219381 2.47575e-17 -7.23568e-17)
(0.235566 4.53217e-17 -2.03201e-16)
(0.235566 2.95136e-17 -7.78843e-17)
(0.252402 4.65228e-17 -2.47326e-16)
(0.252402 3.43429e-17 -8.37604e-17)
(0.269879 4.87839e-17 -2.93775e-16)
(0.269879 3.98883e-17 -8.98826e-17)
(0.287972 5.259e-17 -3.42204e-16)
(0.287972 4.48003e-17 -9.5628e-17)
(0.306642 5.70836e-17 -3.91844e-16)
(0.306642 4.76491e-17 -1.00994e-16)
(0.325834 6.01855e-17 -4.41575e-16)
(0.325834 5.2337e-17 -1.06242e-16)
(0.345474 6.02696e-17 -4.91254e-16)
(0.345474 5.83185e-17 -1.11013e-16)
(0.365473 5.9943e-17 -5.39903e-16)
(0.365473 6.35827e-17 -1.14705e-16)
(0.385731 6.09996e-17 -5.87047e-16)
(0.385731 6.80571e-17 -1.17847e-16)
(0.406137 6.1633e-17 -6.30984e-16)
(0.406137 7.12185e-17 -1.2167e-16)
(0.426579 6.19473e-17 -6.71248e-16)
(0.426579 7.51243e-17 -1.24517e-16)
(0.446951 6.30512e-17 -7.06356e-16)
(0.446951 8.0009e-17 -1.25958e-16)
(0.467152 6.30554e-17 -7.37262e-16)
(0.467152 8.51523e-17 -1.26538e-16)
(0.487098 6.33799e-17 -7.62939e-16)
(0.487098 8.96112e-17 -1.25823e-16)
(0.506717 6.64796e-17 -7.84372e-16)
(0.506717 9.38285e-17 -1.22834e-16)
(0.525954 7.3791e-17 -8.02656e-16)
(0.525954 9.23594e-17 -1.20282e-16)
(0.544768 8.08726e-17 -8.16029e-16)
(0.544768 8.89793e-17 -1.20994e-16)
(0.563135 8.36555e-17 -8.23333e-16)
(0.563135 9.47477e-17 -1.19347e-16)
(0.581037 8.57137e-17 -8.28131e-16)
(0.581037 1.02794e-16 -1.15292e-16)
(0.598472 8.6317e-17 -8.27363e-16)
(0.598472 1.04959e-16 -1.12391e-16)
(0.61544 8.32006e-17 -8.26895e-16)
(0.61544 1.05163e-16 -1.07388e-16)
(0.631949 8.03342e-17 -8.23847e-16)
(0.631949 1.08759e-16 -1.02189e-16)
(0.648011 7.69611e-17 -8.1735e-16)
(0.648011 1.06982e-16 -9.75559e-17)
(0.663641 6.97148e-17 -8.06847e-16)
(0.663641 1.06754e-16 -8.84217e-17)
(0.678855 6.50525e-17 -7.95932e-16)
(0.678855 1.03599e-16 -7.82915e-17)
(0.69367 6.02413e-17 -7.84821e-16)
(0.69367 9.57494e-17 -6.54891e-17)
(0.708105 5.57548e-17 -7.70231e-16)
(0.708105 9.86791e-17 -5.03779e-17)
(0.722177 6.20477e-17 -7.57834e-16)
(0.722177 1.00759e-16 -4.53956e-17)
(0.735904 6.56805e-17 -7.38443e-16)
(0.735904 1.02423e-16 -5.89356e-17)
(0.749302 5.91028e-17 -7.2195e-16)
(0.749302 9.72146e-17 -8.14641e-17)
(0.762388 5.14241e-17 -7.08852e-16)
(0.762388 9.86104e-17 -9.82244e-17)
(0.775177 4.17873e-17 -6.9224e-16)
(0.775177 9.52376e-17 -1.1593e-16)
(0.787683 3.3845e-17 -6.77605e-16)
(0.787683 7.88801e-17 -1.31478e-16)
(0.79992 3.64758e-17 -6.58459e-16)
(0.79992 8.50293e-17 -1.5297e-16)
(0.811902 3.66419e-17 -6.39948e-16)
(0.811902 8.23707e-17 -1.75227e-16)
(0.823639 3.71824e-17 -6.30932e-16)
(0.823639 8.24041e-17 -1.90137e-16)
(0.835143 3.93093e-17 -6.18102e-16)
(0.835143 7.4026e-17 -1.98489e-16)
(0.846423 4.62218e-17 -5.91696e-16)
(0.846423 6.97393e-17 -2.12405e-16)
(0.857491 5.90915e-17 -5.6829e-16)
(0.857491 5.44631e-17 -2.36141e-16)
(0.868354 3.00704e-17 -5.4919e-16)
(0.868354 1.75549e-17 -2.43824e-16)
(0.87902 -1.37698e-17 -5.26414e-16)
(0.87902 -1.40043e-18 -2.4804e-16)
(0.889496 -3.65604e-17 -5.06928e-16)
(0.889496 -1.50248e-17 -2.79799e-16)
(0.89979 -3.84772e-17 -4.72945e-16)
(0.89979 -1.13563e-17 -3.45729e-16)
(0.909907 -3.25893e-17 -4.64106e-16)
(0.909907 -5.93276e-18 -3.76636e-16)
(0.919853 -2.80041e-17 -4.44574e-16)
(0.919853 -3.39665e-17 -3.56685e-16)
(0.929632 -1.28832e-17 -4.20729e-16)
(0.929632 -2.65296e-17 -3.50794e-16)
(0.939249 -1.66875e-17 -3.87848e-16)
(0.939249 -3.85638e-17 -3.50951e-16)
(0.948708 -3.50181e-17 -3.63692e-16)
(0.948708 -5.78172e-17 -3.50166e-16)
(0.958012 -8.43843e-17 -3.61542e-16)
(0.958012 -4.82753e-17 -3.35455e-16)
(0.967164 -1.10404e-16 -3.82835e-16)
(0.967164 -6.35677e-17 -3.11024e-16)
(0.976166 -1.06638e-16 -3.93318e-16)
(0.976166 -1.02138e-16 -3.17234e-16)
(0.98502 -1.36336e-16 -4.16815e-16)
(0.98502 -1.27747e-16 -3.42723e-16)
(0.993726 -1.70972e-16 -4.01375e-16)
(0.993726 -1.35909e-16 -3.4404e-16)
(1.00229 -1.13438e-16 -3.55683e-16)
(1.00229 -1.23736e-16 -3.22126e-16)
(1.0107 -1.28452e-16 -2.98041e-16)
(1.0107 -1.42053e-16 -2.81459e-16)
(1.01897 -1.57226e-16 -3.05016e-16)
(1.01897 -1.45712e-16 -2.88462e-16)
(1.02709 -2.12711e-16 -2.87088e-16)
(1.02709 -1.63961e-16 -2.76679e-16)
(1.03506 -2.55025e-16 -2.69258e-16)
(1.03506 -2.80591e-16 -1.86146e-16)
(1.04288 -2.69136e-16 -2.20017e-16)
(1.04288 -3.2486e-16 -2.07759e-16)
(1.05054 -3.50516e-16 -1.35088e-16)
(1.05054 -3.46919e-16 -1.53717e-16)
(1.05804 -3.25238e-16 -1.59351e-16)
(1.05804 -4.36485e-16 -1.70971e-16)
(1.06538 -3.02606e-16 -1.56221e-16)
(1.06538 -3.51249e-16 -1.24826e-16)
(1.07254 -3.06808e-16 -7.24922e-17)
(1.07254 -2.94586e-16 -2.38077e-16)
(1.07953 -3.12183e-16 -2.05864e-16)
(1.07953 -2.56517e-16 -3.28572e-16)
(1.08632 -3.1869e-16 -2.35416e-16)
(1.08632 -2.75747e-16 -2.11468e-16)
(1.09291 -2.91408e-16 -1.61196e-16)
(1.09291 -2.82442e-16 -1.78925e-16)
(1.09929 -3.02666e-16 -1.76091e-16)
(1.09929 -3.06669e-16 -1.69553e-16)
(1.10542 -3.03142e-16 -3.82089e-16)
(1.10542 -3.35879e-16 -2.69466e-16)
(1.1113 -2.38175e-16 -4.4105e-16)
(1.1113 -2.73567e-16 -4.07785e-16)
(1.1169 -3.5366e-16 -2.32503e-16)
(1.1169 -3.113e-16 -3.08532e-16)
(1.12218 -3.72785e-16 -3.09136e-16)
(1.12218 -3.27631e-16 -2.69999e-16)
(1.1271 -3.40068e-16 -3.03681e-16)
(1.1271 -3.53768e-16 -2.78639e-16)
(1.13161 -3.61695e-16 -3.26163e-16)
(1.13161 -3.95739e-16 -2.79245e-16)
(1.13564 -4.26523e-16 -1.7324e-16)
(1.13564 -3.9479e-16 -2.4724e-16)
(1.13911 -4.10068e-16 -2.82125e-16)
(1.13911 -4.06864e-16 -1.15335e-16)
(1.14193 -3.95713e-16 -4.88425e-17)
(1.14193 -3.84276e-16 -9.83751e-17)
(1.14395 -4.04251e-16 -2.4884e-16)
(1.14395 -3.73574e-16 -1.20111e-16)
(1.14504 -3.05966e-16 -1.6e-16)
(1.14504 -2.97036e-16 -1.63695e-16)
(1.14504 -1.1667e-16 1.97947e-16)
(1.14504 -1.6817e-16 2.08313e-16)
(1.14395 -1.05998e-16 2.12815e-16)
(1.14395 -8.50345e-17 2.9631e-16)
(1.14193 -4.57852e-17 2.98552e-16)
(1.14193 -3.52703e-17 3.78571e-16)
(1.13911 -1.02708e-16 1.03267e-16)
(1.13911 -9.61371e-17 9.53371e-17)
(1.13564 -1.07864e-16 1.59577e-16)
(1.13564 -5.05488e-17 1.09859e-16)
(1.13161 -1.35875e-16 2.48641e-16)
(1.13161 -6.44047e-17 1.21199e-16)
(1.1271 -8.38926e-17 2.6015e-16)
(1.1271 -1.22299e-16 1.50971e-16)
(1.12218 -9.69329e-17 2.24405e-16)
(1.12218 -1.59627e-16 1.93915e-16)
(1.1169 -1.29097e-16 6.11104e-17)
(1.1169 -1.71162e-16 1.81888e-16)
(1.1113 -1.55602e-16 7.67982e-17)
(1.1113 -1.80941e-16 8.90258e-17)
(1.10542 -1.36966e-16 8.15346e-17)
(1.10542 -9.3402e-17 1.65598e-16)
(1.09929 -1.40294e-16 5.11329e-17)
(1.09929 -8.59154e-17 1.03795e-16)
(1.09291 -1.54388e-16 1.20985e-16)
(1.09291 -1.11872e-16 5.83984e-17)
(1.08632 -1.69438e-16 1.08361e-16)
(1.08632 -1.79002e-16 1.66506e-16)
(1.07953 -1.51317e-16 1.91686e-16)
(1.07953 -1.99385e-16 1.27449e-16)
(1.07254 -2.13606e-16 1.20607e-16)
(1.07254 -2.23524e-16 1.68404e-16)
(1.06538 -2.22465e-16 1.29242e-16)
(1.06538 -1.76732e-16 8.18419e-17)
(1.05804 -1.9907e-16 1.4189e-16)
(1.05804 -1.72166e-16 7.77032e-17)
(1.05054 -1.18454e-16 1.57495e-16)
(1.05054 -1.97798e-16 8.19244e-17)
(1.04288 -1.06753e-16 6.47699e-17)
(1.04288 -1.52219e-16 7.50251e-17)
(1.03506 -1.1e-16 2.66252e-17)
(1.03506 -1.57187e-16 7.68321e-17)
(1.02709 -1.15999e-16 5.56877e-17)
(1.02709 -1.53107e-16 1.09683e-16)
(1.01897 -1.34269e-16 8.83803e-17)
(1.01897 -1.3519e-16 1.48796e-16)
(1.0107 -1.23132e-16 1.26699e-16)
(1.0107 -5.96551e-17 1.143e-16)
(1.00229 -9.17275e-17 5.80259e-17)
(1.00229 -7.95387e-17 1.10165e-16)
(0.993726 -5.16257e-17 4.21571e-17)
(0.993726 -5.13442e-17 1.07241e-16)
(0.98502 -6.93295e-17 6.41372e-17)
(0.98502 -5.83409e-17 7.11779e-17)
(0.976166 -8.61517e-17 5.68382e-17)
(0.976166 -5.42919e-17 5.39991e-17)
(0.967164 -7.74089e-17 7.2687e-17)
(0.967164 -4.55835e-17 3.96901e-17)
(0.958012 -6.98439e-17 2.83916e-17)
(0.958012 -5.31744e-17 4.44148e-17)
(0.948708 -3.97235e-17 2.42404e-17)
(0.948708 -5.14707e-17 4.47421e-17)
(0.939249 -5.27026e-17 1.83488e-17)
(0.939249 -5.73063e-17 1.94676e-17)
(0.929632 -5.11361e-17 9.70481e-18)
(0.929632 -3.7672e-17 2.12e-17)
(0.919853 -5.37668e-17 1.58892e-17)
(0.919853 -5.543e-17 2.23982e-17)
(0.909907 -5.41235e-17 1.35882e-17)
(0.909907 -4.39751e-17 1.34687e-17)
(0.89979 -5.58814e-17 9.104e-18)
(0.89979 -3.84706e-17 2.19123e-17)
(0.889496 -5.67945e-17 9.8208e-18)
(0.889496 -3.16571e-17 1.61566e-17)
(0.87902 -5.29932e-17 1.72384e-17)
(0.87902 -4.56317e-17 6.74174e-18)
(0.868354 -2.96311e-17 1.19097e-17)
(0.868354 -4.0405e-17 1.40515e-17)
(0.857491 -3.3759e-17 1.84728e-17)
(0.857491 -3.20451e-17 1.36709e-17)
(0.846423 -2.58315e-17 1.33772e-17)
(0.846423 -3.34825e-17 6.25545e-18)
(0.835143 -3.11849e-17 1.18817e-17)
(0.835143 -1.27428e-17 7.79091e-18)
(0.823639 -3.50954e-17 1.57645e-17)
(0.823639 -1.24176e-17 1.35266e-17)
(0.811902 -2.11358e-17 1.60074e-17)
(0.811902 -3.30821e-17 1.35033e-17)
(0.79992 -9.84766e-18 1.16771e-17)
(0.79992 -2.85849e-17 1.58259e-17)
(0.787683 -3.78284e-18 5.67842e-18)
(0.787683 -2.60339e-17 1.51371e-17)
(0.775177 -2.09458e-19 4.50784e-18)
(0.775177 -1.81259e-17 1.39299e-17)
(0.762388 -4.20213e-18 4.2426e-18)
(0.762388 -1.26104e-17 1.48232e-17)
(0.749302 -1.31495e-19 1.45206e-17)
(0.749302 -1.37843e-17 8.607e-18)
(0.735904 -1.77914e-18 1.08346e-17)
(0.735904 -1.03409e-17 1.45586e-17)
(0.722177 2.78832e-18 9.34825e-18)
(0.722177 -9.02598e-18 1.69063e-17)
(0.708105 -8.03162e-19 7.57857e-18)
(0.708105 -6.53133e-18 2.01318e-17)
(0.69367 -5.36192e-20 7.04483e-18)
(0.69367 -1.01159e-17 2.0623e-17)
(0.678855 -4.79393e-18 8.54376e-18)
(0.678855 -7.92043e-18 1.81583e-17)
(0.663641 -6.09881e-18 7.08911e-18)
(0.663641 -8.83406e-18 1.78957e-17)
(0.648011 -5.61645e-18 6.55741e-18)
(0.648011 -7.3076e-18 1.80125e-17)
(0.631949 -5.66595e-18 7.51681e-18)
(0.631949 -1.31311e-17 1.56979e-17)
(0.61544 -3.43536e-18 6.95932e-18)
(0.61544 -7.88207e-18 1.64325e-17)
(0.598472 4.62761e-19 6.41065e-18)
(0.598472 -1.18293e-18 1.69e-17)
(0.581037 -1.01073e-17 5.91609e-18)
(0.581037 8.33587e-19 1.5696e-17)
(0.563135 -7.12484e-18 5.43685e-18)
(0.563135 5.59664e-20 1.31583e-17)
(0.544768 -1.80588e-18 4.24279e-18)
(0.544768 1.2181e-18 1.12801e-17)
(0.525954 -1.50746e-18 4.04028e-18)
(0.525954 -2.36703e-18 1.261e-17)
(0.506717 -7.99563e-19 4.07071e-18)
(0.506717 -3.82338e-18 1.31861e-17)
(0.487098 1.67966e-19 4.09048e-18)
(0.487098 -6.75951e-18 1.39447e-17)
(0.467152 -1.75164e-18 3.85179e-18)
(0.467152 -7.00258e-18 1.36757e-17)
(0.446951 -1.75889e-18 4.08512e-18)
(0.446951 -5.88205e-18 1.28986e-17)
(0.426579 -1.5463e-18 3.98774e-18)
(0.426579 -6.05803e-18 1.27903e-17)
(0.406137 -4.36516e-18 4.12056e-18)
(0.406137 -5.29482e-18 1.24739e-17)
(0.385731 -3.74461e-18 4.04227e-18)
(0.385731 -3.89e-18 1.16235e-17)
(0.365473 -2.96871e-18 3.84256e-18)
(0.365473 -4.66382e-18 1.12813e-17)
(0.345474 -2.15788e-18 3.80555e-18)
(0.345474 -3.17404e-18 1.09901e-17)
(0.325834 -1.19343e-18 3.62829e-18)
(0.325834 -2.86886e-18 1.04802e-17)
(0.306642 -1.16596e-18 3.39238e-18)
(0.306642 -3.41786e-18 9.85215e-18)
(0.287972 -1.18787e-18 3.38745e-18)
(0.287972 -2.64702e-18 9.16885e-18)
(0.269879 -1.12835e-18 3.26835e-18)
(0.269879 -3.18346e-18 8.57381e-18)
(0.252402 -1.24878e-18 2.9183e-18)
(0.252402 -1.50532e-18 8.12438e-18)
(0.235566 -2.86228e-18 2.8094e-18)
(0.235566 5.21351e-19 7.22495e-18)
(0.219381 -1.89785e-18 2.43603e-18)
(0.219381 3.89487e-19 6.59004e-18)
(0.203848 -1.34056e-18 2.27953e-18)
(0.203848 4.37269e-19 6.01285e-18)
(0.188959 -5.60609e-19 2.14363e-18)
(0.188959 3.06901e-19 5.5807e-18)
(0.174702 -3.69811e-19 1.9896e-18)
(0.174702 5.21304e-20 5.12696e-18)
(0.161058 -2.73523e-19 1.81923e-18)
(0.161058 1.49871e-19 4.73413e-18)
(0.148009 -2.33729e-19 1.68472e-18)
(0.148009 2.51036e-19 4.33101e-18)
(0.135532 -1.01787e-19 1.57028e-18)
(0.135532 -2.68939e-20 3.93093e-18)
(0.123607 -1.6792e-19 1.45188e-18)
(0.123607 -7.36993e-21 3.57834e-18)
(0.11221 -5.55162e-19 1.30521e-18)
(0.11221 1.21728e-21 3.27888e-18)
(0.101321 -1.90397e-20 1.18876e-18)
(0.101321 -1.46116e-19 2.98317e-18)
(0.0909167 9.04995e-20 1.09296e-18)
(0.0909167 -5.61425e-20 2.71193e-18)
(0.0809773 1.39835e-19 1.00743e-18)
(0.0809773 -1.65435e-19 2.47652e-18)
(0.0714823 4.76777e-20 9.24394e-19)
(0.0714823 -1.17985e-19 2.26143e-18)
(0.0624123 1.63689e-19 8.37201e-19)
(0.0624123 -5.35442e-20 2.06825e-18)
(0.0537487 7.45564e-20 7.65526e-19)
(0.0537487 -1.85989e-19 1.89296e-18)
(0.0454735 8.41035e-20 6.96944e-19)
(0.0454735 -1.83607e-19 1.73116e-18)
(0.0375697 1.26926e-20 6.29165e-19)
(0.0375697 -8.70772e-20 1.58152e-18)
(0.0300207 2.5478e-20 5.72318e-19)
(0.0300207 -3.07565e-20 1.44141e-18)
(0.0228108 -1.47708e-21 5.21535e-19)
(0.0228108 -1.24632e-20 1.31288e-18)
(0.015925 1.72139e-20 4.74902e-19)
(0.015925 -1.78769e-20 1.19623e-18)
(0.00934882 1.60391e-20 4.32471e-19)
(0.00934882 -1.49986e-20 1.09104e-18)
(0.00306853 -6.43042e-21 3.38153e-20)
(0.00306853 -2.13188e-21 1.95105e-19)
(1.14504 -1.39438e-16 -3.90164e-16)
(1.14504 -2.72393e-16 -1.58555e-16)
(1.14395 -1.94848e-16 -2.68592e-16)
(1.14395 -1.41812e-16 -4.01797e-16)
(1.14193 -9.3575e-17 -2.82167e-16)
(1.14193 -5.23437e-17 -2.50451e-16)
(1.13911 -2.06846e-17 -2.17812e-16)
(1.13911 -7.09219e-18 -2.97966e-16)
(1.13564 -3.44442e-17 -1.38837e-16)
(1.13564 3.69858e-17 -6.49853e-17)
(1.13161 -2.12454e-17 -1.96234e-16)
(1.13161 -4.43391e-17 -1.60603e-16)
(1.1271 -6.29028e-17 -1.85453e-16)
(1.1271 -9.48231e-17 -1.21903e-16)
(1.12218 -1.07417e-16 -1.09762e-16)
(1.12218 -7.61472e-17 -1.53197e-16)
(1.1169 -1.27987e-16 -1.11635e-16)
(1.1169 -1.41076e-16 -1.93421e-16)
(1.1113 -1.58168e-16 -6.3686e-17)
(1.1113 -1.20995e-16 -9.5732e-17)
(1.10542 -1.585e-16 -9.34191e-17)
(1.10542 -1.33113e-16 -1.14928e-16)
(1.09929 -1.63489e-16 -1.03306e-16)
(1.09929 -1.11058e-16 -7.79875e-17)
(1.09291 -1.38555e-16 -1.79844e-16)
(1.09291 -2.05333e-16 -1.32648e-16)
(1.08632 -1.85806e-16 -6.97609e-17)
(1.08632 -1.57272e-16 -1.439e-16)
(1.07953 -1.7148e-16 -3.31795e-17)
(1.07953 -1.18404e-16 -7.67098e-17)
(1.07254 -2.12956e-16 -7.66094e-17)
(1.07254 -1.80312e-16 -6.74582e-17)
(1.06538 -2.19776e-16 -1.4225e-16)
(1.06538 -2.02362e-16 -1.21962e-16)
(1.05804 -2.05857e-16 -1.08812e-16)
(1.05804 -2.24124e-16 -1.46983e-16)
(1.05054 -1.99028e-16 -1.63128e-16)
(1.05054 -2.57725e-16 -1.26455e-16)
(1.04288 -1.7186e-16 -5.69367e-17)
(1.04288 -2.26387e-16 -1.12374e-16)
(1.03506 -1.68506e-16 -1.05569e-16)
(1.03506 -1.97743e-16 -1.37211e-16)
(1.02709 -1.55154e-16 -1.07718e-16)
(1.02709 -1.38034e-16 -8.19596e-17)
(1.01897 -1.74087e-16 -1.20736e-16)
(1.01897 -9.42959e-17 -5.83661e-17)
(1.0107 -1.40485e-16 -1.10039e-16)
(1.0107 -9.10478e-17 -8.70275e-17)
(1.00229 -7.72051e-17 -8.92445e-17)
(1.00229 -1.11139e-16 -1.13033e-16)
(0.993726 -6.99159e-17 -1.07297e-16)
(0.993726 -1.07369e-16 -5.38301e-17)
(0.98502 -7.46953e-17 -7.53562e-17)
(0.98502 -9.94793e-17 -6.71903e-17)
(0.976166 -9.53449e-17 -7.63608e-17)
(0.976166 -1.18076e-16 -6.66727e-17)
(0.967164 -3.76657e-17 -4.55402e-17)
(0.967164 -9.00265e-17 -7.72024e-17)
(0.958012 -6.83706e-17 -4.08876e-17)
(0.958012 -3.64223e-17 -6.22126e-17)
(0.948708 -7.68824e-17 -3.05413e-17)
(0.948708 -4.2322e-17 -4.13947e-17)
(0.939249 -2.17884e-17 -3.79053e-17)
(0.939249 -3.11437e-17 -5.29552e-17)
(0.929632 -3.01086e-17 -4.90396e-17)
(0.929632 -2.44609e-17 -4.77314e-17)
(0.919853 -2.73835e-17 -4.48564e-17)
(0.919853 -3.40323e-17 -3.22921e-17)
(0.909907 -2.42539e-17 -2.64243e-17)
(0.909907 -1.51382e-17 -2.24942e-17)
(0.89979 -2.97707e-17 -2.93791e-17)
(0.89979 -2.54328e-17 -1.56774e-17)
(0.889496 -3.90772e-17 -2.57478e-17)
(0.889496 -3.61979e-17 -2.50169e-17)
(0.87902 -1.40188e-17 -1.81138e-17)
(0.87902 -5.93583e-17 -3.54773e-17)
(0.868354 -3.04739e-17 -3.08683e-18)
(0.868354 -4.84734e-17 -3.00153e-17)
(0.857491 -3.8536e-17 -3.54998e-18)
(0.857491 -3.17483e-17 -2.28416e-17)
(0.846423 -3.28704e-17 -8.83542e-18)
(0.846423 -3.67058e-17 -2.77531e-17)
(0.835143 -3.39396e-17 -1.34668e-17)
(0.835143 -2.50137e-17 -2.97115e-17)
(0.823639 -2.90293e-17 -1.66873e-17)
(0.823639 -3.96819e-17 -2.52479e-17)
(0.811902 -2.52506e-17 -1.53646e-17)
(0.811902 -2.76394e-17 -3.01559e-17)
(0.79992 -2.77246e-17 -1.82171e-17)
(0.79992 -2.63769e-17 -2.98989e-17)
(0.787683 -3.57626e-17 -1.26657e-17)
(0.787683 -2.63263e-17 -2.26035e-17)
(0.775177 -3.76045e-17 -1.37914e-17)
(0.775177 -2.46491e-17 -1.50731e-17)
(0.762388 -3.77518e-17 -1.782e-17)
(0.762388 -3.05619e-17 -1.96868e-17)
(0.749302 -3.06003e-17 -1.69217e-17)
(0.749302 -2.56213e-17 -2.11434e-17)
(0.735904 -1.76728e-17 -2.20276e-17)
(0.735904 -6.79508e-18 -1.94813e-17)
(0.722177 -1.70943e-17 -2.225e-17)
(0.722177 -4.6509e-18 -1.8047e-17)
(0.708105 -1.6775e-17 -2.23651e-17)
(0.708105 -4.12886e-18 -1.63725e-17)
(0.69367 -1.61965e-17 -2.24561e-17)
(0.69367 -1.04608e-17 -1.44055e-17)
(0.678855 -1.30231e-17 -1.95166e-17)
(0.678855 -1.6576e-17 -1.26438e-17)
(0.663641 -1.328e-17 -2.00355e-17)
(0.663641 -6.98365e-18 -1.22024e-17)
(0.648011 -1.61558e-17 -1.98351e-17)
(0.648011 -1.06562e-17 -8.55312e-18)
(0.631949 -1.36948e-17 -1.77625e-17)
(0.631949 -1.08171e-17 -7.21205e-18)
(0.61544 -1.33951e-17 -1.90157e-17)
(0.61544 -1.17507e-17 -5.14737e-18)
(0.598472 -1.25982e-17 -2.06277e-17)
(0.598472 -1.35955e-17 -4.51849e-18)
(0.581037 -1.10409e-17 -2.11122e-17)
(0.581037 -1.62397e-17 -5.44025e-18)
(0.563135 -1.80295e-18 -2.09017e-17)
(0.563135 -1.6614e-17 -8.50101e-18)
(0.544768 -1.54524e-18 -1.98714e-17)
(0.544768 -1.46895e-17 -1.07341e-17)
(0.525954 1.70296e-18 -2.15139e-17)
(0.525954 -1.37965e-17 -1.12327e-17)
(0.506717 2.81525e-18 -2.15394e-17)
(0.506717 -1.41704e-17 -1.15205e-17)
(0.487098 3.58388e-18 -2.16364e-17)
(0.487098 -6.42291e-18 -1.03162e-17)
(0.467152 1.40713e-18 -2.11862e-17)
(0.467152 -1.04052e-17 -1.03805e-17)
(0.446951 -2.50227e-19 -2.02741e-17)
(0.446951 -5.99281e-18 -1.00675e-17)
(0.426579 -2.29073e-19 -1.96892e-17)
(0.426579 -2.64475e-18 -8.84211e-18)
(0.406137 -3.09562e-19 -1.8553e-17)
(0.406137 -3.92629e-18 -7.81457e-18)
(0.385731 -8.9484e-19 -1.71695e-17)
(0.385731 -4.00433e-18 -7.47232e-18)
(0.365473 -1.19186e-18 -1.62589e-17)
(0.365473 -4.69942e-18 -7.34705e-18)
(0.345474 -1.50544e-18 -1.53735e-17)
(0.345474 -5.75171e-18 -6.93615e-18)
(0.325834 -2.0136e-18 -1.43402e-17)
(0.325834 -4.75045e-18 -6.49304e-18)
(0.306642 -2.26934e-18 -1.33546e-17)
(0.306642 -4.26223e-18 -6.08091e-18)
(0.287972 -2.52563e-18 -1.23025e-17)
(0.287972 -3.36011e-18 -5.43753e-18)
(0.269879 -1.46737e-18 -1.13642e-17)
(0.269879 -3.29988e-18 -4.77785e-18)
(0.252402 -5.03169e-19 -1.04125e-17)
(0.252402 -1.51594e-18 -4.35956e-18)
(0.235566 -5.22161e-19 -9.25751e-18)
(0.235566 -2.21685e-18 -4.10754e-18)
(0.219381 -2.97169e-19 -8.37934e-18)
(0.219381 -2.14322e-18 -3.76647e-18)
(0.203848 1.89849e-19 -7.55046e-18)
(0.203848 -1.83724e-18 -3.49772e-18)
(0.188959 -2.74345e-19 -6.83291e-18)
(0.188959 -1.16451e-18 -3.20537e-18)
(0.174702 -5.34286e-19 -6.20076e-18)
(0.174702 -1.30017e-18 -2.95957e-18)
(0.161058 -2.22818e-19 -5.62915e-18)
(0.161058 -1.17194e-18 -2.71111e-18)
(0.148009 -4.48045e-19 -5.05117e-18)
(0.148009 -1.07613e-18 -2.44066e-18)
(0.135532 -6.07769e-19 -4.53733e-18)
(0.135532 -5.02534e-19 -2.26033e-18)
(0.123607 -4.73585e-19 -4.09596e-18)
(0.123607 -4.33387e-19 -2.05494e-18)
(0.11221 -1.30442e-19 -3.7148e-18)
(0.11221 -3.21241e-19 -1.88805e-18)
(0.101321 -1.24453e-19 -3.35994e-18)
(0.101321 -2.53333e-19 -1.73725e-18)
(0.0909167 -2.50194e-19 -3.04575e-18)
(0.0909167 -1.92361e-19 -1.59253e-18)
(0.0809773 -2.04353e-19 -2.77492e-18)
(0.0809773 -1.20763e-19 -1.44356e-18)
(0.0714823 -8.19683e-20 -2.5305e-18)
(0.0714823 -5.57723e-20 -1.31015e-18)
(0.0624123 -2.70528e-21 -2.30715e-18)
(0.0624123 6.11592e-21 -1.19212e-18)
(0.0537487 6.43503e-20 -2.10585e-18)
(0.0537487 6.18279e-20 -1.08024e-18)
(0.0454735 7.57033e-20 -1.92432e-18)
(0.0454735 1.10491e-20 -9.84653e-19)
(0.0375697 -4.74274e-23 -1.75748e-18)
(0.0375697 7.4142e-20 -8.9411e-19)
(0.0300207 -4.11969e-20 -1.6046e-18)
(0.0300207 8.50975e-20 -8.09365e-19)
(0.0228108 -2.72798e-20 -1.46391e-18)
(0.0228108 3.49382e-20 -7.36017e-19)
(0.015925 -4.90469e-21 -1.33498e-18)
(0.015925 1.12657e-20 -6.69609e-19)
(0.00934882 -6.80748e-21 -1.2178e-18)
(0.00934882 2.76693e-21 -6.09474e-19)
(0.00306853 3.53982e-21 -2.38464e-19)
(0.00306853 1.65161e-21 -1.45331e-19)
)
;

boundaryField
{
    walls
    {
        type            fixedValue;
        value           uniform (0 0 0);
    }
    inlet
    {
        type            cyclic;
    }
    outlet
    {
        type            cyclic;
    }
    sides
    {
        type            empty;
    }
}


// ************************************************************************* //
