/*--------------------------------*- C++ -*----------------------------------*\
| =========                 |                                                 |
| \\      /  F ield         | OpenFOAM: The Open Source CFD Toolbox           |
|  \\    /   O peration     | Version:  2106                                  |
|   \\  /    A nd           | Website:  www.openfoam.com                      |
|    \\/     M anipulation  |                                                 |
\*---------------------------------------------------------------------------*/
FoamFile
{
    version     2.0;
    format      ascii;
    arch        "LSB;label=32;scalar=64";
    class       volVectorField;
    location    "10070";
    object      U;
}
// * * * * * * * * * * * * * * * * * * * * * * * * * * * * * * * * * * * * * //

dimensions      [0 1 -1 0 0 0 0];

internalField   nonuniform List<vector> 
2000
(
(0.000977467 -1.75823e-16 -2.65034e-17)
(0.000977467 8.6554e-19 -9.8341e-18)
(0.00295029 -3.05575e-15 -1.53731e-16)
(0.00295029 -2.32026e-18 -6.48148e-17)
(0.00495955 -2.28689e-15 -1.63322e-16)
(0.00495955 -2.98825e-18 -6.71964e-17)
(0.00700594 -2.19915e-15 -1.7345e-16)
(0.00700594 -4.75859e-18 -6.96268e-17)
(0.00909012 -2.18953e-15 -1.84359e-16)
(0.00909012 -6.58063e-18 -7.21034e-17)
(0.0112128 -2.20032e-15 -1.95941e-16)
(0.0112128 -8.44166e-18 -7.46245e-17)
(0.0133746 -2.20421e-15 -2.08096e-16)
(0.0133746 -1.03441e-17 -7.71885e-17)
(0.0155764 -2.20282e-15 -2.20799e-16)
(0.0155764 -1.22796e-17 -7.9794e-17)
(0.0178187 -2.20004e-15 -2.34057e-16)
(0.0178187 -1.42525e-17 -8.24394e-17)
(0.0201025 -2.19694e-15 -2.47888e-16)
(0.0201025 -1.62476e-17 -8.51235e-17)
(0.0224283 -2.19362e-15 -2.62311e-16)
(0.0224283 -1.82556e-17 -8.78446e-17)
(0.024797 -2.19014e-15 -2.7735e-16)
(0.024797 -2.02872e-17 -9.06014e-17)
(0.0272094 -2.18653e-15 -2.9303e-16)
(0.0272094 -2.23568e-17 -9.33919e-17)
(0.0296663 -2.18285e-15 -3.09377e-16)
(0.0296663 -2.44833e-17 -9.62144e-17)
(0.0321684 -2.1791e-15 -3.26416e-16)
(0.0321684 -2.66176e-17 -9.90658e-17)
(0.0347166 -2.1753e-15 -3.44173e-16)
(0.0347166 -2.8791e-17 -1.01944e-16)
(0.0373117 -2.17148e-15 -3.62677e-16)
(0.0373117 -3.09833e-17 -1.04848e-16)
(0.0399546 -2.16761e-15 -3.81957e-16)
(0.0399546 -3.31445e-17 -1.07773e-16)
(0.0426461 -2.16371e-15 -4.02041e-16)
(0.0426461 -3.53579e-17 -1.10718e-16)
(0.0453871 -2.15971e-15 -4.22961e-16)
(0.0453871 -3.76519e-17 -1.13679e-16)
(0.0481786 -2.15561e-15 -4.44749e-16)
(0.0481786 -3.99493e-17 -1.16653e-16)
(0.0510213 -2.1515e-15 -4.59556e-16)
(0.0510213 -4.22327e-17 -1.19635e-16)
(0.0539163 -2.14733e-15 -4.69634e-16)
(0.0539163 -4.45256e-17 -1.22624e-16)
(0.0568644 -2.14308e-15 -4.80089e-16)
(0.0568644 -4.68233e-17 -1.25615e-16)
(0.0598667 -2.13882e-15 -4.9094e-16)
(0.0598667 -4.91669e-17 -1.28604e-16)
(0.0629241 -2.13448e-15 -5.02207e-16)
(0.0629241 -5.15252e-17 -1.31589e-16)
(0.0660377 -2.13007e-15 -5.13911e-16)
(0.0660377 -5.38981e-17 -1.34564e-16)
(0.0692083 -2.12563e-15 -5.26068e-16)
(0.0692083 -5.62526e-17 -1.37526e-16)
(0.072437 -2.12118e-15 -5.38705e-16)
(0.072437 -5.85636e-17 -1.40471e-16)
(0.0757249 -2.11667e-15 -5.42864e-16)
(0.0757249 -6.09943e-17 -1.43394e-16)
(0.079073 -2.11211e-15 -5.39922e-16)
(0.079073 -6.33616e-17 -1.4629e-16)
(0.0824824 -2.10756e-15 -5.36743e-16)
(0.0824824 -6.56092e-17 -1.49154e-16)
(0.0859542 -2.10298e-15 -5.33327e-16)
(0.0859542 -6.79368e-17 -1.51981e-16)
(0.0894895 -2.09836e-15 -5.29678e-16)
(0.0894895 -7.02704e-17 -1.54763e-16)
(0.0930894 -2.09369e-15 -5.25794e-16)
(0.0930894 -7.25172e-17 -1.57494e-16)
(0.096755 -2.08902e-15 -5.21675e-16)
(0.096755 -7.47901e-17 -1.6017e-16)
(0.100487 -2.08419e-15 -5.17321e-16)
(0.100487 -7.71523e-17 -1.62785e-16)
(0.104288 -2.07939e-15 -5.12733e-16)
(0.104288 -7.94075e-17 -1.65334e-16)
(0.108158 -2.07461e-15 -5.07905e-16)
(0.108158 -8.16811e-17 -1.67813e-16)
(0.112098 -2.06966e-15 -5.02847e-16)
(0.112098 -8.39832e-17 -1.70215e-16)
(0.11611 -2.06477e-15 -4.97556e-16)
(0.11611 -8.62884e-17 -1.72535e-16)
(0.120195 -2.05989e-15 -4.92036e-16)
(0.120195 -8.86773e-17 -1.74762e-16)
(0.124354 -2.05501e-15 -4.86287e-16)
(0.124354 -9.08559e-17 -1.76888e-16)
(0.128588 -2.05015e-15 -4.80312e-16)
(0.128588 -9.31925e-17 -1.78914e-16)
(0.132899 -2.04501e-15 -4.74117e-16)
(0.132899 -9.55821e-17 -1.80823e-16)
(0.137288 -2.0398e-15 -4.6771e-16)
(0.137288 -9.79377e-17 -1.82609e-16)
(0.141756 -2.0349e-15 -4.61103e-16)
(0.141756 -1.00272e-16 -1.84257e-16)
(0.146305 -2.0302e-15 -4.54287e-16)
(0.146305 -1.02168e-16 -1.85766e-16)
(0.150935 -2.02542e-15 -4.47269e-16)
(0.150935 -1.04067e-16 -1.87128e-16)
(0.155648 -2.02057e-15 -4.40056e-16)
(0.155648 -1.06223e-16 -1.88329e-16)
(0.160446 -2.01573e-15 -4.3266e-16)
(0.160446 -1.0834e-16 -1.89354e-16)
(0.165329 -2.01063e-15 -4.25084e-16)
(0.165329 -1.1018e-16 -1.90197e-16)
(0.170299 -2.00549e-15 -4.17355e-16)
(0.170299 -1.12007e-16 -1.90863e-16)
(0.175356 -2.00058e-15 -4.10528e-16)
(0.175356 -1.14024e-16 -1.91335e-16)
(0.180504 -1.99546e-15 -4.0485e-16)
(0.180504 -1.16076e-16 -1.9161e-16)
(0.185741 -1.99025e-15 -3.99179e-16)
(0.185741 -1.18015e-16 -1.91682e-16)
(0.19107 -1.98527e-15 -3.93547e-16)
(0.19107 -1.19756e-16 -1.91531e-16)
(0.196492 -1.98062e-15 -3.87975e-16)
(0.196492 -1.21213e-16 -1.9117e-16)
(0.202007 -1.976e-15 -3.82439e-16)
(0.202007 -1.22722e-16 -1.90606e-16)
(0.207617 -1.97113e-15 -3.76959e-16)
(0.207617 -1.24336e-16 -1.89822e-16)
(0.213322 -1.96662e-15 -3.71524e-16)
(0.213322 -1.25777e-16 -1.88828e-16)
(0.219123 -1.96234e-15 -3.6614e-16)
(0.219123 -1.26937e-16 -1.88716e-16)
(0.225022 -1.95783e-15 -3.60893e-16)
(0.225022 -1.28396e-16 -1.91526e-16)
(0.231017 -1.95364e-15 -3.55757e-16)
(0.231017 -1.30141e-16 -1.94244e-16)
(0.237111 -1.94949e-15 -3.5069e-16)
(0.237111 -1.31311e-16 -1.96932e-16)
(0.243303 -1.94494e-15 -3.45785e-16)
(0.243303 -1.3242e-16 -1.99548e-16)
(0.249592 -1.94092e-15 -3.41043e-16)
(0.249592 -1.33122e-16 -2.02014e-16)
(0.25598 -1.93682e-15 -3.36394e-16)
(0.25598 -1.33552e-16 -2.04405e-16)
(0.262466 -1.93298e-15 -3.31918e-16)
(0.262466 -1.33523e-16 -2.06691e-16)
(0.269048 -1.92956e-15 -3.27506e-16)
(0.269048 -1.33781e-16 -2.08897e-16)
(0.275727 -1.9255e-15 -3.23311e-16)
(0.275727 -1.3512e-16 -2.10971e-16)
(0.282502 -1.92142e-15 -3.19355e-16)
(0.282502 -1.36373e-16 -2.12918e-16)
(0.28937 -1.91757e-15 -3.15632e-16)
(0.28937 -1.37719e-16 -2.14679e-16)
(0.29633 -1.91395e-15 -3.1578e-16)
(0.29633 -1.38855e-16 -2.1623e-16)
(0.303381 -1.9106e-15 -3.23997e-16)
(0.303381 -1.39388e-16 -2.17695e-16)
(0.310519 -1.90744e-15 -3.32662e-16)
(0.310519 -1.40202e-16 -2.19047e-16)
(0.317743 -1.90352e-15 -3.41702e-16)
(0.317743 -1.41306e-16 -2.20127e-16)
(0.32505 -1.89971e-15 -3.51194e-16)
(0.32505 -1.4238e-16 -2.33844e-16)
(0.332435 -1.89654e-15 -3.60988e-16)
(0.332435 -1.42997e-16 -2.47744e-16)
(0.339895 -1.89331e-15 -3.70968e-16)
(0.339895 -1.43847e-16 -2.61453e-16)
(0.347427 -1.89056e-15 -3.81231e-16)
(0.347427 -1.4487e-16 -2.7494e-16)
(0.355025 -1.88753e-15 -3.91801e-16)
(0.355025 -1.4468e-16 -2.88318e-16)
(0.362685 -1.88483e-15 -4.02644e-16)
(0.362685 -1.45366e-16 -3.01255e-16)
(0.370403 -1.88282e-15 -4.13378e-16)
(0.370403 -1.45877e-16 -3.13896e-16)
(0.378172 -1.88084e-15 -4.24175e-16)
(0.378172 -1.46272e-16 -3.26305e-16)
(0.385988 -1.87845e-15 -4.35145e-16)
(0.385988 -1.47908e-16 -3.38437e-16)
(0.393845 -1.87503e-15 -4.46185e-16)
(0.393845 -1.50602e-16 -3.50152e-16)
(0.401736 -1.87258e-15 -4.57207e-16)
(0.401736 -1.53143e-16 -3.6145e-16)
(0.409657 -1.8709e-15 -4.6824e-16)
(0.409657 -1.53417e-16 -3.72378e-16)
(0.4176 -1.86864e-15 -4.79075e-16)
(0.4176 -1.54307e-16 -3.82751e-16)
(0.425561 -1.86619e-15 -4.89664e-16)
(0.425561 -1.56053e-16 -3.92598e-16)
(0.433532 -1.86292e-15 -5.00108e-16)
(0.433532 -1.56343e-16 -4.01822e-16)
(0.441509 -1.85964e-15 -5.10554e-16)
(0.441509 -1.57699e-16 -4.10377e-16)
(0.449485 -1.85683e-15 -5.20682e-16)
(0.449485 -1.60138e-16 -4.18523e-16)
(0.457454 -1.85343e-15 -5.30512e-16)
(0.457454 -1.63143e-16 -4.25992e-16)
(0.465412 -1.85024e-15 -5.40213e-16)
(0.465412 -1.66443e-16 -4.32707e-16)
(0.473352 -1.84585e-15 -5.49848e-16)
(0.473352 -1.70485e-16 -4.38691e-16)
(0.481269 -1.84264e-15 -5.59263e-16)
(0.481269 -1.73005e-16 -4.43947e-16)
(0.48916 -1.84039e-15 -5.6818e-16)
(0.48916 -1.75112e-16 -4.4856e-16)
(0.497019 -1.83695e-15 -5.76632e-16)
(0.497019 -1.78419e-16 -4.52606e-16)
(0.504842 -1.83313e-15 -5.84797e-16)
(0.504842 -1.816e-16 -4.56258e-16)
(0.512626 -1.82877e-15 -5.92646e-16)
(0.512626 -1.83055e-16 -4.59206e-16)
(0.520366 -1.82254e-15 -5.99874e-16)
(0.520366 -1.86604e-16 -4.61675e-16)
(0.52806 -1.81539e-15 -6.06692e-16)
(0.52806 -1.91098e-16 -4.63734e-16)
(0.535704 -1.81015e-15 -6.12963e-16)
(0.535704 -1.94514e-16 -4.65469e-16)
(0.543296 -1.80483e-15 -6.18846e-16)
(0.543296 -1.9856e-16 -4.66859e-16)
(0.550834 -1.79893e-15 -6.24526e-16)
(0.550834 -2.00592e-16 -4.67623e-16)
(0.558315 -1.79454e-15 -6.29407e-16)
(0.558315 -2.03953e-16 -4.67998e-16)
(0.565737 -1.78928e-15 -6.33154e-16)
(0.565737 -2.08083e-16 -4.68371e-16)
(0.5731 -1.78163e-15 -6.36799e-16)
(0.5731 -2.13902e-16 -4.68175e-16)
(0.580401 -1.77292e-15 -6.40046e-16)
(0.580401 -2.20903e-16 -4.68028e-16)
(0.587641 -1.76573e-15 -6.42829e-16)
(0.587641 -2.29285e-16 -4.67952e-16)
(0.594817 -1.75867e-15 -6.4557e-16)
(0.594817 -2.35993e-16 -4.67489e-16)
(0.601929 -1.75275e-15 -6.47633e-16)
(0.601929 -2.41108e-16 -4.66437e-16)
(0.608978 -1.74921e-15 -6.48722e-16)
(0.608978 -2.461e-16 -4.64962e-16)
(0.615961 -1.7447e-15 -6.48357e-16)
(0.615961 -2.49344e-16 -4.64284e-16)
(0.622881 -1.7394e-15 -6.47719e-16)
(0.622881 -2.48559e-16 -4.62548e-16)
(0.629736 -1.7297e-15 -6.45872e-16)
(0.629736 -2.53956e-16 -4.61405e-16)
(0.636526 -1.72011e-15 -6.43594e-16)
(0.636526 -2.65056e-16 -4.59457e-16)
(0.643252 -1.71e-15 -6.40408e-16)
(0.643252 -2.73884e-16 -4.57564e-16)
(0.649915 -1.69942e-15 -6.38296e-16)
(0.649915 -2.8244e-16 -4.55232e-16)
(0.656514 -1.69267e-15 -6.36271e-16)
(0.656514 -2.90637e-16 -4.51628e-16)
(0.663051 -1.68463e-15 -6.32793e-16)
(0.663051 -2.97875e-16 -4.47585e-16)
(0.669525 -1.67653e-15 -6.29198e-16)
(0.669525 -3.0747e-16 -4.42666e-16)
(0.675938 -1.66564e-15 -6.25578e-16)
(0.675938 -3.18837e-16 -4.38144e-16)
(0.682291 -1.65153e-15 -6.22368e-16)
(0.682291 -3.33513e-16 -4.33335e-16)
(0.688583 -1.63576e-15 -6.19405e-16)
(0.688583 -3.44694e-16 -4.27957e-16)
(0.694817 -1.61713e-15 -6.16471e-16)
(0.694817 -3.55594e-16 -4.23136e-16)
(0.700992 -1.59915e-15 -6.14182e-16)
(0.700992 -3.75014e-16 -4.18069e-16)
(0.70711 -1.58155e-15 -6.11642e-16)
(0.70711 -3.89387e-16 -4.13468e-16)
(0.713171 -1.56422e-15 -6.09037e-16)
(0.713171 -4.03518e-16 -4.08974e-16)
(0.719177 -1.54792e-15 -6.07577e-16)
(0.719177 -4.18495e-16 -4.03523e-16)
(0.725128 -1.53067e-15 -6.05135e-16)
(0.725128 -4.35232e-16 -3.99574e-16)
(0.731026 -1.51274e-15 -6.03711e-16)
(0.731026 -4.44785e-16 -3.95961e-16)
(0.73687 -1.49996e-15 -6.02719e-16)
(0.73687 -4.43194e-16 -3.93439e-16)
(0.742664 -1.49213e-15 -5.99501e-16)
(0.742664 -4.47031e-16 -3.91567e-16)
(0.748406 -1.48471e-15 -5.94917e-16)
(0.748406 -4.54912e-16 -3.89493e-16)
(0.754098 -1.47512e-15 -5.89622e-16)
(0.754098 -4.59486e-16 -3.87301e-16)
(0.759741 -1.46412e-15 -5.84511e-16)
(0.759741 -4.6339e-16 -3.84515e-16)
(0.765337 -1.45379e-15 -5.79652e-16)
(0.765337 -4.73443e-16 -3.8078e-16)
(0.770885 -1.44328e-15 -5.73838e-16)
(0.770885 -4.80037e-16 -3.79677e-16)
(0.776387 -1.43242e-15 -5.6865e-16)
(0.776387 -4.81921e-16 -3.78183e-16)
(0.781844 -1.42229e-15 -5.63816e-16)
(0.781844 -4.85958e-16 -3.75111e-16)
(0.787256 -1.40955e-15 -5.58904e-16)
(0.787256 -4.87747e-16 -3.72575e-16)
(0.792625 -1.39601e-15 -5.53624e-16)
(0.792625 -4.92904e-16 -3.71e-16)
(0.797951 -1.38457e-15 -5.49187e-16)
(0.797951 -4.99796e-16 -3.70139e-16)
(0.803235 -1.37243e-15 -5.4511e-16)
(0.803235 -5.06484e-16 -3.68479e-16)
(0.808479 -1.35898e-15 -5.40024e-16)
(0.808479 -5.11391e-16 -3.66221e-16)
(0.813682 -1.35104e-15 -5.33819e-16)
(0.813682 -5.15321e-16 -3.64576e-16)
(0.818845 -1.33728e-15 -5.29251e-16)
(0.818845 -5.25621e-16 -3.61607e-16)
(0.82397 -1.3115e-15 -5.24327e-16)
(0.82397 -5.3986e-16 -3.61638e-16)
(0.829058 -1.29616e-15 -5.22313e-16)
(0.829058 -5.49817e-16 -3.59828e-16)
(0.834108 -1.29642e-15 -5.1653e-16)
(0.834108 -5.59547e-16 -3.58427e-16)
(0.839121 -1.29582e-15 -5.08221e-16)
(0.839121 -5.69357e-16 -3.54089e-16)
(0.844099 -1.2865e-15 -5.0208e-16)
(0.844099 -5.73294e-16 -3.49717e-16)
(0.849042 -1.27325e-15 -4.96837e-16)
(0.849042 -5.83326e-16 -3.47191e-16)
(0.85395 -1.25711e-15 -4.93016e-16)
(0.85395 -5.88132e-16 -3.44798e-16)
(0.858825 -1.24863e-15 -4.89902e-16)
(0.858825 -5.94064e-16 -3.39069e-16)
(0.863666 -1.2386e-15 -4.81476e-16)
(0.863666 -6.00585e-16 -3.3476e-16)
(0.868475 -1.22392e-15 -4.72585e-16)
(0.868475 -6.01958e-16 -3.31978e-16)
(0.873252 -1.21339e-15 -4.64732e-16)
(0.873252 -6.17958e-16 -3.28114e-16)
(0.877998 -1.19713e-15 -4.58121e-16)
(0.877998 -6.21757e-16 -3.27619e-16)
(0.882713 -1.18672e-15 -4.53123e-16)
(0.882713 -6.2769e-16 -3.24998e-16)
(0.887398 -1.1784e-15 -4.4709e-16)
(0.887398 -6.3854e-16 -3.21114e-16)
(0.892053 -1.17371e-15 -4.43546e-16)
(0.892053 -6.39273e-16 -3.19209e-16)
(0.896679 -1.16785e-15 -4.37709e-16)
(0.896679 -6.47126e-16 -3.19766e-16)
(0.901276 -1.14808e-15 -4.35486e-16)
(0.901276 -6.5191e-16 -3.26117e-16)
(0.905844 -1.1349e-15 -4.32531e-16)
(0.905844 -6.48579e-16 -3.28726e-16)
(0.910385 -1.1251e-15 -4.28595e-16)
(0.910385 -6.55379e-16 -3.26629e-16)
(0.914899 -1.10849e-15 -4.23075e-16)
(0.914899 -6.62236e-16 -3.2658e-16)
(0.919385 -1.0914e-15 -4.17063e-16)
(0.919385 -6.68049e-16 -3.25093e-16)
(0.923845 -1.07122e-15 -4.16091e-16)
(0.923845 -6.72633e-16 -3.22384e-16)
(0.928278 -1.05676e-15 -4.10982e-16)
(0.928278 -6.69762e-16 -3.22277e-16)
(0.932686 -1.04362e-15 -4.05615e-16)
(0.932686 -6.69518e-16 -3.18892e-16)
(0.937068 -1.0282e-15 -3.99063e-16)
(0.937068 -6.66234e-16 -3.19917e-16)
(0.941425 -1.01714e-15 -3.97233e-16)
(0.941425 -6.61989e-16 -3.16995e-16)
(0.945757 -1.00091e-15 -3.94014e-16)
(0.945757 -6.63957e-16 -3.19335e-16)
(0.950064 -9.84581e-16 -3.92568e-16)
(0.950064 -6.5777e-16 -3.15955e-16)
(0.954346 -9.85057e-16 -3.92594e-16)
(0.954346 -6.56033e-16 -3.13411e-16)
(0.958605 -9.81803e-16 -3.87928e-16)
(0.958605 -6.55146e-16 -3.20051e-16)
(0.962839 -9.60872e-16 -3.88164e-16)
(0.962839 -6.54245e-16 -3.2079e-16)
(0.96705 -9.40885e-16 -3.95425e-16)
(0.96705 -6.56386e-16 -3.25905e-16)
(0.971237 -9.19962e-16 -3.97504e-16)
(0.971237 -6.61786e-16 -3.25162e-16)
(0.975401 -9.01849e-16 -3.97545e-16)
(0.975401 -6.74077e-16 -3.16387e-16)
(0.979541 -8.97187e-16 -3.92483e-16)
(0.979541 -6.58569e-16 -3.07987e-16)
(0.983658 -8.88042e-16 -3.80172e-16)
(0.983658 -6.66468e-16 -3.15056e-16)
(0.987752 -8.73525e-16 -3.9066e-16)
(0.987752 -6.84289e-16 -3.18514e-16)
(0.991824 -8.61926e-16 -3.90557e-16)
(0.991824 -6.94883e-16 -3.33676e-16)
(0.995872 -8.45671e-16 -3.96108e-16)
(0.995872 -7.13079e-16 -3.5017e-16)
(0.999897 -8.28047e-16 -4.02307e-16)
(0.999897 -7.12273e-16 -3.65132e-16)
(1.0039 -8.2155e-16 -4.13069e-16)
(1.0039 -7.24529e-16 -3.70107e-16)
(1.00788 -8.2015e-16 -4.17855e-16)
(1.00788 -7.34563e-16 -3.80182e-16)
(1.01184 -8.06607e-16 -4.22678e-16)
(1.01184 -7.39075e-16 -3.88343e-16)
(1.01577 -8.02244e-16 -4.25482e-16)
(1.01577 -7.56776e-16 -4.08766e-16)
(1.01968 -7.96754e-16 -4.28174e-16)
(1.01968 -7.68692e-16 -3.99222e-16)
(1.02357 -7.80883e-16 -4.27257e-16)
(1.02357 -7.53241e-16 -3.98626e-16)
(1.02743 -7.78682e-16 -4.3663e-16)
(1.02743 -7.64772e-16 -4.10796e-16)
(1.03127 -7.74096e-16 -4.45305e-16)
(1.03127 -7.78944e-16 -4.12334e-16)
(1.03509 -7.53957e-16 -4.37698e-16)
(1.03509 -7.50212e-16 -4.25191e-16)
(1.03888 -7.42763e-16 -4.43777e-16)
(1.03888 -7.45293e-16 -4.52518e-16)
(1.04265 -7.48144e-16 -4.46281e-16)
(1.04265 -7.33153e-16 -4.5639e-16)
(1.04639 -7.33456e-16 -4.29269e-16)
(1.04639 -7.16831e-16 -4.64776e-16)
(1.05011 -7.18618e-16 -4.2416e-16)
(1.05011 -7.10614e-16 -4.85798e-16)
(1.0538 -7.25385e-16 -4.40224e-16)
(1.0538 -7.05764e-16 -5.07496e-16)
(1.05747 -7.2004e-16 -4.66478e-16)
(1.05747 -6.60848e-16 -4.7521e-16)
(1.06111 -6.95689e-16 -4.52263e-16)
(1.06111 -6.25889e-16 -4.99397e-16)
(1.06473 -6.62571e-16 -4.43866e-16)
(1.06473 -6.58926e-16 -5.18642e-16)
(1.06832 -6.34882e-16 -4.68202e-16)
(1.06832 -6.43579e-16 -4.91161e-16)
(1.07188 -6.21718e-16 -4.37358e-16)
(1.07188 -6.21331e-16 -5.12868e-16)
(1.07541 -6.15725e-16 -4.3943e-16)
(1.07541 -6.22918e-16 -5.21531e-16)
(1.07891 -6.05115e-16 -4.54202e-16)
(1.07891 -5.83954e-16 -5.2667e-16)
(1.08238 -6.02488e-16 -4.87991e-16)
(1.08238 -5.86814e-16 -5.37665e-16)
(1.08583 -6.00849e-16 -5.02988e-16)
(1.08583 -6.31729e-16 -4.94322e-16)
(1.08924 -6.01969e-16 -5.05083e-16)
(1.08924 -6.28337e-16 -5.02886e-16)
(1.09261 -6.14371e-16 -5.08589e-16)
(1.09261 -6.28555e-16 -5.40271e-16)
(1.09596 -6.06375e-16 -5.24342e-16)
(1.09596 -6.14703e-16 -5.27907e-16)
(1.09927 -5.97057e-16 -5.45166e-16)
(1.09927 -5.70896e-16 -4.88329e-16)
(1.10254 -6.01171e-16 -5.13102e-16)
(1.10254 -5.79683e-16 -4.85588e-16)
(1.10578 -6.02115e-16 -5.17065e-16)
(1.10578 -5.84574e-16 -4.65628e-16)
(1.10898 -6.17715e-16 -4.87199e-16)
(1.10898 -5.70045e-16 -4.85293e-16)
(1.11214 -5.89687e-16 -4.63653e-16)
(1.11214 -5.6686e-16 -5.24221e-16)
(1.11525 -5.44113e-16 -4.92029e-16)
(1.11525 -5.55507e-16 -5.90477e-16)
(1.11833 -5.31563e-16 -5.0919e-16)
(1.11833 -5.7263e-16 -5.71412e-16)
(1.12135 -5.26146e-16 -5.52033e-16)
(1.12135 -5.63718e-16 -5.15205e-16)
(1.12433 -5.29448e-16 -4.97177e-16)
(1.12433 -5.52655e-16 -5.42535e-16)
(1.12726 -5.29871e-16 -5.07212e-16)
(1.12726 -5.81596e-16 -5.2947e-16)
(1.13014 -5.43368e-16 -5.1107e-16)
(1.13014 -5.54254e-16 -5.30436e-16)
(1.13297 -5.3139e-16 -4.77602e-16)
(1.13297 -5.07083e-16 -5.41773e-16)
(1.13573 -5.33384e-16 -5.22919e-16)
(1.13573 -5.47521e-16 -4.92451e-16)
(1.13844 -5.36313e-16 -5.01937e-16)
(1.13844 -5.36275e-16 -4.47376e-16)
(1.14108 -5.03442e-16 -5.16843e-16)
(1.14108 -4.68218e-16 -4.61956e-16)
(1.14366 -4.83142e-16 -5.20261e-16)
(1.14366 -4.86977e-16 -5.07534e-16)
(1.14616 -4.58646e-16 -5.0864e-16)
(1.14616 -4.77595e-16 -5.30674e-16)
(1.14859 -4.65721e-16 -5.05155e-16)
(1.14859 -4.70349e-16 -4.90641e-16)
(1.15094 -4.74475e-16 -5.0728e-16)
(1.15094 -4.72179e-16 -4.17048e-16)
(1.15321 -4.85315e-16 -4.92707e-16)
(1.15321 -4.74083e-16 -4.64107e-16)
(1.15538 -4.98111e-16 -4.28703e-16)
(1.15538 -5.1684e-16 -4.82117e-16)
(1.15746 -4.91051e-16 -3.90045e-16)
(1.15746 -5.0685e-16 -3.43061e-16)
(1.15943 -4.70071e-16 -3.87825e-16)
(1.15943 -4.71274e-16 -3.41685e-16)
(1.16129 -4.81967e-16 -4.40768e-16)
(1.16129 -4.90418e-16 -4.32911e-16)
(1.16304 -5.1855e-16 -4.45595e-16)
(1.16304 -4.97331e-16 -4.36792e-16)
(1.16466 -5.22244e-16 -3.4857e-16)
(1.16466 -4.89959e-16 -3.28872e-16)
(1.16614 -5.34138e-16 -3.40287e-16)
(1.16614 -4.66247e-16 -2.82007e-16)
(1.16748 -5.05519e-16 -3.10603e-16)
(1.16748 -4.47653e-16 -2.85775e-16)
(1.16866 -4.28106e-16 -2.7874e-16)
(1.16866 -4.26229e-16 -2.84577e-16)
(1.16968 -3.79957e-16 -2.63611e-16)
(1.16968 -4.35912e-16 -3.18476e-16)
(1.17052 -3.4361e-16 -2.94336e-16)
(1.17052 -3.9129e-16 -2.81278e-16)
(1.17116 -2.94429e-16 -2.93161e-16)
(1.17116 -3.19673e-16 -2.64799e-16)
(1.17161 -2.83286e-16 -2.36165e-16)
(1.17161 -2.99163e-16 -2.74285e-16)
(1.17184 -2.78489e-16 -1.82558e-16)
(1.17184 -2.62974e-16 -2.04862e-16)
(0.000977467 4.45174e-19 4.45576e-18)
(0.000977467 7.92168e-20 8.76486e-22)
(0.00295029 -1.20131e-18 2.52157e-17)
(0.00295029 -2.58115e-19 6.93739e-21)
(0.00495955 -1.56331e-18 2.61375e-17)
(0.00495955 -3.69223e-19 1.19682e-20)
(0.00700594 -2.49122e-18 2.70752e-17)
(0.00700594 -6.00762e-19 1.76714e-20)
(0.00909012 -3.44766e-18 2.80273e-17)
(0.00909012 -8.49251e-19 2.41055e-20)
(0.0112128 -4.42692e-18 2.89928e-17)
(0.0112128 -1.11246e-18 3.11667e-20)
(0.0133746 -5.42673e-18 2.99707e-17)
(0.0133746 -1.39032e-18 3.88819e-20)
(0.0155764 -6.43994e-18 3.09604e-17)
(0.0155764 -1.69133e-18 4.73716e-20)
(0.0178187 -7.47954e-18 3.19609e-17)
(0.0178187 -1.99861e-18 5.64757e-20)
(0.0201025 -8.54499e-18 3.29713e-17)
(0.0201025 -2.31256e-18 6.61273e-20)
(0.0224283 -9.60764e-18 3.39902e-17)
(0.0224283 -2.66782e-18 7.68544e-20)
(0.024797 -1.06889e-17 3.50174e-17)
(0.024797 -3.0326e-18 8.83647e-20)
(0.0272094 -1.18079e-17 3.60512e-17)
(0.0272094 -3.41472e-18 1.01101e-19)
(0.0296663 -1.29437e-17 3.70914e-17)
(0.0296663 -3.81581e-18 1.14339e-19)
(0.0321684 -1.40903e-17 3.8136e-17)
(0.0321684 -4.21146e-18 1.28822e-19)
(0.0347166 -1.5241e-17 3.91842e-17)
(0.0347166 -4.61326e-18 1.44616e-19)
(0.0373117 -1.64148e-17 4.02355e-17)
(0.0373117 -5.05356e-18 1.61345e-19)
(0.0399546 -1.76177e-17 4.1288e-17)
(0.0399546 -5.51608e-18 1.80227e-19)
(0.0426461 -1.88407e-17 4.23415e-17)
(0.0426461 -5.98294e-18 1.9985e-19)
(0.0453871 -2.01188e-17 4.33937e-17)
(0.0453871 -6.46884e-18 2.20296e-19)
(0.0481786 -2.14333e-17 4.44413e-17)
(0.0481786 -6.93671e-18 2.42849e-19)
(0.0510213 -2.27139e-17 4.54835e-17)
(0.0510213 -7.4102e-18 2.66891e-19)
(0.0539163 -2.40196e-17 4.65191e-17)
(0.0539163 -7.93367e-18 2.92341e-19)
(0.0568644 -2.53598e-17 4.75452e-17)
(0.0568644 -8.50321e-18 3.19272e-19)
(0.0598667 -2.66484e-17 4.85593e-17)
(0.0598667 -9.12365e-18 3.49144e-19)
(0.0629241 -2.7965e-17 4.95619e-17)
(0.0629241 -9.80321e-18 3.81473e-19)
(0.0660377 -2.93131e-17 5.05504e-17)
(0.0660377 -1.05041e-17 4.1576e-19)
(0.0692083 -3.06243e-17 5.1524e-17)
(0.0692083 -1.12261e-17 4.5277e-19)
(0.072437 -3.19892e-17 5.24809e-17)
(0.072437 -1.1955e-17 4.93032e-19)
(0.0757249 -3.33499e-17 5.34187e-17)
(0.0757249 -1.27593e-17 5.36186e-19)
(0.079073 -3.46854e-17 5.43369e-17)
(0.079073 -1.36305e-17 5.82236e-19)
(0.0824824 -3.60776e-17 5.52333e-17)
(0.0824824 -1.44437e-17 6.30338e-19)
(0.0859542 -3.75452e-17 5.61038e-17)
(0.0859542 -1.52606e-17 6.81111e-19)
(0.0894895 -3.90989e-17 5.69442e-17)
(0.0894895 -1.61302e-17 7.33313e-19)
(0.0930894 -4.06793e-17 5.77505e-17)
(0.0930894 -1.69479e-17 7.91387e-19)
(0.096755 -4.21682e-17 5.85233e-17)
(0.096755 -1.78741e-17 8.5315e-19)
(0.100487 -4.35233e-17 5.9262e-17)
(0.100487 -1.88691e-17 9.20668e-19)
(0.104288 -4.48084e-17 5.99686e-17)
(0.104288 -1.99148e-17 9.95468e-19)
(0.108158 -4.62003e-17 6.06468e-17)
(0.108158 -2.11174e-17 1.07022e-18)
(0.112098 -4.76297e-17 6.12868e-17)
(0.112098 -2.22789e-17 1.1551e-18)
(0.11611 -4.8966e-17 6.18957e-17)
(0.11611 -2.34099e-17 1.24434e-18)
(0.120195 -5.02887e-17 6.24718e-17)
(0.120195 -2.48e-17 1.33734e-18)
(0.124354 -5.15369e-17 6.30126e-17)
(0.124354 -2.61651e-17 1.43635e-18)
(0.128588 -5.28842e-17 6.35156e-17)
(0.128588 -2.74094e-17 1.54029e-18)
(0.132899 -5.43835e-17 6.39766e-17)
(0.132899 -2.84933e-17 1.64901e-18)
(0.137288 -5.60024e-17 6.43928e-17)
(0.137288 -2.94349e-17 1.7576e-18)
(0.141756 -5.76627e-17 6.47494e-17)
(0.141756 -3.08578e-17 1.87578e-18)
(0.146305 -5.90548e-17 6.50545e-17)
(0.146305 -3.22512e-17 2.00166e-18)
(0.150935 -6.03176e-17 6.53045e-17)
(0.150935 -3.34672e-17 2.13037e-18)
(0.155648 -6.16724e-17 6.54924e-17)
(0.155648 -3.49291e-17 2.25462e-18)
(0.160446 -6.30439e-17 6.56045e-17)
(0.160446 -3.64346e-17 2.39118e-18)
(0.165329 -6.44524e-17 6.5637e-17)
(0.165329 -3.77155e-17 2.54581e-18)
(0.170299 -6.59781e-17 6.56003e-17)
(0.170299 -3.92364e-17 2.70075e-18)
(0.175356 -6.7633e-17 6.54858e-17)
(0.175356 -4.06561e-17 2.86985e-18)
(0.180504 -6.92833e-17 6.52982e-17)
(0.180504 -4.17406e-17 3.05569e-18)
(0.185741 -7.10818e-17 6.50446e-17)
(0.185741 -4.30128e-17 3.23986e-18)
(0.19107 -7.25306e-17 6.47084e-17)
(0.19107 -4.44602e-17 3.45767e-18)
(0.196492 -7.3464e-17 6.43374e-17)
(0.196492 -4.63282e-17 3.68384e-18)
(0.202007 -7.47354e-17 6.39221e-17)
(0.202007 -4.81823e-17 3.91047e-18)
(0.207617 -7.5901e-17 6.34482e-17)
(0.207617 -5.02578e-17 4.15971e-18)
(0.213322 -7.6822e-17 6.29419e-17)
(0.213322 -5.24387e-17 4.41885e-18)
(0.219123 -7.81217e-17 6.24011e-17)
(0.219123 -5.41276e-17 4.67991e-18)
(0.225022 -7.9533e-17 6.18105e-17)
(0.225022 -5.60576e-17 4.97071e-18)
(0.231017 -8.06734e-17 6.11886e-17)
(0.231017 -5.78209e-17 5.25295e-18)
(0.237111 -8.18535e-17 6.05182e-17)
(0.237111 -5.95338e-17 8.78465e-18)
(0.243303 -8.30962e-17 5.97912e-17)
(0.243303 -6.13495e-17 1.35227e-17)
(0.249592 -8.3907e-17 5.90194e-17)
(0.249592 -6.27875e-17 1.84539e-17)
(0.25598 -8.56508e-17 5.81506e-17)
(0.25598 -6.39981e-17 2.35932e-17)
(0.262466 -8.79167e-17 5.71108e-17)
(0.262466 -6.5097e-17 2.89395e-17)
(0.269048 -8.90661e-17 5.59538e-17)
(0.269048 -6.66964e-17 3.43955e-17)
(0.275727 -9.02402e-17 5.477e-17)
(0.275727 -6.82478e-17 3.99892e-17)
(0.282502 -9.15488e-17 5.34816e-17)
(0.282502 -6.99063e-17 4.58364e-17)
(0.28937 -9.27405e-17 5.21188e-17)
(0.28937 -7.15878e-17 5.19213e-17)
(0.29633 -9.43346e-17 5.07188e-17)
(0.29633 -7.31776e-17 5.8149e-17)
(0.303381 -9.61298e-17 4.92785e-17)
(0.303381 -7.45838e-17 6.44782e-17)
(0.310519 -9.75322e-17 4.78512e-17)
(0.310519 -7.59789e-17 7.0889e-17)
(0.317743 -9.87898e-17 4.64827e-17)
(0.317743 -7.63691e-17 7.73543e-17)
(0.32505 -1.00331e-16 5.80463e-17)
(0.32505 -7.77954e-17 8.40148e-17)
(0.332435 -1.01649e-16 6.98899e-17)
(0.332435 -8.00093e-17 9.08016e-17)
(0.339895 -1.0276e-16 8.17811e-17)
(0.339895 -8.06728e-17 9.75387e-17)
(0.347427 -1.03931e-16 9.3855e-17)
(0.347427 -8.23317e-17 1.04186e-16)
(0.355025 -1.04897e-16 1.06124e-16)
(0.355025 -8.36195e-17 1.10854e-16)
(0.362685 -1.05707e-16 1.18431e-16)
(0.362685 -8.49837e-17 1.17632e-16)
(0.370403 -1.06633e-16 1.30625e-16)
(0.370403 -8.72508e-17 1.24218e-16)
(0.378172 -1.07654e-16 1.4265e-16)
(0.378172 -8.79991e-17 1.30563e-16)
(0.385988 -1.0859e-16 1.54654e-16)
(0.385988 -8.70615e-17 1.36875e-16)
(0.393845 -1.08438e-16 1.66557e-16)
(0.393845 -8.80317e-17 1.43252e-16)
(0.401736 -1.07856e-16 1.78146e-16)
(0.401736 -8.9542e-17 1.49464e-16)
(0.409657 -1.07556e-16 1.89669e-16)
(0.409657 -8.96803e-17 1.55505e-16)
(0.4176 -1.08408e-16 2.00993e-16)
(0.4176 -9.01962e-17 1.61449e-16)
(0.425561 -1.1037e-16 2.11902e-16)
(0.425561 -9.15204e-17 1.67028e-16)
(0.433532 -1.10781e-16 2.22596e-16)
(0.433532 -9.1549e-17 1.7235e-16)
(0.441509 -1.1185e-16 2.33044e-16)
(0.441509 -9.20833e-17 1.77451e-16)
(0.449485 -1.13489e-16 2.43178e-16)
(0.449485 -9.37238e-17 1.82278e-16)
(0.457454 -1.13996e-16 2.52939e-16)
(0.457454 -9.3036e-17 1.86713e-16)
(0.465412 -1.14458e-16 2.62452e-16)
(0.465412 -9.19815e-17 1.9095e-16)
(0.473352 -1.15231e-16 2.71582e-16)
(0.473352 -9.30677e-17 1.95014e-16)
(0.481269 -1.1603e-16 2.80237e-16)
(0.481269 -9.30067e-17 1.98753e-16)
(0.48916 -1.1659e-16 2.88546e-16)
(0.48916 -9.25737e-17 2.02216e-16)
(0.497019 -1.17369e-16 2.96175e-16)
(0.497019 -9.37768e-17 2.05247e-16)
(0.504842 -1.18502e-16 3.03488e-16)
(0.504842 -9.2639e-17 2.07688e-16)
(0.512626 -1.19529e-16 3.10716e-16)
(0.512626 -9.21406e-17 2.0973e-16)
(0.520366 -1.19715e-16 3.17552e-16)
(0.520366 -9.62835e-17 2.11579e-16)
(0.52806 -1.19796e-16 3.23475e-16)
(0.52806 -9.75854e-17 2.1257e-16)
(0.535704 -1.20112e-16 3.29434e-16)
(0.535704 -9.66736e-17 2.13161e-16)
(0.543296 -1.21162e-16 3.34701e-16)
(0.543296 -9.76893e-17 2.13297e-16)
(0.550834 -1.21586e-16 3.39438e-16)
(0.550834 -9.69229e-17 2.13707e-16)
(0.558315 -1.21902e-16 3.43643e-16)
(0.558315 -9.44254e-17 2.14575e-16)
(0.565737 -1.24351e-16 3.47565e-16)
(0.565737 -9.15603e-17 2.14921e-16)
(0.5731 -1.26604e-16 3.50765e-16)
(0.5731 -9.21364e-17 2.14527e-16)
(0.580401 -1.2784e-16 3.53676e-16)
(0.580401 -9.01388e-17 2.13438e-16)
(0.587641 -1.27664e-16 3.56137e-16)
(0.587641 -8.71499e-17 2.12696e-16)
(0.594817 -1.25858e-16 3.58134e-16)
(0.594817 -8.73754e-17 2.11893e-16)
(0.601929 -1.23994e-16 3.59975e-16)
(0.601929 -8.73899e-17 2.10981e-16)
(0.608978 -1.21374e-16 3.61298e-16)
(0.608978 -8.93127e-17 2.09083e-16)
(0.615961 -1.16015e-16 3.63024e-16)
(0.615961 -9.2233e-17 2.06066e-16)
(0.622881 -1.12601e-16 3.6554e-16)
(0.622881 -9.19323e-17 2.03101e-16)
(0.629736 -1.15682e-16 3.6768e-16)
(0.629736 -9.36644e-17 1.98702e-16)
(0.636526 -1.22152e-16 3.68997e-16)
(0.636526 -9.16792e-17 1.9392e-16)
(0.643252 -1.21227e-16 3.68414e-16)
(0.643252 -9.07491e-17 1.88597e-16)
(0.649915 -1.1672e-16 3.69078e-16)
(0.649915 -9.13551e-17 1.83313e-16)
(0.656514 -1.15578e-16 3.70215e-16)
(0.656514 -8.73619e-17 1.78446e-16)
(0.663051 -1.15302e-16 3.69931e-16)
(0.663051 -8.74219e-17 1.73064e-16)
(0.669525 -1.17397e-16 3.67792e-16)
(0.669525 -8.96873e-17 1.67335e-16)
(0.675938 -1.18452e-16 3.65645e-16)
(0.675938 -8.82514e-17 1.61654e-16)
(0.682291 -1.17552e-16 3.63587e-16)
(0.682291 -8.64539e-17 1.56706e-16)
(0.688583 -1.17045e-16 3.61927e-16)
(0.688583 -8.51822e-17 1.51434e-16)
(0.694817 -1.18282e-16 3.59739e-16)
(0.694817 -7.54288e-17 1.45675e-16)
(0.700992 -1.14442e-16 3.57266e-16)
(0.700992 -7.04361e-17 1.40742e-16)
(0.70711 -1.10811e-16 3.55199e-16)
(0.70711 -7.34054e-17 1.36265e-16)
(0.713171 -1.11291e-16 3.52423e-16)
(0.713171 -7.53954e-17 1.32552e-16)
(0.719177 -1.12135e-16 3.49678e-16)
(0.719177 -7.59683e-17 1.28315e-16)
(0.725128 -1.14297e-16 3.48355e-16)
(0.725128 -7.66015e-17 1.23778e-16)
(0.731026 -1.16976e-16 3.47092e-16)
(0.731026 -7.83503e-17 1.20166e-16)
(0.73687 -1.21901e-16 3.4539e-16)
(0.73687 -7.55533e-17 1.16647e-16)
(0.742664 -1.26481e-16 3.42856e-16)
(0.742664 -7.12092e-17 1.13153e-16)
(0.748406 -1.28935e-16 3.40261e-16)
(0.748406 -7.2217e-17 1.08225e-16)
(0.754098 -1.30025e-16 3.3777e-16)
(0.754098 -7.23978e-17 1.03514e-16)
(0.759741 -1.30622e-16 3.35722e-16)
(0.759741 -7.1732e-17 1.00115e-16)
(0.765337 -1.36167e-16 3.32391e-16)
(0.765337 -7.45131e-17 9.51238e-17)
(0.770885 -1.43567e-16 3.29274e-16)
(0.770885 -7.08701e-17 8.94734e-17)
(0.776387 -1.43764e-16 3.27321e-16)
(0.776387 -7.10919e-17 8.45916e-17)
(0.781844 -1.35326e-16 3.24288e-16)
(0.781844 -7.99484e-17 7.95836e-17)
(0.787256 -1.26976e-16 3.23124e-16)
(0.787256 -8.48845e-17 7.64136e-17)
(0.792625 -1.26588e-16 3.23049e-16)
(0.792625 -8.93191e-17 7.32287e-17)
(0.797951 -1.3019e-16 3.22717e-16)
(0.797951 -9.29752e-17 6.95032e-17)
(0.803235 -1.36389e-16 3.23664e-16)
(0.803235 -9.50978e-17 6.6931e-17)
(0.808479 -1.42108e-16 3.24764e-16)
(0.808479 -9.88715e-17 6.30684e-17)
(0.813682 -1.44345e-16 3.26104e-16)
(0.813682 -9.83917e-17 6.34809e-17)
(0.818845 -1.50208e-16 3.26785e-16)
(0.818845 -1.04211e-16 6.29691e-17)