/*--------------------------------*- C++ -*----------------------------------*\
| =========                 |                                                 |
| \\      /  F ield         | OpenFOAM: The Open Source CFD Toolbox           |
|  \\    /   O peration     | Version:  2106                                  |
|   \\  /    A nd           | Website:  www.openfoam.com                      |
|    \\/     M anipulation  |                                                 |
\*---------------------------------------------------------------------------*/
FoamFile
{
    version     2.0;
    format      ascii;
    arch        "LSB;label=32;scalar=64";
    class       volVectorField;
    location    "10090";
    object      grad(T);
}
// * * * * * * * * * * * * * * * * * * * * * * * * * * * * * * * * * * * * * //

dimensions      [0 -1 0 1 0 0 0];

internalField   nonuniform List<vector> 
2000
(
(0 281.195 0.52039)
(0 281.195 0.52039)
(0 281.195 1.57088)
(0 281.195 1.57088)
(-6.39538e-17 281.194 2.18015)
(0 281.194 2.18015)
(-6.4258e-16 281.194 2.22084)
(1.27134e-15 281.194 2.22084)
(0 281.193 2.26228)
(0 281.193 2.26228)
(0 281.191 2.3045)
(-2.03621e-15 281.191 2.3045)
(0 281.19 2.3475)
(2.65197e-15 281.19 2.3475)
(0 281.187 2.3913)
(6.55844e-15 281.187 2.3913)
(-9.79543e-16 281.185 2.43592)
(0 281.185 2.43592)
(0 281.182 2.48135)
(3.10013e-15 281.182 2.48135)
(4.56499e-15 281.178 2.52763)
(0 281.178 2.52763)
(1.47687e-15 281.172 2.57476)
(5.90747e-15 281.172 2.57476)
(0 281.166 2.62276)
(0 281.166 2.62276)
(-4.70314e-15 281.158 2.67163)
(0 281.158 2.67163)
(-4.82886e-15 281.147 2.72138)
(0 281.147 2.72138)
(4.95888e-15 281.133 2.77203)
(-5.96291e-15 281.133 2.77203)
(2.72368e-15 281.116 2.82357)
(0 281.116 2.82357)
(5.1164e-15 281.093 2.87601)
(1.02328e-14 281.093 2.87601)
(-2.75036e-15 281.063 2.92935)
(0 281.063 2.92935)
(2.9461e-15 281.025 2.98358)
(1.17844e-14 281.025 2.98358)
(-3.14548e-15 280.976 3.03868)
(2.51639e-14 280.976 3.03868)
(0 280.913 3.09463)
(1.33943e-14 280.913 3.09463)
(4.8752e-15 280.834 3.1514)
(1.42217e-14 280.834 3.1514)
(0 280.734 3.20896)
(1.50644e-14 280.734 3.20896)
(-3.98068e-15 280.609 3.26724)
(0 280.609 3.26724)
(-4.61207e-15 280.454 3.32618)
(2.14089e-14 280.454 3.32618)
(-4.42176e-15 280.261 3.3857)
(4.52756e-15 280.261 3.3857)
(-4.64836e-15 280.023 3.44568)
(0 280.023 3.44568)
(0 279.733 3.506)
(-4.36315e-15 279.733 3.506)
(-1.36803e-14 279.381 3.56651)
(-2.04559e-14 279.381 3.56651)
(5.35304e-15 278.955 3.62702)
(2.14122e-14 278.955 3.62702)
(0 278.443 3.68735)
(-8.25531e-15 278.443 3.68735)
(-5.84389e-15 277.834 3.74724)
(0 277.834 3.74724)
(-6.0957e-15 277.112 3.80643)
(0 277.112 3.80643)
(0 276.263 3.86463)
(2.5407e-14 276.263 3.86463)
(0 275.269 3.92152)
(-7.66664e-15 275.269 3.92152)
(6.87646e-15 274.117 3.97673)
(1.24535e-14 274.117 3.97673)
(-1.45333e-14 272.787 4.02991)
(2.85801e-14 272.787 4.02991)
(-1.46705e-14 271.265 4.08066)
(0 271.265 4.08066)
(0 269.535 4.12859)
(3.07764e-14 269.535 4.12859)
(-1.96983e-15 267.583 4.17329)
(1.79186e-14 267.583 4.17329)
(0 265.396 4.21439)
(0 265.396 4.21439)
(0 262.964 4.25153)
(0 262.964 4.25153)
(-8.83599e-15 260.28 4.28435)
(-3.5344e-14 260.28 4.28435)
(9.12936e-15 257.339 4.31257)
(3.65174e-14 257.339 4.31257)
(9.42536e-15 254.141 4.33596)
(-3.77014e-14 254.141 4.33596)
(-9.72368e-15 250.689 4.35431)
(3.88947e-14 250.689 4.35431)
(0 246.991 4.36752)
(8.01919e-14 246.991 4.36752)
(1.03259e-14 243.056 4.37553)
(5.33601e-14 243.056 4.37553)
(-1.06292e-14 238.899 4.37835)
(-6.61876e-14 238.899 4.37835)
(0 234.537 4.37607)
(1.16186e-14 234.537 4.37607)
(1.67731e-16 229.99 4.36884)
(-2.28113e-14 229.99 4.36884)
(0 225.28 4.35684)
(0 225.28 4.35684)
(0 220.43 4.34033)
(-4.73894e-14 220.43 4.34033)
(1.36133e-15 215.465 4.31959)
(-2.15801e-14 215.465 4.31959)
(-1.24546e-14 210.41 4.29495)
(0 210.41 4.29495)
(-4.7165e-15 205.288 4.26675)
(5.1026e-14 205.288 4.26675)
(-1.30569e-14 200.123 4.23533)
(0 200.123 4.23533)
(-2.67111e-14 194.939 4.20106)
(-5.34223e-14 194.939 4.20106)
(3.33262e-14 189.756 4.16428)
(-7.42827e-14 189.756 4.16428)
(0 184.593 4.12535)
(-1.93135e-14 184.593 4.12535)
(-4.74365e-14 179.469 4.08459)
(1.13908e-13 179.469 4.08459)
(-1.45277e-14 174.399 4.04232)
(5.81109e-14 174.399 4.04232)
(0 169.397 3.99884)
(0 169.397 3.99884)
(-1.50979e-14 164.475 3.95441)
(6.03916e-14 164.475 3.95441)
(0 159.643 3.90928)
(-1.76076e-14 159.643 3.90928)
(-1.56561e-14 154.91 3.86369)
(0 154.91 3.86369)
(1.69682e-14 150.282 3.81783)
(-1.69682e-14 150.282 3.81783)
(-1.66573e-14 145.765 3.77189)
(8.14649e-14 145.765 3.77189)
(1.63521e-14 141.364 3.72603)
(-1.63521e-14 141.364 3.72603)
(-1.67349e-14 137.08 3.68039)
(6.69395e-14 137.08 3.68039)
(0 132.915 3.63509)
(6.79861e-14 132.915 3.63509)
(-1.7855e-15 128.872 3.59024)
(-8.44895e-14 128.872 3.59024)
(0 124.949 3.54592)
(-7.00411e-14 124.949 3.54592)
(-3.55248e-14 121.147 3.50222)
(7.10495e-14 121.147 3.50222)
(-3.60227e-14 117.463 3.4592)
(0 117.463 3.4592)
(-2.87328e-14 113.898 3.41691)
(1.01762e-13 113.898 3.41691)
(-1.85001e-14 110.448 3.37538)
(-7.40005e-14 110.448 3.37538)
(-8.9494e-15 107.111 3.33467)
(2.76894e-14 107.111 3.33467)
(1.89769e-14 103.885 3.29478)
(-7.59076e-14 103.885 3.29478)
(-3.84219e-14 100.767 3.25574)
(0 100.767 3.25574)
(0 97.7546 3.21757)
(0 97.7546 3.21757)
(1.96706e-14 94.8442 3.18026)
(-1.57365e-13 94.8442 3.18026)
(1.98963e-14 92.033 3.14383)
(0 92.033 3.14383)
(0 89.3179 3.10826)
(8.04777e-14 89.3179 3.10826)
(4.46669e-14 86.6958 3.07357)
(8.13596e-14 86.6958 3.07357)
(-1.72345e-14 84.1635 3.03973)
(0 84.1635 3.03973)
(-1.81032e-14 81.718 3.00674)
(8.30935e-14 81.718 3.00674)
(2.09865e-14 79.3563 2.97459)
(1.67892e-13 79.3563 2.97459)
(-2.11972e-14 77.0754 2.94327)
(0 77.0754 2.94327)
(-4.28114e-14 74.8724 2.91276)
(8.56228e-14 74.8724 2.91276)
(-2.16119e-14 72.7445 2.88305)
(8.64477e-14 72.7445 2.88305)
(2.13729e-14 70.6888 2.85411)
(-4.27458e-14 70.6888 2.85411)
(2.20179e-14 68.7027 2.82595)
(8.80718e-14 68.7027 2.82595)
(-1.89757e-14 66.7836 2.79852)
(1.30065e-13 66.7836 2.79852)
(-2.24157e-14 64.929 2.77183)
(8.96629e-14 64.929 2.77183)
(2.26117e-14 63.1365 2.74585)
(0 63.1365 2.74585)
(-2.28057e-14 61.4036 2.72056)
(9.12229e-14 61.4036 2.72056)
(2.29979e-14 59.7281 2.69595)
(0 59.7281 2.69595)
(1.43668e-14 58.1079 2.672)
(5.51981e-14 58.1079 2.672)
(2.33769e-14 56.5408 2.64869)
(5.66409e-14 56.5408 2.64869)
(0 55.0249 2.62601)
(5.80642e-14 55.0249 2.62601)
(0 53.5581 2.60393)
(-1.30525e-13 53.5581 2.60393)
(0 52.1386 2.58244)
(9.57313e-14 52.1386 2.58244)
(-2.41149e-14 50.7646 2.56152)
(3.4238e-14 50.7646 2.56152)
(-2.42955e-14 49.4345 2.54116)
(9.7182e-14 49.4345 2.54116)
(3.29947e-14 48.1465 2.52134)
(0 48.1465 2.52134)
(0 46.8991 2.50205)
(0 46.8991 2.50205)
(2.48284e-14 45.6907 2.48327)
(9.93137e-14 45.6907 2.48327)
(2.50033e-14 44.5199 2.46499)
(3.75854e-14 44.5199 2.46499)
(0 43.3854 2.44719)
(1.00707e-13 43.3854 2.44719)
(-5.0698e-14 42.2857 2.42985)
(1.01396e-13 42.2857 2.42985)
(2.55199e-14 41.2195 2.41297)
(1.0208e-13 41.2195 2.41297)
(0 40.1858 2.39653)
(-1.02759e-13 40.1858 2.39653)
(0 39.1832 2.38052)
(-2.84568e-14 39.1832 2.38052)
(3.81973e-15 38.2106 2.36492)
(-5.58708e-14 38.2106 2.36492)
(1.23175e-15 37.2671 2.34973)
(-2.74235e-14 37.2671 2.34973)
(-5.38419e-14 36.3514 2.33493)
(-1.05427e-13 36.3514 2.33493)
(7.94693e-14 35.4627 2.32051)
(-2.64276e-14 35.4627 2.32051)
(2.74243e-14 34.5999 2.30646)
(1.06735e-13 34.5999 2.30646)
(-2.68458e-14 33.7622 2.29277)
(1.07383e-13 33.7622 2.29277)
(7.90147e-14 32.9486 2.27942)
(-2.50013e-14 32.9486 2.27942)
(2.71667e-14 32.1584 2.26641)
(1.08667e-13 32.1584 2.26641)
(-3.23232e-15 31.3907 2.25373)
(-2.40934e-14 31.3907 2.25373)
(0 30.6447 2.24137)
(2.1987e-13 30.6447 2.24137)
(-5.08594e-14 29.9197 2.22931)
(0 29.9197 2.22931)
(-4.5586e-14 29.215 2.21756)
(2.67964e-13 29.215 2.21756)
(-2.79528e-14 28.5299 2.2061)
(0 28.5299 2.2061)
(0 27.8637 2.19492)
(1.1243e-13 27.8637 2.19492)
(2.82612e-14 27.2159 2.18401)
(2.2609e-13 27.2159 2.18401)
(-2.84142e-14 26.5856 2.17337)
(1.13657e-13 26.5856 2.17337)
(2.85665e-14 25.9725 2.16298)
(7.27065e-14 25.9725 2.16298)
(-5.7436e-14 25.3759 2.15285)
(1.14872e-13 25.3759 2.15285)
(-8.01007e-14 24.7953 2.14296)
(2.71e-13 24.7953 2.14296)
(0 24.2302 2.1333)
(7.67587e-14 24.2302 2.1333)
(-2.91681e-14 23.6801 2.12388)
(0 23.6801 2.12388)
(6.72055e-14 23.1444 2.11467)
(-3.78887e-14 23.1444 2.11467)
(0 22.6227 2.10568)
(-3.71944e-14 22.6227 2.10568)
(-2.96121e-14 22.1146 2.0969)
(0 22.1146 2.0969)
(-2.97588e-14 21.6197 2.08832)
(-1.54879e-13 21.6197 2.08832)
(-6.50918e-14 21.1375 2.07993)
(2.39239e-13 21.1375 2.07993)
(0 20.6676 2.07173)
(1.20201e-13 20.6676 2.07173)
(-3.01952e-14 20.2096 2.06372)
(1.20781e-13 20.2096 2.06372)
(0 19.7632 2.05588)
(1.21358e-13 19.7632 2.05588)
(-6.3161e-14 19.3281 2.04822)
(1.21933e-13 19.3281 2.04822)
(0 18.9038 2.04072)
(1.22505e-13 18.9038 2.04072)
(-3.0769e-14 18.49 2.03338)
(0 18.49 2.03338)
(-3.09111e-14 18.0865 2.02619)
(0 18.0865 2.02619)
(-6.14002e-14 17.6928 2.01916)
(0 17.6928 2.01916)
(3.11937e-14 17.3088 2.01226)
(-1.54566e-13 17.3088 2.01226)
(0 16.9341 2.00551)
(-2.92456e-14 16.9341 2.00551)
(0 16.5684 1.99889)
(0 16.5684 1.99889)
(8.79811e-14 16.2116 1.9924)
(0 16.2116 1.9924)
(-5.94202e-14 15.8632 1.98603)
(1.27012e-13 15.8632 1.98603)
(-5.90519e-14 15.5231 1.97977)
(1.54727e-13 15.5231 1.97977)
(-5.36757e-15 15.191 1.97363)
(-2.66624e-14 15.191 1.97363)
(0 14.8667 1.9676)
(1.28671e-13 14.8667 1.9676)
(-3.23051e-14 14.55 1.96167)
(-1.2922e-13 14.55 1.96167)
(3.2442e-14 14.2406 1.95584)
(1.29768e-13 14.2406 1.95584)
(3.25786e-14 13.9384 1.9501)
(1.30314e-13 13.9384 1.9501)
(3.27147e-14 13.643 1.94445)
(0 13.643 1.94445)
(0 13.3545 1.93888)
(1.31401e-13 13.3545 1.93888)
(-7.98351e-14 13.0724 1.93339)
(4.68495e-14 13.0724 1.93339)
(0 12.7967 1.92797)
(1.32482e-13 12.7967 1.92797)
(1.18931e-14 12.5272 1.92262)
(-4.51482e-14 12.5272 1.92262)
(0 12.2636 1.91733)
(0 12.2636 1.91733)
(0 12.0059 1.9121)
(1.34092e-13 12.0059 1.9121)
(0 11.7539 1.90692)
(1.34626e-13 11.7539 1.90692)
(-3.37894e-14 11.5073 1.90179)
(0 11.5073 1.90179)
(-3.39221e-14 11.2661 1.8967)
(0 11.2661 1.8967)
(-7.44606e-14 11.0301 1.89164)
(4.04062e-14 11.0301 1.89164)
(6.83727e-14 10.7992 1.88662)
(1.36745e-13 10.7992 1.88662)
(-6.4015e-14 10.5732 1.88162)
(1.37272e-13 10.5732 1.88162)
(0 10.352 1.87664)
(9.95715e-14 10.352 1.87664)
(-3.45801e-14 10.1354 1.87168)
(-3.75249e-14 10.1354 1.87168)
(-7.15479e-14 9.92332 1.86672)
(0 9.92332 1.86672)
(0 9.71565 1.86176)
(0 9.71565 1.86176)
(-3.54995e-14 9.51224 1.8568)
(1.75383e-13 9.51224 1.8568)
(-3.51003e-14 9.31299 1.85183)
(-1.40401e-13 9.31299 1.85183)
(0 9.11778 1.84684)
(0 9.11778 1.84684)
(-1.02525e-13 8.92649 1.84183)
(-3.1645e-13 8.92649 1.84183)
(-6.8455e-14 8.73902 1.83678)
(3.29681e-14 8.73902 1.83678)
(0 8.55526 1.8317)
(0 8.55526 1.8317)
(3.17709e-14 8.3751 1.82657)
(1.112e-13 8.3751 1.82657)
(-7.17406e-14 8.19845 1.82138)
(2.86962e-13 8.19845 1.82138)
(0 8.0252 1.81613)
(1.4399e-13 8.0252 1.81613)
(-6.06799e-15 7.85527 1.81082)
(-3.00562e-14 7.85527 1.81082)
(0 7.68855 1.80542)
(-1.45002e-13 7.68855 1.80542)
(-3.63766e-14 7.52495 1.79994)
(0 7.52495 1.79994)
(0 7.36439 1.79436)
(1.46009e-13 7.36439 1.79436)
(0 7.20678 1.78867)
(1.4651e-13 7.20678 1.78867)
(-1.80503e-14 7.05203 1.78286)
(3.48823e-13 7.05203 1.78286)
(3.6877e-14 6.90005 1.77693)
(1.47508e-13 6.90005 1.77693)
(0 6.75077 1.77086)
(1.48005e-13 6.75077 1.77086)
(3.71249e-14 6.6041 1.76464)
(2.00344e-13 6.6041 1.76464)
(-3.72482e-14 6.45996 1.75825)
(2.97986e-13 6.45996 1.75825)
(-3.73711e-14 6.31828 1.75169)
(-1.49485e-13 6.31828 1.75169)
(0 6.17897 1.74494)
(0 6.17897 1.74494)
(-3.76157e-14 6.04197 1.73798)
(0 6.04197 1.73798)
(-7.54745e-14 5.9072 1.73081)
(0 5.9072 1.73081)
(-3.78584e-14 5.77458 1.7234)
(1.51434e-13 5.77458 1.7234)
(0 5.64404 1.71574)
(-4.55493e-14 5.64404 1.71574)
(-3.80992e-14 5.51551 1.70781)
(0 5.51551 1.70781)
(0 5.38891 1.6996)
(0 5.38891 1.6996)
(3.83379e-14 5.26418 1.69108)
(3.06704e-13 5.26418 1.69108)
(7.6913e-14 5.14125 1.68223)
(-1.96127e-13 5.14125 1.68223)
(7.7149e-14 5.02003 1.67303)
(0 5.02003 1.67303)
(7.73839e-14 4.90048 1.66345)
(3.09535e-13 4.90048 1.66345)
(3.88087e-14 4.7825 1.65348)
(1.15217e-13 4.7825 1.65348)
(3.89249e-14 4.66604 1.64308)
(1.557e-13 4.66604 1.64308)
(-3.90404e-14 4.55101 1.63223)
(1.56162e-13 4.55101 1.63223)
(-1.29705e-15 4.43735 1.62089)
(-3.78582e-14 4.43735 1.62089)
(0 4.32499 1.60904)
(1.57078e-13 4.32499 1.60904)
(-7.87655e-14 4.21385 1.59663)
(1.21048e-13 4.21385 1.59663)
(-3.94954e-14 4.10386 1.58363)
(0 4.10386 1.58363)
(3.51586e-14 3.99493 1.57)
(3.16857e-13 3.99493 1.57)
(0 3.887 1.55569)
(0 3.887 1.55569)
(3.98281e-14 3.77997 1.54067)
(-1.93194e-13 3.77997 1.54067)
(6.67618e-15 3.67378 1.52487)
(3.3261e-14 3.67378 1.52487)
(-1.47876e-14 3.56832 1.50825)
(0 3.56832 1.50825)
(1.61984e-14 3.46352 1.49073)
(0 3.46352 1.49073)
(-6.29316e-14 3.35928 1.47227)
(2.23965e-13 3.35928 1.47227)
(0 3.2555 1.45279)
(1.61453e-13 3.2555 1.45279)
(4.04669e-14 3.15208 1.4322)
(1.61868e-13 3.15208 1.4322)
(0 3.04891 1.41044)
(-2.21812e-13 3.04891 1.41044)
(-4.06704e-14 2.94589 1.3874)
(0 2.94589 1.3874)
(1.66031e-14 2.84288 1.36299)
(1.05707e-13 2.84288 1.36299)
(0 2.73977 1.3371)
(1.63473e-13 2.73977 1.3371)
(1.43249e-14 2.63641 1.30961)
(-1.63859e-13 2.63641 1.30961)
(4.10597e-14 2.53266 1.28039)
(2.74201e-13 2.53266 1.28039)
(0 2.42837 1.24929)
(1.64612e-13 2.42837 1.24929)
(-4.12442e-14 2.32337 1.21616)
(0 2.32337 1.21616)
(-1.00136e-14 2.21748 1.18082)
(2.16681e-13 2.21748 1.18082)
(8.98549e-15 2.11051 1.14309)
(1.65683e-13 2.11051 1.14309)
(-4.15056e-14 2.00227 1.10275)
(1.66022e-13 2.00227 1.10275)
(0 1.89254 1.05959)
(0 1.89254 1.05959)
(4.1668e-14 1.78108 1.01335)
(0 1.78108 1.01335)
(-8.34904e-14 1.66768 0.963781)
(1.66981e-13 1.66768 0.963781)
(4.59539e-14 1.55207 0.910589)
(0 1.55207 0.910589)
(4.51119e-14 1.43402 0.853477)
(0 1.43402 0.853477)
(4.19583e-14 1.31327 0.792133)
(1.67833e-13 1.31327 0.792133)
(-4.20224e-14 1.18959 0.726234)
(1.6809e-13 1.18959 0.726234)
(-8.47597e-14 1.06275 0.655454)
(0 1.06275 0.655454)
(0 0.932546 0.579474)
(-4.1895e-14 0.932546 0.579474)
(4.11273e-14 0.798834 0.497991)
(-2.09888e-13 0.798834 0.497991)
(-4.22368e-14 0.661505 0.410729)
(0 0.661505 0.410729)
(-4.22783e-14 0.520522 0.317453)
(1.69113e-13 0.520522 0.317453)
(0 0.375927 0.217979)
(1.69256e-13 0.375927 0.217979)
(-4.23439e-14 0.227843 0.112184)
(0 0.227843 0.112184)
(-7.98619e-14 1.13436e-06 4.19859e-07)
(3.76548e-13 7.32578e-07 2.71147e-07)
(0 281.195 -0.52039)
(-1.14425e-16 281.195 -0.52039)
(-2.24656e-16 281.195 -1.57088)
(0 281.195 -1.57088)
(-1.27908e-16 281.194 -2.18015)
(0 281.194 -2.18015)
(2.09585e-16 281.194 -2.22084)
(-4.32995e-16 281.194 -2.22084)
(-7.1587e-16 281.193 -2.26228)
(0 281.193 -2.26228)
(5.09053e-16 281.191 -2.3045)
(0 281.191 -2.3045)
(-8.1925e-16 281.19 -2.3475)
(0 281.19 -2.3475)
(1.63961e-15 281.187 -2.3913)
(0 281.187 -2.3913)
(-9.79543e-16 281.185 -2.43592)
(3.91817e-15 281.185 -2.43592)
(1.14226e-15 281.182 -2.48135)
(-6.11912e-15 281.182 -2.48135)
(1.09438e-15 281.178 -2.52763)
(-5.23208e-15 281.178 -2.52763)
(2.97065e-15 281.172 -2.57476)
(-1.49378e-15 281.172 -2.57476)
(-1.64887e-15 281.166 -2.62276)
(-6.59547e-15 281.166 -2.62276)
(2.87907e-15 281.158 -2.67163)
(-1.01754e-14 281.158 -2.67163)
(2.00255e-15 281.147 -2.72138)
(-8.01021e-15 281.147 -2.72138)
(-2.77452e-15 281.133 -2.77203)
(0 281.133 -2.77203)
(5.09323e-15 281.116 -2.82357)
(-1.22019e-14 281.116 -2.82357)
(-2.78933e-15 281.093 -2.87601)
(1.55803e-14 281.093 -2.87601)
(2.75036e-15 281.063 -2.92935)
(0 281.063 -2.92935)
(5.8922e-15 281.025 -2.98358)
(-5.15334e-15 281.025 -2.98358)
(3.14548e-15 280.976 -3.03868)
(7.52302e-15 280.976 -3.03868)
(3.34857e-15 280.913 -3.09463)
(8.42806e-15 280.913 -3.09463)
(-3.55542e-15 280.834 -3.1514)
(0 280.834 -3.1514)
(7.53221e-15 280.734 -3.20896)
(0 280.734 -3.20896)
(-7.17482e-16 280.609 -3.26724)
(4.69817e-15 280.609 -3.26724)
(4.61207e-15 280.454 -3.32618)
(0 280.454 -3.32618)
(0 280.261 -3.3857)
(-4.52756e-15 280.261 -3.3857)
(9.29672e-15 280.023 -3.44568)
(0 280.023 -3.44568)
(4.87908e-15 279.733 -3.506)
(1.95163e-14 279.733 -3.506)
(1.02279e-14 279.381 -3.56651)
(0 279.381 -3.56651)
(5.35304e-15 278.955 -3.62702)
(0 278.955 -3.62702)
(5.59634e-15 278.443 -3.68735)
(-8.25531e-15 278.443 -3.68735)
(1.39479e-14 277.834 -3.74724)
(-2.33756e-14 277.834 -3.74724)
(0 277.112 -3.80643)
(-2.43828e-14 277.112 -3.80643)
(0 276.263 -3.86463)
(0 276.263 -3.86463)
(6.61201e-15 275.269 -3.92152)
(-2.6448e-14 275.269 -3.92152)
(6.22677e-15 274.117 -3.97673)
(0 274.117 -3.97673)
(-7.14502e-15 272.787 -4.02991)
(-2.85801e-14 272.787 -4.02991)
(-7.41761e-15 271.265 -4.08066)
(-6.65937e-14 271.265 -4.08066)
(-7.69411e-15 269.535 -4.12859)
(0 269.535 -4.12859)
(-7.97438e-15 267.583 -4.17329)
(0 267.583 -4.17329)
(-8.25826e-15 265.396 -4.21439)
(-6.60661e-14 265.396 -4.21439)
(1.70911e-14 262.964 -4.25153)
(0 262.964 -4.25153)
(2.20605e-14 260.28 -4.28435)
(-4.85684e-14 260.28 -4.28435)
(1.82587e-14 257.339 -4.31257)
(2.35353e-14 257.339 -4.31257)
(2.21696e-14 254.141 -4.33596)
(-5.04457e-14 254.141 -4.33596)
(-1.94474e-14 250.689 -4.35431)
(-3.88947e-14 250.689 -4.35431)
(2.0048e-14 246.991 -4.36752)
(4.0096e-14 246.991 -4.36752)
(0 243.056 -4.37553)
(0 243.056 -4.37553)
(-1.06292e-14 238.899 -4.37835)
(-1.08704e-13 238.899 -4.37835)
(1.09333e-14 234.537 -4.37607)
(-4.37331e-14 234.537 -4.37607)
(-1.15734e-14 229.99 -4.36884)
(2.28113e-14 229.99 -4.36884)
(2.23933e-14 225.28 -4.35684)
(-1.14735e-13 225.28 -4.35684)
(1.18474e-14 220.43 -4.34033)
(0 220.43 -4.34033)
(2.43028e-14 215.465 -4.31959)
(0 215.465 -4.31959)
(0 210.41 -4.29495)
(-7.10029e-14 210.41 -4.29495)
(3.3553e-14 205.288 -4.26675)
(-2.07965e-14 205.288 -4.26675)
(1.30569e-14 200.123 -4.23533)
(-7.26431e-14 200.123 -4.23533)
(0 194.939 -4.20106)
(-5.34223e-14 194.939 -4.20106)
(1.96741e-14 189.756 -4.16428)
(-7.42827e-14 189.756 -4.16428)
(1.39465e-14 184.593 -4.12535)
(0 184.593 -4.12535)
(0 179.469 -4.08459)
(-1.89596e-14 179.469 -4.08459)
(3.31399e-14 174.399 -4.04232)
(-1.86122e-14 174.399 -4.04232)
(1.48143e-14 169.397 -3.99884)
(-1.82711e-14 169.397 -3.99884)
(0 164.475 -3.95441)
(-6.03916e-14 164.475 -3.95441)
(0 159.643 -3.90928)
(0 159.643 -3.90928)
(3.29411e-14 154.91 -3.86369)
(-7.99096e-14 154.91 -3.86369)
(0 150.282 -3.81783)
(-6.37224e-14 150.282 -3.81783)
(1.66573e-14 145.765 -3.77189)
(0 145.765 -3.77189)
(-3.28221e-14 141.364 -3.72603)
(1.48112e-13 141.364 -3.72603)
(0 137.08 -3.68039)
(0 137.08 -3.68039)
(1.69965e-14 132.915 -3.63509)
(-6.79861e-14 132.915 -3.63509)
(1.7255e-14 128.872 -3.59024)
(-6.902e-14 128.872 -3.59024)
(3.0372e-14 124.949 -3.54592)
(-1.40082e-13 124.949 -3.54592)
(-1.77624e-14 121.147 -3.50222)
(-2.98155e-14 121.147 -3.50222)
(0 117.463 -3.4592)
(0 117.463 -3.4592)
(0 113.898 -3.41691)
(7.30291e-14 113.898 -3.41691)
(9.70614e-15 110.448 -3.37538)
(-3.24208e-13 110.448 -3.37538)
(3.748e-14 107.111 -3.33467)
(-7.49599e-14 107.111 -3.33467)
(-1.89769e-14 103.885 -3.29478)
(0 103.885 -3.29478)
(-1.9211e-14 100.767 -3.25574)
(-7.68438e-14 100.767 -3.25574)
(-3.88843e-14 97.7546 -3.21757)
(-7.77686e-14 97.7546 -3.21757)
(6.0443e-15 94.8442 -3.18026)
(-1.8308e-13 94.8442 -3.18026)
(3.97927e-14 92.033 -3.14383)
(-7.95853e-14 92.033 -3.14383)
(2.01194e-14 89.3179 -3.10826)
(8.04777e-14 89.3179 -3.10826)
(-2.4327e-14 86.6958 -3.07357)
(1.05687e-13 86.6958 -3.07357)
(2.05579e-14 84.1635 -3.03973)
(-1.06113e-13 84.1635 -3.03973)
(-6.49904e-14 81.718 -3.00674)
(8.30935e-14 81.718 -3.00674)
(4.40005e-14 79.3563 -2.97459)
(-2.3014e-14 79.3563 -2.97459)
(1.39505e-15 77.0754 -2.94327)
(0 77.0754 -2.94327)
(0 74.8724 -2.91276)
(-2.21783e-14 74.8724 -2.91276)
(2.16119e-14 72.7445 -2.88305)
(8.64477e-14 72.7445 -2.88305)
(2.13729e-14 70.6888 -2.85411)
(-8.7264e-14 70.6888 -2.85411)
(0 68.7027 -2.82595)
(-4.19625e-14 68.7027 -2.82595)
(2.22178e-14 66.7836 -2.79852)
(8.88714e-14 66.7836 -2.79852)
(0 64.929 -2.77183)
(-4.04387e-14 64.929 -2.77183)
(0 63.1365 -2.74585)
(-1.80893e-13 63.1365 -2.74585)
(0 61.4036 -2.72056)
(0 61.4036 -2.72056)
(2.29979e-14 59.7281 -2.69595)
(-9.19916e-14 59.7281 -2.69595)
(6.07434e-14 58.1079 -2.672)
(-3.75551e-14 58.1079 -2.672)
(2.33769e-14 56.5408 -2.64869)
(1.87016e-13 56.5408 -2.64869)
(2.35639e-14 55.0249 -2.62601)
(0 55.0249 -2.62601)
(2.37492e-14 53.5581 -2.60393)
(-9.49966e-14 53.5581 -2.60393)
(2.39328e-14 52.1386 -2.58244)
(6.08542e-14 52.1386 -2.58244)
(0 50.7646 -2.56152)
(0 50.7646 -2.56152)
(-2.42955e-14 49.4345 -2.54116)
(-9.7182e-14 49.4345 -2.54116)
(3.29947e-14 48.1465 -2.52134)
(-3.29947e-14 48.1465 -2.52134)
(3.23901e-14 46.8991 -2.50205)
(-3.23901e-14 46.8991 -2.50205)
(0 45.6907 -2.48327)
(6.3593e-14 45.6907 -2.48327)
(3.12139e-14 44.5199 -2.46499)
(-1.31227e-13 44.5199 -2.46499)
(-3.06419e-14 43.3854 -2.44719)
(-3.06419e-14 43.3854 -2.44719)
(0 42.2857 -2.42985)
(-3.00804e-14 42.2857 -2.42985)
(2.55199e-14 41.2195 -2.41297)
(-2.95292e-14 41.2195 -2.41297)
(-2.56897e-14 40.1858 -2.39653)
(0 40.1858 -2.39653)
(-2.58582e-14 39.1832 -2.38052)
(-2.84568e-14 39.1832 -2.38052)
(-1.90986e-15 38.2106 -2.36492)
(0 38.2106 -2.36492)
(0 37.2671 -2.34973)
(0 37.2671 -2.34973)
(-2.57927e-14 36.3514 -2.33493)
(-2.10855e-13 36.3514 -2.33493)
(0 35.4627 -2.32051)
(0 35.4627 -2.32051)
(7.85705e-14 34.5999 -2.30646)
(-5.18867e-14 34.5999 -2.30646)
(0 33.7622 -2.29277)
(8.19151e-14 33.7622 -2.29277)
(2.50013e-14 32.9486 -2.27942)
(-1.33028e-13 32.9486 -2.27942)
(0 32.1584 -2.26641)
(-1.57753e-13 32.1584 -2.26641)
(-2.73257e-14 31.3907 -2.25373)
(-1.09303e-13 31.3907 -2.25373)
(0 30.6447 -2.24137)
(6.26314e-14 30.6447 -2.24137)
(4.42254e-15 29.9197 -2.22931)
(2.32185e-14 29.9197 -2.22931)
(5.55946e-14 29.215 -2.21756)
(1.11189e-13 29.215 -2.21756)
(-2.79528e-14 28.5299 -2.2061)
(6.70605e-14 28.5299 -2.2061)
(0 27.8637 -2.19492)
(0 27.8637 -2.19492)
(2.82612e-14 27.2159 -2.18401)
(-4.31256e-14 27.2159 -2.18401)
(2.84142e-14 26.5856 -2.17337)
(1.13657e-13 26.5856 -2.17337)
(2.85665e-14 25.9725 -2.16298)
(1.14266e-13 25.9725 -2.16298)
(2.8718e-14 25.3759 -2.15285)
(0 25.3759 -2.15285)
(4.00503e-14 24.7953 -2.14296)
(-1.15475e-13 24.7953 -2.14296)
(6.83352e-14 24.2302 -2.1333)
(-3.93164e-14 24.2302 -2.1333)
(9.42785e-15 23.6801 -2.12388)
(-3.8596e-14 23.6801 -2.12388)
(0 23.1444 -2.11467)
(0 23.1444 -2.11467)
(2.94648e-14 22.6227 -2.10568)
(-3.71944e-14 22.6227 -2.10568)
(2.27113e-14 22.1146 -2.0969)
(3.65128e-14 22.1146 -2.0969)
(0 21.6197 -2.08832)
(0 21.6197 -2.08832)
(2.99048e-14 21.1375 -2.07993)
(2.39239e-13 21.1375 -2.07993)
(0 20.6676 -2.07173)
(0 20.6676 -2.07173)
(-6.41043e-14 20.2096 -2.06372)
(0 20.2096 -2.06372)
(-3.03395e-14 19.7632 -2.05588)
(0 19.7632 -2.05588)
(0 19.3281 -2.04822)
(6.53556e-14 19.3281 -2.04822)
(3.06263e-14 18.9038 -2.04072)
(0 18.9038 -2.04072)
(0 18.49 -2.03338)
(3.14912e-14 18.49 -2.03338)
(6.18221e-14 18.0865 -2.02619)
(-1.23644e-13 18.0865 -2.02619)
(6.21053e-14 17.6928 -2.01916)
(-1.24211e-13 17.6928 -2.01916)
(-3.11937e-14 17.3088 -2.01226)
(-3.44533e-13 17.3088 -2.01226)
(-2.08869e-15 16.9341 -2.00551)
(-2.92456e-14 16.9341 -2.00551)
(0 16.5684 -1.99889)
(9.71877e-14 16.5684 -1.99889)
(0 16.2116 -1.9924)
(-2.81836e-14 16.2116 -1.9924)
(3.17531e-14 15.8632 -1.98603)
(0 15.8632 -1.98603)
(-3.18918e-14 15.5231 -1.97977)
(-1.27567e-13 15.5231 -1.97977)
(5.33248e-14 15.191 -1.97363)
(-5.33248e-14 15.191 -1.97363)
(8.45154e-14 14.8667 -1.9676)
(1.28671e-13 14.8667 -1.9676)
(6.46102e-14 14.55 -1.96167)
(-1.2922e-13 14.55 -1.96167)
(0 14.2406 -1.95584)
(-1.29768e-13 14.2406 -1.95584)
(3.25786e-14 13.9384 -1.9501)
(-4.95223e-14 13.9384 -1.9501)
(0 13.643 -1.94445)
(-1.79473e-13 13.643 -1.94445)
(4.7724e-14 13.3545 -1.93888)
(-3.10527e-13 13.3545 -1.93888)
(-4.68495e-14 13.0724 -1.93339)
(-4.68495e-14 13.0724 -1.93339)
(6.62411e-14 12.7967 -1.92797)
(1.32482e-13 12.7967 -1.92797)
(3.32551e-14 12.5272 -1.92262)
(-4.51482e-14 12.5272 -1.92262)
(0 12.2636 -1.91733)
(1.77878e-13 12.2636 -1.91733)
(7.70317e-14 12.0059 -1.9121)
(-1.77601e-13 12.0059 -1.9121)
(0 11.7539 -1.90692)
(-1.77337e-13 11.7539 -1.90692)
(0 11.5073 -1.90179)
(0 11.5073 -1.90179)
(7.50825e-14 11.2661 -1.8967)
(-1.76849e-13 11.2661 -1.8967)
(6.81088e-14 11.0301 -1.89164)
(-1.36218e-13 11.0301 -1.89164)
(7.38521e-14 10.7992 -1.88662)
(9.70797e-14 10.7992 -1.88662)
(1.07575e-13 10.5732 -1.88162)
(9.8333e-14 10.5732 -1.88162)
(3.44492e-14 10.352 -1.87664)
(0 10.352 -1.87664)
(2.94473e-15 10.1354 -1.87168)
(-3.75249e-14 10.1354 -1.87168)
(7.15479e-14 9.92332 -1.86672)
(-1.7568e-13 9.92332 -1.86672)
(3.48409e-14 9.71565 -1.86176)
(1.03201e-13 9.71565 -1.86176)
(1.05441e-13 9.51224 -1.8568)
(-3.54995e-14 9.51224 -1.8568)
(3.4849e-14 9.31299 -1.85183)
(1.40401e-13 9.31299 -1.85183)
(-1.01908e-15 9.11778 -1.84684)
(-1.75128e-13 9.11778 -1.84684)
(7.07167e-14 8.92649 -1.84183)
(-1.75017e-13 8.92649 -1.84183)
(-2.51873e-15 8.73902 -1.83678)
(-3.16863e-13 8.73902 -1.83678)
(3.5615e-14 8.55526 -1.8317)
(-1.74824e-13 8.55526 -1.8317)
(-3.17709e-14 8.3751 -1.82657)
(1.112e-13 8.3751 -1.82657)
(4.05518e-14 8.19845 -1.82138)
(1.43481e-13 8.19845 -1.82138)
(9.72318e-14 8.0252 -1.81613)
(-1.74607e-13 8.0252 -1.81613)
(6.06799e-15 7.85527 -1.81082)
(-3.00562e-14 7.85527 -1.81082)
(0 7.68855 -1.80542)
(-1.74508e-13 7.68855 -1.80542)
(0 7.52495 -1.79994)
(-1.45506e-13 7.52495 -1.79994)
(0 7.36439 -1.79436)
(-1.46009e-13 7.36439 -1.79436)
(0 7.20678 -1.78867)
(0 7.20678 -1.78867)
(3.67525e-14 7.05203 -1.78286)
(-5.48028e-14 7.05203 -1.78286)
(3.6877e-14 6.90005 -1.77693)
(1.47508e-13 6.90005 -1.77693)
(3.70011e-14 6.75077 -1.77086)
(-5.28127e-14 6.75077 -1.77086)
(0 6.6041 -1.76464)
(1.485e-13 6.6041 -1.76464)
(0 6.45996 -1.75825)
(0 6.45996 -1.75825)
(4.99623e-14 6.31828 -1.75169)
(-1.99447e-13 6.31828 -1.75169)
(0 6.17897 -1.74494)
(-4.90467e-14 6.17897 -1.74494)
(-3.76157e-14 6.04197 -1.73798)
(0 6.04197 -1.73798)
(-3.77373e-14 5.9072 -1.73081)
(-1.50949e-13 5.9072 -1.73081)
(8.54116e-15 5.77458 -1.7234)
(-1.97833e-13 5.77458 -1.7234)
(4.55493e-14 5.64404 -1.71574)
(-4.55493e-14 5.64404 -1.71574)
(4.47146e-14 5.51551 -1.70781)
(-3.49508e-13 5.51551 -1.70781)
(0 5.38891 -1.6996)
(-1.52875e-13 5.38891 -1.6996)
(0 5.26418 -1.69108)
(0 5.26418 -1.69108)
(0 5.14125 -1.68223)
(-1.53826e-13 5.14125 -1.68223)
(4.44776e-14 5.02003 -1.67303)
(-4.15261e-14 5.02003 -1.67303)
(7.73839e-14 4.90048 -1.66345)
(1.54768e-13 4.90048 -1.66345)
(1.17636e-13 4.7825 -1.65348)
(-4.00181e-14 4.7825 -1.65348)
(7.78498e-14 4.66604 -1.64308)
(-1.557e-13 4.66604 -1.64308)
(7.76054e-14 4.55101 -1.63223)
(0 4.55101 -1.63223)
(-3.91553e-14 4.43735 -1.62089)
(0 4.43735 -1.62089)
(0 4.32499 -1.60904)
(1.57078e-13 4.32499 -1.60904)
(-3.93828e-14 4.21385 -1.59663)
(1.21048e-13 4.21385 -1.59663)
(0 4.10386 -1.58363)
(-1.57981e-13 4.10386 -1.58363)
(3.51586e-14 3.99493 -1.57)
(-1.93587e-13 3.99493 -1.57)
(-7.42324e-14 3.887 -1.55569)
(-1.58872e-13 3.887 -1.55569)
(7.96562e-14 3.77997 -1.54067)
(-1.59312e-13 3.77997 -1.54067)
(3.99372e-14 3.67378 -1.52487)
(0 3.67378 -1.52487)
(-6.5303e-14 3.56832 -1.50825)
(1.60181e-13 3.56832 -1.50825)
(0 3.46352 -1.49073)
(0 3.46352 -1.49073)
(6.29316e-14 3.35928 -1.47227)
(-2.23965e-13 3.35928 -1.47227)
(0 3.2555 -1.45279)
(0 3.2555 -1.45279)
(-2.01794e-14 3.15208 -1.4322)
(1.01221e-13 3.15208 -1.4322)
(4.05693e-14 3.04891 -1.41044)
(-3.24555e-13 3.04891 -1.41044)
(0 2.94589 -1.3874)
(0 2.94589 -1.3874)
(4.077e-14 2.84288 -1.36299)
(0 2.84288 -1.36299)
(4.08682e-14 2.73977 -1.3371)
(-2.19795e-13 2.73977 -1.3371)
(-4.09648e-14 2.63641 -1.30961)
(1.0857e-13 2.63641 -1.30961)
(2.7843e-14 2.53266 -1.28039)
(1.64239e-13 2.53266 -1.28039)
(2.90239e-14 2.42837 -1.24929)
(0 2.42837 -1.24929)
(4.12442e-14 2.32337 -1.21616)
(-5.23055e-14 2.32337 -1.21616)
(4.13335e-14 2.21748 -1.18082)
(-5.13471e-14 2.21748 -1.18082)
(4.14206e-14 2.11051 -1.14309)
(-2.16089e-13 2.11051 -1.14309)
(4.15056e-14 2.00227 -1.10275)
(1.66022e-13 2.00227 -1.10275)
(0 1.89254 -1.05959)
(-1.66352e-13 1.89254 -1.05959)
(4.1668e-14 1.78108 -1.01335)
(-2.14358e-13 1.78108 -1.01335)
(8.8557e-14 1.66768 -0.963781)
(0 1.66768 -0.963781)
(4.59539e-14 1.55207 -0.910589)
(1.67278e-13 1.55207 -0.910589)
(0 1.43402 -0.853477)
(-3.35125e-13 1.43402 -0.853477)
(0 1.31327 -0.792133)
(-1.67833e-13 1.31327 -0.792133)
(4.20224e-14 1.18959 -0.726234)
(-1.6809e-13 1.18959 -0.726234)
(4.20826e-14 1.06275 -0.655454)
(1.25653e-13 1.06275 -0.655454)
(4.21387e-14 0.932546 -0.579474)
(-3.37109e-13 0.932546 -0.579474)
(8.43804e-14 0.798834 -0.497991)
(-1.68761e-13 0.798834 -0.497991)
(0 0.661505 -0.410729)
(0 0.661505 -0.410729)
(-8.19121e-14 0.520522 -0.317453)
(1.29479e-13 0.520522 -0.317453)
(0 0.375927 -0.217979)
(-1.69256e-13 0.375927 -0.217979)
(-4.23439e-14 0.227843 -0.112184)
(1.69376e-13 0.227843 -0.112184)
(4.23673e-14 1.16992e-06 -4.33018e-07)
(2.07193e-13 4.281e-07 -1.58451e-07)
(7.99193e-14 -1.13554e-06 4.20297e-07)
(1.69469e-13 -7.31519e-07 2.70755e-07)
(0 -0.227842 0.112184)
(3.38751e-13 -0.227842 0.112184)
(-4.23141e-14 -0.375926 0.217979)
(-3.89075e-14 -0.375926 0.217979)
(0 -0.520522 0.317452)
(1.69113e-13 -0.520522 0.317452)
(0 -0.661504 0.410728)
(3.37895e-13 -0.661504 0.410728)
(-1.06289e-15 -0.798833 0.49799)
(-2.09888e-13 -0.798833 0.49799)
(0 -0.932546 0.579474)
(0 -0.932546 0.579474)
(-4.20826e-14 -1.06275 0.655454)
(-1.68331e-13 -1.06275 0.655454)
(0 -1.18959 0.726233)
(0 -1.18959 0.726233)
(4.19583e-14 -1.31327 0.792133)
(0 -1.31327 0.792133)
(0 -1.43402 0.853477)
(1.67562e-13 -1.43402 0.853477)
(4.59539e-14 -1.55207 0.910588)
(1.67278e-13 -1.55207 0.910588)
(0 -1.66768 0.963781)
(0 -1.66768 0.963781)
(-4.1668e-14 -1.78108 1.01335)
(-1.66672e-13 -1.78108 1.01335)
(8.31761e-14 -1.89253 1.05959)
(-4.85757e-14 -1.89253 1.05959)
(0 -2.00227 1.10275)
(0 -2.00227 1.10275)
(8.28413e-14 -2.11051 1.14309)
(1.65683e-13 -2.11051 1.14309)
(-4.13335e-14 -2.21748 1.18082)
(-2.16681e-13 -2.21748 1.18082)