/*--------------------------------*- C++ -*----------------------------------*\
| =========                 |                                                 |
| \\      /  F ield         | OpenFOAM: The Open Source CFD Toolbox           |
|  \\    /   O peration     | Version:  2106                                  |
|   \\  /    A nd           | Website:  www.openfoam.com                      |
|    \\/     M anipulation  |                                                 |
\*---------------------------------------------------------------------------*/
FoamFile
{
    version     2.0;
    format      ascii;
    arch        "LSB;label=32;scalar=64";
    class       volTensorField;
    location    "10090";
    object      grad(U);
}
// * * * * * * * * * * * * * * * * * * * * * * * * * * * * * * * * * * * * * //

dimensions      [0 0 -1 0 0 0 0];

internalField   nonuniform List<tensor> 
2000
(
(0 -1.1335e-25 1.52444e-31 23.8044 -7.69041e-12 -3.07718e-13 0.0440574 -7.11605e-15 -1.90803e-16)
(0 -3.28274e-28 -2.6784e-30 23.8044 -2.71893e-16 -1.3191e-17 0.0440574 -1.46148e-19 -1.26463e-17)
(0 -5.60519e-45 9.55833e-31 23.7999 8.07794e-28 -5.66707e-14 0.132978 0 -2.13669e-16)
(-2.8082e-17 -3.83106e-29 -7.98137e-31 23.7999 -4.8413e-15 -4.2949e-17 0.132978 -9.96505e-18 -2.1644e-16)
(-5.42202e-18 -9.62513e-30 -3.02078e-31 23.7953 1.08674e-12 -2.72574e-14 0.184472 -9.44609e-15 -2.05006e-16)
(0 1.88043e-29 7.83511e-31 23.7953 -5.22311e-15 -4.13827e-17 0.184472 -2.06123e-17 -2.24572e-16)
(9.04992e-17 -9.33782e-30 -1.03418e-31 23.7906 4.94065e-13 -2.72438e-14 0.187877 -7.22889e-15 -2.21505e-16)
(-3.72502e-17 1.84597e-29 3.84577e-31 23.7906 -5.45004e-15 -4.41927e-17 0.187877 -3.24172e-17 -2.32932e-16)
(0 1.2081e-29 3.7753e-31 23.7858 9.9537e-16 -2.86323e-14 0.191345 -4.40325e-16 -2.35073e-16)
(0 -6.04048e-30 -1.88765e-31 23.7858 -5.53967e-15 -4.36561e-17 0.191345 -4.46129e-17 -2.41515e-16)
(0 -1.0389e-28 1.29714e-30 23.7809 -3.0538e-14 -2.96002e-14 0.194876 -1.2398e-16 -2.45716e-16)
(-1.72369e-16 -2.96489e-29 -1.29714e-30 23.7809 -5.58383e-15 -4.4672e-17 0.194876 -5.73081e-17 -2.5032e-16)
(1.02406e-16 -2.4438e-28 -3.6382e-31 23.7758 -1.92324e-27 -3.0323e-14 0.198471 0 -2.56e-16)
(2.24462e-16 1.16422e-29 3.6382e-31 23.7758 -5.62955e-15 -5.02556e-17 0.198471 -7.01581e-17 -2.59364e-16)
(0 -5.71445e-30 0 23.7707 9.48941e-15 -3.10159e-14 0.202131 -6.69437e-17 -2.66761e-16)
(5.55035e-16 1.14289e-29 1.78577e-31 23.7707 -5.75627e-15 -5.30372e-17 0.202131 -8.3617e-17 -2.68652e-16)
(-8.28878e-17 3.96122e-30 2.86063e-31 23.7653 1.03564e-14 -3.17299e-14 0.205858 -9.3209e-17 -2.78018e-16)
(0 5.60974e-30 0 23.7653 -5.83108e-15 -4.95024e-17 0.205858 -9.7743e-17 -2.78164e-16)
(1.93758e-16 -1.10139e-29 -6.88368e-31 23.7599 9.58552e-15 -3.24623e-14 0.209652 -8.44872e-17 -2.89738e-16)
(-1.93758e-16 1.10139e-29 6.88368e-31 23.7599 -5.86382e-15 -5.00681e-17 0.209652 -1.12013e-16 -2.87911e-16)
(1.90208e-16 -3.78422e-29 -2.02726e-30 23.7543 9.58831e-15 -3.3209e-14 0.213514 -8.31161e-17 -3.01919e-16)
(0 3.78422e-29 2.02726e-30 23.7543 -6.0044e-15 -5.5293e-17 0.213514 -1.26975e-16 -2.97914e-16)
(-6.17952e-17 1.19652e-29 5.31235e-31 23.7484 9.9053e-15 -3.39679e-14 0.217445 -8.7721e-17 -3.14556e-16)
(4.99708e-16 -5.30696e-30 -3.31685e-31 23.7484 -6.09092e-15 -5.56638e-17 0.217445 -1.42707e-16 -3.08161e-16)
(0 -5.20972e-30 0 23.7424 1.01022e-14 -3.47389e-14 0.221447 -9.20537e-17 -3.27681e-16)
(0 5.20972e-30 0 23.7424 -6.08757e-15 -5.9268e-17 0.221447 -1.58863e-16 -3.18653e-16)
(-5.14144e-16 3.975e-29 2.38552e-30 23.7361 1.03974e-14 -3.55217e-14 0.225519 -9.47007e-17 -3.41286e-16)
(1.79942e-16 -3.06855e-29 -1.91784e-30 23.7361 -6.11943e-15 -6.44782e-17 0.225519 -1.75189e-16 -3.29427e-16)
(-6.99267e-16 2.4029e-29 1.09788e-30 23.7295 1.05108e-14 -3.63139e-14 0.229663 -1.01131e-16 -3.55364e-16)
(0 -1.00411e-29 -3.13783e-31 23.7295 -6.25197e-15 -5.90038e-17 0.229663 -1.91319e-16 -3.40418e-16)
(5.315e-16 -2.36586e-29 -1.0895e-30 23.7225 1.00557e-14 -3.71166e-14 0.233879 -1.00466e-16 -3.69977e-16)
(-7.38741e-16 1.97141e-29 9.241e-31 23.7225 -6.1598e-15 -4.76267e-17 0.233879 -2.08652e-16 -3.51614e-16)
(3.40459e-16 -9.67644e-30 -6.04777e-31 23.7149 9.82219e-15 -3.7931e-14 0.238166 -9.59661e-17 -3.85115e-16)
(0 1.45147e-29 9.07166e-31 23.7149 -5.81066e-15 -5.44326e-17 0.238166 -2.26044e-16 -3.63046e-16)
(7.66701e-16 -3.63773e-29 -2.74349e-30 23.7068 1.02229e-14 -3.87537e-14 0.242526 -9.9561e-17 -4.00755e-16)
(8.6496e-16 2.37478e-29 2.07793e-30 23.7068 -5.98294e-15 -6.39164e-17 0.242526 -2.42696e-16 -3.7478e-16)
(-2.32454e-16 8.59871e-30 1.0687e-30 23.698 1.08165e-14 -3.9581e-14 0.246956 -1.07783e-16 -4.16872e-16)
(0 0 -2.91408e-31 23.698 -6.49984e-15 -6.08048e-17 0.246956 -2.61585e-16 -3.86753e-16)
(2.48965e-16 -1.76634e-29 -7.7718e-31 23.6882 1.10926e-14 -4.04112e-14 0.251457 -1.15686e-16 -4.33486e-16)
(9.95861e-16 1.83083e-29 1.14427e-30 23.6882 -6.56857e-15 -6.39888e-17 0.251457 -2.82775e-16 -3.98993e-16)
(-2.6578e-16 3.92896e-30 -3.45566e-31 23.6772 1.09658e-14 -4.12434e-14 0.256025 -1.17709e-16 -4.50581e-16)
(2.12624e-15 0 5.61652e-31 23.6772 -6.39364e-15 -6.75281e-17 0.256025 -3.03051e-16 -4.11469e-16)
(0 8.82175e-30 5.5136e-31 23.6648 1.09487e-14 -4.2074e-14 0.260659 -1.17302e-16 -4.68124e-16)
(1.13161e-15 -4.41088e-30 0 23.6648 -6.55119e-15 -6.9534e-17 0.260659 -3.22793e-16 -4.24161e-16)
(3.047e-16 -1.29901e-29 -1.62377e-30 23.6507 1.132e-14 -4.28991e-14 0.265355 -1.21767e-16 -4.86081e-16)
(1.20135e-15 1.73202e-29 1.62377e-30 23.6507 -6.90857e-15 -7.45888e-17 0.265355 -3.4474e-16 -4.37111e-16)
(0 1.27521e-29 1.06268e-30 23.6344 1.17853e-14 -4.37127e-14 0.270109 -1.30058e-16 -5.04367e-16)
(1.27236e-15 -4.2507e-30 -1.06268e-30 23.6344 -7.40303e-15 -7.71997e-17 0.270109 -3.68834e-16 -4.50293e-16)
(-3.36166e-16 -4.43224e-30 2.65371e-31 23.6155 1.18921e-14 -4.45086e-14 0.274914 -1.36994e-16 -5.22936e-16)
(0 1.25184e-29 5.21601e-31 23.6155 -7.47807e-15 -7.0558e-17 0.274914 -3.95928e-16 -4.63599e-16)
(0 -2.04817e-29 -3.07226e-30 23.5934 1.14329e-14 -4.52834e-14 0.279763 -1.37446e-16 -5.41757e-16)
(1.41827e-15 2.04817e-29 3.07226e-30 23.5934 -6.83466e-15 -6.37045e-17 0.279763 -4.21571e-16 -4.77056e-16)
(1.92642e-16 -8.15646e-30 -7.1195e-31 23.5676 1.12353e-14 -4.60321e-14 0.284648 -1.31261e-16 -5.60735e-16)
(-5.65945e-16 1.60851e-29 1.00532e-30 23.5676 -6.7608e-15 -6.75387e-17 0.284648 -4.43677e-16 -4.90677e-16)
(-3.92373e-16 -4.45142e-32 8.01756e-31 23.5372 1.19193e-14 -4.67414e-14 0.289557 -1.37848e-16 -5.79637e-16)
(0 1.18428e-29 0 23.5372 -7.11094e-15 -6.3657e-17 0.289557 -4.6866e-16 -5.04385e-16)
(0 1.16258e-29 2.42203e-30 23.5015 1.24678e-14 -4.74002e-14 0.294478 -1.53048e-16 -5.98389e-16)
(-5.45393e-16 -3.87525e-30 -1.45322e-30 23.5015 -7.41969e-15 -6.79086e-17 0.294478 -4.94379e-16 -5.18107e-16)
(-9.66933e-16 3.81308e-29 5.09545e-30 23.4594 1.25368e-14 -4.7999e-14 0.299394 -1.568e-16 -6.16778e-16)
(-1.72614e-15 -2.66297e-29 -3.80424e-30 23.4594 -7.43631e-15 -7.02282e-17 0.299394 -5.22894e-16 -5.32018e-16)
(4.51629e-16 -7.62263e-30 -3.57092e-31 23.41 1.27395e-14 -4.85266e-14 0.304288 -1.60579e-16 -6.34668e-16)
(1.28093e-15 3.73453e-30 0 23.41 -6.9309e-15 -5.85774e-17 0.304288 -5.51495e-16 -5.45857e-16)
(-5.15957e-16 7.33219e-30 9.16524e-31 23.352 1.29862e-14 -4.89684e-14 0.309139 -1.67984e-16 -6.51731e-16)
(0 0 0 23.352 -7.1054e-15 -6.51239e-17 0.309139 -5.78436e-16 -5.59722e-16)
(-4.92857e-16 1.82733e-29 2.64244e-30 23.2842 1.31009e-14 -4.93093e-14 0.313923 -1.7317e-16 -6.67793e-16)
(0 -1.43957e-29 -2.24932e-30 23.2842 -7.80234e-15 -7.31909e-17 0.313923 -6.08651e-16 -5.73507e-16)
(-1.67683e-17 -3.19316e-30 -4.71013e-31 23.2051 1.32069e-14 -4.95372e-14 0.318613 -1.77411e-16 -6.82558e-16)
(-4.97221e-16 1.76648e-29 1.76648e-30 23.2051 -7.96179e-15 -7.3223e-17 0.318613 -6.40831e-16 -5.8717e-16)
(0 -2.42776e-29 -4.33528e-30 23.1134 1.31972e-14 -4.96364e-14 0.323181 -1.82611e-16 -6.95737e-16)
(2.14185e-15 2.42776e-29 4.33528e-30 23.1134 -7.29399e-15 -5.1382e-17 0.323181 -6.72199e-16 -6.00541e-16)
(0 1.0214e-29 2.5535e-30 23.0075 1.32638e-14 -4.95946e-14 0.327595 -1.83826e-16 -7.07082e-16)
(0 0 -1.70234e-30 23.0075 -6.71634e-15 -4.95462e-17 0.327595 -7.00852e-16 -6.13451e-16)
(5.79421e-16 6.17e-30 3.61577e-31 22.8858 1.3328e-14 -4.93946e-14 0.331821 -1.91391e-16 -7.16139e-16)
(2.31768e-15 -1.00268e-29 -8.3557e-31 22.8858 -6.77609e-15 -7.03536e-17 0.331821 -7.30829e-16 -6.26222e-16)
(-6.0189e-16 -1.58345e-29 -2.78504e-30 22.7468 1.29695e-14 -4.90255e-14 0.335822 -1.92622e-16 -7.22793e-16)
(1.48403e-15 2.29672e-29 3.28103e-30 22.7468 -7.15187e-15 -5.31896e-17 0.335822 -7.62e-16 -6.38611e-16)
(-6.24674e-16 -1.54775e-29 -3.50747e-30 22.589 1.32591e-14 -4.84803e-14 0.339562 -1.87983e-16 -7.26672e-16)
(0 2.25464e-29 4.02614e-30 22.589 -7.98167e-15 -6.44366e-17 0.339562 -7.9718e-16 -6.50353e-16)
(0 1.89713e-29 3.95236e-30 22.411 1.42823e-14 -4.77453e-14 0.343005 -2.0862e-16 -7.27438e-16)
(2.59103e-15 -1.89713e-29 -3.95236e-30 22.411 -8.84159e-15 -1.05184e-16 0.343005 -8.35646e-16 -6.61602e-16)
(-2.21594e-15 2.62859e-29 1.90762e-30 22.2116 1.42451e-14 -4.68176e-14 0.346113 -2.26519e-16 -7.25003e-16)
(2.68451e-15 -1.24158e-29 0 22.2116 -8.54638e-15 -8.5741e-17 0.346113 -8.74975e-16 -6.72009e-16)
(8.57674e-16 -1.21883e-29 -3.04707e-30 21.9897 1.33458e-14 -4.57089e-14 0.348853 -2.15316e-16 -7.19484e-16)
(-8.57674e-16 1.82824e-29 3.04707e-30 21.9897 -7.30418e-15 -5.37362e-17 0.348853 -9.17205e-16 -6.81343e-16)
(0 -1.19649e-29 -7.47808e-31 21.7446 1.3061e-14 -4.44294e-14 0.351192 -2.06368e-16 -7.10747e-16)
(0 1.19649e-29 7.47808e-31 21.7446 -7.38826e-15 -3.69519e-17 0.351192 -9.53794e-16 -6.89747e-16)
(-7.42749e-16 1.55625e-29 2.10773e-30 21.4759 1.39262e-14 -4.29833e-14 0.353102 -2.14176e-16 -6.9873e-16)
(-3.79752e-15 -5.87284e-30 0 21.4759 -7.97681e-15 -3.57198e-17 0.353102 -9.93516e-16 -6.9704e-16)
(7.67048e-16 1.3489e-29 1.49745e-30 21.1833 1.46719e-14 -4.13868e-14 0.354562 -2.42782e-16 -6.83699e-16)
(3.06819e-15 -5.76522e-30 -1.44131e-30 21.1833 -8.20049e-15 -5.17634e-17 0.354562 -1.03152e-15 -7.03435e-16)
(7.91513e-16 1.88386e-29 4.97008e-30 20.8673 1.43774e-14 -3.96635e-14 0.355553 -2.47389e-16 -6.6587e-16)
(-3.16605e-15 -2.26383e-29 -5.65958e-30 20.8673 -8.63399e-15 -4.08679e-17 0.355553 -1.07298e-15 -7.08646e-16)
(-3.41948e-17 -1.76122e-30 -6.74605e-31 20.5284 1.36456e-14 -3.78375e-14 0.356065 -2.41816e-16 -6.45573e-16)
(3.26445e-15 1.11117e-29 2.63991e-30 20.5284 -7.84367e-15 -5.52924e-17 0.356065 -1.12301e-15 -7.12439e-16)
(0 -2.18162e-29 -5.45406e-30 20.1677 1.38766e-14 -3.59354e-14 0.356094 -2.31105e-16 -6.23166e-16)
(5.19135e-15 2.72703e-29 6.81757e-30 20.1677 -7.35506e-15 -1.22384e-16 0.356094 -1.16242e-15 -7.15171e-16)
(8.65588e-16 -3.05497e-29 -7.45579e-30 19.7865 1.43226e-14 -3.39858e-14 0.355642 -2.59163e-16 -5.99117e-16)
(3.46235e-15 2.14164e-29 6.69264e-30 19.7865 -8.15661e-15 -5.98381e-17 0.355642 -1.20326e-15 -7.16827e-16)
(-8.90394e-16 1.95407e-29 4.72883e-30 19.3865 1.3109e-14 -3.20182e-14 0.354719 -2.56008e-16 -5.73877e-16)
(-3.56157e-15 -5.256e-30 -1.98922e-31 19.3865 -8.20078e-15 -1.08576e-29 0.354719 -1.25438e-15 -7.16693e-16)
(1.45232e-15 -5.15968e-30 -2.57984e-30 18.9697 1.24593e-14 -3.00691e-14 0.353342 -2.24045e-16 -5.48259e-16)
(-1.45232e-15 1.03194e-29 3.86976e-30 18.9697 -7.32459e-15 -1.52791e-18 0.353342 -1.30566e-15 -7.15106e-16)
(-9.39968e-16 2.40229e-29 5.8974e-30 18.5384 1.34381e-14 -2.81515e-14 0.351532 -2.41175e-16 -5.2191e-16)
(0 -1.01303e-29 -2.53257e-30 18.5384 -6.80486e-15 -3.81148e-17 0.351532 -1.34579e-15 -7.12515e-16)
(0 -9.94464e-30 -4.97232e-30 18.0948 1.38729e-14 -2.62876e-14 0.349315 -2.70053e-16 -4.96052e-16)
(0 9.94464e-30 4.97232e-30 18.0948 -7.53771e-15 -5.32966e-17 0.349315 -1.39266e-15 -7.09095e-16)
(-1.37394e-15 1.46436e-29 6.1015e-30 17.6414 1.42622e-14 -2.45116e-14 0.346722 -2.67261e-16 -4.70848e-16)
(-2.58313e-15 -1.46436e-29 -7.3218e-30 17.6414 -8.04121e-15 -5.47809e-17 0.346722 -1.45033e-15 -7.04401e-16)
(-3.35027e-16 5.84955e-30 3.89735e-30 17.1807 1.50295e-14 -2.28234e-14 0.343786 -2.95732e-16 -4.46255e-16)
(0 0 -1.19794e-30 17.1807 -7.88684e-15 -6.0302e-17 0.343786 -1.49598e-15 -6.9874e-16)
(-1.03804e-15 3.72361e-30 -2.61462e-30 16.715 1.43933e-14 -2.12405e-14 0.340542 -3.08461e-16 -4.23179e-16)
(0 4.70395e-30 5.87994e-30 16.715 -8.39202e-15 -1.01655e-16 0.340542 -1.55148e-15 -6.92485e-16)
(-3.42409e-15 -1.10297e-29 -3.90944e-30 16.2467 1.33586e-14 -1.97834e-14 0.337028 -2.80585e-16 -4.01731e-16)
(4.24862e-15 9.2355e-30 4.61775e-30 16.2467 -7.90828e-15 -1.13025e-16 0.337028 -1.60611e-15 -6.85448e-16)
(-1.08606e-15 3.71406e-30 9.48578e-31 15.778 1.25878e-14 -1.8451e-14 0.333278 -2.76524e-16 -3.8199e-16)
(0 0 0 15.778 -7.12139e-15 -5.56538e-17 0.333278 -1.64395e-15 -6.76882e-16)
(-2.21947e-15 2.52202e-29 9.71748e-30 15.3111 1.21339e-14 -1.72486e-14 0.329329 -2.58104e-16 -3.64345e-16)
(-4.43894e-15 -1.78003e-29 -7.78761e-30 15.3111 -7.48297e-15 2.8375e-17 0.329329 -1.69284e-15 -6.66519e-16)
(1.13316e-15 6.66793e-31 4.48013e-30 14.8476 1.31087e-14 -1.61745e-14 0.325215 -2.67119e-16 -3.48589e-16)
(-4.53263e-15 -1.31056e-29 -7.6449e-30 14.8476 -7.4477e-15 5.37488e-17 0.325215 -1.74809e-15 -6.55032e-16)
(-1.2071e-15 8.57693e-30 4.28847e-30 14.3894 1.38461e-14 -1.52151e-14 0.320968 -3.11207e-16 -3.34584e-16)
(0 0 -8.92219e-32 14.3894 -7.0308e-15 -6.84228e-49 0.320968 -1.80525e-15 -6.42912e-16)
(-2.35838e-15 -5.275e-30 -3.25025e-30 13.9379 1.28395e-14 -1.43751e-14 0.31662 -3.10608e-16 -3.22939e-16)
(9.43351e-15 1.26296e-29 4.20988e-30 13.9379 -6.90098e-15 -1.24559e-16 0.31662 -1.85542e-15 -6.31596e-16)
(-1.20177e-15 1.60737e-29 6.18352e-30 13.4943 1.168e-14 -1.36621e-14 0.312198 -2.76456e-16 -3.13655e-16)
(4.80709e-15 -1.23982e-29 -5.16592e-30 13.4943 -7.34981e-15 -1.04954e-16 0.312198 -1.90479e-15 -6.19417e-16)
(1.14195e-15 -8.11401e-30 -3.04275e-30 13.0597 1.17299e-14 -1.30607e-14 0.307728 -2.67772e-16 -3.06291e-16)
(-1.14195e-15 8.11401e-30 4.057e-30 13.0597 -7.45487e-15 -5.44833e-17 0.307728 -1.95668e-15 -6.05713e-16)
(-2.36705e-15 -3.23006e-31 3.03078e-30 12.635 1.24101e-14 -1.25415e-14 0.303233 -2.89264e-16 -3.0013e-16)
(4.98413e-15 7.96532e-30 9.95665e-31 12.635 -7.08503e-15 -5.82343e-17 0.303233 -2.00888e-15 -5.91236e-16)
(0 7.81936e-30 -5.74565e-29 12.2209 1.20154e-14 1.09082e-30 0.298733 -3.11064e-16 0)
(0 -3.90968e-30 -9.7742e-31 12.2209 -6.92055e-15 -1.75603e-17 0.298733 -2.06525e-15 -5.75889e-16)
(-1.28905e-15 1.13203e-29 4.92123e-30 11.8179 1.12609e-14 1.96732e-15 0.294246 -2.80537e-16 -3.92867e-17)
(0 -3.83804e-30 -1.40892e-31 11.8179 -7.02699e-15 6.19533e-30 0.294246 -2.11885e-15 -5.60012e-16)
(-2.12103e-15 1.13031e-29 3.76771e-30 11.4263 1.12644e-14 2.2944e-15 0.289789 -2.84571e-16 -5.96216e-17)
(0 -7.53541e-30 -1.88385e-30 11.4263 -6.72175e-15 -2.70431e-18 0.289789 -2.181e-15 -5.43726e-16)
(0 -2.58906e-29 -7.39733e-30 11.0465 1.07992e-14 2.25191e-15 0.285374 -2.9129e-16 -5.76425e-17)
(5.32322e-15 2.58906e-29 0 11.0465 -6.08162e-15 0 0.285374 -2.24921e-15 -5.25262e-16)
(0 2.54162e-29 9.07722e-30 10.6787 9.92124e-15 2.17728e-15 0.281013 -2.70848e-16 -5.9635e-17)
(0 -2.54162e-29 -9.07722e-30 10.6787 -6.0315e-15 -4.13366e-17 0.281013 -2.30718e-15 -5.08003e-16)
(-1.37131e-15 3.6169e-30 2.8523e-30 10.3227 9.02064e-15 2.02893e-15 0.276716 -2.5526e-16 -5.58192e-17)
(5.48523e-15 3.56435e-30 0 10.3227 -4.65608e-15 -7.5419e-17 0.276716 -2.35775e-15 -4.92233e-16)
(0 -2.79923e-29 -8.74759e-30 9.97871 8.39052e-15 2.38089e-15 0.27249 -2.31938e-16 -5.37915e-17)
(5.56438e-15 2.79923e-29 8.74759e-30 9.97871 -3.70794e-15 -1.93077e-19 0.27249 -2.40256e-15 -4.76948e-16)
(-1.41058e-15 2.42164e-29 9.64805e-30 9.64651 7.66423e-15 3.14319e-15 0.268343 -2.29872e-16 -7.74756e-17)
(-5.64232e-15 -2.06095e-29 -8.58729e-30 9.64651 -4.2683e-15 2.26266e-16 0.268343 -2.4453e-15 -4.59475e-16)
(1.89825e-15 -1.01159e-29 -1.68599e-30 9.32595 7.48181e-15 3.56613e-15 0.264279 -1.99575e-16 -9.89594e-17)
(-5.71905e-15 1.01159e-29 3.37197e-30 9.32595 -3.73457e-15 9.95768e-17 0.264279 -2.48852e-15 -4.40709e-16)
(-2.89731e-15 7.2003e-30 2.09677e-30 9.01683 8.11643e-15 3.46184e-15 0.260301 -2.28017e-16 -1.04777e-16)
(5.79461e-15 0 -5.90162e-32 9.01683 -3.87668e-15 -2.45704e-47 0.260301 -2.51329e-15 -4.25257e-16)
(-2.93451e-15 3.93673e-30 2.09143e-30 8.7189 8.92894e-15 3.21707e-15 0.256414 -2.44363e-16 -9.65644e-17)
(0 3.24953e-30 0 8.7189 -4.50375e-15 -4.33288e-17 0.256414 -2.55416e-15 -4.08832e-16)
(0 -1.27599e-29 -4.78497e-30 8.43187 1.05241e-14 2.966e-15 0.25262 -2.85215e-16 -9.40822e-17)
(5.9423e-15 1.27599e-29 4.78497e-30 8.43187 -5.4422e-15 -4.12746e-17 0.25262 -2.59112e-15 -3.94864e-16)
(-3.26651e-15 2.548e-29 8.86786e-30 8.15546 1.15706e-14 2.62306e-15 0.248918 -3.50777e-16 -8.49032e-17)
(-6.01447e-15 -1.87891e-29 -7.82881e-30 8.15546 -6.93764e-15 -1.59713e-18 0.248918 -2.65356e-15 -3.83247e-16)
(-1.93978e-15 -9.69665e-30 -4.11122e-30 7.88935 1.1292e-14 2.3384e-15 0.245311 -3.60927e-16 -7.63392e-17)
(3.46117e-15 6.14828e-30 3.07414e-30 7.88935 -6.5444e-15 3.82488e-17 0.245311 -2.73043e-15 -3.66035e-16)
(1.5389e-15 -9.5758e-30 -5.56172e-30 7.63319 1.02079e-14 2.01655e-15 0.241798 -3.46378e-16 -7.01025e-17)
(-6.1556e-15 6.03561e-30 0 7.63319 -6.10498e-15 -6.07053e-30 0.241798 -2.77676e-15 -3.48912e-16)
(-3.1123e-15 1.89248e-29 5.02987e-30 7.38667 9.09325e-15 1.61605e-15 0.238379 -3.04694e-16 -5.84836e-17)
(-3.33549e-15 -5.92501e-30 -1.48125e-30 7.38667 -5.05395e-15 4.98127e-17 0.238379 -2.84749e-15 -3.34648e-16)
(1.63718e-15 5.81644e-30 2.90822e-30 7.14945 8.78556e-15 1.30916e-15 0.235053 -2.86289e-16 -4.64646e-17)
(-1.63718e-15 -1.16329e-29 -5.81644e-30 7.14945 -4.524e-15 1.80508e-16 0.235053 -2.88495e-15 -3.19661e-16)
(1.58991e-15 7.89438e-30 3.96414e-31 6.92117 9.62564e-15 1.09851e-15 0.231819 -2.95609e-16 -4.01748e-17)
(-1.43265e-14 -5.70985e-30 -1.42746e-30 6.92117 -6.36495e-15 2.306e-16 0.231819 -2.93096e-15 -3.02797e-16)
(2.87045e-17 -9.11262e-30 -5.23403e-30 6.70153 9.36964e-15 7.77812e-16 0.228675 -3.54278e-16 -3.38725e-17)
(1.57773e-15 5.60522e-30 -3.93714e-32 6.70153 -5.95057e-15 -2.29263e-30 0.228675 -3.01054e-15 -2.83701e-16)
(0 -1.1005e-29 -6.87814e-30 6.49017 7.4386e-15 4.02478e-16 0.22562 -2.88992e-16 -1.94447e-17)
(6.4909e-15 1.1005e-29 6.87814e-30 6.49017 -4.08981e-15 -9.2811e-17 0.22562 -3.06773e-15 -2.63988e-16)
(4.67967e-15 -8.91145e-30 -2.38169e-30 6.28677 5.77189e-15 2.03461e-16 0.222653 -2.31189e-16 -8.62955e-18)
(6.55517e-15 5.40168e-30 2.70084e-30 6.28677 -3.78015e-15 9.48378e-17 0.222653 -3.10391e-15 -2.35018e-16)
(1.16844e-15 -1.41893e-29 -7.21921e-30 6.09103 3.88838e-15 2.64899e-16 0.219771 -1.79922e-16 -5.85333e-18)
(0 1.59081e-29 6.62837e-30 6.09103 -4.56088e-15 2.00686e-16 0.219771 -3.15898e-15 -2.03416e-16)
(-3.34056e-15 -8.5769e-30 -5.75283e-30 5.90263 4.22025e-15 3.22409e-16 0.216972 -1.01807e-16 -1.34592e-17)
(8.14635e-15 1.56166e-29 -4.80751e-32 5.90263 -4.38471e-15 -1.30039e-30 0.216972 -3.21304e-15 -1.73209e-16)
(1.68571e-15 -1.88303e-29 -9.96938e-30 5.72127 6.5194e-15 1.66549e-16 0.214254 -2.11488e-16 -1.0369e-17)
(1.34857e-14 1.53304e-29 8.94273e-30 5.72127 -4.33156e-15 1.23812e-17 0.214254 -3.24155e-15 -1.44839e-16)
(-1.70095e-15 3.48253e-30 -1.48164e-30 5.54667 6.8455e-15 4.0217e-17 0.211616 -2.80564e-16 -2.10848e-18)
(0 5.01649e-30 5.01649e-30 5.54667 -5.87516e-15 4.15366e-17 0.211616 -3.30014e-15 -1.15229e-16)
(-3.43197e-15 2.04107e-30 2.05041e-30 5.37853 6.46352e-15 -5.69622e-17 0.209054 -2.4473e-16 -5.48411e-18)
(6.86394e-15 4.92457e-30 0 5.37853 -5.73663e-15 2.64789e-17 0.209054 -3.36739e-15 -8.71654e-17)
(-1.73084e-15 3.47261e-30 -1.84467e-31 5.2166 7.48703e-15 -1.79773e-16 0.206568 -2.60979e-16 -8.87102e-18)
(6.92335e-15 4.83433e-30 2.41716e-30 5.2166 -6.00894e-15 1.14113e-16 0.206568 -3.4094e-15 -5.81213e-17)
(0 1.42372e-29 5.93217e-30 5.06062 8.02169e-15 -2.36142e-16 0.204153 -3.36263e-16 -1.03086e-17)
(-2.67161e-15 -4.74574e-30 -2.37287e-30 5.06062 -7.23309e-15 1.69089e-16 0.204153 -3.49532e-15 -2.88901e-17)
(1.76e-15 -1.27677e-29 -3.35133e-30 4.91033 7.8436e-15 -2.48467e-16 0.20181 -3.14613e-16 -1.02339e-17)
(7.03999e-15 9.31755e-30 2.32939e-30 4.91033 -7.0008e-15 -3.56327e-17 0.20181 -3.5999e-15 -9.75713e-19)
(1.77432e-15 -1.71603e-29 -6.73558e-30 4.7655 7.77295e-15 -4.35261e-16 0.199534 -3.34073e-16 -2.65763e-17)
(7.09727e-15 1.37202e-29 5.71675e-30 4.7655 -7.06883e-15 -1.94158e-16 0.199534 -3.66276e-15 2.08161e-17)
(-1.78847e-15 3.43462e-30 1.01867e-30 4.62589 7.71062e-15 -5.91035e-16 0.197325 -3.20462e-16 -2.41089e-17)
(7.15387e-15 4.4896e-30 2.2448e-30 4.62589 -7.83849e-15 -5.77975e-17 0.197325 -3.71606e-15 4.41281e-17)
(1.80246e-15 -1.22394e-29 -5.42505e-30 4.4913 8.05859e-15 -5.81256e-16 0.19518 -3.41264e-16 -2.67151e-17)
(0 8.81465e-30 4.40733e-30 4.4913 -7.78474e-15 8.47979e-17 0.19518 -3.81231e-15 6.75416e-17)
(-4.25193e-15 1.2067e-29 5.34476e-30 4.3615 7.70548e-15 -5.469e-16 0.193097 -3.63233e-16 -2.19301e-17)
(7.26516e-15 -4.32656e-30 -3.24492e-30 4.3615 -6.45949e-15 1.53299e-16 0.193097 -3.89553e-15 9.31688e-17)
(4.22098e-15 -1.19046e-29 -4.20412e-30 4.23629 8.0343e-15 -4.34078e-16 0.191074 -3.22394e-16 -1.73945e-17)
(-2.39101e-15 8.49456e-30 3.18546e-30 4.23629 -6.76611e-15 1.96196e-17 0.191074 -3.96612e-15 1.1654e-16)
(-1.8435e-15 1.17251e-29 5.18602e-30 4.1155 1.00364e-14 -5.1499e-16 0.189109 -4.0702e-16 -3.03011e-17)
(7.374e-15 -4.16945e-30 -3.12709e-30 4.1155 -8.04326e-15 -2.65247e-16 0.189109 -4.0883e-15 1.35202e-16)
(-4.47293e-16 7.39287e-31 3.07968e-30 3.99892 1.01467e-14 -8.56587e-16 0.187201 -5.21225e-16 -5.04968e-17)
(7.42755e-15 0 -2.04652e-30 3.99892 -6.27563e-15 -9.98954e-17 0.187201 -4.20098e-15 1.4973e-16)
(0 8.03609e-30 4.01804e-30 3.88639 6.1756e-15 -8.21076e-16 0.185347 -4.32835e-16 -2.80069e-17)
(7.48054e-15 -4.01804e-30 -2.00902e-30 3.88639 -4.01081e-15 3.51659e-16 0.185347 -4.26042e-15 1.70128e-16)
(2.22051e-15 7.88883e-30 2.73927e-31 3.77774 3.77591e-15 -1.8619e-16 0.183546 -1.56629e-16 -4.54552e-18)
(-9.75349e-15 -7.88883e-30 0 3.77774 -3.57969e-15 4.10383e-16 0.183546 -4.34861e-15 1.91195e-16)
(2.17982e-15 1.54885e-29 6.71079e-30 3.6728 5.7314e-15 -5.35055e-17 0.181795 -2.1262e-16 -1.33063e-18)
(5.40508e-15 -1.54885e-29 -6.77623e-30 3.6728 -3.59213e-15 1.86719e-16 0.181795 -4.39495e-15 2.08347e-16)
(-1.90908e-15 -1.94683e-29 -8.48897e-30 3.57144 6.49068e-15 -8.72412e-17 0.180094 -3.58872e-16 -7.56748e-18)
(0 2.28071e-29 1.04532e-29 3.57144 -4.45145e-15 -2.44164e-17 0.180094 -4.40797e-15 2.20483e-16)
(-1.9218e-15 3.33749e-30 1.01166e-30 3.47349 6.10407e-15 -1.44389e-16 0.178441 -2.9829e-16 -7.33486e-18)
(7.68721e-15 3.73152e-30 2.79864e-30 3.47349 -4.4987e-15 7.28569e-17 0.178441 -4.49201e-15 2.30321e-16)
(0 -3.66314e-30 -3.66314e-30 3.37883 6.56514e-15 -1.34851e-16 0.176834 -3.32115e-16 -6.84044e-18)
(2.06217e-15 3.66314e-30 5.49472e-30 3.37883 -5.07727e-15 3.62209e-16 0.176834 -4.53057e-15 2.44647e-16)
(0 7.19204e-30 7.00649e-46 3.28731 7.95466e-15 -2.01657e-30 0.175271 -3.58465e-16 -1.57772e-30)
(0 -3.59602e-30 0 3.28731 -6.21927e-15 2.51177e-16 0.175271 -4.5899e-15 2.64307e-16)
(3.94655e-15 -2.09286e-29 -9.82862e-30 3.19882 6.38075e-15 1.73276e-16 0.173751 -4.94856e-16 -1.31042e-17)
(7.83707e-15 1.76506e-29 8.82531e-30 3.19882 -5.47873e-15 1.98272e-17 0.173751 -4.69119e-15 2.74914e-16)
(-1.9302e-15 1.05433e-29 2.4652e-30 3.11323 6.51094e-15 -4.36694e-18 0.172273 -1.98634e-16 -6.33146e-18)
(5.93525e-15 -3.46543e-30 0 3.11323 -4.9199e-15 -2.93679e-17 0.172273 -4.77682e-15 2.82863e-16)
(0 0 0 3.03043 8.28995e-15 -8.49799e-17 0.170836 -5.2811e-16 -3.26207e-18)
(7.93473e-15 3.40193e-30 1.70097e-30 3.03043 -5.56973e-15 -1.52094e-16 0.170836 -4.83118e-15 2.89746e-16)
(-3.99146e-15 6.52256e-30 1.99064e-30 2.9503 6.45015e-15 -1.14976e-16 0.169437 -4.09428e-16 -1.00621e-17)
(7.98292e-15 0 0 2.9503 -6.00134e-15 -2.40007e-16 0.169437 -4.88843e-15 2.93534e-16)
(2.00768e-15 -1.63744e-29 -9.18889e-30 2.87275 7.13783e-15 -2.05477e-16 0.168076 -3.33829e-16 -1.41173e-17)
(8.0307e-15 1.31136e-29 8.19599e-30 2.87275 -7.1679e-15 -1.10503e-16 0.168076 -4.98029e-15 2.95241e-16)
(-1.81175e-15 1.28733e-29 6.43664e-30 2.79766 8.61911e-15 -1.95861e-16 0.166751 -5.06407e-16 -9.27962e-18)
(-6.26634e-15 -1.28733e-29 -6.43664e-30 2.79766 -7.79886e-15 2.83725e-16 0.166751 -5.11887e-15 2.99885e-16)
(0 0 0 2.72495 7.89742e-15 3.24419e-29 0.165462 -5.2535e-16 0)
(0 0 0 2.72495 -5.41204e-15 2.0846e-16 0.165462 -5.22402e-15 3.1198e-16)
(-5.93931e-16 1.88047e-29 1.12713e-29 2.65453 7.57827e-15 1.49639e-16 0.164207 -4.36681e-16 -1.73897e-17)
(-3.49192e-15 -1.24058e-29 -9.30435e-30 2.65453 -4.29581e-15 -6.36501e-17 0.164207 -5.26332e-15 3.11337e-16)
(-3.40524e-16 1.23056e-29 3.29786e-30 2.5863 8.3764e-15 3.29979e-17 0.162985 -5.05138e-16 -1.04367e-18)
(-1.71397e-15 0 -1.52231e-30 2.5863 -5.36947e-15 2.33956e-16 0.162985 -5.29572e-15 3.12621e-16)
(-3.36512e-15 1.49441e-29 1.04343e-29 2.52019 7.69785e-15 4.2699e-16 0.161795 -5.55053e-16 -1.37571e-17)
(-8.26386e-15 -1.19553e-29 -8.96648e-30 2.52019 -5.45599e-15 4.36995e-16 0.161795 -5.40615e-15 3.2053e-16)
(7.45816e-15 -3.37125e-30 9.93555e-31 2.45611 5.78287e-15 7.64196e-16 0.160635 -4.35909e-16 -4.19298e-17)
(-3.30345e-15 0 -2.93406e-30 2.45611 -3.07697e-15 2.67753e-16 0.160635 -5.50587e-15 3.25905e-16)
(4.17731e-15 5.21107e-30 5.27334e-30 2.39399 4.14827e-15 1.18907e-15 0.159506 -3.22222e-16 -5.85483e-17)
(8.35462e-15 -1.15212e-29 -8.64087e-30 2.39399 -1.14671e-15 2.07381e-17 0.159506 -5.52296e-15 3.26234e-16)
(-2.09988e-15 3.15649e-30 9.51777e-31 2.33375 3.85531e-15 1.4357e-15 0.158405 -2.31697e-16 -1.00859e-16)
(8.39951e-15 0 1.41376e-30 2.33375 -3.00328e-15 1.0441e-16 0.158405 -5.54359e-15 3.15251e-16)
(1.09688e-15 -7.17759e-31 2.27232e-30 2.27532 4.80887e-15 1.71087e-15 0.157333 -2.94081e-16 -9.46663e-17)
(0 0 -4.16355e-30 2.27532 -4.82236e-15 2.34553e-16 0.157333 -5.63459e-15 3.10142e-16)
(5.18997e-15 -8.56397e-30 -2.29239e-30 2.21864 4.8214e-15 2.10295e-15 0.156288 -3.73989e-16 -1.43202e-16)
(8.48832e-15 5.44967e-30 1.36242e-30 2.21864 -5.57041e-15 1.06593e-16 0.156288 -5.72249e-15 3.0019e-16)
(-2.13307e-15 1.38152e-29 4.9341e-30 2.16365 4.49552e-15 2.35391e-15 0.155269 -3.0695e-16 -1.54175e-16)
(0 -5.3498e-30 -1.33745e-30 2.16365 -4.81535e-15 1.20595e-16 0.155269 -5.82733e-15 2.95796e-16)
(0 -1.05035e-29 0 2.11028 4.98499e-15 2.72489e-15 0.154275 -3.40718e-16 -1.85074e-16)
(1.71518e-14 1.05035e-29 2.62588e-30 2.11028 -4.05311e-15 -6.73661e-18 0.154275 -5.86359e-15 2.92979e-16)
(-2.15482e-15 -1.23872e-29 -5.54883e-30 2.05847 5.97127e-15 2.8817e-15 0.153306 -3.90986e-16 -2.1491e-16)
(0 1.54666e-29 7.7333e-30 2.05847 -4.39798e-15 7.59446e-18 0.153306 -5.97218e-15 2.84676e-16)
(0 -1.01221e-29 -6.32632e-30 2.00817 7.26847e-15 2.96409e-15 0.152361 -5.02308e-16 -2.15698e-16)
(1.73247e-14 1.01221e-29 7.59159e-30 2.00817 -4.30434e-15 -9.32659e-18 0.152361 -6.12944e-15 2.79384e-16)
(-4.9732e-15 1.29585e-29 7.08162e-30 1.95933 6.49355e-15 3.02629e-15 0.151438 -6.05015e-16 -2.35667e-16)
(2.79691e-15 -9.93663e-30 -6.2104e-30 1.95933 -5.74537e-15 8.44521e-17 0.151438 -6.20609e-15 2.58079e-16)
(0 -9.75455e-30 -3.65796e-30 1.91189 5.2901e-15 3.26582e-15 0.150538 -3.99958e-16 -2.33561e-16)
(8.74767e-15 9.75455e-30 3.65796e-30 1.91189 -4.2856e-15 3.85638e-17 0.150538 -6.31536e-15 2.52511e-16)
(2.19749e-15 -1.73865e-29 -8.02259e-30 1.8658 6.32528e-15 3.54391e-15 0.14966 -4.35954e-16 -2.82734e-16)
(1.75799e-14 1.43637e-29 7.18185e-30 1.8658 -3.17595e-15 -4.55533e-16 0.14966 -6.37169e-15 2.0301e-16)
(-2.20799e-15 -1.71513e-30 2.00467e-30 1.82102 7.34858e-15 3.55764e-15 0.148803 -5.83144e-16 -2.87524e-16)
(8.83196e-15 9.40033e-30 1.17504e-30 1.82102 -5.34796e-15 -2.24638e-16 0.148803 -6.48044e-15 1.38132e-16)
(-3.79039e-16 6.26521e-30 3.79839e-30 1.7775 7.7601e-15 3.80757e-15 0.147965 -6.21668e-16 -2.95659e-16)
(8.87373e-15 0 -1.15351e-30 1.7775 -5.11696e-15 3.6076e-16 0.147965 -6.58455e-15 1.00811e-16)
(-4.45762e-15 1.0389e-29 4.98605e-30 1.73519 7.7324e-15 4.05861e-15 0.147148 -6.74467e-16 -3.40479e-16)
(6.36538e-15 0 -1.13237e-30 1.73519 -3.37006e-15 4.58335e-16 0.147148 -6.67223e-15 1.13896e-16)
(-5.00629e-15 -4.44648e-30 -4.44648e-30 1.69407 7.65503e-15 3.93061e-15 0.146349 -6.40339e-16 -3.49895e-16)
(1.79131e-14 8.89296e-30 5.57332e-30 1.69407 -3.03289e-15 7.934e-16 0.146349 -6.78371e-15 1.09827e-16)
(0 8.73e-30 3.27375e-30 1.65408 7.39307e-15 3.45187e-15 0.145569 -6.86353e-16 -3.30924e-16)
(6.54031e-15 -4.365e-30 1.09476e-47 1.65408 -4.47162e-15 -4.93038e-32 0.145569 -6.88149e-15 8.06692e-48)
(-2.2596e-15 2.89335e-30 2.90247e-30 1.61518 6.92122e-15 3.47638e-15 0.144806 -6.17804e-16 -2.77799e-16)
(-2.41225e-15 0 -1.07125e-30 1.61518 -5.21833e-15 -5.29808e-16 0.144806 -6.94506e-15 5.14024e-17)
(2.26975e-15 1.3309e-30 3.46826e-30 1.57735 7.30271e-15 3.81362e-15 0.144061 -6.26595e-16 -3.47842e-16)
(0 -8.41298e-30 -5.25812e-30 1.57735 -3.82495e-15 -5.68595e-16 0.144061 -7.06849e-15 4.37774e-17)
(0 4.12941e-30 2.0647e-30 1.54054 8.16695e-15 4.02511e-15 0.143332 -7.11601e-16 -3.50605e-16)
(-2.32465e-15 0 0 1.54054 -2.56867e-15 -7.75679e-16 0.143332 -7.17614e-15 9.86511e-17)
(-2.2899e-15 1.09021e-29 8.8048e-30 1.50473 8.49508e-15 4.26703e-15 0.14262 -8.12941e-16 -4.00773e-16)
(0 -4.05374e-30 -8.10748e-30 1.50473 -3.97497e-15 -1.57713e-15 0.14262 -7.29374e-15 7.47404e-17)
(-2.29989e-15 6.75197e-30 3.66311e-30 1.46987 7.25397e-15 4.56528e-15 0.141922 -8.01355e-16 -4.1022e-16)
(-9.19956e-15 0 -9.94864e-31 1.46987 -4.06813e-15 -3.6737e-15 0.141922 -7.53425e-15 1.23202e-17)
(-2.30983e-15 -5.01984e-30 -3.25548e-30 1.43594 6.52645e-15 4.78236e-15 0.14124 -6.01068e-16 -4.74151e-16)
(1.84787e-14 7.81307e-30 5.8598e-30 1.43594 -2.86498e-15 -5.28808e-15 0.14124 -7.61721e-15 -8.60508e-17)
(0 -1.15048e-29 -6.71116e-30 1.40291 7.8351e-15 4.42013e-15 0.140573 -6.86745e-16 -4.68886e-16)
(9.2789e-15 1.15048e-29 6.71116e-30 1.40291 -4.26253e-15 -5.04931e-15 0.140573 -7.68557e-15 -2.05051e-16)
(-4.44889e-15 1.39971e-29 3.44443e-30 1.37075 9.07973e-15 4.15719e-15 0.139919 -8.89057e-16 -4.18573e-16)