/*--------------------------------*- C++ -*----------------------------------*\
| =========                 |                                                 |
| \\      /  F ield         | OpenFOAM: The Open Source CFD Toolbox           |
|  \\    /   O peration     | Version:  2106                                  |
|   \\  /    A nd           | Website:  www.openfoam.com                      |
|    \\/     M anipulation  |                                                 |
\*---------------------------------------------------------------------------*/
FoamFile
{
    version     2.0;
    format      ascii;
    arch        "LSB;label=32;scalar=64";
    class       volScalarField;
    location    "10090";
    object      p;
}
// * * * * * * * * * * * * * * * * * * * * * * * * * * * * * * * * * * * * * //

dimensions      [0 2 -2 0 0 0 0];

internalField   nonuniform List<scalar> 
2000
(
3.01577e-15
3.35998e-14
6.41526e-15
3.36003e-14
7.23782e-15
3.36012e-14
7.43013e-15
3.36028e-14
7.74978e-15
3.36052e-14
8.14513e-15
3.36084e-14
8.54273e-15
3.36123e-14
8.92836e-15
3.36169e-14
9.3042e-15
3.36222e-14
9.67164e-15
3.36283e-14
1.00309e-14
3.3635e-14
1.03821e-14
3.36424e-14
1.07254e-14
3.36506e-14
1.10609e-14
3.36593e-14
1.13886e-14
3.36688e-14
1.17086e-14
3.36789e-14
1.20215e-14
3.36896e-14
1.23271e-14
3.37008e-14
1.26257e-14
3.37127e-14
1.29172e-14
3.37252e-14
1.32018e-14
3.37383e-14
1.34796e-14
3.3752e-14
1.37508e-14
3.37663e-14
1.40156e-14
3.37811e-14
1.42738e-14
3.37967e-14
1.45257e-14
3.38129e-14
1.47716e-14
3.38297e-14
1.50117e-14
3.3847e-14
1.52459e-14
3.38649e-14
1.54745e-14
3.38832e-14
1.56973e-14
3.39022e-14
1.5915e-14
3.39216e-14
1.61274e-14
3.39414e-14
1.63347e-14
3.39618e-14
1.65371e-14
3.39828e-14
1.67349e-14
3.40043e-14
1.69281e-14
3.4026e-14
1.7117e-14
3.40483e-14
1.7302e-14
3.4071e-14
1.74831e-14
3.40941e-14
1.76603e-14
3.41181e-14
1.78336e-14
3.41429e-14
1.8004e-14
3.41682e-14
1.81715e-14
3.41939e-14
1.83359e-14
3.422e-14
1.84974e-14
3.42469e-14
1.86565e-14
3.42743e-14
1.88136e-14
3.43024e-14
1.89685e-14
3.43317e-14
1.91215e-14
3.43619e-14
1.92729e-14
3.43923e-14
1.94236e-14
3.44233e-14
1.95723e-14
3.4455e-14
1.97204e-14
3.44873e-14
1.98675e-14
3.45205e-14
2.00127e-14
3.45542e-14
2.01571e-14
3.45891e-14
2.03009e-14
3.46258e-14
2.04437e-14
3.46636e-14
2.05863e-14
3.47019e-14
2.07289e-14
3.47409e-14
2.08705e-14
3.47806e-14
2.10118e-14
3.48224e-14
2.11526e-14
3.48662e-14
2.12943e-14
3.49108e-14
2.14346e-14
3.4957e-14
2.15749e-14
3.50049e-14
2.17149e-14
3.50536e-14
2.1854e-14
3.51037e-14
2.19938e-14
3.5155e-14
2.2133e-14
3.52074e-14
2.22726e-14
3.52611e-14
2.24124e-14
3.53162e-14
2.25524e-14
3.53705e-14
2.26948e-14
3.54228e-14
2.28364e-14
3.54767e-14
2.29782e-14
3.55319e-14
2.31215e-14
3.55876e-14
2.32615e-14
3.56448e-14
2.3402e-14
3.57029e-14
2.35426e-14
3.57626e-14
2.36812e-14
3.58241e-14
2.38202e-14
3.58862e-14
2.39595e-14
3.59477e-14
2.40973e-14
3.60094e-14
2.42349e-14
3.60748e-14
2.4374e-14
3.614e-14
2.45159e-14
3.6203e-14
2.46597e-14
3.62668e-14
2.48044e-14
3.63321e-14
2.49498e-14
3.63963e-14
2.50963e-14
3.64617e-14
2.52438e-14
3.65269e-14
2.53903e-14
3.65908e-14
2.55402e-14
3.66548e-14
2.56901e-14
3.67224e-14
2.58414e-14
3.67905e-14
2.59951e-14
3.68579e-14
2.61496e-14
3.69248e-14
2.63075e-14
3.69896e-14
2.64639e-14
3.70575e-14
2.66182e-14
3.71304e-14
2.67767e-14
3.71987e-14
2.69407e-14
3.72625e-14
2.71049e-14
3.73254e-14
2.72706e-14
3.73892e-14
2.74356e-14
3.7456e-14
2.76031e-14
3.75191e-14
2.77673e-14
3.75804e-14
2.79454e-14
3.76438e-14
2.81141e-14
3.77077e-14
2.82853e-14
3.77723e-14
2.84586e-14
3.78398e-14
2.86371e-14
3.79106e-14
2.8815e-14
3.79794e-14
2.89935e-14
3.80429e-14
2.9174e-14
3.81106e-14
2.93561e-14
3.81753e-14
2.95336e-14
3.82337e-14
2.97228e-14
3.82897e-14
2.99121e-14
3.83435e-14
3.01084e-14
3.83992e-14
3.03076e-14
3.84493e-14
3.0513e-14
3.85018e-14
3.07205e-14
3.85531e-14
3.09295e-14
3.86032e-14
3.11397e-14
3.86564e-14
3.13507e-14
3.87049e-14
3.15541e-14
3.87569e-14
3.17691e-14
3.88006e-14
3.19875e-14
3.88519e-14
3.22089e-14
3.8907e-14
3.2425e-14
3.89582e-14
3.26473e-14
3.90055e-14
3.28636e-14
3.90649e-14
3.30854e-14
3.91325e-14
3.33084e-14
3.91925e-14
3.35361e-14
3.92569e-14
3.37644e-14
3.93178e-14
3.39848e-14
3.93751e-14
3.42051e-14
3.94206e-14
3.44292e-14
3.94746e-14
3.46529e-14
3.95409e-14
3.48716e-14
3.96032e-14
3.50852e-14
3.96654e-14
3.53016e-14
3.97356e-14
3.55165e-14
3.98097e-14
3.57339e-14
3.98834e-14
3.59492e-14
3.99565e-14
3.61748e-14
4.00287e-14
3.63774e-14
4.00999e-14
3.659e-14
4.01697e-14
3.67958e-14
4.0238e-14
3.70196e-14
4.03128e-14
3.72367e-14
4.03853e-14
3.74386e-14
4.04717e-14
3.76421e-14
4.05634e-14
3.7847e-14
4.06605e-14
3.80447e-14
4.07374e-14
3.82521e-14
4.08106e-14
3.84694e-14
4.09044e-14
3.86884e-14
4.0993e-14
3.88843e-14
4.10841e-14
3.90824e-14
4.11771e-14
3.92829e-14
4.12798e-14
3.94691e-14
4.13665e-14
3.96578e-14
4.14449e-14
3.98578e-14
4.15391e-14
4.00609e-14
4.16481e-14
4.02592e-14
4.17627e-14
4.04447e-14
4.18656e-14
4.06343e-14
4.19726e-14
4.08116e-14
4.20664e-14
4.10103e-14
4.21794e-14
4.11892e-14
4.23103e-14
4.1365e-14
4.24169e-14
4.15212e-14
4.25147e-14
4.16827e-14
4.26113e-14
4.18498e-14
4.27221e-14
4.20223e-14
4.28292e-14
4.21925e-14
4.29392e-14
4.23278e-14
4.30007e-14
4.24455e-14
4.30616e-14
4.25789e-14
4.31371e-14
4.2712e-14
4.321e-14
4.28295e-14
4.33119e-14
4.29155e-14
4.3459e-14
4.30326e-14
4.35389e-14
4.31486e-14
4.35839e-14
4.32812e-14
4.36081e-14
4.34006e-14
4.36565e-14
4.35086e-14
4.37271e-14
4.36065e-14
4.38183e-14
4.37102e-14
4.3898e-14
4.38041e-14
4.39333e-14
4.39062e-14
4.40339e-14
4.39845e-14
4.41672e-14
4.40365e-14
4.424e-14
4.41236e-14
4.43328e-14
4.42134e-14
4.43829e-14
4.43071e-14
4.43882e-14
4.43926e-14
4.44695e-14
4.44699e-14
4.45321e-14
4.45554e-14
4.4574e-14
4.46194e-14
4.46075e-14
4.4678e-14
4.47081e-14
4.47744e-14
4.47071e-14
4.48374e-14
4.47355e-14
4.4898e-14
4.48359e-14
4.49538e-14
4.49346e-14
4.50158e-14
4.49874e-14
4.5069e-14
4.5024e-14
4.5052e-14
4.50884e-14
4.51227e-14
4.51261e-14
4.51613e-14
4.5164e-14
4.5167e-14
4.52001e-14
4.52515e-14
4.52947e-14
4.52957e-14
4.53925e-14
4.53278e-14
4.54409e-14
4.53757e-14
4.54705e-14
4.54952e-14
4.55088e-14
4.54963e-14
4.55762e-14
4.55133e-14
4.55927e-14
4.56282e-14
4.56431e-14
4.57373e-14
4.57202e-14
4.57652e-14
4.5739e-14
4.57672e-14
4.57554e-14
4.57656e-14
4.57967e-14
4.57804e-14
4.58127e-14
4.58616e-14
4.58063e-14
4.58877e-14
4.5823e-14
4.59144e-14
4.58596e-14
4.58633e-14
4.58873e-14
4.58029e-14
4.58899e-14
4.58244e-14
4.59314e-14
4.57216e-14
4.60199e-14
4.57155e-14
4.60351e-14
4.57483e-14
4.60344e-14
4.57304e-14
4.6048e-14
4.57034e-14
4.6061e-14
4.57242e-14
4.59836e-14
4.57839e-14
4.58949e-14
4.58924e-14
4.58424e-14
4.58728e-14
4.58383e-14
4.58907e-14
4.58129e-14
4.58841e-14
4.57801e-14
4.58113e-14
4.57837e-14
4.57684e-14
4.58158e-14
4.57854e-14
4.58039e-14
4.57356e-14
4.5742e-14
3.16431e-14
3.33189e-14
3.16434e-14
3.3319e-14
3.16439e-14
3.33191e-14
3.16449e-14
3.33194e-14
3.16462e-14
3.33199e-14
3.1648e-14
3.33205e-14
3.16502e-14
3.33212e-14
3.16528e-14
3.3322e-14
3.16558e-14
3.3323e-14
3.16592e-14
3.33242e-14
3.16631e-14
3.33255e-14
3.16673e-14
3.33269e-14
3.1672e-14
3.33285e-14
3.1677e-14
3.33303e-14
3.16825e-14
3.33322e-14
3.16885e-14
3.33342e-14
3.16948e-14
3.33363e-14
3.17016e-14
3.33385e-14
3.17088e-14
3.3341e-14
3.17164e-14
3.33437e-14
3.17244e-14
3.33465e-14
3.17329e-14
3.33495e-14
3.17417e-14
3.33527e-14
3.17507e-14
3.33562e-14
3.17603e-14
3.33597e-14
3.17702e-14
3.33635e-14
3.17805e-14
3.33676e-14
3.17911e-14
3.33716e-14
3.18022e-14
3.33758e-14
3.18137e-14
3.33803e-14
3.18257e-14
3.33851e-14
3.1838e-14
3.33902e-14
3.18508e-14
3.33953e-14
3.1864e-14
3.34008e-14
3.18777e-14
3.34064e-14
3.18918e-14
3.34122e-14
3.19066e-14
3.34182e-14
3.19216e-14
3.34248e-14
3.19372e-14
3.34316e-14
3.19532e-14
3.34385e-14
3.19698e-14
3.34456e-14
3.19868e-14
3.34535e-14
3.20043e-14
3.34616e-14
3.20223e-14
3.34701e-14
3.2041e-14
3.34791e-14
3.20602e-14
3.34886e-14
3.20805e-14
3.34985e-14
3.21012e-14
3.35086e-14
3.21225e-14
3.35199e-14
3.21446e-14
3.3532e-14
3.21671e-14
3.35441e-14
3.21904e-14
3.35568e-14
3.22145e-14
3.35707e-14
3.22397e-14
3.35849e-14
3.2266e-14
3.36002e-14
3.22933e-14
3.36165e-14
3.23216e-14
3.36339e-14
3.23508e-14
3.36521e-14
3.23813e-14
3.36706e-14
3.24131e-14
3.36901e-14
3.24459e-14
3.37102e-14
3.24793e-14
3.37322e-14
3.25139e-14
3.37552e-14
3.25504e-14
3.37795e-14
3.25887e-14
3.38043e-14
3.26281e-14
3.38302e-14
3.2668e-14
3.38583e-14
3.271e-14
3.38869e-14
3.27534e-14
3.39151e-14
3.27984e-14
3.39461e-14
3.28439e-14
3.39805e-14
3.28911e-14
3.40168e-14
3.29394e-14
3.40538e-14
3.29889e-14
3.40916e-14
3.30414e-14
3.41301e-14
3.30958e-14
3.41681e-14
3.31516e-14
3.42112e-14
3.32069e-14
3.42582e-14
3.32662e-14
3.43009e-14
3.3327e-14
3.43451e-14
3.33887e-14
3.43946e-14
3.34521e-14
3.44476e-14
3.35164e-14
3.45008e-14
3.35831e-14
3.45521e-14
3.36523e-14
3.4605e-14
3.37241e-14
3.46628e-14
3.37971e-14
3.47257e-14
3.38707e-14
3.47867e-14
3.39449e-14
3.48492e-14
3.40212e-14
3.49134e-14
3.41011e-14
3.49792e-14
3.41819e-14
3.50444e-14
3.42605e-14
3.51149e-14
3.4346e-14
3.51863e-14
3.44309e-14
3.52586e-14
3.45185e-14
3.53348e-14
3.46086e-14
3.54135e-14
3.47e-14
3.549e-14
3.47943e-14
3.55673e-14
3.48882e-14
3.56438e-14
3.4982e-14
3.57244e-14
3.5079e-14
3.5814e-14
3.51758e-14
3.59045e-14
3.52744e-14
3.59925e-14
3.53697e-14
3.6083e-14
3.54668e-14
3.61779e-14
3.55641e-14
3.62719e-14
3.56599e-14
3.63634e-14
3.57561e-14
3.64575e-14
3.58509e-14
3.65612e-14
3.59568e-14
3.66607e-14
3.60561e-14
3.67577e-14
3.61597e-14
3.68557e-14
3.62605e-14
3.69582e-14
3.6364e-14
3.70637e-14
3.64702e-14
3.71667e-14
3.65738e-14
3.72726e-14
3.66803e-14
3.7376e-14
3.67919e-14
3.74733e-14
3.68992e-14
3.75718e-14
3.701e-14
3.76753e-14
3.71167e-14
3.77839e-14
3.72233e-14
3.7894e-14
3.73336e-14
3.79903e-14
3.74402e-14
3.80882e-14
3.7543e-14
3.818e-14
3.765e-14
3.82812e-14
3.77611e-14
3.83918e-14
3.78727e-14
3.85044e-14
3.79809e-14
3.86033e-14
3.80937e-14
3.86965e-14
3.82073e-14
3.88037e-14
3.83219e-14
3.89132e-14
3.84294e-14
3.90212e-14
3.8538e-14
3.91319e-14
3.86558e-14
3.92333e-14
3.87748e-14
3.93296e-14
3.88872e-14
3.94329e-14
3.89891e-14
3.95392e-14
3.90965e-14
3.96407e-14
3.92096e-14
3.97416e-14
3.93285e-14
3.98625e-14
3.94574e-14
3.99791e-14
3.95636e-14
4.00877e-14
3.96719e-14
4.01924e-14
3.97821e-14
4.02977e-14
3.98861e-14
4.0412e-14
4.00088e-14
4.05316e-14
4.01252e-14
4.06525e-14
4.02438e-14
4.07628e-14
4.03645e-14
4.08544e-14
4.0496e-14
4.09356e-14
4.06221e-14
4.10313e-14
4.07264e-14
4.11415e-14
4.08338e-14
4.125e-14
4.09359e-14
4.13321e-14
4.10495e-14
4.1413e-14
4.11666e-14
4.15175e-14
4.12874e-14
4.16209e-14
4.14036e-14
4.17233e-14
4.15238e-14
4.18502e-14
4.16312e-14
4.19769e-14
4.17505e-14
4.20789e-14
4.18567e-14
4.21731e-14
4.19835e-14
4.22935e-14
4.21143e-14
4.24066e-14
4.22408e-14
4.25382e-14
4.23631e-14
4.26552e-14
4.24814e-14
4.27583e-14
4.25955e-14
4.2881e-14
4.27137e-14
4.29906e-14
4.28362e-14
4.30873e-14
4.29715e-14
4.32047e-14
4.30867e-14
4.33347e-14
4.31981e-14
4.34866e-14
4.33383e-14
4.36032e-14
4.34661e-14
4.37182e-14
4.35903e-14
4.38487e-14
4.37194e-14
4.39792e-14
4.3845e-14
4.41437e-14
4.39498e-14
4.42944e-14
4.40492e-14
4.44003e-14
4.41432e-14
4.44466e-14
4.4233e-14
4.4466e-14
4.42874e-14
4.45069e-14
4.43063e-14
4.45855e-14
4.44026e-14
4.46382e-14
4.44467e-14
4.46964e-14
4.45197e-14
4.4761e-14
4.45889e-14
4.48166e-14
4.46543e-14
4.48317e-14
4.4701e-14
4.48865e-14
4.47607e-14
4.49172e-14
4.48181e-14
4.49712e-14
4.4873e-14
4.50167e-14
4.49096e-14
4.51026e-14
4.49736e-14
4.51672e-14
4.50489e-14
4.52265e-14
4.50895e-14
4.52646e-14
4.51426e-14
4.53292e-14
4.52076e-14
4.53746e-14
4.52535e-14
4.54178e-14
4.52958e-14
4.55062e-14
4.53634e-14
4.55652e-14
4.54408e-14
4.5581e-14
4.55009e-14
4.56601e-14
4.55434e-14
4.57268e-14
4.56431e-14
4.57396e-14
4.56835e-14
4.57716e-14
4.57572e-14
4.58674e-14
4.58033e-14
4.58924e-14
4.5899e-14
4.58919e-14
4.59024e-14
4.592e-14
4.59939e-14
4.59482e-14
4.60304e-14
4.60027e-14
4.61014e-14
4.6027e-14
4.61552e-14
4.60186e-14
4.60804e-14
4.60577e-14
4.60699e-14
4.60933e-14
4.61476e-14
4.61013e-14
4.61485e-14
4.61334e-14
4.61814e-14
4.6193e-14
4.62177e-14
4.6198e-14
4.62347e-14
4.62315e-14
4.62273e-14
4.62389e-14
4.62733e-14
4.62197e-14
4.63257e-14
4.62494e-14
4.63366e-14
4.62713e-14
4.63899e-14
4.62318e-14
4.63922e-14
4.61718e-14
4.64039e-14
4.61882e-14
4.63723e-14
4.62537e-14
4.63099e-14
4.62765e-14
4.62854e-14
4.62434e-14
4.61989e-14
4.62046e-14
4.61676e-14
4.62405e-14
4.61351e-14
4.62543e-14
4.60413e-14
4.61528e-14
4.60306e-14
4.61329e-14
4.60792e-14
4.61394e-14
4.60764e-14
4.61145e-14
4.60508e-14
4.60105e-14
4.60359e-14
4.59849e-14
4.60471e-14
4.59637e-14
4.60467e-14
4.59381e-14
4.60402e-14
4.5878e-14
4.60179e-14
4.58881e-14
4.59568e-14
4.58791e-14
4.58917e-14
4.58584e-14
4.58019e-14
4.57884e-14
4.57228e-14
4.57233e-14
4.58397e-14
4.57462e-14
4.5793e-14
4.5745e-14
4.57112e-14
4.56842e-14
4.5629e-14
4.56652e-14
4.56109e-14
4.56571e-14
4.55558e-14
4.56619e-14
4.55451e-14
4.55957e-14
4.55029e-14
4.55202e-14
4.54349e-14
4.54507e-14
4.53887e-14
4.54077e-14
4.53389e-14
4.53672e-14
4.53515e-14
4.53563e-14
4.53364e-14
4.53725e-14
4.52893e-14
4.5296e-14
4.52655e-14
4.5245e-14
4.52704e-14
4.52665e-14
4.52515e-14
4.52873e-14
4.52286e-14
4.51838e-14
4.52125e-14
4.51285e-14
4.5186e-14
4.50909e-14
4.51501e-14
4.50674e-14
4.51281e-14
4.50311e-14
4.50673e-14
4.50056e-14
4.5045e-14
4.49949e-14
4.49991e-14
4.49751e-14
4.49244e-14
4.49788e-14
4.48396e-14
4.4961e-14
4.47937e-14
4.49012e-14
4.47903e-14
4.48256e-14
4.47527e-14
4.48388e-14
4.47299e-14
4.48025e-14
4.46973e-14
4.47719e-14
4.45973e-14
4.47475e-14
4.45661e-14
4.4736e-14
4.45756e-14
4.46795e-14
4.45443e-14
4.46598e-14
4.45006e-14
4.45867e-14
4.44776e-14
4.45776e-14
4.44452e-14
4.46043e-14
4.44152e-14
4.45204e-14
4.44071e-14
4.4473e-14
4.44095e-14
4.44758e-14
4.4377e-14
4.44518e-14
4.43394e-14
4.44473e-14
4.43259e-14
4.4388e-14
4.43248e-14
4.43631e-14
4.42761e-14
4.43385e-14
4.4256e-14
4.43e-14
4.42498e-14
4.42781e-14
4.42263e-14
4.42554e-14
4.42009e-14
4.42485e-14
4.41735e-14
4.42265e-14
4.41603e-14
4.41742e-14
4.41162e-14
4.41217e-14
4.40883e-14
4.41321e-14
4.40587e-14
4.41916e-14
4.40405e-14
4.41753e-14
4.40173e-14
4.41152e-14
4.40064e-14
4.40418e-14
4.39777e-14
4.40172e-14
4.39631e-14
4.40254e-14
4.3946e-14
4.40181e-14
4.39428e-14
4.39792e-14
4.39215e-14
4.394e-14
4.3883e-14
4.39162e-14
4.38598e-14
4.3908e-14
4.38517e-14
4.38828e-14
4.3843e-14
4.38566e-14
4.38346e-14
4.38123e-14
4.3794e-14
4.37656e-14
4.37542e-14
4.37497e-14
4.37561e-14
4.37657e-14
4.37497e-14
4.3764e-14
4.37348e-14
4.37364e-14
4.37281e-14
4.37241e-14
4.37131e-14
4.37357e-14
4.3706e-14
4.37217e-14
4.36986e-14
4.36735e-14
4.36833e-14
4.36741e-14
4.36513e-14
4.369e-14
4.36521e-14
4.3697e-14
4.36355e-14
4.36783e-14
4.36182e-14
4.36593e-14
4.36003e-14
4.36401e-14
4.35987e-14
4.36292e-14
4.35968e-14
4.36264e-14
4.35862e-14
4.36233e-14
4.3567e-14
4.36116e-14
4.35559e-14
4.36082e-14
4.3536e-14
4.36131e-14
4.35155e-14
4.36184e-14
4.35025e-14
4.36076e-14
4.3497e-14
4.35891e-14
4.34824e-14
4.35795e-14
4.3467e-14
4.35873e-14
4.34508e-14
4.35792e-14
4.3442e-14
4.35721e-14
4.34323e-14
4.35743e-14
4.34132e-14
4.3561e-14
4.34014e-14
4.35405e-14
4.33969e-14
4.35294e-14
4.33833e-14
4.35276e-14
4.3377e-14
4.35227e-14
4.33697e-14
4.35189e-14
4.33739e-14
4.35121e-14
4.33774e-14
4.34856e-14
4.3368e-14
4.34682e-14
4.33621e-14
4.34554e-14
4.33558e-14
4.34433e-14
4.33573e-14
4.34235e-14
4.33544e-14
4.34164e-14
4.33514e-14
4.34095e-14
4.334e-14
4.3403e-14
4.33325e-14
4.33968e-14
4.33248e-14
4.33748e-14
4.33289e-14
4.33571e-14
4.3321e-14
4.33514e-14
4.3313e-14
4.33458e-14
4.3305e-14
4.33483e-14
4.33008e-14
4.3343e-14
4.32926e-14
4.33418e-14
4.32804e-14
4.33368e-14
4.32798e-14
4.3336e-14
4.32789e-14
4.33469e-14
4.3278e-14
4.33427e-14
4.32692e-14
4.33349e-14
4.32641e-14
4.33349e-14
4.32627e-14
4.33428e-14
4.32536e-14
4.33434e-14
4.32443e-14
4.33367e-14
4.32349e-14
4.33341e-14
4.32328e-14
4.33392e-14
4.32286e-14
4.33372e-14
4.32224e-14
4.33318e-14
4.32179e-14
4.33286e-14
4.3215e-14
4.33292e-14
4.32065e-14
4.33355e-14
4.32033e-14
4.33278e-14
4.31963e-14
4.33187e-14
4.31927e-14
4.33098e-14
4.3189e-14
4.33064e-14
4.31868e-14
4.32999e-14
4.31828e-14
4.32935e-14
4.31787e-14
4.32874e-14
4.31762e-14
4.32798e-14
4.31718e-14
4.32741e-14
4.31674e-14
4.32702e-14
4.31613e-14
4.32665e-14
4.31567e-14
4.32662e-14
4.31553e-14
4.32644e-14
4.31506e-14
4.32595e-14
4.31459e-14
4.32532e-14
4.31395e-14
4.32502e-14
4.3133e-14
4.32489e-14
4.31296e-14
4.32523e-14
4.31246e-14
4.32543e-14
4.31196e-14
4.32518e-14
4.31175e-14
4.32494e-14
4.31152e-14
4.32487e-14
4.31115e-14
4.3248e-14
4.31077e-14
4.32475e-14
4.31031e-14
4.3247e-14
4.31006e-14
4.32467e-14
4.3098e-14
4.32457e-14
4.30961e-14
4.32449e-14
4.30934e-14
4.32421e-14
4.309e-14
4.32414e-14
4.30859e-14
4.32421e-14
4.3085e-14
4.32429e-14
4.30834e-14
4.32425e-14
4.30799e-14
4.32415e-14
4.30775e-14
4.32419e-14
4.30752e-14
4.32423e-14
4.30734e-14
4.3244e-14
4.30727e-14
4.32446e-14
4.3072e-14
4.32446e-14
4.30712e-14
4.32429e-14
4.30698e-14
4.32419e-14
4.30701e-14
4.3241e-14
4.30703e-14
4.32407e-14
4.30698e-14
4.32399e-14
4.30694e-14
4.32381e-14
4.30694e-14
4.3238e-14
4.30691e-14
4.32387e-14
4.30687e-14
4.32387e-14
4.30683e-14
4.32385e-14
4.30679e-14
4.32393e-14
4.30672e-14
4.32404e-14
4.30672e-14
4.32399e-14
4.30669e-14
4.32389e-14
4.30663e-14
4.32386e-14
4.30666e-14
4.32384e-14
4.30669e-14
4.3238e-14
4.30669e-14
4.32377e-14
4.30664e-14
4.32376e-14
4.30661e-14
4.32376e-14
4.3066e-14
4.32376e-14
4.30659e-14
4.32374e-14
4.30659e-14
4.32372e-14
4.3066e-14
4.32368e-14
4.3066e-14
4.32358e-14
4.3066e-14
4.32353e-14
4.30658e-14
4.32356e-14
4.30658e-14
4.32358e-14
4.30656e-14
4.32354e-14
4.30654e-14
4.32351e-14
4.30652e-14
4.32349e-14
4.30652e-14
4.3235e-14
4.3065e-14
4.32349e-14
4.30647e-14
4.32342e-14
4.30649e-14
4.32339e-14
4.30649e-14
4.32341e-14
4.3065e-14
4.32342e-14
4.30649e-14
4.3234e-14
4.30649e-14
4.3234e-14
4.30648e-14
4.32339e-14
4.30649e-14
4.32336e-14
4.30651e-14
4.32334e-14
4.3065e-14
4.32333e-14
4.3065e-14
4.32332e-14
4.3065e-14
4.3233e-14
4.3065e-14
4.32328e-14
4.30649e-14
4.32329e-14
4.3065e-14
4.32329e-14
4.30651e-14
4.32328e-14
4.30652e-14
4.32327e-14
4.30652e-14
4.32326e-14
4.30653e-14
4.32324e-14
4.30653e-14
4.32324e-14
4.30653e-14
4.32323e-14
4.30654e-14
4.32322e-14
4.30654e-14
4.32321e-14
4.30655e-14
4.32321e-14
4.30655e-14
4.3232e-14
4.30655e-14
4.3232e-14
4.30655e-14
4.32319e-14
4.30655e-14
4.32319e-14
4.30655e-14
4.32318e-14
4.30655e-14
4.32317e-14
4.30655e-14
4.32317e-14
4.30656e-14
4.32317e-14
4.30656e-14
4.32316e-14
4.30656e-14
4.32316e-14
4.30656e-14
4.32316e-14
4.30656e-14
4.32316e-14
4.30657e-14
4.32315e-14
4.30657e-14
4.32315e-14
4.30657e-14
4.32315e-14
4.30657e-14
4.32315e-14
4.58203e-14
4.57688e-14
4.58185e-14
4.57414e-14
4.57864e-14
4.57406e-14
4.5765e-14
4.56796e-14
4.56264e-14
4.56451e-14
4.56279e-14
4.56366e-14
4.56049e-14
4.56277e-14
4.55086e-14
4.55463e-14
4.54738e-14
4.54919e-14
4.54322e-14
4.54627e-14
4.5384e-14
4.54155e-14
4.54299e-14
4.53747e-14
4.53675e-14
4.53495e-14
4.53349e-14
4.53204e-14
4.53043e-14
4.53101e-14
4.52738e-14
4.52757e-14
4.52434e-14
4.527e-14
4.5233e-14
4.52422e-14
4.52199e-14
4.5159e-14
4.51344e-14
4.50917e-14
4.51026e-14
4.50965e-14
4.50932e-14
4.51009e-14
4.50517e-14
4.51084e-14
4.49984e-14
4.51e-14
4.50675e-14
4.50536e-14
4.50561e-14
4.50086e-14
4.49967e-14
4.496e-14
4.49446e-14
4.49062e-14
4.48729e-14
4.48454e-14
4.4836e-14
4.48361e-14
4.48874e-14
4.48273e-14
4.48057e-14
4.48124e-14
4.47555e-14
4.47693e-14
4.47649e-14
4.4727e-14
4.46959e-14
4.47101e-14
4.466e-14
4.46932e-14
4.46544e-14
4.47089e-14
4.45891e-14
4.46407e-14
4.45529e-14
4.46078e-14
4.45154e-14
4.45945e-14
4.44749e-14
4.45253e-14
4.44329e-14
4.4459e-14
4.44205e-14
4.44702e-14
4.44055e-14
4.44534e-14
4.43731e-14
4.43929e-14
4.43249e-14
4.43783e-14
4.42737e-14
4.44284e-14
4.42602e-14
4.43787e-14
4.42405e-14
4.43513e-14
4.42624e-14
4.43615e-14
4.42487e-14
4.43149e-14
4.42008e-14
4.4304e-14
4.41485e-14
4.42507e-14
4.40755e-14
4.42019e-14
4.40917e-14
4.41904e-14
4.40878e-14
4.41838e-14
4.40643e-14
4.41815e-14
4.40691e-14
4.41508e-14
4.40555e-14
4.41223e-14
4.40403e-14
4.40961e-14
4.40402e-14
4.40886e-14
4.40069e-14
4.40835e-14
4.39883e-14
4.40815e-14
4.39841e-14
4.40666e-14
4.39453e-14
4.4055e-14
4.3904e-14
4.40477e-14
4.38757e-14
4.40456e-14
4.38436e-14
4.40326e-14
4.37904e-14
4.40091e-14
4.37814e-14
4.39921e-14
4.37673e-14
4.39317e-14
4.37496e-14
4.3893e-14
4.37372e-14
4.38834e-14
4.37386e-14
4.38944e-14
4.3737e-14
4.38844e-14
4.37328e-14
4.38617e-14
4.37264e-14
4.38423e-14
4.37098e-14
4.38341e-14
4.36913e-14
4.38203e-14
4.36875e-14
4.38432e-14
4.36731e-14
4.38612e-14
4.36561e-14
4.38496e-14
4.36449e-14
4.3808e-14
4.364e-14
4.37611e-14
4.36085e-14
4.37499e-14
4.35837e-14
4.37412e-14
4.35821e-14
4.3735e-14
4.3562e-14
4.37311e-14
4.35398e-14
4.37297e-14
4.35239e-14
4.37141e-14
4.3506e-14
4.3701e-14
4.34943e-14
4.36818e-14
4.34892e-14
4.36647e-14
4.34824e-14
4.36496e-14
4.34658e-14
4.36277e-14
4.34477e-14
4.36159e-14
4.34281e-14
4.35972e-14
4.34406e-14
4.35715e-14
4.3427e-14
4.35552e-14
4.34209e-14
4.35315e-14
4.34223e-14
4.35085e-14
4.34066e-14
4.34943e-14
4.33986e-14
4.34723e-14
4.33903e-14
4.34589e-14
4.33816e-14
4.3454e-14
4.33725e-14
4.34576e-14
4.33671e-14
4.3445e-14
4.33736e-14
4.34328e-14
4.33552e-14
4.3425e-14
4.33446e-14
4.34092e-14
4.33378e-14
4.34019e-14
4.33347e-14
4.33989e-14
4.33313e-14
4.33961e-14
4.33276e-14
4.33977e-14
4.33195e-14
4.33915e-14
4.33152e-14
4.33856e-14
4.33066e-14
4.338e-14
4.33057e-14
4.33667e-14
4.32966e-14
4.33617e-14
4.32952e-14
4.33531e-14
4.32896e-14
4.33368e-14
4.32839e-14
4.33246e-14
4.32781e-14
4.33204e-14
4.32722e-14
4.33162e-14
4.32661e-14
4.33084e-14
4.326e-14
4.32929e-14
4.32576e-14
4.32891e-14
4.32513e-14
4.3289e-14
4.3245e-14
4.3289e-14
4.32385e-14
4.32816e-14
4.32357e-14
4.32666e-14
4.32254e-14
4.3263e-14
4.32225e-14
4.32668e-14
4.32177e-14
4.32632e-14
4.32128e-14
4.32633e-14
4.32023e-14
4.32597e-14
4.32008e-14
4.32617e-14
4.32028e-14
4.32601e-14
4.31923e-14
4.32568e-14
4.31834e-14
4.32624e-14
4.3185e-14
4.32663e-14
4.31848e-14
4.3265e-14
4.31809e-14
4.32639e-14
4.31735e-14
4.32645e-14
4.31695e-14
4.32652e-14
4.31704e-14
4.3261e-14
4.31662e-14
4.32619e-14
4.31602e-14
4.32646e-14
4.31558e-14
4.32641e-14
4.31513e-14
4.3267e-14
4.31484e-14
4.327e-14
4.31437e-14
4.32699e-14
4.31389e-14
4.32683e-14
4.31404e-14
4.32654e-14
4.31386e-14
4.32625e-14
4.31352e-14
4.32614e-14
4.31317e-14
4.32619e-14
4.31296e-14
4.3261e-14
4.31275e-14
4.32617e-14
4.31208e-14
4.32655e-14
4.31141e-14
4.32679e-14
4.31088e-14
4.32682e-14
4.31071e-14
4.32686e-14
4.31024e-14
4.32685e-14
4.3097e-14
4.32698e-14
4.30922e-14
4.32706e-14
4.30901e-14
4.32688e-14
4.30866e-14
4.32677e-14
4.3083e-14
4.32694e-14
4.30813e-14
4.3268e-14
4.30789e-14
4.3266e-14
4.30771e-14
4.32648e-14
4.30759e-14
4.32643e-14
4.30733e-14
4.32658e-14
4.30713e-14
4.32656e-14
4.30704e-14
4.32636e-14
4.30695e-14
4.32629e-14
4.30685e-14
4.32611e-14
4.3068e-14
4.32583e-14
4.30675e-14
4.32579e-14
4.30674e-14
4.32576e-14
4.30684e-14
4.32551e-14
4.30698e-14
4.32522e-14
4.30712e-14
4.3251e-14
4.30714e-14
4.32501e-14
4.30709e-14
4.3249e-14
4.30712e-14
4.32481e-14
4.30718e-14
4.32466e-14
4.30726e-14
4.3245e-14
4.30731e-14
4.32432e-14
4.30738e-14
4.32417e-14
4.30746e-14
4.32405e-14
4.30745e-14
4.32392e-14
4.30748e-14
4.32371e-14
4.30755e-14
4.32356e-14
4.30758e-14
4.32346e-14
4.3076e-14
4.32335e-14
4.30761e-14
4.32321e-14
4.30765e-14
4.32308e-14
4.30768e-14
4.32299e-14
4.30762e-14
4.32295e-14
4.30763e-14
4.32285e-14
4.30763e-14
4.32271e-14
4.30766e-14
4.32256e-14
4.30766e-14
4.32248e-14
4.30759e-14
4.32243e-14
4.30758e-14
4.32239e-14
4.30755e-14
4.32233e-14
4.30752e-14
4.32226e-14
4.30755e-14
4.32223e-14
4.30757e-14
4.32221e-14
4.30755e-14
4.32219e-14
4.30753e-14
4.32217e-14
4.30751e-14
4.32214e-14
4.3075e-14
4.32213e-14
4.30749e-14
4.32213e-14
4.30748e-14
4.32214e-14
4.3075e-14
4.32213e-14
4.30751e-14
4.32212e-14
4.30748e-14
4.32212e-14
4.30747e-14
4.32213e-14
4.30746e-14
4.32213e-14
4.30746e-14
4.32214e-14
4.30745e-14
4.32215e-14
4.30744e-14
4.32217e-14
4.30742e-14
4.32219e-14
4.30742e-14
4.32218e-14
4.30742e-14
4.32218e-14
4.30741e-14
4.3222e-14
4.3074e-14
4.32222e-14
4.3074e-14
4.32221e-14
4.30741e-14
4.32222e-14
4.3074e-14
4.32223e-14
4.3074e-14
4.32223e-14
4.3074e-14
4.32223e-14
4.3074e-14
4.32223e-14
4.3074e-14
4.32223e-14
4.3074e-14
4.32223e-14
4.3074e-14
4.32223e-14
4.3074e-14
4.32223e-14
4.3074e-14
4.32223e-14
4.3074e-14
4.32223e-14
4.3074e-14
4.32222e-14
4.30741e-14
4.32222e-14
4.3074e-14
4.32222e-14
4.3074e-14
4.32222e-14
4.3074e-14
4.32222e-14
4.3074e-14
4.32222e-14
4.3074e-14
4.32222e-14
4.3074e-14
4.32222e-14
)
;

boundaryField
{
    walls
    {
        type            zeroGradient;
    }
    inlet
    {
        type            cyclic;
    }
    outlet
    {
        type            cyclic;
    }
    sides
    {
        type            empty;
    }
}


// ************************************************************************* //
