/*--------------------------------*- C++ -*----------------------------------*\
| =========                 |                                                 |
| \\      /  F ield         | OpenFOAM: The Open Source CFD Toolbox           |
|  \\    /   O peration     | Version:  2106                                  |
|   \\  /    A nd           | Website:  www.openfoam.com                      |
|    \\/     M anipulation  |                                                 |
\*---------------------------------------------------------------------------*/
FoamFile
{
    version     2.0;
    format      ascii;
    arch        "LSB;label=32;scalar=64";
    class       surfaceScalarField;
    location    "10090";
    object      phi;
}
// * * * * * * * * * * * * * * * * * * * * * * * * * * * * * * * * * * * * * //

dimensions      [0 3 -1 0 0 0 0];

oriented        oriented;

internalField   nonuniform List<scalar> 
3996
(
2.03835e-08
-7.18211e-18
-3.75747e-22
-7.65734e-22
-8.80599e-24
6.26719e-08
-7.17803e-18
-1.39149e-21
-3.30261e-21
-1.38127e-22
1.07321e-07
-7.17383e-18
-1.43392e-21
-5.92447e-21
-1.45955e-22
1.54432e-07
-7.16954e-18
-1.4863e-21
-8.5896e-21
-1.54181e-22
2.04114e-07
-7.16501e-18
-1.53681e-21
-1.13971e-20
-1.62823e-22
2.56476e-07
-7.16046e-18
-1.58697e-21
-1.41833e-20
-1.71899e-22
3.11635e-07
-7.15571e-18
-1.63844e-21
-1.70727e-20
-1.81431e-22
3.6971e-07
-7.15073e-18
-1.69165e-21
-2.01624e-20
-1.91437e-22
4.30827e-07
-7.14565e-18
-1.74662e-21
-2.33037e-20
-2.01938e-22
4.95114e-07
-7.14046e-18
-1.80338e-21
-2.64323e-20
-2.12955e-22
5.62708e-07
-7.13529e-18
-1.86197e-21
-2.97979e-20
-2.24511e-22
6.33747e-07
-7.12951e-18
-1.92245e-21
-3.33244e-20
-2.36625e-22
7.08378e-07
-7.1239e-18
-1.98489e-21
-3.67274e-20
-2.49322e-22
7.86752e-07
-7.11775e-18
-2.04933e-21
-4.03669e-20
-2.62633e-22
8.69025e-07
-7.11119e-18
-2.11587e-21
-4.41056e-20
-2.76569e-22
9.55361e-07
-7.10522e-18
-2.18458e-21
-4.80402e-20
-2.91153e-22
1.04593e-06
-7.09914e-18
-2.25551e-21
-5.13584e-20
-3.06412e-22
1.1409e-06
-7.09278e-18
-2.32874e-21
-5.53626e-20
-3.22374e-22
1.24046e-06
-7.08566e-18
-2.40434e-21
-5.93797e-20
-3.39057e-22
1.3448e-06
-7.0783e-18
-2.48239e-21
-6.38736e-20
-3.56493e-22
1.45411e-06
-7.071e-18
-2.56297e-21
-6.81323e-20
-3.74689e-22
1.56859e-06
-7.0635e-18
-2.64612e-21
-7.24955e-20
-3.93677e-22
1.68844e-06
-7.0559e-18
-2.73191e-21
-7.72132e-20
-4.13478e-22
1.81389e-06
-7.04723e-18
-2.82037e-21
-8.25641e-20
-4.34108e-22
1.94514e-06
-7.03862e-18
-2.91159e-21
-8.81501e-20
-4.55557e-22
2.08243e-06
-7.03007e-18
-3.00556e-21
-9.313e-20
-4.77835e-22
2.22598e-06
-7.02226e-18
-3.1023e-21
-9.78634e-20
-5.00952e-22
2.37603e-06
-7.01267e-18
-3.20176e-21
-1.03643e-19
-5.24901e-22
2.53281e-06
-7.00314e-18
-3.30396e-21
-1.09169e-19
-5.49665e-22
2.69656e-06
-6.9929e-18
-3.40881e-21
-1.15362e-19
-5.75259e-22
2.86752e-06
-6.98313e-18
-3.51621e-21
-1.20551e-19
-6.01654e-22
3.04593e-06
-6.9721e-18
-3.62598e-21
-1.26583e-19
-6.28847e-22
3.23203e-06
-6.96124e-18
-3.73796e-21
-1.32958e-19
-6.5677e-22
3.42606e-06
-6.94974e-18
-3.8519e-21
-1.39925e-19
-6.8534e-22
3.62824e-06
-6.93844e-18
-3.96755e-21
-1.46669e-19
-7.14434e-22
3.83879e-06
-6.92667e-18
-4.08447e-21
-1.51685e-19
-7.44014e-22
4.05793e-06
-6.91463e-18
-4.20232e-21
-1.58236e-19
-7.74031e-22
4.28584e-06
-6.90264e-18
-4.32051e-21
-1.64806e-19
-8.04347e-22
4.52272e-06
-6.8908e-18
-4.43858e-21
-1.71656e-19
-8.34803e-22
4.76873e-06
-6.87685e-18
-4.55587e-21
-1.80687e-19
-8.65221e-22
5.02402e-06
-6.86234e-18
-4.67184e-21
-1.89647e-19
-8.95357e-22
5.28871e-06
-6.84966e-18
-4.78587e-21
-1.95783e-19
-9.25073e-22
5.56291e-06
-6.83692e-18
-4.89718e-21
-2.03494e-19
-9.54351e-22
5.84671e-06
-6.82231e-18
-5.00513e-21
-2.11496e-19
-9.82897e-22
6.14015e-06
-6.80688e-18
-5.10919e-21
-2.20435e-19
-1.01046e-21
6.44329e-06
-6.79117e-18
-5.20883e-21
-2.29769e-19
-1.03682e-21
6.75615e-06
-6.77701e-18
-5.30349e-21
-2.37441e-19
-1.06185e-21
7.07872e-06
-6.76171e-18
-5.3924e-21
-2.46132e-19
-1.08542e-21
7.411e-06
-6.74527e-18
-5.4752e-21
-2.56069e-19
-1.10736e-21
7.75296e-06
-6.72961e-18
-5.55164e-21
-2.6443e-19
-1.12741e-21
8.10456e-06
-6.71773e-18
-5.62133e-21
-2.73402e-19
-1.14559e-21
8.46578e-06
-6.69937e-18
-5.6838e-21
-2.81314e-19
-1.16187e-21
8.83655e-06
-6.68336e-18
-5.7396e-21
-2.90193e-19
-1.17647e-21
9.21686e-06
-6.66694e-18
-5.78854e-21
-3.00492e-19
-1.18931e-21
9.60665e-06
-6.64666e-18
-5.83074e-21
-3.09024e-19
-1.20051e-21
1.00059e-05
-6.62863e-18
-5.86682e-21
-3.20674e-19
-1.20998e-21
1.04146e-05
-6.6111e-18
-5.89707e-21
-3.3221e-19
-1.21736e-21
1.08327e-05
-6.59392e-18
-5.92194e-21
-3.40473e-19
-1.22217e-21
1.12603e-05
-6.57812e-18
-5.94159e-21
-3.51112e-19
-1.22483e-21
1.16974e-05
-6.56072e-18
-5.95606e-21
-3.60784e-19
-1.22531e-21
1.21439e-05
-6.54072e-18
-5.96549e-21
-3.70043e-19
-1.22369e-21
1.26001e-05
-6.5219e-18
-5.97041e-21
-3.81565e-19
-1.22028e-21
1.30658e-05
-6.50548e-18
-5.97162e-21
-3.9218e-19
-1.21398e-21
1.35413e-05
-6.48944e-18
-5.96947e-21
-4.01636e-19
-1.20551e-21
1.40266e-05
-6.46905e-18
-5.96429e-21
-4.13464e-19
-1.19462e-21
1.45218e-05
-6.45003e-18
-5.95706e-21
-4.24952e-19
-1.181e-21
1.50271e-05
-6.43442e-18
-5.94806e-21
-4.34159e-19
-1.16494e-21
1.55426e-05
-6.41394e-18
-5.93737e-21
-4.47176e-19
-1.14649e-21
1.60685e-05
-6.39826e-18
-5.92601e-21
-4.55626e-19
-1.12466e-21
1.6605e-05
-6.38022e-18
-5.91348e-21
-4.66209e-19
-1.10175e-21
1.71522e-05
-6.36612e-18
-5.90015e-21
-4.73482e-19
-1.07754e-21
1.77104e-05
-6.35169e-18
-5.88593e-21
-4.80862e-19
-1.05237e-21
1.82797e-05
-6.33668e-18
-5.87047e-21
-4.88411e-19
-1.02586e-21
1.88604e-05
-6.32738e-18
-5.8545e-21
-4.91282e-19
-9.98352e-22
1.94527e-05
-6.30906e-18
-5.8376e-21
-5.01915e-19
-9.70782e-22
2.00569e-05
-6.29372e-18
-5.82272e-21
-5.09647e-19
-9.39927e-22
2.06731e-05
-6.27613e-18
-5.80805e-21
-5.17656e-19
-9.08941e-22
2.13018e-05
-6.25057e-18
-5.79269e-21
-5.33289e-19
-8.78226e-22
2.19431e-05
-6.22941e-18
-5.78143e-21
-5.45598e-19
-8.41554e-22
2.25973e-05
-6.21039e-18
-5.77294e-21
-5.56851e-19
-8.01584e-22
2.32648e-05
-6.18897e-18
-5.76744e-21
-5.69996e-19
-7.60042e-22
2.39457e-05
-6.17241e-18
-5.76718e-21
-5.78137e-19
-7.1538e-22
2.46404e-05
-6.15263e-18
-5.77145e-21
-5.90794e-19
-6.6719e-22
2.53493e-05
-6.12856e-18
-5.78074e-21
-6.04321e-19
-6.15594e-22
2.60726e-05
-6.11623e-18
-5.79637e-21
-6.14265e-19
-5.60857e-22
2.68107e-05
-6.10067e-18
-5.81471e-21
-6.22476e-19
-5.04986e-22
2.75639e-05
-6.095e-18
-5.83608e-21
-6.29875e-19
-4.48401e-22
2.83325e-05
-6.08521e-18
-5.85745e-21
-6.41385e-19
-3.89487e-22
2.91169e-05
-6.06901e-18
-5.88097e-21
-6.5344e-19
-3.2845e-22
2.99175e-05
-6.05174e-18
-5.90725e-21
-6.64562e-19
-2.65634e-22
3.07346e-05
-6.0368e-18
-5.93747e-21
-6.80463e-19
-2.02484e-22
3.15686e-05
-6.01982e-18
-5.97015e-21
-6.95404e-19
-1.34742e-22
3.24198e-05
-5.99392e-18
-6.00206e-21
-7.13908e-19
-6.8109e-23
3.32887e-05
-5.97977e-18
-6.04334e-21
-7.29133e-19
-1.02262e-24
3.41757e-05
-5.95542e-18
-6.08373e-21
-7.52146e-19
6.3218e-23
3.50811e-05
-5.93712e-18
-6.13133e-21
-7.70256e-19
1.30798e-22
3.60054e-05
-5.91376e-18
-6.17931e-21
-7.93379e-19
1.96558e-22
3.6949e-05
-5.892e-18
-6.23284e-21
-8.10645e-19
2.66974e-22
3.79124e-05
-5.87293e-18
-6.28747e-21
-8.26643e-19
3.33156e-22
3.88959e-05
-5.84354e-18
-6.33912e-21
-8.50932e-19
3.97182e-22
3.99e-05
-5.80697e-18
-6.39361e-21
-8.7645e-19
4.61426e-22
4.09252e-05
-5.79125e-18
-6.45643e-21
-8.81798e-19
5.23617e-22
4.1972e-05
-5.78528e-18
-6.5186e-21
-8.92933e-19
5.79534e-22
4.30408e-05
-5.76301e-18
-6.57727e-21
-9.03454e-19
6.31067e-22
4.4132e-05
-5.74348e-18
-6.63832e-21
-9.1877e-19
6.79515e-22
4.52463e-05
-5.72461e-18
-6.69858e-21
-9.3462e-19
7.27775e-22
4.63841e-05
-5.702e-18
-6.76142e-21
-9.52278e-19
7.78217e-22
4.75459e-05
-5.67463e-18
-6.83313e-21
-9.69026e-19
8.36989e-22
4.87322e-05
-5.66708e-18
-6.91742e-21
-9.92789e-19
8.88005e-22
4.99437e-05
-5.62718e-18
-6.99138e-21
-1.00695e-18
9.31097e-22
5.11807e-05
-5.60146e-18
-7.08658e-21
-1.02499e-18
9.76881e-22
5.2444e-05
-5.57557e-18
-7.17302e-21
-1.04834e-18
1.02023e-21
5.3734e-05
-5.55543e-18
-7.26458e-21
-1.07499e-18
1.0593e-21
5.50514e-05
-5.51688e-18
-7.35121e-21
-1.10831e-18
1.09442e-21
5.63966e-05
-5.49037e-18
-7.45275e-21
-1.12063e-18
1.13038e-21
5.77705e-05
-5.46143e-18
-7.55551e-21
-1.14309e-18
1.1558e-21
5.91735e-05
-5.42745e-18
-7.6613e-21
-1.16326e-18
1.18327e-21
6.06062e-05
-5.39044e-18
-7.78201e-21
-1.18436e-18
1.20628e-21
6.20694e-05
-5.37555e-18
-7.93352e-21
-1.19683e-18
1.22464e-21
6.35637e-05
-5.35544e-18
-8.07732e-21
-1.1983e-18
1.23901e-21
6.50898e-05
-5.33968e-18
-8.23652e-21
-1.21653e-18
1.22264e-21
6.66483e-05
-5.31679e-18
-8.39372e-21
-1.23338e-18
1.2002e-21
6.82399e-05
-5.29753e-18
-8.55926e-21
-1.26105e-18
1.16634e-21
6.98653e-05
-5.27393e-18
-8.74674e-21
-1.28401e-18
1.164e-21
7.15254e-05
-5.25348e-18
-8.92834e-21
-1.29686e-18
1.15723e-21
7.32207e-05
-5.22793e-18
-9.10399e-21
-1.32751e-18
1.15739e-21
7.49521e-05
-5.19061e-18
-9.28546e-21
-1.33445e-18
1.13448e-21
7.67204e-05
-5.15216e-18
-9.50251e-21
-1.37683e-18
1.07424e-21
7.85262e-05
-5.13791e-18
-9.73663e-21
-1.38378e-18
1.02785e-21
8.03705e-05
-5.10162e-18
-9.93584e-21
-1.40496e-18
9.58177e-22
8.22541e-05
-5.06364e-18
-1.01401e-20
-1.43341e-18
8.76681e-22
8.41777e-05
-5.02283e-18
-1.036e-20
-1.46512e-18
7.73103e-22
8.61422e-05
-4.98305e-18
-1.05787e-20
-1.46957e-18
6.69852e-22
8.81486e-05
-4.94026e-18
-1.07587e-20
-1.49593e-18
5.3952e-22
9.01976e-05
-4.90118e-18
-1.09356e-20
-1.52353e-18
4.21364e-22
9.22902e-05
-4.86025e-18
-1.11017e-20
-1.54805e-18
3.52541e-22
9.44273e-05
-4.82048e-18
-1.12481e-20
-1.57497e-18
2.96486e-22
9.66099e-05
-4.77614e-18
-1.13676e-20
-1.58082e-18
2.1383e-22
9.88389e-05
-4.71691e-18
-1.14577e-20
-1.61822e-18
9.24829e-23
0.000101115
-4.67414e-18
-1.15724e-20
-1.62393e-18
-3.0985e-23
0.00010344
-4.64069e-18
-1.17186e-20
-1.65059e-18
-2.32658e-22
0.000105814
-4.59141e-18
-1.18897e-20
-1.68235e-18
-4.50293e-22
0.000108239
-4.52991e-18
-1.21104e-20
-1.70775e-18
-6.36683e-22
0.000110715
-4.46826e-18
-1.23102e-20
-1.73507e-18
-8.47182e-22
0.000113244
-4.43014e-18
-1.25561e-20
-1.76612e-18
-1.05831e-21
0.000115826
-4.38368e-18
-1.28031e-20
-1.78309e-18
-1.25851e-21
0.000118464
-4.3305e-18
-1.30402e-20
-1.8203e-18
-1.51245e-21
0.000121157
-4.27865e-18
-1.33314e-20
-1.83445e-18
-1.73752e-21
0.000123908
-4.24148e-18
-1.35873e-20
-1.85709e-18
-2.01029e-21
0.000126717
-4.1505e-18
-1.37589e-20
-1.88883e-18
-2.26373e-21
0.000129585
-4.11662e-18
-1.40181e-20
-1.91657e-18
-2.40176e-21
0.000132514
-4.06897e-18
-1.43576e-20
-1.91834e-18
-2.44038e-21
0.000135506
-3.9944e-18
-1.46472e-20
-1.96202e-18
-2.53024e-21
0.00013856
-3.94787e-18
-1.48736e-20
-1.96662e-18
-2.6442e-21
0.00014168
-3.9083e-18
-1.50762e-20
-1.99216e-18
-2.75159e-21
0.000144866
-3.85158e-18
-1.52547e-20
-2.01326e-18
-2.67938e-21
0.000148119
-3.8131e-18
-1.54932e-20
-2.03243e-18
-2.63042e-21
0.00015144
-3.75352e-18
-1.56796e-20
-2.03486e-18
-2.7158e-21
0.000154833
-3.72811e-18
-1.60285e-20
-2.01396e-18
-2.95079e-21
0.000158296
-3.68438e-18
-1.62567e-20
-2.04867e-18
-3.3665e-21
0.000161834
-3.63776e-18
-1.63917e-20
-2.05439e-18
-3.89199e-21
0.000165445
-3.55505e-18
-1.63771e-20
-2.06558e-18
-4.54777e-21
0.000169134
-3.51401e-18
-1.66643e-20
-2.07047e-18
-5.18277e-21
0.0001729
-3.46721e-18
-1.70099e-20
-2.07612e-18
-5.78793e-21
0.000176745
-3.41066e-18
-1.75011e-20
-2.0696e-18
-6.51178e-21
0.000180672
-3.37352e-18
-1.81569e-20
-2.07058e-18
-7.32742e-21
0.000184681
-3.34318e-18
-1.87253e-20
-2.08871e-18
-8.23774e-21
0.000188775
-3.34375e-18
-1.91436e-20
-2.09186e-18
-8.76613e-21
0.000192955
-3.27964e-18
-1.93235e-20
-2.13338e-18
-9.13449e-21
0.000197223
-3.22846e-18
-1.95644e-20
-2.15388e-18
-9.48486e-21
0.000201581
-3.18876e-18
-1.98551e-20
-2.16622e-18
-9.8409e-21
0.00020603
-3.12856e-18
-2.02256e-20
-2.14746e-18
-1.02294e-20
0.000210573
-3.1073e-18
-2.0884e-20
-2.14815e-18
-1.11977e-20
0.000215212
-3.05807e-18
-2.13321e-20
-2.16947e-18
-1.23404e-20
0.000219947
-3.00141e-18
-2.18644e-20
-2.14127e-18
-1.36125e-20
0.000224782
-2.95701e-18
-2.27987e-20
-2.14685e-18
-1.49159e-20
0.000229719
-2.90025e-18
-2.37909e-20
-2.1343e-18
-1.66051e-20
0.000234759
-2.887e-18
-2.50575e-20
-2.12504e-18
-1.88425e-20
0.000239904
-2.83032e-18
-2.61489e-20
-2.11062e-18
-2.12376e-20
0.000245157
-2.75896e-18
-2.73434e-20
-2.11321e-18
-2.39876e-20
0.00025052
-2.68469e-18
-2.81495e-20
-2.08127e-18
-2.62027e-20
0.000255995
-2.59672e-18
-2.86257e-20
-2.08679e-18
-2.80718e-20
0.000261584
-2.55088e-18
-2.89604e-20
-2.10255e-18
-2.88736e-20
0.00026729
-2.50716e-18
-2.87453e-20
-2.08818e-18
-2.87033e-20
0.000273114
-2.46576e-18
-2.81792e-20
-2.06923e-18
-2.82496e-20
0.00027906
-2.37271e-18
-2.74156e-20
-2.07832e-18
-2.77518e-20
0.000285129
-2.36886e-18
-2.86497e-20
-1.97951e-18
-2.61175e-20
0.000291325
-2.39405e-18
-2.90036e-20
-1.96968e-18
-2.6171e-20
0.000297649
-2.39164e-18
-2.94807e-20
-1.99811e-18
-2.65509e-20
0.000304105
-2.35759e-18
-2.93849e-20
-1.99816e-18
-2.68196e-20
0.000310694
-2.32657e-18
-2.85513e-20
-2.00984e-18
-2.63127e-20
0.00031742
-2.26695e-18
-2.72071e-20
-2.04412e-18
-2.62401e-20
0.000324285
-2.24055e-18
-2.6385e-20
-2.05826e-18
-2.49797e-20
0.000331291
-2.20237e-18
-2.55773e-20
-2.06656e-18
-2.37423e-20
0.000338442
-2.18023e-18
-2.43877e-20
-2.14995e-18
-2.38391e-20
0.00034574
-2.1805e-18
-2.27856e-20
-2.15737e-18
-2.28591e-20
0.000353189
-2.10554e-18
-2.22143e-20
-2.12083e-18
-2.1502e-20
0.000360791
-2.19967e-18
-2.32454e-20
-2.13642e-18
-2.19257e-20
0.000368548
-2.15883e-18
-2.14004e-20
-2.08147e-18
-2.15174e-20
0.000376465
-2.16484e-18
-2.12316e-20
-2.02133e-18
-2.26817e-20
0.000384543
-2.14592e-18
-2.11762e-20
-2.01417e-18
-2.46239e-20
0.000392787
-2.1023e-18
-2.07756e-20
-2.00814e-18
-2.49674e-20
0.000401199
-2.0786e-18
-2.03279e-20
-1.98331e-18
-2.61862e-20
0.000409782
-2.05349e-18
-2.01318e-20
-1.90608e-18
-2.93417e-20
0.000418539
-2.05341e-18
-2.14441e-20
-1.86424e-18
-3.11918e-20
0.000427474
-2.00515e-18
-2.21466e-20
-1.81772e-18
-3.46234e-20
0.00043659
-1.9074e-18
-2.17464e-20
-1.91462e-18
-4.0767e-20
0.00044589
-1.81171e-18
-2.33289e-20
-1.94245e-18
-4.27945e-20
0.000455378
-1.74724e-18
-2.45854e-20
-1.84672e-18
-4.13254e-20
0.000465056
-1.75423e-18
-2.75854e-20
-1.72367e-18
-4.3307e-20
0.000474929
-1.69394e-18
-2.8921e-20
-1.62405e-18
-4.35883e-20
0.000484999
-1.58228e-18
-3.31085e-20
-1.71822e-18
-4.37353e-20
0.000495271
-1.6625e-18
-3.76459e-20
-1.64821e-18
-4.13772e-20
0.000505746
-1.64654e-18
-4.26005e-20
-1.63976e-18
-4.08562e-20
0.00051643
-1.62041e-18
-4.4708e-20
-1.64098e-18
-4.19513e-20
0.000527325
-1.67519e-18
-5.06298e-20
-1.63515e-18
-4.23246e-20
0.000538435
-1.66681e-18
-5.07559e-20
-1.61645e-18
-3.88316e-20
0.000549764
-1.60464e-18
-4.14966e-20
-1.68689e-18
-3.72552e-20
0.000561314
-1.64393e-18
-3.8714e-20
-1.60397e-18
-3.50617e-20
0.000573089
-1.71051e-18
-3.94804e-20
-1.62387e-18
-3.59701e-20
0.000585094
-1.57481e-18
-3.20616e-20
-1.68772e-18
-3.48548e-20
0.00059733
-1.5759e-18
-3.52944e-20
-1.55493e-18
-3.40936e-20
0.000609801
-1.67363e-18
-3.74983e-20
-1.48804e-18
-3.32545e-20
0.000622512
-1.65755e-18
-3.22542e-20
-1.51443e-18
-3.59123e-20
0.000635464
-1.49315e-18
-2.43211e-20
-1.51716e-18
-3.18219e-20
0.000648662
-1.39652e-18
-2.74033e-20
-1.54691e-18
-2.99494e-20
0.000662107
-1.37229e-18
-4.06221e-20
-1.43934e-18
-3.16891e-20
0.000675804
-1.43716e-18
-4.83767e-20
-1.34468e-18
-3.0354e-20
0.000689755
-1.56595e-18
-5.61934e-20
-1.37367e-18
-2.90478e-20
0.000703962
-1.39822e-18
-4.84858e-20
-1.39884e-18
-2.57017e-20
0.000718428
-1.32341e-18
-4.75418e-20
-1.38118e-18
-2.46444e-20
0.000733156
-1.18802e-18
-3.95434e-20
-1.41639e-18
-2.90679e-20
0.000748146
-1.26582e-18
-3.57548e-20
-1.32186e-18
-2.93913e-20
0.000763401
-1.28359e-18
-2.97471e-20
-1.41062e-18
-3.1549e-20
0.000778923
-1.1628e-18
-2.24583e-20
-1.44577e-18
-2.54077e-20
0.000794712
-1.32011e-18
-3.45886e-20
-1.37067e-18
-2.33497e-20
0.000810768
-1.30717e-18
-3.33601e-20
-1.40291e-18
-2.22148e-20
0.000827092
-1.29405e-18
-2.3562e-20
-1.35429e-18
-4.72395e-21
0.000843683
-1.25006e-18
-2.66091e-20
-1.38086e-18
9.63342e-22
0.00086054
-1.38505e-18
-4.42806e-20
-1.13331e-18
6.37338e-21
0.000877661
-1.40559e-18
-4.57475e-20
-1.07076e-18
-1.17941e-20
0.000895043
-1.35339e-18
-4.02686e-20
-1.07866e-18
-1.25274e-20
0.000912684
-1.17887e-18
-3.94788e-20
-1.02217e-18
-8.91839e-21
0.000930578
-1.17549e-18
-5.51569e-20
-1.07371e-18
-6.19162e-21
0.000948721
-1.11653e-18
-4.62805e-20
-1.03221e-18
-2.12163e-21
0.000967106
-9.90961e-19
-3.61597e-20
-1.09342e-18
1.97518e-21
0.000985727
-8.11299e-19
-3.40594e-20
-1.03846e-18
-6.38999e-21
0.00100457
-9.3085e-19
-4.19227e-20
-8.8207e-19
-1.70346e-21
0.00102364
-8.06063e-19
-2.61663e-20
-7.06215e-19
-1.51254e-20
0.00104291
-1.92335e-20
-8.747e-19
-3.06498e-20
-8.85927e-19
2.03835e-08
-3.32124e-22
-5.27925e-23
6.26719e-08
-1.54987e-21
-3.67106e-22
1.07321e-07
-2.79439e-21
-7.06655e-22
1.54432e-07
-4.08339e-21
-1.02318e-21
2.04114e-07
-5.45481e-21
-1.38846e-21
2.56476e-07
-6.80977e-21
-1.76018e-21
3.11635e-07
-8.18923e-21
-2.11136e-21
3.6971e-07
-9.62187e-21
-2.53874e-21
4.30827e-07
-1.1024e-20
-3.0206e-21
4.95114e-07
-1.26661e-20
-3.38676e-21
5.62708e-07
-1.41923e-20
-3.88407e-21
6.33747e-07
-1.58181e-20
-4.42236e-21
7.08378e-07
-1.75051e-20
-5.04909e-21
7.86752e-07
-1.94963e-20
-5.44037e-21
8.69025e-07
-2.12321e-20
-5.81464e-21
9.55361e-07
-2.30224e-20
-6.55208e-21
1.04593e-06
-2.51073e-20
-6.99784e-21
1.1409e-06
-2.71015e-20
-7.74018e-21
1.24046e-06
-2.90364e-20
-8.5727e-21
1.3448e-06
-3.11192e-20
-9.38627e-21
1.45411e-06
-3.31363e-20
-1.01702e-20
1.56859e-06
-3.52142e-20
-1.08258e-20
1.68844e-06
-3.72988e-20
-1.1862e-20
1.81389e-06
-3.96114e-20
-1.29171e-20
1.94514e-06
-4.13994e-20
-1.42962e-20
2.08243e-06
-4.38045e-20
-1.52631e-20
2.22598e-06
-4.6248e-20
-1.57903e-20
2.37603e-06
-4.88761e-20
-1.68189e-20
2.53281e-06
-5.1594e-20
-1.7825e-20
2.69656e-06
-5.43064e-20
-1.91891e-20
2.86752e-06
-5.70175e-20
-2.04733e-20
3.04593e-06
-5.98066e-20
-2.19796e-20
3.23203e-06
-6.29062e-20
-2.31807e-20
3.42606e-06
-6.64689e-20
-2.40085e-20
3.62824e-06
-6.94466e-20
-2.56396e-20
3.83879e-06
-7.32795e-20
-2.64825e-20
4.05793e-06
-7.54967e-20
-2.84921e-20
4.28584e-06
-7.94783e-20
-3.02149e-20
4.52272e-06
-8.2928e-20
-3.15578e-20
4.76873e-06
-8.61471e-20
-3.2961e-20
5.02402e-06
-8.93757e-20
-3.50992e-20
5.28871e-06
-9.29647e-20
-3.77826e-20
5.56291e-06
-9.66843e-20
-3.99395e-20
5.84671e-06
-1.00414e-19
-4.11231e-20
6.14015e-06
-1.04659e-19
-4.26835e-20
6.44329e-06
-1.09382e-19
-4.50738e-20
6.75615e-06
-1.13151e-19
-4.7158e-20
7.07872e-06
-1.16566e-19
-4.9963e-20
7.411e-06
-1.20426e-19
-5.22175e-20
7.75296e-06
-1.23495e-19
-5.48877e-20
8.10456e-06
-1.26995e-19
-5.76262e-20
8.46578e-06
-1.31112e-19
-6.11764e-20
8.83655e-06
-1.36478e-19
-6.43899e-20
9.21686e-06
-1.41377e-19
-6.83401e-20
9.60665e-06
-1.44876e-19
-7.03416e-20
1.00059e-05
-1.49523e-19
-7.43866e-20
1.04146e-05
-1.54855e-19
-7.48851e-20
1.08327e-05
-1.58928e-19
-7.60563e-20
1.12603e-05
-1.63341e-19
-7.93279e-20
1.16974e-05
-1.66307e-19
-8.20731e-20
1.21439e-05
-1.68096e-19
-8.76595e-20
1.26001e-05
-1.73141e-19
-8.84193e-20
1.30658e-05
-1.78976e-19
-9.20613e-20
1.35413e-05
-1.83957e-19
-9.24911e-20
1.40266e-05
-1.87477e-19
-9.54029e-20
1.45218e-05
-1.90651e-19
-9.97732e-20
1.50271e-05
-1.9454e-19
-1.02944e-19
1.55426e-05
-1.97656e-19
-1.05896e-19
1.60685e-05
-2.0139e-19
-1.14258e-19
1.6605e-05
-2.03716e-19
-1.17668e-19
1.71522e-05
-2.08158e-19
-1.22063e-19
1.77104e-05
-2.09009e-19
-1.26711e-19
1.82797e-05
-2.12201e-19
-1.29375e-19
1.88604e-05
-2.1931e-19
-1.32326e-19
1.94527e-05
-2.29463e-19
-1.295e-19
2.00569e-05
-2.33164e-19
-1.33728e-19
2.06731e-05
-2.32184e-19
-1.40373e-19
2.13018e-05
-2.40574e-19
-1.37059e-19
2.19431e-05
-2.44086e-19
-1.40498e-19
2.25973e-05
-2.47027e-19
-1.45244e-19
2.32648e-05
-2.51414e-19
-1.50203e-19
2.39457e-05
-2.58007e-19
-1.49556e-19
2.46404e-05
-2.63682e-19
-1.50952e-19
2.53493e-05
-2.67455e-19
-1.54733e-19
2.60726e-05
-2.70962e-19
-1.59934e-19
2.68107e-05
-2.72285e-19
-1.64211e-19
2.75639e-05
-2.7311e-19
-1.63082e-19
2.83325e-05
-2.78347e-19
-1.64604e-19
2.91169e-05
-2.81281e-19
-1.66433e-19
2.99175e-05
-2.87412e-19
-1.688e-19
3.07346e-05
-2.93582e-19
-1.63911e-19
3.15686e-05
-2.90423e-19
-1.69658e-19
3.24198e-05
-3.04006e-19
-1.72384e-19
3.32887e-05
-3.07676e-19
-1.77816e-19
3.41757e-05
-3.19443e-19
-1.71696e-19
3.50811e-05
-3.22916e-19
-1.72691e-19
3.60054e-05
-3.35281e-19
-1.67787e-19
3.6949e-05
-3.40234e-19
-1.74165e-19
3.79124e-05
-3.42541e-19
-1.75797e-19
3.88959e-05
-3.45899e-19
-1.80821e-19
3.99e-05
-3.47688e-19
-1.90352e-19
4.09252e-05
-3.49598e-19
-1.92814e-19
4.1972e-05
-3.54072e-19
-1.98583e-19
4.30408e-05
-3.53651e-19
-1.94718e-19
4.4132e-05
-3.51977e-19
-1.93511e-19
4.52463e-05
-3.54626e-19
-1.96872e-19
4.63841e-05
-3.58981e-19
-1.85635e-19
4.75459e-05
-3.65968e-19
-1.86795e-19
4.87322e-05
-3.71378e-19
-1.99886e-19
4.99437e-05
-3.89821e-19
-1.9214e-19
5.11807e-05
-3.83487e-19
-1.85917e-19
5.2444e-05
-3.90301e-19
-1.85287e-19
5.3734e-05
-3.89765e-19
-1.89206e-19
5.50514e-05
-3.96314e-19
-1.90328e-19
5.63966e-05
-3.97651e-19
-1.85953e-19
5.77705e-05
-3.94832e-19
-1.78933e-19
5.91735e-05
-3.96277e-19
-1.76121e-19
6.06062e-05
-4.07992e-19
-1.79745e-19
6.20694e-05
-4.01988e-19
-1.75805e-19
6.35637e-05
-4.03639e-19
-1.83903e-19
6.50898e-05
-3.92646e-19
-1.83569e-19
6.66483e-05
-3.90958e-19
-1.90323e-19
6.82399e-05
-4.06809e-19
-1.7694e-19
6.98653e-05
-3.98738e-19
-1.83854e-19
7.15254e-05
-3.99914e-19
-1.70159e-19
7.32207e-05
-4.05658e-19
-1.96402e-19
7.49521e-05
-4.20933e-19
-2.02435e-19
7.67204e-05
-4.29399e-19
-1.97409e-19
7.85262e-05
-4.32187e-19
-1.90963e-19
8.03705e-05
-4.35988e-19
-1.97381e-19
8.22541e-05
-4.46574e-19
-2.02345e-19
8.41777e-05
-4.50699e-19
-1.97541e-19
8.61422e-05
-4.43725e-19
-2.00109e-19
8.81486e-05
-4.62289e-19
-2.18633e-19
9.01976e-05
-4.80838e-19
-2.07688e-19
9.22902e-05
-4.90242e-19
-1.97382e-19
9.44273e-05
-4.97764e-19
-2.13205e-19
9.66099e-05
-4.93097e-19
-2.22572e-19
9.88389e-05
-4.90345e-19
-2.45252e-19
0.000101115
-5.08865e-19
-2.57213e-19
0.00010344
-5.31585e-19
-2.64919e-19
0.000105814
-5.44655e-19
-2.67341e-19
0.000108239
-5.19273e-19
-2.81042e-19
0.000110715
-5.15748e-19
-2.84854e-19
0.000113244
-5.23456e-19
-2.95518e-19
0.000115826
-5.31664e-19
-3.14331e-19
0.000118464
-5.57364e-19
-3.22518e-19
0.000121157
-5.5571e-19
-3.39639e-19
0.000123908
-5.58809e-19
-3.60453e-19
0.000126717
-5.60864e-19
-3.68838e-19
0.000129585
-6.04267e-19
-3.53371e-19
0.000132514
-5.90901e-19
-3.36947e-19
0.000135506
-5.46647e-19
-3.67145e-19
0.00013856
-5.32604e-19
-3.67143e-19
0.00014168
-5.41583e-19
-3.42517e-19
0.000144866
-5.65489e-19
-3.36681e-19
0.000148119
-5.64872e-19
-3.44467e-19
0.00015144
-5.82638e-19
-3.62262e-19
0.000154833
-5.81192e-19
-3.82843e-19
0.000158296
-5.73015e-19
-4.20914e-19
0.000161834
-5.49908e-19
-4.3542e-19
0.000165445
-5.69293e-19
-4.48742e-19
0.000169134
-5.83634e-19
-4.30103e-19
0.0001729
-6.07433e-19
-4.38338e-19
0.000176745
-6.20324e-19
-4.39083e-19
0.000180672
-6.16994e-19
-4.51109e-19
0.000184681
-6.15607e-19
-4.54534e-19
0.000188775
-6.35966e-19
-4.795e-19
0.000192955
-6.4097e-19
-5.18032e-19
0.000197223
-6.52061e-19
-5.4452e-19
0.000201581
-6.74297e-19
-5.66101e-19
0.00020603
-6.95188e-19
-5.96606e-19
0.000210573
-6.7999e-19
-5.97561e-19
0.000215212
-6.92407e-19
-6.31182e-19
0.000219947
-7.48673e-19
-6.10145e-19
0.000224782
-7.62308e-19
-6.51672e-19
0.000229719
-7.74537e-19
-6.88292e-19
0.000234759
-7.74246e-19
-6.95058e-19
0.000239904
-7.86915e-19
-7.15177e-19
0.000245157
-7.70318e-19
-6.84271e-19
0.00025052
-7.55298e-19
-6.50081e-19
0.000255995
-7.38233e-19
-6.13275e-19
0.000261584
-7.08411e-19
-5.82683e-19
0.00026729
-6.72701e-19
-5.42432e-19
0.000273114
-6.24044e-19
-5.71692e-19
0.00027906
-6.83676e-19
-5.82482e-19
0.000285129
-6.47678e-19
-6.39869e-19
0.000291325
-7.38514e-19
-6.54821e-19
0.000297649
-7.5073e-19
-7.15077e-19
0.000304105
-7.34598e-19
-6.94459e-19
0.000310694
-7.39944e-19
-7.48833e-19
0.00031742
-7.66457e-19
-7.32074e-19
0.000324285
-7.78595e-19
-7.52921e-19
0.000331291
-7.57335e-19
-8.17439e-19
0.000338442
-7.55178e-19
-8.29683e-19
0.00034574
-8.29118e-19
-8.24863e-19
0.000353189
-8.39219e-19
-8.49967e-19
0.000360791
-7.93258e-19
-7.72921e-19
0.000368548
-8.30752e-19
-7.69915e-19
0.000376465
-8.46084e-19
-8.04743e-19
0.000384543
-8.38635e-19
-8.13172e-19
0.000392787
-8.40874e-19
-8.57316e-19
0.000401199
-8.79134e-19
-9.20706e-19
0.000409782
-9.48453e-19
-8.49047e-19
0.000418539
-9.63499e-19
-9.25932e-19
0.000427474
-9.51652e-19
-9.58404e-19
0.00043659
-1.0084e-18
-8.92773e-19
0.00044589
-9.54108e-19
-8.59413e-19
0.000455378
-9.89522e-19
-9.59252e-19
0.000465056
-9.90945e-19
-8.91671e-19
0.000474929
-1.05207e-18
-8.84825e-19
0.000484999
-9.80062e-19
-9.23769e-19
0.000495271
-1.0877e-18
-8.57829e-19
0.000505746
-9.68952e-19
-8.11856e-19
0.00051643
-1.02853e-18
-8.03629e-19
0.000527325
-9.70491e-19
-8.38282e-19
0.000538435
-7.61797e-19
-9.4465e-19
0.000549764
-8.34437e-19
-9.88948e-19
0.000561314
-9.556e-19
-9.45754e-19
0.000573089
-8.46693e-19
-8.32916e-19
0.000585094
-9.01337e-19
-8.70347e-19
0.00059733
-8.50802e-19
-7.99267e-19
0.000609801
-7.87955e-19
-7.92545e-19
0.000622512
-7.16586e-19
-6.5291e-19
0.000635464
-7.70114e-19
-7.09555e-19
0.000648662
-8.73504e-19
-7.89256e-19
0.000662107
-7.54578e-19
-7.01727e-19
0.000675804
-8.30367e-19
-6.72239e-19
0.000689755
-7.39108e-19
-5.80194e-19
0.000703962
-6.88655e-19
-6.30781e-19
0.000718428
-5.18549e-19
-7.10041e-19
0.000733156
-4.13532e-19
-6.18983e-19
0.000748146
-4.58829e-19
-5.44746e-19
0.000763401
-4.5399e-19
-5.51165e-19
0.000778923
-4.96194e-19
-6.1755e-19
0.000794712
-5.27412e-19
-5.85598e-19
0.000810768
-5.11506e-19
-5.37605e-19
0.000827092
-6.37655e-19
-6.63151e-19
0.000843683
-7.53121e-19
-6.41868e-19
0.00086054
-7.77663e-19
-6.94728e-19
0.000877661
-8.12894e-19
-6.27582e-19
0.000895043
-8.57302e-19
-6.71129e-19
0.000912684
-8.75644e-19
-6.18015e-19
0.000930578
-7.46932e-19
-7.49403e-19
0.000948721
-7.21378e-19
-7.65584e-19
0.000967106
-6.15328e-19
-8.09731e-19
0.000985727
-5.11836e-19
-5.90889e-19
0.00100457
-4.84654e-19
-6.35525e-19
0.00102364
-4.48779e-19
-4.79561e-19
0.00104291
-6.52225e-19
-5.25861e-19
0.00104291
-1.06614e-18
-2.23631e-20
-8.21498e-19
-1.55342e-20
0.00102364
-6.08651e-19
2.21198e-20
-6.85883e-19
5.88884e-21
0.00100457
-4.68973e-19
2.89269e-20
-6.75245e-19
-4.44849e-21
0.000985727
-4.53799e-19
5.30467e-21
-6.0753e-19
-4.68513e-21
0.000967106
-5.29914e-19
1.00653e-20
-5.11699e-19
9.53793e-21
0.000948721
-5.67523e-19
5.76799e-21
-5.92718e-19
1.23925e-20
0.000930578
-6.09964e-19
1.60123e-21
-4.4282e-19
1.91645e-20
0.000912684
-6.01509e-19
1.49585e-20
-4.86763e-19
2.16916e-20
0.000895043
-5.56112e-19
1.57104e-20
-5.50763e-19
1.54412e-20
0.000877661
-5.48759e-19
1.632e-20
-6.17756e-19
9.43505e-21
0.00086054
-5.90011e-19
1.71401e-20
-5.75655e-19
1.04957e-20
0.000843683
-6.46054e-19
1.03671e-20
-5.858e-19
5.25888e-21
0.000827092
-5.75597e-19
1.631e-20
-5.83094e-19
7.09506e-21
0.000810768
-5.33783e-19
1.41756e-20
-5.24639e-19
4.75851e-21
0.000794712
-5.89122e-19
7.20602e-21
-5.77495e-19
-5.21337e-21
0.000778923
-5.83559e-19
6.39574e-21
-5.61556e-19
-6.11462e-21
0.000763401
-3.69752e-19
1.09512e-20
-5.3924e-19
-4.83636e-21
0.000748146
-3.18974e-19
3.24371e-21
-3.65758e-19
1.23833e-21
0.000733156
-4.1631e-19
-8.45368e-21
-2.78853e-19
-1.15338e-22
0.000718428
-3.57388e-19
4.91604e-22
-2.42164e-19
-3.18324e-21
0.000703962
-3.21169e-19
2.92488e-21
-3.90379e-19
-1.11389e-20
0.000689755
-3.23546e-19
7.97872e-21
-3.0721e-19
-1.00514e-20
0.000675804
-2.00292e-19
1.31515e-20
-2.17941e-19
-1.24323e-20
0.000662107
-2.41989e-19
1.42022e-20
-1.77709e-19
-1.5251e-20
0.000648662
-1.37501e-19
8.4809e-21
-2.42028e-19
-1.3105e-20
0.000635464
-1.06486e-19
1.7491e-21
-2.55531e-19
-6.64276e-21
0.000622512
-1.22917e-19
-1.70848e-21
-2.74727e-19
-5.42154e-22
0.000609801
-1.95533e-19
-5.18621e-21
-3.64184e-19
3.51513e-21
0.00059733
-2.34297e-19
-5.00449e-21
-2.26722e-19
5.28563e-21
0.000585094
-1.61806e-19
-4.73924e-21
-3.12824e-19
2.62268e-22
0.000573089
-2.20727e-19
-7.80618e-21
-1.44274e-19
4.92531e-22
0.000561314
-1.9823e-19
-3.55521e-21
-1.67228e-19
-4.6497e-21
0.000549764
-5.9051e-20
-1.19096e-21
-2.07774e-19
-5.33742e-21
0.000538435
-2.36464e-19
-1.0131e-20
-2.68317e-19
-3.67032e-21
0.000527325
-2.91135e-19
-9.13376e-21
-1.91102e-19
-3.17214e-21
0.00051643
-2.32955e-19
-5.27081e-21
-2.46119e-19
-7.7759e-21
0.000505746
-2.50435e-19
-6.97999e-21
-1.80377e-19
-1.00221e-20
0.000495271
-2.38979e-19
-6.56139e-21
-2.9268e-19
-1.18613e-20
0.000484999
-2.23351e-19
-6.25008e-21
-3.28599e-19
-8.51768e-21
0.000474929
-2.45436e-19
-6.21104e-21
-2.19491e-19
-4.36133e-21
0.000465056
-2.34593e-19
-4.98078e-21
-2.58072e-19
-3.87596e-21
0.000455378
-2.49373e-19
-3.22599e-21
-2.89918e-19
-2.61245e-21
0.00044589
-1.59194e-19
-3.38852e-21
-1.86073e-19
-1.39948e-21
0.00043659
-1.48097e-19
-5.79756e-21
-1.97362e-19
-2.35786e-21
0.000427474
-2.39164e-19
-8.07691e-21
-9.80196e-20
-1.436e-21
0.000418539
-2.35348e-19
-6.727e-21
-1.4589e-19
-4.24026e-21
0.000409782
-1.52303e-19
-4.57676e-21
-1.40327e-19
-6.78065e-21
0.000401199
-1.32474e-19
-5.04094e-21
-1.3432e-19
-5.90499e-21
0.000392787
-1.49226e-19
-4.90365e-21
-1.41911e-19
-6.15397e-21
0.000384543
-1.3765e-19
-3.96489e-21
-1.52644e-19
-6.22254e-21
0.000376465
-1.49593e-19
-2.81442e-21
-1.31045e-19
-4.42646e-21
0.000368548
-1.10615e-19
-1.12133e-21
-1.55881e-19
-4.1328e-21
0.000360791
-1.15174e-19
-2.35552e-22
-1.3297e-19
-1.21604e-21
0.000353189
-7.02944e-20
1.97064e-21
-1.26839e-19
4.37025e-23
0.00034574
-6.85791e-20
3.31687e-22
-1.66837e-19
5.36268e-22
0.000338442
-4.63064e-20
7.89452e-23
-1.51865e-19
2.1817e-21
0.000331291
-1.12783e-19
-5.98788e-22
-4.28732e-20
4.03699e-21
0.000324285
-8.93569e-20
-4.08821e-22
9.23748e-21
3.96647e-21
0.00031742
-9.22638e-20
-1.25162e-22
-4.46373e-21
2.16672e-21
0.000310694
-7.54859e-20
3.14085e-22
-6.57002e-20
-2.02004e-22
0.000304105
-1.09715e-19
2.61568e-22
-1.00375e-19
-1.3693e-21