/*--------------------------------*- C++ -*----------------------------------*\
| =========                 |                                                 |
| \\      /  F ield         | OpenFOAM: The Open Source CFD Toolbox           |
|  \\    /   O peration     | Version:  2106                                  |
|   \\  /    A nd           | Website:  www.openfoam.com                      |
|    \\/     M anipulation  |                                                 |
\*---------------------------------------------------------------------------*/
FoamFile
{
    version     2.0;
    format      ascii;
    arch        "LSB;label=32;scalar=64";
    class       volSymmTensorField;
    location    "10090";
    object      turbulenceProperties:R;
}
// * * * * * * * * * * * * * * * * * * * * * * * * * * * * * * * * * * * * * //

dimensions      [0 2 -2 0 0 0 0];

internalField   nonuniform List<symmTensor> 
2000
(
(1.0521e-07 -2.77286e-12 -5.13204e-15 1.0521e-07 3.66735e-26 1.0521e-07)
(1.0521e-07 -2.77286e-12 -5.13204e-15 1.0521e-07 1.55359e-30 1.0521e-07)
(1.69155e-08 -2.56818e-12 -1.43493e-14 1.69155e-08 6.11517e-27 1.69155e-08)
(1.69155e-08 -2.56818e-12 -1.43493e-14 1.69155e-08 5.7098e-30 1.69155e-08)
(1.55311e-08 -6.98159e-12 -5.41243e-14 1.55311e-08 1.07689e-26 1.55311e-08)
(1.55311e-08 -6.98159e-12 -5.41243e-14 1.55311e-08 1.81894e-29 1.55311e-08)
(4.26117e-08 -4.07856e-11 -3.22089e-13 4.26117e-08 5.90985e-26 4.26117e-08)
(4.26117e-08 -4.07856e-11 -3.22089e-13 4.26117e-08 1.31336e-28 4.26117e-08)
(1.08286e-07 -1.83624e-10 -1.47716e-12 1.08286e-07 2.24437e-25 1.08286e-07)
(1.08286e-07 -1.83624e-10 -1.47716e-12 1.08286e-07 6.81426e-28 1.08286e-07)
(2.31864e-07 -6.21682e-10 -5.09447e-12 2.31864e-07 7.77053e-25 2.31864e-07)
(2.31864e-07 -6.21682e-10 -5.09447e-12 2.31864e-07 2.66597e-27 2.31864e-07)
(4.37377e-07 -1.71814e-09 -1.43424e-11 4.37377e-07 2.19127e-24 4.37377e-07)
(4.37377e-07 -1.71814e-09 -1.43424e-11 4.37377e-07 8.70161e-27 4.37377e-07)
(7.53083e-07 -4.10535e-09 -3.49095e-11 7.53083e-07 5.36822e-24 7.53083e-07)
(7.53083e-07 -4.10535e-09 -3.49095e-11 7.53083e-07 2.36011e-26 7.53083e-07)
(1.21158e-06 -8.80249e-09 -7.62481e-11 1.21158e-06 1.1787e-23 1.21158e-06)
(1.21158e-06 -8.80249e-09 -7.62481e-11 1.21158e-06 5.45385e-26 1.21158e-06)
(1.85005e-06 -1.73631e-08 -1.53208e-10 1.85005e-06 2.37843e-23 1.85005e-06)
(1.85005e-06 -1.73631e-08 -1.53208e-10 1.85005e-06 1.18444e-25 1.85005e-06)
(2.71061e-06 -3.20577e-08 -2.88148e-10 2.71061e-06 4.49295e-23 2.71061e-06)
(2.71061e-06 -3.20577e-08 -2.88148e-10 2.71061e-06 2.45981e-25 2.71061e-06)
(3.84069e-06 -5.60967e-08 -5.13632e-10 3.84069e-06 8.04435e-23 3.84069e-06)
(3.84069e-06 -5.60967e-08 -5.13632e-10 3.84069e-06 4.68577e-25 3.84069e-06)
(5.29341e-06 -9.39012e-08 -8.75822e-10 5.29341e-06 1.37757e-22 5.29341e-06)
(5.29341e-06 -9.39012e-08 -8.75822e-10 5.29341e-06 8.62708e-25 5.29341e-06)
(7.12806e-06 -1.51427e-07 -1.43872e-09 7.12806e-06 2.27218e-22 7.12806e-06)
(7.12806e-06 -1.51427e-07 -1.43872e-09 7.12806e-06 1.52898e-24 7.12806e-06)
(9.41055e-06 -2.36548e-07 -2.28941e-09 9.41055e-06 3.63004e-22 9.41055e-06)
(9.41055e-06 -2.36548e-07 -2.28941e-09 9.41055e-06 2.49535e-24 9.41055e-06)
(1.22139e-05 -3.59516e-07 -3.54446e-09 1.22139e-05 5.64029e-22 1.22139e-05)
(1.22139e-05 -3.59516e-07 -3.54446e-09 1.22139e-05 3.88393e-24 1.22139e-05)
(1.56188e-05 -5.33488e-07 -5.35776e-09 1.56188e-05 8.55449e-22 1.56188e-05)
(1.56188e-05 -5.33488e-07 -5.35776e-09 1.56188e-05 6.30957e-24 1.56188e-05)
(1.97141e-05 -7.75144e-07 -7.92988e-09 1.97141e-05 1.27039e-21 1.97141e-05)
(1.97141e-05 -7.75144e-07 -7.92988e-09 1.97141e-05 1.00253e-23 1.97141e-05)
(2.45974e-05 -1.1054e-06 -1.15193e-08 2.45974e-05 1.85129e-21 2.45974e-05)
(2.45974e-05 -1.1054e-06 -1.15193e-08 2.45974e-05 1.50379e-23 2.45974e-05)
(3.03756e-05 -1.5502e-06 -1.64558e-08 3.03756e-05 2.65215e-21 3.03756e-05)
(3.03756e-05 -1.5502e-06 -1.64558e-08 3.03756e-05 2.26929e-23 3.03756e-05)
(3.71653e-05 -2.14144e-06 -2.31557e-08 3.71653e-05 3.74082e-21 3.71653e-05)
(3.71653e-05 -2.14144e-06 -2.31557e-08 3.71653e-05 3.35163e-23 3.71653e-05)
(4.50934e-05 -2.91798e-06 -3.21404e-08 4.50934e-05 5.20238e-21 4.50934e-05)
(4.50934e-05 -2.91798e-06 -3.21404e-08 4.50934e-05 4.83757e-23 4.50934e-05)
(5.42979e-05 -3.92672e-06 -4.40568e-08 5.42979e-05 7.14275e-21 5.42979e-05)
(5.42979e-05 -3.92672e-06 -4.40568e-08 5.42979e-05 6.9621e-23 5.42979e-05)
(6.49276e-05 -5.2238e-06 -5.97008e-08 6.49276e-05 9.69036e-21 6.49276e-05)
(6.49276e-05 -5.2238e-06 -5.97008e-08 6.49276e-05 9.85847e-23 6.49276e-05)
(7.7143e-05 -6.87587e-06 -8.00437e-08 7.7143e-05 1.2999e-20 7.7143e-05)
(7.7143e-05 -6.87587e-06 -8.00437e-08 7.7143e-05 1.35822e-22 7.7143e-05)
(9.11163e-05 -8.96135e-06 -1.06261e-07 9.11163e-05 1.72519e-20 9.11163e-05)
(9.11163e-05 -8.96135e-06 -1.06261e-07 9.11163e-05 1.84319e-22 9.11163e-05)
(0.000107031 -1.15717e-05 -1.39763e-07 0.000107031 2.26663e-20 0.000107031)
(0.000107031 -1.15717e-05 -1.39763e-07 0.000107031 2.51008e-22 0.000107031)
(0.000125083 -1.48127e-05 -1.82227e-07 0.000125083 2.95025e-20 0.000125083)
(0.000125083 -1.48127e-05 -1.82227e-07 0.000125083 3.35004e-22 0.000125083)
(0.000145478 -1.88053e-05 -2.35634e-07 0.000145478 3.80509e-20 0.000145478)
(0.000145478 -1.88053e-05 -2.35634e-07 0.000145478 4.49928e-22 0.000145478)
(0.000168432 -2.36866e-05 -3.02294e-07 0.000168432 4.86222e-20 0.000168432)
(0.000168432 -2.36866e-05 -3.02294e-07 0.000168432 5.98866e-22 0.000168432)
(0.000194171 -2.96104e-05 -3.84882e-07 0.000194171 6.15826e-20 0.000194171)
(0.000194171 -2.96104e-05 -3.84882e-07 0.000194171 7.71657e-22 0.000194171)
(0.000222927 -3.67469e-05 -4.86463e-07 0.000222927 7.73213e-20 0.000222927)
(0.000222927 -3.67469e-05 -4.86463e-07 0.000222927 1.01271e-21 0.000222927)
(0.000254938 -4.52821e-05 -6.10504e-07 0.000254938 9.62316e-20 0.000254938)
(0.000254938 -4.52821e-05 -6.10504e-07 0.000254938 1.32602e-21 0.000254938)
(0.000290442 -5.54167e-05 -7.60887e-07 0.000290442 1.18725e-19 0.000290442)
(0.000290442 -5.54167e-05 -7.60887e-07 0.000290442 1.70525e-21 0.000290442)
(0.000329679 -6.73633e-05 -9.41902e-07 0.000329679 1.45196e-19 0.000329679)
(0.000329679 -6.73633e-05 -9.41902e-07 0.000329679 2.10885e-21 0.000329679)
(0.000372882 -8.13434e-05 -1.15822e-06 0.000372882 1.75992e-19 0.000372882)
(0.000372882 -8.13434e-05 -1.15822e-06 0.000372882 2.65305e-21 0.000372882)
(0.000420275 -9.7583e-05 -1.41485e-06 0.000420275 2.1143e-19 0.000420275)
(0.000420275 -9.7583e-05 -1.41485e-06 0.000420275 3.41617e-21 0.000420275)
(0.000472067 -0.000116307 -1.71709e-06 0.000472067 2.51658e-19 0.000472067)
(0.000472067 -0.000116307 -1.71709e-06 0.000472067 4.16815e-21 0.000472067)
(0.000528445 -0.000137732 -2.07042e-06 0.000528445 2.96746e-19 0.000528445)
(0.000528445 -0.000137732 -2.07042e-06 0.000528445 5.25356e-21 0.000528445)
(0.000589571 -0.000162063 -2.4804e-06 0.000589571 3.46774e-19 0.000589571)
(0.000589571 -0.000162063 -2.4804e-06 0.000589571 6.8035e-21 0.000589571)
(0.000655575 -0.000189477 -2.95254e-06 0.000655575 4.01312e-19 0.000655575)
(0.000655575 -0.000189477 -2.95254e-06 0.000655575 8.19544e-21 0.000655575)
(0.000726547 -0.000220126 -3.49216e-06 0.000726547 4.5972e-19 0.000726547)
(0.000726547 -0.000220126 -3.49216e-06 0.000726547 9.71952e-21 0.000726547)
(0.000802534 -0.000254121 -4.10424e-06 0.000802534 5.21641e-19 0.000802534)
(0.000802534 -0.000254121 -4.10424e-06 0.000802534 1.15785e-20 0.000802534)
(0.000883536 -0.000291528 -4.79326e-06 0.000883536 5.86393e-19 0.000883536)
(0.000883536 -0.000291528 -4.79326e-06 0.000883536 1.39716e-20 0.000883536)
(0.000969498 -0.000332365 -5.56305e-06 0.000969498 6.53165e-19 0.000969498)
(0.000969498 -0.000332365 -5.56305e-06 0.000969498 1.69966e-20 0.000969498)
(0.00106031 -0.000376593 -6.41668e-06 0.00106031 7.20274e-19 0.00106031)
(0.00106031 -0.000376593 -6.41668e-06 0.00106031 2.01017e-20 0.00106031)
(0.00115581 -0.000424119 -7.35633e-06 0.00115581 7.86722e-19 0.00115581)
(0.00115581 -0.000424119 -7.35633e-06 0.00115581 2.43438e-20 0.00115581)
(0.00125578 -0.000474793 -8.38326e-06 0.00125578 8.51442e-19 0.00125578)
(0.00125578 -0.000474793 -8.38326e-06 0.00125578 3.02473e-20 0.00125578)
(0.00135995 -0.000528416 -9.49775e-06 0.00135995 9.14544e-19 0.00135995)
(0.00135995 -0.000528416 -9.49775e-06 0.00135995 3.37323e-20 0.00135995)
(0.001468 -0.000584738 -1.06991e-05 0.001468 9.7346e-19 0.001468)
(0.001468 -0.000584738 -1.06991e-05 0.001468 3.78347e-20 0.001468)
(0.00157957 -0.000643473 -1.19857e-05 0.00157957 1.02757e-18 0.00157957)
(0.00157957 -0.000643473 -1.19857e-05 0.00157957 4.43412e-20 0.00157957)
(0.00169426 -0.0007043 -1.33552e-05 0.00169426 1.07868e-18 0.00169426)
(0.00169426 -0.0007043 -1.33552e-05 0.00169426 5.25763e-20 0.00169426)
(0.00181165 -0.000766878 -1.48043e-05 0.00181165 1.12554e-18 0.00181165)
(0.00181165 -0.000766878 -1.48043e-05 0.00181165 6.1281e-20 0.00181165)
(0.00193129 -0.000830851 -1.63294e-05 0.00193129 1.167e-18 0.00193129)
(0.00193129 -0.000830851 -1.63294e-05 0.00193129 7.08857e-20 0.00193129)
(0.00205272 -0.000895861 -1.79262e-05 0.00205272 1.20551e-18 0.00205272)
(0.00205272 -0.000895861 -1.79262e-05 0.00205272 8.11501e-20 0.00205272)
(0.00217549 -0.000961554 -1.95902e-05 0.00217549 1.23964e-18 0.00217549)
(0.00217549 -0.000961554 -1.95902e-05 0.00217549 9.50992e-20 0.00217549)
(0.00229914 -0.00102759 -2.13167e-05 0.00229914 1.26903e-18 0.00229914)
(0.00229914 -0.00102759 -2.13167e-05 0.00229914 1.08734e-19 0.00229914)
(0.00242323 -0.00109364 -2.31009e-05 0.00242323 1.29808e-18 0.00242323)
(0.00242323 -0.00109364 -2.31009e-05 0.00242323 1.17807e-19 0.00242323)
(0.00254734 -0.00115941 -2.49381e-05 0.00254734 1.32568e-18 0.00254734)
(0.00254734 -0.00115941 -2.49381e-05 0.00254734 1.2604e-19 0.00254734)
(0.00267106 -0.00122463 -2.68237e-05 0.00267106 1.35611e-18 0.00267106)
(0.00267106 -0.00122463 -2.68237e-05 0.00267106 1.3975e-19 0.00267106)
(0.00279402 -0.00128906 -2.87535e-05 0.00279402 1.3909e-18 0.00279402)
(0.00279402 -0.00128906 -2.87535e-05 0.00279402 1.61721e-19 0.00279402)
(0.00291588 -0.00135247 -3.07234e-05 0.00291588 1.42504e-18 0.00291588)
(0.00291588 -0.00135247 -3.07234e-05 0.00291588 1.92128e-19 0.00291588)
(0.00303631 -0.00141469 -3.27296e-05 0.00303631 1.46127e-18 0.00303631)
(0.00303631 -0.00141469 -3.27296e-05 0.00303631 2.10694e-19 0.00303631)
(0.00315505 -0.00147556 -3.47688e-05 0.00315505 1.50593e-18 0.00315505)
(0.00315505 -0.00147556 -3.47688e-05 0.00315505 2.27233e-19 0.00315505)
(0.00327183 -0.00153495 -3.6838e-05 0.00327183 1.55873e-18 0.00327183)
(0.00327183 -0.00153495 -3.6838e-05 0.00327183 2.51122e-19 0.00327183)
(0.00338646 -0.00159277 -3.89345e-05 0.00338646 4.05415e-20 0.00338646)
(0.00338646 -0.00159277 -3.89345e-05 0.00338646 2.71456e-19 0.00338646)
(0.00349874 -0.00164894 -4.1056e-05 0.00349874 -2.35355e-19 0.00349874)
(0.00349874 -0.00164894 -4.1056e-05 0.00349874 2.95641e-19 0.00349874)
(0.00360851 -0.00170339 -4.32005e-05 0.00360851 -2.99617e-19 0.00360851)
(0.00360851 -0.00170339 -4.32005e-05 0.00360851 3.25537e-19 0.00360851)
(0.00371565 -0.00175609 -4.53664e-05 0.00371565 -3.11683e-19 0.00371565)
(0.00371565 -0.00175609 -4.53664e-05 0.00371565 3.57562e-19 0.00371565)
(0.00382007 -0.00180702 -4.75524e-05 0.00382007 -3.22602e-19 0.00382007)
(0.00382007 -0.00180702 -4.75524e-05 0.00382007 3.97411e-19 0.00382007)
(0.00392168 -0.00185617 -4.97574e-05 0.00392168 -3.18931e-19 0.00392168)
(0.00392168 -0.00185617 -4.97574e-05 0.00392168 4.37517e-19 0.00392168)
(0.00402042 -0.00190355 -5.19805e-05 0.00402042 -4.09935e-19 0.00402042)
(0.00402042 -0.00190355 -5.19805e-05 0.00402042 4.58352e-19 0.00402042)
(0.00411626 -0.00194917 -5.42212e-05 0.00411626 -5.88664e-19 0.00411626)
(0.00411626 -0.00194917 -5.42212e-05 0.00411626 4.48376e-19 0.00411626)
(0.00420919 -0.00199305 -5.64791e-05 0.00420919 -7.19467e-19 0.00420919)
(0.00420919 -0.00199305 -5.64791e-05 0.00420919 5.10543e-19 0.00420919)
(0.00429919 -0.00203523 -5.87538e-05 0.00429919 -7.29922e-19 0.00429919)
(0.00429919 -0.00203523 -5.87538e-05 0.00429919 5.67286e-19 0.00429919)
(0.00438627 -0.00207574 -6.10454e-05 0.00438627 -7.07723e-19 0.00438627)
(0.00438627 -0.00207574 -6.10454e-05 0.00438627 6.18394e-19 0.00438627)
(0.00447047 -0.00211461 -6.3354e-05 0.00447047 -6.72309e-19 0.00447047)
(0.00447047 -0.00211461 -6.3354e-05 0.00447047 6.60173e-19 0.00447047)
(0.0045518 -0.00215191 -6.56797e-05 0.0045518 -5.99565e-19 0.0045518)
(0.0045518 -0.00215191 -6.56797e-05 0.0045518 7.00591e-19 0.0045518)
(0.0046303 -0.00218765 -6.80229e-05 0.0046303 -5.48338e-19 0.0046303)
(0.0046303 -0.00218765 -6.80229e-05 0.0046303 7.4652e-19 0.0046303)
(0.00470603 -0.00222191 -7.03838e-05 0.00470603 -4.86161e-19 0.00470603)
(0.00470603 -0.00222191 -7.03838e-05 0.00470603 8.08273e-19 0.00470603)
(0.00477902 -0.00225472 -7.27631e-05 0.00477902 -4.00279e-19 0.00477902)
(0.00477902 -0.00225472 -7.27631e-05 0.00477902 8.53966e-19 0.00477902)
(0.00484935 -0.00228613 -7.51611e-05 0.00484935 -3.27077e-19 0.00484935)
(0.00484935 -0.00228613 -7.51611e-05 0.00484935 8.64779e-19 0.00484935)
(0.00491706 -0.00231619 -7.75786e-05 0.00491706 -2.68694e-19 0.00491706)
(0.00491706 -0.00231619 -7.75786e-05 0.00491706 9.03682e-19 0.00491706)
(0.00498222 -0.00234494 -8.00162e-05 0.00498222 -1.482e-19 0.00498222)
(0.00498222 -0.00234494 -8.00162e-05 0.00498222 1.05342e-18 0.00498222)
(0.00504489 -0.00237245 -8.24744e-05 0.00504489 -4.14843e-20 0.00504489)
(0.00504489 -0.00237245 -8.24744e-05 0.00504489 1.15532e-18 0.00504489)
(0.00510514 -0.00239874 -8.49541e-05 0.00510514 1.05797e-20 0.00510514)
(0.00510514 -0.00239874 -8.49541e-05 0.00510514 1.14812e-18 0.00510514)
(0.00516303 -0.00242387 -8.7456e-05 0.00516303 -3.38161e-20 0.00516303)
(0.00516303 -0.00242387 -8.7456e-05 0.00516303 1.17723e-18 0.00516303)
(0.00521863 -0.00244789 -8.99807e-05 0.00521863 -9.14862e-20 0.00521863)
(0.00521863 -0.00244789 -8.99807e-05 0.00521863 1.33248e-18 0.00521863)
(0.00527201 -0.00247082 -9.25292e-05 0.00527201 1.94077e-20 0.00527201)
(0.00527201 -0.00247082 -9.25292e-05 0.00527201 1.39457e-18 0.00527201)
(0.00532324 -0.00249272 -9.51022e-05 0.00532324 1.08014e-19 0.00532324)
(0.00532324 -0.00249272 -9.51022e-05 0.00532324 1.46445e-18 0.00532324)
(0.00537236 -0.00251363 -9.77004e-05 0.00537236 1.40994e-19 0.00537236)
(0.00537236 -0.00251363 -9.77004e-05 0.00537236 1.56136e-18 0.00537236)
(0.00541946 -0.00253357 -0.000100325 0.00541946 2.14062e-19 0.00541946)
(0.00541946 -0.00253357 -0.000100325 0.00541946 1.60044e-18 0.00541946)
(0.00546459 -0.0025526 -0.000102976 0.00546459 2.88724e-19 0.00546459)
(0.00546459 -0.0025526 -0.000102976 0.00546459 1.67777e-18 0.00546459)
(0.00550782 -0.00257074 -0.000105655 0.00550782 2.94793e-19 0.00550782)
(0.00550782 -0.00257074 -0.000105655 0.00550782 1.90334e-18 0.00550782)
(0.0055492 -0.00258803 -0.000108362 0.0055492 4.17806e-19 0.0055492)
(0.0055492 -0.00258803 -0.000108362 0.0055492 2.0946e-18 0.0055492)
(0.00558879 -0.00260449 -0.000111099 0.00558879 5.13196e-19 0.00558879)
(0.00558879 -0.00260449 -0.000111099 0.00558879 2.12478e-18 0.00558879)
(0.00562665 -0.00262017 -0.000113866 0.00562665 5.38187e-19 0.00562665)
(0.00562665 -0.00262017 -0.000113866 0.00562665 2.17459e-18 0.00562665)
(0.00566284 -0.00263509 -0.000116663 0.00566284 5.49875e-19 0.00566284)
(0.00566284 -0.00263509 -0.000116663 0.00566284 2.26095e-18 0.00566284)
(0.0056974 -0.00264927 -0.000119493 0.0056974 4.73078e-19 0.0056974)
(0.0056974 -0.00264927 -0.000119493 0.0056974 2.46805e-18 0.0056974)
(0.00573038 -0.00266275 -0.000122355 0.00573038 5.96546e-19 0.00573038)
(0.00573038 -0.00266275 -0.000122355 0.00573038 2.81678e-18 0.00573038)
(0.00576185 -0.00267555 -0.00012525 0.00576185 9.21851e-19 0.00576185)
(0.00576185 -0.00267555 -0.00012525 0.00576185 2.87758e-18 0.00576185)
(0.00579183 -0.0026877 -0.00012818 0.00579183 8.67163e-19 0.00579183)
(0.00579183 -0.0026877 -0.00012818 0.00579183 2.70317e-18 0.00579183)
(0.00582039 -0.00269921 -0.000131144 0.00582039 2.44945e-19 0.00582039)
(0.00582039 -0.00269921 -0.000131144 0.00582039 2.81388e-18 0.00582039)
(0.00584756 -0.00271011 -0.000134144 0.00584756 1.9637e-19 0.00584756)
(0.00584756 -0.00271011 -0.000134144 0.00584756 3.10519e-18 0.00584756)
(0.00587338 -0.00272042 -0.000137181 0.00587338 3.39811e-19 0.00587338)
(0.00587338 -0.00272042 -0.000137181 0.00587338 3.37622e-18 0.00587338)
(0.0058979 -0.00273016 -0.000140254 0.0058979 3.47945e-19 0.0058979)
(0.0058979 -0.00273016 -0.000140254 0.0058979 3.47345e-18 0.0058979)
(0.00592116 -0.00273935 -0.000143366 0.00592116 3.78588e-19 0.00592116)
(0.00592116 -0.00273935 -0.000143366 0.00592116 3.37946e-18 0.00592116)
(0.00594318 -0.002748 -0.000146516 0.00594318 2.99656e-19 0.00594318)
(0.00594318 -0.002748 -0.000146516 0.00594318 3.62692e-18 0.00594318)
(0.00596402 -0.00275614 -0.000149706 0.00596402 2.77077e-19 0.00596402)
(0.00596402 -0.00275614 -0.000149706 0.00596402 4.02491e-18 0.00596402)
(0.0059837 -0.00276378 -0.000152936 0.0059837 1.80215e-19 0.0059837)
(0.0059837 -0.00276378 -0.000152936 0.0059837 4.26671e-18 0.0059837)
(0.00600225 -0.00277093 -0.000156207 0.00600225 5.6059e-19 0.00600225)
(0.00600225 -0.00277093 -0.000156207 0.00600225 4.55655e-18 0.00600225)
(0.0060197 -0.00277761 -0.000159519 0.0060197 4.93709e-19 0.0060197)
(0.0060197 -0.00277761 -0.000159519 0.0060197 4.82825e-18 0.0060197)
(0.00603609 -0.00278383 -0.000162874 0.00603609 5.22613e-19 0.00603609)
(0.00603609 -0.00278383 -0.000162874 0.00603609 4.93322e-18 0.00603609)
(0.00605145 -0.0027896 -0.000166271 0.00605145 7.00245e-19 0.00605145)
(0.00605145 -0.0027896 -0.000166271 0.00605145 4.82122e-18 0.00605145)
(0.00606579 -0.00279495 -0.000169712 0.00606579 5.38844e-19 0.00606579)
(0.00606579 -0.00279495 -0.000169712 0.00606579 5.14439e-18 0.00606579)
(0.00607916 -0.00279987 -0.000173197 0.00607916 3.02757e-19 0.00607916)
(0.00607916 -0.00279987 -0.000173197 0.00607916 5.61863e-18 0.00607916)
(0.00609156 -0.00280438 -0.000176727 0.00609156 5.11951e-19 0.00609156)
(0.00609156 -0.00280438 -0.000176727 0.00609156 5.48857e-18 0.00609156)
(0.00610303 -0.00280849 -0.000180303 0.00610303 1.42712e-19 0.00610303)
(0.00610303 -0.00280849 -0.000180303 0.00610303 5.5376e-18 0.00610303)
(0.00611358 -0.00281221 -0.000183925 0.00611358 -3.75884e-19 0.00611358)
(0.00611358 -0.00281221 -0.000183925 0.00611358 5.99756e-18 0.00611358)
(0.00612324 -0.00281555 -0.000187593 0.00612324 -1.01949e-18 0.00612324)
(0.00612324 -0.00281555 -0.000187593 0.00612324 6.47111e-18 0.00612324)
(0.00613204 -0.00281851 -0.000191309 0.00613204 -1.4541e-18 0.00613204)
(0.00613204 -0.00281851 -0.000191309 0.00613204 6.569e-18 0.00613204)
(0.00613997 -0.00282111 -0.000195073 0.00613997 -1.75664e-18 0.00613997)
(0.00613997 -0.00282111 -0.000195073 0.00613997 6.69536e-18 0.00613997)
(0.00614708 -0.00282335 -0.000198885 0.00614708 -2.2002e-18 0.00614708)
(0.00614708 -0.00282335 -0.000198885 0.00614708 7.14656e-18 0.00614708)
(0.00615337 -0.00282525 -0.000202746 0.00615337 -2.67288e-18 0.00615337)
(0.00615337 -0.00282525 -0.000202746 0.00615337 7.45173e-18 0.00615337)
(0.00615885 -0.0028268 -0.000206657 0.00615885 -3.19369e-18 0.00615885)
(0.00615885 -0.0028268 -0.000206657 0.00615885 7.86352e-18 0.00615885)
(0.00616356 -0.00282801 -0.000210618 0.00616356 -3.42184e-18 0.00616356)
(0.00616356 -0.00282801 -0.000210618 0.00616356 8.19438e-18 0.00616356)
(0.00616749 -0.00282889 -0.000214629 0.00616749 -3.46788e-18 0.00616749)
(0.00616749 -0.00282889 -0.000214629 0.00616749 8.64761e-18 0.00616749)
(0.00617066 -0.00282944 -0.00021869 0.00617066 -3.49654e-18 0.00617066)
(0.00617066 -0.00282944 -0.00021869 0.00617066 8.84019e-18 0.00617066)
(0.0061731 -0.00282968 -0.000222804 0.0061731 -4.24161e-18 0.0061731)
(0.0061731 -0.00282968 -0.000222804 0.0061731 9.28994e-18 0.0061731)
(0.0061748 -0.0028296 -0.000226969 0.0061748 -4.71341e-18 0.0061748)
(0.0061748 -0.0028296 -0.000226969 0.0061748 1.03539e-17 0.0061748)
(0.00617578 -0.00282921 -0.000231186 0.00617578 -4.62129e-18 0.00617578)
(0.00617578 -0.00282921 -0.000231186 0.00617578 1.04173e-17 0.00617578)
(0.00617605 -0.00282851 -0.000235455 0.00617605 -5.06969e-18 0.00617605)
(0.00617605 -0.00282851 -0.000235455 0.00617605 9.90383e-18 0.00617605)
(0.00617563 -0.0028275 -0.000239778 0.00617563 -5.51447e-18 0.00617563)
(0.00617563 -0.0028275 -0.000239778 0.00617563 1.01256e-17 0.00617563)
(0.00617451 -0.0028262 -0.000244153 0.00617451 -5.48913e-18 0.00617451)
(0.00617451 -0.0028262 -0.000244153 0.00617451 9.99358e-18 0.00617451)
(0.00617272 -0.0028246 -0.000248582 0.00617272 -4.72255e-18 0.00617272)
(0.00617272 -0.0028246 -0.000248582 0.00617272 1.17512e-17 0.00617272)
(0.00617026 -0.0028227 -0.000253064 0.00617026 -4.99566e-18 0.00617026)
(0.00617026 -0.0028227 -0.000253064 0.00617026 1.30631e-17 0.00617026)
(0.00616713 -0.00282051 -0.0002576 0.00616713 -5.69882e-18 0.00616713)
(0.00616713 -0.00282051 -0.0002576 0.00616713 1.36561e-17 0.00616713)
(0.00616334 -0.00281804 -0.00026219 0.00616334 -6.06123e-18 0.00616334)
(0.00616334 -0.00281804 -0.00026219 0.00616334 1.45458e-17 0.00616334)
(0.00615891 -0.00281527 -0.000266834 0.00615891 -6.46243e-18 0.00615891)
(0.00615891 -0.00281527 -0.000266834 0.00615891 1.6597e-17 0.00615891)
(0.00615384 -0.00281222 -0.000271532 0.00615384 -7.2013e-18 0.00615384)
(0.00615384 -0.00281222 -0.000271532 0.00615384 2.14435e-17 0.00615384)
(0.00614812 -0.00280889 -0.000276284 0.00614812 -8.17914e-18 0.00614812)
(0.00614812 -0.00280889 -0.000276284 0.00614812 2.52444e-17 0.00614812)
(0.00614178 -0.00280527 -0.000281091 0.00614178 -7.4653e-18 0.00614178)
(0.00614178 -0.00280527 -0.000281091 0.00614178 2.54648e-17 0.00614178)
(0.0061348 -0.00280137 -0.000285951 0.0061348 -6.67903e-18 0.0061348)
(0.0061348 -0.00280137 -0.000285951 0.0061348 2.55679e-17 0.0061348)
(0.00612721 -0.0027972 -0.000290866 0.00612721 -6.17915e-18 0.00612721)
(0.00612721 -0.0027972 -0.000290866 0.00612721 2.63125e-17 0.00612721)
(0.00611899 -0.00279274 -0.000295834 0.00611899 -4.05426e-18 0.00611899)
(0.00611899 -0.00279274 -0.000295834 0.00611899 2.66909e-17 0.00611899)
(0.00611016 -0.002788 -0.000300856 0.00611016 -2.74004e-18 0.00611016)
(0.00611016 -0.002788 -0.000300856 0.00611016 2.73555e-17 0.00611016)
(0.00610071 -0.00278298 -0.000305931 0.00610071 -1.812e-18 0.00610071)
(0.00610071 -0.00278298 -0.000305931 0.00610071 2.88583e-17 0.00610071)
(0.00609066 -0.00277768 -0.000311059 0.00609066 -1.30787e-18 0.00609066)
(0.00609066 -0.00277768 -0.000311059 0.00609066 3.04145e-17 0.00609066)
(0.00608 -0.00277211 -0.000316239 0.00608 -2.3972e-18 0.00608)
(0.00608 -0.00277211 -0.000316239 0.00608 3.10456e-17 0.00608)
(0.00606873 -0.00276625 -0.000321472 0.00606873 -1.53405e-18 0.00606873)
(0.00606873 -0.00276625 -0.000321472 0.00606873 3.09189e-17 0.00606873)
(0.00605685 -0.00276011 -0.000326756 0.00605685 -6.2326e-20 0.00605685)
(0.00605685 -0.00276011 -0.000326756 0.00605685 3.06392e-17 0.00605685)
(0.00604437 -0.0027537 -0.000332092 0.00604437 -8.52335e-19 0.00604437)
(0.00604437 -0.0027537 -0.000332092 0.00604437 3.13326e-17 0.00604437)
(0.00603129 -0.002747 -0.000337477 0.00603129 -2.36772e-18 0.00603129)
(0.00603129 -0.002747 -0.000337477 0.00603129 3.36472e-17 0.00603129)
(0.00601761 -0.00274002 -0.000342912 0.00601761 -1.27727e-18 0.00601761)
(0.00601761 -0.00274002 -0.000342912 0.00601761 3.54982e-17 0.00601761)
(0.00600332 -0.00273275 -0.000348396 0.00600332 -5.55958e-18 0.00600332)
(0.00600332 -0.00273275 -0.000348396 0.00600332 3.38058e-17 0.00600332)
(0.00598843 -0.0027252 -0.000353928 0.00598843 -3.4396e-18 0.00598843)
(0.00598843 -0.0027252 -0.000353928 0.00598843 3.18368e-17 0.00598843)
(0.00597294 -0.00271736 -0.000359506 0.00597294 -1.90257e-18 0.00597294)
(0.00597294 -0.00271736 -0.000359506 0.00597294 3.31271e-17 0.00597294)
(0.00595684 -0.00270923 -0.00036513 0.00595684 -1.60636e-18 0.00595684)
(0.00595684 -0.00270923 -0.00036513 0.00595684 3.69303e-17 0.00595684)
(0.00594014 -0.00270082 -0.000370798 0.00594014 -2.20106e-18 0.00594014)
(0.00594014 -0.00270082 -0.000370798 0.00594014 4.02974e-17 0.00594014)
(0.00592283 -0.00269211 -0.000376509 0.00592283 -3.85959e-18 0.00592283)
(0.00592283 -0.00269211 -0.000376509 0.00592283 4.1651e-17 0.00592283)
(0.00590491 -0.0026831 -0.000382261 0.00590491 -4.34291e-18 0.00590491)
(0.00590491 -0.0026831 -0.000382261 0.00590491 4.36596e-17 0.00590491)
(0.00588638 -0.0026738 -0.000388054 0.00588638 -3.5899e-18 0.00588638)
(0.00588638 -0.0026738 -0.000388054 0.00588638 4.39923e-17 0.00588638)
(0.00586724 -0.0026642 -0.000393885 0.00586724 -2.78562e-18 0.00586724)
(0.00586724 -0.0026642 -0.000393885 0.00586724 4.28027e-17 0.00586724)
(0.00584748 -0.0026543 -0.000399752 0.00584748 -2.41071e-18 0.00584748)
(0.00584748 -0.0026543 -0.000399752 0.00584748 4.35353e-17 0.00584748)
(0.0058271 -0.00264409 -0.000405654 0.0058271 7.62357e-19 0.0058271)
(0.0058271 -0.00264409 -0.000405654 0.0058271 4.64303e-17 0.0058271)
(0.0058061 -0.00263357 -0.000411588 0.0058061 5.48787e-20 0.0058061)
(0.0058061 -0.00263357 -0.000411588 0.0058061 5.07676e-17 0.0058061)
(0.00578447 -0.00262275 -0.000417552 0.00578447 -1.79156e-18 0.00578447)
(0.00578447 -0.00262275 -0.000417552 0.00578447 5.14039e-17 0.00578447)
(0.00576221 -0.00261161 -0.000423544 0.00576221 -5.01434e-18 0.00576221)
(0.00576221 -0.00261161 -0.000423544 0.00576221 4.78524e-17 0.00576221)
(0.00573932 -0.00260015 -0.000429562 0.00573932 -4.81049e-18 0.00573932)
(0.00573932 -0.00260015 -0.000429562 0.00573932 4.78881e-17 0.00573932)
(0.00571579 -0.00258838 -0.000435601 0.00571579 -2.35988e-18 0.00571579)
(0.00571579 -0.00258838 -0.000435601 0.00571579 5.09863e-17 0.00571579)
(0.00569162 -0.00257627 -0.000441661 0.00569162 -1.73459e-18 0.00569162)
(0.00569162 -0.00257627 -0.000441661 0.00569162 4.99353e-17 0.00569162)
(0.0056668 -0.00256384 -0.000447736 0.0056668 5.93106e-19 0.0056668)
(0.0056668 -0.00256384 -0.000447736 0.0056668 4.33064e-17 0.0056668)
(0.00564133 -0.00255108 -0.000453825 0.00564133 -6.85337e-19 0.00564133)
(0.00564133 -0.00255108 -0.000453825 0.00564133 3.8786e-17 0.00564133)
(0.00561521 -0.00253799 -0.000459924 0.00561521 -4.27523e-18 0.00561521)
(0.00561521 -0.00253799 -0.000459924 0.00561521 4.24657e-17 0.00561521)
(0.00558842 -0.00252455 -0.000466029 0.00558842 2.67698e-18 0.00558842)
(0.00558842 -0.00252455 -0.000466029 0.00558842 4.4211e-17 0.00558842)
(0.00556096 -0.00251077 -0.000472136 0.00556096 3.01952e-18 0.00556096)
(0.00556096 -0.00251077 -0.000472136 0.00556096 4.46895e-17 0.00556096)
(0.00553283 -0.00249664 -0.000478241 0.00553283 2.64783e-18 0.00553283)
(0.00553283 -0.00249664 -0.000478241 0.00553283 4.81451e-17 0.00553283)
(0.00550401 -0.00248216 -0.000484339 0.00550401 2.31229e-18 0.00550401)
(0.00550401 -0.00248216 -0.000484339 0.00550401 4.87222e-17 0.00550401)
(0.00547451 -0.00246732 -0.000490427 0.00547451 4.01755e-19 0.00547451)
(0.00547451 -0.00246732 -0.000490427 0.00547451 5.15214e-17 0.00547451)
(0.00544432 -0.00245211 -0.000496499 0.00544432 2.18582e-18 0.00544432)
(0.00544432 -0.00245211 -0.000496499 0.00544432 5.246e-17 0.00544432)
(0.00541343 -0.00243654 -0.00050255 0.00541343 5.0599e-18 0.00541343)
(0.00541343 -0.00243654 -0.00050255 0.00541343 4.77349e-17 0.00541343)
(0.00538183 -0.0024206 -0.000508574 0.00538183 5.79981e-18 0.00538183)
(0.00538183 -0.0024206 -0.000508574 0.00538183 3.67112e-17 0.00538183)
(0.00534952 -0.00240427 -0.000514566 0.00534952 2.55648e-18 0.00534952)
(0.00534952 -0.00240427 -0.000514566 0.00534952 2.44695e-17 0.00534952)
(0.00531649 -0.00238757 -0.000520521 0.00531649 -2.71059e-18 0.00531649)
(0.00531649 -0.00238757 -0.000520521 0.00531649 1.60152e-17 0.00531649)
(0.00528272 -0.00237047 -0.00052643 0.00528272 -8.96963e-18 0.00528272)
(0.00528272 -0.00237047 -0.00052643 0.00528272 2.15971e-17 0.00528272)
(0.00524823 -0.00235298 -0.000532289 0.00524823 -5.77272e-19 0.00524823)
(0.00524823 -0.00235298 -0.000532289 0.00524823 2.07242e-17 0.00524823)
(0.00521299 -0.00233509 -0.000538089 0.00521299 5.69814e-18 0.00521299)
(0.00521299 -0.00233509 -0.000538089 0.00521299 1.38146e-17 0.00521299)
(0.005177 -0.0023168 -0.000543824 0.005177 -5.59459e-18 0.005177)
(0.005177 -0.0023168 -0.000543824 0.005177 2.55853e-17 0.005177)
(0.00514025 -0.00229809 -0.000549486 0.00514025 -5.26192e-18 0.00514025)
(0.00514025 -0.00229809 -0.000549486 0.00514025 2.66257e-17 0.00514025)
(0.00510273 -0.00227896 -0.000555066 0.00510273 -3.16733e-18 0.00510273)
(0.00510273 -0.00227896 -0.000555066 0.00510273 1.97569e-17 0.00510273)
(0.00506444 -0.00225941 -0.000560556 0.00506444 -3.56872e-18 0.00506444)
(0.00506444 -0.00225941 -0.000560556 0.00506444 2.00696e-17 0.00506444)
(0.00502537 -0.00223942 -0.000565947 0.00502537 -3.63583e-18 0.00502537)
(0.00502537 -0.00223942 -0.000565947 0.00502537 1.77459e-17 0.00502537)
(0.0049855 -0.002219 -0.000571229 0.0049855 -1.91314e-18 0.0049855)
(0.0049855 -0.002219 -0.000571229 0.0049855 1.36969e-17 0.0049855)
(0.00494484 -0.00219813 -0.000576393 0.00494484 -4.286e-18 0.00494484)
(0.00494484 -0.00219813 -0.000576393 0.00494484 1.31469e-17 0.00494484)
(0.00490337 -0.00217681 -0.000581429 0.00490337 -3.11917e-18 0.00490337)
(0.00490337 -0.00217681 -0.000581429 0.00490337 3.52505e-18 0.00490337)
(0.00486108 -0.00215503 -0.000586324 0.00486108 4.46241e-20 0.00486108)
(0.00486108 -0.00215503 -0.000586324 0.00486108 3.07311e-18 0.00486108)
(0.00481798 -0.00213278 -0.000591069 0.00481798 9.41436e-18 0.00481798)
(0.00481798 -0.00213278 -0.000591069 0.00481798 6.63211e-18 0.00481798)
(0.00477404 -0.00211006 -0.000595651 0.00477404 2.32828e-18 0.00477404)
(0.00477404 -0.00211006 -0.000595651 0.00477404 3.73813e-18 0.00477404)
(0.00472926 -0.00208686 -0.000600057 0.00472926 -8.46934e-18 0.00472926)
(0.00472926 -0.00208686 -0.000600057 0.00472926 1.14566e-17 0.00472926)
(0.00468364 -0.00206316 -0.000604275 0.00468364 -1.859e-18 0.00468364)
(0.00468364 -0.00206316 -0.000604275 0.00468364 1.34515e-17 0.00468364)
(0.00463717 -0.00203897 -0.00060829 0.00463717 -2.51774e-18 0.00463717)