/*--------------------------------*- C++ -*----------------------------------*\
| =========                 |                                                 |
| \\      /  F ield         | OpenFOAM: The Open Source CFD Toolbox           |
|  \\    /   O peration     | Version:  2106                                  |
|   \\  /    A nd           | Website:  www.openfoam.com                      |
|    \\/     M anipulation  |                                                 |
\*---------------------------------------------------------------------------*/
FoamFile
{
    version     2.0;
    format      ascii;
    arch        "LSB;label=32;scalar=64";
    class       volVectorField;
    location    "10090";
    object      U;
}
// * * * * * * * * * * * * * * * * * * * * * * * * * * * * * * * * * * * * * //

dimensions      [0 1 -1 0 0 0 0];

internalField   nonuniform List<vector> 
2000
(
(0.00220287 -7.11606e-16 -2.38686e-17)
(0.00220287 -1.98868e-20 -1.22059e-21)
(0.0066489 -3.27753e-15 -9.06435e-17)
(0.0066489 -8.86863e-19 -9.97644e-21)
(0.0111771 -3.04137e-15 -9.59852e-17)
(0.0111771 -1.84609e-18 -1.74016e-20)
(0.0157889 -2.86065e-15 -1.0111e-16)
(0.0157889 -2.89374e-18 -2.58802e-20)
(0.0204858 -2.84964e-15 -1.06648e-16)
(0.0204858 -3.97872e-18 -3.46948e-20)
(0.0252694 -2.86046e-15 -1.12525e-16)
(0.0252694 -5.10192e-18 -4.32771e-20)
(0.0301413 -2.86356e-15 -1.18668e-16)
(0.0301413 -6.24587e-18 -5.28401e-20)
(0.0351031 -2.86188e-15 -1.25068e-16)
(0.0351031 -7.43048e-18 -6.40765e-20)
(0.0401564 -2.85955e-15 -1.31737e-16)
(0.0401564 -8.67143e-18 -7.51827e-20)
(0.0453028 -2.85744e-15 -1.38687e-16)
(0.0453028 -9.93307e-18 -8.53113e-20)
(0.0505441 -2.85536e-15 -1.45931e-16)
(0.0505441 -1.12352e-17 -9.70856e-20)
(0.055882 -2.85317e-15 -1.53479e-16)
(0.055882 -1.26076e-17 -1.09944e-19)
(0.0613181 -2.85087e-15 -1.61343e-16)
(0.0613181 -1.39984e-17 -1.22332e-19)
(0.0668543 -2.8485e-15 -1.69535e-16)
(0.0668543 -1.5421e-17 -1.37357e-19)
(0.0724922 -2.84597e-15 -1.78067e-16)
(0.0724922 -1.68793e-17 -1.52687e-19)
(0.0782338 -2.84346e-15 -1.86951e-16)
(0.0782338 -1.84196e-17 -1.65628e-19)
(0.0840808 -2.84106e-15 -1.962e-16)
(0.0840808 -1.98875e-17 -1.75926e-19)
(0.090035 -2.83857e-15 -2.05828e-16)
(0.090035 -2.13105e-17 -1.92773e-19)
(0.0960981 -2.83588e-15 -2.15847e-16)
(0.0960981 -2.29218e-17 -2.08311e-19)
(0.102272 -2.83299e-15 -2.26269e-16)
(0.102272 -2.46678e-17 -2.24171e-19)
(0.108558 -2.83004e-15 -2.37106e-16)
(0.108558 -2.63764e-17 -2.41986e-19)
(0.114959 -2.82711e-15 -2.4837e-16)
(0.114959 -2.80935e-17 -2.60357e-19)
(0.121476 -2.82407e-15 -2.60074e-16)
(0.121476 -2.99533e-17 -2.79948e-19)
(0.128109 -2.82081e-15 -2.72226e-16)
(0.128109 -3.19357e-17 -3.01848e-19)
(0.134862 -2.81739e-15 -2.84835e-16)
(0.134862 -3.41481e-17 -3.2367e-19)
(0.141735 -2.81395e-15 -2.97908e-16)
(0.141735 -3.62489e-17 -3.42528e-19)
(0.148729 -2.81067e-15 -3.11452e-16)
(0.148729 -3.81631e-17 -3.61106e-19)
(0.155845 -2.80723e-15 -3.2547e-16)
(0.155845 -4.02985e-17 -3.82992e-19)
(0.163084 -2.8034e-15 -3.39961e-16)
(0.163084 -4.25003e-17 -3.99881e-19)
(0.170446 -2.79948e-15 -3.54921e-16)
(0.170446 -4.49097e-17 -4.25257e-19)
(0.177931 -2.79547e-15 -3.70341e-16)
(0.177931 -4.72051e-17 -4.44264e-19)
(0.185538 -2.79127e-15 -3.86207e-16)
(0.185538 -4.93765e-17 -4.63016e-19)
(0.193267 -2.78694e-15 -4.02501e-16)
(0.193267 -5.1874e-17 -4.87078e-19)
(0.201115 -2.7825e-15 -4.19195e-16)
(0.201115 -5.45977e-17 -5.11983e-19)
(0.20908 -2.77794e-15 -4.36259e-16)
(0.20908 -5.72991e-17 -5.36974e-19)
(0.21716 -2.77334e-15 -4.53653e-16)
(0.21716 -5.96576e-17 -5.47515e-19)
(0.225349 -2.76856e-15 -4.7133e-16)
(0.225349 -6.20485e-17 -5.72138e-19)
(0.233645 -2.76374e-15 -4.89233e-16)
(0.233645 -6.45393e-17 -5.98204e-19)
(0.242041 -2.75904e-15 -5.07303e-16)
(0.242041 -6.72985e-17 -6.11043e-19)
(0.25053 -2.75383e-15 -5.2547e-16)
(0.25053 -7.05092e-17 -6.46575e-19)
(0.259105 -2.74816e-15 -5.43656e-16)
(0.259105 -7.40333e-17 -6.91212e-19)
(0.267758 -2.74278e-15 -5.61781e-16)
(0.267758 -7.71338e-17 -7.12863e-19)
(0.276479 -2.73762e-15 -5.79768e-16)
(0.276479 -7.98001e-17 -7.3366e-19)
(0.285259 -2.73227e-15 -5.97537e-16)
(0.285259 -8.30858e-17 -7.42492e-19)
(0.294086 -2.7262e-15 -6.15005e-16)
(0.294086 -8.63396e-17 -7.63053e-19)
(0.30295 -2.72001e-15 -6.32097e-16)
(0.30295 -8.99376e-17 -7.85742e-19)
(0.311839 -2.71397e-15 -6.48744e-16)
(0.311839 -9.36862e-17 -7.97722e-19)
(0.320741 -2.70819e-15 -6.64883e-16)
(0.320741 -9.67286e-17 -8.50966e-19)
(0.329643 -2.70171e-15 -6.80463e-16)
(0.329643 -1.00183e-16 -9.05776e-19)
(0.338534 -2.69531e-15 -6.95441e-16)
(0.338534 -1.04068e-16 -9.04256e-19)
(0.347402 -2.68971e-15 -7.09787e-16)
(0.347402 -1.07693e-16 -9.04612e-19)
(0.356236 -2.68368e-15 -7.23494e-16)
(0.356236 -1.10899e-16 -9.20917e-19)
(0.365024 -2.67693e-15 -7.36542e-16)
(0.365024 -1.14162e-16 -9.40877e-19)
(0.373757 -2.67025e-15 -7.48943e-16)
(0.373757 -1.18205e-16 -9.72634e-19)
(0.382425 -2.66285e-15 -7.60714e-16)
(0.382425 -1.22093e-16 -9.94825e-19)
(0.391019 -2.65514e-15 -7.71871e-16)
(0.391019 -1.26131e-16 -1.03338e-18)
(0.399533 -2.64813e-15 -7.8245e-16)
(0.399533 -1.30687e-16 -1.09913e-18)
(0.407959 -2.64121e-15 -7.92493e-16)
(0.407959 -1.34369e-16 -1.1511e-18)
(0.416291 -2.63476e-15 -8.02043e-16)
(0.416291 -1.38253e-16 -1.15782e-18)
(0.424524 -2.62808e-15 -8.11152e-16)
(0.424524 -1.42468e-16 -1.11999e-18)
(0.432654 -2.6203e-15 -8.19866e-16)
(0.432654 -1.4646e-16 -1.09873e-18)
(0.440678 -2.61254e-15 -8.28231e-16)
(0.440678 -1.50361e-16 -1.15129e-18)
(0.448594 -2.60563e-15 -8.36304e-16)
(0.448594 -1.54353e-16 -1.24154e-18)
(0.456399 -2.59893e-15 -8.44146e-16)
(0.456399 -1.58929e-16 -1.27303e-18)
(0.464092 -2.5917e-15 -8.51803e-16)
(0.464092 -1.63198e-16 -1.30622e-18)
(0.471673 -2.58392e-15 -8.59306e-16)
(0.471673 -1.67495e-16 -1.34346e-18)
(0.479141 -2.57691e-15 -8.58324e-16)
(0.479141 -1.7172e-16 -1.32735e-18)
(0.486497 -2.5698e-15 -8.56834e-16)
(0.486497 -1.76314e-16 -1.34195e-18)
(0.493742 -2.56251e-15 -8.55393e-16)
(0.493742 -1.80304e-16 -1.33057e-18)
(0.500876 -2.55574e-15 -8.53902e-16)
(0.500876 -1.8423e-16 -1.3528e-18)
(0.507902 -2.54936e-15 -8.52506e-16)
(0.507902 -1.88304e-16 -1.38548e-18)
(0.51482 -2.54356e-15 -8.51161e-16)
(0.51482 -1.90502e-16 -1.45502e-18)
(0.521632 -2.53782e-15 -8.49225e-16)
(0.521632 -1.93412e-16 -1.38445e-18)
(0.528341 -2.53283e-15 -8.46751e-16)
(0.528341 -1.96487e-16 -1.13621e-18)
(0.534948 -2.52713e-15 -8.44131e-16)
(0.534948 -1.98737e-16 -1.10066e-18)
(0.541455 -2.52102e-15 -8.41717e-16)
(0.541455 -2.02136e-16 -1.14631e-18)
(0.547865 -2.51389e-15 -8.39365e-16)
(0.547865 -2.05409e-16 -1.16461e-18)
(0.554181 -2.50512e-15 -8.37242e-16)
(0.554181 -2.10366e-16 -1.20885e-18)
(0.560404 -2.49609e-15 -8.35334e-16)
(0.560404 -2.16083e-16 -1.16626e-18)
(0.566537 -2.48743e-15 -8.33581e-16)
(0.566537 -2.20605e-16 -1.14918e-18)
(0.572582 -2.47982e-15 -8.32119e-16)
(0.572582 -2.2583e-16 -1.17655e-18)
(0.578541 -2.47266e-15 -8.30958e-16)
(0.578541 -2.28798e-16 -1.06696e-18)
(0.584417 -2.46527e-15 -8.29953e-16)
(0.584417 -2.33334e-16 -8.7696e-19)
(0.590213 -2.45641e-15 -8.29107e-16)
(0.590213 -2.39548e-16 -6.77965e-19)
(0.59593 -2.44919e-15 -8.2862e-16)
(0.59593 -2.43537e-16 -7.60283e-19)
(0.60157 -2.44341e-15 -8.28405e-16)
(0.60157 -2.46698e-16 -8.40368e-19)
(0.607137 -2.43891e-15 -8.28258e-16)
(0.607137 -2.5028e-16 -5.88141e-19)
(0.612631 -2.43636e-15 -8.27922e-16)
(0.612631 -2.54991e-16 -4.77231e-19)
(0.618055 -2.43108e-15 -8.27663e-16)
(0.618055 -2.58379e-16 -5.40056e-19)
(0.623411 -2.42406e-15 -8.2761e-16)
(0.623411 -2.63166e-16 -4.52509e-19)
(0.628702 -2.41795e-15 -8.27586e-16)
(0.628702 -2.69672e-16 -4.32575e-19)
(0.633928 -2.41142e-15 -8.27723e-16)
(0.633928 -2.74367e-16 -4.0062e-19)
(0.639092 -2.40301e-15 -8.27945e-16)
(0.639092 -2.81666e-16 -2.03744e-19)
(0.644196 -2.39515e-15 -8.28202e-16)
(0.644196 -2.89045e-16 -5.79922e-20)
(0.649242 -2.3868e-15 -8.28458e-16)
(0.649242 -2.96134e-16 -3.20315e-19)
(0.65423 -2.37879e-15 -8.29123e-16)
(0.65423 -3.03935e-16 -4.65725e-19)
(0.659163 -2.37025e-15 -8.29725e-16)
(0.659163 -3.12958e-16 -4.42726e-19)
(0.664042 -2.36117e-15 -8.30393e-16)
(0.664042 -3.20935e-16 -2.79149e-19)
(0.66887 -2.35311e-15 -8.30941e-16)
(0.66887 -3.2732e-16 -1.01398e-19)
(0.673647 -2.34294e-15 -8.31376e-16)
(0.673647 -3.36299e-16 -2.37569e-19)
(0.678374 -2.32991e-15 -8.32134e-16)
(0.678374 -3.45902e-16 -7.17181e-19)
(0.683055 -2.31909e-15 -8.33396e-16)
(0.683055 -3.51022e-16 -4.65832e-19)
(0.687688 -2.31517e-15 -8.34096e-16)
(0.687688 -3.55509e-16 1.2878e-19)
(0.692277 -2.30985e-15 -8.3421e-16)
(0.692277 -3.59759e-16 5.34303e-19)
(0.696822 -2.30088e-15 -8.34243e-16)
(0.696822 -3.64446e-16 5.89899e-19)
(0.701324 -2.29343e-15 -8.34432e-16)
(0.701324 -3.71054e-16 4.70833e-19)
(0.705785 -2.28512e-15 -8.34616e-16)
(0.705785 -3.7604e-16 7.81893e-19)
(0.710206 -2.27616e-15 -8.34787e-16)
(0.710206 -3.84433e-16 1.42609e-18)
(0.714588 -2.26379e-15 -8.34459e-16)
(0.714588 -3.92694e-16 1.44876e-18)
(0.718931 -2.25882e-15 -8.34316e-16)
(0.718931 -3.99363e-16 1.48025e-18)
(0.723238 -2.24562e-15 -8.34474e-16)
(0.723238 -4.06368e-16 1.36581e-18)
(0.727509 -2.23539e-15 -8.34556e-16)
(0.727509 -4.15145e-16 1.04785e-18)
(0.731745 -2.22704e-15 -8.34807e-16)
(0.731745 -4.2367e-16 6.73228e-19)
(0.735947 -2.21438e-15 -8.3516e-16)
(0.735947 -4.36237e-16 7.27231e-19)
(0.740116 -2.20125e-15 -8.35392e-16)
(0.740116 -4.46989e-16 1.52909e-18)
(0.744252 -2.19033e-15 -8.34957e-16)
(0.744252 -4.52686e-16 1.35358e-18)
(0.748358 -2.1777e-15 -8.34931e-16)
(0.748358 -4.60345e-16 1.33289e-18)
(0.752432 -2.16382e-15 -8.34587e-16)
(0.752432 -4.69684e-16 2.10083e-18)
(0.756477 -2.15293e-15 -8.33539e-16)
(0.756477 -4.77913e-16 2.73964e-18)
(0.760493 -2.14487e-15 -8.32075e-16)
(0.760493 -4.79724e-16 2.97588e-18)
(0.764481 -2.13908e-15 -8.29554e-16)
(0.764481 -4.81749e-16 2.80521e-18)
(0.768441 -2.13173e-15 -8.27187e-16)
(0.768441 -4.9001e-16 3.33798e-18)
(0.772374 -2.12238e-15 -8.23607e-16)
(0.772374 -4.98481e-16 3.61659e-18)
(0.776281 -2.1147e-15 -8.19753e-16)
(0.776281 -5.09721e-16 3.71299e-18)
(0.780163 -2.10619e-15 -8.15126e-16)
(0.780163 -5.15768e-16 4.05299e-18)
(0.78402 -2.09641e-15 -8.09753e-16)
(0.78402 -5.24611e-16 3.68171e-18)
(0.787852 -2.08385e-15 -8.04361e-16)
(0.787852 -5.32186e-16 4.08855e-18)
(0.791661 -2.06873e-15 -7.98469e-16)
(0.791661 -5.41002e-16 3.63829e-18)
(0.795447 -2.05873e-15 -7.9263e-16)
(0.795447 -5.54501e-16 4.42739e-18)
(0.799211 -2.04783e-15 -7.85562e-16)
(0.799211 -5.57831e-16 3.77727e-18)
(0.802952 -2.03325e-15 -7.78374e-16)
(0.802952 -5.67333e-16 2.59004e-18)
(0.806672 -2.01771e-15 -7.70982e-16)
(0.806672 -5.79772e-16 2.87036e-18)
(0.810372 -2.00085e-15 -7.6247e-16)
(0.810372 -5.88659e-16 4.1047e-18)
(0.81405 -1.98484e-15 -7.53723e-16)
(0.81405 -5.94069e-16 4.81435e-18)
(0.817709 -1.96768e-15 -7.4545e-16)
(0.817709 -6.01817e-16 7.56002e-18)
(0.821348 -1.95224e-15 -7.38505e-16)
(0.821348 -6.13838e-16 6.27496e-18)
(0.824968 -1.93657e-15 -7.29809e-16)
(0.824968 -6.25266e-16 5.18053e-18)
(0.82857 -1.91878e-15 -7.21044e-16)
(0.82857 -6.31301e-16 3.6678e-18)
(0.832153 -1.89846e-15 -7.11024e-16)
(0.832153 -6.37245e-16 1.55728e-18)
(0.835719 -1.87842e-15 -7.00769e-16)
(0.835719 -6.50251e-16 -3.85569e-18)
(0.839267 -1.8634e-15 -6.88915e-16)
(0.839267 -6.56874e-16 -1.62872e-17)
(0.842798 -1.84623e-15 -6.77193e-16)
(0.842798 -6.64384e-16 -2.99373e-17)
(0.846312 -1.824e-15 -6.66729e-16)
(0.846312 -6.78341e-16 -4.16269e-17)
(0.84981 -1.79976e-15 -6.55922e-16)
(0.84981 -6.8878e-16 -5.35648e-17)
(0.853292 -1.78003e-15 -6.46266e-16)
(0.853292 -7.01e-16 -6.55066e-17)
(0.856758 -1.76298e-15 -6.41694e-16)
(0.856758 -7.09262e-16 -7.66007e-17)
(0.860209 -1.74262e-15 -6.35766e-16)
(0.860209 -7.20264e-16 -8.84196e-17)
(0.863645 -1.72259e-15 -6.3275e-16)
(0.863645 -7.32291e-16 -1.01376e-16)
(0.867066 -1.70434e-15 -6.28027e-16)
(0.867066 -7.37221e-16 -1.14975e-16)
(0.870473 -1.67831e-15 -6.22666e-16)
(0.870473 -7.48492e-16 -1.27877e-16)
(0.873866 -1.65211e-15 -6.18203e-16)
(0.873866 -7.62696e-16 -1.38841e-16)
(0.877244 -1.63767e-15 -6.16319e-16)
(0.877244 -7.66834e-16 -1.48866e-16)
(0.880609 -1.62668e-15 -6.1261e-16)
(0.880609 -7.77022e-16 -1.60982e-16)
(0.88396 -1.58727e-15 -6.07813e-16)
(0.88396 -7.87139e-16 -1.74705e-16)
(0.887299 -1.5731e-15 -5.99578e-16)
(0.887299 -7.89348e-16 -1.89113e-16)
(0.890624 -1.55282e-15 -5.90627e-16)
(0.890624 -8.0282e-16 -1.97578e-16)
(0.893936 -1.53197e-15 -5.85962e-16)
(0.893936 -8.07809e-16 -2.05288e-16)
(0.897236 -1.5129e-15 -5.80465e-16)
(0.897236 -8.13317e-16 -2.15826e-16)
(0.900524 -1.49677e-15 -5.76923e-16)
(0.900524 -8.14091e-16 -2.30969e-16)
(0.903799 -1.48525e-15 -5.70652e-16)
(0.903799 -8.09209e-16 -2.47256e-16)
(0.907062 -1.46399e-15 -5.6432e-16)
(0.907062 -8.2084e-16 -2.64102e-16)
(0.910314 -1.43762e-15 -5.54001e-16)
(0.910314 -8.24096e-16 -2.82851e-16)
(0.913553 -1.41425e-15 -5.47978e-16)
(0.913553 -8.28237e-16 -2.98037e-16)
(0.916782 -1.39694e-15 -5.40298e-16)
(0.916782 -8.29589e-16 -3.12012e-16)
(0.919998 -1.37436e-15 -5.36942e-16)
(0.919998 -8.26263e-16 -3.28394e-16)
(0.923204 -1.35727e-15 -5.35225e-16)
(0.923204 -8.30996e-16 -3.47891e-16)
(0.926398 -1.34384e-15 -5.31706e-16)
(0.926398 -8.33849e-16 -3.72844e-16)
(0.929582 -1.33724e-15 -5.2657e-16)
(0.929582 -8.33042e-16 -3.92237e-16)
(0.932754 -1.32333e-15 -5.17322e-16)
(0.932754 -8.42425e-16 -4.06069e-16)
(0.935915 -1.30109e-15 -5.10268e-16)
(0.935915 -8.57327e-16 -4.22719e-16)
(0.939066 -1.28365e-15 -5.04075e-16)
(0.939066 -8.65427e-16 -4.4055e-16)
(0.942206 -1.2628e-15 -5.00062e-16)
(0.942206 -8.64428e-16 -4.50765e-16)
(0.945335 -1.24719e-15 -4.98252e-16)
(0.945335 -8.59931e-16 -4.50088e-16)
(0.948454 -1.23505e-15 -4.90558e-16)
(0.948454 -8.6206e-16 -4.48113e-16)
(0.951563 -1.21063e-15 -4.83358e-16)
(0.951563 -8.61459e-16 -4.53946e-16)
(0.95466 -1.19089e-15 -4.88221e-16)
(0.95466 -8.58436e-16 -4.54328e-16)
(0.957748 -1.17191e-15 -4.87641e-16)
(0.957748 -8.60306e-16 -4.59072e-16)
(0.960824 -1.1556e-15 -4.87478e-16)
(0.960824 -8.49783e-16 -4.64907e-16)
(0.963891 -1.14313e-15 -4.85026e-16)
(0.963891 -8.4643e-16 -4.69648e-16)
(0.966947 -1.11989e-15 -4.83518e-16)
(0.966947 -8.43158e-16 -4.80652e-16)
(0.969992 -1.08801e-15 -4.8103e-16)
(0.969992 -8.3742e-16 -4.87885e-16)
(0.973027 -1.05538e-15 -4.83013e-16)
(0.973027 -8.37067e-16 -4.96231e-16)
(0.976051 -1.02843e-15 -4.81779e-16)
(0.976051 -8.35382e-16 -4.90899e-16)
(0.979065 -1.00905e-15 -4.77853e-16)
(0.979065 -8.43474e-16 -4.72468e-16)
(0.982068 -9.93662e-16 -4.66413e-16)
(0.982068 -8.33486e-16 -4.58982e-16)
(0.98506 -9.68294e-16 -4.48259e-16)
(0.98506 -8.25154e-16 -4.55915e-16)
(0.988042 -9.36838e-16 -4.53667e-16)
(0.988042 -8.08472e-16 -4.42691e-16)
(0.991012 -9.53715e-16 -4.44394e-16)
(0.991012 -7.89907e-16 -4.3188e-16)
(0.993972 -9.57001e-16 -4.37827e-16)
(0.993972 -7.96546e-16 -4.31226e-16)
(0.99692 -9.49946e-16 -4.30863e-16)
(0.99692 -7.96149e-16 -4.23383e-16)
(0.999857 -9.36568e-16 -4.26226e-16)
(0.999857 -8.02247e-16 -4.07105e-16)
(1.00278 -9.17845e-16 -4.1489e-16)
(1.00278 -8.12762e-16 -4.08842e-16)
(1.0057 -8.99369e-16 -4.07298e-16)
(1.0057 -8.16047e-16 -4.00059e-16)
(1.0086 -8.90285e-16 -4.0035e-16)
(1.0086 -8.24373e-16 -4.01851e-16)
(1.01149 -8.75461e-16 -3.91211e-16)
(1.01149 -8.47478e-16 -3.98187e-16)
(1.01437 -8.69928e-16 -3.84169e-16)
(1.01437 -8.54588e-16 -3.96225e-16)
(1.01723 -8.59396e-16 -3.88416e-16)
(1.01723 -8.52661e-16 -3.98046e-16)
(1.02008 -8.6041e-16 -4.03655e-16)
(1.02008 -8.60821e-16 -4.09559e-16)
(1.02292 -8.71078e-16 -3.88377e-16)
(1.02292 -8.42249e-16 -4.12079e-16)
(1.02575 -8.64572e-16 -3.80737e-16)
(1.02575 -8.29536e-16 -4.24125e-16)
(1.02856 -8.65125e-16 -3.79536e-16)
(1.02856 -8.04064e-16 -4.28185e-16)
(1.03136 -8.51954e-16 -3.73768e-16)
(1.03136 -7.94537e-16 -4.24292e-16)
(1.03414 -8.33161e-16 -3.64723e-16)
(1.03414 -7.9668e-16 -4.40106e-16)
(1.03691 -8.2405e-16 -3.72046e-16)
(1.03691 -7.9221e-16 -4.50927e-16)
(1.03966 -8.23062e-16 -3.89146e-16)
(1.03966 -7.47023e-16 -4.53063e-16)
(1.0424 -7.85001e-16 -3.78653e-16)
(1.0424 -7.21988e-16 -4.86316e-16)
(1.04512 -7.82321e-16 -3.70667e-16)
(1.04512 -7.47142e-16 -5.07013e-16)
(1.04782 -7.41308e-16 -3.90428e-16)
(1.04782 -7.6293e-16 -5.01211e-16)
(1.05051 -7.12449e-16 -3.88448e-16)
(1.05051 -7.50179e-16 -4.81508e-16)
(1.05317 -7.01676e-16 -4.1155e-16)
(1.05317 -7.18484e-16 -4.96295e-16)
(1.05582 -6.83101e-16 -4.12575e-16)
(1.05582 -6.66578e-16 -4.91306e-16)
(1.05845 -6.59089e-16 -4.67013e-16)
(1.05845 -6.64324e-16 -4.78798e-16)
(1.06106 -5.72187e-16 -4.59435e-16)
(1.06106 -6.77222e-16 -4.8673e-16)
(1.06365 -6.55707e-16 -4.90978e-16)
(1.06365 -6.48405e-16 -4.72803e-16)
(1.06622 -6.60691e-16 -5.13424e-16)
(1.06622 -6.64253e-16 -4.92489e-16)
(1.06876 -5.97592e-16 -5.41847e-16)
(1.06876 -6.62611e-16 -4.89355e-16)
(1.07128 -6.68808e-16 -5.50107e-16)
(1.07128 -6.33894e-16 -4.36768e-16)
(1.07378 -6.56626e-16 -4.9404e-16)
(1.07378 -6.63071e-16 -4.31431e-16)
(1.07624 -6.46973e-16 -4.8206e-16)
(1.07624 -6.65397e-16 -4.29415e-16)
(1.07869 -6.58929e-16 -4.92683e-16)
(1.07869 -6.38666e-16 -4.23657e-16)
(1.0811 -6.60168e-16 -4.64526e-16)
(1.0811 -6.6553e-16 -4.18569e-16)
(1.08348 -6.19611e-16 -4.87217e-16)
(1.08348 -6.5227e-16 -4.36955e-16)
(1.08584 -5.92231e-16 -4.8386e-16)
(1.08584 -6.11243e-16 -4.28442e-16)
(1.08816 -6.66693e-16 -4.4806e-16)
(1.08816 -5.96769e-16 -4.17473e-16)
(1.09044 -6.28828e-16 -3.73071e-16)
(1.09044 -6.00255e-16 -3.9004e-16)
(1.09269 -5.78952e-16 -3.90441e-16)
(1.09269 -6.27242e-16 -3.71472e-16)
(1.09491 -5.55442e-16 -4.45805e-16)
(1.09491 -5.96436e-16 -3.74914e-16)
(1.09708 -5.50105e-16 -4.55123e-16)
(1.09708 -5.37188e-16 -3.79292e-16)
(1.0992 -5.75931e-16 -4.86549e-16)
(1.0992 -5.52515e-16 -3.49586e-16)
(1.10129 -5.95642e-16 -4.48414e-16)
(1.10129 -5.60445e-16 -3.03981e-16)
(1.10332 -5.37653e-16 -4.38119e-16)
(1.10332 -5.38948e-16 -3.06889e-16)
(1.10531 -5.03206e-16 -4.21192e-16)
(1.10531 -5.64848e-16 -3.50483e-16)
(1.10724 -4.93793e-16 -4.48014e-16)
(1.10724 -5.51284e-16 -3.7787e-16)
(1.10911 -5.03331e-16 -4.38002e-16)
(1.10911 -5.47916e-16 -4.21304e-16)
(1.11093 -4.8891e-16 -4.00813e-16)
(1.11093 -5.67978e-16 -3.62923e-16)
(1.11268 -5.38263e-16 -4.26493e-16)
(1.11268 -5.59502e-16 -4.40274e-16)
(1.11435 -5.17597e-16 -4.15971e-16)
(1.11435 -5.66788e-16 -4.67661e-16)
(1.11596 -5.18939e-16 -3.36366e-16)
(1.11596 -5.51823e-16 -3.35251e-16)
(1.11748 -5.16458e-16 -3.2902e-16)
(1.11748 -5.30109e-16 -3.17402e-16)
(1.11893 -5.35663e-16 -4.09206e-16)
(1.11893 -5.13162e-16 -3.14085e-16)
(1.12028 -5.64817e-16 -4.17508e-16)
(1.12028 -4.54395e-16 -3.28959e-16)
(1.12153 -5.49034e-16 -3.65828e-16)
(1.12153 -4.25686e-16 -2.23137e-16)
(1.12268 -5.11495e-16 -2.92383e-16)
(1.12268 -4.58823e-16 -1.63228e-16)
(1.12371 -4.74132e-16 -2.37996e-16)
(1.12371 -4.14148e-16 -1.80545e-16)
(1.12463 -4.4949e-16 -2.64442e-16)
(1.12463 -4.17971e-16 -1.5278e-16)
(1.12541 -4.22821e-16 -2.74012e-16)
(1.12541 -4.73491e-16 -1.28271e-16)
(1.12606 -3.35534e-16 -2.60997e-16)
(1.12606 -4.19781e-16 -1.58735e-16)
(1.12656 -3.65292e-16 -2.49882e-16)
(1.12656 -3.74709e-16 -1.37876e-16)
(1.12691 -3.42725e-16 -1.89183e-16)
(1.12691 -3.22069e-16 -1.19179e-16)
(1.12708 -3.48474e-16 -1.21318e-16)
(1.12708 -3.232e-16 -1.59598e-16)
(0.00220287 1.54092e-21 4.78837e-18)
(0.00220287 5.27201e-21 -1.26341e-18)
(0.0066489 -4.61659e-19 1.24607e-17)
(0.0066489 -1.09642e-19 -2.1634e-17)
(0.0111771 -8.70613e-19 1.0865e-17)
(0.0111771 -2.15141e-19 -2.24398e-17)
(0.0157889 -1.37186e-18 1.49223e-17)
(0.0157889 -3.47973e-19 -2.32673e-17)
(0.0204858 -1.90209e-18 1.82829e-17)
(0.0204858 -4.82568e-19 -2.41168e-17)
(0.0252694 -2.44585e-18 2.11235e-17)
(0.0252694 -6.28896e-19 -2.49887e-17)
(0.0301413 -2.99722e-18 2.24642e-17)
(0.0301413 -7.69936e-19 -2.58836e-17)
(0.0351031 -3.55769e-18 2.32821e-17)
(0.0351031 -9.31228e-19 -2.68011e-17)
(0.0401564 -4.12618e-18 2.41252e-17)
(0.0401564 -1.10288e-18 -2.77412e-17)
(0.0453028 -4.73787e-18 2.49945e-17)
(0.0453028 -1.2682e-18 -2.87058e-17)
(0.0505441 -5.36484e-18 2.58888e-17)
(0.0505441 -1.46228e-18 -2.96943e-17)
(0.055882 -5.98475e-18 2.68095e-17)
(0.055882 -1.66314e-18 -3.07062e-17)
(0.0613181 -6.65318e-18 2.77573e-17)
(0.0613181 -1.88785e-18 -3.1743e-17)
(0.0668543 -7.39957e-18 2.87335e-17)
(0.0668543 -2.09798e-18 -3.28053e-17)
(0.0724922 -8.14595e-18 2.97363e-17)
(0.0724922 -2.25256e-18 -3.38891e-17)
(0.0782338 -8.85847e-18 3.07671e-17)
(0.0782338 -2.44555e-18 -3.49957e-17)
(0.0840808 -9.62226e-18 3.18268e-17)
(0.0840808 -2.71691e-18 -3.61286e-17)
(0.090035 -1.04283e-17 3.29126e-17)
(0.090035 -2.95909e-18 -3.72852e-17)
(0.0960981 -1.12227e-17 3.40267e-17)
(0.0960981 -3.23667e-18 -3.8467e-17)
(0.102272 -1.20231e-17 3.517e-17)
(0.102272 -3.60973e-18 -3.96751e-17)
(0.108558 -1.28422e-17 3.63415e-17)
(0.108558 -3.9287e-18 -4.09049e-17)
(0.114959 -1.36466e-17 3.75425e-17)
(0.114959 -4.18578e-18 -4.21558e-17)
(0.121476 -1.45013e-17 3.87726e-17)
(0.121476 -4.52076e-18 -4.34311e-17)
(0.128109 -1.53902e-17 4.00329e-17)
(0.128109 -4.94773e-18 -4.47275e-17)
(0.134862 -1.61948e-17 4.13209e-17)
(0.134862 -5.44471e-18 -4.60362e-17)
(0.141735 -1.70247e-17 4.26396e-17)
(0.141735 -5.90812e-18 -4.73631e-17)
(0.148729 -1.80158e-17 4.39834e-17)
(0.148729 -6.20458e-18 -4.87066e-17)
(0.155845 -1.90218e-17 4.5348e-17)
(0.155845 -6.56757e-18 -5.00555e-17)
(0.163084 -2.0067e-17 4.67334e-17)
(0.163084 -6.93759e-18 -5.14108e-17)
(0.170446 -2.11738e-17 4.81383e-17)
(0.170446 -7.3797e-18 -5.27766e-17)
(0.177931 -2.22638e-17 4.95618e-17)
(0.177931 -7.94436e-18 -5.41414e-17)
(0.185538 -2.33697e-17 5.09999e-17)
(0.185538 -8.46717e-18 -5.55091e-17)
(0.193267 -2.45368e-17 5.24486e-17)
(0.193267 -8.99104e-18 -5.68636e-17)
(0.201115 -2.58667e-17 5.38976e-17)
(0.201115 -9.4854e-18 -5.8205e-17)
(0.20908 -2.72113e-17 5.53364e-17)
(0.20908 -9.92084e-18 -5.95172e-17)
(0.21716 -2.85711e-17 5.6766e-17)
(0.21716 -1.04277e-17 -6.07976e-17)
(0.225349 -2.97298e-17 5.81678e-17)
(0.225349 -1.10344e-17 -6.205e-17)
(0.233645 -3.09438e-17 5.95503e-17)
(0.233645 -1.16607e-17 -6.32629e-17)
(0.242041 -3.24776e-17 6.08943e-17)
(0.242041 -1.24195e-17 -6.44243e-17)
(0.25053 -3.38137e-17 6.21922e-17)
(0.25053 -1.30554e-17 -6.55137e-17)
(0.259105 -3.50911e-17 6.34435e-17)
(0.259105 -1.34642e-17 -6.65097e-17)
(0.267758 -3.65364e-17 6.46448e-17)
(0.267758 -1.45866e-17 -6.74214e-17)
(0.276479 -3.79767e-17 6.57829e-17)
(0.276479 -1.55793e-17 -6.8241e-17)
(0.285259 -3.94623e-17 6.6843e-17)
(0.285259 -1.62658e-17 -6.89615e-17)
(0.294086 -4.10606e-17 6.78102e-17)
(0.294086 -1.68125e-17 -6.95805e-17)
(0.30295 -4.26736e-17 6.86763e-17)
(0.30295 -1.73607e-17 -7.00789e-17)
(0.311839 -4.45452e-17 6.94352e-17)
(0.311839 -1.86146e-17 -7.04462e-17)
(0.320741 -4.60836e-17 7.00886e-17)
(0.320741 -1.95138e-17 -7.06662e-17)
(0.329643 -4.73556e-17 7.06439e-17)
(0.329643 -2.01432e-17 -7.07769e-17)
(0.338534 -4.8821e-17 7.10814e-17)
(0.338534 -2.13702e-17 -7.0765e-17)
(0.347402 -5.01149e-17 7.13959e-17)
(0.347402 -2.28732e-17 -7.0606e-17)
(0.356236 -5.15196e-17 7.15946e-17)
(0.356236 -2.36798e-17 -7.03306e-17)
(0.365024 -5.35115e-17 7.16954e-17)
(0.365024 -2.51033e-17 -6.99686e-17)
(0.373757 -5.57119e-17 7.16905e-17)
(0.373757 -2.68284e-17 -6.94674e-17)
(0.382425 -5.73211e-17 7.15995e-17)
(0.382425 -2.75053e-17 -6.88791e-17)
(0.391019 -5.88471e-17 7.14177e-17)
(0.391019 -2.90171e-17 -6.82151e-17)
(0.399533 -6.09322e-17 7.115e-17)
(0.399533 -2.99238e-17 -6.74457e-17)
(0.407959 -6.27046e-17 7.07718e-17)
(0.407959 -3.00264e-17 -6.65371e-17)
(0.416291 -6.4358e-17 7.03006e-17)
(0.416291 -3.10307e-17 -6.5494e-17)
(0.424524 -6.60027e-17 6.97546e-17)
(0.424524 -3.2341e-17 -6.43832e-17)
(0.432654 -6.68583e-17 7.02892e-17)
(0.432654 -3.4065e-17 -6.31924e-17)
(0.440678 -6.83131e-17 7.10016e-17)
(0.440678 -3.51808e-17 -6.20083e-17)
(0.448594 -7.05101e-17 7.16792e-17)
(0.448594 -3.61263e-17 -6.07002e-17)
(0.456399 -7.25714e-17 7.22909e-17)
(0.456399 -3.67391e-17 -5.92983e-17)
(0.464092 -7.42859e-17 7.27891e-17)
(0.464092 -3.76907e-17 -5.78173e-17)
(0.471673 -7.57277e-17 7.32853e-17)
(0.471673 -3.90294e-17 -5.62455e-17)
(0.479141 -7.70505e-17 7.3876e-17)
(0.479141 -4.01648e-17 -5.46739e-17)
(0.486497 -7.83654e-17 7.43705e-17)
(0.486497 -4.17862e-17 -5.30306e-17)
(0.493742 -7.97433e-17 7.47361e-17)
(0.493742 -4.46175e-17 -5.11957e-17)
(0.500876 -8.09503e-17 7.51718e-17)
(0.500876 -4.64881e-17 -4.94475e-17)
(0.507902 -8.24129e-17 7.58173e-17)
(0.507902 -4.74711e-17 -4.78378e-17)
(0.51482 -8.342e-17 7.64789e-17)
(0.51482 -4.97538e-17 -4.62398e-17)
(0.521632 -8.42395e-17 7.71211e-17)
(0.521632 -5.11175e-17 -4.4563e-17)
(0.528341 -8.61097e-17 7.77514e-17)
(0.528341 -5.23656e-17 -4.29347e-17)
(0.534948 -8.98577e-17 7.82117e-17)
(0.534948 -5.25916e-17 -4.1425e-17)
(0.541455 -9.25399e-17 7.85446e-17)
(0.541455 -5.32799e-17 -3.97369e-17)
(0.547865 -9.28836e-17 7.9137e-17)
(0.547865 -5.37024e-17 -3.83217e-17)
(0.554181 -9.47449e-17 8.00341e-17)
(0.554181 -5.49897e-17 -3.71158e-17)
(0.560404 -9.68718e-17 8.04059e-17)
(0.560404 -5.69595e-17 -3.54372e-17)
(0.566537 -9.81737e-17 8.07654e-17)
(0.566537 -5.70708e-17 -3.3742e-17)
(0.572582 -9.96264e-17 8.14251e-17)
(0.572582 -5.89188e-17 -3.22882e-17)
(0.578541 -1.01757e-16 8.22268e-17)
(0.578541 -5.96965e-17 -3.08991e-17)
(0.584417 -1.04561e-16 8.29861e-17)
(0.584417 -5.97617e-17 -2.94027e-17)
(0.590213 -1.06363e-16 8.34443e-17)
(0.590213 -6.15054e-17 -2.76921e-17)
(0.59593 -1.0757e-16 8.38389e-17)
(0.59593 -6.3236e-17 -2.56385e-17)
(0.60157 -1.08771e-16 8.44304e-17)
(0.60157 -6.3693e-17 -2.26614e-17)
(0.607137 -1.08823e-16 8.52974e-17)
(0.607137 -6.56183e-17 -1.97534e-17)
(0.612631 -1.10124e-16 8.60192e-17)
(0.612631 -6.63127e-17 -1.68437e-17)
(0.618055 -1.11998e-16 8.685e-17)
(0.618055 -6.57767e-17 -1.39438e-17)
(0.623411 -1.13423e-16 8.76529e-17)
(0.623411 -6.68475e-17 -1.10704e-17)
(0.628702 -1.16164e-16 8.83003e-17)
(0.628702 -6.70669e-17 -8.28396e-18)
(0.633928 -1.16953e-16 8.88832e-17)
(0.633928 -6.65731e-17 -5.41151e-18)
(0.639092 -1.18768e-16 9.0071e-17)
(0.639092 -6.78662e-17 -2.68527e-18)
(0.644196 -1.22406e-16 9.07885e-17)
(0.644196 -7.09458e-17 -3.95791e-20)
(0.649242 -1.2549e-16 9.16579e-17)
(0.649242 -7.01419e-17 2.40193e-18)
(0.65423 -1.28167e-16 9.26833e-17)
(0.65423 -6.76709e-17 4.87854e-18)
(0.659163 -1.31664e-16 9.37095e-17)
(0.659163 -6.82737e-17 7.19688e-18)
(0.664042 -1.35086e-16 9.45141e-17)
(0.664042 -6.86189e-17 9.59603e-18)
(0.66887 -1.3631e-16 9.51838e-17)
(0.66887 -6.92925e-17 1.17554e-17)
(0.673647 -1.37762e-16 9.58321e-17)
(0.673647 -7.25312e-17 1.37578e-17)
(0.678374 -1.38854e-16 9.68787e-17)
(0.678374 -7.41954e-17 1.56902e-17)
(0.683055 -1.39463e-16 9.83544e-17)
(0.683055 -7.50201e-17 1.74787e-17)
(0.687688 -1.40645e-16 9.99037e-17)
(0.687688 -7.93523e-17 1.89907e-17)
(0.692277 -1.41428e-16 1.01101e-16)
(0.692277 -7.97355e-17 2.03004e-17)
(0.696822 -1.40858e-16 1.02841e-16)
(0.696822 -7.63509e-17 2.14584e-17)
(0.701324 -1.4132e-16 1.04722e-16)
(0.701324 -7.81473e-17 2.25612e-17)
(0.705785 -1.42966e-16 1.06541e-16)
(0.705785 -7.70167e-17 2.36829e-17)
(0.710206 -1.44663e-16 1.08239e-16)
(0.710206 -7.45575e-17 2.50047e-17)
(0.714588 -1.47749e-16 1.10181e-16)
(0.714588 -7.64258e-17 2.60426e-17)
(0.718931 -1.52215e-16 1.12941e-16)
(0.718931 -7.83193e-17 2.6806e-17)
(0.723238 -1.54663e-16 1.14429e-16)
(0.723238 -7.67497e-17 2.76088e-17)
(0.727509 -1.55558e-16 1.16344e-16)
(0.727509 -7.3698e-17 2.83056e-17)
(0.731745 -1.55998e-16 1.17933e-16)
(0.731745 -7.43584e-17 2.88508e-17)
(0.735947 -1.57022e-16 1.20256e-16)
(0.735947 -7.56502e-17 2.92613e-17)
(0.740116 -1.59075e-16 1.22633e-16)
(0.740116 -7.5413e-17 2.96689e-17)
(0.744252 -1.58771e-16 1.24563e-16)
(0.744252 -7.36463e-17 2.97802e-17)
(0.748358 -1.58292e-16 1.27104e-16)
(0.748358 -6.9227e-17 2.99292e-17)
(0.752432 -1.60996e-16 1.29121e-16)
(0.752432 -7.09302e-17 2.99521e-17)
(0.756477 -1.62389e-16 1.30207e-16)
(0.756477 -7.26736e-17 2.98509e-17)
(0.760493 -1.608e-16 1.31807e-16)
(0.760493 -7.25722e-17 2.96476e-17)
(0.764481 -1.58582e-16 1.3364e-16)
(0.764481 -7.26101e-17 2.87199e-17)
(0.768441 -1.56382e-16 1.36334e-16)
(0.768441 -7.34492e-17 2.76762e-17)
(0.772374 -1.59116e-16 1.39171e-16)
(0.772374 -7.3768e-17 2.64024e-17)
(0.776281 -1.60991e-16 1.40148e-16)
(0.776281 -7.30117e-17 2.58666e-17)
(0.780163 -1.59994e-16 1.41615e-16)
(0.780163 -7.05907e-17 2.52449e-17)
(0.78402 -1.61636e-16 1.42927e-16)
(0.78402 -7.26072e-17 2.47859e-17)
(0.787852 -1.64807e-16 1.44753e-16)
(0.787852 -8.07585e-17 2.38499e-17)
(0.791661 -1.69288e-16 1.4712e-16)
(0.791661 -7.96066e-17 2.21696e-17)
(0.795447 -1.73538e-16 1.49862e-16)
(0.795447 -7.70348e-17 2.08237e-17)
(0.799211 -1.7391e-16 1.51471e-16)
(0.799211 -7.93387e-17 1.65237e-17)
(0.802952 -1.76007e-16 1.51813e-16)
(0.802952 -8.07113e-17 1.12232e-17)
(0.806672 -1.79425e-16 1.53683e-16)
(0.806672 -7.86835e-17 7.21076e-18)
(0.810372 -1.77719e-16 1.55949e-16)
(0.810372 -7.85642e-17 7.28487e-18)
(0.81405 -1.80921e-16 1.58861e-16)
(0.81405 -8.43018e-17 7.53923e-18)
(0.817709 -1.88753e-16 1.62244e-16)
(0.817709 -8.63322e-17 6.40192e-18)
(0.821348 -1.94423e-16 1.63113e-16)
(0.821348 -8.06679e-17 5.05343e-18)
(0.824968 -1.98171e-16 1.63075e-16)
(0.824968 -8.15838e-17 5.50656e-18)
(0.82857 -1.99317e-16 1.6477e-16)
(0.82857 -8.63127e-17 6.19731e-18)
(0.832153 -1.9654e-16 1.68477e-16)
(0.832153 -9.21294e-17 5.91676e-18)
(0.835719 -1.99516e-16 1.7082e-16)
(0.835719 -1.03174e-16 5.08771e-18)
(0.839267 -2.09443e-16 1.72363e-16)
(0.839267 -1.04847e-16 7.68209e-18)
(0.842798 -2.14671e-16 1.75884e-16)
(0.842798 -1.04173e-16 9.43227e-18)
(0.846312 -2.12708e-16 1.77449e-16)
(0.846312 -1.10921e-16 8.02722e-18)
(0.84981 -2.07648e-16 1.81601e-16)
(0.84981 -1.12953e-16 6.39762e-18)
(0.853292 -2.06839e-16 1.85035e-16)
(0.853292 -1.15875e-16 6.45541e-18)
(0.856758 -2.10335e-16 1.88423e-16)
(0.856758 -1.22274e-16 1.28682e-17)
(0.860209 -2.18016e-16 1.94486e-16)
(0.860209 -1.26606e-16 1.85681e-17)
(0.863645 -2.23079e-16 1.98214e-16)
(0.863645 -1.32631e-16 2.38176e-17)
(0.867066 -2.2319e-16 2.03476e-16)
(0.867066 -1.36804e-16 2.73552e-17)
(0.870473 -2.23906e-16 2.06816e-16)
(0.870473 -1.4647e-16 3.01358e-17)