/*--------------------------------*- C++ -*----------------------------------*\
| =========                 |                                                 |
| \\      /  F ield         | OpenFOAM: The Open Source CFD Toolbox           |
|  \\    /   O peration     | Version:  2106                                  |
|   \\  /    A nd           | Website:  www.openfoam.com                      |
|    \\/     M anipulation  |                                                 |
\*---------------------------------------------------------------------------*/
FoamFile
{
    version     2.0;
    format      ascii;
    arch        "LSB;label=32;scalar=64";
    class       volVectorField;
    location    "10030";
    object      grad(T);
}
// * * * * * * * * * * * * * * * * * * * * * * * * * * * * * * * * * * * * * //

dimensions      [0 -1 0 1 0 0 0];

internalField   nonuniform List<vector> 
2000
(
(1.14425e-16 281.193 0.520386)
(-1.14425e-16 281.193 0.520386)
(0 281.193 1.57087)
(0 281.193 1.57087)
(-6.39534e-17 281.192 2.18013)
(0 281.192 2.18013)
(-6.42579e-16 281.192 2.22082)
(1.27133e-15 281.192 2.22082)
(0 281.191 2.26227)
(-8.50121e-16 281.191 2.26227)
(0 281.189 2.30448)
(-2.0362e-15 281.189 2.30448)
(0 281.188 2.34749)
(4.29045e-15 281.188 2.34749)
(0 281.185 2.39129)
(6.55839e-15 281.185 2.39129)
(-9.79537e-16 281.183 2.4359)
(0 281.183 2.4359)
(1.55007e-15 281.18 2.48134)
(0 281.18 2.48134)
(4.56499e-15 281.176 2.52762)
(0 281.176 2.52762)
(4.46441e-15 281.171 2.57475)
(2.91988e-15 281.171 2.57475)
(0 281.164 2.62274)
(0 281.164 2.62274)
(-1.82406e-15 281.156 2.67161)
(0 281.156 2.67161)
(-2.00254e-15 281.145 2.72136)
(-2.82631e-15 281.145 2.72136)
(4.95886e-15 281.131 2.77201)
(-8.73737e-15 281.131 2.77201)
(0 281.113 2.82355)
(0 281.113 2.82355)
(5.11636e-15 281.09 2.87599)
(1.55803e-14 281.09 2.87599)
(-2.75034e-15 281.061 2.92933)
(-5.24954e-15 281.061 2.92933)
(2.94608e-15 281.022 2.98355)
(1.17843e-14 281.022 2.98355)
(-3.14546e-15 280.973 3.03865)
(2.51637e-14 280.973 3.03865)
(4.96621e-15 280.91 3.09459)
(8.42797e-15 280.91 3.09459)
(0 280.831 3.15136)
(1.90968e-14 280.831 3.15136)
(4.78586e-15 280.731 3.20891)
(1.02785e-14 280.731 3.20891)
(-3.98066e-15 280.605 3.26719)
(0 280.605 3.26719)
(0 280.449 3.32612)
(1.67967e-14 280.449 3.32612)
(-4.42172e-15 280.255 3.38562)
(4.52756e-15 280.255 3.38562)
(-4.64832e-15 280.016 3.44558)
(0 280.016 3.44558)
(0 279.725 3.50588)
(-4.36315e-15 279.725 3.50588)
(-5.11392e-15 279.37 3.56636)
(-2.90221e-14 279.37 3.56636)
(5.35299e-15 278.942 3.62685)
(1.30025e-14 278.942 3.62685)
(0 278.428 3.68713)
(-8.25531e-15 278.428 3.68713)
(-5.84383e-15 277.816 3.74697)
(0 277.816 3.74697)
(-6.09562e-15 277.091 3.80611)
(0 277.091 3.80611)
(0 276.237 3.86425)
(2.54066e-14 276.237 3.86425)
(0 275.239 3.92105)
(0 275.239 3.92105)
(6.87633e-15 274.081 3.97618)
(2.75053e-14 274.081 3.97618)
(-7.14487e-15 272.746 4.02925)
(2.85795e-14 272.746 4.02925)
(-1.46703e-14 271.217 4.07988)
(0 271.217 4.07988)
(0 269.48 4.12767)
(3.07756e-14 269.48 4.12767)
(-1.59483e-14 267.519 4.17222)
(1.79176e-14 267.519 4.17222)
(0 265.323 4.21316)
(0 265.323 4.21316)
(0 262.881 4.2501)
(1.34713e-14 262.881 4.2501)
(-8.83556e-15 260.186 4.28272)
(-4.85667e-14 260.186 4.28272)
(9.12884e-15 257.235 4.31072)
(3.65154e-14 257.235 4.31072)
(9.42475e-15 254.025 4.33387)
(-3.7699e-14 254.025 4.33387)
(-9.72296e-15 250.562 4.35198)
(3.88918e-14 250.562 4.35198)
(0 246.851 4.36492)
(8.01851e-14 246.851 4.36492)
(1.03249e-14 242.904 4.37266)
(5.33562e-14 242.904 4.37266)
(1.30429e-14 238.735 4.3752)
(-6.61829e-14 238.735 4.3752)
(2.32372e-14 234.361 4.37264)
(0 234.361 4.37264)
(-2.26421e-14 229.802 4.36511)
(0 229.802 4.36511)
(0 225.08 4.35281)
(1.11967e-14 225.08 4.35281)
(0 220.219 4.33601)
(-4.73815e-14 220.219 4.33601)
(1.21492e-14 215.244 4.31499)
(-2.15801e-14 215.244 4.31499)
(-1.2452e-14 210.178 4.29006)
(0 210.178 4.29006)
(-4.63038e-14 205.047 4.26158)
(7.18112e-14 205.047 4.26158)
(-1.30538e-14 199.873 4.22988)
(0 199.873 4.22988)
(-2.67041e-14 194.681 4.19534)
(-5.34083e-14 194.681 4.19534)
(1.36483e-14 189.491 4.15831)
(-5.45933e-14 189.491 4.15831)
(-1.93135e-14 184.322 4.11913)
(-1.93135e-14 184.322 4.11913)
(-4.74272e-14 179.192 4.07813)
(1.13871e-13 179.192 4.07813)
(-1.45227e-14 174.116 4.03562)
(5.80908e-14 174.116 4.03562)
(0 169.11 3.99191)
(0 169.11 3.99191)
(-1.5092e-14 164.184 3.94727)
(6.03679e-14 164.184 3.94727)
(0 159.349 3.90193)
(0 159.349 3.90193)
(-1.56493e-14 154.613 3.85614)
(0 154.613 3.85614)
(1.69682e-14 149.983 3.81009)
(-1.69682e-14 149.983 3.81009)
(0 145.465 3.76397)
(6.4776e-14 145.465 3.76397)
(0 141.061 3.71793)
(0 141.061 3.71793)
(-1.67259e-14 136.777 3.67211)
(6.69037e-14 136.777 3.67211)
(0 132.612 3.62665)
(6.79481e-14 132.612 3.62665)
(-1.72449e-14 128.568 3.58163)
(-6.89797e-14 128.568 3.58163)
(0 124.645 3.53716)
(-6.99985e-14 124.645 3.53716)
(-3.55023e-14 120.843 3.49331)
(7.10046e-14 120.843 3.49331)
(-3.59991e-14 117.16 3.45014)
(0 117.16 3.45014)
(0 113.595 3.4077)
(7.29793e-14 113.595 3.4077)
(-1.84871e-14 110.146 3.36604)
(-7.39483e-14 110.146 3.36604)
(1.87263e-14 106.81 3.32519)
(0 106.81 3.32519)
(1.89626e-14 103.586 3.28516)
(-7.58504e-14 103.586 3.28516)
(-3.8392e-14 100.469 3.246)
(0 100.469 3.246)
(0 97.4582 3.20769)
(0 97.4582 3.20769)
(1.96543e-14 94.5494 3.17026)
(-1.57234e-13 94.5494 3.17026)
(1.98794e-14 91.74 3.13369)
(0 91.74 3.13369)
(0 89.0266 3.09801)
(8.0407e-14 89.0266 3.09801)
(2.03216e-14 86.4063 3.06319)
(8.12862e-14 86.4063 3.06319)
(6.68478e-15 83.876 3.02923)
(0 83.876 3.02923)
(-1.80636e-14 81.4325 2.99612)
(8.30144e-14 81.4325 2.99612)
(2.0966e-14 79.0729 2.96385)
(1.67728e-13 79.0729 2.96385)
(-2.1176e-14 76.7941 2.93241)
(0 76.7941 2.93241)
(-4.27675e-14 74.5933 2.90178)
(8.55349e-14 74.5933 2.90178)
(-2.15892e-14 72.4675 2.87195)
(8.63569e-14 72.4675 2.87195)
(-2.13729e-14 70.4141 2.84291)
(0 70.4141 2.84291)
(2.19937e-14 68.4302 2.81462)
(8.79749e-14 68.4302 2.81462)
(2.21929e-14 66.5135 2.78709)
(8.87714e-14 66.5135 2.78709)
(-2.239e-14 64.6612 2.76028)
(8.95599e-14 64.6612 2.76028)
(2.25851e-14 62.8709 2.73419)
(0 62.8709 2.73419)
(-2.27784e-14 61.1404 2.70879)
(7.16284e-14 61.1404 2.70879)
(3.84171e-15 59.4674 2.68407)
(1.91281e-14 59.4674 2.68407)
(-2.31593e-14 57.8495 2.66001)
(5.50823e-14 57.8495 2.66001)
(6.02141e-14 56.2849 2.63659)
(5.65218e-14 56.2849 2.63659)
(0 54.7713 2.6138)
(5.79418e-14 54.7713 2.6138)
(0 53.307 2.59161)
(-9.48709e-14 53.307 2.59161)
(0 51.89 2.57002)
(9.56022e-14 51.89 2.57002)
(-2.40818e-14 50.5185 2.54899)
(0 50.5185 2.54899)
(-2.42615e-14 49.1908 2.52853)
(9.70461e-14 49.1908 2.52853)
(0 47.9053 2.50861)
(3.29947e-14 47.9053 2.50861)
(0 46.6604 2.48922)
(0 46.6604 2.48922)
(8.83849e-14 45.4545 2.47033)
(9.91674e-14 45.4545 2.47033)
(-6.24805e-15 44.2862 2.45195)
(6.86494e-14 44.2862 2.45195)
(0 43.1541 2.43404)
(1.00554e-13 43.1541 2.43404)
(-5.06195e-14 42.0569 2.41661)
(1.01239e-13 42.0569 2.41661)
(2.54798e-14 40.9933 2.39963)
(1.01919e-13 40.9933 2.39963)
(2.8988e-14 39.9621 2.38309)
(-1.31582e-13 39.9621 2.38309)
(0 38.962 2.36699)
(-2.84568e-14 38.962 2.36699)
(-5.19652e-14 37.992 2.3513)
(0 37.992 2.3513)
(2.86991e-14 37.0509 2.33601)
(-5.48469e-14 37.0509 2.33601)
(0 36.1377 2.32112)
(-1.32169e-13 36.1377 2.32112)
(1.05805e-13 35.2515 2.3066)
(-5.28553e-14 35.2515 2.3066)
(5.32743e-14 34.3912 2.29246)
(8.06052e-14 34.3912 2.29246)
(-2.67981e-14 33.556 2.27868)
(1.07192e-13 33.556 2.27868)
(5.39162e-14 32.745 2.26524)
(0 32.745 2.26524)
(2.71171e-14 31.9572 2.25215)
(1.08468e-13 31.9572 2.25215)
(-2.72751e-14 31.192 2.23938)
(-4.81867e-14 31.192 2.23938)
(2.36519e-14 30.4485 2.22694)
(2.19458e-13 30.4485 2.22694)
(-7.40254e-14 29.726 2.2148)
(4.64369e-14 29.726 2.2148)
(0 29.0238 2.20296)
(2.2195e-13 29.0238 2.20296)
(1.68524e-14 28.3411 2.19142)
(-4.47506e-14 28.3411 2.19142)
(4.39306e-14 27.6774 2.18016)
(1.12208e-13 27.6774 2.18016)
(2.82047e-14 27.032 2.16918)
(2.25637e-13 27.032 2.16918)
(-2.83567e-14 26.4042 2.15846)
(1.13427e-13 26.4042 2.15846)
(2.85079e-14 25.7935 2.148)
(7.24721e-14 25.7935 2.148)
(-5.73167e-14 25.1993 2.13779)
(7.38355e-14 25.1993 2.13779)
(0 24.6211 2.12783)
(2.30465e-13 24.6211 2.12783)
(0 24.0584 2.11811)
(7.65119e-14 24.0584 2.11811)
(-2.91054e-14 23.5106 2.10861)
(-3.8596e-14 23.5106 2.10861)
(2.9253e-14 22.9773 2.09934)
(0 22.9773 2.09934)
(0 22.458 2.09028)
(-3.71944e-14 22.458 2.09028)
(-2.95462e-14 21.9522 2.08144)
(0 21.9522 2.08144)
(-2.96918e-14 21.4596 2.07279)
(-1.18767e-13 21.4596 2.07279)
(-6.50237e-14 20.9797 2.06435)
(2.38694e-13 20.9797 2.06435)
(0 20.5121 2.05609)
(1.19925e-13 20.5121 2.05609)
(3.78418e-15 20.0565 2.04802)
(8.65908e-14 20.0565 2.04802)
(0 19.6123 2.04013)
(8.7785e-14 19.6123 2.04013)
(-9.57664e-14 19.1794 2.03241)
(1.21643e-13 19.1794 2.03241)
(-3.2079e-14 18.7574 2.02486)
(1.54291e-13 18.7574 2.02486)
(-3.06944e-14 18.3458 2.01747)
(0 18.3458 2.01747)
(-3.08354e-14 17.9445 2.01024)
(0 17.9445 2.01024)
(-3.09759e-14 17.5531 2.00316)
(0 17.5531 2.00316)
(3.11159e-14 17.1712 1.99622)
(-1.54255e-13 17.1712 1.99622)
(5.84911e-14 16.7987 1.98942)
(-5.84911e-14 16.7987 1.98942)
(0 16.4351 1.98276)
(0 16.4351 1.98276)
(5.97163e-14 16.0804 1.97623)
(0 16.0804 1.97623)
(-5.93379e-14 15.7341 1.96982)
(1.26683e-13 15.7341 1.96982)
(-8.61286e-14 15.3961 1.96353)
(1.27233e-13 15.3961 1.96353)
(-3.19454e-14 15.0661 1.95736)
(0 15.0661 1.95736)
(0 14.7438 1.9513)
(1.28328e-13 14.7438 1.9513)
(-3.22183e-14 14.4291 1.94534)
(-1.28873e-13 14.4291 1.94534)
(3.23541e-14 14.1218 1.93948)
(1.29417e-13 14.1218 1.93948)
(3.24895e-14 13.8215 1.93371)
(1.29958e-13 13.8215 1.93371)
(3.26245e-14 13.5281 1.92804)
(0 13.5281 1.92804)
(0 13.2415 1.92244)
(1.31036e-13 13.2415 1.92244)
(-7.97427e-14 12.9614 1.91693)
(4.68495e-14 12.9614 1.91693)
(0 12.6876 1.9115)
(1.32108e-13 12.6876 1.9115)
(1.19878e-14 12.4199 1.90613)
(-4.51482e-14 12.4199 1.90613)
(0 12.1583 1.90083)
(0 12.1583 1.90083)
(0 11.9024 1.89558)
(1.33704e-13 11.9024 1.89558)
(0 11.6522 1.89039)
(1.34233e-13 11.6522 1.89039)
(-3.36901e-14 11.4074 1.88525)
(0 11.4074 1.88525)
(-3.38216e-14 11.168 1.88016)
(0 11.168 1.88016)
(-3.39528e-14 10.9338 1.8751)
(0 10.9338 1.8751)
(2.85015e-14 10.7046 1.87007)
(9.66687e-14 10.7046 1.87007)
(-6.37033e-14 10.4804 1.86507)
(1.36856e-13 10.4804 1.86507)
(-3.82253e-14 10.2608 1.8601)
(1.37377e-13 10.2608 1.8601)
(-3.44739e-14 10.0459 1.85513)
(-3.75249e-14 10.0459 1.85513)
(-7.14406e-14 9.83552 1.85018)
(0 9.83552 1.85018)
(0 9.62949 1.84523)
(0 9.62949 1.84523)
(0 9.42771 1.84028)
(1.39445e-13 9.42771 1.84028)
(-3.49895e-14 9.23006 1.83532)
(-1.39958e-13 9.23006 1.83532)
(0 9.03643 1.83035)
(0 9.03643 1.83035)
(-1.02412e-13 8.84671 1.82535)
(-3.15546e-13 8.84671 1.82535)
(-6.83407e-14 8.66078 1.82032)
(0 8.66078 1.82032)
(0 8.47854 1.81526)
(0 8.47854 1.81526)
(3.17709e-14 8.29989 1.81015)
(1.10734e-13 8.29989 1.81015)
(-7.15052e-14 8.12472 1.80499)
(2.86021e-13 8.12472 1.80499)
(-3.06172e-14 7.95294 1.79977)
(1.74132e-13 7.95294 1.79977)
(-3.60042e-14 7.78445 1.79448)
(0 7.78445 1.79448)
(0 7.61916 1.78912)
(-1.44518e-13 7.61916 1.78912)
(-3.62544e-14 7.45697 1.78367)
(-5.79294e-14 7.45697 1.78367)
(0 7.2978 1.77812)
(1.45516e-13 7.2978 1.77812)
(0 7.14156 1.77248)
(1.46012e-13 7.14156 1.77248)
(3.66269e-14 6.98815 1.76671)
(2.93015e-13 6.98815 1.76671)
(3.67503e-14 6.83751 1.76082)
(1.47001e-13 6.83751 1.76082)
(0 6.68954 1.75479)
(1.47493e-13 6.68954 1.75479)
(3.69959e-14 6.54417 1.74862)
(1.47984e-13 6.54417 1.74862)
(-3.71181e-14 6.40131 1.74228)
(2.96945e-13 6.40131 1.74228)
(-3.72399e-14 6.26089 1.73577)
(-1.4896e-13 6.26089 1.73577)
(0 6.12283 1.72908)
(0 6.12283 1.72908)
(-3.74822e-14 5.98706 1.72218)
(-4.8148e-14 5.98706 1.72218)
(-7.52054e-14 5.8535 1.71507)
(0 5.8535 1.71507)
(-3.77227e-14 5.72207 1.70773)
(1.50891e-13 5.72207 1.70773)
(4.55493e-14 5.59271 1.70014)
(-4.55493e-14 5.59271 1.70014)
(-3.79614e-14 5.46534 1.69228)
(0 5.46534 1.69228)
(-4.38952e-14 5.33989 1.68414)
(-4.38952e-14 5.33989 1.68414)
(3.81979e-14 5.2163 1.67569)
(3.05584e-13 5.2163 1.67569)
(7.66309e-14 5.09448 1.66692)
(-1.53262e-13 5.09448 1.66692)
(3.53387e-14 4.97437 1.65781)
(4.15261e-14 4.97437 1.65781)
(7.70974e-14 4.8559 1.64832)
(3.0839e-13 4.8559 1.64832)
(3.86645e-14 4.739 1.63844)
(1.1464e-13 4.739 1.63844)
(3.87796e-14 4.62359 1.62814)
(1.55118e-13 4.62359 1.62814)
(-3.8894e-14 4.50961 1.61738)
(1.55576e-13 4.50961 1.61738)
(-3.90078e-14 4.39699 1.60615)
(0 4.39699 1.60615)
(0 4.28565 1.5944)
(1.56484e-13 4.28565 1.5944)
(-7.84665e-14 4.17552 1.58211)
(1.2045e-13 4.17552 1.58211)
(-3.93448e-14 4.06653 1.56922)
(0 4.06653 1.56922)
(3.51586e-14 3.95859 1.55572)
(3.15645e-13 3.95859 1.55572)
(0 3.85164 1.54154)
(-3.45143e-14 3.85164 1.54154)
(3.96745e-14 3.74559 1.52665)
(-1.9258e-13 3.74559 1.52665)
(3.97826e-14 3.64035 1.51099)
(0 3.64035 1.51099)
(-1.44765e-14 3.53585 1.49452)
(0 3.53585 1.49452)
(1.58854e-14 3.43199 1.47716)
(-6.41064e-14 3.43199 1.47716)
(0 3.32868 1.45886)
(1.60404e-13 3.32868 1.45886)
(0 3.22583 1.43954)
(1.60819e-13 3.22583 1.43954)
(4.03076e-14 3.12334 1.41914)
(1.6123e-13 3.12334 1.41914)
(0 3.02109 1.39756)
(-2.21171e-13 3.02109 1.39756)
(-4.05092e-14 2.91899 1.37473)
(0 2.91899 1.37473)
(-4.06079e-14 2.81689 1.35053)
(1.62432e-13 2.81689 1.35053)
(0 2.71469 1.32486)
(1.62821e-13 2.71469 1.32486)
(1.44888e-14 2.61225 1.2976)
(-1.63204e-13 2.61225 1.2976)
(4.0895e-14 2.50941 1.26863)
(3.2716e-13 2.50941 1.26863)
(0 2.40604 1.23779)
(1.63949e-13 2.40604 1.23779)
(-4.10777e-14 2.30197 1.20495)
(0 2.30197 1.20495)
(4.11662e-14 2.19701 1.16991)
(1.64665e-13 2.19701 1.16991)
(5.95597e-14 2.09098 1.1325)
(1.6501e-13 2.09098 1.1325)
(-4.13367e-14 1.98369 1.09251)
(1.65347e-13 1.98369 1.09251)
(4.85757e-14 1.87493 1.04972)
(0 1.87493 1.04972)
(4.14976e-14 1.76446 1.00388)
(0 1.76446 1.00388)
(-8.31482e-14 1.65206 0.954739)
(1.66296e-13 1.65206 0.954739)
(0 1.53748 0.902013)
(0 1.53748 0.902013)
(0 1.42049 0.845408)
(0 1.42049 0.845408)
(4.17852e-14 1.30083 0.784614)
(1.67141e-13 1.30083 0.784614)
(-4.18487e-14 1.17828 0.719311)
(2.10869e-13 1.17828 0.719311)
(-4.19084e-14 1.0526 0.649181)
(-4.2677e-14 1.0526 0.649181)
(0 0.923605 0.573906)
(-4.1895e-14 0.923605 0.573906)
(0 0.791144 0.493187)
(-1.6806e-13 0.791144 0.493187)
(-4.20611e-14 0.655115 0.406754)
(0 0.655115 0.406754)
(-2.46835e-15 0.515479 0.314372)
(1.68409e-13 0.515479 0.314372)
(0 0.372275 0.215859)
(1.68551e-13 0.372275 0.215859)
(-4.21672e-14 0.225626 0.111091)
(0 0.225626 0.111091)
(-7.96849e-14 1.55489e-06 5.75508e-07)
(3.7513e-13 1.00306e-06 3.71259e-07)
(0 281.193 -0.520386)
(-1.14425e-16 281.193 -0.520386)
(-2.24656e-16 281.193 -1.57087)
(0 281.193 -1.57087)
(-1.27907e-16 281.192 -2.18013)
(0 281.192 -2.18013)
(2.09584e-16 281.192 -2.22082)
(-4.32995e-16 281.192 -2.22082)
(1.34257e-16 281.191 -2.26227)
(-8.50121e-16 281.191 -2.26227)
(5.0905e-16 281.189 -2.30448)
(-8.34543e-16 281.189 -2.30448)
(-8.1925e-16 281.188 -2.34749)
(0 281.188 -2.34749)
(1.6396e-15 281.185 -2.39129)
(0 281.185 -2.39129)
(-9.79537e-16 281.183 -2.4359)
(3.91815e-15 281.183 -2.4359)
(4.24239e-15 281.18 -2.48134)
(-7.66915e-15 281.18 -2.48134)
(1.09436e-15 281.176 -2.52762)
(-5.23204e-15 281.176 -2.52762)
(1.47686e-15 281.171 -2.57475)
(0 281.171 -2.57475)
(-1.64886e-15 281.164 -2.62274)
(-6.59542e-15 281.164 -2.62274)
(2.87907e-15 281.156 -2.67161)
(-1.01753e-14 281.156 -2.67161)
(2.00254e-15 281.145 -2.72136)
(-1.08365e-14 281.145 -2.72136)
(-2.77452e-15 281.131 -2.77201)
(0 281.131 -2.77201)
(2.36954e-15 281.113 -2.82355)
(-1.22018e-14 281.113 -2.82355)
(2.55818e-15 281.09 -2.87599)
(1.02327e-14 281.09 -2.87599)
(2.75034e-15 281.061 -2.92933)
(0 281.061 -2.92933)
(5.89216e-15 281.022 -2.98355)
(0 281.022 -2.98355)
(3.14546e-15 280.973 -3.03865)
(7.52293e-15 280.973 -3.03865)
(8.31475e-15 280.91 -3.09459)
(8.42797e-15 280.91 -3.09459)
(-3.5554e-15 280.831 -3.15136)
(0 280.831 -3.15136)
(7.53216e-15 280.731 -3.20891)
(0 280.731 -3.20891)
(3.98066e-15 280.605 -3.26719)
(0 280.605 -3.26719)
(4.61207e-15 280.449 -3.32612)
(0 280.449 -3.32612)
(-4.52756e-15 280.255 -3.38562)
(0 280.255 -3.38562)
(9.29665e-15 280.016 -3.44558)
(0 280.016 -3.44558)
(4.87904e-15 279.725 -3.50588)
(1.95162e-14 279.725 -3.50588)
(1.02278e-14 279.37 -3.56636)
(0 279.37 -3.56636)
(5.35299e-15 278.942 -3.62685)
(0 278.942 -3.62685)
(5.59629e-15 278.428 -3.68713)
(-8.25531e-15 278.428 -3.68713)
(5.84383e-15 277.816 -3.74697)
(-1.52713e-14 277.816 -3.74697)
(0 277.091 -3.80611)
(-2.43825e-14 277.091 -3.80611)
(0 276.237 -3.86425)
(0 276.237 -3.86425)
(6.61191e-15 275.239 -3.92105)
(-2.64476e-14 275.239 -3.92105)
(6.22652e-15 274.081 -3.97618)
(0 274.081 -3.97618)
(-7.14487e-15 272.746 -4.02925)
(-2.85795e-14 272.746 -4.02925)
(-1.64583e-16 271.217 -4.07988)
(-6.65923e-14 271.217 -4.07988)
(-7.6939e-15 269.48 -4.12767)
(0 269.48 -4.12767)
(-7.97413e-15 267.519 -4.17222)
(0 267.519 -4.17222)
(-8.25795e-15 265.323 -4.21316)
(-6.60636e-14 265.323 -4.21316)
(1.70903e-14 262.881 -4.2501)
(0 262.881 -4.2501)
(8.83556e-15 260.186 -4.28272)
(-3.53422e-14 260.186 -4.28272)
(1.82577e-14 257.235 -4.31072)
(3.65154e-14 257.235 -4.31072)
(9.42475e-15 254.025 -4.33387)
(-3.7699e-14 254.025 -4.33387)
(-1.94459e-14 250.562 -4.35198)
(-3.88918e-14 250.562 -4.35198)
(7.76484e-15 246.851 -4.36492)
(5.2374e-14 246.851 -4.36492)
(0 242.904 -4.37266)
(0 242.904 -4.37266)
(-1.0628e-14 238.735 -4.3752)
(-1.08695e-13 238.735 -4.3752)
(1.0932e-14 234.361 -4.37264)
(-5.53464e-14 234.361 -4.37264)
(1.12364e-14 229.802 -4.36511)
(0 229.802 -4.36511)
(0 225.08 -4.35281)
(-9.2328e-14 225.08 -4.35281)
(1.18454e-14 220.219 -4.33601)
(0 220.219 -4.33601)
(2.42983e-14 215.244 -4.31499)
(0 215.244 -4.31499)
(0 210.178 -4.29006)
(-4.98081e-14 210.178 -4.29006)
(1.27537e-14 205.047 -4.26158)
(0 205.047 -4.26158)
(3.34692e-14 199.873 -4.22988)
(-7.26305e-14 199.873 -4.22988)
(0 194.681 -4.19534)
(-5.34083e-14 194.681 -4.19534)
(1.96741e-14 189.491 -4.15831)
(-7.42674e-14 189.491 -4.15831)
(-5.37123e-15 184.322 -4.11913)
(1.93135e-14 184.322 -4.11913)
(0 179.192 -4.07813)
(-1.89596e-14 179.192 -4.07813)
(5.17471e-14 174.116 -4.03562)
(-1.86122e-14 174.116 -4.03562)
(1.48088e-14 169.11 -3.99191)
(-1.82711e-14 169.11 -3.99191)
(0 164.184 -3.94727)
(-6.03679e-14 164.184 -3.94727)
(0 159.349 -3.90193)
(0 159.349 -3.90193)
(1.56493e-14 154.613 -3.85614)
(-6.25971e-14 154.613 -3.85614)
(0 149.983 -3.81009)
(-6.36929e-14 149.983 -3.81009)
(0 145.465 -3.76397)
(1.66573e-14 145.465 -3.76397)
(-1.64616e-14 141.061 -3.71793)
(1.31693e-13 141.061 -3.71793)
(0 136.777 -3.67211)
(0 136.777 -3.67211)
(1.6987e-14 132.612 -3.62665)
(-6.79481e-14 132.612 -3.62665)
(3.27144e-14 128.568 -3.58163)
(-8.44492e-14 128.568 -3.58163)
(3.0372e-14 124.645 -3.53716)
(-1.39997e-13 124.645 -3.53716)
(-2.84341e-15 120.843 -3.49331)
(-1.49077e-14 120.843 -3.49331)
(2.92691e-14 117.16 -3.45014)
(0 117.16 -3.45014)
(-2.87328e-14 113.595 -3.4077)
(1.01712e-13 113.595 -3.4077)
(9.71919e-15 110.146 -3.36604)
(-3.23999e-13 110.146 -3.36604)
(3.74526e-14 106.81 -3.32519)
(-7.49052e-14 106.81 -3.32519)
(-1.89626e-14 103.586 -3.28516)
(0 103.586 -3.28516)
(-1.9196e-14 100.469 -3.246)
(-7.67839e-14 100.469 -3.246)
(-3.88531e-14 97.4582 -3.20769)
(-1.03901e-13 97.4582 -3.20769)
(-1.96543e-14 94.5494 -3.17026)
(-1.82949e-13 94.5494 -3.17026)
(3.97587e-14 91.74 -3.13369)
(-7.95174e-14 91.74 -3.13369)
(-4.67934e-15 89.0266 -3.09801)
(1.05188e-13 89.0266 -3.09801)
(0 86.4063 -3.06319)
(8.12862e-14 86.4063 -3.06319)
(-3.34239e-15 83.876 -3.02923)
(-8.21553e-14 83.876 -3.02923)
(-6.49508e-14 81.4325 -2.99612)
(8.30144e-14 81.4325 -2.99612)
(2.0966e-14 79.0729 -2.96385)
(-2.3014e-14 79.0729 -2.96385)
(1.41627e-15 76.7941 -2.93241)
(0 76.7941 -2.93241)
(2.21783e-14 74.5933 -2.90178)
(-2.21783e-14 74.5933 -2.90178)
(2.15892e-14 72.4675 -2.87195)
(8.63569e-14 72.4675 -2.87195)
(4.27458e-14 70.4141 -2.84291)
(-8.71702e-14 70.4141 -2.84291)
(4.19625e-14 68.4302 -2.81462)
(-4.19625e-14 68.4302 -2.81462)
(2.21929e-14 66.5135 -2.78709)
(4.75779e-14 66.5135 -2.78709)
(0 64.6612 -2.76028)
(-4.04387e-14 64.6612 -2.76028)
(0 62.8709 -2.73419)
(-1.80681e-13 62.8709 -2.73419)
(0 61.1404 -2.70879)
(0 61.1404 -2.70879)
(2.29698e-14 59.4674 -2.68407)
(-9.1879e-14 59.4674 -2.68407)
(6.07144e-14 57.8495 -2.66001)
(-3.75551e-14 57.8495 -2.66001)
(2.33472e-14 56.2849 -2.63659)
(2.23644e-13 56.2849 -2.63659)
(2.35333e-14 54.7713 -2.6138)
(0 54.7713 -2.6138)
(2.37177e-14 53.307 -2.59161)
(-9.48709e-14 53.307 -2.59161)
(2.39006e-14 51.89 -2.57002)
(6.07251e-14 51.89 -2.57002)
(0 50.5185 -2.54899)
(0 50.5185 -2.54899)
(-2.42615e-14 49.1908 -2.52853)
(-9.70461e-14 49.1908 -2.52853)
(0 47.9053 -2.50861)
(-3.29947e-14 47.9053 -2.50861)
(3.23901e-14 46.6604 -2.48922)
(-3.23901e-14 46.6604 -2.48922)
(0 45.4545 -2.47033)
(3.17965e-14 45.4545 -2.47033)
(6.24277e-14 44.2862 -2.45195)
(-1.62291e-13 44.2862 -2.45195)
(-3.06419e-14 43.1541 -2.43404)
(-3.06419e-14 43.1541 -2.43404)
(0 42.0569 -2.41661)
(-3.00804e-14 42.0569 -2.41661)
(-3.35785e-14 40.9933 -2.39963)
(0 40.9933 -2.39963)
(-2.56486e-14 39.9621 -2.38309)
(0 39.9621 -2.38309)
(-2.58162e-14 38.962 -2.36699)
(-2.84568e-14 38.962 -2.36699)
(2.59826e-14 37.992 -2.3513)
(-2.79354e-14 37.992 -2.3513)
(0 37.0509 -2.33601)
(-2.74235e-14 37.0509 -2.33601)
(-2.57031e-14 36.1377 -2.32112)
(-2.10496e-13 36.1377 -2.32112)
(0 35.2515 -2.3066)
(0 35.2515 -2.3066)
(2.66371e-14 34.3912 -2.29246)
(0 34.3912 -2.29246)
(2.54679e-14 33.556 -2.27868)
(5.62566e-14 33.556 -2.27868)
(0 32.745 -2.26524)
(-1.07832e-13 32.745 -2.26524)
(0 31.9572 -2.25215)
(-1.08468e-13 31.9572 -2.25215)
(-2.72751e-14 31.192 -2.23938)
(-1.09101e-13 31.192 -2.23938)
(0 30.4485 -2.22694)
(1.09729e-13 30.4485 -2.22694)
(2.75885e-14 29.726 -2.2148)
(0 29.726 -2.2148)
(5.54876e-14 29.0238 -2.20296)
(1.10975e-13 29.0238 -2.20296)
(-2.78983e-14 28.3411 -2.19142)
(1.11593e-13 28.3411 -2.19142)
(-4.39306e-14 27.6774 -2.18016)
(0 27.6774 -2.18016)
(2.82047e-14 27.032 -2.16918)
(0 27.032 -2.16918)
(2.83567e-14 26.4042 -2.15846)
(1.13427e-13 26.4042 -2.15846)
(2.85079e-14 25.7935 -2.148)
(7.24721e-14 25.7935 -2.148)
(2.86584e-14 25.1993 -2.13779)
(0 25.1993 -2.13779)
(0 24.6211 -2.12783)
(-1.15232e-13 24.6211 -2.12783)
(6.82735e-14 24.0584 -2.11811)
(-3.93164e-14 24.0584 -2.11811)
(-2.91054e-14 23.5106 -2.10861)
(-3.8596e-14 23.5106 -2.10861)
(3.78887e-14 22.9773 -2.09934)
(-3.78887e-14 22.9773 -2.09934)
(-7.79451e-15 22.458 -2.09028)
(0 22.458 -2.09028)
(5.90924e-14 21.9522 -2.08144)
(0 21.9522 -2.08144)
(0 21.4596 -2.07279)
(0 21.4596 -2.07279)
(-5.35012e-15 20.9797 -2.06435)
(2.73881e-13 20.9797 -2.06435)
(3.45421e-14 20.5121 -2.05609)
(-3.45421e-14 20.5121 -2.05609)
(-6.40342e-14 20.0565 -2.04802)
(0 20.0565 -2.04802)
(-3.02682e-14 19.6123 -2.04013)
(0 19.6123 -2.04013)
(0 19.1794 -2.03241)
(0 19.1794 -2.03241)
(3.05529e-14 18.7574 -2.02486)
(0 18.7574 -2.02486)
(3.14912e-14 18.3458 -2.01747)
(0 18.3458 -2.01747)
(6.16708e-14 17.9445 -2.01024)
(-1.23342e-13 17.9445 -2.01024)
(6.19518e-14 17.5531 -2.00316)
(-1.23904e-13 17.5531 -2.00316)
(-1.32437e-15 17.1712 -1.99622)
(-3.7339e-13 17.1712 -1.99622)
(-3.12553e-14 16.7987 -1.98942)
(0 16.7987 -1.98942)
(0 16.4351 -1.98276)
(1.25577e-13 16.4351 -1.98276)
(-5.63671e-14 16.0804 -1.97623)
(-2.81836e-14 16.0804 -1.97623)
(3.16708e-14 15.7341 -1.96982)
(0 15.7341 -1.96982)
(-3.18083e-14 15.3961 -1.96353)
(-1.54393e-13 15.3961 -1.96353)
(0 15.0661 -1.95736)
(0 15.0661 -1.95736)
(3.20821e-14 14.7438 -1.9513)
(1.28328e-13 14.7438 -1.9513)
(6.44367e-14 14.4291 -1.94534)
(-1.28873e-13 14.4291 -1.94534)
(0 14.1218 -1.93948)
(-1.29417e-13 14.1218 -1.93948)
(3.24895e-14 13.8215 -1.93371)
(0 13.8215 -1.93371)
(0 13.5281 -1.92804)
(-1.30498e-13 13.5281 -1.92804)
(0 13.2415 -1.92244)
(-3.09796e-13 13.2415 -1.92244)
(0 12.9614 -1.91693)
(-4.68495e-14 12.9614 -1.91693)
(6.60539e-14 12.6876 -1.9115)
(1.32108e-13 12.6876 -1.9115)
(3.31603e-14 12.4199 -1.90613)
(0 12.4199 -1.90613)
(0 12.1583 -1.90083)
(1.77494e-13 12.1583 -1.90083)
(3.3426e-14 11.9024 -1.89558)
(-1.33704e-13 11.9024 -1.89558)
(0 11.6522 -1.89039)
(-1.34233e-13 11.6522 -1.89039)
(0 11.4074 -1.88525)
(0 11.4074 -1.88525)
(3.38216e-14 11.168 -1.88016)
(-1.76447e-13 11.168 -1.88016)
(6.79056e-14 10.9338 -1.8751)
(-1.35811e-13 10.9338 -1.8751)
(3.40836e-14 10.7046 -1.87007)
(1.36334e-13 10.7046 -1.87007)
(6.84281e-14 10.4804 -1.86507)
(9.79174e-14 10.4804 -1.86507)
(3.43442e-14 10.2608 -1.8601)
(0 10.2608 -1.8601)
(3.05093e-15 10.0459 -1.85513)
(-3.75249e-14 10.0459 -1.85513)
(3.46033e-14 9.83552 -1.85018)
(-1.38413e-13 9.83552 -1.85018)
(3.47324e-14 9.62949 -1.84523)
(1.3893e-13 9.62949 -1.84523)
(6.97223e-14 9.42771 -1.84028)
(0 9.42771 -1.84028)
(0 9.23006 -1.83532)
(1.39958e-13 9.23006 -1.83532)
(-3.51176e-14 9.03643 -1.83035)
(-1.74681e-13 9.03643 -1.83035)
(7.04905e-14 8.84671 -1.82535)
(-1.74565e-13 8.84671 -1.82535)
(-3.53726e-14 8.66078 -1.82032)
(-3.15949e-13 8.66078 -1.82032)
(3.54996e-14 8.47854 -1.81526)
(-1.74363e-13 8.47854 -1.81526)
(-3.17709e-14 8.29989 -1.81015)
(1.10734e-13 8.29989 -1.81015)
(4.03165e-14 8.12472 -1.80499)
(1.4301e-13 8.12472 -1.80499)
(9.7113e-14 7.95294 -1.79977)
(-2.04749e-13 7.95294 -1.79977)
(-2.41081e-14 7.78445 -1.79448)
(0 7.78445 -1.79448)
(0 7.61916 -1.78912)
(-1.74023e-13 7.61916 -1.78912)
(0 7.45697 -1.78367)
(-1.45017e-13 7.45697 -1.78367)
(0 7.2978 -1.77812)
(-2.02384e-13 7.2978 -1.77812)
(0 7.14156 -1.77248)
(0 7.14156 -1.77248)
(3.66269e-14 6.98815 -1.76671)
(0 6.98815 -1.76671)
(3.67503e-14 6.83751 -1.76082)
(1.47001e-13 6.83751 -1.76082)
(3.68733e-14 6.68954 -1.75479)
(-5.28127e-14 6.68954 -1.75479)
(0 6.54417 -1.74862)
(1.47984e-13 6.54417 -1.74862)
(0 6.40131 -1.74228)
(0 6.40131 -1.74228)
(4.99623e-14 6.26089 -1.73577)
(-1.98922e-13 6.26089 -1.73577)
(-4.90467e-14 6.12283 -1.72908)
(-4.90467e-14 6.12283 -1.72908)
(-3.74822e-14 5.98706 -1.72218)
(0 5.98706 -1.72218)
(-3.76027e-14 5.8535 -1.71507)
(-1.50411e-13 5.8535 -1.71507)
(8.6768e-15 5.72207 -1.70773)
(-1.97291e-13 5.72207 -1.70773)
(0 5.59271 -1.70014)
(0 5.59271 -1.70014)
(4.47146e-14 5.46534 -1.69228)
(-3.03691e-13 5.46534 -1.69228)
(0 5.33989 -1.68414)
(-1.96215e-13 5.33989 -1.68414)
(0 5.2163 -1.67569)
(0 5.2163 -1.67569)
(4.23012e-14 5.09448 -1.66692)
(-1.95563e-13 5.09448 -1.66692)
(3.09371e-15 4.97437 -1.65781)
(0 4.97437 -1.65781)
(7.70974e-14 4.8559 -1.64832)
(1.1343e-13 4.8559 -1.64832)
(7.73289e-14 4.739 -1.63844)
(0 4.739 -1.63844)
(7.75592e-14 4.62359 -1.62814)
(-1.55118e-13 4.62359 -1.62814)
(7.7459e-14 4.50961 -1.61738)
(-3.85649e-14 4.50961 -1.61738)
(-3.90078e-14 4.39699 -1.60615)
(0 4.39699 -1.60615)
(0 4.28565 -1.5944)
(1.56484e-13 4.28565 -1.5944)
(-3.92333e-14 4.17552 -1.58211)
(1.2045e-13 4.17552 -1.58211)
(0 4.06653 -1.56922)
(-1.57379e-13 4.06653 -1.56922)
(0 3.95859 -1.55572)
(-1.92981e-13 3.95859 -1.55572)
(-1.08594e-13 3.85164 -1.54154)
(-1.58262e-13 3.85164 -1.54154)
(7.93491e-14 3.74559 -1.52665)
(-1.58698e-13 3.74559 -1.52665)
(3.97826e-14 3.64035 -1.51099)
(0 3.64035 -1.51099)
(-6.5303e-14 3.53585 -1.49452)
(1.59559e-13 3.53585 -1.49452)
(0 3.43199 -1.47716)
(0 3.43199 -1.47716)
(0 3.32868 -1.45886)
(-1.60404e-13 3.32868 -1.45886)
(6.17784e-14 3.22583 -1.43954)
(-6.17784e-14 3.22583 -1.43954)
(-2.03388e-14 3.12334 -1.41914)
(1.6123e-13 3.12334 -1.41914)
(9.9944e-14 3.02109 -1.39756)
(-3.82807e-13 3.02109 -1.39756)
(0 2.91899 -1.37473)
(0 2.91899 -1.37473)
(-1.67652e-14 2.81689 -1.35053)
(0 2.81689 -1.35053)
(4.07052e-14 2.71469 -1.32486)
(-2.19143e-13 2.71469 -1.32486)
(-4.08009e-14 2.61225 -1.2976)
(1.07914e-13 2.61225 -1.2976)
(2.75134e-14 2.50941 -1.26863)
(1.6358e-13 2.50941 -1.26863)
(2.86926e-14 2.40604 -1.23779)
(0 2.40604 -1.23779)
(-1.12278e-14 2.30197 -1.20495)
(0 2.30197 -1.20495)
(4.11662e-14 2.19701 -1.16991)
(0 2.19701 -1.16991)
(-9.15358e-15 2.09098 -1.1325)
(-1.6501e-13 2.09098 -1.1325)
(4.13367e-14 1.98369 -1.09251)
(1.65347e-13 1.98369 -1.09251)
(0 1.87493 -1.04972)
(-1.65674e-13 1.87493 -1.04972)
(4.14976e-14 1.76446 -1.00388)
(-2.13676e-13 1.76446 -1.00388)
(4.15741e-14 1.65206 -0.954739)
(4.68118e-14 1.65206 -0.954739)
(0 1.53748 -0.902013)
(2.12545e-13 1.53748 -0.902013)
(0 1.42049 -0.845408)
(-3.33745e-13 1.42049 -0.845408)
(0 1.30083 -0.784614)
(-1.67141e-13 1.30083 -0.784614)
(4.18487e-14 1.17828 -0.719311)
(-1.67395e-13 1.17828 -0.719311)
(4.19084e-14 1.0526 -0.649181)
(1.67634e-13 1.0526 -0.649181)
(4.19639e-14 0.923605 -0.573906)
(-3.35711e-13 0.923605 -0.573906)
(8.40298e-14 0.791144 -0.493187)
(-1.6806e-13 0.791144 -0.493187)
(0 0.655115 -0.406754)
(0 0.655115 -0.406754)
(-8.1736e-14 0.515479 -0.314372)
(1.28775e-13 0.515479 -0.314372)
(0 0.372275 -0.215859)
(-2.07458e-13 0.372275 -0.215859)
(-4.21672e-14 0.225626 -0.111091)
(1.30474e-13 0.225626 -0.111091)
(4.21903e-14 1.60397e-06 -5.93674e-07)
(1.68988e-13 4.84078e-07 -1.79171e-07)
(7.97417e-14 -1.5565e-06 5.76106e-07)
(1.68761e-13 -1.00162e-06 3.70727e-07)
(-3.81946e-14 -0.225625 0.111091)
(2.99143e-13 -0.225625 0.111091)
(-4.21376e-14 -0.372275 0.215859)
(-3.89075e-14 -0.372275 0.215859)
(3.96338e-14 -0.515478 0.314371)
(1.28775e-13 -0.515478 0.314371)
(0 -0.655114 0.406753)
(3.36489e-13 -0.655114 0.406753)
(-4.20149e-14 -0.791144 0.493187)
(-1.6806e-13 -0.791144 0.493187)
(4.1895e-14 -0.923604 0.573905)
(0 -0.923604 0.573905)
(-4.19084e-14 -1.0526 0.64918)
(-1.67634e-13 -1.0526 0.64918)
(0 -1.17827 0.719311)
(0 -1.17827 0.719311)
(4.17852e-14 -1.30083 0.784613)
(4.42852e-14 -1.30083 0.784613)
(0 -1.42049 0.845408)
(1.66873e-13 -1.42049 0.845408)
(0 -1.53748 0.902013)
(1.66591e-13 -1.53748 0.902013)
(0 -1.65206 0.954738)
(0 -1.65206 0.954738)
(-4.14976e-14 -1.76446 1.00388)
(-1.65991e-13 -1.76446 1.00388)
(8.28369e-14 -1.87493 1.04972)
(-4.85757e-14 -1.87493 1.04972)
(0 -1.98369 1.09251)
(0 -1.98369 1.09251)
(1.32911e-13 -2.09098 1.1325)
(1.14604e-13 -2.09098 1.1325)
(-4.11662e-14 -2.19701 1.16991)
(-1.64665e-13 -2.19701 1.16991)
(-2.98499e-14 -2.30196 1.20495)
(-5.23055e-14 -2.30196 1.20495)
(-4.09873e-14 -2.40604 1.23779)