/*--------------------------------*- C++ -*----------------------------------*\
| =========                 |                                                 |
| \\      /  F ield         | OpenFOAM: The Open Source CFD Toolbox           |
|  \\    /   O peration     | Version:  2106                                  |
|   \\  /    A nd           | Website:  www.openfoam.com                      |
|    \\/     M anipulation  |                                                 |
\*---------------------------------------------------------------------------*/
FoamFile
{
    version     2.0;
    format      ascii;
    arch        "LSB;label=32;scalar=64";
    class       volTensorField;
    location    "10030";
    object      grad(U);
}
// * * * * * * * * * * * * * * * * * * * * * * * * * * * * * * * * * * * * * //

dimensions      [0 0 -1 0 0 0 0];

internalField   nonuniform List<tensor> 
2000
(
(0 8.13036e-30 -2.89893e-28 23.8201 -7.69007e-12 -1.08696e-41 0.0440864 -7.72379e-15 3.08149e-33)
(0 -3.56081e-29 -1.27037e-32 23.8201 0 -7.79911e-18 0.0440864 -8.90192e-30 4.08246e-17)
(0 2.80361e-29 1.0912e-32 23.8156 -9.72273e-14 1.36854e-15 0.133065 -3.66582e-16 9.17202e-17)
(-2.8082e-17 -2.23478e-29 -1.0912e-32 23.8156 -5.18012e-16 -4.01863e-18 0.133065 -1.52302e-18 1.05189e-18)
(-5.4256e-18 0 -2.04139e-29 23.811 7.57039e-28 -3.05684e-30 0.184593 8.07019e-46 8.28895e-17)
(0 6.26809e-30 6.12118e-33 23.811 1.24513e-16 6.94335e-20 0.184593 -1.13921e-19 1.10605e-18)
(-1.77613e-17 -7.48785e-30 -1.50225e-33 23.8063 4.70224e-13 -1.82551e-17 0.188001 -6.71888e-15 1.14151e-16)
(7.10452e-17 1.23065e-29 4.50676e-33 23.8063 -4.24967e-17 2.23245e-18 0.188001 1.8694e-19 1.18088e-18)
(0 6.04048e-30 5.8989e-33 23.8015 -4.22776e-15 -7.85294e-16 0.191471 -6.62182e-16 1.43012e-16)
(0 0 0 23.8015 -1.50188e-17 3.49134e-18 0.191471 7.27461e-19 1.27831e-18)
(0 -1.44807e-28 1.73724e-32 23.7966 -4.84948e-14 -1.07861e-15 0.195005 -1.96882e-16 1.56841e-16)
(-1.72482e-16 -1.48245e-29 -1.73724e-32 23.7966 -8.8518e-17 3.22872e-18 0.195005 1.16421e-18 1.39775e-18)
(0 -6.83015e-28 -1.13694e-32 23.7915 -2.55378e-15 -1.09217e-15 0.198602 -1.05616e-17 1.56521e-16)
(2.24609e-16 5.82112e-30 1.13694e-32 23.7915 -9.4635e-17 1.33702e-18 0.198602 1.5157e-18 1.53739e-18)
(0 -4.19711e-41 0 23.7864 6.37292e-28 -1.07647e-15 0.202266 3.15544e-30 1.56025e-16)
(5.55398e-16 2.85723e-30 5.58052e-33 23.7864 -1.07461e-16 4.87184e-19 0.202266 2.11104e-18 1.69623e-18)
(-8.29422e-17 2.68142e-30 -5.47826e-33 23.7812 9.19402e-16 -1.07855e-15 0.205995 -1.49624e-17 1.55382e-16)
(0 5.60974e-30 8.21739e-33 23.7812 -1.59961e-16 3.82593e-18 0.205995 2.63432e-18 1.88406e-18)
(0 -1.37674e-29 -5.37787e-33 23.7758 -2.12477e-16 -1.09153e-15 0.209792 -4.45101e-18 1.5459e-16)
(0 1.37674e-29 5.37787e-33 23.7758 -1.92064e-16 6.76573e-18 0.209792 3.03951e-18 2.11541e-18)
(1.90208e-16 -2.97332e-29 -3.69553e-32 23.7703 -5.58116e-16 -1.10877e-15 0.213658 -5.5003e-18 1.53671e-16)
(0 2.70301e-29 3.69553e-32 23.7703 -7.66411e-17 9.41567e-18 0.213658 3.31364e-18 2.3789e-18)
(1.25009e-16 -2.93306e-32 1.55477e-32 23.7645 -5.88783e-16 -1.12802e-15 0.217593 -5.18038e-18 1.39112e-16)
(5.00037e-16 0 -1.03652e-32 23.7645 1.36627e-16 1.12757e-17 0.217593 4.4539e-18 2.69073e-18)
(0 5.20972e-30 5.08761e-33 23.7586 -4.51293e-16 -1.14864e-15 0.221599 -3.14248e-18 1.20825e-16)
(0 -5.20972e-30 -5.08761e-33 23.7586 4.36949e-17 8.74833e-18 0.221599 6.07129e-18 3.03695e-18)
(-3.34304e-16 2.56974e-29 3.49607e-32 23.7524 -3.31019e-16 -1.16973e-15 0.225675 -3.0898e-18 1.01346e-16)
(0 -1.78999e-29 -2.99663e-32 23.7524 -9.40915e-17 9.60615e-18 0.225675 7.13846e-18 3.41546e-18)
(-6.99379e-16 1.02132e-29 1.96115e-32 23.746 -6.32622e-16 -1.19074e-15 0.229823 -9.0998e-18 8.0587e-17)
(0 0 -4.90286e-33 23.746 4.4504e-17 2.03086e-17 0.229823 8.46781e-18 3.84988e-18)
(8.78437e-16 -1.25388e-29 -2.88781e-32 23.7391 -1.24235e-15 -1.21289e-15 0.234043 -1.52307e-17 5.84777e-17)
(-1.08605e-15 7.3928e-30 2.40651e-32 23.7391 2.32452e-16 2.69838e-17 0.234043 1.02492e-17 4.37037e-18)
(3.40459e-16 -2.41911e-30 -1.88993e-32 23.7317 -1.37059e-15 -1.23571e-15 0.238336 -1.20189e-17 3.5027e-17)
(-3.40459e-16 2.41911e-30 1.88993e-32 23.7317 3.12721e-16 2.10876e-17 0.238336 1.18119e-17 4.93366e-18)
(7.6699e-16 -2.19904e-29 -4.63824e-32 23.7238 -9.63321e-16 -1.25721e-15 0.2427 -7.47019e-18 1.01778e-17)
(5.31317e-16 1.18739e-29 4.63824e-32 23.7238 6.16594e-17 2.08825e-17 0.2427 1.36643e-17 5.52961e-18)
(-2.3261e-16 1.20085e-29 3.84089e-34 23.7151 -7.91554e-16 -1.2766e-15 0.247135 -8.89114e-18 -1.34003e-17)
(-3.28096e-16 -4.66253e-30 9.1065e-33 23.7151 -1.04739e-16 2.98336e-17 0.247135 1.48105e-17 6.21181e-18)
(2.49133e-16 -2.68304e-30 -1.31348e-32 23.7054 -1.00558e-15 -1.29513e-15 0.251641 -1.22965e-17 -1.38519e-17)
(9.96531e-16 4.57709e-30 2.68189e-32 23.7054 1.52547e-16 2.60837e-17 0.251641 1.56382e-17 6.98609e-18)
(-2.65959e-16 2.68338e-30 8.2234e-33 23.6946 -1.10852e-15 -1.31427e-15 0.256214 -1.1453e-17 -1.43192e-17)
(2.12767e-15 0 0 23.6946 6.84414e-17 2.17277e-17 0.256214 1.78424e-17 7.78269e-18)
(-3.10388e-16 8.82175e-30 2.5845e-32 23.6824 -8.99679e-16 -1.33257e-15 0.260854 -8.15797e-18 -1.47771e-17)
(1.13238e-15 -4.41088e-30 -8.61499e-33 23.6824 -2.16112e-16 2.97895e-17 0.260854 1.88806e-17 8.68282e-18)
(3.047e-16 -1.29901e-29 -1.69143e-32 23.6684 -7.98523e-16 -1.3493e-15 0.265555 -9.61394e-18 -1.52343e-17)
(8.97467e-16 1.29901e-29 2.53714e-32 23.6684 -1.68748e-16 3.54856e-17 0.265555 1.92998e-17 9.69201e-18)
(0 4.2507e-30 2.49065e-32 23.6523 -1.05445e-15 -1.36619e-15 0.270314 -1.43174e-17 -1.57201e-17)
(1.27323e-15 0 -8.30215e-33 23.6523 -1.00392e-16 4.48078e-17 0.270314 2.07444e-17 1.08001e-17)
(-3.36397e-16 2.68376e-30 -2.4018e-33 23.6335 -1.22416e-15 -1.38268e-15 0.275125 -1.39292e-17 -1.61925e-17)
(0 4.17281e-30 3.26001e-32 23.6335 2.95844e-17 5.12597e-17 0.275125 2.26062e-17 1.20433e-17)
(5.76509e-16 -1.63854e-29 -6.40054e-32 23.6116 -1.27702e-15 -1.39696e-15 0.27998 -1.61111e-17 -1.66514e-17)
(8.42746e-16 1.63854e-29 6.40054e-32 23.6116 -3.0372e-17 4.70342e-17 0.27998 2.4748e-17 1.33748e-17)
(1.92382e-16 -9.38003e-30 -1.589e-32 23.5859 -1.366e-15 -1.40946e-15 0.28487 -1.66045e-17 -1.71048e-17)
(0 1.20638e-29 3.14162e-32 23.5859 -4.2149e-16 4.66826e-17 0.28487 2.52212e-17 1.47975e-17)
(-3.92648e-16 -5.67103e-30 3.18102e-32 23.5556 -6.55613e-16 -1.41966e-15 0.289785 -3.99821e-18 -1.75298e-17)
(0 7.89518e-30 0 23.5556 -4.99896e-16 5.75049e-17 0.289785 2.44909e-17 1.63569e-17)
(-5.45393e-16 7.75051e-30 4.54131e-32 23.5199 -4.67611e-16 -1.42585e-15 0.29471 -7.65531e-18 -1.79048e-17)
(0 -3.87525e-30 -3.02754e-32 23.5199 -3.68948e-16 7.6301e-17 0.29471 2.57941e-17 1.80988e-17)
(-9.67238e-16 2.551e-29 1.22258e-31 23.4779 -7.54735e-16 -1.42852e-15 0.299631 -1.14847e-17 -1.82586e-17)
(-1.72735e-15 -1.5217e-29 -8.91619e-32 23.4779 -5.2813e-17 7.65829e-17 0.299631 2.683e-17 2.00533e-17)
(4.5195e-16 -6.41977e-30 -1.91997e-32 23.4285 -7.57036e-16 -1.43003e-15 0.304529 -8.00365e-18 -1.86187e-17)
(7.56623e-16 3.73453e-30 0 23.4285 2.07801e-16 6.673e-17 0.304529 2.96783e-17 2.20846e-17)
(0 1.09983e-29 4.2962e-32 23.3705 -8.10586e-16 -1.42798e-15 0.309383 -1.33371e-17 -1.88923e-17)
(-5.15957e-16 -7.33219e-30 -2.86414e-32 23.3705 -3.17507e-16 7.26315e-17 0.309383 3.43185e-17 2.42689e-17)
(-4.93211e-16 1.70787e-29 9.15471e-32 23.3026 -1.42235e-15 -1.4193e-15 0.31417 -2.4827e-17 -1.90858e-17)
(0 -1.43957e-29 -7.02913e-32 23.3026 -6.09836e-16 8.53763e-17 0.31417 3.52023e-17 2.66493e-17)
(-1.71386e-17 -8.49526e-31 -1.90798e-32 23.2234 -1.8251e-15 -1.40768e-15 0.318863 -2.49199e-17 -1.92847e-17)
(-4.97221e-16 7.06593e-30 6.90032e-32 23.2234 -1.14651e-16 9.49745e-17 0.318863 3.52371e-17 2.926e-17)
(0 -2.08093e-29 -8.12865e-32 23.1314 -1.67807e-15 -1.39312e-15 0.323432 -2.1642e-17 -1.93968e-17)
(2.1434e-15 2.08093e-29 8.12865e-32 23.1314 7.98012e-17 1.10482e-16 0.323432 3.99075e-17 3.20549e-17)
(0 1.36187e-29 6.64975e-32 23.0252 -1.68257e-15 -1.37698e-15 0.327846 -2.59873e-17 -1.95508e-17)
(-9.5833e-16 -1.0214e-29 -3.98985e-32 23.0252 4.85242e-17 1.23342e-16 0.327846 4.32964e-17 3.51323e-17)
(5.79843e-16 -2.68441e-30 -2.56685e-32 22.9032 -1.83844e-15 -1.35903e-15 0.33207 -2.69903e-17 -1.96054e-17)
(2.31937e-15 0 0 22.9032 5.37664e-17 1.16076e-16 0.33207 4.62663e-17 3.83827e-17)
(-1.52586e-15 -1.04385e-29 -1.01292e-31 22.7637 -1.60157e-15 -1.3362e-15 0.336069 -1.99497e-17 -1.96112e-17)
(2.40932e-15 1.31241e-29 1.53799e-31 22.7637 -5.54497e-16 1.19362e-16 0.336069 5.17456e-17 4.1767e-17)
(-6.25131e-16 -1.98608e-29 -9.76771e-32 22.6054 -1.39993e-15 -1.30518e-15 0.339805 -2.19226e-17 -1.94081e-17)
(0 2.25464e-29 1.5098e-31 22.6054 -8.65361e-16 1.27025e-16 0.339805 5.06919e-17 4.54036e-17)
(0 1.58094e-29 1.48214e-31 22.4267 -1.91066e-15 -1.26798e-15 0.343242 -3.64012e-17 -1.9207e-17)
(2.59293e-15 -1.58094e-29 -1.48214e-31 22.4267 -2.22605e-16 1.1595e-16 0.343242 5.53993e-17 4.91868e-17)
(-1.34324e-15 1.15776e-29 1.33914e-31 22.2266 -2.26047e-15 -1.22665e-15 0.346342 -3.37024e-17 -1.8845e-17)
(2.68648e-15 -3.10395e-30 -4.84992e-32 22.2266 -2.5499e-16 1.17826e-16 0.346342 6.73694e-17 5.30529e-17)
(8.57674e-16 -6.09414e-30 -4.76105e-32 22.0039 -2.28546e-15 -1.1789e-15 0.349073 -3.85699e-17 -1.84078e-17)
(-8.57674e-16 6.09414e-30 4.76105e-32 22.0039 -3.32449e-17 1.59021e-16 0.349073 6.69507e-17 5.71794e-17)
(8.41957e-16 -8.9737e-30 -7.0107e-32 21.758 -2.37823e-15 -1.12703e-15 0.351401 -3.7987e-17 -1.78697e-17)
(0 8.9737e-30 7.0107e-32 21.758 2.26497e-16 1.74928e-16 0.351401 7.38614e-17 6.17356e-17)
(-7.43292e-16 1.14962e-29 9.83435e-32 21.4882 -2.2561e-15 -1.06595e-15 0.353299 -3.59806e-17 -1.70797e-17)
(-3.7997e-15 -5.87284e-30 -4.58816e-32 21.4882 3.3991e-16 1.36858e-16 0.353299 7.89984e-17 6.63308e-17)
(7.67607e-16 5.96029e-30 3.85299e-32 21.1947 -2.21853e-15 -9.99846e-16 0.354744 -3.81518e-17 -1.63141e-17)
(2.25904e-15 -5.76522e-30 -4.50408e-32 21.1947 6.10429e-16 9.35869e-17 0.354744 8.85572e-17 7.09245e-17)
(7.92087e-16 1.71199e-29 1.26264e-31 20.8775 -2.17137e-15 -9.30367e-16 0.355719 -3.57166e-17 -1.53369e-17)
(-3.16835e-15 -1.98085e-29 -1.54754e-31 20.8775 -3.76135e-16 7.21418e-17 0.355719 9.93962e-17 7.55431e-17)
(-8.16701e-16 -8.75646e-32 -3.71553e-32 20.5375 -1.83598e-15 -8.52615e-16 0.356213 -2.78546e-17 -1.42084e-17)
(3.2668e-15 2.77793e-30 6.51078e-32 20.5375 -4.94545e-16 8.0445e-17 0.356213 9.71917e-17 8.02965e-17)
(0 -1.63622e-29 -1.49134e-31 20.1755 -1.46009e-15 -7.68325e-16 0.356223 -2.36652e-17 -1.29106e-17)
(5.19615e-15 1.63622e-29 1.91744e-31 20.1755 2.8426e-16 9.98983e-17 0.356223 1.03066e-16 8.53031e-17)
(8.662e-16 -1.87505e-29 -2.148e-31 19.7931 -1.81136e-15 -6.86657e-16 0.355751 -4.16579e-17 -1.17787e-17)
(3.4648e-15 1.07082e-29 1.8823e-31 19.7931 -1.23438e-17 9.78777e-17 0.355751 1.10702e-16 9.06106e-17)
(-8.91016e-16 1.05721e-29 8.73763e-32 19.3919 -2.41863e-15 -6.09902e-16 0.354808 -4.70162e-17 -1.05583e-17)
(-5.0435e-15 -5.256e-30 -2.05312e-32 19.3919 -2.53512e-16 7.19767e-17 0.354808 1.07002e-16 9.60177e-17)
(1.45232e-15 -2.57984e-30 -6.04651e-32 18.9739 -2.19469e-15 -5.39968e-16 0.35341 -3.47909e-17 -9.58779e-18)
(0 2.57984e-30 6.04651e-32 18.9739 -1.50403e-16 4.50378e-17 0.35341 1.08212e-16 1.01395e-16)
(-2.36632e-15 1.78879e-29 1.42649e-31 18.5414 -1.50261e-15 -4.7272e-16 0.351578 -2.2227e-17 -8.37534e-18)
(-1.42571e-15 -7.5977e-30 -5.93571e-32 18.5414 -2.48189e-16 5.86492e-17 0.351578 1.15739e-16 1.06732e-16)
(1.39958e-15 -7.45848e-30 -7.76925e-32 18.0966 -1.38954e-15 -4.06067e-16 0.349339 -3.16816e-17 -7.34331e-18)
(0 7.45848e-30 7.76925e-32 18.0966 -5.30495e-16 6.44122e-17 0.349339 1.19619e-16 1.1248e-16)
(-1.37394e-15 -1.55739e-29 -7.55808e-30 17.6421 -2.02415e-16 -2.31526e-30 0.346724 -1.99663e-18 0)
(-2.58573e-15 -1.70842e-29 -1.52538e-31 17.6421 -1.19806e-15 7.714e-17 0.346724 1.20332e-16 1.18062e-16)
(-3.34374e-16 4.49268e-30 -2.70779e-29 17.1803 -2.35697e-16 2.75742e-17 0.343767 -7.52778e-18 -2.7707e-19)
(0 0 0 17.1803 -9.22724e-16 9.97362e-17 0.343767 1.22892e-16 1.2413e-16)
(-1.03869e-15 -2.01661e-30 -6.09933e-32 16.7135 -1.66139e-15 2.01769e-15 0.340503 -6.09887e-17 -4.06282e-17)
(0 7.05592e-30 1.10249e-31 16.7135 2.33592e-16 7.92313e-17 0.340503 1.274e-16 1.30232e-16)
(-8.25839e-16 -8.47365e-30 -1.25553e-31 16.2443 -2.66864e-15 2.0357e-15 0.336968 -5.02132e-17 -4.19945e-17)
(4.25124e-15 6.92663e-30 9.01904e-32 16.2443 5.93185e-16 5.71149e-17 0.336968 1.43694e-16 1.36311e-16)
(-1.08671e-15 2.68916e-30 4.16014e-32 15.7748 -2.58597e-15 2.04889e-15 0.333198 -5.97414e-17 -4.2917e-17)
(0 0 -3.54151e-32 15.7748 -5.54984e-16 5.5108e-17 0.333198 1.62556e-16 1.42324e-16)
(-2.22077e-15 2.09599e-29 1.27153e-31 15.307 -2.49058e-15 2.06696e-15 0.329231 -4.79384e-17 -4.41425e-17)
(-4.44154e-15 -1.55752e-29 -1.21681e-31 15.307 -1.5866e-15 5.86078e-17 0.329231 1.64273e-16 1.48532e-16)
(1.1338e-15 -3.18209e-29 8.53226e-32 14.8428 -2.44941e-28 2.02685e-15 0.325099 0 -3.97435e-17)
(-4.53522e-15 -1.52898e-29 -1.36516e-31 14.8428 -2.06637e-15 3.09902e-17 0.325099 1.59474e-16 1.54761e-16)
(-2.41419e-15 1.28654e-29 8.37591e-32 14.3839 -1.29259e-16 2.01328e-15 0.320836 -7.55356e-18 -1.60935e-17)
(0 -8.57693e-30 -3.35036e-32 14.3839 -2.11313e-15 3.69402e-17 0.320836 1.49671e-16 1.60839e-16)
(-3.54462e-15 -1.14434e-29 -8.22242e-32 13.9317 -1.66903e-16 2.08787e-15 0.316471 -1.90886e-18 9.43933e-18)
(9.43858e-15 1.26296e-29 6.57794e-32 13.9317 -1.85926e-15 6.3479e-17 0.316471 1.5139e-16 1.67425e-16)
(-2.36566e-15 3.08286e-44 6.4574e-32 13.4876 2.34303e-28 2.1156e-15 0.312035 0 3.589e-17)
(5.97285e-15 -1.23982e-29 -6.4574e-32 13.4876 -3.23296e-15 8.37934e-17 0.312035 1.53387e-16 1.74211e-16)
(0 -4.057e-30 -6.33907e-32 13.0525 3.08293e-16 2.07214e-15 0.307551 -2.53307e-17 6.22768e-17)
(0 4.057e-30 6.33907e-32 13.0525 -3.02859e-15 8.01438e-17 0.307551 1.40722e-16 1.81535e-16)
(-2.36766e-15 1.06599e-29 1.55573e-32 12.6274 -4.86969e-16 2.09626e-15 0.303042 -1.25309e-17 8.89481e-17)
(4.98655e-15 0 7.77864e-33 12.6274 -1.10659e-15 4.80217e-17 0.303042 1.38052e-16 1.8883e-16)
(-1.10048e-15 1.1729e-29 4.58166e-32 12.2129 -5.56618e-16 2.13676e-15 0.29853 -1.49104e-17 1.17404e-16)
(0 -7.81936e-30 -2.29083e-32 12.2129 -1.3675e-15 5.61724e-17 0.29853 1.4549e-16 1.96282e-16)
(-2.36994e-15 1.03679e-29 1.49923e-32 11.8096 -8.64605e-16 2.07764e-15 0.294032 -2.86022e-17 1.4083e-16)
(0 -3.83804e-30 -7.49617e-33 11.8096 -2.37896e-15 6.59622e-17 0.294032 1.46378e-16 2.04238e-16)
(0 1.50708e-29 3.31146e-32 11.4177 -1.14055e-15 2.0737e-15 0.289565 -2.97094e-17 1.52274e-16)
(-2.12103e-15 -1.13031e-29 -2.57558e-32 11.4177 -1.51262e-15 7.74273e-17 0.289565 1.34723e-16 2.1236e-16)
(0 -1.47947e-29 -3.70228e-32 11.0377 -1.61831e-15 2.09675e-15 0.28514 -5.47893e-17 1.64297e-16)
(5.32544e-15 1.47947e-29 3.70228e-32 11.0377 1.58597e-16 3.49503e-17 0.28514 1.41985e-16 2.2096e-16)
(-2.04401e-15 1.45235e-29 2.48205e-32 10.6697 -2.56208e-15 2.04384e-15 0.28077 -8.13568e-17 1.76373e-16)
(2.04401e-15 -1.45235e-29 -2.48205e-32 10.6697 -5.36528e-17 -2.44624e-17 0.28077 1.65361e-16 2.28849e-16)
(-1.37183e-15 2.68911e-30 0 10.3136 -2.88728e-15 2.01734e-15 0.276465 -7.45894e-17 1.88257e-16)
(5.48733e-15 3.56435e-30 3.48081e-33 10.3136 -1.73521e-16 -6.1108e-18 0.276465 1.74717e-16 2.36945e-16)
(0 -1.04971e-29 6.83406e-33 9.96945 -2.20572e-15 1.4697e-15 0.272232 -4.65581e-17 2.00738e-16)
(5.56641e-15 1.04971e-29 -6.83406e-33 9.96945 2.3182e-16 4.5563e-18 0.272232 1.84127e-16 2.45546e-16)
(-1.41107e-15 1.64367e-29 -6.70882e-33 9.63715 -1.45896e-15 4.73184e-16 0.268077 -3.51392e-17 2.05684e-16)
(-5.64428e-15 -1.37397e-29 6.70882e-33 9.63715 -8.62763e-16 -5.23378e-17 0.268077 1.95829e-16 2.54212e-16)
(1.89825e-15 -1.01159e-29 0 9.31653 -9.92535e-16 5.4249e-17 0.264006 -2.14234e-17 2.04504e-16)
(-5.72094e-15 1.01159e-29 0 9.31653 -1.05394e-15 -9.38714e-17 0.264006 1.88111e-16 2.62214e-16)
(-2.89822e-15 8.71126e-30 0 9.00737 -1.05903e-15 3.83617e-17 0.260023 -4.03681e-17 2.03956e-16)
(5.79643e-15 -3.31018e-30 0 9.00737 -8.78627e-16 -6.81767e-17 0.260023 1.9214e-16 2.70401e-16)
(-2.93538e-15 -7.00649e-46 0 8.70943 2.70672e-30 1.40896e-17 0.256131 -3.15544e-30 2.02863e-16)
(0 0 0 8.70943 -1.9109e-15 -4.18707e-17 0.256131 1.94944e-16 2.78923e-16)
(0 -3.21247e-29 0 8.42241 7.28685e-16 9.69884e-17 0.252332 -1.09985e-17 2.02076e-16)
(5.94396e-15 9.56994e-30 0 8.42241 -2.43502e-15 -3.93913e-17 0.252332 2.00167e-16 2.87884e-16)
(-3.2669e-15 2.14787e-29 -1.83488e-32 8.14603 2.8908e-15 9.34718e-17 0.248626 -8.30292e-17 2.02346e-16)
(-6.01606e-15 -1.56576e-29 1.22325e-32 8.14603 -2.26328e-15 -6.39256e-17 0.248626 1.89758e-16 2.97107e-16)
(1.52177e-15 -8.83185e-30 0 7.87995 3.06344e-15 2.12067e-17 0.245015 -9.48687e-17 2.01432e-16)
(0 6.14828e-30 0 7.87995 -2.49142e-15 -1.05058e-16 0.245015 1.74952e-16 3.05777e-16)
(1.53926e-15 -1.47492e-29 0 7.62385 2.26339e-15 2.2158e-17 0.241498 -9.70743e-17 2.00582e-16)
(-6.15702e-15 1.20712e-29 0 7.62385 -2.5256e-15 -8.11171e-17 0.241498 1.7316e-16 3.14024e-16)
(-3.11298e-15 1.4252e-29 -5.78615e-33 7.3774 1.56336e-15 5.08473e-17 0.238076 -4.69089e-17 1.99792e-16)
(-1.66774e-15 -5.92501e-30 0 7.3774 -8.40542e-16 -8.20778e-17 0.238076 1.62883e-16 3.23366e-16)
(0 5.81644e-30 -5.68012e-33 7.14025 2.62459e-15 1.05065e-16 0.234747 -5.47983e-17 1.99558e-16)
(0 -1.16329e-29 1.85783e-30 7.14025 -1.97934e-15 -2.78567e-30 0.234747 1.87848e-16 3.32139e-16)
(-1.69731e-17 -2.66517e-30 -5.57603e-33 6.91207 3.20226e-15 1.05498e-16 0.231511 -1.19611e-16 1.99631e-16)
(-1.27217e-14 0 5.57603e-33 6.91207 -4.95513e-15 -8.72553e-18 0.231511 1.84723e-16 3.4228e-16)
(1.60671e-15 -1.10727e-29 5.47385e-33 6.69253 2.00391e-15 9.24906e-17 0.228365 -9.61966e-17 1.9932e-16)
(0 8.40784e-30 4.88466e-32 6.69253 -4.18968e-15 2.84326e-30 0.228365 1.49737e-16 3.51977e-16)
(0 -1.1005e-29 5.37354e-33 6.48128 7.63951e-16 6.03386e-17 0.225308 -4.10003e-17 1.99169e-16)
(6.49192e-15 1.1005e-29 -5.37354e-33 6.48128 -2.64063e-15 6.81147e-17 0.225308 1.34868e-16 3.65225e-16)
(4.6799e-15 -1.07626e-29 0 6.278 -9.87877e-16 -2.16231e-17 0.222339 -8.35411e-17 1.98174e-16)
(6.5561e-15 8.10252e-30 -1.05502e-32 6.278 -2.35815e-15 3.61528e-17 0.222339 1.2913e-16 3.87907e-16)
(-3.24555e-16 -1.59089e-29 2.07136e-32 6.08238 -2.9708e-15 -3.05824e-17 0.219456 -1.32712e-16 1.96428e-16)
(0 1.32567e-29 -1.55352e-32 6.08238 -2.67568e-15 -8.04949e-17 0.219456 1.04776e-16 4.11008e-16)
(-1.87571e-15 -7.68785e-30 1.0167e-32 5.89411 -2.51121e-15 -1.19845e-17 0.216656 -5.23639e-17 1.95289e-16)
(6.68188e-15 1.0411e-29 -1.52506e-32 5.89411 -1.32042e-15 -8.14077e-17 0.216656 1.10246e-16 4.3169e-16)
(1.68588e-15 -7.61314e-30 1.49711e-32 5.71288 0 -1.06811e-18 0.213938 -3.15544e-30 1.94024e-16)
(1.3487e-14 1.78855e-29 -1.49711e-32 5.71288 -5.77533e-16 -8.69576e-17 0.213938 1.70357e-16 4.52308e-16)
(-1.70109e-15 2.66337e-30 9.79784e-33 5.53842 2.06943e-15 8.18083e-17 0.211299 -4.16105e-17 1.93461e-16)
(0 2.50825e-30 -1.46968e-32 5.53842 -3.11266e-15 -1.3484e-16 0.211299 1.82204e-16 4.70956e-16)
(-3.43222e-15 5.29711e-30 0 5.37043 2.51393e-15 3.72335e-17 0.208737 -1.17994e-16 1.94187e-16)
(6.86444e-15 0 0 5.37043 -3.41881e-15 -5.98397e-17 0.208737 1.35487e-16 4.90082e-16)
(-1.73094e-15 7.48346e-30 0 5.20865 2.24079e-15 5.53634e-17 0.206251 -7.82708e-17 1.92496e-16)
(6.92375e-15 0 -9.44204e-33 5.20865 -3.60949e-15 -6.50934e-17 0.206251 1.10069e-16 5.08897e-16)
(0 7.11861e-30 -1.39035e-32 5.05281 2.75734e-15 1.37185e-17 0.203837 -1.00474e-16 1.93269e-16)
(0 0 0 5.05281 -5.58081e-15 6.16298e-33 0.203837 6.22175e-17 5.27909e-16)
(1.76005e-15 -1.42854e-29 1.36488e-32 4.90268 1.94195e-15 -1.38359e-16 0.201493 -1.23537e-16 1.90665e-16)
(7.04021e-15 1.16469e-29 -1.36488e-32 4.90268 -4.93849e-15 -4.96444e-17 0.201493 8.04205e-18 5.4954e-16)
(4.34895e-15 -9.51124e-30 8.93243e-33 4.758 8.12518e-16 -8.4073e-17 0.199219 -3.62148e-17 1.88887e-16)
(4.52281e-15 6.86011e-30 -8.93243e-33 4.758 -3.7629e-15 -1.04128e-16 0.199219 1.04515e-17 5.67305e-16)
(-1.78848e-15 -1.03877e-30 0 4.61855 1.50035e-15 -2.3093e-17 0.19701 -3.21806e-17 1.88489e-16)
(7.15392e-15 4.4896e-30 -4.38437e-33 4.61855 -5.19789e-15 -9.9735e-17 0.19701 1.13892e-17 5.86818e-16)
(1.80245e-15 -7.03393e-30 8.60806e-33 4.48411 3.6351e-15 7.92568e-19 0.194866 -1.46506e-16 1.88639e-16)
(0 4.40733e-30 -8.60806e-33 4.48411 -5.58905e-15 -9.78413e-19 0.194866 -7.09526e-17 6.04885e-16)
(-1.81626e-15 1.55945e-29 -1.69006e-32 4.35447 3.47304e-15 -9.5615e-17 0.192785 -1.7142e-16 1.88809e-16)
(4.8294e-15 -8.65313e-30 8.45032e-33 4.35447 -3.83871e-15 -1.224e-16 0.192785 -1.12199e-16 6.22127e-16)
(1.82992e-15 -1.11074e-29 8.29547e-33 4.22942 3.15362e-15 -1.2782e-16 0.190763 -1.37464e-16 1.8642e-16)
(0 8.49456e-30 -8.29547e-33 4.22942 -4.84636e-15 -2.0517e-16 0.190763 -1.11155e-16 6.35541e-16)
(-4.19062e-15 1.09449e-29 -1.22152e-32 4.10879 3.53131e-15 -1.05518e-16 0.1888 -1.48641e-16 1.86114e-16)
(7.3737e-15 -4.16945e-30 8.14346e-33 4.10879 -6.50942e-15 -4.24982e-17 0.1888 -1.81766e-16 6.46817e-16)
(1.85679e-15 5.58887e-30 -7.99423e-33 3.99237 5.2685e-15 -6.05748e-17 0.186894 -1.77862e-16 1.84914e-16)
(7.42717e-15 -8.18609e-30 3.99712e-33 3.99237 -6.42403e-15 1.54074e-33 0.186894 -2.303e-16 6.60259e-16)
(0 1.20541e-29 -7.84774e-33 3.88 7.44311e-15 1.8515e-17 0.185042 -3.1925e-16 1.86627e-16)
(7.48007e-15 -8.03609e-30 3.92387e-33 3.88 -7.57306e-15 -5.28701e-19 0.185042 -2.6796e-16 6.75561e-16)
(-2.22051e-15 7.88883e-30 -7.70393e-33 3.77151 7.43021e-15 -5.99057e-17 0.183243 -3.94977e-16 1.88012e-16)
(-7.53242e-15 -3.94441e-30 3.85197e-33 3.77151 -8.05749e-15 -5.3718e-17 0.183243 -3.72703e-16 6.88682e-16)
(-2.17982e-15 1.93607e-29 -2.26883e-32 3.66674 5.52973e-15 -1.61506e-16 0.181495 -3.30008e-16 1.88111e-16)
(9.76407e-15 -1.93607e-29 2.26883e-32 3.66674 -6.06717e-15 -8.59169e-17 0.181495 -4.29231e-16 6.96521e-16)
(-1.90889e-15 -1.64605e-29 2.59846e-32 3.56553 3.1807e-15 -2.32016e-16 0.179797 -2.19044e-16 1.87687e-16)
(0 1.90059e-29 -2.59846e-32 3.56553 -4.30867e-15 -1.40465e-16 0.179797 -4.54648e-16 7.04916e-16)
(-1.9216e-15 2.55767e-30 0 3.46775 2.26036e-15 -1.50312e-16 0.178146 -1.02187e-16 1.87205e-16)
(7.68639e-15 3.73152e-30 -3.64407e-33 3.46775 -3.26434e-15 -2.28976e-16 0.178146 -5.07355e-16 7.13709e-16)
(0 -7.32629e-30 6.26026e-33 3.37325 2.54581e-15 -6.18315e-17 0.176542 -1.31409e-16 1.9031e-16)
(0 7.32629e-30 -9.83754e-33 3.37325 -2.94193e-15 -2.27017e-16 0.176542 -5.14464e-16 7.14403e-16)
(0 7.19204e-30 -7.90141e-33 3.28189 3.5347e-15 -8.79641e-17 0.174982 -1.36334e-16 1.92734e-16)
(-2.02438e-15 -3.59602e-30 3.9507e-33 3.28189 -2.90523e-15 -2.85363e-16 0.174982 -5.11034e-16 7.10723e-16)
(1.959e-15 -2.01758e-29 3.10265e-32 3.19356 4.2041e-15 -1.41065e-17 0.173466 -2.43274e-16 1.95756e-16)
(7.836e-15 1.41205e-29 9.80778e-32 3.19356 -3.93138e-15 3.62383e-30 0.173466 -5.22817e-16 7.06725e-16)
(2.03764e-17 7.86982e-30 -1.31138e-32 3.10812 4.9789e-15 -1.54571e-17 0.171991 -2.15194e-16 2.00967e-16)
(7.88497e-15 -3.46543e-30 7.61448e-33 3.10812 -5.33326e-15 1.15662e-16 0.171991 -5.80756e-16 7.11915e-16)
(0 0 0 3.02548 5.39288e-15 -8.88396e-17 0.170557 -3.39363e-16 2.05082e-16)
(7.9335e-15 3.40193e-30 -5.81385e-33 3.02548 -5.2016e-15 5.26855e-17 0.170557 -6.31044e-16 7.15046e-16)
(-3.99081e-15 4.99387e-30 0 2.94551 4.79205e-15 -3.58359e-17 0.169162 -2.70613e-16 2.08454e-16)
(7.98162e-15 0 9.9229e-32 2.94551 -4.58515e-15 3.44129e-30 0.169162 -6.66624e-16 7.15021e-16)
(2.00733e-15 -1.88779e-29 2.30112e-32 2.86811 4.51885e-15 -1.33963e-16 0.167805 -2.82206e-16 2.14398e-16)
(8.02932e-15 1.6392e-29 -2.30112e-32 2.86811 -4.67379e-15 5.5693e-17 0.167805 -7.16046e-16 7.12879e-16)
(0 1.60916e-29 -1.88573e-32 2.79317 4.96824e-15 -3.96333e-16 0.166485 -2.48412e-16 2.15877e-16)
(-8.07663e-15 -1.60916e-29 1.88573e-32 2.79317 -5.44185e-15 -3.49819e-17 0.166485 -7.94858e-16 7.09664e-16)
(1.77855e-15 0 -3.0853e-33 2.72062 5.5786e-15 -1.53972e-16 0.1652 -3.47127e-16 2.14404e-16)
(-1.77855e-15 0 3.0853e-33 2.72062 -5.07256e-15 -1.49283e-16 0.1652 -8.62432e-16 7.06973e-16)
(-5.83101e-15 1.72978e-29 -2.12013e-32 2.65034 5.78541e-15 6.17719e-17 0.163949 -3.32883e-16 2.24677e-16)
(1.74596e-15 -1.24058e-29 3.99266e-32 2.65034 -5.34355e-15 6.36192e-30 0.163949 -9.04891e-16 7.11682e-16)
(-3.76804e-15 1.15563e-29 -1.04064e-32 2.58226 5.81526e-15 -4.14482e-18 0.162732 -3.86132e-16 2.29975e-16)
(0 -6.08923e-30 5.94652e-33 2.58226 -6.42379e-15 1.16027e-16 0.162732 -9.78861e-16 7.28565e-16)
(-3.36512e-15 2.09218e-29 -1.31345e-32 2.5163 3.74582e-15 -5.55276e-17 0.161546 -3.49238e-16 2.3871e-16)
(-8.2621e-15 -1.49441e-29 1.60533e-32 2.5163 -6.26428e-15 3.15838e-17 0.161546 -1.11334e-15 7.44005e-16)
(4.15379e-15 -3.63725e-29 -2.86529e-33 2.45236 4.00645e-15 -1.97854e-16 0.160392 -1.31493e-16 2.44115e-16)
(0 -5.86811e-30 1.20239e-31 2.45236 -5.16002e-15 3.69206e-17 0.160392 -1.24155e-15 7.5913e-16)
(9.33443e-16 6.87593e-30 -2.81278e-33 2.39038 8.88467e-15 -1.08255e-16 0.159267 -7.87162e-16 2.50157e-16)
(8.35272e-15 -1.44015e-29 8.43835e-33 2.39038 -3.69957e-15 9.44448e-17 0.159267 -1.32198e-15 7.75033e-16)
(-2.09938e-15 -4.63525e-31 0 2.33028 4.93401e-15 -6.25224e-17 0.158172 -3.97395e-16 2.59638e-16)
(8.39754e-15 8.48253e-30 -2.76124e-33 2.33028 -3.39044e-15 9.23153e-17 0.158172 -1.32913e-15 7.92892e-16)
(4.22102e-15 -1.96769e-30 0 2.272 6.4331e-15 -1.42095e-16 0.157105 -2.73611e-16 2.67719e-16)
(-3.12516e-15 -2.7757e-30 2.71064e-33 2.272 -3.54664e-15 3.66605e-18 0.157105 -1.32907e-15 8.03265e-16)
(2.12155e-15 -2.30283e-30 0 2.21545 4.11134e-15 5.93234e-18 0.156065 -6.2234e-16 2.74273e-16)
(8.48621e-15 2.72483e-30 1.71228e-45 2.21545 -3.05506e-15 3.08457e-30 0.156065 -1.37465e-15 7.86048e-16)
(8.79148e-16 4.27396e-44 0 2.1606 7.64561e-29 2.83685e-16 0.155051 0 2.87834e-16)
(-3.01167e-15 -5.3498e-30 0 2.1606 -1.81976e-15 -4.43624e-17 0.155051 -1.41835e-15 7.83211e-16)
(-2.95648e-15 -2.62588e-30 5.12868e-33 2.10736 5.21488e-15 2.84994e-16 0.154063 -2.41835e-16 3.07909e-16)
(1.71474e-14 5.25177e-30 -1.4013e-45 2.10736 -2.68856e-15 2.93358e-30 0.154063 -1.40871e-15 7.76666e-16)
(-2.15424e-15 -5.42532e-30 1.51041e-32 2.05568 7.30835e-15 1.67099e-16 0.1531 -5.25751e-16 3.23621e-16)
(0 1.28888e-29 -1.17531e-31 2.05568 -4.67437e-15 5.96414e-17 0.1531 -1.46995e-15 7.75337e-16)
(0 -7.59159e-30 1.4364e-32 2.00551 7.45954e-15 1.2364e-16 0.152161 -5.66686e-16 3.39516e-16)
(1.732e-14 1.26526e-29 -1.54451e-32 2.00551 -4.47673e-15 -1.02374e-16 0.152161 -1.57165e-15 7.74648e-16)
(-2.17568e-15 1.46832e-29 -1.69816e-32 1.95679 5.75059e-15 3.56224e-17 0.151245 -5.68792e-16 3.54291e-16)
(0 -1.24208e-29 1.69816e-32 1.95679 -4.86913e-15 -1.3802e-15 0.151245 -1.63879e-15 7.66965e-16)
(2.74566e-15 -7.31591e-30 1.90519e-32 1.90947 4.53198e-15 1.53181e-16 0.150351 -3.20581e-16 3.66644e-16)
(8.74521e-15 7.31591e-30 -3.81037e-32 1.90947 -3.77738e-15 -2.6158e-15 0.150351 -1.77116e-15 7.09768e-16)
(2.19686e-15 -1.42319e-29 1.30919e-31 1.86351 4.97058e-15 1.7548e-16 0.149479 -3.95948e-16 3.866e-16)
(1.75748e-14 1.19697e-29 -1.30919e-31 1.86351 -3.23632e-15 -2.48922e-15 0.149479 -1.82143e-15 6.48486e-16)
(-2.20735e-15 2.24945e-30 0 1.81884 4.58434e-15 1.33208e-16 0.148628 -4.03891e-16 4.0193e-16)
(8.82938e-15 2.35008e-30 -3.672e-32 1.81884 -4.62204e-15 -2.09611e-15 0.148628 -1.91075e-15 6.2289e-16)
(2.21777e-15 4.67143e-30 -3.60471e-32 1.77544 4.04147e-15 2.75443e-16 0.147797 -3.46971e-16 4.23135e-16)
(8.8711e-15 0 7.20943e-32 1.77544 -3.28304e-15 -2.43855e-15 0.147797 -2.02343e-15 5.90095e-16)
(-4.45628e-15 1.12871e-29 -1.41546e-31 1.73325 4.58482e-15 3.77771e-16 0.146986 -3.27625e-16 4.48532e-16)
(6.3627e-15 -2.26474e-30 1.0616e-31 1.73325 -1.63947e-15 -2.90232e-15 0.146986 -2.1057e-15 5.22332e-16)
(-2.50315e-15 0 2.77905e-31 1.69224 5.95591e-15 1.99474e-16 0.146194 -4.53321e-16 4.79283e-16)
(1.54045e-14 6.66972e-30 -2.43167e-31 1.69224 -2.08228e-15 -2.33623e-15 0.146194 -2.22324e-15 4.41171e-16)
(-2.45728e-15 4.365e-30 -1.36406e-31 1.65236 5.75069e-15 1.53364e-16 0.145421 -5.79735e-16 5.0074e-16)
(8.99481e-15 -4.365e-30 1.36406e-31 1.65236 -3.88053e-15 -1.97581e-15 0.145421 -2.34063e-15 3.98302e-16)
(-2.2589e-15 6.4901e-30 -2.0086e-31 1.61357 4.34336e-15 2.37994e-16 0.144665 -4.33845e-16 5.32219e-16)
(-2.41225e-15 0 2.0086e-31 1.61357 -5.01003e-15 -2.44547e-15 0.144665 -2.44577e-15 3.52277e-16)
(2.26904e-15 6.19903e-30 -2.62906e-31 1.57585 6.1572e-15 1.36894e-16 0.143927 -3.46205e-16 5.61087e-16)
(0 -1.26195e-29 3.28632e-31 1.57585 -4.84757e-15 -2.57592e-15 0.143927 -2.52295e-15 2.93065e-16)
(0 4.12941e-30 -2.58088e-31 1.53914 7.51242e-15 -7.31478e-17 0.143205 -7.85478e-16 5.91169e-16)
(0 -4.12941e-30 1.93566e-31 1.53914 -3.66833e-15 -2.36163e-15 0.143205 -2.61685e-15 2.402e-16)
(-4.57121e-15 1.42908e-29 -6.96737e-31 1.50343 5.98875e-15 -1.56291e-16 0.1425 -6.14438e-16 6.08014e-16)
(0 -1.21612e-29 8.23416e-31 1.50343 -4.14875e-15 -2.67343e-15 0.1425 -2.7245e-15 1.94018e-16)
(-4.53938e-15 6.10564e-30 -2.48716e-31 1.46867 5.44597e-15 -2.25995e-17 0.14181 -5.22815e-16 6.31784e-16)
(-9.19658e-15 0 2.48716e-31 1.46867 -5.52065e-15 -3.13625e-15 0.14181 -2.92937e-15 8.60582e-17)
(-1.09895e-16 -1.79133e-30 4.88317e-31 1.43484 5.57241e-15 -2.72332e-17 0.141135 -5.31536e-16 6.53814e-16)
(1.62734e-14 7.81307e-30 -4.88317e-31 1.43484 -4.40962e-15 -2.56296e-15 0.141135 -3.04483e-15 -6.99858e-17)
(0 -7.6699e-30 7.19053e-31 1.4019 6.18365e-15 2.8494e-19 0.140475 -5.67681e-16 6.7756e-16)
(9.27585e-15 7.6699e-30 -7.38903e-31 1.4019 -3.99359e-15 -1.7739e-15 0.140475 -3.1388e-15 -1.63269e-16)
(-2.3288e-15 5.81549e-30 -2.35292e-31 1.36983 6.56414e-15 -1.92388e-16 0.139829 -6.755e-16 7.02889e-16)
(9.3152e-15 0 2.35292e-31 1.36983 -3.83959e-15 -2.37838e-15 0.139829 -3.31937e-15 -3.093e-16)
(0 3.69569e-30 -4.61961e-31 1.33859 5.99399e-15 -2.47416e-16 0.139197 -6.67659e-16 7.13433e-16)
(9.35436e-15 0 3.04998e-31 1.33859 -3.16639e-15 -3.08632e-15 0.139197 -3.39794e-15 -3.1837e-16)
(-2.34833e-15 -1.61374e-30 9.06991e-31 1.30817 5.08461e-15 5.8358e-17 0.138578 -5.80996e-16 7.32026e-16)
(9.39334e-15 3.62796e-30 -1.03603e-30 1.30817 -2.47409e-15 -2.67034e-15 0.138578 -3.52597e-15 -2.48007e-16)