/*--------------------------------*- C++ -*----------------------------------*\
| =========                 |                                                 |
| \\      /  F ield         | OpenFOAM: The Open Source CFD Toolbox           |
|  \\    /   O peration     | Version:  2106                                  |
|   \\  /    A nd           | Website:  www.openfoam.com                      |
|    \\/     M anipulation  |                                                 |
\*---------------------------------------------------------------------------*/
FoamFile
{
    version     2.0;
    format      ascii;
    arch        "LSB;label=32;scalar=64";
    class       volScalarField;
    location    "10030";
    object      p;
}
// * * * * * * * * * * * * * * * * * * * * * * * * * * * * * * * * * * * * * //

dimensions      [0 2 -2 0 0 0 0];

internalField   nonuniform List<scalar> 
2000
(
2.02914e-15
6.55499e-15
4.3951e-15
6.55527e-15
4.62316e-15
6.5555e-15
4.27122e-15
6.55593e-15
4.03137e-15
6.55653e-15
3.88618e-15
6.55731e-15
3.75471e-15
6.55825e-15
3.62086e-15
6.55939e-15
3.48708e-15
6.56073e-15
3.35499e-15
6.56227e-15
3.22482e-15
6.56393e-15
3.09664e-15
6.56577e-15
2.97037e-15
6.56772e-15
2.84609e-15
6.56979e-15
2.72359e-15
6.57205e-15
2.60284e-15
6.57439e-15
2.4842e-15
6.57669e-15
2.3675e-15
6.57905e-15
2.25268e-15
6.58154e-15
2.13956e-15
6.58405e-15
2.02826e-15
6.58658e-15
1.91875e-15
6.58925e-15
1.81093e-15
6.59198e-15
1.70487e-15
6.59476e-15
1.60038e-15
6.59759e-15
1.49754e-15
6.60033e-15
1.39628e-15
6.60312e-15
1.29682e-15
6.60597e-15
1.19879e-15
6.60885e-15
1.10218e-15
6.61167e-15
1.00691e-15
6.61433e-15
9.13085e-16
6.61702e-15
8.20734e-16
6.61965e-15
7.29562e-16
6.62226e-15
6.39778e-16
6.62477e-15
5.51385e-16
6.62713e-15
4.64136e-16
6.62932e-15
3.78142e-16
6.63128e-15
2.93266e-16
6.63319e-15
2.09364e-16
6.63475e-15
1.26639e-16
6.63615e-15
4.45863e-17
6.63734e-15
-3.63775e-17
6.63826e-15
-1.16306e-16
6.63853e-15
-1.95706e-16
6.63822e-15
-2.74297e-16
6.6374e-15
-3.52362e-16
6.63601e-15
-4.29961e-16
6.63436e-15
-5.07375e-16
6.63273e-15
-5.84218e-16
6.63073e-15
-6.61104e-16
6.62787e-15
-7.37079e-16
6.62399e-15
-8.13877e-16
6.62003e-15
-8.90306e-16
6.6154e-15
-9.66517e-16
6.61036e-15
-1.04381e-15
6.60429e-15
-1.12095e-15
6.59771e-15
-1.19785e-15
6.59042e-15
-1.27486e-15
6.5825e-15
-1.35164e-15
6.57351e-15
-1.42806e-15
6.56278e-15
-1.50522e-15
6.55131e-15
-1.58275e-15
6.53966e-15
-1.66051e-15
6.52791e-15
-1.73836e-15
6.5151e-15
-1.81693e-15
6.5013e-15
-1.89555e-15
6.48629e-15
-1.97405e-15
6.46961e-15
-2.05335e-15
6.45237e-15
-2.13192e-15
6.43301e-15
-2.20984e-15
6.41157e-15
-2.28718e-15
6.38923e-15
-2.36346e-15
6.36549e-15
-2.43935e-15
6.33809e-15
-2.51434e-15
6.30763e-15
-2.58853e-15
6.27535e-15
-2.662e-15
6.24193e-15
-2.73425e-15
6.20686e-15
-2.80913e-15
6.17022e-15
-2.8824e-15
6.13021e-15
-2.95414e-15
6.08881e-15
-3.02578e-15
6.04418e-15
-3.09813e-15
6.00037e-15
-3.17003e-15
5.95084e-15
-3.24094e-15
5.90039e-15
-3.31172e-15
5.85054e-15
-3.38184e-15
5.8001e-15
-3.44795e-15
5.745e-15
-3.51088e-15
5.68817e-15
-3.57292e-15
5.63051e-15
-3.63428e-15
5.56852e-15
-3.69516e-15
5.50529e-15
-3.75281e-15
5.44099e-15
-3.81497e-15
5.37432e-15
-3.86974e-15
5.30543e-15
-3.92188e-15
5.23608e-15
-3.97161e-15
5.16491e-15
-4.02074e-15
5.0937e-15
-4.06957e-15
5.01792e-15
-4.11195e-15
4.93773e-15
-4.15457e-15
4.85655e-15
-4.19282e-15
4.77953e-15
-4.23194e-15
4.70206e-15
-4.27061e-15
4.61937e-15
-4.30582e-15
4.53672e-15
-4.33787e-15
4.45099e-15
-4.36709e-15
4.36412e-15
-4.3938e-15
4.27464e-15
-4.41488e-15
4.17409e-15
-4.43061e-15
4.07662e-15
-4.44836e-15
3.97722e-15
-4.46323e-15
3.87793e-15
-4.47736e-15
3.78261e-15
-4.49118e-15
3.68982e-15
-4.49966e-15
3.59082e-15
-4.50318e-15
3.4858e-15
-4.51129e-15
3.39154e-15
-4.51525e-15
3.2955e-15
-4.52107e-15
3.19613e-15
-4.51612e-15
3.09182e-15
-4.51957e-15
2.99409e-15
-4.52065e-15
2.89956e-15
-4.51984e-15
2.80095e-15
-4.50996e-15
2.69854e-15
-4.49524e-15
2.59258e-15
-4.47997e-15
2.48717e-15
-4.46461e-15
2.3865e-15
-4.45355e-15
2.28697e-15
-4.44343e-15
2.18499e-15
-4.42294e-15
2.07688e-15
-4.40037e-15
1.97469e-15
-4.37219e-15
1.87875e-15
-4.3428e-15
1.77343e-15
-4.30462e-15
1.65885e-15
-4.27399e-15
1.55513e-15
-4.23526e-15
1.45449e-15
-4.19685e-15
1.349e-15
-4.15102e-15
1.24283e-15
-4.1143e-15
1.14013e-15
-4.0789e-15
1.02879e-15
-4.04515e-15
9.08817e-16
-4.01331e-15
8.00698e-16
-3.97961e-15
7.08632e-16
-3.95268e-15
6.08043e-16
-3.92876e-15
5.03109e-16
-3.90402e-15
4.063e-16
-3.87051e-15
3.05268e-16
-3.84505e-15
2.04107e-16
-3.81546e-15
9.86044e-17
-3.77355e-15
1.12732e-18
-3.76126e-15
-9.68483e-17
-3.7455e-15
-2.03652e-16
-3.71809e-15
-3.11014e-16
-3.67071e-15
-4.19247e-16
-3.65361e-15
-5.12025e-16
-3.65863e-15
-5.97906e-16
-3.64414e-15
-6.85153e-16
-3.63563e-15
-7.73873e-16
-3.62494e-15
-8.81177e-16
-3.61211e-15
-9.90702e-16
-3.58862e-15
-1.08607e-15
-3.56276e-15
-1.19326e-15
-3.55957e-15
-1.28778e-15
-3.5537e-15
-1.38691e-15
-3.53649e-15
-1.47415e-15
-3.53313e-15
-1.57546e-15
-3.52648e-15
-1.68306e-15
-3.50767e-15
-1.78114e-15
-3.49306e-15
-1.86237e-15
-3.48234e-15
-1.94443e-15
-3.47512e-15
-2.03672e-15
-3.46236e-15
-2.13178e-15
-3.46017e-15
-2.23085e-15
-3.43417e-15
-2.30994e-15
-3.42547e-15
-2.37058e-15
-3.40829e-15
-2.44732e-15
-3.41537e-15
-2.53309e-15
-3.40389e-15
-2.61229e-15
-3.39791e-15
-2.66964e-15
-3.37173e-15
-2.73132e-15
-3.34078e-15
-2.7909e-15
-3.35355e-15
-2.88416e-15
-3.37546e-15
-2.96302e-15
-3.38941e-15
-3.02874e-15
-3.39513e-15
-3.09902e-15
-3.40803e-15
-3.10951e-15
-3.41151e-15
-3.09375e-15
-3.42347e-15
-3.13373e-15
-3.44357e-15
-3.18094e-15
-3.4717e-15
-3.25277e-15
-3.4911e-15
-3.31827e-15
-3.50094e-15
-3.36301e-15
-3.53308e-15
-3.37221e-15
-3.55617e-15
-3.39381e-15
-3.58695e-15
-3.44408e-15
-3.59306e-15
-3.4431e-15
-3.62334e-15
-3.42382e-15
-3.64829e-15
-3.43263e-15
-3.67009e-15
-3.43655e-15
-3.65834e-15
-3.48286e-15
-3.6271e-15
-3.54271e-15
-3.63569e-15
-3.51057e-15
-3.63823e-15
-3.52653e-15
-3.63419e-15
-3.54441e-15
-3.7018e-15
-3.54901e-15
-3.70522e-15
-3.5206e-15
-3.70996e-15
-3.53432e-15
-3.68528e-15
-3.5895e-15
-3.64313e-15
-3.58299e-15
-3.64192e-15
-3.56322e-15
-3.63722e-15
-3.56027e-15
-3.65955e-15
-3.55821e-15
-3.71249e-15
-3.58431e-15
-3.70786e-15
-3.59122e-15
-3.73708e-15
-3.57992e-15
-3.77479e-15
-3.60726e-15
-3.70641e-15
-3.58392e-15
-3.6777e-15
-3.54095e-15
-3.68703e-15
-3.56354e-15
-3.67614e-15
-3.59375e-15
-3.58855e-15
-3.57804e-15
-3.61748e-15
-3.61206e-15
-3.62041e-15
-3.61475e-15
-3.57126e-15
-3.55851e-15
-3.50002e-15
-3.49828e-15
-3.45907e-15
-3.49157e-15
-3.41671e-15
-3.48644e-15
-3.45133e-15
-3.43355e-15
-3.43582e-15
-3.40589e-15
-3.37674e-15
-3.40074e-15
-3.31989e-15
-3.36992e-15
-3.25875e-15
-3.3196e-15
-3.29805e-15
-3.22722e-15
-3.30057e-15
-3.17992e-15
-3.20273e-15
-3.09012e-15
-3.20812e-15
-2.92934e-15
-3.19221e-15
-2.82164e-15
-3.14888e-15
-2.77122e-15
-3.12851e-15
-2.74042e-15
-3.08723e-15
-2.74816e-15
-3.0496e-15
-2.75598e-15
-2.95813e-15
-2.82446e-15
-2.82627e-15
-2.83498e-15
-2.81172e-15
-2.77102e-15
-2.77796e-15
-2.78765e-15
-2.80843e-15
-2.82187e-15
-2.88088e-15
-2.86921e-15
-2.88883e-15
-2.8812e-15
-2.91795e-15
-2.90813e-15
-2.96339e-15
-2.9414e-15
1.91627e-15
1.9106e-15
1.91649e-15
1.91066e-15
1.91667e-15
1.9107e-15
1.91695e-15
1.91077e-15
1.91733e-15
1.91087e-15
1.91781e-15
1.91101e-15
1.91843e-15
1.91117e-15
1.91915e-15
1.91135e-15
1.92003e-15
1.91158e-15
1.92095e-15
1.91192e-15
1.92201e-15
1.91221e-15
1.92317e-15
1.91254e-15
1.92445e-15
1.91294e-15
1.9258e-15
1.91338e-15
1.9273e-15
1.91376e-15
1.92888e-15
1.9142e-15
1.93047e-15
1.91474e-15
1.93218e-15
1.91523e-15
1.93393e-15
1.91589e-15
1.93572e-15
1.91665e-15
1.93756e-15
1.91738e-15
1.93948e-15
1.91824e-15
1.94144e-15
1.91922e-15
1.94341e-15
1.92026e-15
1.94553e-15
1.9212e-15
1.94771e-15
1.92226e-15
1.94993e-15
1.92343e-15
1.95207e-15
1.92454e-15
1.95433e-15
1.92574e-15
1.95659e-15
1.92714e-15
1.95885e-15
1.92873e-15
1.96124e-15
1.93036e-15
1.96357e-15
1.93202e-15
1.96586e-15
1.93382e-15
1.96818e-15
1.9355e-15
1.97059e-15
1.93736e-15
1.97328e-15
1.9392e-15
1.97578e-15
1.94137e-15
1.97834e-15
1.9435e-15
1.98085e-15
1.94557e-15
1.98344e-15
1.94757e-15
1.98601e-15
1.94985e-15
1.98845e-15
1.95216e-15
1.99067e-15
1.95504e-15
1.9928e-15
1.95793e-15
1.99497e-15
1.96137e-15
1.9973e-15
1.96468e-15
1.99902e-15
1.96808e-15
2.00049e-15
1.97222e-15
2.00206e-15
1.97709e-15
2.00341e-15
1.98158e-15
2.00455e-15
1.98613e-15
2.00572e-15
1.99118e-15
2.00716e-15
1.99559e-15
2.00867e-15
2.00027e-15
2.01027e-15
2.00543e-15
2.0122e-15
2.01016e-15
2.01355e-15
2.0149e-15
2.01528e-15
2.01941e-15
2.01694e-15
2.02368e-15
2.01878e-15
2.02792e-15
2.01986e-15
2.03313e-15
2.02065e-15
2.03831e-15
2.02195e-15
2.04397e-15
2.02275e-15
2.04984e-15
2.02281e-15
2.05619e-15
2.02238e-15
2.06327e-15
2.02203e-15
2.07005e-15
2.02122e-15
2.07567e-15
2.01997e-15
2.08174e-15
2.0183e-15
2.0894e-15
2.01735e-15
2.09868e-15
2.01602e-15
2.10615e-15
2.01434e-15
2.11293e-15
2.01468e-15
2.12016e-15
2.01415e-15
2.12545e-15
2.01274e-15
2.13362e-15
2.00984e-15
2.14473e-15
2.0086e-15
2.15007e-15
2.00654e-15
2.15455e-15
2.00305e-15
2.16333e-15
1.99942e-15
2.17259e-15
1.99438e-15
2.18032e-15
1.98928e-15
2.18381e-15
1.98416e-15
2.18702e-15
1.97909e-15
2.19339e-15
1.9727e-15
2.20301e-15
1.96431e-15
2.20958e-15
1.95322e-15
2.21374e-15
1.94231e-15
2.2169e-15
1.93164e-15
2.21977e-15
1.91981e-15
2.22161e-15
1.90383e-15
2.22689e-15
1.89127e-15
2.23117e-15
1.87767e-15
2.23137e-15
1.86307e-15
2.23362e-15
1.84752e-15
2.23484e-15
1.82949e-15
2.23346e-15
1.80899e-15
2.23104e-15
1.78768e-15
2.22276e-15
1.76561e-15
2.21504e-15
1.74448e-15
2.21285e-15
1.72273e-15
2.20804e-15
1.7021e-15
2.19559e-15
1.67595e-15
2.18382e-15
1.65279e-15
2.17619e-15
1.6276e-15
2.16254e-15
1.60044e-15
2.14454e-15
1.57138e-15
2.12564e-15
1.54398e-15
2.10941e-15
1.52367e-15
2.08534e-15
1.49286e-15
2.05869e-15
1.46766e-15
2.02949e-15
1.43743e-15
2.00135e-15
1.40767e-15
1.97433e-15
1.37851e-15
1.94303e-15
1.34639e-15
1.91481e-15
1.31326e-15
1.88237e-15
1.28108e-15
1.84572e-15
1.24252e-15
1.80862e-15
1.21269e-15
1.7749e-15
1.17668e-15
1.74468e-15
1.13836e-15
1.71047e-15
1.10166e-15
1.66465e-15
1.06676e-15
1.61486e-15
1.02996e-15
1.56499e-15
9.91418e-16
1.51898e-15
9.55182e-16
1.47303e-15
9.17523e-16
1.43112e-15
8.66769e-16
1.38159e-15
8.2271e-16
1.31656e-15
7.77653e-16
1.26374e-15
7.35724e-16
1.21533e-15
6.89087e-16
1.16746e-15
6.4585e-16
1.11627e-15
6.02156e-16
1.06185e-15
5.66244e-16
1.00427e-15
5.22141e-16
9.43556e-16
4.65887e-16
8.83838e-16
4.17929e-16
8.17085e-16
3.66223e-16
7.51517e-16
3.27344e-16
6.99583e-16
2.89211e-16
6.49138e-16
2.27261e-16
5.87915e-16
1.66293e-16
5.24316e-16
1.10575e-16
4.62654e-16
4.78068e-17
4.07243e-16
-5.3686e-18
3.54214e-16
-5.71529e-17
3.03824e-16
-1.07458e-16
2.48019e-16
-1.64563e-16
1.70253e-16
-2.19835e-16
9.56645e-17
-2.64611e-16
4.11635e-17
-3.23898e-16
-1.8165e-17
-3.80916e-16
-7.35825e-17
-4.44004e-16
-1.50048e-16
-5.12903e-16
-2.13766e-16
-5.70731e-16
-2.55951e-16
-6.2595e-16
-3.01386e-16
-6.87e-16
-3.66408e-16
-7.45333e-16
-4.16791e-16
-8.09485e-16
-4.60441e-16
-8.71264e-16
-5.38884e-16
-9.4737e-16
-6.35003e-16
-1.01221e-15
-7.06358e-16
-1.07423e-15
-7.78041e-16
-1.13328e-15
-8.2426e-16
-1.1895e-15
-8.78021e-16
-1.24299e-15
-9.47104e-16
-1.30204e-15
-9.97378e-16
-1.36682e-15
-1.07042e-15
-1.42885e-15
-1.14883e-15
-1.47112e-15
-1.2154e-15
-1.5354e-15
-1.26979e-15
-1.5968e-15
-1.32807e-15
-1.64711e-15
-1.39808e-15
-1.71143e-15
-1.47113e-15
-1.77283e-15
-1.54673e-15
-1.81449e-15
-1.61614e-15
-1.86112e-15
-1.64592e-15
-1.91333e-15
-1.66009e-15
-1.95563e-15
-1.72366e-15
-1.98753e-15
-1.81925e-15
-2.0073e-15
-1.91433e-15
-2.06268e-15
-1.96047e-15
-2.15382e-15
-1.97331e-15
-2.16704e-15
-2.00006e-15
-2.21771e-15
-2.02427e-15
-2.25696e-15
-2.07726e-15
-2.28425e-15
-2.1256e-15
-2.33138e-15
-2.18518e-15
-2.38137e-15
-2.23898e-15
-2.43419e-15
-2.30275e-15
-2.48926e-15
-2.3442e-15
-2.53079e-15
-2.39491e-15
-2.59054e-15
-2.38947e-15
-2.62283e-15
-2.40545e-15
-2.62802e-15
-2.44166e-15
-2.66838e-15
-2.46653e-15
-2.69619e-15
-2.49481e-15
-2.7278e-15
-2.50899e-15
-2.78073e-15
-2.55375e-15
-2.82418e-15
-2.56566e-15
-2.82882e-15
-2.63652e-15
-2.85433e-15
-2.70624e-15
-2.86547e-15
-2.74621e-15
-2.89154e-15
-2.8055e-15
-2.884e-15
-2.85493e-15
-2.91672e-15
-2.88124e-15
-2.92964e-15
-2.86888e-15
-2.95469e-15
-2.90764e-15
-2.94539e-15
-2.96775e-15
-3.01674e-15
-3.00929e-15
-3.00377e-15
-3.0301e-15
-3.02353e-15
-3.03247e-15
-3.01582e-15
-3.04483e-15
-2.9764e-15
-3.09689e-15
-3.04565e-15
-3.10924e-15
-3.0534e-15
-3.13813e-15
-2.96788e-15
-3.15575e-15
-2.97914e-15
-3.11242e-15
-2.97826e-15
-3.06004e-15
-2.96713e-15
-3.07518e-15
-2.94082e-15
-3.07394e-15
-2.95284e-15
-3.033e-15
-2.92645e-15
-3.03208e-15
-2.91434e-15
-3.01721e-15
-2.9443e-15
-2.98708e-15
-2.88305e-15
-2.99047e-15
-2.88356e-15
-3.00861e-15
-2.89002e-15
-2.96301e-15
-2.85751e-15
-2.90009e-15
-2.84471e-15
-2.84097e-15
-2.77295e-15
-2.80684e-15
-2.78877e-15
-2.7763e-15
-2.74779e-15
-2.69324e-15
-2.73056e-15
-2.63475e-15
-2.76811e-15
-2.6738e-15
-2.73732e-15
-2.6619e-15
-2.6595e-15
-2.60382e-15
-2.65337e-15
-2.57253e-15
-2.64938e-15
-2.63297e-15
-2.64229e-15
-2.62045e-15
-2.62045e-15
-2.63023e-15
-2.62481e-15
-2.65124e-15
-2.63017e-15
-2.73591e-15
-2.63815e-15
-2.73776e-15
-2.73709e-15
-2.74789e-15
-2.81361e-15
-2.84011e-15
-2.96534e-15
-2.93018e-15
-3.01457e-15
-2.97017e-15
-2.98615e-15
-2.98803e-15
-3.05143e-15
-3.00689e-15
-3.13138e-15
-3.11164e-15
-3.17717e-15
-3.16342e-15
-3.17964e-15
-3.16643e-15
-3.21361e-15
-3.1951e-15
-3.20894e-15
-3.25329e-15
-3.28843e-15
-3.30383e-15
-3.38672e-15
-3.3633e-15
-3.44075e-15
-3.42494e-15
-3.49767e-15
-3.46572e-15
-3.49233e-15
-3.4835e-15
-3.49075e-15
-3.5059e-15
-3.58907e-15
-3.58439e-15
-3.66547e-15
-3.66459e-15
-3.69298e-15
-3.69499e-15
-3.7246e-15
-3.70075e-15
-3.76612e-15
-3.77973e-15
-3.8106e-15
-3.82947e-15
-3.8523e-15
-3.87633e-15
-3.89003e-15
-3.92379e-15
-3.9239e-15
-3.97511e-15
-3.97931e-15
-3.98025e-15
-4.00773e-15
-3.98732e-15
-4.04172e-15
-4.02147e-15
-4.08245e-15
-4.02592e-15
-4.1612e-15
-4.08117e-15
-4.19573e-15
-4.15725e-15
-4.20776e-15
-4.20365e-15
-4.24984e-15
-4.19559e-15
-4.2426e-15
-4.21461e-15
-4.26819e-15
-4.20289e-15
-4.32994e-15
-4.24386e-15
-4.34439e-15
-4.24819e-15
-4.30998e-15
-4.24496e-15
-4.31027e-15
-4.23776e-15
-4.34727e-15
-4.25633e-15
-4.33075e-15
-4.26957e-15
-4.31806e-15
-4.24935e-15
-4.33987e-15
-4.28654e-15
-4.33402e-15
-4.28959e-15
-4.3151e-15
-4.25785e-15
-4.29924e-15
-4.26861e-15
-4.30008e-15
-4.24757e-15
-4.28763e-15
-4.23882e-15
-4.27676e-15
-4.21129e-15
-4.29846e-15
-4.18133e-15
-4.29297e-15
-4.17707e-15
-4.27564e-15
-4.15114e-15
-4.279e-15
-4.12038e-15
-4.30452e-15
-4.09936e-15
-4.29021e-15
-4.11883e-15
-4.26558e-15
-4.16473e-15
-4.27549e-15
-4.22422e-15
-4.28699e-15
-4.21935e-15
-4.28477e-15
-4.18151e-15
-4.31798e-15
-4.14165e-15
-4.34091e-15
-4.16155e-15
-4.3702e-15
-4.22469e-15
-4.38843e-15
-4.25066e-15
-4.39537e-15
-4.23982e-15
-4.4074e-15
-4.24074e-15
-4.42454e-15
-4.253e-15
-4.44691e-15
-4.27675e-15
-4.47407e-15
-4.27925e-15
-4.48985e-15
-4.27679e-15
-4.49447e-15
-4.28574e-15
-4.48744e-15
-4.30656e-15
-4.46762e-15
-4.34019e-15
-4.50073e-15
-4.37153e-15
-4.52016e-15
-4.38379e-15
-4.50092e-15
-4.36003e-15
-4.48475e-15
-4.35899e-15
-4.47961e-15
-4.36452e-15
-4.45996e-15
-4.36868e-15
-4.44207e-15
-4.35505e-15
-4.42576e-15
-4.36584e-15
-4.41898e-15
-4.40154e-15
-4.40426e-15
-4.39529e-15
-4.40689e-15
-4.37278e-15
-4.39349e-15
-4.35054e-15
-4.38953e-15
-4.34529e-15
-4.38662e-15
-4.35688e-15
-4.37618e-15
-4.3685e-15
-4.37481e-15
-4.37193e-15
-4.3655e-15
-4.3673e-15
-4.3652e-15
-4.36318e-15
-4.38237e-15
-4.35959e-15
-4.38341e-15
-4.34798e-15
-4.38536e-15
-4.34518e-15
-4.39667e-15
-4.31742e-15
-4.40085e-15
-4.31495e-15
-4.40642e-15
-4.32931e-15
-4.41331e-15
-4.32692e-15
-4.41311e-15
-4.32461e-15
-4.41419e-15
-4.33084e-15
-4.39961e-15
-4.32885e-15
-4.37768e-15
-4.3356e-15
-4.37326e-15
-4.33456e-15
-4.37787e-15
-4.33413e-15
-4.37483e-15
-4.33425e-15
-4.3641e-15
-4.33494e-15
-4.35389e-15
-4.33208e-15
-4.34828e-15
-4.32568e-15
-4.33896e-15
-4.31573e-15
-4.33832e-15
-4.31878e-15
-4.33391e-15
-4.32239e-15
-4.33396e-15
-4.31835e-15
-4.33434e-15
-4.31075e-15
-4.33098e-15
-4.30772e-15
-4.32798e-15
-4.29287e-15
-4.32537e-15
-4.28653e-15
-4.3313e-15
-4.27644e-15
-4.33363e-15
-4.27066e-15
-4.33645e-15
-4.27718e-15
-4.33171e-15
-4.27987e-15
-4.32744e-15
-4.27879e-15
-4.32361e-15
-4.26997e-15
-4.3242e-15
-4.25742e-15
-4.31735e-15
-4.25298e-15
-4.31097e-15
-4.25261e-15
-4.30896e-15
-4.24847e-15
-4.29564e-15
-4.23668e-15
-4.28275e-15
-4.22119e-15
-4.27801e-15
-4.2175e-15
-4.27363e-15
-4.22549e-15
-4.26191e-15
-4.22208e-15
-4.2505e-15
-4.20742e-15
-4.24698e-15
-4.20056e-15
-4.24371e-15
-4.20139e-15
-4.24069e-15
-4.19483e-15
-4.23791e-15
-4.18467e-15
-4.23353e-15
-4.18573e-15
-4.23307e-15
-4.18687e-15
-4.23099e-15
-4.18623e-15
-4.22911e-15
-4.1802e-15
-4.22925e-15
-4.17247e-15
-4.22243e-15
-4.17378e-15
-4.21762e-15
-4.18045e-15
-4.21476e-15
-4.18361e-15
-4.21734e-15
-4.17805e-15
-4.21657e-15
-4.17607e-15
-4.21597e-15
-4.17761e-15
-4.21552e-15
-4.17918e-15
-4.21522e-15
-4.18079e-15
-4.21674e-15
-4.18075e-15
-4.2184e-15
-4.17908e-15
-4.22183e-15
-4.17747e-15
-4.22373e-15
-4.17426e-15
-4.22412e-15
-4.16948e-15
-4.22626e-15
-4.17282e-15
-4.22692e-15
-4.17615e-15
-4.22927e-15
-4.17631e-15
-4.23328e-15
-4.17336e-15
-4.23273e-15
-4.1689e-15
-4.23538e-15
-4.16297e-15
-4.23812e-15
-4.16317e-15
-4.23945e-15
-4.16337e-15
-4.24238e-15
-4.16208e-15
-4.24539e-15
-4.15934e-15
-4.24921e-15
-4.15589e-15
-4.25382e-15
-4.1532e-15
-4.25566e-15
-4.15122e-15
-4.2583e-15
-4.14855e-15
-4.26103e-15
-4.14521e-15
-4.26179e-15
-4.14529e-15
-4.26401e-15
-4.14265e-15
-4.2663e-15
-4.13869e-15
-4.2654e-15
-4.13541e-15
-4.26527e-15
-4.13344e-15
-4.26716e-15
-4.1321e-15
-4.26786e-15
-4.13074e-15
-4.26866e-15
-4.12876e-15
-4.26832e-15
-4.12554e-15
-4.26809e-15
-4.12174e-15
-4.26795e-15
-4.12033e-15
-4.2679e-15
-4.11949e-15
-4.26909e-15
-4.11748e-15
-4.26865e-15
-4.1166e-15
-4.26774e-15
-4.11514e-15
-4.26747e-15
-4.11477e-15
-4.26727e-15
-4.11546e-15
-4.26662e-15
-4.1145e-15
-4.26605e-15
-4.11273e-15
-4.26556e-15
-4.11226e-15
-4.26488e-15
-4.11203e-15
-4.26401e-15
-4.1105e-15
-4.26322e-15
-4.10897e-15
-4.2625e-15
-4.10891e-15
-4.26209e-15
-4.10907e-15
-4.26197e-15
-4.10849e-15
-4.26119e-15
-4.10765e-15
-4.26047e-15
-4.10727e-15
-4.2598e-15
-4.10687e-15
-4.26011e-15
-4.10599e-15
-4.26e-15
-4.10578e-15
-4.2597e-15
-4.10556e-15
-4.2599e-15
-4.10532e-15
-4.25969e-15
-4.10484e-15
-4.2593e-15
-4.10456e-15
-4.25916e-15
-4.10516e-15
-4.25906e-15
-4.1053e-15
-4.25888e-15
-4.10464e-15
-4.25851e-15
-4.10419e-15
-4.25851e-15
-4.10406e-15
-4.25876e-15
-4.10369e-15
-4.25893e-15
-4.10319e-15
-4.25912e-15
-4.10245e-15
-4.25935e-15
-4.10203e-15
-4.25972e-15
-4.10218e-15
-4.25989e-15
-4.10196e-15
-4.25984e-15
-4.10149e-15
-4.25982e-15
-4.10124e-15
-4.26007e-15
-4.10098e-15
-4.26021e-15
-4.10071e-15
-4.26045e-15
-4.10054e-15
-4.26045e-15
-4.10055e-15
-4.26041e-15
-4.10055e-15
-4.26058e-15
-4.10042e-15
-4.26058e-15
-4.10027e-15
-4.26045e-15
-4.10038e-15
-4.26035e-15
-4.10048e-15
-4.26032e-15
-4.1003e-15
-4.26025e-15
-4.10017e-15
-4.26011e-15
-4.10018e-15
-4.25998e-15
-4.10026e-15
-4.25987e-15
-4.10034e-15
-4.25977e-15
-4.1004e-15
-4.25972e-15
-4.10039e-15
-4.2596e-15
-4.1004e-15
-4.2595e-15
-4.1005e-15
-4.25948e-15
-4.10042e-15
-4.25939e-15
-4.10034e-15
-4.25932e-15
-4.10033e-15
-4.25933e-15
-4.10028e-15
-4.25932e-15
-4.10019e-15
-4.25922e-15
-4.10017e-15
-4.25913e-15
-4.10019e-15
-4.2591e-15
-4.10018e-15
-4.25904e-15
-4.10012e-15
-4.259e-15
-4.10011e-15
-4.25894e-15
-4.1001e-15
-4.2589e-15
-4.10011e-15
-4.25889e-15
-4.10012e-15
-4.25888e-15
-4.10012e-15
-4.25886e-15
-4.10012e-15
-4.25886e-15
-4.10011e-15
-4.25885e-15
-4.10011e-15
-4.25885e-15
-4.10011e-15
-2.98278e-15
-2.96099e-15
-3.00184e-15
-2.98458e-15
-3.02757e-15
-3.00319e-15
-3.05659e-15
-3.1119e-15
-3.16011e-15
-3.13759e-15
-3.14539e-15
-3.13061e-15
-3.15462e-15
-3.11611e-15
-3.26476e-15
-3.18322e-15
-3.32421e-15
-3.25092e-15
-3.37767e-15
-3.29868e-15
-3.44621e-15
-3.35009e-15
-3.4069e-15
-3.37651e-15
-3.46701e-15
-3.41502e-15
-3.50871e-15
-3.49022e-15
-3.55539e-15
-3.56151e-15
-3.62488e-15
-3.63247e-15
-3.63768e-15
-3.67623e-15
-3.6405e-15
-3.75137e-15
-3.70131e-15
-3.84702e-15
-3.81837e-15
-3.91474e-15
-3.86931e-15
-3.92031e-15
-3.88765e-15
-3.9355e-15
-3.9275e-15
-3.93001e-15
-3.96753e-15
-3.94981e-15
-3.95332e-15
-3.96587e-15
-3.96265e-15
-4.01039e-15
-4.01916e-15
-4.03147e-15
-4.07142e-15
-4.08277e-15
-4.14697e-15
-4.10695e-15
-4.19567e-15
-4.12491e-15
-4.16367e-15
-4.13263e-15
-4.21797e-15
-4.19311e-15
-4.24431e-15
-4.22147e-15
-4.21268e-15
-4.24885e-15
-4.26223e-15
-4.24984e-15
-4.30981e-15
-4.22008e-15
-4.2744e-15
-4.21248e-15
-4.33244e-15
-4.22957e-15
-4.33685e-15
-4.23861e-15
-4.33288e-15
-4.22483e-15
-4.35168e-15
-4.29491e-15
-4.34377e-15
-4.33131e-15
-4.32143e-15
-4.2758e-15
-4.31732e-15
-4.23341e-15
-4.3184e-15
-4.26298e-15
-4.32297e-15
-4.25884e-15
-4.36319e-15
-4.17342e-15
-4.35223e-15
-4.18747e-15
-4.35047e-15
-4.19378e-15
-4.30972e-15
-4.11386e-15
-4.31022e-15
-4.08775e-15
-4.321e-15
-4.05124e-15
-4.34338e-15
-4.06653e-15
-4.34583e-15
-4.1019e-15
-4.29469e-15
-4.1106e-15
-4.28299e-15
-4.11036e-15
-4.32609e-15
-4.08573e-15
-4.31321e-15
-4.11621e-15
-4.30677e-15
-4.17244e-15
-4.32045e-15
-4.22468e-15
-4.31994e-15
-4.24126e-15
-4.35367e-15
-4.2554e-15
-4.37321e-15
-4.28346e-15
-4.37827e-15
-4.29317e-15
-4.41814e-15
-4.30116e-15
-4.44412e-15
-4.28986e-15
-4.45696e-15
-4.2915e-15
-4.47339e-15
-4.28936e-15
-4.49384e-15
-4.29972e-15
-4.46853e-15
-4.30572e-15
-4.46341e-15
-4.34138e-15
-4.46042e-15
-4.3575e-15
-4.45887e-15
-4.33774e-15
-4.45082e-15
-4.30702e-15
-4.44509e-15
-4.28997e-15
-4.43339e-15
-4.29478e-15
-4.42381e-15
-4.28815e-15
-4.40786e-15
-4.30406e-15
-4.38496e-15
-4.3263e-15
-4.36269e-15
-4.28788e-15
-4.34965e-15
-4.26446e-15
-4.33742e-15
-4.25599e-15
-4.31744e-15
-4.27115e-15
-4.29759e-15
-4.29369e-15
-4.29417e-15
-4.30731e-15
-4.29008e-15
-4.2953e-15
-4.26848e-15
-4.2829e-15
-4.27159e-15
-4.26171e-15
-4.27428e-15
-4.2314e-15
-4.27686e-15
-4.20843e-15
-4.27959e-15
-4.18407e-15
-4.27428e-15
-4.17491e-15
-4.26933e-15
-4.15569e-15
-4.25638e-15
-4.14317e-15
-4.26909e-15
-4.13728e-15
-4.27386e-15
-4.12106e-15
-4.28772e-15
-4.11119e-15
-4.26881e-15
-4.09909e-15
-4.26752e-15
-4.08485e-15
-4.26716e-15
-4.08516e-15
-4.25096e-15
-4.08331e-15
-4.26057e-15
-4.07947e-15
-4.26263e-15
-4.08198e-15
-4.25301e-15
-4.08671e-15
-4.25242e-15
-4.08137e-15
-4.2484e-15
-4.07018e-15
-4.24514e-15
-4.06973e-15
-4.23021e-15
-4.07179e-15
-4.23234e-15
-4.07235e-15
-4.23501e-15
-4.07971e-15
-4.22999e-15
-4.08163e-15
-4.22545e-15
-4.07825e-15
-4.21728e-15
-4.07372e-15
-4.21358e-15
-4.06001e-15
-4.21434e-15
-4.05334e-15
-4.20341e-15
-4.04964e-15
-4.19687e-15
-4.04491e-15
-4.18666e-15
-4.05119e-15
-4.18072e-15
-4.04459e-15
-4.17503e-15
-4.04113e-15
-4.16956e-15
-4.04874e-15
-4.16426e-15
-4.04377e-15
-4.15913e-15
-4.03421e-15
-4.15808e-15
-4.02008e-15
-4.15334e-15
-4.01697e-15
-4.14883e-15
-4.01709e-15
-4.14067e-15
-4.02043e-15
-4.13652e-15
-4.01168e-15
-4.13635e-15
-4.00622e-15
-4.13257e-15
-4.00782e-15
-4.1252e-15
-4.02021e-15
-4.12547e-15
-4.02459e-15
-4.11838e-15
-4.0211e-15
-4.11511e-15
-4.02281e-15
-4.11008e-15
-4.02417e-15
-4.11245e-15
-4.02702e-15
-4.10577e-15
-4.02592e-15
-4.09736e-15
-4.02816e-15
-4.09976e-15
-4.03193e-15
-4.09861e-15
-4.02654e-15
-4.08864e-15
-4.02272e-15
-4.0805e-15
-4.02396e-15
-4.07589e-15
-4.02849e-15
-4.07474e-15
-4.02935e-15
-4.07013e-15
-4.03346e-15
-4.06381e-15
-4.0374e-15
-4.06423e-15
-4.03612e-15
-4.06625e-15
-4.03473e-15
-4.06821e-15
-4.03488e-15
-4.0701e-15
-4.02999e-15
-4.07193e-15
-4.02665e-15
-4.07532e-15
-4.02482e-15
-4.08025e-15
-4.02448e-15
-4.08037e-15
-4.02244e-15
-4.08204e-15
-4.02185e-15
-4.08368e-15
-4.01959e-15
-4.08376e-15
-4.01724e-15
-4.08534e-15
-4.01479e-15
-4.08541e-15
-4.01225e-15
-4.08992e-15
-4.00665e-15
-4.09439e-15
-4.00393e-15
-4.09809e-15
-4.00257e-15
-4.09746e-15
-4.0011e-15
-4.10039e-15
-4.00024e-15
-4.104e-15
-3.99717e-15
-4.1062e-15
-3.99542e-15
-4.10635e-15
-3.99561e-15
-4.10921e-15
-3.9957e-15
-4.11072e-15
-3.99302e-15
-4.11158e-15
-3.99355e-15
-4.11244e-15
-3.99397e-15
-4.11268e-15
-3.99494e-15
-4.11231e-15
-3.99516e-15
-4.11382e-15
-3.99344e-15
-4.11472e-15
-3.99349e-15
-4.11502e-15
-3.99467e-15
-4.11533e-15
-3.99634e-15
-4.11625e-15
-3.99792e-15
-4.11774e-15
-4.00114e-15
-4.11922e-15
-4.0014e-15
-4.1207e-15
-4.00159e-15
-4.12163e-15
-4.00282e-15
-4.12255e-15
-4.00397e-15
-4.12294e-15
-4.00398e-15
-4.12439e-15
-4.00341e-15
-4.12688e-15
-4.00254e-15
-4.12807e-15
-4.00162e-15
-4.12926e-15
-4.00117e-15
-4.13019e-15
-4.00043e-15
-4.13114e-15
-4.00014e-15
-4.1316e-15
-3.99932e-15
-4.13183e-15
-3.99895e-15
-4.13278e-15
-3.99902e-15
-4.13327e-15
-3.99951e-15
-4.13331e-15
-3.99949e-15
-4.13382e-15
-3.99897e-15
-4.13411e-15
-3.99887e-15
-4.13442e-15
-3.99897e-15
-4.13474e-15
-3.9988e-15
-4.13507e-15
-3.99838e-15
-4.13608e-15
-3.99815e-15
-4.13643e-15
-3.99811e-15
-4.13668e-15
-3.99859e-15
-4.13684e-15
-3.99905e-15
-4.13711e-15
-3.99925e-15
-4.13774e-15
-3.99921e-15
-4.1377e-15
-3.99925e-15
-4.13801e-15
-3.99949e-15
-4.13834e-15
-3.9997e-15
-4.13822e-15
-3.99978e-15
-4.13811e-15
-3.99961e-15
-4.13835e-15
-3.99953e-15
-4.13861e-15
-3.99966e-15
-4.13888e-15
-3.99978e-15
-4.13892e-15
-3.99975e-15
-4.13896e-15
-3.99971e-15
-4.13902e-15
-3.99965e-15
-4.13876e-15
-3.99969e-15
-4.13858e-15
-3.99985e-15
-4.13859e-15
-4.00006e-15
-4.13848e-15
-4.00025e-15
-4.1383e-15
-4.00044e-15
-4.13806e-15
-4.00054e-15
-4.13789e-15
-4.00071e-15
-4.13779e-15
-4.00079e-15
-4.13777e-15
-4.00086e-15
-4.1376e-15
-4.00113e-15
-4.13752e-15
-4.00126e-15
-4.13751e-15
-4.00121e-15
-4.13755e-15
-4.00116e-15
-4.13759e-15
-4.00126e-15
-4.13755e-15
-4.00122e-15
-4.13764e-15
-4.00109e-15
-4.1377e-15
-4.00112e-15
-4.13759e-15
-4.00122e-15
-4.13757e-15
-4.00123e-15
-4.13759e-15
-4.00123e-15
-4.1376e-15
-4.00129e-15
-4.13759e-15
-4.00137e-15
-4.13765e-15
-4.00142e-15
-4.13764e-15
-4.00143e-15
-4.13764e-15
-4.00147e-15
-4.13762e-15
-4.00154e-15
-4.13764e-15
-4.00158e-15
-4.13768e-15
-4.00158e-15
-4.13771e-15
-4.00159e-15
-4.13771e-15
-4.0016e-15
-4.1377e-15
-4.00161e-15
-4.1377e-15
-4.00162e-15
-4.13771e-15
-4.00162e-15
)
;

boundaryField
{
    walls
    {
        type            zeroGradient;
    }
    inlet
    {
        type            cyclic;
    }
    outlet
    {
        type            cyclic;
    }
    sides
    {
        type            empty;
    }
}


// ************************************************************************* //
