/*--------------------------------*- C++ -*----------------------------------*\
| =========                 |                                                 |
| \\      /  F ield         | OpenFOAM: The Open Source CFD Toolbox           |
|  \\    /   O peration     | Version:  2106                                  |
|   \\  /    A nd           | Website:  www.openfoam.com                      |
|    \\/     M anipulation  |                                                 |
\*---------------------------------------------------------------------------*/
FoamFile
{
    version     2.0;
    format      ascii;
    arch        "LSB;label=32;scalar=64";
    class       surfaceScalarField;
    location    "10030";
    object      phi;
}
// * * * * * * * * * * * * * * * * * * * * * * * * * * * * * * * * * * * * * //

dimensions      [0 3 -1 0 0 0 0];

oriented        oriented;

internalField   nonuniform List<scalar> 
3996
(
2.0397e-08
-4.83313e-18
6.12427e-24
-1.37927e-22
4.92456e-23
6.27131e-08
-4.83323e-18
9.65913e-23
-2.03788e-22
9.62582e-23
1.07391e-07
-4.83335e-18
1.07223e-22
-2.89296e-22
1.01772e-22
1.54534e-07
-4.83352e-18
1.10481e-22
-3.20988e-22
1.07622e-22
2.04248e-07
-4.83367e-18
1.17814e-22
-3.35306e-22
1.1383e-22
2.56645e-07
-4.83384e-18
1.27693e-22
-3.65032e-22
1.20418e-22
3.1184e-07
-4.83408e-18
1.383e-22
-4.18968e-22
1.27412e-22
3.69953e-07
-4.83426e-18
1.49332e-22
-4.82711e-22
1.34838e-22
4.3111e-07
-4.8345e-18
1.60891e-22
-5.85884e-22
1.42725e-22
4.95441e-07
-4.83484e-18
1.73077e-22
-6.27157e-22
1.511e-22
5.6308e-07
-4.83523e-18
1.85945e-22
-7.94083e-22
1.59995e-22
6.34167e-07
-4.83559e-18
1.99545e-22
-6.1741e-22
1.69446e-22
7.08848e-07
-4.83597e-18
2.13916e-22
-5.78552e-22
1.79483e-22
7.87276e-07
-4.83611e-18
2.29104e-22
-7.08249e-22
1.90145e-22
8.69605e-07
-4.83633e-18
2.45139e-22
-7.31645e-22
2.01481e-22
9.56001e-07
-4.83733e-18
2.62064e-22
-4.45914e-22
2.13525e-22
1.04663e-06
-4.8382e-18
2.79941e-22
-2.34376e-22
2.2631e-22
1.14167e-06
-4.83881e-18
2.98807e-22
-2.97251e-22
2.39885e-22
1.2413e-06
-4.8391e-18
3.18698e-22
-4.41157e-22
2.54302e-22
1.34572e-06
-4.83993e-18
3.39655e-22
-5.69132e-23
2.69608e-22
1.4551e-06
-4.84073e-18
3.61741e-22
-2.22234e-22
2.85849e-22
1.56966e-06
-4.84128e-18
3.84992e-22
-3.3698e-22
3.03092e-22
1.68961e-06
-4.84182e-18
4.09438e-22
-4.18746e-22
3.21391e-22
1.81515e-06
-4.84256e-18
4.35116e-22
-6.09984e-22
3.40814e-22
1.9465e-06
-4.84354e-18
4.62042e-22
-4.1954e-22
3.61449e-22
2.08389e-06
-4.8442e-18
4.90257e-22
-4.76721e-22
3.83344e-22
2.22755e-06
-4.84555e-18
5.19765e-22
-8.25876e-22
4.06567e-22
2.37771e-06
-4.84611e-18
5.50634e-22
-1.23782e-21
4.31182e-22
2.53461e-06
-4.84628e-18
5.82847e-22
-1.73972e-21
4.57248e-22
2.69848e-06
-4.84701e-18
6.16411e-22
-1.42736e-21
4.84806e-22
2.86957e-06
-4.84765e-18
6.51356e-22
-1.3169e-21
5.13874e-22
3.04812e-06
-4.84839e-18
6.87636e-22
-1.51667e-21
5.44534e-22
3.23437e-06
-4.84926e-18
7.25244e-22
-2.38236e-21
5.76844e-22
3.42855e-06
-4.85128e-18
7.64118e-22
-2.03155e-21
6.10844e-22
3.63088e-06
-4.85234e-18
8.04214e-22
-2.37353e-21
6.46546e-22
3.84159e-06
-4.85379e-18
8.45365e-22
-2.2031e-21
6.83997e-22
4.06089e-06
-4.85558e-18
8.87406e-22
-2.02423e-21
7.23203e-22
4.28898e-06
-4.85734e-18
9.30287e-22
-2.92338e-21
7.64102e-22
4.52603e-06
-4.85788e-18
9.73837e-22
-3.46446e-21
8.06726e-22
4.77222e-06
-4.86053e-18
1.01787e-21
-3.50218e-21
8.50931e-22
5.02769e-06
-4.86222e-18
1.06233e-21
-3.75058e-21
8.96669e-22
5.29256e-06
-4.86459e-18
1.10693e-21
-4.62019e-21
9.43772e-22
5.56694e-06
-4.86768e-18
1.1515e-21
-3.33083e-21
9.9216e-22
5.85092e-06
-4.86881e-18
1.19586e-21
-3.3563e-21
1.04154e-21
6.14455e-06
-4.8719e-18
1.23959e-21
-2.69598e-21
1.09187e-21
6.44787e-06
-4.87394e-18
1.28261e-21
-2.75771e-21
1.1429e-21
6.7609e-06
-4.8765e-18
1.32472e-21
-3.30314e-21
1.19462e-21
7.08364e-06
-4.87714e-18
1.36579e-21
-3.6611e-21
1.24699e-21
7.41608e-06
-4.87976e-18
1.40541e-21
-3.72342e-21
1.29985e-21
7.7582e-06
-4.8818e-18
1.44341e-21
-3.95499e-21
1.35291e-21
8.10995e-06
-4.88589e-18
1.47959e-21
-2.91142e-21
1.40622e-21
8.47131e-06
-4.88632e-18
1.51391e-21
-4.69075e-21
1.45949e-21
8.84221e-06
-4.88877e-18
1.54583e-21
-3.64657e-21
1.51287e-21
9.22264e-06
-4.89074e-18
1.57535e-21
-6.53028e-21
1.56643e-21
9.61254e-06
-4.88817e-18
1.60226e-21
-7.63908e-21
1.62042e-21
1.00119e-05
-4.89185e-18
1.6258e-21
-7.41454e-21
1.67467e-21
1.04207e-05
-4.89558e-18
1.64659e-21
-5.92404e-21
1.72933e-21
1.08389e-05
-4.89834e-18
1.66495e-21
-7.21271e-21
1.78419e-21
1.12665e-05
-4.90215e-18
1.68027e-21
-9.77492e-21
1.83955e-21
1.17036e-05
-4.90424e-18
1.69297e-21
-1.11421e-20
1.89524e-21
1.21502e-05
-4.90365e-18
1.703e-21
-1.49683e-20
1.95084e-21
1.26064e-05
-4.90496e-18
1.71029e-21
-1.69973e-20
2.00658e-21
1.30721e-05
-4.90305e-18
1.71495e-21
-2.31036e-20
2.06263e-21
1.35476e-05
-4.90298e-18
1.71643e-21
-2.70751e-20
2.11931e-21
1.40329e-05
-4.90397e-18
1.71514e-21
-2.79902e-20
2.17619e-21
1.45281e-05
-4.90389e-18
1.71111e-21
-3.08166e-20
2.23311e-21
1.50333e-05
-4.90636e-18
1.70364e-21
-3.379e-20
2.29053e-21
1.55488e-05
-4.90645e-18
1.69305e-21
-3.86449e-20
2.34874e-21
1.60746e-05
-4.91046e-18
1.67892e-21
-3.64199e-20
2.40866e-21
1.6611e-05
-4.91412e-18
1.66156e-21
-3.60055e-20
2.46903e-21
1.71581e-05
-4.91993e-18
1.64081e-21
-3.70661e-20
2.52915e-21
1.77162e-05
-4.92363e-18
1.61606e-21
-3.80004e-20
2.58938e-21
1.82854e-05
-4.92509e-18
1.58858e-21
-3.7636e-20
2.65031e-21
1.8866e-05
-4.92831e-18
1.55753e-21
-3.92705e-20
2.71032e-21
1.94581e-05
-4.92846e-18
1.52152e-21
-4.11321e-20
2.7696e-21
2.00621e-05
-4.93093e-18
1.48181e-21
-4.51782e-20
2.82892e-21
2.06783e-05
-4.92976e-18
1.43919e-21
-5.01033e-20
2.88723e-21
2.13067e-05
-4.91972e-18
1.39397e-21
-5.46038e-20
2.94364e-21
2.19478e-05
-4.91612e-18
1.34211e-21
-5.73726e-20
3.00201e-21
2.26019e-05
-4.91153e-18
1.28707e-21
-6.51182e-20
3.05914e-21
2.32691e-05
-4.90927e-18
1.22826e-21
-6.33641e-20
3.1142e-21
2.39498e-05
-4.90366e-18
1.16562e-21
-7.03529e-20
3.16654e-21
2.46443e-05
-4.89539e-18
1.09845e-21
-7.88552e-20
3.21983e-21
2.53529e-05
-4.89219e-18
1.02362e-21
-8.85472e-20
3.27518e-21
2.60759e-05
-4.88885e-18
9.42945e-22
-9.65103e-20
3.331e-21
2.68137e-05
-4.89125e-18
8.55599e-22
-1.02141e-19
3.38713e-21
2.75666e-05
-4.90012e-18
7.64345e-22
-1.04484e-19
3.43987e-21
2.83349e-05
-4.90465e-18
6.70973e-22
-1.1067e-19
3.49078e-21
2.9119e-05
-4.90603e-18
5.72866e-22
-1.10571e-19
3.54246e-21
2.99192e-05
-4.90222e-18
4.6878e-22
-1.16365e-19
3.59296e-21
3.0736e-05
-4.89094e-18
3.58206e-22
-1.27521e-19
3.6399e-21
3.15696e-05
-4.89246e-18
2.39521e-22
-1.3347e-19
3.68407e-21
3.24204e-05
-4.87652e-18
1.19212e-22
-1.5185e-19
3.72085e-21
3.3289e-05
-4.87715e-18
-1.54339e-23
-1.61707e-19
3.75938e-21
3.41755e-05
-4.87584e-18
-1.5384e-22
-1.7263e-19
3.7976e-21
3.50805e-05
-4.86959e-18
-2.96893e-22
-1.84381e-19
3.83282e-21
3.60044e-05
-4.85915e-18
-4.44962e-22
-2.05206e-19
3.86362e-21
3.69475e-05
-4.84631e-18
-5.98451e-22
-2.1077e-19
3.89406e-21
3.79104e-05
-4.84264e-18
-7.55394e-22
-2.2354e-19
3.91528e-21
3.88934e-05
-4.82888e-18
-9.128e-22
-2.44231e-19
3.93481e-21
3.98971e-05
-4.8176e-18
-1.07509e-21
-2.63805e-19
3.95044e-21
4.09218e-05
-4.79206e-18
-1.24308e-21
-2.8765e-19
3.95933e-21
4.1968e-05
-4.76773e-18
-1.41969e-21
-3.1036e-19
3.96623e-21
4.30362e-05
-4.7516e-18
-1.60867e-21
-3.31738e-19
3.97124e-21
4.41269e-05
-4.74156e-18
-1.80044e-21
-3.43828e-19
3.97189e-21
4.52406e-05
-4.73896e-18
-1.99569e-21
-3.53014e-19
3.95635e-21
4.63778e-05
-4.72598e-18
-2.18398e-21
-3.6588e-19
3.92978e-21
4.7539e-05
-4.71883e-18
-2.37805e-21
-3.65527e-19
3.89184e-21
4.87247e-05
-4.70301e-18
-2.57895e-21
-3.86999e-19
3.83466e-21
4.99355e-05
-4.68357e-18
-2.79049e-21
-4.0701e-19
3.77689e-21
5.11719e-05
-4.66417e-18
-3.02133e-21
-4.22523e-19
3.73136e-21
5.24345e-05
-4.64721e-18
-3.24775e-21
-4.4058e-19
3.68472e-21
5.37239e-05
-4.62741e-18
-3.49083e-21
-4.59729e-19
3.64083e-21
5.50405e-05
-4.60678e-18
-3.73734e-21
-4.78678e-19
3.59084e-21
5.63851e-05
-4.59568e-18
-3.99211e-21
-4.91142e-19
3.52522e-21
5.77582e-05
-4.56341e-18
-4.24703e-21
-5.20055e-19
3.44867e-21
5.91605e-05
-4.54691e-18
-4.51302e-21
-5.43551e-19
3.36594e-21
6.05925e-05
-4.52229e-18
-4.78301e-21
-5.67597e-19
3.27557e-21
6.20549e-05
-4.49863e-18
-5.06125e-21
-5.88785e-19
3.18529e-21
6.35484e-05
-4.45894e-18
-5.36093e-21
-6.0592e-19
3.10484e-21
6.50737e-05
-4.44552e-18
-5.70511e-21
-6.21317e-19
3.02345e-21
6.66314e-05
-4.41756e-18
-6.06497e-21
-6.32295e-19
2.95973e-21
6.82222e-05
-4.40058e-18
-6.43605e-21
-6.52869e-19
2.89291e-21
6.98468e-05
-4.39509e-18
-6.81493e-21
-6.52934e-19
2.83411e-21
7.1506e-05
-4.36773e-18
-7.18322e-21
-6.6771e-19
2.74886e-21
7.32005e-05
-4.33459e-18
-7.52722e-21
-6.91572e-19
2.64836e-21
7.4931e-05
-4.2994e-18
-7.85861e-21
-7.12835e-19
2.54547e-21
7.66984e-05
-4.26351e-18
-8.18889e-21
-7.38731e-19
2.44078e-21
7.85034e-05
-4.25092e-18
-8.52083e-21
-7.4863e-19
2.32226e-21
8.03468e-05
-4.21947e-18
-8.81605e-21
-7.70395e-19
2.18701e-21
8.22294e-05
-4.19809e-18
-9.13474e-21
-8.00405e-19
2.09964e-21
8.41521e-05
-4.17634e-18
-9.44286e-21
-8.13365e-19
2.01698e-21
8.61157e-05
-4.16031e-18
-9.73789e-21
-8.12402e-19
1.89153e-21
8.81211e-05
-4.11682e-18
-9.98886e-21
-8.30919e-19
1.70901e-21
9.01692e-05
-4.09119e-18
-1.02573e-20
-8.54677e-19
1.52912e-21
9.22608e-05
-4.06175e-18
-1.04858e-20
-8.79769e-19
1.35524e-21
9.4397e-05
-4.0324e-18
-1.07245e-20
-9.07547e-19
1.19112e-21
9.65786e-05
-3.98183e-18
-1.09429e-20
-9.35277e-19
1.06757e-21
9.88067e-05
-3.95073e-18
-1.11673e-20
-9.52104e-19
9.25465e-22
0.000101082
-3.91776e-18
-1.14057e-20
-9.80604e-19
7.31277e-22
0.000103406
-3.88155e-18
-1.16079e-20
-1.01666e-18
5.05433e-22
0.000105779
-3.84575e-18
-1.1859e-20
-1.044e-18
2.88335e-22
0.000108203
-3.80163e-18
-1.20984e-20
-1.06608e-18
7.37901e-23
0.000110678
-3.76261e-18
-1.22816e-20
-1.08233e-18
-1.19711e-22
0.000113206
-3.72671e-18
-1.24601e-20
-1.10717e-18
-3.28306e-22
0.000115788
-3.70582e-18
-1.26339e-20
-1.11416e-18
-5.3056e-22
0.000118424
-3.66032e-18
-1.27705e-20
-1.14605e-18
-8.04433e-22
0.000121116
-3.63414e-18
-1.2938e-20
-1.16634e-18
-1.04458e-21
0.000123866
-3.59845e-18
-1.3074e-20
-1.2096e-18
-1.35445e-21
0.000126674
-3.53731e-18
-1.31792e-20
-1.22682e-18
-1.64316e-21
0.000129541
-3.4807e-18
-1.32974e-20
-1.25811e-18
-1.94864e-21
0.00013247
-3.45546e-18
-1.34789e-20
-1.28911e-18
-2.25549e-21
0.00013546
-3.41625e-18
-1.36597e-20
-1.30533e-18
-2.59679e-21
0.000138514
-3.33732e-18
-1.37863e-20
-1.32944e-18
-2.80883e-21
0.000141633
-3.28335e-18
-1.41181e-20
-1.34539e-18
-2.99989e-21
0.000144817
-3.25639e-18
-1.44528e-20
-1.37294e-18
-3.09848e-21
0.00014807
-3.18546e-18
-1.46165e-20
-1.38597e-18
-3.18762e-21
0.000151391
-3.18266e-18
-1.50361e-20
-1.40183e-18
-3.3896e-21
0.000154782
-3.15478e-18
-1.52208e-20
-1.37582e-18
-3.6783e-21
0.000158245
-3.10942e-18
-1.51972e-20
-1.41298e-18
-4.00016e-21
0.000161781
-3.05811e-18
-1.51312e-20
-1.40713e-18
-4.3509e-21
0.000165392
-2.99223e-18
-1.50137e-20
-1.44204e-18
-4.92697e-21
0.00016908
-2.95185e-18
-1.50092e-20
-1.44885e-18
-5.09761e-21
0.000172845
-2.93464e-18
-1.50063e-20
-1.45912e-18
-5.1119e-21
0.00017669
-2.87755e-18
-1.48775e-20
-1.47363e-18
-5.09613e-21
0.000180616
-2.83234e-18
-1.47059e-20
-1.48254e-18
-5.16454e-21
0.000184625
-2.80478e-18
-1.46206e-20
-1.48824e-18
-5.43429e-21
0.000188718
-2.76431e-18
-1.44481e-20
-1.48381e-18
-5.73966e-21
0.000192898
-2.71424e-18
-1.42818e-20
-1.49746e-18
-6.24307e-21
0.000197165
-2.66942e-18
-1.41891e-20
-1.52498e-18
-6.92489e-21
0.000201523
-2.62948e-18
-1.4027e-20
-1.53452e-18
-7.44525e-21
0.000205972
-2.59392e-18
-1.39209e-20
-1.5123e-18
-8.00915e-21
0.000210514
-2.56485e-18
-1.39737e-20
-1.52169e-18
-8.91919e-21
0.000215152
-2.5132e-18
-1.37447e-20
-1.53568e-18
-9.72816e-21
0.000219888
-2.48817e-18
-1.37367e-20
-1.54668e-18
-1.03136e-20
0.000224723
-2.44263e-18
-1.36533e-20
-1.54169e-18
-1.07162e-20
0.000229659
-2.41912e-18
-1.3551e-20
-1.54396e-18
-1.14537e-20
0.000234699
-2.3927e-18
-1.33586e-20
-1.53482e-18
-1.20752e-20
0.000239845
-2.38187e-18
-1.34503e-20
-1.51515e-18
-1.25127e-20
0.000245098
-2.29994e-18
-1.31573e-20
-1.54936e-18
-1.35404e-20
0.000250461
-2.21658e-18
-1.29805e-20
-1.55787e-18
-1.45221e-20
0.000255936
-2.1737e-18
-1.36263e-20
-1.55463e-18
-1.47151e-20
0.000261525
-2.0987e-18
-1.44055e-20
-1.59131e-18
-1.45183e-20
0.000267231
-2.07295e-18
-1.51789e-20
-1.62311e-18
-1.4247e-20
0.000273056
-2.05122e-18
-1.53842e-20
-1.66906e-18
-1.46672e-20
0.000279003
-2.03967e-18
-1.51619e-20
-1.67264e-18
-1.43438e-20
0.000285073
-2.00401e-18
-1.57611e-20
-1.63863e-18
-1.44804e-20
0.000291269
-1.97112e-18
-1.59569e-20
-1.66372e-18
-1.59486e-20
0.000297594
-1.94056e-18
-1.6916e-20
-1.71139e-18
-1.67226e-20
0.000304051
-1.92122e-18
-1.81951e-20
-1.72789e-18
-1.68959e-20
0.000310641
-1.93647e-18
-1.9147e-20
-1.74895e-18
-1.67868e-20
0.000317368
-1.8806e-18
-1.94456e-20
-1.7673e-18
-1.63254e-20
0.000324234
-1.851e-18
-2.02212e-20
-1.76449e-18
-1.61537e-20
0.000331242
-1.84306e-18
-2.10264e-20
-1.76871e-18
-1.63633e-20
0.000338394
-1.82854e-18
-2.11343e-20
-1.80639e-18
-1.73751e-20
0.000345694
-1.81003e-18
-2.06336e-20
-1.80271e-18
-1.90509e-20
0.000353144
-1.78388e-18
-2.12359e-20
-1.79921e-18
-1.99377e-20
0.000360748
-1.77726e-18
-2.31944e-20
-1.80474e-18
-2.02015e-20
0.000368507
-1.84545e-18
-2.38851e-20
-1.71395e-18
-2.12862e-20
0.000376426
-1.91366e-18
-2.26974e-20
-1.64665e-18
-2.32344e-20
0.000384507
-1.75925e-18
-2.00665e-20
-1.7605e-18
-2.68569e-20
0.000392752
-1.70954e-18
-1.91982e-20
-1.6764e-18
-2.63734e-20
0.000401167
-1.67841e-18
-1.8943e-20
-1.64846e-18
-2.73005e-20
0.000409752
-1.53701e-18
-1.91695e-20
-1.63907e-18
-2.71982e-20
0.000418512
-1.59576e-18
-2.1374e-20
-1.58448e-18
-2.52163e-20
0.00042745
-1.56081e-18
-2.20404e-20
-1.56138e-18
-2.22649e-20
0.000436569
-1.60078e-18
-2.21292e-20
-1.5023e-18
-1.98448e-20
0.000445872
-1.58124e-18
-2.1092e-20
-1.48004e-18
-1.97925e-20
0.000455363
-1.42257e-18
-1.90019e-20
-1.46672e-18
-1.72276e-20
0.000465045
-1.37874e-18
-2.08945e-20
-1.37398e-18
-1.48858e-20
0.000474921
-1.31572e-18
-2.13144e-20
-1.37251e-18
-1.27311e-20
0.000484995
-1.25111e-18
-2.42986e-20
-1.34754e-18
-9.7477e-21
0.00049527
-1.27615e-18
-2.35759e-20
-1.31864e-18
-9.39026e-21
0.00050575
-1.30391e-18
-2.43182e-20
-1.36347e-18
-1.02146e-20
0.000516438
-1.3467e-18
-2.55291e-20
-1.26059e-18
-9.57461e-21
0.000527337
-1.48334e-18
-2.87717e-20
-1.24177e-18
-1.42976e-20
0.000538452
-1.39985e-18
-2.91529e-20
-1.30394e-18
-1.41016e-20
0.000549785
-1.32951e-18
-2.64004e-20
-1.34001e-18
-1.37882e-20
0.00056134
-1.33974e-18
-2.82055e-20
-1.25137e-18
-1.49505e-20
0.00057312
-1.42009e-18
-3.73114e-20
-1.30012e-18
-1.97779e-20
0.000585129
-1.25791e-18
-3.85135e-20
-1.25338e-18
-2.51873e-20
0.00059737
-1.34082e-18
-4.42855e-20
-1.32861e-18
-3.37523e-20
0.000609847
-1.39574e-18
-4.33981e-20
-1.3202e-18
-3.32562e-20
0.000622563
-1.33877e-18
-3.71742e-20
-1.28155e-18
-2.99707e-20
0.000635521
-1.36126e-18
-3.04833e-20
-1.33013e-18
-3.29844e-20
0.000648724
-1.35365e-18
-2.63513e-20
-1.31839e-18
-3.40813e-20
0.000662175
-1.12268e-18
-1.82899e-20
-1.3417e-18
-3.82175e-20
0.000675878
-1.24731e-18
-2.12133e-20
-1.23076e-18
-3.45346e-20
0.000689834
-1.27714e-18
-2.32913e-20
-1.2478e-18
-3.72249e-20
0.000704048
-1.21462e-18
-1.67774e-20
-1.15833e-18
-3.96833e-20
0.00071852
-1.252e-18
-1.77115e-20
-1.18712e-18
-4.56423e-20
0.000733253
-1.01257e-18
-1.49541e-20
-1.3466e-18
-4.71082e-20
0.00074825
-1.07571e-18
-2.84963e-20
-1.27554e-18
-3.95771e-20
0.000763511
-1.24045e-18
-4.08411e-20
-1.31116e-18
-3.65775e-20
0.000779039
-1.21546e-18
-3.30397e-20
-1.41317e-18
-2.46692e-20
0.000794834
-1.11695e-18
-3.3083e-20
-1.41893e-18
-1.52681e-20
0.000810896
-1.1447e-18
-4.44955e-20
-1.32963e-18
-1.38276e-20
0.000827226
-1.1725e-18
-4.71069e-20
-1.16821e-18
2.96505e-22
0.000843823
-1.22263e-18
-5.72361e-20
-1.03995e-18
-1.45361e-21
0.000860686
-1.3102e-18
-6.28156e-20
-1.08679e-18
-2.28959e-20
0.000877813
-1.21141e-18
-6.33569e-20
-1.00655e-18
-3.52759e-20
0.000895201
-1.34287e-18
-6.70031e-20
-1.01455e-18
-3.90185e-20
0.000912848
-1.11776e-18
-4.95668e-20
-1.08834e-18
-3.72881e-20
0.000930748
-1.04108e-18
-5.01505e-20
-9.14958e-19
-2.77141e-20
0.000948896
-9.29375e-19
-4.3731e-20
-8.67395e-19
-2.59174e-20
0.000967286
-8.77538e-19
-4.61298e-20
-8.07528e-19
-1.42738e-20
0.000985911
-7.31574e-19
-4.51398e-20
-9.04173e-19
-4.12955e-20
0.00100476
-6.72777e-19
-3.43396e-20
-8.22333e-19
-3.29802e-20
0.00102383
-7.70781e-19
-3.20275e-20
-8.15314e-19
-1.50705e-20
0.00104311
-4.17141e-21
-7.23038e-19
4.84469e-21
-8.09309e-19
2.0397e-08
5.74064e-24
5.26023e-23
6.27131e-08
8.45612e-23
1.76069e-22
1.07391e-07
1.65022e-22
3.13229e-22
1.54534e-07
2.71502e-22
4.37742e-22
2.04248e-07
3.87139e-22
5.42334e-22
2.56645e-07
4.98068e-22
7.0574e-22
3.1184e-07
6.38992e-22
8.53021e-22
3.69953e-07
6.88583e-22
1.12342e-21
4.3111e-07
9.46238e-22
1.20871e-21
4.95441e-07
1.05968e-21
1.4826e-21
5.6308e-07
1.27311e-21
1.6763e-21
6.34167e-07
1.40687e-21
1.93473e-21
7.08848e-07
1.59227e-21
2.18924e-21
7.87276e-07
1.69909e-21
2.66794e-21
8.69605e-07
1.89734e-21
2.99523e-21
9.56001e-07
2.16184e-21
3.26183e-21
1.04663e-06
2.41474e-21
3.50813e-21
1.14167e-06
2.59902e-21
3.82169e-21
1.2413e-06
2.90435e-21
4.06863e-21
1.34572e-06
3.41871e-21
4.49245e-21
1.4551e-06
3.67372e-21
4.75028e-21
1.56966e-06
3.9958e-21
5.02906e-21
1.68961e-06
4.47045e-21
5.29906e-21
1.81515e-06
4.62974e-21
5.98084e-21
1.9465e-06
5.28157e-21
6.47227e-21
2.08389e-06
5.63376e-21
6.82951e-21
2.22755e-06
6.4616e-21
7.08957e-21
2.37771e-06
6.87593e-21
7.60866e-21
2.53461e-06
7.39648e-21
8.04743e-21
2.69848e-06
8.13827e-21
8.51109e-21
2.86957e-06
8.0978e-21
9.34399e-21
3.04812e-06
8.82138e-21
1.04338e-20
3.23437e-06
9.71993e-21
1.07959e-20
3.42855e-06
1.04765e-20
1.16898e-20
3.63088e-06
1.12471e-20
1.2379e-20
3.84159e-06
1.14386e-20
1.34914e-20
4.06089e-06
1.29856e-20
1.41167e-20
4.28898e-06
1.37202e-20
1.55264e-20
4.52603e-06
1.4839e-20
1.64903e-20
4.77222e-06
1.60076e-20
1.94064e-20
5.02769e-06
1.67282e-20
2.0637e-20
5.29256e-06
1.75672e-20
2.16184e-20
5.56694e-06
1.86236e-20
2.28537e-20
5.85092e-06
1.92297e-20
2.45207e-20
6.14455e-06
1.98632e-20
2.55934e-20
6.44787e-06
2.08545e-20
2.77543e-20
6.7609e-06
2.27276e-20
2.89879e-20
7.08364e-06
2.47026e-20
3.02657e-20
7.41608e-06
2.60182e-20
2.95722e-20
7.7582e-06
2.7897e-20
3.0744e-20
8.10995e-06
2.9447e-20
3.19986e-20
8.47131e-06
3.07434e-20
3.25475e-20
8.84221e-06
3.12988e-20
3.52158e-20
9.22264e-06
3.26606e-20
3.67072e-20
9.61254e-06
3.31756e-20
3.81185e-20
1.00119e-05
3.39928e-20
4.11695e-20
1.04207e-05
3.78838e-20
4.44057e-20
1.08389e-05
3.76647e-20
4.8153e-20
1.12665e-05
3.95205e-20
5.00399e-20
1.17036e-05
4.05231e-20
5.11385e-20
1.21502e-05
4.25986e-20
5.23584e-20
1.26064e-05
4.34544e-20
5.59441e-20
1.30721e-05
4.34001e-20
5.92477e-20
1.35476e-05
4.51162e-20
6.17647e-20
1.40329e-05
4.73196e-20
6.37272e-20
1.45281e-05
4.78803e-20
6.65474e-20
1.50333e-05
5.04566e-20
6.87912e-20
1.55488e-05
5.39863e-20
7.1486e-20
1.60746e-05
5.53566e-20
7.59574e-20
1.6611e-05
5.62407e-20
7.90385e-20
1.71581e-05
5.22326e-20
8.07564e-20
1.77162e-05
5.67066e-20
8.44366e-20
1.82854e-05
5.87469e-20
8.58726e-20
1.8866e-05
5.20418e-20
8.69433e-20
1.94581e-05
5.41313e-20
9.12495e-20
2.00621e-05
5.56578e-20
9.49183e-20
2.06783e-05
6.04677e-20
9.35963e-20
2.13067e-05
5.84452e-20
1.02189e-19
2.19478e-05
6.31552e-20
1.04332e-19
2.26019e-05
6.54106e-20
1.04893e-19
2.32691e-05
6.71935e-20
1.08002e-19
2.39498e-05
7.02498e-20
1.1464e-19
2.46443e-05
6.71567e-20
1.24666e-19
2.53529e-05
7.04547e-20
1.25334e-19
2.60759e-05
7.35452e-20
1.29011e-19
2.68137e-05
8.14007e-20
1.25898e-19
2.75666e-05
9.06468e-20
1.3276e-19
2.83349e-05
9.49881e-20
1.44206e-19
2.9119e-05
9.47126e-20
1.56126e-19
2.99192e-05
9.47426e-20
1.58766e-19
3.0736e-05
9.69406e-20
1.58646e-19
3.15696e-05
1.03623e-19
1.53115e-19
3.24204e-05
9.53085e-20
1.57468e-19
3.3289e-05
9.22005e-20
1.66725e-19
3.41755e-05
9.03656e-20
1.75159e-19
3.50805e-05
9.37829e-20
1.78344e-19
3.60044e-05
9.70622e-20
1.79132e-19
3.69475e-05
1.03826e-19
1.81554e-19
3.79104e-05
1.03919e-19
1.92598e-19
3.88934e-05
1.04392e-19
1.94714e-19
3.98971e-05
9.93363e-20
1.98772e-19
4.09218e-05
1.03235e-19
2.04811e-19
4.1968e-05
1.01161e-19
2.12066e-19
4.30362e-05
1.06143e-19
2.21445e-19
4.41269e-05
1.03256e-19
2.20123e-19
4.52406e-05
1.07953e-19
2.26721e-19
4.63778e-05
1.06905e-19
2.35238e-19
4.7539e-05
1.00742e-19
2.45113e-19
4.87247e-05
9.59015e-20
2.44653e-19
4.99355e-05
8.13419e-20
2.56595e-19
5.11719e-05
9.63562e-20
2.61505e-19
5.24345e-05
8.55083e-20
2.69584e-19
5.37239e-05
9.21987e-20
2.6852e-19
5.50405e-05
9.04112e-20
2.67898e-19
5.63851e-05
8.75874e-20
2.8053e-19
5.77582e-05
9.59395e-20
2.80289e-19
5.91605e-05
9.56451e-20
2.7943e-19
6.05925e-05
9.88566e-20
2.72886e-19
6.20549e-05
9.48071e-20
2.72618e-19
6.35484e-05
9.32524e-20
2.68931e-19
6.50737e-05
9.03263e-20
2.8994e-19
6.66314e-05
9.6418e-20
2.97265e-19
6.82222e-05
8.37501e-20
3.01248e-19
6.98468e-05
6.45836e-20
3.04058e-19
7.1506e-05
6.59278e-20
3.07671e-19
7.32005e-05
6.24806e-20
3.09563e-19
7.4931e-05
6.06388e-20
3.11749e-19
7.66984e-05
6.17037e-20
3.06458e-19
7.85034e-05
6.68181e-20
3.00951e-19
8.03468e-05
5.68519e-20
3.11254e-19
8.22294e-05
5.38614e-20
3.02805e-19
8.41521e-05
4.19776e-20
2.94195e-19
8.61157e-05
3.40813e-20
2.78023e-19
8.81211e-05
1.52001e-20
2.60952e-19
9.01692e-05
8.11532e-21
2.52192e-19
9.22608e-05
-1.65531e-20
2.57569e-19
9.4397e-05
-2.4738e-20
2.74321e-19
9.65786e-05
-1.75692e-20
2.60294e-19
9.88067e-05
-3.00626e-20
2.47726e-19
0.000101082
-2.55497e-20
2.4435e-19
0.000103406
-5.14221e-20
2.41546e-19
0.000105779
-5.08594e-20
2.27777e-19
0.000108203
-2.97307e-20
2.27351e-19
0.000110678
-2.9174e-20
2.21148e-19
0.000113206
-3.01385e-20
2.07453e-19
0.000115788
-4.19438e-20
1.89398e-19
0.000118424
-5.10855e-20
1.91602e-19
0.000121116
-5.59161e-20
1.73916e-19
0.000123866
-5.92229e-20
1.53659e-19
0.000126674
-5.89437e-20
1.34815e-19
0.000129541
-6.4642e-20
1.19537e-19
0.00013247
-7.78636e-20
1.08205e-19
0.00013546
-6.73606e-20
1.41645e-19
0.000138514
-7.1409e-20
1.21111e-19
0.000141633
-5.52956e-20
1.14489e-19
0.000144817
-4.41e-20
9.0294e-20
0.00014807
-8.55109e-20
7.64046e-20
0.000151391
-8.16087e-20
6.13029e-20
0.000154782
-6.80066e-20
7.83788e-20
0.000158245
-7.65227e-20
4.43211e-20
0.000161781
-7.33918e-20
1.88945e-20
0.000165392
-7.39226e-20
4.73865e-20
0.00016908
-7.21235e-20
6.99795e-20
0.000172845
-7.53495e-20
7.3129e-20
0.00017669
-6.06591e-20
5.95501e-20
0.000180616
-8.33146e-20
4.97062e-20
0.000184625
-9.27789e-20
3.22575e-20
0.000188718
-1.00699e-19
6.14262e-21
0.000192898
-1.01562e-19
9.90421e-21
0.000197165
-7.95469e-20
1.95065e-20
0.000201523
-8.22599e-20
-2.26121e-21
0.000205972
-1.04077e-19
-2.59097e-21
0.000210514
-7.37471e-20
1.90533e-20
0.000215152
-9.60334e-20
3.07667e-20
0.000219888
-1.17836e-19
2.87139e-20
0.000224723
-1.17661e-19
-1.81366e-20
0.000229659
-1.27895e-19
-2.75703e-20
0.000234699
-1.72895e-19
-1.942e-20
0.000239845
-1.8527e-19
-6.44893e-20
0.000245098
-1.91174e-19
-1.0777e-19
0.000250461
-2.43033e-19
-6.48555e-20
0.000255936
-2.66182e-19
-7.60023e-20
0.000261525
-2.46447e-19
-1.30243e-19
0.000267231
-2.14527e-19
-1.76303e-19
0.000273056
-1.7143e-19
-1.49967e-19
0.000279003
-2.30789e-19
-2.07324e-19
0.000285073
-2.036e-19
-2.42567e-19
0.000291269
-2.72345e-19
-1.8439e-19
0.000297594
-2.93196e-19
-2.17617e-19
0.000304051
-2.78852e-19
-2.43716e-19
0.000310641
-2.75843e-19
-2.48568e-19
0.000317368
-2.74031e-19
-2.87997e-19
0.000324234
-2.78615e-19
-2.81583e-19
0.000331242
-2.7078e-19
-2.92817e-19
0.000338394
-2.72748e-19
-3.68566e-19
0.000345694
-3.43298e-19
-3.7012e-19
0.000353144
-4.05173e-19
-3.53591e-19
0.000360748
-3.66217e-19
-3.88651e-19
0.000368507
-3.65855e-19
-3.27207e-19
0.000376426
-3.8105e-19
-3.65746e-19
0.000384507
-3.40862e-19
-3.36439e-19
0.000392752
-3.7929e-19
-3.22762e-19
0.000401167
-4.24092e-19
-3.13758e-19
0.000409752
-4.11367e-19
-3.33152e-19
0.000418512
-4.68769e-19
-3.36482e-19
0.00042745
-4.59814e-19
-3.72687e-19
0.000436569
-4.96451e-19
-4.22261e-19
0.000445872
-4.72727e-19
-3.50825e-19
0.000455363
-4.76168e-19
-3.86887e-19
0.000465045
-4.23001e-19
-3.91471e-19
0.000474921
-4.92624e-19
-4.30903e-19
0.000484995
-3.92768e-19
-4.73094e-19
0.00049527
-4.9979e-19
-4.32209e-19
0.00050575
-5.10306e-19
-3.76813e-19
0.000516438
-5.61681e-19
-4.30766e-19
0.000527337
-6.31025e-19
-3.95077e-19
0.000538452
-5.13661e-19
-5.12841e-19
0.000549785
-5.46674e-19
-5.91374e-19
0.00056134
-6.8751e-19
-5.90195e-19
0.00057312
-6.09536e-19
-5.99947e-19
0.000585129
-6.0544e-19
-6.15618e-19
0.00059737
-6.10044e-19
-5.97764e-19
0.000609847
-6.01575e-19
-5.69132e-19
0.000622563
-5.57062e-19
-6.34584e-19
0.000635521
-6.33944e-19
-6.55924e-19
0.000648724
-5.64734e-19
-6.78524e-19
0.000662175
-5.20484e-19
-6.21587e-19
0.000675878
-6.16209e-19
-6.4982e-19
0.000689834
-4.91893e-19
-5.35413e-19
0.000704048
-5.30936e-19
-4.78264e-19
0.00071852
-5.04747e-19
-5.03238e-19
0.000733253
-4.64103e-19
-5.04566e-19
0.00074825
-5.05911e-19
-5.00852e-19
0.000763511
-4.09466e-19
-4.28329e-19
0.000779039
-4.18836e-19
-4.85637e-19
0.000794834
-4.3843e-19
-5.43453e-19
0.000810896
-3.90377e-19
-3.9608e-19
0.000827226
-4.91053e-19
-4.93131e-19
0.000843823
-5.18141e-19
-5.40297e-19
0.000860686
-6.21571e-19
-5.4664e-19
0.000877813
-6.4298e-19
-5.60963e-19
0.000895201
-6.29723e-19
-5.62761e-19
0.000912848
-6.21157e-19
-5.2082e-19
0.000930748
-5.87776e-19
-5.21116e-19
0.000948896
-6.05669e-19
-4.76419e-19
0.000967286
-5.05823e-19
-6.73044e-19
0.000985911
-3.06504e-19
-4.97534e-19
0.00100476
-3.57975e-19
-4.33975e-19
0.00102383
-3.15982e-19
-4.03618e-19
0.00104311
-5.48412e-19
-4.52124e-19
0.00104311
-7.02711e-19
-5.45305e-21
-6.50923e-19
2.02138e-20
0.00102383
-4.70523e-19
2.46985e-21
-4.8313e-19
6.32163e-21
0.00100476
-4.08713e-19
-7.0724e-21
-4.09054e-19
-3.99951e-21
0.000985911
-5.29528e-19
-1.8366e-20
-4.02042e-19
-1.37644e-20
0.000967286
-4.82458e-19
-1.1179e-20
-4.22384e-19
-1.46978e-20
0.000948896
-5.27278e-19
-8.71847e-21
-3.71763e-19
-1.59736e-20
0.000930748
-5.92582e-19
-6.74946e-21
-3.69163e-19
-3.40637e-20
0.000912848
-3.83457e-19
1.19867e-20
-5.04199e-19
-3.73468e-20
0.000895201
-4.21525e-19
3.16455e-21
-5.1165e-19
-2.04732e-20
0.000877813
-4.68439e-19
1.32987e-21
-5.09051e-19
-2.09355e-20
0.000860686
-4.35063e-19
3.06325e-21
-4.55548e-19
-1.92484e-20
0.000843823
-5.21885e-19
-1.24065e-20
-5.07665e-19
-2.91543e-20
0.000827226
-5.31175e-19
-5.94873e-21
-4.22919e-19
-1.39964e-20
0.000810896
-3.4948e-19
4.02709e-21
-3.95434e-19
-4.63795e-21
0.000794834
-3.34464e-19
-1.47182e-21
-3.86313e-19
-3.45836e-21
0.000779039
-2.96657e-19
-7.30704e-21
-3.69249e-19
-3.21914e-21
0.000763511
-3.21397e-19
-2.01272e-20
-4.06359e-19
-4.06099e-22
0.00074825
-3.09925e-19
-2.66669e-20
-2.04366e-19
1.52575e-20
0.000733253
-2.63681e-19
-1.94633e-20
-1.97212e-19
9.55768e-21
0.00071852
-2.33567e-19
-7.62191e-21
-2.59925e-19
2.17541e-21
0.000704048
-2.41601e-19
-3.20016e-21
-2.80738e-19
4.57575e-22
0.000689834
-2.72907e-19
-2.02133e-21
-2.52734e-19
-6.10387e-22
0.000675878
-1.84442e-19
6.21438e-22
-1.95792e-19
-3.4656e-21
0.000662175
-2.02606e-19
-2.71532e-21
-2.25448e-19
-1.28486e-21
0.000648724
-1.923e-19
-8.08346e-21
-2.04891e-19
7.45005e-22
0.000635521
-2.20723e-19
-8.98409e-21
-2.3057e-19
3.65376e-21
0.000622563
-1.59018e-19
-4.70229e-21
-1.69418e-19
4.0716e-21
0.000609847
-2.32906e-19
-7.55467e-21
-3.02845e-19
2.89453e-22
0.00059737
-2.53603e-19
-3.25919e-21
-2.91431e-19
-5.56693e-21
0.000585129
-2.25873e-19
4.16792e-21
-2.55307e-19
-1.01811e-20
0.00057312
-2.39576e-19
-7.94865e-24
-2.33386e-19
-1.02888e-20
0.00056134
-2.47797e-19
7.92254e-22
-3.0993e-19
-7.45384e-21
0.000549785
-2.21983e-19
-3.60921e-21
-2.30458e-19
-2.96438e-21
0.000538452
-2.90977e-19
-8.88608e-21
-3.42621e-19
-4.68268e-21
0.000527337
-3.69593e-19
-8.44697e-21
-3.63061e-19
-3.35205e-21
0.000516438
-3.60019e-19
-3.76649e-21
-3.65239e-19
-3.20546e-21
0.00050575
-3.20428e-19
-4.44382e-21
-3.21301e-19
-2.0828e-21
0.00049527
-3.62979e-19
-6.3536e-22
-3.07177e-19
-1.02323e-21
0.000484995
-3.67461e-19
3.24789e-22
-3.46961e-19
-1.37236e-22
0.000474921
-3.52875e-19
7.373e-22
-3.28975e-19
-5.73186e-23
0.000465045
-3.60111e-19
7.06736e-22
-3.93394e-19
-2.05212e-22
0.000455363
-3.30237e-19
1.91307e-21
-3.71631e-19
-4.08682e-22
0.000445872
-3.61061e-19
1.07634e-21
-2.8965e-19
-1.53771e-21
0.000436569
-3.47699e-19
2.01736e-21
-3.26955e-19
-4.7746e-21
0.00042745
-3.03672e-19
3.94028e-21
-3.71578e-19
-5.32573e-21
0.000418512
-2.86126e-19
4.85364e-21
-3.43794e-19
-4.89986e-21
0.000409752
-2.54724e-19
5.33883e-21
-3.64563e-19
-5.90623e-21
0.000401167
-2.93665e-19
2.40799e-21
-3.31588e-19
-2.18099e-21
0.000392752
-2.76003e-19
1.64993e-21
-3.67515e-19
-6.7776e-22
0.000384507
-2.51298e-19
3.97778e-22
-4.00755e-19
-1.71961e-21
0.000376426
-2.26439e-19
5.13151e-22
-3.12447e-19
-2.26338e-21
0.000368507
-3.39704e-19
-3.68414e-22
-1.79305e-19
-3.30982e-21
0.000360748
-3.18827e-19
2.16892e-21
-2.23015e-19
-4.19879e-21
0.000353144
-2.12589e-19
2.33784e-21
-2.14163e-19
-2.49974e-21
0.000345694
-2.18429e-19
2.42097e-22
-2.23336e-19
-1.79956e-21
0.000338394
-1.99232e-19
-3.56281e-22
-2.24721e-19
-8.01556e-22
0.000331242
-1.55866e-19
-4.39597e-22
-2.57188e-19
-2.93214e-22
0.000324234
-1.44997e-19
-1.52626e-21
-2.01346e-19
1.8842e-21
0.000317368
-1.18966e-19
-2.42834e-21
-1.2583e-19
3.54706e-21
0.000310641
-1.5867e-19
-2.68353e-21
-1.11508e-19
4.03809e-21
0.000304051
-1.72874e-19
-2.63181e-21
-1.50394e-19
3.67902e-21
0.000297594
-1.69327e-19
-1.59373e-21
-1.61636e-19
3.55018e-21
0.000291269
-1.54777e-19
-1.0406e-21
-1.69549e-19
3.66634e-21
0.000285073
-1.51526e-19
-8.96195e-22
-1.53071e-19
3.05406e-21
0.000279003
-1.24003e-19
1.84794e-23
-1.43372e-19
2.45379e-21
0.000273056
-1.68368e-19
1.36196e-22
-1.23268e-19
2.01518e-21
0.000267231
-1.91762e-19
2.03596e-22
-1.00506e-19
2.34474e-21
0.000261525
-1.74578e-19
4.0805e-22
-1.07833e-19
2.12776e-21
0.000255936
-1.9457e-19
3.28062e-22
-1.14216e-19
2.00902e-21