/*--------------------------------*- C++ -*----------------------------------*\
| =========                 |                                                 |
| \\      /  F ield         | OpenFOAM: The Open Source CFD Toolbox           |
|  \\    /   O peration     | Version:  2106                                  |
|   \\  /    A nd           | Website:  www.openfoam.com                      |
|    \\/     M anipulation  |                                                 |
\*---------------------------------------------------------------------------*/
FoamFile
{
    version     2.0;
    format      ascii;
    arch        "LSB;label=32;scalar=64";
    class       volSymmTensorField;
    location    "10030";
    object      turbulenceProperties:R;
}
// * * * * * * * * * * * * * * * * * * * * * * * * * * * * * * * * * * * * * //

dimensions      [0 2 -2 0 0 0 0];

internalField   nonuniform List<symmTensor> 
2000
(
(1.05348e-07 -2.77834e-12 -5.14218e-15 1.05348e-07 9.00894e-28 1.05348e-07)
(1.05348e-07 -2.77834e-12 -5.14218e-15 1.05348e-07 9.09678e-31 1.05348e-07)
(1.69439e-08 -2.57418e-12 -1.43828e-14 1.69439e-08 -1.08299e-28 1.69439e-08)
(1.69439e-08 -2.57418e-12 -1.43828e-14 1.69439e-08 5.98986e-31 1.69439e-08)
(1.55956e-08 -7.01521e-12 -5.43849e-14 1.55956e-08 9.00609e-43 1.55956e-08)
(1.55956e-08 -7.01521e-12 -5.43849e-14 1.55956e-08 1.31068e-32 1.55956e-08)
(4.28316e-08 -4.10229e-11 -3.23963e-13 4.28316e-08 1.16094e-26 4.28316e-08)
(4.28316e-08 -4.10229e-11 -3.23963e-13 4.28316e-08 -4.16909e-30 4.28316e-08)
(1.0886e-07 -1.84719e-10 -1.48598e-12 1.0886e-07 1.12336e-26 1.0886e-07)
(1.0886e-07 -1.84719e-10 -1.48598e-12 1.0886e-07 -3.27414e-29 1.0886e-07)
(2.331e-07 -6.25408e-10 -5.12501e-12 2.331e-07 3.35219e-26 2.331e-07)
(2.331e-07 -6.25408e-10 -5.12501e-12 2.331e-07 -1.15453e-28 2.331e-07)
(4.39711e-07 -1.72845e-09 -1.44285e-11 4.39711e-07 8.01135e-26 4.39711e-07)
(4.39711e-07 -1.72845e-09 -1.44285e-11 4.39711e-07 -2.0725e-28 4.39711e-07)
(7.57104e-07 -4.13001e-09 -3.51191e-11 7.57104e-07 1.86907e-25 7.57104e-07)
(7.57104e-07 -4.13001e-09 -3.51191e-11 7.57104e-07 -4.51127e-28 7.57104e-07)
(1.21804e-06 -8.85537e-09 -7.67062e-11 1.21804e-06 4.07189e-25 1.21804e-06)
(1.21804e-06 -8.85537e-09 -7.67062e-11 1.21804e-06 -2.40559e-27 1.21804e-06)
(1.85992e-06 -1.74674e-08 -1.54129e-10 1.85992e-06 8.05185e-25 1.85992e-06)
(1.85992e-06 -1.74674e-08 -1.54129e-10 1.85992e-06 -7.20365e-27 1.85992e-06)
(2.72508e-06 -3.22504e-08 -2.89882e-10 2.72508e-06 1.5118e-24 2.72508e-06)
(2.72508e-06 -3.22504e-08 -2.89882e-10 2.72508e-06 -1.72705e-26 2.72508e-06)
(3.86118e-06 -5.64342e-08 -5.16723e-10 3.86118e-06 2.69103e-24 3.86118e-06)
(3.86118e-06 -5.64342e-08 -5.16723e-10 3.86118e-06 -3.73535e-26 3.86118e-06)
(5.32164e-06 -9.44663e-08 -8.81095e-10 5.32164e-06 4.5796e-24 5.32164e-06)
(5.32164e-06 -9.44663e-08 -8.81095e-10 5.32164e-06 -5.89241e-26 5.32164e-06)
(7.16605e-06 -1.52338e-07 -1.44739e-09 7.16605e-06 7.52198e-24 7.16605e-06)
(7.16605e-06 -1.52338e-07 -1.44739e-09 7.16605e-06 -1.07393e-25 7.16605e-06)
(9.46068e-06 -2.37973e-07 -2.3032e-09 9.46068e-06 1.20244e-23 9.46068e-06)
(9.46068e-06 -2.37973e-07 -2.3032e-09 9.46068e-06 -2.88386e-25 9.46068e-06)
(1.22789e-05 -3.61683e-07 -3.56583e-09 1.22789e-05 1.87114e-23 1.22789e-05)
(1.22789e-05 -3.61683e-07 -3.56583e-09 1.22789e-05 -5.67274e-25 1.22789e-05)
(1.57019e-05 -5.36705e-07 -5.39009e-09 1.57019e-05 2.82181e-23 1.57019e-05)
(1.57019e-05 -5.36705e-07 -5.39009e-09 1.57019e-05 -7.4404e-25 1.57019e-05)
(1.9819e-05 -7.79821e-07 -7.97775e-09 1.9819e-05 4.15711e-23 1.9819e-05)
(1.9819e-05 -7.79821e-07 -7.97775e-09 1.9819e-05 -1.13558e-24 1.9819e-05)
(2.47282e-05 -1.11207e-06 -1.15889e-08 2.47282e-05 6.02805e-23 2.47282e-05)
(2.47282e-05 -1.11207e-06 -1.15889e-08 2.47282e-05 -2.09349e-24 2.47282e-05)
(3.0537e-05 -1.55956e-06 -1.65552e-08 3.0537e-05 8.60147e-23 3.0537e-05)
(3.0537e-05 -1.55956e-06 -1.65552e-08 3.0537e-05 -2.74485e-24 3.0537e-05)
(3.73626e-05 -2.15438e-06 -2.32957e-08 3.73626e-05 1.20538e-22 3.73626e-05)
(3.73626e-05 -2.15438e-06 -2.32957e-08 3.73626e-05 -3.59782e-24 3.73626e-05)
(4.53326e-05 -2.93561e-06 -3.23347e-08 4.53326e-05 1.66193e-22 4.53326e-05)
(4.53326e-05 -2.93561e-06 -3.23347e-08 4.53326e-05 -6.03302e-24 4.53326e-05)
(5.45857e-05 -3.95044e-06 -4.43232e-08 5.45857e-05 2.26813e-22 5.45857e-05)
(5.45857e-05 -3.95044e-06 -4.43232e-08 5.45857e-05 -9.1441e-24 5.45857e-05)
(6.52714e-05 -5.25536e-06 -6.00618e-08 6.52714e-05 3.06738e-22 6.52714e-05)
(6.52714e-05 -5.25536e-06 -6.00618e-08 6.52714e-05 -1.45652e-23 6.52714e-05)
(7.75511e-05 -6.91741e-06 -8.05275e-08 7.75511e-05 4.08779e-22 7.75511e-05)
(7.75511e-05 -6.91741e-06 -8.05275e-08 7.75511e-05 -2.16201e-23 7.75511e-05)
(9.15977e-05 -9.01546e-06 -1.06903e-07 9.15977e-05 5.39543e-22 9.15977e-05)
(9.15977e-05 -9.01546e-06 -1.06903e-07 9.15977e-05 -2.74081e-23 9.15977e-05)
(0.000107596 -1.16415e-05 -1.40606e-07 0.000107596 7.03878e-22 0.000107596)
(0.000107596 -1.16415e-05 -1.40606e-07 0.000107596 -3.54903e-23 0.000107596)
(0.000125742 -1.49019e-05 -1.83326e-07 0.000125742 9.00645e-22 0.000125742)
(0.000125742 -1.49019e-05 -1.83326e-07 0.000125742 -5.18729e-23 0.000125742)
(0.000146243 -1.89184e-05 -2.37052e-07 0.000146243 1.15305e-21 0.000146243)
(0.000146243 -1.89184e-05 -2.37052e-07 0.000146243 -8.21209e-23 0.000146243)
(0.000169317 -2.38289e-05 -3.0411e-07 0.000169317 1.46153e-21 0.000169317)
(0.000169317 -2.38289e-05 -3.0411e-07 0.000169317 -1.04959e-22 0.000169317)
(0.000195189 -2.97878e-05 -3.87189e-07 0.000195189 1.82837e-21 0.000195189)
(0.000195189 -2.97878e-05 -3.87189e-07 0.000195189 -1.22577e-22 0.000195189)
(0.000224093 -3.69664e-05 -4.89369e-07 0.000224093 2.27982e-21 0.000224093)
(0.000224093 -3.69664e-05 -4.89369e-07 0.000224093 -1.69169e-22 0.000224093)
(0.000256267 -4.55517e-05 -6.14137e-07 0.000256267 2.82297e-21 0.000256267)
(0.000256267 -4.55517e-05 -6.14137e-07 0.000256267 -2.35706e-22 0.000256267)
(0.000291952 -5.57452e-05 -7.65396e-07 0.000291952 3.43881e-21 0.000291952)
(0.000291952 -5.57452e-05 -7.65396e-07 0.000291952 -3.12559e-22 0.000291952)
(0.000331388 -6.77607e-05 -9.47454e-07 0.000331388 4.14437e-21 0.000331388)
(0.000331388 -6.77607e-05 -9.47454e-07 0.000331388 -4.40546e-22 0.000331388)
(0.000374808 -8.18205e-05 -1.16501e-06 0.000374808 4.98548e-21 0.000374808)
(0.000374808 -8.18205e-05 -1.16501e-06 0.000374808 -5.92152e-22 0.000374808)
(0.000422437 -9.81516e-05 -1.42309e-06 0.000422437 5.93977e-21 0.000422437)
(0.000422437 -9.81516e-05 -1.42309e-06 0.000422437 -6.9572e-22 0.000422437)
(0.000474483 -0.000116979 -1.72701e-06 0.000474483 6.96903e-21 0.000474483)
(0.000474483 -0.000116979 -1.72701e-06 0.000474483 -8.79296e-22 0.000474483)
(0.000531136 -0.000138522 -2.08227e-06 0.000531136 8.13225e-21 0.000531136)
(0.000531136 -0.000138522 -2.08227e-06 0.000531136 -1.08902e-21 0.000531136)
(0.000592557 -0.000162983 -2.49445e-06 0.000592557 9.47942e-21 0.000592557)
(0.000592557 -0.000162983 -2.49445e-06 0.000592557 -1.24525e-21 0.000592557)
(0.000658876 -0.000190542 -2.96909e-06 0.000658876 1.08046e-20 0.000658876)
(0.000658876 -0.000190542 -2.96909e-06 0.000658876 -1.58762e-21 0.000658876)
(0.000730181 -0.000221348 -3.5115e-06 0.000730181 1.22472e-20 0.000730181)
(0.000730181 -0.000221348 -3.5115e-06 0.000730181 -2.27316e-21 0.000730181)
(0.00080652 -0.000255514 -4.12667e-06 0.00080652 1.36814e-20 0.00080652)
(0.00080652 -0.000255514 -4.12667e-06 0.00080652 -2.92165e-21 0.00080652)
(0.00088789 -0.000293105 -4.81908e-06 0.00088789 1.50307e-20 0.00088789)
(0.00088789 -0.000293105 -4.81908e-06 0.00088789 -2.94434e-21 0.00088789)
(0.000974235 -0.000334136 -5.59257e-06 0.000974235 1.63641e-20 0.000974235)
(0.000974235 -0.000334136 -5.59257e-06 0.000974235 -2.87152e-21 0.000974235)
(0.00106545 -0.000378568 -6.45017e-06 0.00106545 1.75178e-20 0.00106545)
(0.00106545 -0.000378568 -6.45017e-06 0.00106545 -3.11046e-21 0.00106545)
(0.00116136 -0.000426306 -7.39408e-06 0.00116136 1.82763e-20 0.00116136)
(0.00116136 -0.000426306 -7.39408e-06 0.00116136 -3.68729e-21 0.00116136)
(0.00126175 -0.000477198 -8.4255e-06 0.00126175 1.87324e-20 0.00126175)
(0.00126175 -0.000477198 -8.4255e-06 0.00126175 -4.80057e-21 0.00126175)
(0.00136634 -0.000531043 -9.54471e-06 0.00136634 1.95405e-20 0.00136634)
(0.00136634 -0.000531043 -9.54471e-06 0.00136634 -5.59614e-21 0.00136634)
(0.00147483 -0.000587591 -1.0751e-05 0.00147483 1.99052e-20 0.00147483)
(0.00147483 -0.000587591 -1.0751e-05 0.00147483 -5.4232e-21 0.00147483)
(0.00158683 -0.000646551 -1.20427e-05 0.00158683 1.95853e-20 0.00158683)
(0.00158683 -0.000646551 -1.20427e-05 0.00158683 -5.22211e-21 0.00158683)
(0.00170196 -0.000707602 -1.34174e-05 0.00170196 1.88888e-20 0.00170196)
(0.00170196 -0.000707602 -1.34174e-05 0.00170196 -6.65524e-21 0.00170196)
(0.00181978 -0.0007704 -1.48719e-05 0.00181978 1.86356e-20 0.00181978)
(0.00181978 -0.0007704 -1.48719e-05 0.00181978 -7.83447e-21 0.00181978)
(0.00193985 -0.000834589 -1.64024e-05 0.00193985 9.44537e-23 0.00193985)
(0.00193985 -0.000834589 -1.64024e-05 0.00193985 -9.34176e-21 0.00193985)
(0.00206171 -0.000899809 -1.80047e-05 0.00206171 -1.04993e-21 0.00206171)
(0.00206171 -0.000899809 -1.80047e-05 0.00206171 -1.16601e-20 0.00206171)
(0.00218491 -0.000965706 -1.96742e-05 0.00218491 -1.13058e-19 0.00218491)
(0.00218491 -0.000965706 -1.96742e-05 0.00218491 -1.19391e-20 0.00218491)
(0.00230898 -0.00103194 -2.14062e-05 0.00230898 -1.2613e-19 0.00230898)
(0.00230898 -0.00103194 -2.14062e-05 0.00230898 -1.27566e-20 0.00230898)
(0.00243348 -0.00109818 -2.3196e-05 0.00243348 -1.38477e-19 0.00243348)
(0.00243348 -0.00109818 -2.3196e-05 0.00243348 -1.51529e-20 0.00243348)
(0.00255799 -0.00116413 -2.50388e-05 0.00255799 -1.53551e-19 0.00255799)
(0.00255799 -0.00116413 -2.50388e-05 0.00255799 -1.69506e-20 0.00255799)
(0.00268211 -0.00122952 -2.69301e-05 0.00268211 -1.67897e-19 0.00268211)
(0.00268211 -0.00122952 -2.69301e-05 0.00268211 -1.57774e-20 0.00268211)
(0.00280545 -0.00129411 -2.88655e-05 0.00280545 -1.80455e-19 0.00280545)
(0.00280545 -0.00129411 -2.88655e-05 0.00280545 -1.67894e-20 0.00280545)
(0.00292769 -0.00135768 -3.08409e-05 0.00292769 -2.03282e-19 0.00292769)
(0.00292769 -0.00135768 -3.08409e-05 0.00292769 -2.09395e-20 0.00292769)
(0.0030485 -0.00142005 -3.28528e-05 0.0030485 -2.22743e-19 0.0030485)
(0.0030485 -0.00142005 -3.28528e-05 0.0030485 -2.49717e-20 0.0030485)
(0.0031676 -0.00148107 -3.48977e-05 0.0031676 -2.32251e-19 0.0031676)
(0.0031676 -0.00148107 -3.48977e-05 0.0031676 -2.50616e-20 0.0031676)
(0.00328474 -0.0015406 -3.69726e-05 0.00328474 -2.54225e-19 0.00328474)
(0.00328474 -0.0015406 -3.69726e-05 0.00328474 -2.27018e-20 0.00328474)
(0.00339972 -0.00159856 -3.90748e-05 0.00339972 -2.7773e-19 0.00339972)
(0.00339972 -0.00159856 -3.90748e-05 0.00339972 -2.63958e-20 0.00339972)
(0.00351235 -0.00165485 -4.12022e-05 0.00351235 -2.87127e-19 0.00351235)
(0.00351235 -0.00165485 -4.12022e-05 0.00351235 -2.97549e-20 0.00351235)
(0.00362247 -0.00170943 -4.33526e-05 0.00362247 -3.0602e-19 0.00362247)
(0.00362247 -0.00170943 -4.33526e-05 0.00362247 -3.17624e-20 0.00362247)
(0.00372995 -0.00176225 -4.55246e-05 0.00372995 -3.26013e-19 0.00372995)
(0.00372995 -0.00176225 -4.55246e-05 0.00372995 -2.8249e-20 0.00372995)
(0.00383471 -0.0018133 -4.77168e-05 0.00383471 -3.33523e-19 0.00383471)
(0.00383471 -0.0018133 -4.77168e-05 0.00383471 -2.39457e-20 0.00383471)
(0.00393665 -0.00186258 -4.9928e-05 0.00393665 -3.5085e-19 0.00393665)
(0.00393665 -0.00186258 -4.9928e-05 0.00393665 -3.04493e-20 0.00393665)
(0.00403573 -0.00191007 -5.21576e-05 0.00403573 -2.72664e-19 0.00403573)
(0.00403573 -0.00191007 -5.21576e-05 0.00403573 -3.61502e-20 0.00403573)
(0.00413192 -0.00195581 -5.44048e-05 0.00413192 -8.88989e-20 0.00413192)
(0.00413192 -0.00195581 -5.44048e-05 0.00413192 -2.91209e-20 0.00413192)
(0.00422518 -0.00199981 -5.66694e-05 0.00422518 -7.04606e-21 0.00422518)
(0.00422518 -0.00199981 -5.66694e-05 0.00422518 -2.02286e-20 0.00422518)
(0.00431552 -0.00204211 -5.89512e-05 0.00431552 4.54891e-22 0.00431552)
(0.00431552 -0.00204211 -5.89512e-05 0.00431552 -2.81044e-20 0.00431552)
(0.00440295 -0.00208273 -6.125e-05 0.00440295 -3.36931e-21 0.00440295)
(0.00440295 -0.00208273 -6.125e-05 0.00440295 -3.66051e-20 0.00440295)
(0.00448749 -0.00212173 -6.3566e-05 0.00448749 -2.16621e-20 0.00448749)
(0.00448749 -0.00212173 -6.3566e-05 0.00448749 -4.05018e-20 0.00448749)
(0.00456918 -0.00215914 -6.58994e-05 0.00456918 -2.76785e-21 0.00456918)
(0.00456918 -0.00215914 -6.58994e-05 0.00456918 -3.33525e-20 0.00456918)
(0.00464804 -0.00219501 -6.82506e-05 0.00464804 2.05191e-20 0.00464804)
(0.00464804 -0.00219501 -6.82506e-05 0.00464804 -1.94696e-20 0.00464804)
(0.00472412 -0.00222939 -7.06198e-05 0.00472412 2.19073e-20 0.00472412)
(0.00472412 -0.00222939 -7.06198e-05 0.00472412 -2.69154e-20 0.00472412)
(0.00479749 -0.00226233 -7.30076e-05 0.00479749 -1.20775e-21 0.00479749)
(0.00479749 -0.00226233 -7.30076e-05 0.00479749 -2.47795e-20 0.00479749)
(0.00486818 -0.00229387 -7.54146e-05 0.00486818 -1.61486e-20 0.00486818)
(0.00486818 -0.00229387 -7.54146e-05 0.00486818 -6.03478e-20 0.00486818)
(0.00493627 -0.00232406 -7.78413e-05 0.00493627 4.74516e-21 0.00493627)
(0.00493627 -0.00232406 -7.78413e-05 0.00493627 -5.91759e-20 0.00493627)
(0.00500182 -0.00235296 -8.02885e-05 0.00500182 1.30294e-21 0.00500182)
(0.00500182 -0.00235296 -8.02885e-05 0.00500182 -5.26445e-20 0.00500182)
(0.00506488 -0.0023806 -8.27567e-05 0.00506488 -7.10304e-21 0.00506488)
(0.00506488 -0.0023806 -8.27567e-05 0.00506488 -7.45565e-20 0.00506488)
(0.00512553 -0.00240704 -8.52468e-05 0.00512553 4.03208e-20 0.00512553)
(0.00512553 -0.00240704 -8.52468e-05 0.00512553 -6.33709e-20 0.00512553)
(0.00518383 -0.00243232 -8.77595e-05 0.00518383 6.53005e-20 0.00518383)
(0.00518383 -0.00243232 -8.77595e-05 0.00518383 -9.71009e-21 0.00518383)
(0.00523985 -0.00245648 -9.02955e-05 0.00523985 2.68184e-20 0.00523985)
(0.00523985 -0.00245648 -9.02955e-05 0.00523985 -1.20187e-20 0.00523985)
(0.00529365 -0.00247957 -9.28557e-05 0.00529365 4.63593e-22 0.00529365)
(0.00529365 -0.00247957 -9.28557e-05 0.00529365 -3.6198e-20 0.00529365)
(0.0053453 -0.00250163 -9.54408e-05 0.0053453 -1.81568e-20 0.0053453)
(0.0053453 -0.00250163 -9.54408e-05 0.0053453 -2.13937e-20 0.0053453)
(0.00539487 -0.00252269 -9.80517e-05 0.00539487 3.79364e-20 0.00539487)
(0.00539487 -0.00252269 -9.80517e-05 0.00539487 -3.55345e-20 0.00539487)
(0.00544241 -0.0025428 -0.000100689 0.00544241 1.11831e-20 0.00544241)
(0.00544241 -0.0025428 -0.000100689 0.00544241 -2.19565e-20 0.00544241)
(0.005488 -0.002562 -0.000103354 0.005488 4.3989e-20 0.005488)
(0.005488 -0.002562 -0.000103354 0.005488 -3.1547e-20 0.005488)
(0.00553169 -0.00258031 -0.000106047 0.00553169 1.37837e-19 0.00553169)
(0.00553169 -0.00258031 -0.000106047 0.00553169 2.18956e-20 0.00553169)
(0.00557354 -0.00259777 -0.000108769 0.00557354 6.56747e-20 0.00557354)
(0.00557354 -0.00259777 -0.000108769 0.00557354 5.11456e-20 0.00557354)
(0.00561361 -0.00261442 -0.000111521 0.00561361 3.12887e-20 0.00561361)
(0.00561361 -0.00261442 -0.000111521 0.00561361 5.00099e-20 0.00561361)
(0.00565195 -0.00263028 -0.000114304 0.00565195 8.54723e-20 0.00565195)
(0.00565195 -0.00263028 -0.000114304 0.00565195 4.21932e-20 0.00565195)
(0.00568863 -0.00264539 -0.000117119 0.00568863 1.62227e-19 0.00568863)
(0.00568863 -0.00264539 -0.000117119 0.00568863 1.42521e-19 0.00568863)
(0.00572369 -0.00265976 -0.000119966 0.00572369 1.6683e-19 0.00572369)
(0.00572369 -0.00265976 -0.000119966 0.00572369 1.98928e-19 0.00572369)
(0.00575718 -0.00267344 -0.000122846 0.00575718 1.65372e-19 0.00575718)
(0.00575718 -0.00267344 -0.000122846 0.00575718 1.45921e-19 0.00575718)
(0.00578916 -0.00268644 -0.00012576 0.00578916 1.60442e-19 0.00578916)
(0.00578916 -0.00268644 -0.00012576 0.00578916 1.54967e-19 0.00578916)
(0.00581967 -0.00269879 -0.000128708 0.00581967 2.0918e-19 0.00581967)
(0.00581967 -0.00269879 -0.000128708 0.00581967 1.86751e-19 0.00581967)
(0.00584876 -0.00271051 -0.000131693 0.00584876 3.26915e-19 0.00584876)
(0.00584876 -0.00271051 -0.000131693 0.00584876 3.0646e-19 0.00584876)
(0.00587646 -0.00272162 -0.000134714 0.00587646 3.64824e-19 0.00587646)
(0.00587646 -0.00272162 -0.000134714 0.00587646 3.82366e-19 0.00587646)
(0.00590283 -0.00273214 -0.000137772 0.00590283 3.45631e-19 0.00590283)
(0.00590283 -0.00273214 -0.000137772 0.00590283 4.56014e-19 0.00590283)
(0.0059279 -0.0027421 -0.000140868 0.0059279 1.99662e-19 0.0059279)
(0.0059279 -0.0027421 -0.000140868 0.0059279 5.82249e-19 0.0059279)
(0.00595171 -0.00275151 -0.000144003 0.00595171 1.57624e-19 0.00595171)
(0.00595171 -0.00275151 -0.000144003 0.00595171 6.04816e-19 0.00595171)
(0.0059743 -0.00276039 -0.000147177 0.0059743 1.88656e-19 0.0059743)
(0.0059743 -0.00276039 -0.000147177 0.0059743 6.69848e-19 0.0059743)
(0.0059957 -0.00276876 -0.000150392 0.0059957 2.23144e-19 0.0059957)
(0.0059957 -0.00276876 -0.000150392 0.0059957 4.53273e-19 0.0059957)
(0.00601595 -0.00277662 -0.000153647 0.00601595 2.0605e-19 0.00601595)
(0.00601595 -0.00277662 -0.000153647 0.00601595 4.15489e-19 0.00601595)
(0.00603507 -0.00278401 -0.000156945 0.00603507 3.94027e-19 0.00603507)
(0.00603507 -0.00278401 -0.000156945 0.00603507 5.32198e-19 0.00603507)
(0.00605311 -0.00279092 -0.000160285 0.00605311 2.90366e-19 0.00605311)
(0.00605311 -0.00279092 -0.000160285 0.00605311 6.31639e-19 0.00605311)
(0.00607009 -0.00279738 -0.000163668 0.00607009 4.05907e-19 0.00607009)
(0.00607009 -0.00279738 -0.000163668 0.00607009 6.4407e-19 0.00607009)
(0.00608604 -0.0028034 -0.000167094 0.00608604 6.47105e-19 0.00608604)
(0.00608604 -0.0028034 -0.000167094 0.00608604 8.32878e-19 0.00608604)
(0.00610098 -0.00280899 -0.000170566 0.00610098 5.17375e-19 0.00610098)
(0.00610098 -0.00280899 -0.000170566 0.00610098 1.04458e-18 0.00610098)
(0.00611494 -0.00281416 -0.000174083 0.00611494 2.87868e-19 0.00611494)
(0.00611494 -0.00281416 -0.000174083 0.00611494 9.60821e-19 0.00611494)
(0.00612794 -0.00281892 -0.000177645 0.00612794 4.26043e-19 0.00612794)
(0.00612794 -0.00281892 -0.000177645 0.00612794 9.41908e-19 0.00612794)
(0.00614002 -0.00282328 -0.000181254 0.00614002 4.54146e-19 0.00614002)
(0.00614002 -0.00282328 -0.000181254 0.00614002 1.21373e-18 0.00614002)
(0.00615118 -0.00282725 -0.000184911 0.00615118 3.79694e-19 0.00615118)
(0.00615118 -0.00282725 -0.000184911 0.00615118 1.38877e-18 0.00615118)
(0.00616145 -0.00283085 -0.000188615 0.00616145 1.06041e-18 0.00616145)
(0.00616145 -0.00283085 -0.000188615 0.00616145 1.45373e-18 0.00616145)
(0.00617086 -0.00283407 -0.000192367 0.00617086 5.59347e-19 0.00617086)
(0.00617086 -0.00283407 -0.000192367 0.00617086 1.5042e-18 0.00617086)
(0.00617941 -0.00283693 -0.000196169 0.00617941 5.19072e-19 0.00617941)
(0.00617941 -0.00283693 -0.000196169 0.00617941 1.65496e-18 0.00617941)
(0.00618713 -0.00283943 -0.00020002 0.00618713 7.90017e-19 0.00618713)
(0.00618713 -0.00283943 -0.00020002 0.00618713 1.76182e-18 0.00618713)
(0.00619404 -0.00284158 -0.000203921 0.00619404 -3.73099e-19 0.00619404)
(0.00619404 -0.00284158 -0.000203921 0.00619404 1.92374e-18 0.00619404)
(0.00620014 -0.00284339 -0.000207873 0.00620014 -5.82322e-20 0.00620014)
(0.00620014 -0.00284339 -0.000207873 0.00620014 1.90073e-18 0.00620014)
(0.00620546 -0.00284487 -0.000211876 0.00620546 4.96342e-19 0.00620546)
(0.00620546 -0.00284487 -0.000211876 0.00620546 1.95173e-18 0.00620546)
(0.00621001 -0.00284601 -0.000215931 0.00621001 6.28726e-19 0.00621001)
(0.00621001 -0.00284601 -0.000215931 0.00621001 2.3756e-18 0.00621001)
(0.0062138 -0.00284683 -0.000220038 0.0062138 7.75681e-19 0.0062138)
(0.0062138 -0.00284683 -0.000220038 0.0062138 4.39216e-18 0.0062138)
(0.00621685 -0.00284733 -0.000224198 0.00621685 2.49621e-19 0.00621685)
(0.00621685 -0.00284733 -0.000224198 0.00621685 6.54166e-18 0.00621685)
(0.00621916 -0.00284752 -0.00022841 0.00621916 3.36885e-19 0.00621916)
(0.00621916 -0.00284752 -0.00022841 0.00621916 6.58685e-18 0.00621916)
(0.00622076 -0.00284739 -0.000232676 0.00622076 4.23751e-19 0.00622076)
(0.00622076 -0.00284739 -0.000232676 0.00622076 6.27272e-18 0.00622076)
(0.00622164 -0.00284695 -0.000236995 0.00622164 1.14696e-19 0.00622164)
(0.00622164 -0.00284695 -0.000236995 0.00622164 7.15487e-18 0.00622164)
(0.00622182 -0.00284621 -0.000241369 0.00622182 -8.23452e-20 0.00622182)
(0.00622182 -0.00284621 -0.000241369 0.00622182 8.22378e-18 0.00622182)
(0.00622132 -0.00284517 -0.000245797 0.00622132 4.26794e-19 0.00622132)
(0.00622132 -0.00284517 -0.000245797 0.00622132 7.66585e-18 0.00622132)
(0.00622012 -0.00284383 -0.00025028 0.00622012 7.33816e-19 0.00622012)
(0.00622012 -0.00284383 -0.00025028 0.00622012 7.42891e-18 0.00622012)
(0.00621826 -0.0028422 -0.000254817 0.00621826 3.44979e-19 0.00621826)
(0.00621826 -0.0028422 -0.000254817 0.00621826 8.61557e-18 0.00621826)
(0.00621573 -0.00284027 -0.00025941 0.00621573 3.77258e-19 0.00621573)
(0.00621573 -0.00284027 -0.00025941 0.00621573 9.19007e-18 0.00621573)
(0.00621253 -0.00283805 -0.000264058 0.00621253 1.58323e-18 0.00621253)
(0.00621253 -0.00283805 -0.000264058 0.00621253 9.17991e-18 0.00621253)
(0.00620868 -0.00283554 -0.000268762 0.00620868 1.45363e-18 0.00620868)
(0.00620868 -0.00283554 -0.000268762 0.00620868 1.01808e-17 0.00620868)
(0.00620419 -0.00283275 -0.000273521 0.00620419 1.05199e-18 0.00620419)
(0.00620419 -0.00283275 -0.000273521 0.00620419 1.16993e-17 0.00620419)
(0.00619905 -0.00282967 -0.000278335 0.00619905 1.10196e-18 0.00619905)
(0.00619905 -0.00282967 -0.000278335 0.00619905 1.10592e-17 0.00619905)
(0.00619327 -0.0028263 -0.000283205 0.00619327 1.1439e-18 0.00619327)
(0.00619327 -0.0028263 -0.000283205 0.00619327 9.90426e-18 0.00619327)
(0.00618686 -0.00282265 -0.000288131 0.00618686 1.78836e-18 0.00618686)
(0.00618686 -0.00282265 -0.000288131 0.00618686 1.17407e-17 0.00618686)
(0.00617982 -0.00281872 -0.000293112 0.00617982 1.92691e-18 0.00617982)
(0.00617982 -0.00281872 -0.000293112 0.00617982 1.36541e-17 0.00617982)
(0.00617215 -0.00281451 -0.000298148 0.00617215 1.12445e-18 0.00617215)
(0.00617215 -0.00281451 -0.000298148 0.00617215 1.33313e-17 0.00617215)
(0.00616386 -0.00281001 -0.000303239 0.00616386 5.71053e-19 0.00616386)
(0.00616386 -0.00281001 -0.000303239 0.00616386 1.38213e-17 0.00616386)
(0.00615495 -0.00280523 -0.000308385 0.00615495 1.25916e-18 0.00615495)
(0.00615495 -0.00280523 -0.000308385 0.00615495 1.69526e-17 0.00615495)
(0.00614542 -0.00280016 -0.000313585 0.00614542 1.1541e-18 0.00614542)
(0.00614542 -0.00280016 -0.000313585 0.00614542 1.20051e-17 0.00614542)
(0.00613528 -0.00279482 -0.000318839 0.00613528 1.01095e-18 0.00613528)
(0.00613528 -0.00279482 -0.000318839 0.00613528 1.10681e-17 0.00613528)
(0.00612452 -0.00278918 -0.000324147 0.00612452 3.83328e-18 0.00612452)
(0.00612452 -0.00278918 -0.000324147 0.00612452 1.16997e-17 0.00612452)
(0.00611314 -0.00278327 -0.000329507 0.00611314 3.0491e-18 0.00611314)
(0.00611314 -0.00278327 -0.000329507 0.00611314 1.24068e-17 0.00611314)
(0.00610115 -0.00277707 -0.00033492 0.00610115 -3.41356e-19 0.00610115)
(0.00610115 -0.00277707 -0.00033492 0.00610115 1.30867e-17 0.00610115)
(0.00608855 -0.00277058 -0.000340385 0.00608855 -7.36186e-19 0.00608855)
(0.00608855 -0.00277058 -0.000340385 0.00608855 1.34938e-17 0.00608855)
(0.00607533 -0.00276381 -0.000345901 0.00607533 4.91551e-18 0.00607533)
(0.00607533 -0.00276381 -0.000345901 0.00607533 1.38688e-17 0.00607533)
(0.0060615 -0.00275675 -0.000351466 0.0060615 4.58401e-18 0.0060615)
(0.0060615 -0.00275675 -0.000351466 0.0060615 1.4393e-17 0.0060615)
(0.00604706 -0.00274939 -0.000357081 0.00604706 2.64837e-18 0.00604706)
(0.00604706 -0.00274939 -0.000357081 0.00604706 1.5459e-17 0.00604706)
(0.006032 -0.00274175 -0.000362744 0.006032 5.28948e-19 0.006032)
(0.006032 -0.00274175 -0.000362744 0.006032 1.61892e-17 0.006032)
(0.00601633 -0.00273381 -0.000368453 0.00601633 2.53263e-18 0.00601633)
(0.00601633 -0.00273381 -0.000368453 0.00601633 1.68296e-17 0.00601633)
(0.00600003 -0.00272557 -0.000374209 0.00600003 -9.57099e-20 0.00600003)
(0.00600003 -0.00272557 -0.000374209 0.00600003 1.69349e-17 0.00600003)
(0.00598312 -0.00271704 -0.000380008 0.00598312 5.0381e-19 0.00598312)
(0.00598312 -0.00271704 -0.000380008 0.00598312 1.70508e-17 0.00598312)
(0.00596559 -0.00270821 -0.00038585 0.00596559 1.88597e-18 0.00596559)
(0.00596559 -0.00270821 -0.00038585 0.00596559 1.81485e-17 0.00596559)
(0.00594743 -0.00269907 -0.000391734 0.00594743 5.24554e-18 0.00594743)
(0.00594743 -0.00269907 -0.000391734 0.00594743 1.8354e-17 0.00594743)
(0.00592864 -0.00268962 -0.000397656 0.00592864 3.5292e-18 0.00592864)
(0.00592864 -0.00268962 -0.000397656 0.00592864 1.82935e-17 0.00592864)
(0.00590923 -0.00267987 -0.000403617 0.00590923 9.46326e-19 0.00590923)
(0.00590923 -0.00267987 -0.000403617 0.00590923 1.81774e-17 0.00590923)
(0.00588918 -0.00266981 -0.000409613 0.00588918 2.65685e-18 0.00588918)
(0.00588918 -0.00266981 -0.000409613 0.00588918 1.78289e-17 0.00588918)
(0.00586849 -0.00265943 -0.000415642 0.00586849 2.78541e-18 0.00586849)
(0.00586849 -0.00265943 -0.000415642 0.00586849 5.19951e-18 0.00586849)
(0.00584716 -0.00264873 -0.000421703 0.00584716 1.21561e-18 0.00584716)
(0.00584716 -0.00264873 -0.000421703 0.00584716 8.08905e-19 0.00584716)
(0.00582519 -0.00263772 -0.000427792 0.00582519 2.27439e-18 0.00582519)
(0.00582519 -0.00263772 -0.000427792 0.00582519 3.48565e-18 0.00582519)
(0.00580257 -0.00262637 -0.000433908 0.00580257 3.58676e-18 0.00580257)
(0.00580257 -0.00262637 -0.000433908 0.00580257 6.09167e-18 0.00580257)
(0.0057793 -0.0026147 -0.000440047 0.0057793 3.1472e-18 0.0057793)
(0.0057793 -0.0026147 -0.000440047 0.0057793 4.73432e-18 0.0057793)
(0.00575536 -0.0026027 -0.000446206 0.00575536 2.98827e-18 0.00575536)
(0.00575536 -0.0026027 -0.000446206 0.00575536 2.76012e-18 0.00575536)
(0.00573077 -0.00259036 -0.000452382 0.00573077 2.2296e-18 0.00573077)
(0.00573077 -0.00259036 -0.000452382 0.00573077 3.51238e-18 0.00573077)
(0.0057055 -0.00257768 -0.000458572 0.0057055 1.59026e-18 0.0057055)
(0.0057055 -0.00257768 -0.000458572 0.0057055 4.48017e-18 0.0057055)
(0.00567956 -0.00256466 -0.000464773 0.00567956 3.77285e-19 0.00567956)
(0.00567956 -0.00256466 -0.000464773 0.00567956 7.06717e-18 0.00567956)
(0.00565294 -0.00255129 -0.00047098 0.00565294 5.02834e-18 0.00565294)
(0.00565294 -0.00255129 -0.00047098 0.00565294 7.31781e-18 0.00565294)
(0.00562564 -0.00253757 -0.00047719 0.00562564 2.12235e-18 0.00562564)
(0.00562564 -0.00253757 -0.00047719 0.00562564 2.39025e-17 0.00562564)
(0.00559764 -0.00252348 -0.000483399 0.00559764 1.93791e-18 0.00559764)
(0.00559764 -0.00252348 -0.000483399 0.00559764 3.12358e-17 0.00559764)
(0.00556895 -0.00250904 -0.000489601 0.00556895 1.95099e-19 0.00556895)
(0.00556895 -0.00250904 -0.000489601 0.00556895 3.06316e-17 0.00556895)
(0.00553955 -0.00249423 -0.000495793 0.00553955 -2.6318e-18 0.00553955)
(0.00553955 -0.00249423 -0.000495793 0.00553955 3.21943e-17 0.00553955)
(0.00550944 -0.00247905 -0.000501968 0.00550944 2.88828e-18 0.00550944)
(0.00550944 -0.00247905 -0.000501968 0.00550944 3.29675e-17 0.00550944)
(0.00547861 -0.00246349 -0.000508123 0.00547861 1.02304e-17 0.00547861)
(0.00547861 -0.00246349 -0.000508123 0.00547861 3.19327e-17 0.00547861)
(0.00544706 -0.00244754 -0.000514252 0.00544706 4.90857e-18 0.00544706)
(0.00544706 -0.00244754 -0.000514252 0.00544706 3.05808e-17 0.00544706)
(0.00541477 -0.00243121 -0.000520348 0.00541477 3.82608e-18 0.00541477)
(0.00541477 -0.00243121 -0.000520348 0.00541477 2.93228e-17 0.00541477)
(0.00538174 -0.00241449 -0.000526406 0.00538174 4.7464e-18 0.00538174)
(0.00538174 -0.00241449 -0.000526406 0.00538174 2.87452e-17 0.00538174)
(0.00534797 -0.00239736 -0.000532419 0.00534797 1.44236e-18 0.00534797)
(0.00534797 -0.00239736 -0.000532419 0.00534797 2.43866e-17 0.00534797)
(0.00531344 -0.00237984 -0.00053838 0.00531344 6.20774e-19 0.00531344)
(0.00531344 -0.00237984 -0.00053838 0.00531344 2.17543e-17 0.00531344)
(0.00527815 -0.0023619 -0.000544282 0.00527815 1.75034e-18 0.00527815)
(0.00527815 -0.0023619 -0.000544282 0.00527815 2.71412e-17 0.00527815)
(0.00524208 -0.00234354 -0.000550118 0.00524208 1.81951e-18 0.00524208)
(0.00524208 -0.00234354 -0.000550118 0.00524208 2.46517e-17 0.00524208)
(0.00520524 -0.00232476 -0.00055588 0.00520524 2.29411e-18 0.00520524)
(0.00520524 -0.00232476 -0.00055588 0.00520524 2.06324e-17 0.00520524)
(0.00516761 -0.00230556 -0.00056156 0.00516761 3.5051e-18 0.00516761)
(0.00516761 -0.00230556 -0.00056156 0.00516761 1.71079e-17 0.00516761)
(0.00512919 -0.00228591 -0.000567148 0.00512919 1.16169e-18 0.00512919)
(0.00512919 -0.00228591 -0.000567148 0.00512919 1.49489e-17 0.00512919)
(0.00508997 -0.00226583 -0.000572636 0.00508997 3.41217e-19 0.00508997)
(0.00508997 -0.00226583 -0.000572636 0.00508997 1.10656e-17 0.00508997)
(0.00504993 -0.00224529 -0.000578013 0.00504993 4.62793e-18 0.00504993)
(0.00504993 -0.00224529 -0.000578013 0.00504993 8.99438e-18 0.00504993)
(0.00500907 -0.0022243 -0.000583271 0.00500907 3.18612e-18 0.00500907)
(0.00500907 -0.0022243 -0.000583271 0.00500907 4.74277e-18 0.00500907)
(0.00496739 -0.00220284 -0.000588398 0.00496739 9.39184e-19 0.00496739)
(0.00496739 -0.00220284 -0.000588398 0.00496739 1.1472e-18 0.00496739)
(0.00492487 -0.00218092 -0.000593383 0.00492487 3.77222e-18 0.00492487)
(0.00492487 -0.00218092 -0.000593383 0.00492487 -2.20824e-18 0.00492487)
(0.0048815 -0.00215851 -0.000598216 0.0048815 2.13862e-18 0.0048815)
(0.0048815 -0.00215851 -0.000598216 0.0048815 -2.42885e-18 0.0048815)
(0.00483729 -0.00213562 -0.000602882 0.00483729 7.24554e-18 0.00483729)
(0.00483729 -0.00213562 -0.000602882 0.00483729 -3.72147e-18 0.00483729)
(0.00479222 -0.00211224 -0.000607371 0.00479222 6.7316e-18 0.00479222)
(0.00479222 -0.00211224 -0.000607371 0.00479222 6.7387e-18 0.00479222)
(0.00474628 -0.00208836 -0.000611668 0.00474628 -2.63352e-18 0.00474628)
(0.00474628 -0.00208836 -0.000611668 0.00474628 3.32309e-17 0.00474628)