/*--------------------------------*- C++ -*----------------------------------*\
| =========                 |                                                 |
| \\      /  F ield         | OpenFOAM: The Open Source CFD Toolbox           |
|  \\    /   O peration     | Version:  2106                                  |
|   \\  /    A nd           | Website:  www.openfoam.com                      |
|    \\/     M anipulation  |                                                 |
\*---------------------------------------------------------------------------*/
FoamFile
{
    version     2.0;
    format      ascii;
    arch        "LSB;label=32;scalar=64";
    class       volVectorField;
    location    "10030";
    object      U;
}
// * * * * * * * * * * * * * * * * * * * * * * * * * * * * * * * * * * * * * //

dimensions      [0 1 -1 0 0 0 0];

internalField   nonuniform List<vector> 
2000
(
(0.00220432 -7.7243e-16 -1.8333e-18)
(0.00220432 8.515e-20 -8.00704e-22)
(0.00665327 -2.08602e-15 -1.02098e-18)
(0.00665327 -1.75437e-19 -2.09795e-21)
(0.0111844 -2.09518e-15 -1.32766e-18)
(0.0111844 -1.07118e-19 -2.3058e-21)
(0.0157992 -1.92721e-15 -1.23426e-18)
(0.0157992 -1.28443e-19 -2.06716e-21)
(0.0204992 -1.91263e-15 -1.33661e-18)
(0.0204992 -1.23501e-19 -1.42867e-21)
(0.025286 -1.92918e-15 -1.54824e-18)
(0.025286 -1.34577e-19 -6.74627e-22)
(0.0301611 -1.93411e-15 -1.77465e-18)
(0.0301611 -1.59567e-19 -1.19694e-22)
(0.0351262 -1.93437e-15 -1.99992e-18)
(0.0351262 -1.73614e-19 -1.2688e-22)
(0.0401828 -1.934e-15 -2.22818e-18)
(0.0401828 -2.04999e-19 8.75983e-23)
(0.0453327 -1.93398e-15 -2.46283e-18)
(0.0453327 -2.42316e-19 1.52633e-21)
(0.0505775 -1.93409e-15 -2.70542e-18)
(0.0505775 -2.89049e-19 3.04605e-21)
(0.055919 -1.93423e-15 -2.95667e-18)
(0.055919 -2.75892e-19 5.73008e-21)
(0.0613588 -1.93436e-15 -3.21722e-18)
(0.0613588 -2.26737e-19 8.15873e-21)
(0.0668988 -1.93444e-15 -3.48755e-18)
(0.0668988 -2.56429e-19 9.76509e-21)
(0.0725407 -1.93451e-15 -3.76793e-18)
(0.0725407 -2.70888e-19 1.26928e-20)
(0.0782862 -1.93474e-15 -4.05862e-18)
(0.0782862 -2.3462e-19 1.95395e-20)
(0.0841373 -1.93512e-15 -4.36049e-18)
(0.0841373 -1.5696e-19 2.58687e-20)
(0.0900957 -1.93542e-15 -4.67359e-18)
(0.0900957 -7.90132e-20 3.00122e-20)
(0.0961632 -1.93561e-15 -4.99783e-18)
(0.0961632 -1.2687e-19 3.64748e-20)
(0.102342 -1.93583e-15 -5.33284e-18)
(0.102342 -1.32705e-19 4.54394e-20)
(0.108633 -1.93614e-15 -5.67914e-18)
(0.108633 -4.57776e-20 5.01548e-20)
(0.115038 -1.93643e-15 -6.03712e-18)
(0.115038 -9.73148e-20 5.71015e-20)
(0.121559 -1.93663e-15 -6.40655e-18)
(0.121559 -1.63868e-19 6.64357e-20)
(0.128198 -1.93687e-15 -6.78741e-18)
(0.128198 -1.90769e-19 7.68406e-20)
(0.134956 -1.93723e-15 -7.18041e-18)
(0.134956 -2.20755e-19 9.18555e-20)
(0.141834 -1.93758e-15 -7.58522e-18)
(0.141834 -1.72981e-19 1.0641e-19)
(0.148834 -1.93798e-15 -8.00151e-18)
(0.148834 -2.39663e-19 1.19484e-19)
(0.155955 -1.93839e-15 -8.42913e-18)
(0.155955 -4.26425e-19 1.34374e-19)
(0.1632 -1.93849e-15 -8.86737e-18)
(0.1632 -5.4388e-19 1.54602e-19)
(0.170568 -1.93868e-15 -9.31499e-18)
(0.170568 -6.55572e-19 1.81839e-19)
(0.178059 -1.93897e-15 -9.77146e-18)
(0.178059 -5.75529e-19 2.0301e-19)
(0.185672 -1.93917e-15 -1.02369e-17)
(0.185672 -5.2186e-19 2.24862e-19)
(0.193406 -1.93951e-15 -1.07092e-17)
(0.193406 -7.86974e-19 2.50742e-19)
(0.201261 -1.94013e-15 -1.11864e-17)
(0.201261 -9.28655e-19 2.82022e-19)
(0.209232 -1.94075e-15 -1.16685e-17)
(0.209232 -8.63183e-19 3.15479e-19)
(0.217318 -1.94129e-15 -1.21534e-17)
(0.217318 -8.73967e-19 3.58802e-19)
(0.225514 -1.94194e-15 -1.26422e-17)
(0.225514 -8.2835e-19 4.02698e-19)
(0.233816 -1.94261e-15 -1.31323e-17)
(0.233816 -8.3573e-19 4.42372e-19)
(0.242218 -1.94311e-15 -1.36226e-17)
(0.242218 -1.23886e-18 4.90355e-19)
(0.250713 -1.94366e-15 -1.41078e-17)
(0.250713 -1.48104e-18 5.37305e-19)
(0.259294 -1.94457e-15 -1.4588e-17)
(0.259294 -1.40541e-18 5.78585e-19)
(0.267952 -1.94541e-15 -1.50591e-17)
(0.267952 -1.68207e-18 6.28773e-19)
(0.276679 -1.94638e-15 -1.55193e-17)
(0.276679 -1.42676e-18 7.04459e-19)
(0.285464 -1.94733e-15 -1.5966e-17)
(0.285464 -1.50284e-18 7.6946e-19)
(0.294297 -1.94823e-15 -1.6393e-17)
(0.294297 -1.14407e-18 8.16496e-19)
(0.303165 -1.94918e-15 -1.68009e-17)
(0.303165 -9.94981e-19 8.4747e-19)
(0.312058 -1.95007e-15 -1.71843e-17)
(0.312058 -1.46983e-18 8.77864e-19)
(0.320963 -1.95077e-15 -1.75395e-17)
(0.320963 -1.4187e-18 9.17269e-19)
(0.329869 -1.95136e-15 -1.78623e-17)
(0.329869 -1.2175e-18 9.66142e-19)
(0.338763 -1.9524e-15 -1.81568e-17)
(0.338763 -1.43366e-18 1.0052e-18)
(0.347633 -1.95358e-15 -1.84207e-17)
(0.347633 -1.44786e-18 1.03196e-18)
(0.356468 -1.95445e-15 -1.86604e-17)
(0.356468 -1.57505e-18 1.04712e-18)
(0.365258 -1.955e-15 -1.88698e-17)
(0.365258 -1.68361e-18 1.08795e-18)
(0.373991 -1.9558e-15 -1.90534e-17)
(0.373991 -2.09151e-18 1.10931e-18)
(0.382659 -1.95585e-15 -1.90464e-17)
(0.382659 -2.8688e-18 1.16435e-18)
(0.391253 -1.95603e-15 -1.80307e-17)
(0.391253 -3.01282e-18 1.20943e-18)
(0.399766 -1.95756e-15 -1.69809e-17)
(0.399766 -2.62478e-18 1.24537e-18)
(0.40819 -1.95881e-15 -1.5908e-17)
(0.40819 -2.39579e-18 1.26887e-18)
(0.41652 -1.96031e-15 -1.48044e-17)
(0.41652 -3.22403e-18 1.30401e-18)
(0.424751 -1.96151e-15 -1.36713e-17)
(0.424751 -4.113e-18 1.33222e-18)
(0.432878 -1.96147e-15 -1.25708e-17)
(0.432878 -5.50618e-18 1.33796e-18)
(0.440899 -1.96165e-15 -1.14104e-17)
(0.440899 -6.48163e-18 1.37397e-18)
(0.448811 -1.9617e-15 -1.01823e-17)
(0.448811 -7.63424e-18 1.41056e-18)
(0.456612 -1.96107e-15 -8.9455e-18)
(0.456612 -1.02618e-17 1.47182e-18)
(0.464301 -1.96134e-15 -7.72319e-18)
(0.464301 -1.12131e-17 1.50542e-18)
(0.471877 -1.96166e-15 -6.4104e-18)
(0.471877 -1.15943e-17 1.52979e-18)
(0.47934 -1.96203e-15 -5.09169e-18)
(0.47934 -1.29057e-17 1.57479e-18)
(0.486691 -1.96275e-15 -3.80429e-18)
(0.486691 -1.45821e-17 1.61248e-18)
(0.49393 -1.96349e-15 -2.44096e-18)
(0.49393 -1.48255e-17 1.67395e-18)
(0.501058 -1.96486e-15 -1.07477e-18)
(0.501058 -1.43692e-17 1.65725e-18)
(0.508078 -1.96689e-15 2.69113e-19)
(0.508078 -1.49058e-17 1.64152e-18)
(0.514989 -1.96876e-15 1.65066e-18)
(0.514989 -1.45958e-17 1.64921e-18)
(0.521795 -1.96992e-15 2.28457e-18)
(0.521795 -1.45896e-17 1.64771e-18)
(0.528497 -1.9708e-15 2.30829e-18)
(0.528497 -1.58165e-17 1.57519e-18)
(0.535097 -1.97133e-15 2.36232e-18)
(0.535097 -1.60857e-17 1.51377e-18)
(0.541598 -1.97234e-15 2.3636e-18)
(0.541598 -1.71014e-17 1.47625e-18)
(0.548001 -1.97207e-15 2.38336e-18)
(0.548001 -1.89246e-17 1.45186e-18)
(0.554309 -1.96999e-15 2.51099e-18)
(0.554309 -2.0777e-17 1.41669e-18)
(0.560525 -1.96762e-15 2.52604e-18)
(0.560525 -2.24023e-17 1.35331e-18)
(0.56665 -1.96519e-15 2.54423e-18)
(0.56665 -2.46853e-17 1.25179e-18)
(0.572688 -1.96402e-15 2.56138e-18)
(0.572688 -2.64269e-17 1.21944e-18)
(0.57864 -1.96265e-15 2.62732e-18)
(0.57864 -2.60316e-17 1.11776e-18)
(0.584508 -1.95966e-15 2.73572e-18)
(0.584508 -2.97418e-17 1.12903e-18)
(0.590296 -1.95726e-15 2.80488e-18)
(0.590296 -3.43971e-17 1.10269e-18)
(0.596005 -1.95623e-15 2.89481e-18)
(0.596005 -3.69199e-17 1.14516e-18)
(0.601638 -1.95593e-15 2.90978e-18)
(0.601638 -3.90144e-17 1.22222e-18)
(0.607196 -1.95801e-15 2.85562e-18)
(0.607196 -4.11239e-17 1.20877e-18)
(0.612683 -1.96133e-15 2.85474e-18)
(0.612683 -4.38794e-17 1.07493e-18)
(0.618099 -1.96264e-15 2.83326e-18)
(0.618099 -4.35379e-17 1.03728e-18)
(0.623448 -1.9616e-15 2.85311e-18)
(0.623448 -4.49842e-17 9.10234e-19)
(0.62873 -1.95865e-15 2.99139e-18)
(0.62873 -4.95417e-17 7.78393e-19)
(0.633949 -1.95669e-15 2.92401e-18)
(0.633949 -5.16468e-17 7.4914e-19)
(0.639105 -1.95418e-15 3.10396e-18)
(0.639105 -5.67594e-17 6.48068e-19)
(0.644201 -1.95109e-15 2.94875e-18)
(0.644201 -6.29812e-17 6.71826e-19)
(0.649238 -1.95019e-15 2.8182e-18)
(0.649238 -6.69464e-17 5.44052e-19)
(0.654219 -1.94938e-15 2.77251e-18)
(0.654219 -7.09042e-17 4.52915e-19)
(0.659144 -1.94572e-15 2.76906e-18)
(0.659144 -7.81254e-17 3.29837e-19)
(0.664016 -1.94144e-15 2.77433e-18)
(0.664016 -8.3095e-17 3.29302e-19)
(0.668835 -1.938e-15 2.55417e-18)
(0.668835 -8.66562e-17 5.4879e-20)
(0.673604 -1.93428e-15 2.48593e-18)
(0.673604 -9.4119e-17 -1.35088e-19)
(0.678324 -1.92984e-15 2.30946e-18)
(0.678324 -1.01691e-16 -1.59626e-19)
(0.682997 -1.92186e-15 2.34538e-18)
(0.682997 -1.09232e-16 -1.51311e-19)
(0.687623 -1.91198e-15 2.35358e-18)
(0.687623 -1.19869e-16 -1.6106e-19)
(0.692204 -1.90373e-15 2.19761e-18)
(0.692204 -1.28889e-16 -2.83496e-19)
(0.696741 -1.89826e-15 1.95109e-18)
(0.696741 -1.3493e-16 -3.74437e-19)
(0.701236 -1.8957e-15 1.60895e-18)
(0.701236 -1.39793e-16 -6.40965e-19)
(0.70569 -1.89242e-15 1.56596e-18)
(0.70569 -1.43342e-16 -9.65876e-19)
(0.710103 -1.88901e-15 1.4457e-18)
(0.710103 -1.47533e-16 -1.23725e-18)
(0.714478 -1.88293e-15 1.33045e-18)
(0.714478 -1.51116e-16 -1.7321e-18)
(0.718814 -1.87755e-15 1.40901e-18)
(0.718814 -1.5829e-16 -1.56321e-18)
(0.723114 -1.86906e-15 1.28563e-18)
(0.723114 -1.65941e-16 -1.41086e-18)
(0.727378 -1.8623e-15 1.15749e-18)
(0.727378 -1.73008e-16 -1.41552e-18)
(0.731607 -1.85524e-15 1.18373e-18)
(0.731607 -1.79153e-16 -1.31627e-18)
(0.735802 -1.84903e-15 7.59841e-19)
(0.735802 -1.8675e-16 -1.25226e-18)
(0.739964 -1.84035e-15 -5.30987e-21)
(0.739964 -1.95446e-16 -1.42311e-18)
(0.744094 -1.83203e-15 3.00439e-19)
(0.744094 -2.02193e-16 -1.70833e-18)
(0.748193 -1.82238e-15 1.82568e-19)
(0.748193 -2.12066e-16 -1.41451e-18)
(0.752261 -1.81365e-15 2.89407e-19)
(0.752261 -2.22516e-16 -1.34342e-18)
(0.7563 -1.81036e-15 2.57511e-48)
(0.7563 -2.32242e-16 -1.31312e-18)
(0.76031 -1.79068e-15 -3.60614e-19)
(0.76031 -2.39428e-16 -1.19925e-18)
(0.764292 -1.78074e-15 -3.58575e-19)
(0.764292 -2.44593e-16 -9.96547e-19)
(0.768246 -1.7739e-15 -5.75573e-19)
(0.768246 -2.50986e-16 -8.85702e-19)
(0.772174 -1.75835e-15 -8.52093e-19)
(0.772174 -2.56892e-16 -9.85779e-19)
(0.776075 -1.75953e-15 -5.4925e-19)
(0.776075 -2.61773e-16 -8.01881e-19)
(0.779951 -1.75348e-15 1.73053e-19)
(0.779951 -2.63413e-16 -1.15041e-18)
(0.783803 -1.74034e-15 4.92151e-19)
(0.783803 -2.71694e-16 -1.09471e-18)
(0.787631 -1.72617e-15 7.97146e-19)
(0.787631 -2.80884e-16 -9.00578e-19)
(0.791435 -1.71195e-15 9.61348e-19)
(0.791435 -2.88717e-16 -1.49154e-18)
(0.795216 -1.70394e-15 9.33457e-19)
(0.795216 -2.99788e-16 -6.28972e-18)
(0.798974 -1.69404e-15 1.57239e-18)
(0.798974 -3.03566e-16 -1.18276e-17)
(0.802711 -1.68394e-15 1.63398e-18)
(0.802711 -3.12858e-16 -1.62927e-17)
(0.806427 -1.67527e-15 2.12217e-18)
(0.806427 -3.22508e-16 -2.04134e-17)
(0.810122 -1.66708e-15 2.78532e-18)
(0.810122 -3.26509e-16 -2.64894e-17)
(0.813797 -1.65574e-15 3.73106e-18)
(0.813797 -3.2947e-16 -3.27558e-17)
(0.817452 -1.64125e-15 3.63972e-18)
(0.817452 -3.35557e-16 -3.65859e-17)
(0.821087 -1.63041e-15 4.41576e-18)
(0.821087 -3.46638e-16 -4.14833e-17)
(0.824704 -1.62175e-15 4.7049e-18)
(0.824704 -3.58078e-16 -4.75884e-17)
(0.828302 -1.60211e-15 5.04297e-18)
(0.828302 -3.68826e-16 -5.32732e-17)
(0.831882 -1.58675e-15 4.35425e-18)
(0.831882 -3.75146e-16 -5.85996e-17)
(0.835444 -1.57368e-15 4.30636e-18)
(0.835444 -3.88602e-16 -6.59938e-17)
(0.83899 -1.56039e-15 4.24475e-18)
(0.83899 -4.01862e-16 -7.37817e-17)
(0.842518 -1.5462e-15 4.172e-18)
(0.842518 -4.10297e-16 -7.86018e-17)
(0.84603 -1.52931e-15 4.24755e-18)
(0.84603 -4.21948e-16 -8.26835e-17)
(0.849526 -1.51262e-15 3.17718e-18)
(0.849526 -4.29906e-16 -9.08065e-17)
(0.853006 -1.4981e-15 2.96614e-18)
(0.853006 -4.38455e-16 -9.87657e-17)
(0.85647 -1.48565e-15 3.49381e-18)
(0.85647 -4.43003e-16 -1.04966e-16)
(0.859919 -1.47277e-15 4.25582e-18)
(0.859919 -4.51106e-16 -1.13115e-16)
(0.863354 -1.45966e-15 3.22629e-18)
(0.863354 -4.63141e-16 -1.25991e-16)
(0.866774 -1.44869e-15 4.3927e-18)
(0.866774 -4.74298e-16 -1.27857e-16)
(0.870179 -1.42707e-15 3.24368e-18)
(0.870179 -4.88033e-16 -1.29803e-16)
(0.873571 -1.40159e-15 6.81005e-20)
(0.873571 -4.99411e-16 -1.31315e-16)
(0.876949 -1.38731e-15 1.91923e-18)
(0.876949 -5.08599e-16 -1.33021e-16)
(0.880313 -1.38209e-15 4.35337e-18)
(0.880313 -5.18836e-16 -1.35231e-16)
(0.883664 -1.34948e-15 4.97401e-18)
(0.883664 -5.28649e-16 -1.36953e-16)
(0.887002 -1.32572e-15 5.87342e-19)
(0.887002 -5.33266e-16 -1.3895e-16)
(0.890328 -1.29444e-15 3.69567e-32)
(0.890328 -5.45328e-16 -1.40818e-16)
(0.89364 -1.28807e-15 2.36033e-18)
(0.89364 -5.49291e-16 -1.43129e-16)
(0.896941 -1.27363e-15 3.73428e-19)
(0.896941 -5.56479e-16 -1.45772e-16)
(0.900229 -1.26837e-15 1.70233e-19)
(0.900229 -5.60884e-16 -1.48219e-16)
(0.903505 -1.24933e-15 2.07135e-18)
(0.903505 -5.54234e-16 -1.49669e-16)
(0.906769 -1.2326e-15 4.29687e-18)
(0.906769 -5.63661e-16 -1.52116e-16)
(0.910022 -1.20899e-15 2.26725e-18)
(0.910022 -5.70634e-16 -1.54322e-16)
(0.913263 -1.18961e-15 -1.47424e-18)
(0.913263 -5.7973e-16 -1.55757e-16)
(0.916493 -1.17712e-15 -4.38762e-19)
(0.916493 -5.8255e-16 -1.56664e-16)
(0.919712 -1.16186e-15 1.45581e-20)
(0.919712 -5.83514e-16 -1.57882e-16)
(0.92292 -1.1434e-15 -2.16893e-18)
(0.92292 -5.93245e-16 -1.47423e-16)
(0.926116 -1.12773e-15 -8.82092e-19)
(0.926116 -5.95914e-16 -1.25548e-16)
(0.929302 -1.11272e-15 -1.03298e-19)
(0.929302 -5.92247e-16 -1.03519e-16)
(0.932477 -1.09497e-15 -1.50941e-18)
(0.932477 -5.95081e-16 -8.60986e-17)
(0.935641 -1.0765e-15 -2.88636e-18)
(0.935641 -6.04777e-16 -6.92703e-17)
(0.938795 -1.06073e-15 -2.87362e-18)
(0.938795 -6.12806e-16 -4.75688e-17)
(0.941939 -1.04343e-15 -4.71726e-18)
(0.941939 -6.10765e-16 -2.3261e-17)
(0.945071 -1.01847e-15 -2.18222e-18)
(0.945071 -6.07213e-16 -2.27862e-18)
(0.948194 -1.01705e-15 3.17682e-19)
(0.948194 -6.09537e-16 1.94076e-17)
(0.951306 -9.98508e-16 -2.63334e-18)
(0.951306 -6.15914e-16 3.47294e-17)
(0.954408 -9.85794e-16 -5.06844e-18)
(0.954408 -6.18925e-16 5.72875e-17)
(0.957499 -9.70228e-16 -5.16602e-18)
(0.957499 -6.20972e-16 4.89644e-17)
(0.960581 -9.615e-16 -3.82194e-18)
(0.960581 -6.13008e-16 4.1458e-17)
(0.963652 -9.52477e-16 -2.23008e-18)
(0.963652 -6.09543e-16 3.47166e-17)
(0.966712 -9.31946e-16 6.30554e-18)
(0.966712 -6.1105e-16 2.45598e-17)
(0.969763 -9.00677e-16 -1.16968e-18)
(0.969763 -6.21445e-16 1.8584e-17)
(0.972803 -8.79079e-16 -6.0415e-18)
(0.972803 -6.26852e-16 1.48743e-17)
(0.975832 -8.5543e-16 -4.18865e-18)
(0.975832 -6.24109e-16 1.15927e-17)
(0.978851 -8.30634e-16 -5.44881e-18)
(0.978851 -6.45814e-16 1.39265e-17)
(0.98186 -8.24119e-16 -5.19334e-18)
(0.98186 -6.58025e-16 1.75923e-17)
(0.984858 -8.21218e-16 -6.17544e-18)
(0.984858 -6.63623e-16 2.67794e-17)
(0.987846 -8.08242e-16 -5.42366e-18)
(0.987846 -6.59031e-16 3.42948e-17)
(0.990822 -7.94838e-16 -4.6035e-18)
(0.990822 -6.6194e-16 3.43846e-17)
(0.993788 -7.8198e-16 -3.73213e-18)
(0.993788 -6.80945e-16 3.12074e-17)
(0.996743 -7.73432e-16 -4.29848e-18)
(0.996743 -6.8699e-16 3.02693e-17)
(0.999686 -7.7074e-16 -8.56138e-18)
(0.999686 -6.98571e-16 2.96334e-17)
(1.00262 -7.64284e-16 -5.88187e-18)
(1.00262 -7.03603e-16 2.72215e-17)
(1.00554 -7.46158e-16 -6.20098e-18)
(1.00554 -7.00683e-16 3.18483e-17)
(1.00845 -7.38359e-16 -8.56456e-18)
(1.00845 -7.08092e-16 3.18757e-17)
(1.01134 -7.43248e-16 -1.04139e-17)
(1.01134 -7.22939e-16 3.54082e-17)
(1.01423 -7.25478e-16 -1.1018e-17)
(1.01423 -7.1526e-16 3.9745e-17)
(1.0171 -7.20766e-16 -1.06715e-17)
(1.0171 -7.17517e-16 4.68349e-17)
(1.01996 -7.12911e-16 -1.41142e-17)
(1.01996 -7.28899e-16 5.25044e-17)
(1.02281 -7.29081e-16 -2.09102e-17)
(1.02281 -6.97649e-16 5.67649e-17)
(1.02564 -7.51879e-16 -1.89922e-17)
(1.02564 -6.78883e-16 4.14273e-17)
(1.02846 -7.38544e-16 -1.37514e-17)
(1.02846 -6.80456e-16 9.53108e-18)
(1.03126 -6.94606e-16 -2.45407e-17)
(1.03126 -6.83278e-16 1.07717e-17)
(1.03406 -6.73041e-16 -2.47606e-17)
(1.03406 -6.67035e-16 4.09715e-18)
(1.03683 -6.45677e-16 -1.38869e-17)
(1.03683 -6.6917e-16 -5.57354e-18)
(1.03959 -6.66802e-16 -2.84106e-17)
(1.03959 -6.38363e-16 7.94125e-18)
(1.04234 -6.28088e-16 -2.94564e-17)
(1.04234 -6.13782e-16 1.5939e-17)
(1.04507 -6.20107e-16 -2.80318e-17)
(1.04507 -6.29152e-16 2.23578e-17)
(1.04778 -6.36538e-16 -1.13664e-17)
(1.04778 -5.94335e-16 8.84511e-18)
(1.05047 -6.00997e-16 -6.89008e-18)
(1.05047 -5.79733e-16 -4.44355e-18)
(1.05315 -5.59551e-16 -2.56339e-17)
(1.05315 -5.74071e-16 7.69091e-18)
(1.0558 -5.35509e-16 -2.40173e-17)
(1.0558 -5.44492e-16 4.12237e-18)
(1.05844 -5.15355e-16 -1.78981e-17)
(1.05844 -5.4138e-16 8.76927e-18)
(1.06106 -5.38751e-16 -2.26706e-17)
(1.06106 -5.40578e-16 3.7564e-17)
(1.06366 -5.12085e-16 -2.89203e-17)
(1.06366 -5.29605e-16 3.4337e-17)
(1.06623 -5.36306e-16 -3.693e-17)
(1.06623 -5.3424e-16 4.93033e-17)
(1.06878 -5.45169e-16 -2.66908e-17)
(1.06878 -5.0671e-16 5.94494e-17)
(1.07131 -5.74369e-16 -2.89385e-18)
(1.07131 -4.91724e-16 3.08266e-17)
(1.07382 -5.46591e-16 -4.30008e-17)
(1.07382 -5.31448e-16 1.11707e-17)
(1.07629 -5.28147e-16 -5.25061e-17)
(1.07629 -5.23647e-16 1.13784e-17)
(1.07874 -5.14509e-16 -1.2118e-17)
(1.07874 -5.03319e-16 5.72837e-18)
(1.08117 -5.37395e-16 -1.43587e-17)
(1.08117 -5.14393e-16 -4.7432e-17)
(1.08356 -5.31411e-16 -7.09546e-17)
(1.08356 -5.32141e-16 -6.48012e-17)
(1.08592 -5.13585e-16 -4.95125e-17)
(1.08592 -5.09566e-16 -3.6156e-17)
(1.08825 -5.48403e-16 6.72143e-18)
(1.08825 -5.10194e-16 2.71483e-18)
(1.09054 -5.41124e-16 -8.47284e-18)
(1.09054 -5.16798e-16 -3.25517e-17)
(1.0928 -5.4083e-16 -3.30924e-17)
(1.0928 -5.4417e-16 -7.03928e-17)
(1.09502 -4.96284e-16 -2.88436e-17)
(1.09502 -5.06579e-16 -5.83336e-17)
(1.0972 -4.89086e-16 -7.33511e-17)
(1.0972 -4.94115e-16 -2.09103e-17)
(1.09933 -4.9854e-16 -4.20068e-17)
(1.09933 -5.05646e-16 -5.01098e-17)
(1.10142 -5.04447e-16 -1.43471e-17)
(1.10142 -4.90161e-16 -5.29107e-17)
(1.10346 -4.85086e-16 -3.72388e-17)
(1.10346 -4.48861e-16 -4.5358e-17)
(1.10546 -4.48988e-16 -7.34319e-17)
(1.10546 -5.02927e-16 -2.59378e-17)
(1.10739 -4.46879e-16 -1.10862e-16)
(1.10739 -5.26754e-16 -1.04705e-17)
(1.10927 -3.75831e-16 -5.74522e-17)
(1.10927 -5.17023e-16 7.72571e-18)
(1.11109 -4.89305e-16 -4.00789e-17)
(1.11109 -5.40244e-16 5.25471e-18)
(1.11285 -4.63552e-16 -7.59904e-17)
(1.11285 -5.58885e-16 4.35925e-17)
(1.11453 -4.48038e-16 -2.75863e-17)
(1.11453 -5.64655e-16 1.02377e-16)
(1.11614 -4.64538e-16 -1.11394e-17)
(1.11614 -4.99346e-16 1.36865e-16)
(1.11767 -4.82636e-16 -1.1194e-17)
(1.11767 -4.31464e-16 1.49406e-16)
(1.11912 -5.06879e-16 -4.81869e-18)
(1.11912 -4.36615e-16 1.22131e-16)
(1.12047 -4.98917e-16 4.0686e-17)
(1.12047 -4.26689e-16 8.26522e-17)
(1.12173 -5.04842e-16 7.01982e-17)
(1.12173 -3.97309e-16 5.67173e-17)
(1.12288 -4.99006e-16 9.89373e-17)
(1.12288 -3.46267e-16 -1.32421e-17)
(1.12392 -4.31205e-16 -1.14653e-17)
(1.12392 -3.96449e-16 1.57372e-17)
(1.12483 -3.81699e-16 -3.71473e-17)
(1.12483 -3.5152e-16 -1.15314e-17)
(1.12562 -3.58674e-16 -7.94579e-18)
(1.12562 -3.40355e-16 2.1473e-17)
(1.12627 -3.28665e-16 9.96332e-18)
(1.12627 -3.63889e-16 -6.65814e-17)
(1.12677 -2.77045e-16 1.00765e-17)
(1.12677 -3.35928e-16 3.47211e-18)
(1.12712 -2.84674e-16 1.30714e-17)
(1.12712 -3.32701e-16 2.91895e-18)
(1.1273 -3.04841e-16 2.26775e-17)
(1.1273 -3.2542e-16 -6.58699e-18)
(0.00220432 5.06249e-20 1.81046e-19)
(0.00220432 2.86388e-20 4.08326e-18)
(0.00665327 -6.07046e-20 1.0193e-17)
(0.00665327 2.31347e-20 1.07287e-19)
(0.0111844 4.23492e-20 9.61661e-18)
(0.0111844 9.57256e-20 1.12911e-19)
(0.0157992 8.34559e-20 1.26494e-17)
(0.0157992 1.47137e-19 1.20155e-19)
(0.0204992 1.30417e-19 1.56378e-17)
(0.0204992 1.96247e-19 1.2926e-19)
(0.025286 1.79076e-19 1.72324e-17)
(0.025286 2.50999e-19 1.4045e-19)
(0.0301611 2.27503e-19 1.74268e-17)
(0.0301611 3.11137e-19 1.53859e-19)
(0.0351262 2.691e-19 1.76024e-17)
(0.0351262 3.84718e-19 1.6975e-19)
(0.0401828 3.30561e-19 1.77663e-17)
(0.0401828 4.68431e-19 1.88318e-19)
(0.0453327 4.03095e-19 1.79218e-17)
(0.0453327 5.46267e-19 2.10015e-19)
(0.0505775 4.70555e-19 1.80725e-17)
(0.0505775 6.20413e-19 2.34844e-19)
(0.055919 5.39961e-19 1.68678e-17)
(0.055919 7.21282e-19 2.63343e-19)
(0.0613588 5.97094e-19 1.52998e-17)
(0.0613588 8.33867e-19 2.95536e-19)
(0.0668988 6.51025e-19 1.36221e-17)
(0.0668988 9.70276e-19 3.31781e-19)
(0.0725407 7.28161e-19 1.18266e-17)
(0.0725407 1.11767e-18 3.72295e-19)
(0.0782862 8.15336e-19 9.90639e-18)
(0.0782862 1.25954e-18 4.17498e-19)
(0.0841373 9.20747e-19 7.86319e-18)
(0.0841373 1.33815e-18 4.67497e-19)
(0.0900957 1.02186e-18 5.69138e-18)
(0.0900957 1.44544e-18 5.22949e-19)
(0.0961632 1.10109e-18 3.38104e-18)
(0.0961632 1.60792e-18 5.84706e-19)
(0.102342 1.2649e-18 9.24699e-19)
(0.102342 1.69652e-18 6.5317e-19)
(0.108633 1.41188e-18 -1.67836e-18)
(0.108633 1.83002e-18 7.28114e-19)
(0.115038 1.52569e-18 -3.89453e-18)
(0.115038 1.98537e-18 8.11181e-19)
(0.121559 1.67065e-18 -4.07257e-18)
(0.121559 2.09385e-18 9.02765e-19)
(0.128198 1.78604e-18 -4.25738e-18)
(0.128198 2.2652e-18 1.00317e-18)
(0.134956 1.97922e-18 -4.45357e-18)
(0.134956 2.48137e-18 1.11247e-18)
(0.141834 2.21023e-18 -4.66526e-18)
(0.141834 2.64778e-18 1.23107e-18)
(0.148834 2.42853e-18 -4.8968e-18)
(0.148834 2.76178e-18 1.36026e-18)
(0.155955 2.68466e-18 -5.13405e-18)
(0.155955 2.87551e-18 1.50131e-18)
(0.1632 2.88684e-18 -5.38547e-18)
(0.1632 3.12329e-18 1.65528e-18)
(0.170568 3.10574e-18 -5.65122e-18)
(0.170568 3.33857e-18 1.82349e-18)
(0.178059 3.25332e-18 -5.92525e-18)
(0.178059 3.54336e-18 2.00545e-18)
(0.185672 3.37777e-18 -6.21477e-18)
(0.185672 3.95371e-18 2.20203e-18)
(0.193406 3.69416e-18 -6.5158e-18)
(0.193406 4.30721e-18 2.41419e-18)
(0.201261 4.01268e-18 -6.82688e-18)
(0.201261 4.45237e-18 2.64397e-18)
(0.209232 4.24434e-18 -7.1404e-18)
(0.209232 4.85393e-18 2.89001e-18)
(0.217318 4.46922e-18 -7.46173e-18)
(0.217318 5.20361e-18 3.15443e-18)
(0.225514 4.91751e-18 -7.81447e-18)
(0.225514 5.45498e-18 3.43557e-18)
(0.233816 5.39662e-18 -8.19329e-18)
(0.233816 6.01029e-18 3.73433e-18)
(0.242218 5.77187e-18 -8.59503e-18)
(0.242218 6.30805e-18 4.05001e-18)
(0.250713 6.18156e-18 -9.00479e-18)
(0.250713 7.02097e-18 4.38138e-18)
(0.259294 6.56949e-18 -9.33378e-18)
(0.259294 8.14235e-18 4.72671e-18)
(0.267952 6.87335e-18 -8.59712e-18)
(0.267952 8.37713e-18 5.08916e-18)
(0.276679 7.23755e-18 -7.82758e-18)
(0.276679 8.8129e-18 5.4691e-18)
(0.285464 7.61414e-18 -7.01416e-18)
(0.285464 9.40268e-18 5.86362e-18)
(0.294297 7.83835e-18 -6.15764e-18)
(0.294297 9.99979e-18 6.27595e-18)
(0.303165 8.23349e-18 -5.26217e-18)
(0.303165 1.09346e-17 6.70684e-18)
(0.312058 8.67442e-18 -4.37841e-18)
(0.312058 1.1189e-17 7.15178e-18)
(0.320963 9.34147e-18 -3.44291e-18)
(0.320963 1.17253e-17 7.61304e-18)
(0.329869 1.01458e-17 -2.46113e-18)
(0.329869 1.22877e-17 8.09492e-18)
(0.338763 1.06994e-17 -1.47739e-18)
(0.338763 1.21338e-17 8.59658e-18)
(0.347633 1.13829e-17 -4.65749e-19)
(0.347633 1.22691e-17 9.10755e-18)
(0.356468 1.20787e-17 5.76289e-19)
(0.356468 1.31489e-17 9.6261e-18)
(0.365258 1.24203e-17 1.66138e-18)
(0.365258 1.36455e-17 1.016e-17)
(0.373991 1.27238e-17 2.74383e-18)
(0.373991 1.41247e-17 1.06969e-17)
(0.382659 1.31747e-17 3.83482e-18)
(0.382659 1.5158e-17 1.12487e-17)
(0.391253 1.35069e-17 4.9565e-18)
(0.391253 1.57528e-17 1.18138e-17)
(0.399766 1.43316e-17 6.02557e-18)
(0.399766 1.69942e-17 1.23857e-17)
(0.40819 1.50965e-17 7.15858e-18)
(0.40819 1.86514e-17 1.29636e-17)
(0.41652 1.54816e-17 8.41885e-18)
(0.41652 1.96513e-17 1.35492e-17)
(0.424751 1.60351e-17 9.69694e-18)
(0.424751 2.00604e-17 1.41438e-17)
(0.432878 1.67922e-17 1.09614e-17)
(0.432878 2.04733e-17 1.4746e-17)
(0.440899 1.73148e-17 1.23543e-17)
(0.440899 2.16206e-17 1.53685e-17)
(0.448811 1.73738e-17 1.37713e-17)
(0.448811 2.29729e-17 1.60106e-17)
(0.456612 1.77444e-17 1.51732e-17)
(0.456612 2.4334e-17 1.66816e-17)
(0.464301 1.84417e-17 1.6618e-17)
(0.464301 2.50182e-17 1.73776e-17)
(0.471877 1.88319e-17 1.81508e-17)
(0.471877 2.61434e-17 1.80984e-17)
(0.47934 1.95111e-17 1.91747e-17)
(0.47934 2.75436e-17 1.8849e-17)
(0.486691 2.08303e-17 1.90317e-17)
(0.486691 2.80544e-17 1.96236e-17)
(0.49393 2.18993e-17 1.88706e-17)
(0.49393 2.9024e-17 2.04221e-17)
(0.501058 2.23997e-17 1.87121e-17)
(0.501058 3.09053e-17 2.12276e-17)
(0.508078 2.17262e-17 1.85566e-17)
(0.508078 3.23775e-17 2.2053e-17)
(0.514989 2.18996e-17 1.84232e-17)
(0.514989 3.30084e-17 2.29054e-17)
(0.521795 2.29968e-17 1.82838e-17)
(0.521795 3.41726e-17 2.37735e-17)
(0.528497 2.22512e-17 1.81422e-17)
(0.528497 3.46276e-17 2.46462e-17)
(0.535097 2.13564e-17 1.80333e-17)
(0.535097 3.52997e-17 2.55264e-17)
(0.541598 2.19482e-17 1.79227e-17)
(0.541598 3.65958e-17 2.6416e-17)
(0.548001 2.32559e-17 1.78242e-17)
(0.548001 3.89413e-17 2.73365e-17)
(0.554309 2.36284e-17 1.77236e-17)
(0.554309 3.97528e-17 2.8294e-17)
(0.560525 2.44214e-17 1.76172e-17)
(0.560525 3.98976e-17 2.92244e-17)
(0.56665 2.58309e-17 1.7514e-17)
(0.56665 4.20012e-17 3.01507e-17)
(0.572688 2.65623e-17 1.74178e-17)
(0.572688 4.27152e-17 3.11171e-17)
(0.57864 2.75923e-17 1.73285e-17)
(0.57864 4.48164e-17 3.20961e-17)
(0.584508 2.72448e-17 1.72274e-17)
(0.584508 4.82141e-17 3.3099e-17)
(0.590296 2.74281e-17 1.71271e-17)
(0.590296 4.93708e-17 3.4095e-17)
(0.596005 2.89363e-17 1.70221e-17)
(0.596005 5.04067e-17 3.53774e-17)
(0.601638 3.07725e-17 1.69076e-17)
(0.601638 5.19274e-17 3.75685e-17)
(0.607196 3.45502e-17 1.67872e-17)
(0.607196 5.16016e-17 3.98921e-17)
(0.612683 3.72164e-17 1.66742e-17)
(0.612683 5.49039e-17 4.2094e-17)
(0.618099 3.79572e-17 1.65691e-17)
(0.618099 6.05736e-17 4.41935e-17)
(0.623448 3.82814e-17 1.6493e-17)
(0.623448 6.32046e-17 4.61854e-17)
(0.62873 3.83686e-17 1.64273e-17)
(0.62873 6.30905e-17 4.82298e-17)
(0.633949 3.99635e-17 1.63256e-17)
(0.633949 6.26537e-17 5.01405e-17)
(0.639105 3.99373e-17 1.62229e-17)
(0.639105 6.29812e-17 5.21428e-17)
(0.644201 3.75089e-17 1.61177e-17)
(0.644201 6.37854e-17 5.42822e-17)
(0.649238 3.62251e-17 1.60705e-17)
(0.649238 6.79915e-17 5.61864e-17)
(0.654219 3.69948e-17 1.60764e-17)
(0.654219 7.20431e-17 5.82288e-17)
(0.659144 3.84057e-17 1.60949e-17)
(0.659144 7.10301e-17 6.01587e-17)
(0.664016 4.01446e-17 1.61066e-17)
(0.664016 7.18751e-17 6.18834e-17)
(0.668835 4.15173e-17 1.60878e-17)
(0.668835 7.55407e-17 6.34992e-17)
(0.673604 4.15797e-17 1.61254e-17)
(0.673604 7.59424e-17 6.48167e-17)
(0.678324 4.05504e-17 1.61819e-17)
(0.678324 7.86612e-17 6.61856e-17)
(0.682997 4.02528e-17 1.63174e-17)
(0.682997 8.24364e-17 6.77074e-17)
(0.687623 4.09687e-17 1.64476e-17)
(0.687623 8.25991e-17 6.90293e-17)
(0.692204 4.15655e-17 1.66135e-17)
(0.692204 8.59654e-17 6.99356e-17)
(0.696741 4.22383e-17 1.68176e-17)
(0.696741 8.94656e-17 7.0866e-17)
(0.701236 4.24898e-17 1.71116e-17)
(0.701236 8.90575e-17 7.20118e-17)
(0.70569 4.28671e-17 1.7465e-17)
(0.70569 9.18959e-17 7.24062e-17)
(0.710103 4.16635e-17 1.78277e-17)
(0.710103 9.64292e-17 7.23095e-17)
(0.714478 3.90187e-17 1.82452e-17)
(0.714478 9.88348e-17 7.24046e-17)
(0.718814 3.5508e-17 1.86877e-17)
(0.718814 1.00214e-16 7.27547e-17)
(0.723114 3.5468e-17 1.92226e-17)
(0.723114 1.02836e-16 7.29155e-17)
(0.727378 3.60048e-17 1.96879e-17)
(0.727378 1.06346e-16 7.29176e-17)
(0.731607 3.57529e-17 2.0256e-17)
(0.731607 1.07549e-16 7.26041e-17)
(0.735802 3.67317e-17 2.08279e-17)
(0.735802 1.07264e-16 7.22187e-17)
(0.739964 3.55429e-17 2.14457e-17)
(0.739964 1.09203e-16 7.21204e-17)
(0.744094 3.62235e-17 2.21672e-17)
(0.744094 1.11704e-16 7.28765e-17)
(0.748193 3.81864e-17 2.28149e-17)
(0.748193 1.1418e-16 7.4271e-17)
(0.752261 3.88498e-17 2.35816e-17)
(0.752261 1.11182e-16 7.57439e-17)
(0.7563 3.80546e-17 2.44115e-17)
(0.7563 1.08088e-16 7.72261e-17)
(0.76031 3.83436e-17 2.53763e-17)
(0.76031 1.0723e-16 7.87026e-17)
(0.764292 3.75744e-17 2.63223e-17)
(0.764292 1.1168e-16 8.02857e-17)
(0.768246 3.7557e-17 2.73474e-17)
(0.768246 1.18079e-16 8.12122e-17)
(0.772174 3.67465e-17 2.82794e-17)
(0.772174 1.19427e-16 7.95905e-17)
(0.776075 3.0119e-17 2.93326e-17)
(0.776075 1.19938e-16 7.9123e-17)
(0.779951 2.59752e-17 3.06178e-17)
(0.779951 1.22543e-16 7.88171e-17)
(0.783803 2.4693e-17 3.187e-17)
(0.783803 1.247e-16 7.86284e-17)
(0.787631 2.43662e-17 3.31545e-17)
(0.787631 1.23719e-16 7.83653e-17)
(0.791435 2.4858e-17 3.44678e-17)
(0.791435 1.24839e-16 7.8188e-17)
(0.795216 2.49309e-17 3.5731e-17)
(0.795216 1.22672e-16 7.72665e-17)
(0.798974 2.44051e-17 3.70876e-17)
(0.798974 1.21423e-16 7.66762e-17)
(0.802711 2.26539e-17 3.85591e-17)
(0.802711 1.21782e-16 7.85816e-17)
(0.806427 1.9552e-17 4.01913e-17)
(0.806427 1.20165e-16 7.94229e-17)
(0.810122 1.55683e-17 4.20679e-17)
(0.810122 1.15939e-16 7.87226e-17)
(0.813797 9.97939e-18 4.41972e-17)
(0.813797 1.07146e-16 7.68728e-17)
(0.817452 4.77666e-18 4.64343e-17)
(0.817452 1.01493e-16 7.64161e-17)
(0.821087 -1.91112e-18 4.88061e-17)
(0.821087 1.02061e-16 7.6711e-17)
(0.824704 -8.19322e-18 5.14038e-17)
(0.824704 1.05784e-16 7.68949e-17)
(0.828302 -9.06193e-18 5.4074e-17)
(0.828302 1.0714e-16 7.72931e-17)
(0.831882 -9.18027e-18 5.64472e-17)
(0.831882 1.02696e-16 7.80014e-17)
(0.835444 -1.06735e-17 5.88721e-17)
(0.835444 9.56658e-17 7.45996e-17)
(0.83899 -1.69247e-17 6.11367e-17)
(0.83899 9.73798e-17 6.67831e-17)
(0.842518 -1.99219e-17 6.3584e-17)
(0.842518 9.64176e-17 5.8699e-17)
(0.84603 -1.60062e-17 6.60413e-17)
(0.84603 9.00108e-17 5.17535e-17)
(0.849526 -1.27496e-17 6.81661e-17)
(0.849526 9.0112e-17 5.14984e-17)
(0.853006 -1.1407e-17 7.02365e-17)
(0.853006 8.58572e-17 5.07201e-17)
(0.85647 -1.40551e-17 7.23312e-17)
(0.85647 7.91586e-17 4.86763e-17)
(0.859919 -1.89479e-17 7.47132e-17)
(0.859919 7.67922e-17 4.77829e-17)
(0.863354 -2.21974e-17 7.70738e-17)
(0.863354 7.25157e-17 4.71772e-17)
(0.866774 -2.25007e-17 7.967e-17)
(0.866774 6.80889e-17 4.66928e-17)
(0.870179 -2.32515e-17 8.2496e-17)
(0.870179 5.78115e-17 4.67117e-17)
(0.873571 -2.55662e-17 8.52091e-17)
(0.873571 4.49056e-17 3.85341e-17)
(0.876949 -2.7761e-17 8.7836e-17)
(0.876949 4.75026e-17 2.8976e-17)
(0.880313 -2.9677e-17 9.08041e-17)
(0.880313 5.13899e-17 2.08926e-17)
(0.883664 -2.75114e-17 9.36881e-17)
(0.883664 5.25562e-17 1.52369e-17)
(0.887002 -2.43072e-17 9.60685e-17)
(0.887002 4.90959e-17 1.04431e-17)
(0.890328 -2.01206e-17 9.79121e-17)
(0.890328 3.58249e-17 5.54885e-18)
(0.89364 -2.59911e-17 9.97193e-17)
(0.89364 3.48172e-17 3.52394e-18)
(0.896941 -3.32359e-17 1.01621e-16)
(0.896941 3.1126e-17 4.97722e-18)