/*--------------------------------*- C++ -*----------------------------------*\
| =========                 |                                                 |
| \\      /  F ield         | OpenFOAM: The Open Source CFD Toolbox           |
|  \\    /   O peration     | Version:  2106                                  |
|   \\  /    A nd           | Website:  www.openfoam.com                      |
|    \\/     M anipulation  |                                                 |
\*---------------------------------------------------------------------------*/
FoamFile
{
    version     2.0;
    format      ascii;
    arch        "LSB;label=32;scalar=64";
    class       volVectorField;
    location    "10050";
    object      grad(T);
}
// * * * * * * * * * * * * * * * * * * * * * * * * * * * * * * * * * * * * * //

dimensions      [0 -1 0 1 0 0 0];

internalField   nonuniform List<vector> 
2000
(
(0 281.194 0.520387)
(0 281.194 0.520387)
(0 281.193 1.57088)
(0 281.193 1.57088)
(-5.05031e-16 281.193 2.18014)
(4.41078e-16 281.193 2.18014)
(-2.09584e-16 281.192 2.22083)
(8.38337e-16 281.192 2.22083)
(0 281.191 2.26227)
(0 281.191 2.26227)
(0 281.19 2.30449)
(-2.0362e-15 281.19 2.30449)
(8.1925e-16 281.188 2.34749)
(2.65196e-15 281.188 2.34749)
(0 281.186 2.39129)
(6.55841e-15 281.186 2.39129)
(-9.79539e-16 281.184 2.4359)
(0 281.184 2.4359)
(0 281.18 2.48134)
(0 281.18 2.48134)
(1.52166e-15 281.176 2.52762)
(0 281.176 2.52762)
(1.47686e-15 281.171 2.57475)
(4.41367e-15 281.171 2.57475)
(0 281.165 2.62275)
(0 281.165 2.62275)
(-4.70313e-15 281.156 2.67162)
(0 281.156 2.67162)
(-2.00254e-15 281.146 2.72137)
(-2.82631e-15 281.146 2.72137)
(4.95887e-15 281.132 2.77202)
(-5.96287e-15 281.132 2.77202)
(2.72368e-15 281.114 2.82356)
(0 281.114 2.82356)
(7.79014e-15 281.091 2.876)
(1.02328e-14 281.091 2.876)
(-2.75035e-15 281.061 2.92934)
(-2.62477e-15 281.061 2.92934)
(2.94609e-15 281.023 2.98356)
(1.17843e-14 281.023 2.98356)
(-3.14547e-15 280.974 3.03866)
(2.51637e-14 280.974 3.03866)
(0 280.911 3.09461)
(1.33942e-14 280.911 3.09461)
(0 280.832 3.15138)
(1.42216e-14 280.832 3.15138)
(4.78586e-15 280.732 3.20893)
(1.02785e-14 280.732 3.20893)
(-3.98066e-15 280.607 3.26721)
(0 280.607 3.26721)
(0 280.45 3.32614)
(1.67968e-14 280.45 3.32614)
(1.05825e-16 280.257 3.38564)
(0 280.257 3.38564)
(-4.64834e-15 280.019 3.44561)
(0 280.019 3.44561)
(4.36315e-15 279.728 3.50592)
(-4.36315e-15 279.728 3.50592)
(-5.11393e-15 279.374 3.56641)
(-2.90221e-14 279.374 3.56641)
(5.35301e-15 278.946 3.62691)
(1.30026e-14 278.946 3.62691)
(0 278.434 3.68721)
(-8.25531e-15 278.434 3.68721)
(2.26018e-15 277.822 3.74707)
(-8.10403e-15 277.822 3.74707)
(-1.40512e-14 277.098 3.80623)
(7.95553e-15 277.098 3.80623)
(0 276.246 3.86438)
(2.54067e-14 276.246 3.86438)
(1.53333e-14 275.25 3.92122)
(-1.53333e-14 275.25 3.92122)
(1.44025e-14 274.094 3.97637)
(1.99794e-14 274.094 3.97637)
(-1.45332e-14 272.761 4.02948)
(2.85797e-14 272.761 4.02948)
(-7.41749e-15 271.234 4.08016)
(0 271.234 4.08016)
(0 269.5 4.128)
(3.07759e-14 269.5 4.128)
(-1.59484e-14 267.542 4.1726)
(3.18969e-14 267.542 4.1726)
(0 265.349 4.2136)
(0 265.349 4.2136)
(0 262.911 4.25061)
(0 262.911 4.25061)
(-8.83571e-15 260.22 4.2833)
(-4.85673e-14 260.22 4.2833)
(9.12903e-15 257.272 4.31139)
(3.65161e-14 257.272 4.31139)
(9.42496e-15 254.067 4.33462)
(-3.76999e-14 254.067 4.33462)
(-9.72321e-15 250.608 4.35282)
(3.88929e-14 250.608 4.35282)
(0 246.901 4.36586)
(8.01875e-14 246.901 4.36586)
(2.23817e-14 242.959 4.37369)
(4.13012e-14 242.959 4.37369)
(-1.06284e-14 238.794 4.37634)
(-5.43491e-14 238.794 4.37634)
(0 234.424 4.37388)
(2.32372e-14 234.424 4.37388)
(-2.26426e-14 229.87 4.36645)
(-2.28113e-14 229.87 4.36645)
(0 225.152 4.35427)
(0 225.152 4.35427)
(1.09915e-14 220.296 4.33758)
(-5.83758e-14 220.296 4.33758)
(-9.43018e-15 215.324 4.31666)
(0 215.324 4.31666)
(-3.36376e-14 210.262 4.29184)
(2.11847e-14 210.262 4.29184)
(-2.55094e-14 205.134 4.26346)
(7.18152e-14 205.134 4.26346)
(-1.30549e-14 199.965 4.23187)
(0 199.965 4.23187)
(-6.66536e-15 194.775 4.19743)
(-7.34546e-14 194.775 4.19743)
(1.36497e-14 189.588 4.16049)
(-5.45988e-14 189.588 4.16049)
(-1.93135e-14 184.421 4.12141)
(-1.93135e-14 184.421 4.12141)
(-2.8471e-14 179.293 4.0805)
(1.13884e-13 179.293 4.0805)
(-1.45245e-14 174.22 4.03808)
(5.80981e-14 174.22 4.03808)
(1.82711e-14 169.215 3.99446)
(0 169.215 3.99446)
(-3.30304e-14 164.291 3.9499)
(6.03765e-14 164.291 3.9499)
(0 159.457 3.90464)
(-1.76076e-14 159.457 3.90464)
(-1.56518e-14 154.723 3.85893)
(0 154.723 3.85893)
(0 150.094 3.81295)
(0 150.094 3.81295)
(0 145.576 3.7669)
(6.47875e-14 145.576 3.7669)
(0 141.173 3.72093)
(0 141.173 3.72093)
(-1.67292e-14 136.889 3.67518)
(6.69167e-14 136.889 3.67518)
(-1.57583e-14 132.724 3.62978)
(8.37202e-14 132.724 3.62978)
(-1.77911e-15 128.681 3.58483)
(-8.44639e-14 128.681 3.58483)
(1.5186e-14 124.758 3.54042)
(-7.0014e-14 124.758 3.54042)
(-3.55105e-14 120.956 3.49662)
(7.1021e-14 120.956 3.49662)
(-3.60077e-14 117.273 3.45351)
(0 117.273 3.45351)
(0 113.708 3.41113)
(7.29975e-14 113.708 3.41113)
(-4.66981e-14 110.258 3.36952)
(-7.39674e-14 110.258 3.36952)
(1.87313e-14 106.922 3.32872)
(0 106.922 3.32872)
(1.89678e-14 103.697 3.28875)
(-7.58714e-14 103.697 3.28875)
(-1.17191e-14 100.58 3.24963)
(-2.66839e-14 100.58 3.24963)
(0 97.5688 3.21138)
(0 97.5688 3.21138)
(1.96603e-14 94.6595 3.17399)
(-1.82997e-13 94.6595 3.17399)
(1.98856e-14 91.8494 3.13748)
(0 91.8494 3.13748)
(0 89.1354 3.10184)
(8.0433e-14 89.1354 3.10184)
(4.46553e-14 86.5145 3.06706)
(8.13133e-14 86.5145 3.06706)
(6.67074e-15 83.9834 3.03315)
(0 83.9834 3.03315)
(-4.15218e-14 81.5392 3.00009)
(8.30436e-14 81.5392 3.00009)
(2.09735e-14 79.1789 2.96787)
(1.67788e-13 79.1789 2.96787)
(-2.11838e-14 76.8993 2.93647)
(0 76.8993 2.93647)
(-4.27837e-14 74.6977 2.90589)
(8.55674e-14 74.6977 2.90589)
(-2.15976e-14 72.5711 2.8761)
(8.63904e-14 72.5711 2.8761)
(0 70.5168 2.8471)
(-2.13729e-14 70.5168 2.8471)
(2.20027e-14 68.5322 2.81886)
(8.80107e-14 68.5322 2.81886)
(-1.89915e-14 66.6145 2.79137)
(1.30002e-13 66.6145 2.79137)
(-2.23995e-14 64.7614 2.7646)
(8.9598e-14 64.7614 2.7646)
(2.25949e-14 62.9703 2.73855)
(0 62.9703 2.73855)
(-2.27885e-14 61.2389 2.7132)
(5.21837e-14 61.2389 2.7132)
(-1.52759e-14 59.5649 2.68852)
(3.82561e-14 59.5649 2.68852)
(-2.31701e-14 57.9462 2.6645)
(9.26803e-14 57.9462 2.6645)
(2.33582e-14 56.3806 2.64112)
(5.65659e-14 56.3806 2.64112)
(0 54.8661 2.61836)
(5.79872e-14 54.8661 2.61836)
(0 53.4009 2.59622)
(-1.30446e-13 53.4009 2.59622)
(0 51.9829 2.57466)
(9.56501e-14 51.9829 2.57466)
(-2.40941e-14 50.6105 2.55368)
(0 50.6105 2.55368)
(-2.42741e-14 49.2819 2.53325)
(9.70965e-14 49.2819 2.53325)
(3.29947e-14 47.9954 2.51337)
(0 47.9954 2.51337)
(0 46.7495 2.49401)
(0 46.7495 2.49401)
(2.48054e-14 45.5427 2.47517)
(1.31018e-13 45.5427 2.47517)
(-6.23414e-15 44.3735 2.45682)
(9.99188e-14 44.3735 2.45682)
(0 43.2405 2.43895)
(1.00611e-13 43.2405 2.43895)
(-5.06486e-14 42.1423 2.42155)
(1.01297e-13 42.1423 2.42155)
(2.54947e-14 41.0778 2.40461)
(1.01979e-13 41.0778 2.40461)
(2.8988e-14 40.0455 2.38811)
(-1.31643e-13 40.0455 2.38811)
(0 39.0445 2.37203)
(-2.84568e-14 39.0445 2.37203)
(-2.40617e-14 38.0735 2.35638)
(-2.79354e-14 38.0735 2.35638)
(-2.61642e-14 37.1315 2.34112)
(0 37.1315 2.34112)
(-2.69209e-14 36.2174 2.32626)
(-1.05315e-13 36.2174 2.32626)
(5.29842e-14 35.3302 2.31178)
(-2.64276e-14 35.3302 2.31178)
(2.73656e-14 34.469 2.29767)
(1.06618e-13 34.469 2.29767)
(-2.68158e-14 33.6328 2.28392)
(1.07263e-13 33.6328 2.28392)
(5.39523e-14 32.8208 2.27052)
(0 32.8208 2.27052)
(5.16786e-14 32.0321 2.25746)
(1.08542e-13 32.0321 2.25746)
(-3.20055e-15 31.2659 2.24472)
(-2.40934e-14 31.2659 2.24472)
(-4.73037e-14 30.5215 2.2323)
(2.19611e-13 30.5215 2.2323)
(-7.40449e-14 29.7981 2.2202)
(0 29.7981 2.2202)
(-2.2793e-14 29.0949 2.20839)
(2.22109e-13 29.0949 2.20839)
(-2.79185e-14 28.4113 2.19687)
(0 28.4113 2.19687)
(0 27.7466 2.18564)
(1.56221e-13 27.7466 2.18564)
(2.82257e-14 27.1003 2.17468)
(2.25806e-13 27.1003 2.17468)
(-2.83781e-14 26.4716 2.16399)
(1.13512e-13 26.4716 2.16399)
(-1.30298e-14 25.8599 2.15356)
(7.25592e-14 25.8599 2.15356)
(-5.73611e-14 25.2649 2.14338)
(7.39242e-14 25.2649 2.14338)
(-4.00503e-14 24.6857 2.13344)
(2.30645e-13 24.6857 2.13344)
(0 24.1221 2.12374)
(1.1592e-13 24.1221 2.12374)
(9.46728e-15 23.5734 2.11427)
(-3.8596e-14 23.5734 2.11427)
(2.92767e-14 23.0392 2.10502)
(0 23.0392 2.10502)
(0 22.519 2.09599)
(0 22.519 2.09599)
(-2.95707e-14 22.0124 2.08716)
(0 22.0124 2.08716)
(-2.97167e-14 21.5189 2.07854)
(-1.54711e-13 21.5189 2.07854)
(-6.5049e-14 21.0381 2.07011)
(2.38897e-13 21.0381 2.07011)
(-3.45421e-14 20.5696 2.06188)
(1.5457e-13 20.5696 2.06188)
(3.75811e-15 20.1131 2.05383)
(8.66951e-14 20.1131 2.05383)
(0 19.6681 2.04595)
(1.21179e-13 19.6681 2.04595)
(-6.31155e-14 19.2344 2.03825)
(1.21751e-13 19.2344 2.03825)
(0 18.8115 2.03072)
(1.22321e-13 18.8115 2.03072)
(-3.07221e-14 18.3991 2.02335)
(0 18.3991 2.02335)
(-6.17776e-14 17.9969 2.01613)
(3.09141e-14 17.9969 2.01613)
(-9.16996e-14 17.6047 2.00906)
(0 17.6047 2.00906)
(3.11448e-14 17.222 2.00214)
(-1.54371e-13 17.222 2.00214)
(2.92456e-14 16.8486 1.99536)
(-2.92456e-14 16.8486 1.99536)
(0 16.4843 1.98871)
(0 16.4843 1.98871)
(5.97465e-14 16.1287 1.98219)
(0 16.1287 1.98219)
(-5.93684e-14 15.7817 1.97579)
(1.26805e-13 15.7817 1.97579)
(-5.89994e-14 15.4429 1.96951)
(1.27357e-13 15.4429 1.96951)
(-3.19768e-14 15.1121 1.96335)
(0 15.1121 1.96335)
(0 14.7891 1.9573)
(1.28456e-13 14.7891 1.9573)
(-3.22505e-14 14.4736 1.95135)
(-1.80391e-13 14.4736 1.95135)
(-1.806e-14 14.1655 1.9455)
(1.79994e-13 14.1655 1.9455)
(3.25225e-14 13.8645 1.93974)
(1.3009e-13 13.8645 1.93974)
(3.26579e-14 13.5704 1.93407)
(0 13.5704 1.93407)
(-4.7724e-14 13.283 1.92849)
(1.31172e-13 13.283 1.92849)
(-3.29275e-14 13.0022 1.92298)
(0 13.0022 1.92298)
(0 12.7277 1.91755)
(1.32247e-13 12.7277 1.91755)
(-3.31955e-14 12.4593 1.91218)
(0 12.4593 1.91218)
(0 12.1969 1.90689)
(0 12.1969 1.90689)
(0 11.9404 1.90164)
(1.33848e-13 11.9404 1.90164)
(0 11.6895 1.89646)
(1.34378e-13 11.6895 1.89646)
(-3.37269e-14 11.4441 1.89132)
(0 11.4441 1.89132)
(-3.38589e-14 11.204 1.88622)
(0 11.204 1.88622)
(-3.39904e-14 10.9691 1.88116)
(0 10.9691 1.88116)
(6.82433e-14 10.7393 1.87614)
(9.6821e-14 10.7393 1.87614)
(-6.38188e-14 10.5144 1.87114)
(1.3701e-13 10.5144 1.87114)
(0 10.2942 1.86616)
(1.37532e-13 10.2942 1.86616)
(3.0116e-15 10.0787 1.86119)
(-3.75249e-14 10.0787 1.86119)
(-7.14803e-14 9.86768 1.85624)
(0 9.86768 1.85624)
(3.61622e-14 9.66104 1.85129)
(-3.61622e-14 9.66104 1.85129)
(0 9.45866 1.84633)
(1.39607e-13 9.45866 1.84633)
(-3.50305e-14 9.26041 1.84136)
(-1.40122e-13 9.26041 1.84136)
(0 9.0662 1.83638)
(0 9.0662 1.83638)
(-6.88706e-14 8.87589 1.83138)
(-3.49464e-13 8.87589 1.83138)
(-6.8383e-14 8.68939 1.82634)
(0 8.68939 1.82634)
(0 8.50659 1.82127)
(0 8.50659 1.82127)
(0 8.32738 1.81615)
(7.91358e-14 8.32738 1.81615)
(-7.15923e-14 8.15167 1.81098)
(2.86369e-13 8.15167 1.81098)
(-3.06172e-14 7.97935 1.80575)
(1.74307e-13 7.97935 1.80575)
(-3.60486e-14 7.81032 1.80045)
(0 7.81032 1.80045)
(0 7.6445 1.79507)
(-1.44697e-13 7.6445 1.79507)
(2.16299e-14 7.4818 1.78961)
(-5.79294e-14 7.4818 1.78961)
(0 7.32211 1.78405)
(1.45698e-13 7.32211 1.78405)
(0 7.16536 1.77839)
(1.46196e-13 7.16536 1.77839)
(-1.81295e-14 7.01146 1.7726)
(3.48189e-13 7.01146 1.7726)
(3.67971e-14 6.86033 1.7667)
(1.47188e-13 6.86033 1.7667)
(0 6.71188 1.76065)
(1.47682e-13 6.71188 1.76065)
(3.70436e-14 6.56603 1.75446)
(1.48174e-13 6.56603 1.75446)
(-3.71662e-14 6.4227 1.7481)
(2.9733e-13 6.4227 1.7481)
(-3.72884e-14 6.28181 1.74157)
(-1.49154e-13 6.28181 1.74157)
(0 6.1433 1.73486)
(0 6.1433 1.73486)
(1.06164e-14 6.00707 1.72794)
(-4.8148e-14 6.00707 1.72794)
(-7.53048e-14 5.87306 1.7208)
(0 5.87306 1.7208)
(-3.77728e-14 5.7412 1.71344)
(1.51091e-13 5.7412 1.71344)
(0 5.6114 1.70582)
(0 5.6114 1.70582)
(-3.80122e-14 5.48361 1.69793)
(0 5.48361 1.69793)
(-4.38952e-14 5.35774 1.68976)
(-4.38952e-14 5.35774 1.68976)
(3.82496e-14 5.23373 1.68129)
(3.05997e-13 5.23373 1.68129)
(7.6735e-14 5.1115 1.67249)
(-1.5347e-13 5.1115 1.67249)
(7.69697e-14 4.99098 1.66334)
(0 4.99098 1.66334)
(7.72031e-14 4.87211 1.65382)
(3.08813e-13 4.87211 1.65382)
(3.87177e-14 4.75482 1.64391)
(1.14853e-13 4.75482 1.64391)
(3.88332e-14 4.63902 1.63357)
(1.16048e-13 4.63902 1.63357)
(-3.89481e-14 4.52466 1.62278)
(1.55792e-13 4.52466 1.62278)
(-1.20399e-15 4.41166 1.61151)
(-3.78582e-14 4.41166 1.61151)
(0 4.29995 1.59972)
(1.93867e-13 4.29995 1.59972)
(-7.85768e-14 4.18945 1.58738)
(1.2067e-13 4.18945 1.58738)
(-3.94003e-14 4.08009 1.57446)
(0 4.08009 1.57446)
(0 3.97179 1.5609)
(3.5125e-13 3.97179 1.5609)
(0 3.86447 1.54668)
(0 3.86447 1.54668)
(3.97311e-14 3.75807 1.53174)
(-1.92806e-13 3.75807 1.53174)
(3.98396e-14 3.65248 1.51603)
(0 3.65248 1.51603)
(-1.45912e-14 3.54763 1.4995)
(0 3.54763 1.4995)
(1.60008e-14 3.44342 1.48208)
(-6.41064e-14 3.44342 1.48208)
(0 3.33978 1.46372)
(1.60636e-13 3.33978 1.46372)
(0 3.23659 1.44434)
(1.61053e-13 3.23659 1.44434)
(4.03663e-14 3.13375 1.42387)
(1.61465e-13 3.13375 1.42387)
(0 3.03117 1.40223)
(-2.21407e-13 3.03117 1.40223)
(-4.05686e-14 2.92873 1.37931)
(0 2.92873 1.37931)
(1.67055e-14 2.8263 1.35504)
(1.05297e-13 2.8263 1.35504)
(0 2.72376 1.32929)
(1.63061e-13 2.72376 1.32929)
(1.44284e-14 2.62099 1.30194)
(-1.63445e-13 2.62099 1.30194)
(4.09556e-14 2.51782 1.27288)
(2.73369e-13 2.51782 1.27288)
(0 2.41411 1.24195)
(1.64193e-13 2.41411 1.24195)
(-4.1139e-14 2.3097 1.209)
(0 2.3097 1.209)
(4.12278e-14 2.2044 1.17385)
(1.64911e-13 2.2044 1.17385)
(9.09171e-15 2.09803 1.13632)
(2.15664e-13 2.09803 1.13632)
(-4.13988e-14 1.9904 1.0962)
(1.65595e-13 1.9904 1.0962)
(4.85757e-14 1.88128 1.05328)
(0 1.88128 1.05328)
(4.15603e-14 1.77045 1.00729)
(0 1.77045 1.00729)
(-8.32741e-14 1.65768 0.957995)
(1.66548e-13 1.65768 0.957995)
(0 1.54274 0.9051)
(0 1.54274 0.9051)
(0 1.42536 0.848311)
(0 1.42536 0.848311)
(4.18489e-14 1.30531 0.787317)
(1.67396e-13 1.30531 0.787317)
(1.56106e-15 1.18234 0.721798)
(1.6765e-13 1.18234 0.721798)
(-8.46495e-14 1.05624 0.651433)
(0 1.05624 0.651433)
(0 0.926815 0.575904)
(-4.1895e-14 0.926815 0.575904)
(0 0.793903 0.49491)
(-1.68317e-13 0.793903 0.49491)
(-4.21257e-14 0.657406 0.408179)
(0 0.657406 0.408179)
(-2.53312e-15 0.517287 0.315476)
(1.68668e-13 0.517287 0.315476)
(0 0.373584 0.216619)
(1.6881e-13 0.373584 0.216619)
(-4.22322e-14 0.22642 0.111483)
(0 0.22642 0.111483)
(-4.22554e-14 1.41361e-06 5.23214e-07)
(3.38157e-13 9.12265e-07 3.37654e-07)
(0 281.194 -0.520387)
(0 281.194 -0.520387)
(0 281.193 -1.57088)
(-2.24656e-16 281.193 -1.57088)
(-1.27907e-16 281.193 -2.18014)
(0 281.193 -2.18014)
(2.09584e-16 281.192 -2.22083)
(0 281.192 -2.22083)
(1.34255e-16 281.191 -2.26227)
(-8.50121e-16 281.191 -2.26227)
(5.09051e-16 281.19 -2.30449)
(0 281.19 -2.30449)
(-8.1925e-16 281.188 -2.34749)
(-8.1925e-16 281.188 -2.34749)
(1.6396e-15 281.186 -2.39129)
(0 281.186 -2.39129)
(-9.79539e-16 281.184 -2.4359)
(3.91816e-15 281.184 -2.4359)
(1.14226e-15 281.18 -2.48134)
(-6.1191e-15 281.18 -2.48134)
(2.61603e-15 281.176 -2.52762)
(-6.75371e-15 281.176 -2.52762)
(1.47686e-15 281.171 -2.57475)
(0 281.171 -2.57475)
(1.28395e-15 281.165 -2.62275)
(-9.52825e-15 281.165 -2.62275)
(0 281.156 -2.67162)
(-7.29627e-15 281.156 -2.67162)
(2.00254e-15 281.146 -2.72137)
(-8.01017e-15 281.146 -2.72137)
(0 281.132 -2.77202)
(0 281.132 -2.77202)
(2.36954e-15 281.114 -2.82356)
(-9.47817e-15 281.114 -2.82356)
(2.55819e-15 281.091 -2.876)
(1.02328e-14 281.091 -2.876)
(2.75035e-15 281.061 -2.92934)
(0 281.061 -2.92934)
(5.89217e-15 281.023 -2.98356)
(-5.15334e-15 281.023 -2.98356)
(3.14547e-15 280.974 -3.03866)
(7.52296e-15 280.974 -3.03866)
(3.34855e-15 280.911 -3.09461)
(1.33942e-14 280.911 -3.09461)
(-3.5554e-15 280.832 -3.15138)
(0 280.832 -3.15138)
(7.53218e-15 280.732 -3.20893)
(0 280.732 -3.20893)
(3.98066e-15 280.607 -3.26721)
(0 280.607 -3.26721)
(4.61207e-15 280.45 -3.32614)
(0 280.45 -3.32614)
(-4.52756e-15 280.257 -3.38564)
(-4.52756e-15 280.257 -3.38564)
(9.29667e-15 280.019 -3.44561)
(0 280.019 -3.44561)
(5.15909e-16 279.728 -3.50592)
(2.38794e-14 279.728 -3.50592)
(1.02279e-14 279.374 -3.56641)
(0 279.374 -3.56641)
(1.37624e-14 278.946 -3.62691)
(-8.40941e-15 278.946 -3.62691)
(5.59631e-15 278.434 -3.68721)
(-8.25531e-15 278.434 -3.68721)
(1.39479e-14 277.822 -3.74707)
(-2.33754e-14 277.822 -3.74707)
(0 277.098 -3.80623)
(-2.43826e-14 277.098 -3.80623)
(0 276.246 -3.86438)
(7.80975e-15 276.246 -3.86438)
(6.61194e-15 275.25 -3.92122)
(-2.64478e-14 275.25 -3.92122)
(6.22661e-15 274.094 -3.97637)
(-7.52615e-15 274.094 -3.97637)
(-7.14492e-15 272.761 -4.02948)
(-2.85797e-14 272.761 -4.02948)
(-7.41749e-15 271.234 -4.08016)
(-6.65928e-14 271.234 -4.08016)
(-7.69397e-15 269.5 -4.128)
(0 269.5 -4.128)
(-9.84747e-16 267.542 -4.1726)
(-6.98947e-15 267.542 -4.1726)
(-8.25806e-15 265.349 -4.2136)
(-6.60645e-14 265.349 -4.2136)
(1.70906e-14 262.911 -4.25061)
(0 262.911 -4.25061)
(8.83571e-15 260.22 -4.2833)
(-3.53428e-14 260.22 -4.2833)
(3.12402e-14 257.272 -4.31139)
(2.3534e-14 257.272 -4.31139)
(2.21692e-14 254.067 -4.33462)
(-3.76999e-14 254.067 -4.33462)
(-6.93573e-15 250.608 -4.35282)
(-5.14036e-14 250.608 -4.35282)
(2.00469e-14 246.901 -4.36586)
(4.00938e-14 246.901 -4.36586)
(0 242.959 -4.37369)
(0 242.959 -4.37369)
(-1.06284e-14 238.794 -4.37634)
(-9.68628e-14 238.794 -4.37634)
(1.09324e-14 234.424 -4.37388)
(-5.53483e-14 234.424 -4.37388)
(1.1237e-14 229.87 -4.36645)
(0 229.87 -4.36645)
(2.23933e-14 225.152 -4.35427)
(-1.14726e-13 225.152 -4.35427)
(1.18461e-14 220.296 -4.33758)
(0 220.296 -4.33758)
(2.42999e-14 215.324 -4.31666)
(0 215.324 -4.31666)
(0 210.262 -4.29184)
(-4.98118e-14 210.262 -4.29184)
(-8.04181e-15 205.134 -4.26346)
(0 205.134 -4.26346)
(1.30549e-14 199.965 -4.23187)
(-5.22196e-14 199.965 -4.23187)
(0 194.775 -4.19743)
(-5.34133e-14 194.775 -4.19743)
(0 189.588 -4.16049)
(-5.45988e-14 189.588 -4.16049)
(1.39438e-14 184.421 -4.12141)
(0 184.421 -4.12141)
(0 179.293 -4.0805)
(0 179.293 -4.0805)
(3.31367e-14 174.22 -4.03808)
(-1.86122e-14 174.22 -4.03808)
(1.48108e-14 169.215 -3.99446)
(-1.82711e-14 169.215 -3.99446)
(0 164.291 -3.9499)
(-6.03765e-14 164.291 -3.9499)
(0 159.457 -3.90464)
(0 159.457 -3.90464)
(1.56518e-14 154.723 -3.85893)
(-6.26071e-14 154.723 -3.85893)
(0 150.094 -3.81295)
(-6.37036e-14 150.094 -3.81295)
(0 145.576 -3.7669)
(1.66573e-14 145.576 -3.7669)
(-1.64646e-14 141.173 -3.72093)
(1.31717e-13 141.173 -3.72093)
(0 136.889 -3.67518)
(0 136.889 -3.67518)
(3.27488e-14 132.724 -3.62978)
(-8.37202e-14 132.724 -3.62978)
(1.72486e-14 128.681 -3.58483)
(-6.89944e-14 128.681 -3.58483)
(4.55581e-14 124.758 -3.54042)
(-1.40028e-13 124.758 -3.54042)
(-1.77553e-14 120.956 -3.49662)
(-2.98155e-14 120.956 -3.49662)
(0 117.273 -3.45351)
(0 117.273 -3.45351)
(0 113.708 -3.41113)
(7.29975e-14 113.708 -3.41113)
(9.71441e-15 110.258 -3.36952)
(-2.9587e-13 110.258 -3.36952)
(3.74626e-14 106.922 -3.32872)
(-7.49253e-14 106.922 -3.32872)
(-1.89678e-14 103.697 -3.28875)
(0 103.697 -3.28875)
(-1.92015e-14 100.58 -3.24963)
(-7.68059e-14 100.58 -3.24963)
(-3.88645e-14 97.5688 -3.21138)
(-1.03924e-13 97.5688 -3.21138)
(-1.96603e-14 94.6595 -3.17399)
(-1.57282e-13 94.6595 -3.17399)
(3.97712e-14 91.8494 -3.13748)
(-7.95424e-14 91.8494 -3.13748)
(2.01083e-14 89.1354 -3.10184)
(8.0433e-14 89.1354 -3.10184)
(-2.4327e-14 86.5145 -3.06706)
(8.13133e-14 86.5145 -3.06706)
(-3.33537e-15 83.9834 -3.03315)
(-8.21834e-14 83.9834 -3.03315)
(-6.49654e-14 81.5392 -3.00009)
(8.30436e-14 81.5392 -3.00009)
(2.09735e-14 79.1789 -2.96787)
(0 79.1789 -2.96787)
(1.40844e-15 76.8993 -2.93647)
(0 76.8993 -2.93647)
(0 74.6977 -2.90589)
(-2.21783e-14 74.6977 -2.90589)
(2.15976e-14 72.5711 -2.8761)
(8.63904e-14 72.5711 -2.8761)
(4.27458e-14 70.5168 -2.8471)
(-8.72048e-14 70.5168 -2.8471)
(2.09813e-14 68.5322 -2.81886)
(-2.09813e-14 68.5322 -2.81886)
(2.22021e-14 66.6145 -2.79137)
(4.76148e-14 66.6145 -2.79137)
(0 64.7614 -2.7646)
(0 64.7614 -2.7646)
(3.96977e-14 62.9703 -2.73855)
(-2.20457e-13 62.9703 -2.73855)
(1.94851e-14 61.2389 -2.7132)
(-1.94851e-14 61.2389 -2.7132)
(2.29802e-14 59.5649 -2.68852)
(-1.30177e-13 59.5649 -2.68852)
(2.31701e-14 57.9462 -2.6645)
(0 57.9462 -2.6645)
(2.33582e-14 56.3806 -2.64112)
(1.86866e-13 56.3806 -2.64112)
(2.35446e-14 54.8661 -2.61836)
(0 54.8661 -2.61836)
(2.37294e-14 53.4009 -2.59622)
(-1.30446e-13 53.4009 -2.59622)
(-1.09646e-14 51.9829 -2.57466)
(9.56501e-14 51.9829 -2.57466)
(3.4238e-14 50.6105 -2.55368)
(0 50.6105 -2.55368)
(-2.42741e-14 49.2819 -2.53325)
(-9.70965e-14 49.2819 -2.53325)
(0 47.9954 -2.51337)
(-3.29947e-14 47.9954 -2.51337)
(0 46.7495 -2.49401)
(-3.23901e-14 46.7495 -2.49401)
(0 45.5427 -2.47517)
(0 45.5427 -2.47517)
(3.12139e-14 44.3735 -2.45682)
(-1.31133e-13 44.3735 -2.45682)
(-3.06419e-14 43.2405 -2.43895)
(-3.06419e-14 43.2405 -2.43895)
(0 42.1423 -2.42155)
(-3.00804e-14 42.1423 -2.42155)
(2.54947e-14 41.0778 -2.40461)
(-2.95292e-14 41.0778 -2.40461)
(-2.56638e-14 40.0455 -2.38811)
(0 40.0455 -2.38811)
(-2.58318e-14 39.0445 -2.37203)
(-5.69137e-14 39.0445 -2.37203)
(-1.93684e-15 38.0735 -2.35638)
(0 38.0735 -2.35638)
(0 37.1315 -2.34112)
(0 37.1315 -2.34112)
(1.18454e-15 36.2174 -2.32626)
(-2.10629e-13 36.2174 -2.32626)
(0 35.3302 -2.31178)
(0 35.3302 -2.31178)
(2.66545e-14 34.469 -2.29767)
(0 34.469 -2.29767)
(-2.54679e-14 33.6328 -2.28392)
(1.07263e-13 33.6328 -2.28392)
(0 32.8208 -2.27052)
(-1.32906e-13 32.8208 -2.27052)
(0 32.0321 -2.25746)
(-1.08542e-13 32.0321 -2.25746)
(-2.72939e-14 31.2659 -2.24472)
(-1.09176e-13 31.2659 -2.24472)
(0 30.5215 -2.2323)
(8.61538e-14 30.5215 -2.2323)
(-1.88289e-14 29.7981 -2.2202)
(4.64369e-14 29.7981 -2.2202)
(5.55274e-14 29.0949 -2.20839)
(1.11055e-13 29.0949 -2.20839)
(-2.79185e-14 28.4113 -2.19687)
(6.69234e-14 28.4113 -2.19687)
(-4.39306e-14 27.7466 -2.18564)
(-4.39306e-14 27.7466 -2.18564)
(2.82257e-14 27.1003 -2.17468)
(-4.31256e-14 27.1003 -2.17468)
(2.83781e-14 26.4716 -2.16399)
(1.13512e-13 26.4716 -2.16399)
(7.00892e-14 25.8599 -2.15356)
(7.25592e-14 25.8599 -2.15356)
(2.86805e-14 25.2649 -2.14338)
(0 25.2649 -2.14338)
(4.00503e-14 24.6857 -2.13344)
(-1.15323e-13 24.6857 -2.13344)
(6.82965e-14 24.1221 -2.12374)
(-3.93164e-14 24.1221 -2.12374)
(4.80633e-14 23.5734 -2.11427)
(-3.8596e-14 23.5734 -2.11427)
(3.78887e-14 23.0392 -2.10502)
(-3.78887e-14 23.0392 -2.10502)
(2.9424e-14 22.519 -2.09599)
(0 22.519 -2.09599)
(9.56542e-14 22.0124 -2.08716)
(0 22.0124 -2.08716)
(3.58438e-14 21.5189 -2.07854)
(0 21.5189 -2.07854)
(2.98621e-14 21.0381 -2.07011)
(2.38897e-13 21.0381 -2.07011)
(3.45421e-14 20.5696 -2.06188)
(-3.45421e-14 20.5696 -2.06188)
(-6.40602e-14 20.1131 -2.05383)
(0 20.1131 -2.05383)
(2.99313e-15 19.6681 -2.04595)
(-3.32878e-14 19.6681 -2.04595)
(0 19.2344 -2.03825)
(0 19.2344 -2.03825)
(3.05802e-14 18.8115 -2.03072)
(0 18.8115 -2.03072)
(0 18.3991 -2.02335)
(3.14912e-14 18.3991 -2.02335)
(6.1727e-14 17.9969 -2.01613)
(-1.23454e-13 17.9969 -2.01613)
(6.20088e-14 17.6047 -2.00906)
(-1.24018e-13 17.6047 -2.00906)
(-1.35327e-15 17.222 -2.00214)
(-3.73737e-13 17.222 -2.00214)
(-2.03905e-15 16.8486 -1.99536)
(-2.92456e-14 16.8486 -1.99536)
(0 16.4843 -1.98871)
(6.82767e-14 16.4843 -1.98871)
(-2.81836e-14 16.1287 -1.98219)
(-2.81836e-14 16.1287 -1.98219)
(3.17013e-14 15.7817 -1.97579)
(0 15.7817 -1.97579)
(2.24809e-14 15.4429 -1.96951)
(-1.81677e-13 15.4429 -1.96951)
(2.66624e-14 15.1121 -1.96335)
(-2.66624e-14 15.1121 -1.96335)
(3.21139e-14 14.7891 -1.9573)
(1.28456e-13 14.7891 -1.9573)
(6.45011e-14 14.4736 -1.95135)
(-1.29002e-13 14.4736 -1.95135)
(0 14.1655 -1.9455)
(-1.79994e-13 14.1655 -1.9455)
(8.20449e-14 13.8645 -1.93974)
(-4.95223e-14 13.8645 -1.93974)
(-4.86148e-14 13.5704 -1.93407)
(-1.30632e-13 13.5704 -1.93407)
(0 13.283 -1.92849)
(-3.10067e-13 13.283 -1.92849)
(-4.68495e-14 13.0022 -1.92298)
(0 13.0022 -1.92298)
(6.61233e-14 12.7277 -1.91755)
(1.32247e-13 12.7277 -1.91755)
(3.31955e-14 12.4593 -1.91218)
(0 12.4593 -1.91218)
(0 12.1969 -1.90689)
(1.33316e-13 12.1969 -1.90689)
(3.34619e-14 11.9404 -1.90164)
(-1.33848e-13 11.9404 -1.90164)
(4.27114e-14 11.6895 -1.89646)
(-1.7709e-13 11.6895 -1.89646)
(0 11.4441 -1.89132)
(0 11.4441 -1.89132)
(3.38589e-14 11.204 -1.88622)
(-1.76596e-13 11.204 -1.88622)
(6.79809e-14 10.9691 -1.88116)
(-1.35962e-13 10.9691 -1.88116)
(3.41217e-14 10.7393 -1.87614)
(9.6821e-14 10.7393 -1.87614)
(6.85051e-14 10.5144 -1.87114)
(9.80713e-14 10.5144 -1.87114)
(7.26084e-14 10.2942 -1.86616)
(-3.82253e-14 10.2942 -1.86616)
(4.05364e-14 10.0787 -1.86119)
(-3.75249e-14 10.0787 -1.86119)
(7.14803e-14 9.86768 -1.85624)
(-1.7541e-13 9.86768 -1.85624)
(3.47726e-14 9.66104 -1.85129)
(1.02928e-13 9.66104 -1.85129)
(6.98035e-14 9.45866 -1.84633)
(-3.54995e-14 9.45866 -1.84633)
(0 9.26041 -1.84136)
(1.40122e-13 9.26041 -1.84136)
(-3.5159e-14 9.0662 -1.83638)
(-1.74846e-13 9.0662 -1.83638)
(7.05742e-14 8.87589 -1.83138)
(-1.74732e-13 8.87589 -1.83138)
(-3.54149e-14 8.68939 -1.82634)
(-3.16287e-13 8.68939 -1.82634)
(3.55423e-14 8.50659 -1.82127)
(-2.06897e-13 8.50659 -1.82127)
(-3.17709e-14 8.32738 -1.81615)
(1.10907e-13 8.32738 -1.81615)
(9.21483e-15 8.15167 -1.81098)
(1.43185e-13 8.15167 -1.81098)
(9.7157e-14 7.97935 -1.80575)
(-1.74307e-13 7.97935 -1.80575)
(3.60486e-14 7.81032 -1.80045)
(-6.01123e-14 7.81032 -1.80045)
(2.95054e-14 7.6445 -1.79507)
(-1.74202e-13 7.6445 -1.79507)
(0 7.4818 -1.78961)
(-1.45198e-13 7.4818 -1.78961)
(0 7.32211 -1.78405)
(-1.45698e-13 7.32211 -1.78405)
(5.58258e-14 7.16536 -1.77839)
(0 7.16536 -1.77839)
(3.66733e-14 7.01146 -1.7726)
(0 7.01146 -1.7726)
(3.67971e-14 6.86033 -1.7667)
(1.47188e-13 6.86033 -1.7667)
(8.97333e-14 6.71188 -1.76065)
(-5.28127e-14 6.71188 -1.76065)
(0 6.56603 -1.75446)
(1.48174e-13 6.56603 -1.75446)
(0 6.4227 -1.7481)
(0 6.4227 -1.7481)
(0 6.28181 -1.74157)
(-1.49154e-13 6.28181 -1.74157)
(-4.90467e-14 6.1433 -1.73486)
(-4.90467e-14 6.1433 -1.73486)
(-3.75315e-14 6.00707 -1.72794)
(0 6.00707 -1.72794)
(-3.76524e-14 5.87306 -1.7208)
(-1.5061e-13 5.87306 -1.7208)
(8.62671e-15 5.7412 -1.71344)
(-1.97491e-13 5.7412 -1.71344)
(0 5.6114 -1.70582)
(0 5.6114 -1.70582)
(4.47146e-14 5.48361 -1.69793)
(-3.04098e-13 5.48361 -1.69793)
(0 5.35774 -1.68976)
(-1.52525e-13 5.35774 -1.68976)
(0 5.23373 -1.68129)
(0 5.23373 -1.68129)
(0 5.1115 -1.67249)
(-1.5347e-13 5.1115 -1.67249)
(3.04125e-15 4.99098 -1.66334)
(-4.15261e-14 4.99098 -1.66334)
(7.72031e-14 4.87211 -1.65382)
(1.13641e-13 4.87211 -1.65382)
(7.74354e-14 4.75482 -1.64391)
(0 4.75482 -1.64391)
(7.76664e-14 4.63902 -1.63357)
(-1.55333e-13 4.63902 -1.63357)
(7.7513e-14 4.52466 -1.62278)
(0 4.52466 -1.62278)
(-3.90622e-14 4.41166 -1.61151)
(0 4.41166 -1.61151)
(0 4.29995 -1.59972)
(1.56703e-13 4.29995 -1.59972)
(-3.92884e-14 4.18945 -1.58738)
(1.2067e-13 4.18945 -1.58738)
(0 4.08009 -1.57446)
(-1.93416e-13 4.08009 -1.57446)
(0 3.97179 -1.5609)
(-1.93204e-13 3.97179 -1.5609)
(-1.0865e-13 3.86447 -1.54668)
(-1.58487e-13 3.86447 -1.54668)
(7.94623e-14 3.75807 -1.53174)
(-1.58925e-13 3.75807 -1.53174)
(6.5786e-15 3.65248 -1.51603)
(3.3261e-14 3.65248 -1.51603)
(-6.5303e-14 3.54763 -1.4995)
(1.59788e-13 3.54763 -1.4995)
(0 3.44342 -1.48208)
(0 3.44342 -1.48208)
(0 3.33978 -1.46372)
(-1.60636e-13 3.33978 -1.46372)
(0 3.23659 -1.44434)
(0 3.23659 -1.44434)
(-2.02801e-14 3.13375 -1.42387)
(1.61465e-13 3.13375 -1.42387)
(4.04681e-14 3.03117 -1.40223)
(-3.23745e-13 3.03117 -1.40223)
(0 2.92873 -1.37931)
(0 2.92873 -1.37931)
(-1.67055e-14 2.8263 -1.35504)
(0 2.8263 -1.35504)
(4.07652e-14 2.72376 -1.32929)
(-1.63061e-13 2.72376 -1.32929)
(-4.08613e-14 2.62099 -1.30194)
(1.08155e-13 2.62099 -1.30194)
(2.76348e-14 2.51782 -1.27288)
(1.63823e-13 2.51782 -1.27288)
(2.88146e-14 2.41411 -1.24195)
(0 2.41411 -1.24195)
(-1.11665e-14 2.3097 -1.209)
(0 2.3097 -1.209)
(4.12278e-14 2.2044 -1.17385)
(0 2.2044 -1.17385)
(4.13144e-14 2.09803 -1.13632)
(-2.15664e-13 2.09803 -1.13632)
(4.13988e-14 1.9904 -1.0962)
(1.65595e-13 1.9904 -1.0962)
(0 1.88128 -1.05328)
(-2.14499e-13 1.88128 -1.05328)
(4.15603e-14 1.77045 -1.00729)
(-2.13927e-13 1.77045 -1.00729)
(8.84488e-14 1.65768 -0.957995)
(0 1.65768 -0.957995)
(4.59539e-14 1.54274 -0.9051)
(1.66844e-13 1.54274 -0.9051)
(0 1.42536 -0.848311)
(-3.34253e-13 1.42536 -0.848311)
(0 1.30531 -0.787317)
(-1.67396e-13 1.30531 -0.787317)
(4.19126e-14 1.18234 -0.721798)
(-1.6765e-13 1.18234 -0.721798)
(4.19725e-14 1.05624 -0.651433)
(1.25213e-13 1.05624 -0.651433)
(8.39232e-14 0.926815 -0.575904)
(-3.7812e-13 0.926815 -0.575904)
(8.41587e-14 0.793903 -0.49491)
(-1.68317e-13 0.793903 -0.49491)
(4.03736e-14 0.657406 -0.408179)
(-4.03736e-14 0.657406 -0.408179)
(-4.21669e-14 0.517287 -0.315476)
(1.29034e-13 0.517287 -0.315476)
(0 0.373584 -0.216619)
(-1.6881e-13 0.373584 -0.216619)
(-4.0376e-15 0.22642 -0.111483)
(1.30734e-13 0.22642 -0.111483)
(4.22554e-14 1.45811e-06 -5.39687e-07)
(1.69249e-13 4.64485e-07 -1.71918e-07)
(4.23124e-14 -1.41507e-06 5.23758e-07)
(1.69021e-13 -9.10954e-07 3.37169e-07)
(0 -0.22642 0.111482)
(2.99663e-13 -0.22642 0.111482)
(-4.22025e-14 -0.373583 0.216619)
(-3.89075e-14 -0.373583 0.216619)
(0 -0.517286 0.315476)
(1.68668e-13 -0.517286 0.315476)
(0 -0.657406 0.408179)
(3.37006e-13 -0.657406 0.408179)
(-4.20794e-14 -0.793903 0.49491)
(-1.68317e-13 -0.793903 0.49491)
(0 -0.926814 0.575904)
(0 -0.926814 0.575904)
(-4.19725e-14 -1.05624 0.651433)
(-1.6789e-13 -1.05624 0.651433)
(0 -1.18234 0.721798)
(0 -1.18234 0.721798)
(4.18489e-14 -1.30531 0.787317)
(4.42852e-14 -1.30531 0.787317)
(0 -1.42536 0.84831)
(1.67126e-13 -1.42536 0.84831)
(0 -1.54273 0.905099)
(1.66844e-13 -1.54273 0.905099)
(0 -1.65768 0.957994)
(0 -1.65768 0.957994)
(-4.15603e-14 -1.77045 1.00729)
(-2.13927e-13 -1.77045 1.00729)
(8.29617e-14 -1.88128 1.05328)
(0 -1.88128 1.05328)
(0 -1.9904 1.0962)
(0 -1.9904 1.0962)
(8.26289e-14 -2.09803 1.13632)
(1.65258e-13 -2.09803 1.13632)
(-4.12278e-14 -2.2044 1.17385)
(-1.64911e-13 -2.2044 1.17385)
(-8.2278e-14 -2.3097 1.209)
(0 -2.3097 1.209)