/*--------------------------------*- C++ -*----------------------------------*\
| =========                 |                                                 |
| \\      /  F ield         | OpenFOAM: The Open Source CFD Toolbox           |
|  \\    /   O peration     | Version:  2106                                  |
|   \\  /    A nd           | Website:  www.openfoam.com                      |
|    \\/     M anipulation  |                                                 |
\*---------------------------------------------------------------------------*/
FoamFile
{
    version     2.0;
    format      ascii;
    arch        "LSB;label=32;scalar=64";
    class       volTensorField;
    location    "10050";
    object      grad(U);
}
// * * * * * * * * * * * * * * * * * * * * * * * * * * * * * * * * * * * * * //

dimensions      [0 0 -1 0 0 0 0];

internalField   nonuniform List<tensor> 
2000
(
(0 -1.52087e-26 -3.08391e-28 23.8161 -9.35265e-12 -1.15632e-41 0.0440791 -8.65582e-15 -5.91561e-44)
(0 -6.50429e-30 -8.89258e-32 23.8161 -7.64601e-16 -1.3003e-17 0.0440791 -5.80389e-18 6.70435e-17)
(0 0 -5.99114e-32 23.8116 0 4.44585e-15 0.133043 -3.15544e-30 1.67625e-17)
(-2.8082e-17 -2.27346e-28 1.19568e-30 23.8116 -3.9443e-31 -8.21062e-30 0.133043 0 2.23063e-16)
(-5.4247e-18 -6.36561e-27 1.12601e-32 23.807 3.85343e-13 4.31668e-15 0.184562 -1.48e-15 4.98607e-17)
(0 1.56702e-29 -3.67271e-32 23.807 -3.95609e-16 1.07951e-18 0.184562 1.18535e-18 2.31316e-16)
(-1.77584e-17 2.53547e-30 9.71367e-33 23.8023 5.0311e-13 6.55158e-15 0.18797 -7.19826e-15 5.2696e-17)
(7.10335e-17 3.07662e-30 -2.40361e-32 23.8023 3.6991e-16 -1.36781e-17 0.18797 2.49648e-18 2.39723e-16)
(-5.31326e-17 6.04048e-30 -3.53934e-32 23.7975 3.34872e-14 6.747e-15 0.191439 -6.14404e-16 5.4884e-17)
(0 -3.02024e-30 2.35956e-32 23.7975 3.44188e-16 -1.86917e-17 0.191439 2.67813e-18 2.4831e-16)
(0 2.37191e-29 -1.04235e-31 23.7926 -1.18498e-14 6.99197e-15 0.194972 -1.05563e-16 5.86971e-17)
(-1.72454e-16 -2.37208e-29 1.04235e-31 23.7926 2.90761e-16 -2.22224e-17 0.194972 2.03774e-18 2.57079e-16)
(0 -2.62919e-28 4.54775e-32 23.7876 -1.70157e-27 7.31473e-15 0.198569 0 6.23412e-17)
(2.24572e-16 8.73436e-30 -6.82163e-32 23.7876 2.08578e-16 -2.17908e-17 0.198569 1.40685e-18 2.66026e-16)
(0 -2.85723e-30 0 23.7824 4.30684e-15 7.58862e-15 0.202232 -4.38737e-17 6.55674e-17)
(5.55307e-16 8.57763e-30 -2.23221e-32 23.7824 1.47374e-16 -1.98716e-17 0.202232 1.77291e-18 2.75173e-16)
(-8.29286e-17 3.51265e-30 -3.22406e-32 23.7771 1.74959e-15 7.81954e-15 0.20596 -2.8561e-17 6.86913e-17)
(0 5.60974e-30 0 23.7771 1.11755e-16 -2.33885e-17 0.20596 3.95444e-18 2.84507e-16)
(1.93758e-16 -1.10139e-29 2.15115e-32 23.7717 -3.36446e-16 8.03663e-15 0.209756 -7.18042e-18 7.18697e-17)
(-1.93758e-16 1.10139e-29 -2.15115e-32 23.7717 3.11631e-17 -2.88594e-17 0.209756 7.15434e-18 2.94011e-16)
(1.90208e-16 -3.24362e-29 2.74525e-31 23.7662 -7.58665e-16 8.25289e-15 0.213621 -6.32562e-18 7.51679e-17)
(0 3.24362e-29 -2.74525e-31 23.7662 -2.08543e-17 -2.76592e-17 0.213621 1.00692e-17 3.0369e-16)
(1.24989e-16 7.09799e-30 1.65715e-32 23.7604 -6.01956e-16 8.4722e-15 0.217555 -4.58093e-18 7.85945e-17)
(3.13232e-16 -5.30696e-30 0 23.7604 -4.71663e-17 -2.64184e-17 0.217555 1.09098e-17 3.13566e-16)
(0 -5.20972e-30 0 23.7544 -3.41282e-16 8.69452e-15 0.221559 -1.7007e-18 8.2148e-17)
(0 5.20972e-30 0 23.7544 -2.23636e-16 -2.8093e-17 0.221559 1.16104e-17 3.23604e-16)
(-3.34279e-16 3.4202e-29 -3.00979e-31 23.7482 -1.3703e-16 8.92005e-15 0.225634 -8.71778e-19 8.58423e-17)
(0 -2.55712e-29 2.3973e-31 23.7482 -3.29286e-16 -2.83567e-17 0.225634 1.19168e-17 3.33818e-16)
(-6.99351e-16 1.35575e-29 -2.1995e-31 23.7416 -1.12158e-16 9.14922e-15 0.229781 -1.28328e-18 8.96802e-17)
(0 -5.02053e-30 1.17669e-31 23.7416 -4.14849e-16 -3.19149e-17 0.229781 1.2774e-17 3.44199e-16)
(5.31592e-16 -7.03302e-30 2.57533e-31 23.7347 4.39564e-31 9.38111e-15 0.234 0 9.36501e-17)
(-7.39107e-16 9.85707e-30 -1.92521e-31 23.7347 -7.10652e-16 -3.77912e-17 0.234 1.33474e-17 3.54733e-16)
(3.40459e-16 -9.67644e-30 1.88993e-31 23.7273 1.08247e-16 9.61562e-15 0.238291 -1.87086e-18 9.77705e-17)
(0 9.67644e-30 -1.88993e-31 23.7273 -6.99157e-16 -3.47455e-17 0.238291 1.27053e-17 3.65401e-16)
(7.66916e-16 -4.02794e-29 3.61382e-31 23.7193 -4.13573e-17 9.85134e-15 0.242653 -1.12015e-18 1.02003e-16)
(5.3117e-16 2.84974e-29 -2.59742e-31 23.7193 -5.69806e-16 -3.55355e-17 0.242653 1.31852e-17 3.76274e-16)
(-2.3257e-16 0 -1.08214e-31 23.7105 -1.75822e-30 1.00885e-14 0.247087 9.76008e-46 1.06398e-16)
(-3.28096e-16 0 0 23.7105 -1.05571e-15 -4.22709e-17 0.247087 1.34506e-17 3.87248e-16)
(2.4909e-16 -3.51516e-30 1.10126e-31 23.7008 7.64322e-16 1.03281e-14 0.251591 -7.29678e-18 1.10936e-16)
(9.9636e-16 4.57709e-30 -1.43034e-31 23.7008 -1.40107e-15 -3.42311e-17 0.251591 1.01209e-17 3.98365e-16)
(-2.65913e-16 3.51471e-30 -1.12224e-31 23.6899 8.56423e-16 1.05676e-14 0.256163 -8.79754e-18 1.15587e-16)
(2.1273e-15 0 7.02065e-32 23.6899 -1.40119e-15 -2.81636e-17 0.256163 8.09124e-18 4.09665e-16)
(0 4.41088e-30 -2.0676e-31 23.6776 1.04088e-15 1.08071e-14 0.2608 -9.56401e-18 1.20393e-16)
(1.13218e-15 0 6.89199e-32 23.6776 -1.46769e-15 -3.20715e-17 0.2608 6.84725e-18 4.2109e-16)
(3.047e-16 -1.29901e-29 2.02971e-31 23.6635 1.28804e-15 1.10459e-14 0.2655 -1.31937e-17 1.25304e-16)
(8.97255e-16 1.29901e-29 -2.70628e-31 23.6635 -1.32011e-15 -4.13801e-17 0.2655 4.37556e-18 4.32632e-16)
(0 8.5014e-30 -1.99252e-31 23.6473 1.47503e-15 1.12824e-14 0.270257 -1.54724e-17 1.30338e-16)
(1.27301e-15 -4.2507e-30 1.32834e-31 23.6473 -1.44885e-15 -5.05631e-17 0.270257 2.51644e-18 4.44212e-16)
(-3.36337e-16 -6.60696e-31 7.84532e-33 23.6285 1.52902e-15 1.15159e-14 0.275066 -1.79663e-17 1.35463e-16)
(0 8.34562e-30 -1.956e-31 23.6285 -1.83546e-15 -5.4747e-17 0.275066 4.99611e-19 4.55881e-16)
(0 -2.04817e-29 6.40054e-31 23.6065 1.90093e-15 1.17429e-14 0.279919 -1.73131e-17 1.40636e-16)
(1.419e-15 2.04817e-29 -6.40054e-31 23.6065 -2.16752e-15 -4.44395e-17 0.279919 -2.04738e-18 4.67619e-16)
(1.9245e-16 -8.55391e-30 5.95277e-32 23.5807 2.19631e-15 1.19644e-14 0.284807 -2.74677e-17 1.45921e-16)
(0 1.20638e-29 -1.25665e-31 23.5807 -2.3408e-15 -3.43511e-17 0.284807 -6.2571e-18 4.79495e-16)
(-3.92575e-16 3.50967e-30 -7.08418e-32 23.5504 1.97827e-15 1.21752e-14 0.28972 -2.51048e-17 1.51127e-16)
(0 3.94759e-30 -1.23362e-31 23.5504 -2.19938e-15 -5.03498e-17 0.28972 -1.10774e-17 4.91394e-16)
(0 7.75051e-30 -3.63305e-31 23.5147 2.43071e-15 1.23731e-14 0.294644 -2.31343e-17 1.56382e-16)
(0 -3.87525e-30 2.42203e-31 23.5147 -2.64337e-15 -6.24961e-17 0.294644 -1.42796e-17 5.03169e-16)
(-1.50256e-15 3.77447e-29 -1.03192e-30 23.4726 3.29818e-15 1.25603e-14 0.299563 -3.73986e-17 1.61604e-16)
(-1.19163e-15 -2.66297e-29 7.13295e-31 23.4726 -3.30184e-15 -5.58293e-17 0.299563 -2.1725e-17 5.14897e-16)
(4.51865e-16 2.30327e-31 -3.05049e-32 23.4232 2.10986e-15 1.27304e-14 0.304459 -4.61692e-17 1.66703e-16)
(1.80746e-15 -3.73453e-30 1.16704e-31 23.4232 -3.01715e-15 -4.7464e-17 0.304459 -3.10695e-17 5.26568e-16)
(0 -4.7238e-29 -1.14565e-31 23.3651 1.20006e-15 1.28783e-14 0.309312 -7.8804e-18 1.71614e-16)
(-5.15957e-16 -3.66609e-30 0 23.3651 -2.79891e-15 -5.33025e-17 0.309312 -3.66559e-17 5.38159e-16)
(-4.93116e-16 1.06931e-29 -5.47425e-31 23.2972 4.43922e-15 1.30016e-14 0.314098 -9.22462e-17 1.76314e-16)
(0 -7.19783e-30 4.49864e-31 23.2972 -3.25104e-15 -5.89801e-17 0.314098 -4.34929e-17 5.49432e-16)
(-1.70391e-17 -2.87776e-32 1.1724e-31 23.2181 2.92192e-15 1.31002e-14 0.31879 -2.59213e-17 1.80794e-16)
(-4.97221e-16 7.06593e-30 -4.41621e-31 23.2181 -3.27401e-15 -6.90096e-17 0.31879 -5.36526e-17 5.60473e-16)
(0 -2.42776e-29 8.67056e-31 23.1262 3.84831e-15 1.31674e-14 0.323359 -5.39796e-17 1.84841e-16)
(2.14298e-15 2.42776e-29 -8.67056e-31 23.1262 -2.97491e-15 -7.82591e-17 0.323359 -6.09001e-17 5.71045e-16)
(-9.5833e-16 1.0214e-29 -6.38376e-31 23.02 3.9286e-15 1.31994e-14 0.327773 -5.28596e-17 1.88519e-16)
(0 -6.80934e-30 2.12792e-31 23.02 -3.06163e-15 -7.10346e-17 0.327773 -6.96766e-17 5.8119e-16)
(5.79729e-16 -1.52257e-31 1.22983e-31 22.8981 4.32243e-15 1.31978e-14 0.331997 -5.83059e-17 1.9176e-16)
(2.31892e-15 -3.34228e-30 0 22.8981 -3.16345e-15 -6.58444e-17 0.331997 -8.27627e-17 5.90734e-16)
(-1.52574e-15 -1.61955e-29 6.90344e-31 22.7588 4.77101e-15 1.31573e-14 0.335996 -6.63042e-17 1.94423e-16)
(2.40884e-15 2.29672e-29 -1.02532e-30 22.7588 -4.02882e-15 -7.31049e-17 0.335996 -9.50612e-17 5.99569e-16)
(-6.25006e-16 -1.26168e-29 1.07076e-30 22.6006 5.34709e-15 1.30703e-14 0.339734 -7.37915e-17 1.96361e-16)
(0 1.93255e-29 -1.20784e-30 22.6006 -5.22609e-15 -6.10812e-17 0.339734 -1.1235e-16 6.07521e-16)
(-1.77999e-15 2.8457e-29 -7.90472e-31 22.4221 6.00169e-15 1.29349e-14 0.343173 -8.61866e-17 1.97587e-16)
(4.3724e-15 -2.8457e-29 7.90472e-31 22.4221 -5.3376e-15 -4.2177e-17 0.343173 -1.27242e-16 6.14974e-16)
(-2.21665e-15 1.93776e-29 -4.97865e-31 22.2222 5.67731e-15 1.27523e-14 0.346276 -9.66944e-17 1.98043e-16)
(2.68594e-15 -9.31184e-30 0 22.2222 -5.08755e-15 -5.07008e-17 0.346276 -1.35582e-16 6.216e-16)
(8.57674e-16 -6.09414e-30 1.90442e-31 21.9998 4.88886e-15 1.25175e-14 0.349009 -7.92768e-17 1.97544e-16)
(-8.57674e-16 6.09414e-30 -1.90442e-31 21.9998 -4.45618e-15 -7.44741e-17 0.349009 -1.48687e-16 6.27465e-16)
(8.41957e-16 -1.19649e-29 5.60856e-31 21.7541 5.64629e-15 1.22361e-14 0.351341 -7.51878e-17 1.96362e-16)
(0 1.19649e-29 -5.60856e-31 21.7541 -4.67893e-15 -1.01182e-16 0.351341 -1.60512e-16 6.3221e-16)
(-7.43142e-16 1.22833e-29 -7.25677e-31 21.4847 7.47103e-15 1.19174e-14 0.353243 -1.06876e-16 1.94439e-16)
(-2.97257e-15 -5.87284e-30 1.83526e-31 21.4847 -5.66922e-15 -9.06639e-17 0.353243 -1.77289e-16 6.35742e-16)
(-4.39307e-17 2.29922e-30 -1.7739e-31 21.1915 8.53276e-15 1.15615e-14 0.354693 -1.3842e-16 1.91759e-16)
(3.06981e-15 -2.88261e-30 0 21.1915 -6.16539e-15 -5.24893e-17 0.354693 -1.90569e-16 6.38344e-16)
(-8.01101e-16 1.63471e-29 -1.22408e-30 20.8747 7.65317e-15 1.11621e-14 0.355674 -1.46702e-16 1.88048e-16)
(-1.57468e-15 -1.98085e-29 1.41489e-30 20.8747 -6.61198e-15 -4.64499e-17 0.355674 -2.04854e-16 6.40024e-16)
(-3.46196e-17 3.46399e-30 3.22237e-31 20.535 6.07608e-15 1.0725e-14 0.356174 -1.13424e-16 1.83692e-16)
(3.26615e-15 0 -5.20862e-31 20.535 -5.53871e-15 -4.38888e-17 0.356174 -2.32278e-16 6.40382e-16)
(-1.53518e-15 -2.18162e-29 1.02264e-30 20.1735 6.27472e-15 1.0267e-14 0.35619 -9.70505e-17 1.78809e-16)
(6.73e-15 2.72703e-29 -1.36351e-30 20.1735 -4.49516e-15 -1.95138e-17 0.35619 -2.48546e-16 6.39556e-16)
(8.66031e-16 -3.02275e-29 2.22176e-30 19.7915 6.54343e-15 9.79466e-15 0.355725 -1.24778e-16 1.73466e-16)
(3.46412e-15 2.14164e-29 -1.67316e-30 19.7915 -5.57073e-15 -4.69531e-17 0.355725 -2.66351e-16 6.37374e-16)
(-8.90844e-16 1.92239e-29 -8.78447e-31 19.3907 6.09598e-15 9.31757e-15 0.354789 -1.10464e-16 1.67901e-16)
(-5.04281e-15 -1.0512e-29 3.285e-31 19.3907 -6.32927e-15 -9.83869e-17 0.354789 -2.98934e-16 6.33319e-16)
(0 0 9.67441e-31 18.9731 6.7459e-15 8.84151e-15 0.353398 -1.12931e-16 1.62067e-16)
(0 0 -1.28992e-30 18.9731 -6.06452e-15 -7.92538e-17 0.353398 -3.28233e-16 6.27611e-16)
(-2.36614e-15 1.86394e-29 -1.81882e-30 18.541 7.51132e-15 8.37228e-15 0.351574 -1.39111e-16 1.5622e-16)
(0 -5.06514e-30 9.49713e-31 18.541 -5.87625e-15 -4.38638e-17 0.351574 -3.49842e-16 6.20722e-16)
(1.39958e-15 -4.97232e-30 6.2154e-31 18.0966 7.73533e-15 7.91221e-15 0.349343 -1.46562e-16 1.50188e-16)
(-1.39958e-15 4.97232e-30 -9.3231e-31 18.0966 -6.01135e-15 -6.68515e-17 0.349343 -3.80742e-16 6.1245e-16)
(0 1.46436e-29 -9.15225e-31 17.6425 8.17239e-15 7.46355e-15 0.346736 -1.53111e-16 1.44239e-16)
(-3.95895e-15 -1.95248e-29 1.2203e-30 17.6425 -6.31144e-15 -8.10629e-17 0.346736 -4.15092e-16 6.02482e-16)
(-3.34553e-16 6.1581e-30 -6.42068e-31 17.181 8.94225e-15 7.03753e-15 0.343786 -1.69491e-16 1.38565e-16)
(0 -4.79176e-30 2.99485e-31 17.181 -6.62767e-15 -7.26164e-17 0.343786 -4.44458e-16 5.91311e-16)
(-1.03851e-15 -1.28733e-30 3.2523e-31 16.7146 9.35446e-15 6.63705e-15 0.340529 -1.90112e-16 1.33125e-16)
(0 4.70395e-30 0 16.7146 -7.25008e-15 3.08149e-33 0.340529 -4.86013e-16 5.7852e-16)
(-8.25483e-16 -7.0333e-30 9.05283e-31 16.2457 9.78582e-15 6.26854e-15 0.337001 -1.92912e-16 1.28273e-16)
(4.25053e-15 4.61775e-30 -8.65828e-31 16.2457 -7.55355e-15 5.90152e-17 0.337001 -5.30194e-16 5.65152e-16)
(-1.08654e-15 3.39962e-30 -2.78858e-31 15.7765 1.00686e-14 5.25766e-15 0.333238 -2.15435e-16 9.47926e-17)
(0 0 0 15.7765 -7.79267e-15 2.87318e-17 0.333238 -5.68643e-16 5.50833e-16)
(-2.22042e-15 3.79373e-29 -3.85357e-45 15.3089 1.00745e-14 -2.76711e-29 0.329277 -2.12306e-16 -3.28835e-46)
(-4.44085e-15 -3.11504e-29 1.66877e-30 15.3089 -8.36756e-15 -7.44491e-17 0.329277 -6.12787e-16 5.35105e-16)
(1.13363e-15 5.35248e-30 -8.26277e-31 14.845 1.0945e-14 -8.32905e-15 0.325151 -2.23813e-16 1.8022e-16)
(-4.53453e-15 -1.74741e-29 1.36516e-30 14.845 -9.02287e-15 -1.04493e-16 0.325151 -6.64654e-16 5.17781e-16)
(0 1.28654e-29 -8.04087e-31 14.3863 1.13128e-14 -8.4344e-15 0.320894 -2.59038e-16 1.87042e-16)
(0 -4.28847e-30 6.86078e-32 14.3863 -8.15019e-15 0 0.320894 -7.23547e-16 4.9993e-16)
(-2.35931e-15 -5.90006e-30 2.8315e-31 13.9344 9.78412e-15 -8.43713e-15 0.316535 -2.48918e-16 1.91787e-16)
(8.25227e-15 8.41976e-30 -7.89353e-31 13.9344 -5.81673e-15 8.92658e-17 0.316535 -7.6494e-16 4.8238e-16)
(-1.20224e-15 1.5766e-29 -1.28025e-30 13.4905 8.396e-15 -8.42725e-15 0.312103 -1.98215e-16 1.94216e-16)
(4.80894e-15 -1.23982e-29 1.03318e-30 13.4905 -5.71003e-15 2.52592e-17 0.312103 -7.83635e-16 4.64559e-16)
(0 -4.057e-30 7.60688e-31 13.0555 8.28001e-15 -8.51274e-15 0.307624 -1.93005e-16 1.98549e-16)
(0 4.057e-30 -1.01425e-30 13.0555 -6.22983e-15 -5.80938e-17 0.307624 -8.08621e-16 4.45581e-16)
(-2.3675e-15 7.34269e-30 -4.82198e-31 12.6305 8.4186e-15 -8.51449e-15 0.30312 -2.00127e-16 2.0563e-16)
(4.98594e-15 3.98266e-30 7.00649e-46 12.6305 -5.49539e-15 4.88724e-30 0.30312 -8.38911e-16 4.26043e-16)
(-1.10048e-15 7.81936e-30 -4.8871e-31 12.2162 8.68219e-15 -8.42822e-15 0.298613 -2.07042e-16 2.06117e-16)
(0 -3.90968e-30 2.44355e-31 12.2162 -5.85493e-15 -2.39945e-17 0.298613 -8.59937e-16 4.06625e-16)
(-1.28949e-15 1.10236e-29 -6.99863e-31 11.8129 8.90622e-15 -8.34702e-15 0.294119 -2.20774e-16 2.0909e-16)
(0 -3.83804e-30 2.39877e-31 11.8129 -7.31923e-15 -3.674e-17 0.294119 -8.87621e-16 3.86563e-16)
(0 3.76771e-30 -4.70963e-31 11.4212 9.7556e-15 -8.25468e-15 0.289654 -2.26191e-16 2.09771e-16)
(0 0 1.01842e-31 11.4212 -8.64588e-15 7.9695e-30 0.289654 -9.43304e-16 3.66924e-16)
(0 -2.2192e-29 1.61817e-30 11.0412 1.20783e-14 -8.24994e-15 0.285233 -2.72916e-16 2.12204e-16)
(5.32491e-15 2.2192e-29 -4.08514e-30 11.0412 -1.07469e-14 2.71578e-17 0.285233 -1.01514e-15 3.48011e-16)
(0 2.54162e-29 -1.36158e-30 10.6732 1.34414e-14 -8.1268e-15 0.280866 -3.56786e-16 2.17427e-16)
(0 -2.54162e-29 1.36158e-30 10.6732 -1.2107e-14 2.25371e-16 0.280866 -1.0951e-15 3.31015e-16)
(-1.37171e-15 3.29729e-30 -4.15181e-31 10.3172 1.09229e-14 -7.90208e-15 0.276564 -3.56182e-16 2.13608e-16)
(5.48685e-15 3.56435e-30 -2.22772e-31 10.3172 -8.89197e-15 2.2123e-16 0.276564 -1.18261e-15 3.16133e-16)
(1.96978e-15 -2.44933e-29 8.74759e-31 9.97308 7.19128e-15 -7.77147e-15 0.272333 -2.32873e-16 2.13364e-16)
(3.59617e-15 2.44933e-29 -8.74759e-31 9.97308 -5.0997e-15 1.00666e-16 0.272333 -1.24311e-15 3.00547e-16)
(-1.41096e-15 2.73587e-29 -1.03722e-30 9.64081 5.92623e-15 -7.59304e-15 0.268181 -1.62294e-16 2.14401e-16)
(-5.64385e-15 -2.40444e-29 8.58729e-31 9.64081 -4.95131e-15 -4.48827e-17 0.268181 -1.27914e-15 2.84322e-16)
(1.89825e-15 -1.01159e-29 2.10748e-31 9.3202 6.45202e-15 -7.56209e-15 0.264112 -1.70056e-16 2.11306e-16)
(-7.6188e-15 1.01159e-29 -2.10748e-31 9.3202 -5.06296e-15 -1.50924e-16 0.264112 -1.32581e-15 2.66249e-16)
(-2.89803e-15 6.60893e-30 -1.1998e-31 9.01104 6.98967e-15 -7.49299e-15 0.260131 -1.98721e-16 2.20696e-16)
(5.79606e-15 0 3.42943e-32 9.01104 -4.93345e-15 3.34706e-47 0.260131 -1.35618e-15 2.47117e-16)
(-2.93521e-15 6.5984e-30 -3.14109e-31 8.71309 7.90728e-15 -7.23848e-15 0.256241 -2.08037e-16 2.1521e-16)
(0 0 0 8.71309 -5.81907e-15 1.25121e-16 0.256241 -1.39411e-15 2.30715e-16)
(0 -6.37996e-30 3.98747e-31 8.42606 9.25447e-15 -7.11886e-15 0.252442 -2.61102e-16 2.13787e-16)
(5.94365e-15 6.37996e-30 -3.98747e-31 8.42606 -6.80342e-15 5.40644e-17 0.252442 -1.44071e-15 2.12943e-16)
(-3.26683e-15 3.14568e-29 -1.3171e-30 8.14965 9.30721e-15 -6.95589e-15 0.248738 -2.97971e-16 2.1603e-16)
(-6.01577e-15 -2.50522e-29 9.78601e-31 8.14965 -7.22733e-15 3.17935e-17 0.248738 -1.51513e-15 1.94388e-16)
(1.5217e-15 -9.41831e-30 7.12672e-31 7.88355 8.73468e-15 -6.7904e-15 0.245128 -2.74215e-16 2.11727e-16)
(0 6.14828e-30 -5.76401e-31 7.88355 -6.34029e-15 2.51612e-17 0.245128 -1.59121e-15 1.76851e-16)
(1.5392e-15 -1.53339e-29 6.94577e-31 7.62742 7.32971e-15 -6.75424e-15 0.241613 -2.72996e-16 2.13706e-16)
(-6.1568e-15 1.20712e-29 -5.65839e-31 7.62742 -5.36635e-15 -3.5723e-17 0.241613 -1.62765e-15 1.59871e-16)
(-3.11288e-15 1.54244e-29 -5.19583e-31 7.38093 6.08831e-15 -6.68247e-15 0.238191 -1.94048e-16 2.17376e-16)
(-1.66774e-15 -2.96251e-30 1.95506e-32 7.38093 -4.01663e-15 -3.08149e-33 0.238191 -1.68413e-15 1.40877e-16)
(0 5.81644e-30 -3.63527e-31 7.14375 7.56713e-15 -6.49887e-15 0.234863 -2.01826e-16 2.17049e-16)
(0 -1.45411e-29 6.36173e-31 7.14375 -4.39251e-15 -3.13057e-17 0.234863 -1.71445e-15 1.21977e-16)
(1.59018e-15 -3.24166e-30 1.79565e-32 6.91552 9.2484e-15 -6.3997e-15 0.231627 -3.00206e-16 2.13295e-16)
(-1.27214e-14 0 8.92165e-32 6.91552 -6.67829e-15 -1.6653e-16 0.231627 -1.77012e-15 1.01583e-16)
(1.60669e-15 -1.1637e-29 3.61846e-31 6.69593 8.54324e-15 -6.36075e-15 0.228482 -3.23908e-16 2.18476e-16)
(0 8.40784e-30 1.10439e-32 6.69593 -5.2618e-15 6.40949e-31 0.228482 -1.86062e-15 7.95795e-17)
(1.54882e-15 -1.65075e-29 5.1586e-31 6.48463 7.32216e-15 -6.16609e-15 0.225426 -2.62609e-16 2.18631e-16)
(4.94304e-15 1.65075e-29 -5.1586e-31 6.48463 -3.34582e-15 1.29022e-16 0.225426 -1.90186e-15 5.88614e-17)
(1.63902e-15 -8.62655e-30 1.6978e-31 6.2813 6.92281e-15 -5.85102e-15 0.222457 -2.49838e-16 2.12954e-16)
(6.55607e-15 5.40168e-30 -1.68802e-31 6.2813 -4.1995e-15 9.92198e-17 0.222457 -1.92575e-15 3.7788e-17)
(1.16802e-15 -1.47785e-29 5.03367e-31 6.08563 6.51085e-15 -5.74436e-15 0.219574 -2.43762e-16 2.04192e-16)
(-2.98515e-15 2.12108e-29 -4.97128e-31 6.08563 -4.94629e-15 -1.25707e-16 0.219574 -1.99404e-15 1.50084e-17)
(-1.87573e-15 -9.19701e-30 1.82662e-31 5.8973 7.85229e-15 -5.75044e-15 0.216774 -2.29048e-16 2.13159e-16)
(6.68191e-15 2.08221e-29 -4.37906e-47 5.8973 -4.61382e-15 -8.62817e-32 0.216774 -2.05107e-15 1.54074e-33)
(3.12427e-15 -1.85123e-29 4.63538e-31 5.71602 9.72962e-15 -5.63046e-15 0.214056 -3.53135e-16 2.1234e-16)
(1.20488e-14 1.53304e-29 -3.99229e-31 5.71602 -5.25979e-15 1.18817e-16 0.214056 -2.08768e-15 -3.32907e-17)
(-1.70112e-15 3.16728e-30 6.03691e-32 5.54149 8.90374e-15 -5.60884e-15 0.211417 -3.80507e-16 2.12064e-16)
(0 5.01649e-30 -1.56765e-31 5.54149 -6.00759e-15 8.0651e-17 0.211417 -2.17538e-15 -5.4747e-17)
(-3.43228e-15 6.3435e-30 -9.75737e-32 5.37344 7.30307e-15 -5.52262e-15 0.208855 -3.02435e-16 2.18667e-16)
(6.86457e-15 0 0 5.37344 -4.59657e-15 8.39625e-17 0.208855 -2.24252e-15 -7.70493e-17)
(-1.73098e-15 8.00502e-30 -4.19773e-32 5.2116 7.9371e-15 -5.23613e-15 0.206368 -2.68477e-16 2.13247e-16)
(6.92392e-15 0 -7.55363e-32 5.2116 -4.90517e-15 2.09012e-16 0.206368 -2.27639e-15 -9.85279e-17)
(-2.67161e-15 1.42372e-29 -1.48304e-31 5.0557 9.31913e-15 -4.79179e-15 0.203954 -3.6482e-16 3.88688e-16)
(0 -4.74574e-30 7.41522e-32 5.0557 -5.8e-15 9.00296e-17 0.203954 -2.36916e-15 -1.19589e-16)
(1.76011e-15 -3.13212e-30 5.4595e-32 4.9055 7.72638e-15 -4.7502e-15 0.20161 -3.91813e-16 4.20601e-16)
(7.04045e-15 0 -5.4595e-32 4.9055 -4.03454e-15 -5.57575e-17 0.20161 -2.46075e-15 -1.45567e-16)
(4.34901e-15 -1.22942e-29 5.35946e-32 4.76076 5.74044e-15 -5.00228e-15 0.199335 -2.45651e-16 3.71056e-16)
(4.52307e-15 9.14681e-30 -5.35946e-32 4.76076 -2.98448e-15 3.62015e-17 0.199335 -2.47578e-15 -1.69858e-16)
(-1.78856e-15 3.14421e-30 0 4.62125 6.01585e-15 -4.95708e-15 0.197126 -2.37754e-16 3.20661e-16)
(7.15422e-15 0 -8.76874e-33 4.62125 -4.3143e-15 1.23246e-16 0.197126 -2.49317e-15 -1.94166e-16)
(1.80253e-15 -7.53855e-30 -8.60806e-33 4.48674 6.78978e-15 -4.86742e-15 0.194981 -2.78756e-16 2.72363e-16)
(0 4.40733e-30 8.60806e-33 4.48674 -4.73912e-15 1.41974e-16 0.194981 -2.58016e-15 -2.17648e-16)
(-4.25199e-15 1.60974e-29 4.22516e-32 4.35704 8.6541e-15 -4.72125e-15 0.192899 -3.14984e-16 2.23187e-16)
(7.2654e-15 -1.29797e-29 -2.5351e-32 4.35704 -4.38366e-15 1.4976e-30 0.192899 -2.6326e-15 -2.404e-16)
(4.22102e-15 -7.33143e-30 -6.63638e-32 4.23193 9.2654e-15 -4.69414e-15 0.190876 -4.56786e-16 1.75111e-16)
(-2.39101e-15 4.24728e-30 6.63638e-32 4.23193 -5.96973e-15 -6.07152e-18 0.190876 -2.68742e-15 -2.64365e-16)
(-4.19072e-15 1.559e-29 9.77215e-32 4.11123 7.9264e-15 -4.78929e-15 0.188913 -3.82809e-16 1.23459e-16)
(7.37413e-15 -8.3389e-30 -6.51477e-32 4.11123 -6.57459e-15 2.36171e-16 0.188913 -2.80413e-15 -2.85373e-16)
(-4.47275e-16 5.10938e-30 9.59308e-32 3.99475 8.28148e-15 -4.59907e-15 0.187005 -3.49143e-16 7.03588e-17)
(7.42762e-15 -4.09305e-30 -3.19769e-32 3.99475 -4.35351e-15 3.84063e-16 0.187005 -2.86602e-15 -2.98075e-16)
(0 4.01804e-30 1.25564e-31 3.88231 9.29866e-15 -4.49008e-15 0.185152 -4.30962e-16 2.09308e-17)
(7.48056e-15 0 -4.30168e-32 3.88231 -4.04766e-15 0 0.185152 -2.88369e-15 -3.09969e-16)
(-2.22051e-15 7.88883e-30 1.23263e-31 3.77376 9.91384e-15 -4.70184e-15 0.183352 -4.60721e-16 -3.43667e-17)
(-7.53295e-15 -3.94441e-30 -6.16315e-32 3.77376 -5.61255e-15 -2.3601e-16 0.183352 -2.96647e-15 -3.27749e-16)
(-2.17982e-15 1.54885e-29 3.0251e-31 3.66892 9.30772e-15 -4.77445e-15 0.181603 -5.07836e-16 -9.60509e-17)
(9.76462e-15 -1.54885e-29 -3.0251e-31 3.66892 -4.78839e-15 -1.20655e-17 0.181603 -3.04751e-15 -3.40311e-16)
(-1.90904e-15 -1.60004e-29 -4.75147e-31 3.56765 8.1107e-15 -4.68728e-15 0.179903 -4.17224e-16 -1.52643e-16)
(0 2.28071e-29 5.93934e-31 3.56765 -3.64549e-15 2.32446e-16 0.179903 -3.1072e-15 -3.49587e-16)
(-1.92175e-15 2.99589e-30 0 3.46981 8.3719e-15 -4.47883e-15 0.178252 -4.04543e-16 -2.0643e-16)
(7.68701e-15 3.73152e-30 1.1661e-31 3.46981 -3.63504e-15 1.47385e-16 0.178252 -3.18875e-15 -3.58162e-16)
(0 -7.32629e-30 -2.28946e-31 3.37524 8.17467e-15 -4.46243e-15 0.176646 -4.6016e-16 -2.45177e-16)
(0 7.32629e-30 -5.11528e-32 3.37524 -4.47962e-15 -1.94586e-30 0.176646 -3.22658e-15 -3.68595e-16)
(0 7.19204e-30 3.37127e-31 3.28382 7.78561e-15 -4.66388e-15 0.175085 -3.98854e-16 -2.54478e-16)
(-4.04876e-15 -3.59602e-30 -2.24751e-31 3.28382 -4.86657e-15 -2.15817e-16 0.175085 -3.29209e-15 -3.8327e-16)
(3.94646e-15 -2.06112e-29 -7.8758e-31 3.19542 9.51362e-15 -4.76672e-15 0.173567 -4.35437e-16 -2.65742e-16)
(5.84942e-15 1.41205e-29 7.72214e-31 3.19542 -4.48958e-15 4.26347e-17 0.173567 -3.37176e-15 -3.96829e-16)
(-1.93031e-15 7.4746e-30 1.90157e-31 3.10993 1.10911e-14 -4.60611e-15 0.172091 -6.04193e-16 -2.46049e-16)
(5.93483e-15 -3.46543e-30 0 3.10993 -4.7898e-15 1.74791e-16 0.172091 -3.44782e-15 -4.07441e-16)
(0 0 1.0631e-31 3.02722 9.97257e-15 -4.2729e-15 0.170655 -6.28825e-16 -2.37675e-16)
(7.93426e-15 6.80386e-30 0 3.02722 -5.03505e-15 2.62637e-16 0.170655 -3.50546e-15 -4.16156e-16)
(-3.9912e-15 5.81309e-30 -1.02444e-32 2.94719 8.47084e-15 -3.94565e-15 0.169259 -4.99128e-16 -2.17224e-16)
(7.9824e-15 0 1.04362e-31 2.94719 -4.51986e-15 4.021e-16 0.169259 -3.53401e-15 -4.21618e-16)
(1.61962e-16 -1.60043e-29 -7.74932e-31 2.86973 8.42671e-15 -3.54594e-15 0.1679 -4.77695e-16 -1.99231e-16)
(9.87571e-15 1.31136e-29 -5.86216e-32 2.86973 -5.01822e-15 -4.30639e-46 0.1679 -3.59012e-15 -4.22413e-16)
(0 1.60916e-29 8.0458e-31 2.79474 7.22133e-15 -3.56654e-15 0.166578 -5.12703e-16 -2.27898e-16)
(-8.07747e-15 -1.60916e-29 -1.67014e-30 2.79474 -5.51761e-15 -1.63715e-16 0.166578 -3.70214e-15 -4.3076e-16)
(0 0 3.94918e-31 2.72213 4.9929e-15 -3.89174e-15 0.165291 -3.50081e-16 -2.46757e-16)
(0 0 -3.94918e-31 2.72213 -3.13909e-15 -2.11848e-16 0.165291 -3.79951e-15 -4.42437e-16)
(-4.0855e-15 1.81745e-29 1.12123e-30 2.65179 4.80377e-15 -3.98013e-15 0.164038 -2.57798e-16 -2.47564e-16)
(0 -1.24058e-29 -9.69203e-31 2.65179 -1.34685e-15 -2.39546e-17 0.164038 -3.83353e-15 -4.50605e-16)
(-5.48223e-15 5.90345e-30 6.54558e-31 2.58366 6.19752e-15 -3.99475e-15 0.162819 -3.39564e-16 -2.57922e-16)
(0 0 -4.37906e-47 2.58366 -2.55248e-15 -2.00303e-30 0.162819 -3.82778e-15 -4.56504e-16)
(-5.04768e-15 2.09218e-29 1.30761e-30 2.51763 8.2559e-15 -3.93687e-15 0.161631 -4.45487e-16 -2.49364e-16)
(-6.58049e-15 -1.49441e-29 -1.12081e-30 2.51763 -5.47158e-15 -2.48423e-16 0.161631 -3.90287e-15 -4.65058e-16)
(7.45773e-15 -2.64773e-30 1.63235e-31 2.45364 9.99701e-15 -3.97088e-15 0.160475 -6.2011e-16 -2.72148e-16)
(-3.30345e-15 -2.93406e-30 -3.66757e-31 2.45364 -7.33428e-15 1.15855e-16 0.160475 -4.07174e-15 -4.71837e-16)
(9.33941e-16 6.01222e-30 4.81594e-31 2.39161 9.63103e-15 -3.71529e-15 0.159348 -6.92981e-16 -2.24261e-16)
(8.35372e-15 -1.15212e-29 -7.20073e-31 2.39161 -6.64117e-15 7.38785e-16 0.159348 -4.24901e-15 -4.66052e-16)
(-2.09964e-15 2.74521e-30 3.09311e-31 2.33146 7.87753e-15 -3.02988e-15 0.158251 -5.94077e-16 -1.8816e-16)
(8.39856e-15 2.82751e-30 1.76719e-31 2.33146 -6.1096e-15 1.57088e-16 0.158251 -4.3917e-15 -4.49989e-16)
(4.22154e-15 -2.7215e-30 -9.0572e-32 2.27312 6.07181e-15 -3.06066e-15 0.157182 -4.7799e-16 -2.37022e-16)
(0 0 -1.00581e-45 2.27312 -4.89884e-15 -1.81191e-30 0.157182 -4.48401e-15 -4.51224e-16)
(2.12182e-15 -5.48058e-30 -3.05857e-31 2.21652 2.89185e-15 -3.61387e-15 0.156139 -3.63542e-16 -2.74183e-16)
(8.48728e-15 2.72483e-30 1.70302e-31 2.21652 -2.44431e-15 -2.59267e-16 0.156139 -4.53772e-15 -4.47718e-16)
(-2.1328e-15 8.14969e-30 8.06482e-31 2.16161 1.10717e-15 -4.20695e-15 0.155124 -4.22828e-17 -3.32154e-16)
(-3.01167e-15 -5.3498e-30 -3.34363e-31 2.16161 -7.24185e-16 -3.36468e-16 0.155124 -4.57567e-15 -4.38903e-16)
(0 -5.25177e-30 -6.56471e-31 2.10833 2.87072e-15 -4.63541e-15 0.154133 -1.17849e-16 -3.47952e-16)
(1.71496e-14 7.87765e-30 9.84707e-31 2.10833 -4.80588e-16 -1.53761e-16 0.154133 -4.57551e-15 -4.26015e-16)
(-2.15453e-15 -1.0134e-29 -1.11999e-30 2.0566 4.57396e-15 -4.24037e-15 0.153168 -3.04982e-16 -2.8509e-16)
(0 1.28888e-29 1.6111e-30 2.0566 -9.77832e-16 6.37736e-17 0.153168 -4.65315e-15 -4.01187e-16)
(0 -1.51832e-29 -5.42017e-30 2.00638 4.21554e-15 8.74436e-31 0.152226 -3.79174e-16 -1.97215e-31)
(1.73223e-14 1.51832e-29 0 2.00638 -9.31994e-16 2.11189e-45 0.152226 -4.75464e-15 -3.78498e-16)
(-2.17597e-15 1.26838e-29 1.44995e-30 1.95761 3.66886e-15 7.78849e-16 0.151307 -2.61408e-16 -6.20705e-17)
(0 -9.93663e-30 -1.24208e-30 1.95761 -2.7643e-15 -4.70967e-16 0.151307 -4.75762e-15 -3.63092e-16)
(2.74566e-15 -4.87727e-30 -6.09659e-31 1.91025 4.39402e-15 4.98206e-16 0.150411 -3.07904e-16 -5.86639e-17)
(8.74639e-15 4.87727e-30 9.14489e-31 1.91025 -3.53666e-15 -2.50277e-16 0.150411 -4.80877e-15 -3.49698e-16)
(2.19716e-15 -1.70753e-29 -1.70837e-30 1.86424 3.89575e-15 1.06075e-16 0.149536 -3.86867e-16 -1.96677e-17)
(1.75773e-14 1.43637e-29 1.49622e-30 1.86424 -2.95589e-15 2.12032e-16 0.149536 -4.85603e-15 -3.10133e-16)
(-2.20765e-15 7.42641e-30 5.07951e-31 1.81953 4.50127e-15 -1.51898e-16 0.148683 -2.38588e-16 -2.22683e-17)
(8.8306e-15 0 -3.52354e-32 1.81953 -3.45494e-15 -8.59735e-31 0.148683 -4.96314e-15 -2.53898e-16)
(-3.79387e-16 1.94154e-30 9.36899e-31 1.77608 6.84643e-15 -2.10541e-16 0.147849 -5.01618e-16 -1.27966e-17)
(6.27486e-15 0 -5.76754e-31 1.77608 -3.29402e-15 -3.46791e-16 0.147849 -5.07574e-15 -2.13237e-16)
(-4.45691e-15 9.80179e-30 1.28187e-30 1.73385 6.96495e-15 -1.76289e-16 0.147036 -6.42787e-16 -1.72276e-17)
(6.36395e-15 0 -2.83093e-31 1.73385 -3.31451e-15 -1.96686e-17 0.147036 -5.14536e-15 -1.85554e-16)
(-2.50315e-15 -4.44648e-30 -5.5581e-31 1.6928 6.37278e-15 -2.11611e-16 0.146241 -5.40865e-16 -1.94556e-17)
(1.79101e-14 8.89296e-30 1.11162e-30 1.6928 -2.45996e-15 4.43601e-16 0.146241 -5.23481e-15 -1.40948e-16)
(0 8.73e-30 0 1.65288 5.54618e-15 3.85186e-34 0.145465 -5.63455e-16 -1.12897e-46)
(6.53882e-15 -4.365e-30 -1.27061e-32 1.65288 -2.40792e-15 -1.2326e-32 0.145465 -5.27742e-15 -9.15571e-17)
(-2.25922e-15 6.93321e-30 1.02099e-30 1.61405 4.48753e-15 4.26313e-16 0.144707 -4.13999e-16 -1.95395e-17)
(0 0 -2.67813e-31 1.61405 -3.43142e-15 -4.14379e-16 0.144707 -5.3313e-15 -6.93718e-17)
(4.63741e-15 5.76492e-30 5.76397e-31 1.57629 4.8076e-15 9.15021e-16 0.143966 -3.92584e-16 -5.74549e-17)
(-2.36804e-15 -8.41298e-30 -1.05162e-30 1.57629 -2.4874e-15 -2.72965e-16 0.143966 -5.41841e-15 -5.43902e-17)
(0 4.12941e-30 1.03235e-30 1.53954 5.99672e-15 1.27384e-15 0.143241 -4.88763e-16 -1.10612e-16)
(0 -4.12941e-30 -5.16176e-31 1.53954 -2.04156e-15 -1.55152e-16 0.143241 -5.50633e-15 -4.23537e-17)
(-2.28949e-15 1.474e-29 1.71612e-30 1.50379 6.70149e-15 1.22137e-15 0.142533 -6.31287e-16 -1.27185e-16)
(0 -1.21612e-29 -1.52015e-30 1.50379 -4.32823e-15 -6.63246e-16 0.142533 -5.63212e-15 -4.98594e-17)
(-2.29948e-15 6.54023e-30 1.19211e-30 1.469 6.18719e-15 1.11144e-15 0.14184 -6.42365e-16 -1.04716e-16)
(-9.19792e-15 0 -4.97432e-31 1.469 -4.86262e-15 -6.02097e-16 0.14184 -5.86521e-15 -6.80527e-17)
(-2.30942e-15 -5.25309e-30 -5.379e-31 1.43513 6.06929e-15 8.32474e-16 0.141163 -5.54585e-16 -1.10497e-16)
(1.84753e-14 7.81307e-30 9.76634e-31 1.43513 -3.21957e-15 2.52395e-16 0.141163 -5.97979e-15 -8.20594e-17)
(0 -1.15048e-29 -1.43811e-30 1.40216 5.91617e-15 2.91358e-16 0.1405 -6.43103e-16 -5.31371e-17)
(9.27722e-15 1.15048e-29 2.99606e-30 1.40216 -4.06983e-15 3.6651e-16 0.1405 -6.0447e-15 -6.78209e-17)
(-2.32914e-15 6.28462e-30 1.15206e-30 1.37005 4.90704e-15 1.26101e-17 0.139851 -5.44437e-16 -4.94575e-18)
(7.19725e-15 0 -8.27631e-33 1.37005 -4.60402e-15 -5.13265e-46 0.139851 -6.21918e-15 -5.96371e-17)
(0 3.69569e-30 1.75162e-46 1.33878 4.60179e-15 8.23374e-30 0.139215 -4.58909e-16 -3.9443e-31)
(7.27525e-15 0 -2.3098e-31 1.33878 -3.86122e-15 -1.47873e-16 0.139215 -6.34721e-15 -5.47418e-17)