/*--------------------------------*- C++ -*----------------------------------*\
| =========                 |                                                 |
| \\      /  F ield         | OpenFOAM: The Open Source CFD Toolbox           |
|  \\    /   O peration     | Version:  2106                                  |
|   \\  /    A nd           | Website:  www.openfoam.com                      |
|    \\/     M anipulation  |                                                 |
\*---------------------------------------------------------------------------*/
FoamFile
{
    version     2.0;
    format      ascii;
    arch        "LSB;label=32;scalar=64";
    class       volVectorField;
    location    "10050";
    object      U;
}
// * * * * * * * * * * * * * * * * * * * * * * * * * * * * * * * * * * * * * //

dimensions      [0 1 -1 0 0 0 0];

internalField   nonuniform List<vector> 
2000
(
(0.00220395 -8.65417e-16 -8.77839e-18)
(0.00220395 -5.36045e-19 2.22053e-22)
(0.00665217 -2.764e-15 5.86869e-18)
(0.00665217 2.60411e-19 -5.08386e-21)
(0.0111826 -2.727e-15 6.28775e-18)
(0.0111826 3.67315e-20 -2.68949e-21)
(0.0157966 -2.54705e-15 7.53426e-18)
(0.0157966 1.11225e-19 -4.71008e-21)
(0.0204959 -2.53169e-15 8.85166e-18)
(0.0204959 1.81417e-19 -8.05319e-21)
(0.0252818 -2.53386e-15 1.02238e-17)
(0.0252818 2.4837e-19 -1.21667e-20)
(0.0301562 -2.5365e-15 1.16912e-17)
(0.0301562 2.99313e-19 -1.70826e-20)
(0.0351204 -2.53541e-15 1.32497e-17)
(0.0351204 3.34485e-19 -2.1171e-20)
(0.0401762 -2.53469e-15 1.48889e-17)
(0.0401762 3.61323e-19 -2.5456e-20)
(0.0453252 -2.53466e-15 1.66062e-17)
(0.0453252 3.82391e-19 -3.12218e-20)
(0.0505691 -2.53484e-15 1.84029e-17)
(0.0505691 3.7468e-19 -3.80823e-20)
(0.0559096 -2.535e-15 2.02821e-17)
(0.0559096 3.73161e-19 -4.35259e-20)
(0.0613485 -2.53511e-15 2.2247e-17)
(0.0613485 3.53112e-19 -5.00768e-20)
(0.0668875 -2.53516e-15 2.43007e-17)
(0.0668875 2.69229e-19 -5.65066e-20)
(0.0725283 -2.53518e-15 2.64467e-17)
(0.0725283 1.98228e-19 -6.34296e-20)
(0.0782729 -2.53521e-15 2.86887e-17)
(0.0782729 6.97718e-20 -7.18238e-20)
(0.0841229 -2.53516e-15 3.103e-17)
(0.0841229 -1.49742e-19 -8.19048e-20)
(0.0900801 -2.53516e-15 3.34743e-17)
(0.0900801 -2.77266e-19 -8.90858e-20)
(0.0961465 -2.53519e-15 3.60243e-17)
(0.0961465 -4.38875e-19 -9.99508e-20)
(0.102324 -2.535e-15 3.86843e-17)
(0.102324 -8.24432e-19 -1.10912e-19)
(0.108613 -2.53478e-15 4.14577e-17)
(0.108613 -1.17548e-18 -1.17919e-19)
(0.115017 -2.53454e-15 4.43474e-17)
(0.115017 -1.57563e-18 -1.26012e-19)
(0.121537 -2.53421e-15 4.73572e-17)
(0.121537 -1.97653e-18 -1.35435e-19)
(0.128175 -2.53383e-15 5.04898e-17)
(0.128175 -2.30895e-18 -1.49058e-19)
(0.134931 -2.53338e-15 5.37482e-17)
(0.134931 -2.79855e-18 -1.64085e-19)
(0.141808 -2.53294e-15 5.71348e-17)
(0.141808 -3.36862e-18 -1.80657e-19)
(0.148806 -2.53226e-15 6.06507e-17)
(0.148806 -4.07365e-18 -1.90137e-19)
(0.155926 -2.53163e-15 6.42987e-17)
(0.155926 -4.7699e-18 -2.01237e-19)
(0.163169 -2.53105e-15 6.80769e-17)
(0.163169 -5.41445e-18 -2.20921e-19)
(0.170535 -2.53012e-15 7.19864e-17)
(0.170535 -6.41533e-18 -2.40056e-19)
(0.178024 -2.52896e-15 7.60265e-17)
(0.178024 -7.50475e-18 -2.56224e-19)
(0.185636 -2.52877e-15 8.01941e-17)
(0.185636 -8.35811e-18 -2.70637e-19)
(0.193369 -2.52646e-15 8.44844e-17)
(0.193369 -9.34393e-18 -2.91284e-19)
(0.201221 -2.52581e-15 8.88923e-17)
(0.201221 -1.05347e-17 -3.10073e-19)
(0.209191 -2.52446e-15 9.34121e-17)
(0.209191 -1.15735e-17 -3.38396e-19)
(0.217275 -2.52314e-15 9.80332e-17)
(0.217275 -1.25996e-17 -3.64374e-19)
(0.225469 -2.52168e-15 1.02746e-16)
(0.225469 -1.37394e-17 -3.88608e-19)
(0.233769 -2.52003e-15 1.0754e-16)
(0.233769 -1.48782e-17 -4.11791e-19)
(0.242169 -2.51818e-15 1.12401e-16)
(0.242169 -1.67018e-17 -4.42316e-19)
(0.250662 -2.51603e-15 1.1731e-16)
(0.250662 -1.87867e-17 -4.57301e-19)
(0.259242 -2.51361e-15 1.22249e-16)
(0.259242 -2.07648e-17 -4.74448e-19)
(0.267899 -2.51163e-15 1.272e-16)
(0.267899 -2.27325e-17 -4.96672e-19)
(0.276624 -2.50975e-15 1.32139e-16)
(0.276624 -2.42816e-17 -5.33423e-19)
(0.285407 -2.50708e-15 1.37048e-16)
(0.285407 -2.65045e-17 -5.78179e-19)
(0.294238 -2.50361e-15 1.41909e-16)
(0.294238 -2.89314e-17 -6.07612e-19)
(0.303106 -2.49995e-15 1.46703e-16)
(0.303106 -3.16563e-17 -6.21875e-19)
(0.311998 -2.49711e-15 1.51404e-16)
(0.311998 -3.45581e-17 -6.47231e-19)
(0.320902 -2.49469e-15 1.55997e-16)
(0.320902 -3.64468e-17 -6.59792e-19)
(0.329807 -2.49157e-15 1.60467e-16)
(0.329807 -3.85282e-17 -6.64384e-19)
(0.3387 -2.4888e-15 1.64803e-16)
(0.3387 -4.14644e-17 -7.02324e-19)
(0.34757 -2.48598e-15 1.69001e-16)
(0.34757 -4.43255e-17 -7.54646e-19)
(0.356404 -2.4825e-15 1.73053e-16)
(0.356404 -4.7123e-17 -7.75994e-19)
(0.365194 -2.47884e-15 1.76958e-16)
(0.365194 -4.99113e-17 -7.96332e-19)
(0.373927 -2.47501e-15 1.80713e-16)
(0.373927 -5.29462e-17 -8.40953e-19)
(0.382596 -2.47077e-15 1.84319e-16)
(0.382596 -5.61384e-17 -8.76206e-19)
(0.39119 -2.46602e-15 1.87783e-16)
(0.39119 -5.96083e-17 -9.13942e-19)
(0.399704 -2.4612e-15 1.91111e-16)
(0.399704 -6.35638e-17 -8.94026e-19)
(0.408129 -2.45581e-15 1.94318e-16)
(0.408129 -6.74839e-17 -8.52205e-19)
(0.41646 -2.45051e-15 1.96688e-16)
(0.41646 -7.18448e-17 -8.64005e-19)
(0.424692 -2.44491e-15 1.92182e-16)
(0.424692 -7.65405e-17 -9.33288e-19)
(0.43282 -2.43843e-15 1.87506e-16)
(0.43282 -8.17947e-17 -9.78955e-19)
(0.440843 -2.43221e-15 1.82712e-16)
(0.440843 -8.56783e-17 -9.38735e-19)
(0.448756 -2.42726e-15 1.77856e-16)
(0.448756 -8.84368e-17 -8.76659e-19)
(0.456559 -2.42243e-15 1.72892e-16)
(0.456559 -9.23414e-17 -9.10191e-19)
(0.464249 -2.41743e-15 1.67752e-16)
(0.464249 -9.58265e-17 -9.45622e-19)
(0.471827 -2.41225e-15 1.62599e-16)
(0.471827 -9.89819e-17 -9.44638e-19)
(0.479293 -2.40673e-15 1.57371e-16)
(0.479293 -1.03045e-16 -9.75466e-19)
(0.486646 -2.40108e-15 1.52127e-16)
(0.486646 -1.08174e-16 -9.90583e-19)
(0.493887 -2.39425e-15 1.46822e-16)
(0.493887 -1.14101e-16 -9.81745e-19)
(0.501018 -2.38533e-15 1.41386e-16)
(0.501018 -1.22184e-16 -8.79052e-19)
(0.508039 -2.37643e-15 1.36046e-16)
(0.508039 -1.30155e-16 -6.82014e-19)
(0.514953 -2.37061e-15 1.30712e-16)
(0.514953 -1.34159e-16 -5.81097e-19)
(0.521762 -2.36655e-15 1.25352e-16)
(0.521762 -1.37163e-16 -5.44085e-19)
(0.528466 -2.3623e-15 1.20069e-16)
(0.528466 -1.41108e-16 -6.45289e-19)
(0.535069 -2.35733e-15 1.14552e-16)
(0.535069 -1.44387e-16 -7.59712e-19)
(0.541572 -2.35213e-15 1.09172e-16)
(0.541572 -1.48289e-16 -6.30844e-19)
(0.547978 -2.3456e-15 1.03827e-16)
(0.547978 -1.53016e-16 -5.74995e-19)
(0.554289 -2.33815e-15 9.84264e-17)
(0.554289 -1.58566e-16 -5.49523e-19)
(0.560508 -2.3313e-15 9.31332e-17)
(0.560508 -1.64129e-16 -5.26131e-19)
(0.566636 -2.32447e-15 8.77906e-17)
(0.566636 -1.68485e-16 -5.10183e-19)
(0.572676 -2.31962e-15 8.23562e-17)
(0.572676 -1.72689e-16 -5.83956e-19)
(0.578631 -2.31458e-15 7.69299e-17)
(0.578631 -1.74995e-16 -5.42557e-19)
(0.584503 -2.30707e-15 7.15976e-17)
(0.584503 -1.79986e-16 -6.37042e-19)
(0.590293 -2.29897e-15 6.61357e-17)
(0.590293 -1.8627e-16 -8.24266e-19)
(0.596006 -2.29241e-15 6.06699e-17)
(0.596006 -1.88993e-16 -7.65768e-19)
(0.601641 -2.28616e-15 5.5346e-17)
(0.601641 -1.9213e-16 -5.97456e-19)
(0.607203 -2.28007e-15 5.02412e-17)
(0.607203 -1.96491e-16 -5.90378e-19)
(0.612692 -2.27434e-15 4.49123e-17)
(0.612692 -2.01114e-16 -8.28001e-19)
(0.618111 -2.26551e-15 3.96037e-17)
(0.618111 -2.05019e-16 -7.21393e-19)
(0.623463 -2.256e-15 3.43022e-17)
(0.623463 -2.11046e-16 -6.04e-19)
(0.628748 -2.24844e-15 2.88355e-17)
(0.628748 -2.16546e-16 -5.67322e-19)
(0.63397 -2.24173e-15 2.35043e-17)
(0.63397 -2.20015e-16 -4.38969e-19)
(0.639129 -2.23261e-15 1.84076e-17)
(0.639129 -2.26344e-16 -1.49494e-19)
(0.644228 -2.22281e-15 1.37856e-17)
(0.644228 -2.31776e-16 -2.59988e-19)
(0.649268 -2.21667e-15 8.58366e-18)
(0.649268 -2.34659e-16 -2.63757e-19)
(0.654251 -2.21073e-15 3.25172e-18)
(0.654251 -2.38065e-16 -1.82981e-19)
(0.659179 -2.20376e-15 -2.04839e-18)
(0.659179 -2.43936e-16 1.55016e-21)
(0.664054 -2.19588e-15 -7.38351e-18)
(0.664054 -2.48406e-16 1.26671e-19)
(0.668876 -2.18446e-15 -1.2555e-17)
(0.668876 -2.537e-16 6.71471e-20)
(0.673648 -2.17489e-15 -1.80291e-17)
(0.673648 -2.61969e-16 1.13888e-19)
(0.678371 -2.16617e-15 -2.36173e-17)
(0.678371 -2.68872e-16 6.1682e-19)
(0.683046 -2.15539e-15 -2.88459e-17)
(0.683046 -2.72178e-16 1.01651e-18)
(0.687675 -2.14387e-15 -3.4381e-17)
(0.687675 -2.78602e-16 6.48827e-19)
(0.692259 -2.13118e-15 -4.03286e-17)
(0.692259 -2.85888e-16 4.41819e-19)
(0.696799 -2.12075e-15 -4.62545e-17)
(0.696799 -2.90485e-16 6.22405e-19)
(0.701296 -2.11063e-15 -5.22032e-17)
(0.701296 -2.95124e-16 1.03281e-18)
(0.705753 -2.09913e-15 -5.78094e-17)
(0.705753 -2.99867e-16 1.12789e-18)
(0.710169 -2.08916e-15 -6.39389e-17)
(0.710169 -3.06921e-16 6.78037e-19)
(0.714546 -2.07827e-15 -7.03008e-17)
(0.714546 -3.12889e-16 5.52968e-19)
(0.718885 -2.06317e-15 -7.69444e-17)
(0.718885 -3.19171e-16 7.97758e-19)
(0.723187 -2.04745e-15 -8.30956e-17)
(0.723187 -3.26205e-16 1.03864e-18)
(0.727454 -2.03497e-15 -8.90375e-17)
(0.727454 -3.33425e-16 1.54363e-18)
(0.731685 -2.02303e-15 -9.44681e-17)
(0.731685 -3.39225e-16 2.19948e-18)
(0.735883 -2.01021e-15 -9.94488e-17)
(0.735883 -3.48194e-16 2.07701e-18)
(0.740047 -2.00146e-15 -1.05146e-16)
(0.740047 -3.55721e-16 1.56643e-18)
(0.74418 -1.99501e-15 -1.11315e-16)
(0.74418 -3.57711e-16 1.43481e-18)
(0.74828 -1.98652e-15 -1.17504e-16)
(0.74828 -3.59905e-16 1.49382e-18)
(0.752351 -1.97539e-15 -1.23952e-16)
(0.752351 -3.65818e-16 1.07805e-18)
(0.756392 -1.95988e-15 -1.30186e-16)
(0.756392 -3.77588e-16 6.93723e-19)
(0.760404 -1.94256e-15 -1.3699e-16)
(0.760404 -3.89895e-16 1.46901e-18)
(0.764387 -1.92771e-15 -1.42597e-16)
(0.764387 -3.99769e-16 3.17228e-18)
(0.768344 -1.91576e-15 -1.47301e-16)
(0.768344 -4.10712e-16 3.30603e-18)
(0.772273 -1.90667e-15 -1.53226e-16)
(0.772273 -4.16719e-16 2.90106e-18)
(0.776177 -1.90561e-15 -1.60081e-16)
(0.776177 -4.19319e-16 2.38878e-18)
(0.780055 -1.90266e-15 -1.68385e-16)
(0.780055 -4.19301e-16 1.68803e-18)
(0.783908 -1.89504e-15 -1.77083e-16)
(0.783908 -4.21098e-16 1.83272e-18)
(0.787737 -1.88556e-15 -1.84211e-16)
(0.787737 -4.22955e-16 1.92579e-18)
(0.791543 -1.87903e-15 -1.82659e-16)
(0.791543 -4.24643e-16 1.32899e-18)
(0.795326 -1.87133e-15 -1.81192e-16)
(0.795326 -4.33739e-16 9.42199e-20)
(0.799086 -1.86166e-15 -1.80701e-16)
(0.799086 -4.38569e-16 3.54524e-19)
(0.802824 -1.85569e-15 -1.80771e-16)
(0.802824 -4.4565e-16 9.50218e-19)
(0.806541 -1.84315e-15 -1.81328e-16)
(0.806541 -4.52726e-16 4.10705e-19)
(0.810238 -1.82708e-15 -1.81647e-16)
(0.810238 -4.59395e-16 -5.00752e-19)
(0.813913 -1.81356e-15 -1.82078e-16)
(0.813913 -4.66826e-16 3.43308e-19)
(0.817569 -1.79947e-15 -1.82565e-16)
(0.817569 -4.70011e-16 1.42282e-18)
(0.821206 -1.78912e-15 -1.82076e-16)
(0.821206 -4.7749e-16 6.18714e-19)
(0.824824 -1.77931e-15 -1.8064e-16)
(0.824824 -4.85438e-16 -4.42008e-19)
(0.828423 -1.76709e-15 -1.77874e-16)
(0.828423 -4.88837e-16 -6.22912e-19)
(0.832004 -1.75131e-15 -1.74695e-16)
(0.832004 -4.94985e-16 -1.68412e-18)
(0.835567 -1.73525e-15 -1.72077e-16)
(0.835567 -5.09477e-16 -3.78359e-18)
(0.839113 -1.72138e-15 -1.69314e-16)
(0.839113 -5.18468e-16 -4.58608e-18)
(0.842642 -1.70531e-15 -1.67986e-16)
(0.842642 -5.2533e-16 -2.51269e-18)
(0.846155 -1.6917e-15 -1.67862e-16)
(0.846155 -5.3897e-16 -2.05253e-18)
(0.849651 -1.68022e-15 -1.67923e-16)
(0.849651 -5.48848e-16 -2.8386e-18)
(0.853131 -1.6677e-15 -1.67652e-16)
(0.853131 -5.59095e-16 -2.81566e-18)
(0.856596 -1.65745e-15 -1.67426e-16)
(0.856596 -5.66738e-16 -1.59265e-18)
(0.860046 -1.64687e-15 -1.65921e-16)
(0.860046 -5.76273e-16 -1.72981e-18)
(0.863481 -1.63522e-15 -1.64129e-16)
(0.863481 -5.89602e-16 -2.04117e-18)
(0.866901 -1.62219e-15 -1.61875e-16)
(0.866901 -6.01496e-16 -2.61635e-18)
(0.870306 -1.60291e-15 -1.60037e-16)
(0.870306 -6.17457e-16 -2.35101e-18)
(0.873698 -1.58359e-15 -1.58921e-16)
(0.873698 -6.30324e-16 -3.89359e-18)
(0.877076 -1.56748e-15 -1.57948e-16)
(0.877076 -6.3839e-16 -4.97998e-18)
(0.88044 -1.55167e-15 -1.57964e-16)
(0.88044 -6.52257e-16 -4.82513e-18)
(0.883791 -1.53501e-15 -1.56904e-16)
(0.883791 -6.6613e-16 -3.80784e-18)
(0.887129 -1.52088e-15 -1.56819e-16)
(0.887129 -6.73296e-16 4.75245e-19)
(0.890453 -1.5049e-15 -1.54997e-16)
(0.890453 -6.89535e-16 -3.8382e-19)
(0.893766 -1.48391e-15 -1.53815e-16)
(0.893766 -6.95862e-16 -2.26921e-18)
(0.897066 -1.47011e-15 -1.51004e-16)
(0.897066 -7.04296e-16 -8.01954e-18)
(0.900353 -1.45798e-15 -1.48668e-16)
(0.900353 -7.19245e-16 -1.40461e-17)
(0.903629 -1.44282e-15 -1.56514e-16)
(0.903629 -7.20808e-16 -1.80094e-17)
(0.906892 -1.43069e-15 -1.5713e-16)
(0.906892 -7.34331e-16 -2.23034e-17)
(0.910144 -1.41502e-15 -1.54299e-16)
(0.910144 -7.42508e-16 -2.65302e-17)
(0.913385 -1.4001e-15 -1.50189e-16)
(0.913385 -7.50944e-16 -2.88551e-17)
(0.916614 -1.37787e-15 -1.44996e-16)
(0.916614 -7.56099e-16 -2.95726e-17)
(0.919831 -1.35706e-15 -1.40094e-16)
(0.919831 -7.55439e-16 -3.24806e-17)
(0.923038 -1.34734e-15 -1.34729e-16)
(0.923038 -7.68473e-16 -3.61139e-17)
(0.926233 -1.3302e-15 -1.2962e-16)
(0.926233 -7.73721e-16 -3.99598e-17)
(0.929418 -1.3092e-15 -1.25189e-16)
(0.929418 -7.67984e-16 -4.22403e-17)
(0.932591 -1.29455e-15 -1.23717e-16)
(0.932591 -7.69724e-16 -4.29727e-17)
(0.935754 -1.28092e-15 -1.19891e-16)
(0.935754 -7.74236e-16 -4.92285e-17)
(0.938907 -1.26048e-15 -1.17717e-16)
(0.938907 -7.84704e-16 -5.54001e-17)
(0.942048 -1.23346e-15 -1.16616e-16)
(0.942048 -7.94967e-16 -5.78951e-17)
(0.945179 -1.22282e-15 -1.18371e-16)
(0.945179 -7.94061e-16 -6.02645e-17)
(0.9483 -1.21301e-15 -1.17899e-16)
(0.9483 -7.91865e-16 -6.41228e-17)
(0.95141 -1.199e-15 -1.18455e-16)
(0.95141 -7.89049e-16 -6.88885e-17)
(0.95451 -1.1835e-15 -1.14777e-16)
(0.95451 -7.92568e-16 -7.64049e-17)
(0.9576 -1.16228e-15 -1.15985e-16)
(0.9576 -8.01405e-16 -8.07168e-17)
(0.960679 -1.15263e-15 -1.15593e-16)
(0.960679 -7.96311e-16 -8.26345e-17)
(0.963748 -1.14909e-15 -1.1416e-16)
(0.963748 -7.95141e-16 -8.0603e-17)
(0.966807 -1.12633e-15 -1.10122e-16)
(0.966807 -7.85076e-16 -8.2722e-17)
(0.969855 -1.09334e-15 -1.06538e-16)
(0.969855 -7.8984e-16 -8.60614e-17)
(0.972893 -1.07155e-15 -1.05548e-16)
(0.972893 -8.12645e-16 -9.23058e-17)
(0.97592 -1.04152e-15 -1.07172e-16)
(0.97592 -8.26193e-16 -9.35761e-17)
(0.978937 -1.03761e-15 -1.10712e-16)
(0.978937 -8.36378e-16 -9.24784e-17)
(0.981943 -1.02827e-15 -1.10254e-16)
(0.981943 -8.31456e-16 -1.02775e-16)
(0.984938 -1.02334e-15 -1.06814e-16)
(0.984938 -8.40243e-16 -1.14381e-16)
(0.987923 -1.01264e-15 -1.10316e-16)
(0.987923 -8.45986e-16 -1.13573e-16)
(0.990897 -1.00559e-15 -1.1071e-16)
(0.990897 -8.59709e-16 -1.17917e-16)
(0.99386 -1.00531e-15 -1.07765e-16)
(0.99386 -8.73303e-16 -1.2229e-16)
(0.996812 -9.8444e-16 -1.02631e-16)
(0.996812 -8.77379e-16 -1.27097e-16)
(0.999753 -9.58066e-16 -1.01793e-16)
(0.999753 -9.0496e-16 -1.26948e-16)
(1.00268 -9.43735e-16 -1.00009e-16)
(1.00268 -9.09595e-16 -1.22753e-16)
(1.0056 -9.30414e-16 -9.50476e-17)
(1.0056 -8.97751e-16 -1.16949e-16)
(1.00851 -9.28434e-16 -8.72042e-17)
(1.00851 -9.05899e-16 -1.17299e-16)
(1.0114 -9.21936e-16 -8.91661e-17)
(1.0114 -9.21259e-16 -1.11775e-16)
(1.01428 -9.12519e-16 -8.82842e-17)
(1.01428 -9.12348e-16 -1.15643e-16)
(1.01715 -9.09296e-16 -8.96506e-17)
(1.01715 -9.095e-16 -1.12389e-16)
(1.02001 -8.96218e-16 -9.61382e-17)
(1.02001 -9.21769e-16 -1.03838e-16)
(1.02285 -8.82484e-16 -9.89626e-17)
(1.02285 -9.06572e-16 -1.00087e-16)
(1.02568 -8.93658e-16 -1.02194e-16)
(1.02568 -9.01589e-16 -9.4701e-17)
(1.0285 -8.7831e-16 -1.09052e-16)
(1.0285 -8.84487e-16 -8.3803e-17)
(1.0313 -8.58169e-16 -1.1104e-16)
(1.0313 -8.59994e-16 -7.11301e-17)
(1.03409 -8.77126e-16 -9.59509e-17)
(1.03409 -8.37792e-16 -7.75945e-17)
(1.03686 -8.63528e-16 -8.58234e-17)
(1.03686 -8.34243e-16 -9.54595e-17)
(1.03962 -8.32178e-16 -8.47318e-17)
(1.03962 -8.10333e-16 -1.04007e-16)
(1.04236 -8.1615e-16 -8.6321e-17)
(1.04236 -7.87916e-16 -1.05861e-16)
(1.04508 -7.94798e-16 -8.72612e-17)
(1.04508 -8.0927e-16 -1.20459e-16)
(1.04779 -7.75183e-16 -1.04613e-16)
(1.04779 -7.96113e-16 -1.44394e-16)
(1.05048 -7.66941e-16 -1.13688e-16)
(1.05048 -7.57458e-16 -1.43259e-16)
(1.05315 -7.45278e-16 -1.25971e-16)
(1.05315 -7.37739e-16 -1.50338e-16)
(1.05581 -7.18845e-16 -1.3817e-16)
(1.05581 -7.18567e-16 -1.51592e-16)
(1.05844 -7.03171e-16 -1.53515e-16)
(1.05844 -7.09016e-16 -1.54201e-16)
(1.06106 -6.77936e-16 -1.72645e-16)
(1.06106 -7.15186e-16 -1.47206e-16)
(1.06365 -7.01277e-16 -1.7522e-16)
(1.06365 -6.85236e-16 -1.48535e-16)
(1.06622 -7.09672e-16 -1.75919e-16)
(1.06622 -7.00505e-16 -1.53821e-16)
(1.06877 -6.87853e-16 -1.69462e-16)
(1.06877 -7.03891e-16 -1.5394e-16)
(1.0713 -7.10845e-16 -1.68649e-16)
(1.0713 -6.74496e-16 -1.388e-16)
(1.0738 -6.88395e-16 -1.68107e-16)
(1.0738 -6.9197e-16 -1.21269e-16)
(1.07627 -6.87405e-16 -1.73204e-16)
(1.07627 -6.92163e-16 -1.20203e-16)
(1.07872 -7.01674e-16 -1.74549e-16)
(1.07872 -6.82538e-16 -1.13936e-16)
(1.08114 -7.17519e-16 -1.39217e-16)
(1.08114 -6.98912e-16 -1.14163e-16)
(1.08352 -6.78692e-16 -1.3529e-16)
(1.08352 -7.02643e-16 -1.09467e-16)
(1.08588 -6.81546e-16 -1.35431e-16)
(1.08588 -6.76594e-16 -1.03069e-16)
(1.08821 -6.90723e-16 -1.42885e-16)
(1.08821 -6.53861e-16 -1.19577e-16)
(1.0905 -6.75463e-16 -1.37983e-16)
(1.0905 -6.45682e-16 -1.0651e-16)
(1.09275 -6.57458e-16 -1.16509e-16)
(1.09275 -6.70216e-16 -1.15627e-16)
(1.09497 -6.44986e-16 -1.1599e-16)
(1.09497 -6.53063e-16 -9.62331e-17)
(1.09714 -6.22973e-16 -1.14491e-16)
(1.09714 -6.09275e-16 -1.15113e-16)
(1.09928 -6.13068e-16 -1.64161e-16)
(1.09928 -6.37867e-16 -1.011e-16)
(1.10136 -6.2529e-16 -1.54022e-16)
(1.10136 -6.57175e-16 -1.29158e-16)
(1.1034 -5.8811e-16 -1.53679e-16)
(1.1034 -5.99106e-16 -1.429e-16)
(1.10539 -5.97162e-16 -1.46049e-16)
(1.10539 -6.14498e-16 -1.4551e-16)
(1.10733 -5.84663e-16 -1.21472e-16)
(1.10733 -6.12565e-16 -1.31402e-16)
(1.1092 -5.74564e-16 -1.21982e-16)
(1.1092 -6.08852e-16 -1.23333e-16)
(1.11102 -5.65009e-16 -9.23277e-17)
(1.11102 -6.44922e-16 -1.02429e-16)
(1.11277 -5.84634e-16 -1.04361e-16)
(1.11277 -6.65569e-16 -8.37054e-17)
(1.11445 -5.48788e-16 -1.0989e-16)
(1.11445 -6.63118e-16 -4.1673e-17)
(1.11606 -5.31916e-16 -1.29782e-16)
(1.11606 -5.96864e-16 3.27063e-17)
(1.11759 -5.51114e-16 -1.42922e-16)
(1.11759 -5.27955e-16 5.97583e-17)
(1.11903 -5.28889e-16 -1.52882e-16)
(1.11903 -5.0757e-16 5.65923e-17)
(1.12039 -5.78433e-16 -1.47442e-16)
(1.12039 -4.83065e-16 3.38046e-17)
(1.12164 -5.91537e-16 -1.43741e-16)
(1.12164 -4.75023e-16 3.6471e-17)
(1.12279 -6.01618e-16 -7.14006e-17)
(1.12279 -4.67938e-16 -5.38047e-19)
(1.12383 -5.26533e-16 -4.95858e-17)
(1.12383 -4.446e-16 -3.84116e-17)
(1.12474 -4.50717e-16 -2.57095e-17)
(1.12474 -4.62954e-16 -5.17377e-17)
(1.12553 -4.06997e-16 -3.95593e-17)
(1.12553 -4.66061e-16 3.02032e-18)
(1.12618 -3.90394e-16 -4.02947e-17)
(1.12618 -4.24384e-16 -3.84718e-17)
(1.12668 -3.7449e-16 -2.05564e-17)
(1.12668 -3.86393e-16 -5.3654e-17)
(1.12703 -3.38574e-16 2.22329e-17)
(1.12703 -3.9238e-16 -9.84335e-18)
(1.1272 -3.47701e-16 -3.52876e-17)
(1.1272 -3.51138e-16 -3.94199e-18)
(0.00220395 -1.64829e-19 2.08167e-18)
(0.00220395 -4.43433e-20 6.70413e-18)
(0.00665217 1.91175e-19 -5.79517e-19)
(0.00665217 8.8851e-20 2.23114e-17)
(0.0111826 1.33423e-19 -5.93901e-19)
(0.0111826 8.18035e-20 2.31343e-17)
(0.0157966 2.25378e-19 -6.04194e-19)
(0.0157966 1.38423e-19 2.3977e-17)
(0.0204959 3.19588e-19 -6.10038e-19)
(0.0204959 2.0125e-19 2.4839e-17)
(0.0252818 4.2703e-19 -6.10755e-19)
(0.0252818 2.59177e-19 2.57201e-17)
(0.0301562 5.20136e-19 -6.05855e-19)
(0.0301562 3.22419e-19 2.66197e-17)
(0.0351204 6.06285e-19 -5.95045e-19)
(0.0351204 3.78807e-19 2.75384e-17)
(0.0401762 7.05289e-19 -5.77987e-19)
(0.0401762 4.60184e-19 2.84761e-17)
(0.0453252 7.98694e-19 -5.53421e-19)
(0.0453252 5.61249e-19 2.94324e-17)
(0.0505691 9.11919e-19 -5.21898e-19)
(0.0505691 6.32237e-19 3.0407e-17)
(0.0559096 1.04117e-18 -4.8162e-19)
(0.0559096 7.17815e-19 3.14002e-17)
(0.0613485 1.11862e-18 -4.32114e-19)
(0.0613485 8.07923e-19 3.24105e-17)
(0.0668875 1.15039e-18 -3.72611e-19)
(0.0668875 9.22454e-19 3.34383e-17)
(0.0725283 1.20625e-18 -3.03492e-19)
(0.0725283 1.07917e-18 3.44833e-17)
(0.0782729 1.29911e-18 -2.22913e-19)
(0.0782729 1.26496e-18 3.55452e-17)
(0.0841229 1.3623e-18 -1.28641e-19)
(0.0841229 1.42027e-18 3.6622e-17)
(0.0900801 1.34069e-18 -2.29515e-20)
(0.0900801 1.59579e-18 3.77164e-17)
(0.0961465 1.3232e-18 9.62922e-20)
(0.0961465 1.78394e-18 3.88248e-17)
(0.102324 1.33514e-18 2.29767e-19)
(0.102324 1.83652e-18 3.99474e-17)
(0.108613 1.28692e-18 3.77976e-19)
(0.108613 1.9846e-18 4.10844e-17)
(0.115017 1.22855e-18 5.40297e-19)
(0.115017 2.26035e-18 4.22351e-17)
(0.121537 1.14201e-18 7.18554e-19)
(0.121537 2.41409e-18 4.33987e-17)
(0.128175 1.00293e-18 9.14972e-19)
(0.128175 2.56059e-18 4.45702e-17)
(0.134931 8.36649e-19 1.12659e-18)
(0.134931 2.84851e-18 4.57522e-17)
(0.141808 5.85196e-19 1.3544e-18)
(0.141808 3.16388e-18 4.69425e-17)
(0.148806 3.40162e-19 1.59831e-18)
(0.148806 3.44794e-18 4.81397e-17)
(0.155926 1.39597e-19 1.86081e-18)
(0.155926 3.66216e-18 4.93406e-17)
(0.163169 -1.20827e-19 2.14032e-18)
(0.163169 3.98649e-18 5.05378e-17)
(0.170535 -3.86976e-19 2.43907e-18)
(0.170535 4.24283e-18 5.17298e-17)
(0.178024 -6.96857e-19 2.75678e-18)
(0.178024 4.39779e-18 5.29131e-17)
(0.185636 -1.02017e-18 3.09143e-18)
(0.185636 4.69252e-18 5.40865e-17)
(0.193369 -1.39465e-18 3.44686e-18)
(0.193369 4.99465e-18 5.52344e-17)
(0.201221 -1.81361e-18 3.81756e-18)
(0.201221 5.16946e-18 5.63573e-17)
(0.209191 -2.22398e-18 4.20902e-18)
(0.209191 5.48347e-18 5.74429e-17)
(0.217275 -2.49857e-18 4.6164e-18)
(0.217275 5.63192e-18 5.84834e-17)
(0.225469 -2.22754e-18 5.04834e-18)
(0.225469 5.46311e-18 5.9462e-17)
(0.233769 -1.94643e-18 5.51552e-18)
(0.233769 5.37205e-18 6.03687e-17)
(0.242169 -2.36811e-18 6.01361e-18)
(0.242169 5.46685e-18 6.11945e-17)
(0.250662 -3.14635e-18 6.51843e-18)
(0.250662 6.06251e-18 6.19547e-17)
(0.259242 -4.33381e-18 7.03479e-18)
(0.259242 7.20664e-18 6.26344e-17)
(0.267899 -5.68614e-18 7.54093e-18)
(0.267899 7.86384e-18 6.32432e-17)
(0.276624 -6.3875e-18 8.04777e-18)
(0.276624 8.23048e-18 6.37544e-17)
(0.285407 -6.93966e-18 8.56779e-18)
(0.285407 8.77556e-18 6.41524e-17)
(0.294238 -7.744e-18 9.08615e-18)
(0.294238 9.87449e-18 6.4442e-17)
(0.303106 -8.94258e-18 9.59963e-18)
(0.303106 1.11709e-17 6.46242e-17)
(0.311998 -1.03003e-17 1.00896e-17)
(0.311998 1.13304e-17 6.46854e-17)
(0.320902 -1.11671e-17 1.0573e-17)
(0.320902 1.15922e-17 6.46154e-17)
(0.329807 -1.19268e-17 1.106e-17)
(0.329807 1.18931e-17 6.44018e-17)
(0.3387 -1.24614e-17 1.1556e-17)
(0.3387 1.1571e-17 6.40343e-17)
(0.34757 -1.27541e-17 1.20713e-17)
(0.34757 1.15022e-17 6.35157e-17)
(0.356404 -1.3101e-17 1.26004e-17)
(0.356404 1.21388e-17 6.28482e-17)
(0.365194 -1.36279e-17 1.31531e-17)
(0.365194 1.18371e-17 6.20413e-17)
(0.373927 -1.41585e-17 1.3715e-17)
(0.373927 1.1437e-17 6.10891e-17)
(0.382596 -1.44471e-17 1.42831e-17)
(0.382596 1.16926e-17 6.00073e-17)
(0.39119 -1.49194e-17 1.48708e-17)
(0.39119 1.1007e-17 5.87659e-17)
(0.399704 -1.52387e-17 1.54659e-17)
(0.399704 1.05445e-17 5.74092e-17)
(0.408129 -1.54146e-17 1.61e-17)
(0.408129 1.06197e-17 5.59355e-17)
(0.41646 -1.59517e-17 1.67384e-17)
(0.41646 1.05661e-17 5.43745e-17)
(0.424692 -1.62998e-17 1.74063e-17)
(0.424692 1.00751e-17 5.27113e-17)
(0.43282 -1.64803e-17 1.81099e-17)
(0.43282 9.43994e-18 5.09719e-17)
(0.440843 -1.72671e-17 1.8846e-17)
(0.440843 9.18429e-18 4.91767e-17)
(0.448756 -1.93122e-17 1.9593e-17)
(0.448756 1.00733e-17 4.73326e-17)
(0.456559 -2.18211e-17 2.02588e-17)
(0.456559 1.14793e-17 4.54683e-17)
(0.464249 -2.37431e-17 2.09088e-17)
(0.464249 1.19354e-17 4.35499e-17)
(0.471827 -2.56797e-17 2.15428e-17)
(0.471827 1.29883e-17 4.16072e-17)
(0.479293 -2.74662e-17 2.2142e-17)
(0.479293 1.42832e-17 3.96318e-17)
(0.486646 -2.92114e-17 2.26676e-17)
(0.486646 1.38434e-17 3.7683e-17)
(0.493887 -3.10278e-17 2.31432e-17)
(0.493887 1.25873e-17 3.57828e-17)
(0.501018 -3.31397e-17 2.35601e-17)
(0.501018 1.26737e-17 3.39806e-17)
(0.508039 -3.51398e-17 2.39598e-17)
(0.508039 1.18944e-17 3.22953e-17)
(0.514953 -3.64181e-17 2.43491e-17)
(0.514953 9.84794e-18 3.06358e-17)
(0.521762 -3.78433e-17 2.4705e-17)
(0.521762 9.24979e-18 2.89763e-17)
(0.528466 -4.08931e-17 2.50493e-17)
(0.528466 8.52622e-18 2.72702e-17)
(0.535069 -4.36574e-17 2.52837e-17)
(0.535069 8.76863e-18 2.54714e-17)
(0.541572 -4.59967e-17 2.5519e-17)
(0.541572 8.87856e-18 2.37024e-17)
(0.547978 -4.81e-17 2.57185e-17)
(0.547978 8.94491e-18 2.18693e-17)
(0.554289 -5.0147e-17 2.60585e-17)
(0.554289 7.05277e-18 1.99883e-17)
(0.560508 -5.24269e-17 2.62328e-17)
(0.560508 5.00763e-18 1.82112e-17)
(0.566636 -5.38389e-17 2.63455e-17)
(0.566636 5.71958e-18 1.64973e-17)
(0.572676 -5.49595e-17 2.65163e-17)
(0.572676 4.27569e-18 1.46716e-17)
(0.578631 -5.64799e-17 2.67828e-17)
(0.578631 3.55052e-18 1.27402e-17)
(0.584503 -5.88148e-17 2.69582e-17)
(0.584503 2.97411e-18 1.07953e-17)
(0.590293 -6.0245e-17 2.71215e-17)
(0.590293 2.08461e-19 8.78222e-18)
(0.596006 -6.13963e-17 2.72814e-17)
(0.596006 -1.19328e-18 6.65191e-18)
(0.601641 -6.259e-17 2.7471e-17)
(0.601641 -4.45355e-19 4.37626e-18)
(0.607203 -6.17874e-17 2.7633e-17)
(0.607203 -2.91302e-18 2.09122e-18)
(0.612692 -6.14546e-17 2.78109e-17)
(0.612692 -3.99219e-18 -2.87838e-19)
(0.618111 -6.26071e-17 2.79698e-17)
(0.618111 -3.74898e-18 -2.60768e-18)
(0.623463 -6.43131e-17 2.81247e-17)
(0.623463 -6.49251e-18 -4.8707e-18)
(0.628748 -6.7291e-17 2.81858e-17)
(0.628748 -7.70518e-18 -7.1376e-18)
(0.63397 -6.98458e-17 2.80683e-17)
(0.63397 -7.62352e-18 -9.41382e-18)
(0.639129 -7.17103e-17 2.81248e-17)
(0.639129 -1.05719e-17 -1.18094e-17)
(0.644228 -7.32993e-17 2.82745e-17)
(0.644228 -1.42993e-17 -1.42967e-17)
(0.649268 -7.58197e-17 2.85219e-17)
(0.649268 -1.29181e-17 -1.6722e-17)
(0.654251 -7.86911e-17 2.88144e-17)
(0.654251 -1.12526e-17 -1.92336e-17)
(0.659179 -8.0398e-17 2.92847e-17)
(0.659179 -1.40803e-17 -2.17664e-17)
(0.664054 -8.2176e-17 2.97022e-17)
(0.664054 -1.48533e-17 -2.41667e-17)
(0.668876 -8.35771e-17 3.0066e-17)
(0.668876 -1.50417e-17 -2.65036e-17)
(0.673648 -8.3928e-17 3.0375e-17)
(0.673648 -1.84441e-17 -2.86512e-17)
(0.678371 -8.57571e-17 3.06531e-17)
(0.678371 -1.77298e-17 -3.04243e-17)
(0.683046 -8.86077e-17 3.0939e-17)
(0.683046 -1.61912e-17 -3.20134e-17)
(0.687675 -9.00913e-17 3.09444e-17)
(0.687675 -1.80452e-17 -3.34237e-17)
(0.692259 -8.86425e-17 3.07235e-17)
(0.692259 -1.88633e-17 -3.44729e-17)
(0.696799 -8.66668e-17 3.09902e-17)
(0.696799 -2.02349e-17 -3.55811e-17)
(0.701296 -8.8589e-17 3.15603e-17)
(0.701296 -2.37518e-17 -3.6849e-17)
(0.705753 -9.2353e-17 3.19964e-17)
(0.705753 -2.27911e-17 -3.79873e-17)
(0.710169 -9.57137e-17 3.22361e-17)
(0.710169 -2.22885e-17 -3.9005e-17)
(0.714546 -9.8623e-17 3.26544e-17)
(0.714546 -2.42869e-17 -4.02358e-17)
(0.718885 -1.02563e-16 3.32926e-17)
(0.718885 -2.56112e-17 -4.15418e-17)
(0.723187 -1.07054e-16 3.33699e-17)
(0.723187 -2.43408e-17 -4.26543e-17)
(0.727454 -1.09331e-16 3.34056e-17)
(0.727454 -1.99758e-17 -4.37055e-17)
(0.731685 -1.07738e-16 3.29075e-17)
(0.731685 -1.97866e-17 -4.44408e-17)
(0.735883 -1.06863e-16 3.26251e-17)
(0.735883 -2.20201e-17 -4.5153e-17)
(0.740047 -1.09567e-16 3.23727e-17)
(0.740047 -2.42296e-17 -4.58101e-17)
(0.74418 -1.09163e-16 3.17836e-17)
(0.74418 -2.56417e-17 -4.64953e-17)
(0.74828 -1.07442e-16 3.14053e-17)
(0.74828 -2.28729e-17 -4.71442e-17)
(0.752351 -1.0971e-16 3.06575e-17)
(0.752351 -2.44681e-17 -4.75838e-17)
(0.756392 -1.13179e-16 2.96453e-17)
(0.756392 -2.95857e-17 -4.78775e-17)
(0.760404 -1.11545e-16 2.86429e-17)
(0.760404 -3.50066e-17 -4.80742e-17)
(0.764387 -1.09837e-16 2.82384e-17)
(0.764387 -3.94013e-17 -4.81711e-17)
(0.768344 -1.12615e-16 2.84633e-17)
(0.768344 -3.76894e-17 -4.84284e-17)
(0.772273 -1.1541e-16 2.81307e-17)
(0.772273 -3.7054e-17 -4.76728e-17)
(0.776177 -1.16153e-16 2.76013e-17)
(0.776177 -3.82479e-17 -4.62791e-17)
(0.780055 -1.17032e-16 2.71014e-17)
(0.780055 -3.82499e-17 -4.42895e-17)
(0.783908 -1.20492e-16 2.6874e-17)
(0.783908 -4.42173e-17 -4.19514e-17)
(0.787737 -1.23918e-16 2.66863e-17)
(0.787737 -5.25088e-17 -3.97756e-17)
(0.791543 -1.26686e-16 2.66662e-17)
(0.791543 -5.11193e-17 -3.76382e-17)
(0.795326 -1.28277e-16 2.65242e-17)
(0.795326 -4.71377e-17 -3.5064e-17)
(0.799086 -1.30941e-16 2.5862e-17)
(0.799086 -4.70342e-17 -3.13679e-17)
(0.802824 -1.32633e-16 2.42031e-17)
(0.802824 -5.06644e-17 -2.634e-17)
(0.806541 -1.32744e-16 2.39643e-17)
(0.806541 -5.48478e-17 -2.17344e-17)
(0.810238 -1.36747e-16 2.40654e-17)
(0.810238 -5.51404e-17 -1.80547e-17)
(0.813913 -1.42271e-16 2.40069e-17)
(0.813913 -5.66545e-17 -1.44382e-17)
(0.817569 -1.49014e-16 2.38246e-17)
(0.817569 -5.77313e-17 -1.05785e-17)
(0.821206 -1.60506e-16 2.3361e-17)
(0.821206 -5.56401e-17 -7.55589e-18)
(0.824824 -1.68081e-16 2.19012e-17)
(0.824824 -5.64029e-17 -4.99702e-18)
(0.828423 -1.68847e-16 2.10441e-17)
(0.828423 -6.17968e-17 -3.61245e-18)
(0.832004 -1.7001e-16 2.07648e-17)
(0.832004 -6.8227e-17 -3.30182e-18)
(0.835567 -1.74223e-16 1.94713e-17)
(0.835567 -7.70443e-17 -3.02168e-18)
(0.839113 -1.78733e-16 1.80582e-17)
(0.839113 -7.95111e-17 -3.61986e-18)
(0.842642 -1.79764e-16 1.705e-17)
(0.842642 -7.91402e-17 -4.2694e-18)
(0.846155 -1.78564e-16 1.54033e-17)
(0.846155 -8.29483e-17 -3.91118e-18)
(0.849651 -1.7605e-16 1.33977e-17)
(0.849651 -8.58722e-17 -2.63558e-18)
(0.853131 -1.74985e-16 1.1615e-17)
(0.853131 -9.12639e-17 -1.50993e-18)
(0.856596 -1.77653e-16 1.05656e-17)
(0.856596 -9.59471e-17 -6.87803e-19)
(0.860046 -1.83972e-16 9.25523e-18)
(0.860046 -9.76306e-17 1.91774e-20)
(0.863481 -1.88912e-16 7.34457e-18)
(0.863481 -1.00737e-16 6.85856e-19)
(0.866901 -1.90283e-16 5.51317e-18)
(0.866901 -1.05196e-16 1.27098e-18)
(0.870306 -1.88528e-16 4.05148e-18)
(0.870306 -1.18636e-16 2.16842e-18)
(0.873698 -1.87998e-16 2.95367e-18)
(0.873698 -1.31299e-16 3.41825e-18)
(0.877076 -1.92498e-16 3.13246e-18)
(0.877076 -1.25713e-16 3.54832e-18)
(0.88044 -1.92928e-16 3.45508e-18)
(0.88044 -1.21112e-16 -7.66906e-18)
(0.883791 -1.87998e-16 4.06132e-18)