/*--------------------------------*- C++ -*----------------------------------*\
| =========                 |                                                 |
| \\      /  F ield         | OpenFOAM: The Open Source CFD Toolbox           |
|  \\    /   O peration     | Version:  2106                                  |
|   \\  /    A nd           | Website:  www.openfoam.com                      |
|    \\/     M anipulation  |                                                 |
\*---------------------------------------------------------------------------*/
FoamFile
{
    version     2.0;
    format      ascii;
    arch        "LSB;label=32;scalar=64";
    class       volVectorField;
    location    "10060";
    object      grad(T);
}
// * * * * * * * * * * * * * * * * * * * * * * * * * * * * * * * * * * * * * //

dimensions      [0 -1 0 1 0 0 0];

internalField   nonuniform List<vector> 
2000
(
(0 281.194 0.520388)
(0 281.194 0.520388)
(0 281.194 1.57088)
(0 281.194 1.57088)
(-9.46109e-16 281.193 2.18014)
(8.82156e-16 281.193 2.18014)
(-1.07557e-15 281.193 2.22083)
(1.70433e-15 281.193 2.22083)
(0 281.192 2.26228)
(-8.50121e-16 281.192 2.26228)
(0 281.19 2.30449)
(-2.03621e-15 281.19 2.30449)
(0 281.189 2.34749)
(3.47121e-15 281.189 2.34749)
(0 281.186 2.39129)
(6.55841e-15 281.186 2.39129)
(-9.7954e-16 281.184 2.43591)
(0 281.184 2.43591)
(0 281.181 2.48135)
(0 281.181 2.48135)
(1.52166e-15 281.177 2.52762)
(1.52166e-15 281.177 2.52762)
(1.47686e-15 281.172 2.57475)
(2.9199e-15 281.172 2.57475)
(0 281.165 2.62275)
(0 281.165 2.62275)
(-4.70314e-15 281.157 2.67162)
(0 281.157 2.67162)
(-2.00255e-15 281.146 2.72137)
(-2.82631e-15 281.146 2.72137)
(4.95887e-15 281.132 2.77202)
(-5.96288e-15 281.132 2.77202)
(0 281.115 2.82356)
(0 281.115 2.82356)
(5.11638e-15 281.091 2.876)
(1.02328e-14 281.091 2.876)
(-2.75035e-15 281.062 2.92934)
(-5.24954e-15 281.062 2.92934)
(-2.20725e-15 281.023 2.98356)
(1.69377e-14 281.023 2.98356)
(-3.14547e-15 280.974 3.03866)
(2.51638e-14 280.974 3.03866)
(4.96621e-15 280.912 3.09461)
(8.42802e-15 280.912 3.09461)
(0 280.833 3.15138)
(1.42216e-14 280.833 3.15138)
(4.78586e-15 280.733 3.20894)
(1.02785e-14 280.733 3.20894)
(-3.98067e-15 280.607 3.26722)
(0 280.607 3.26722)
(0 280.451 3.32615)
(1.67968e-14 280.451 3.32615)
(1.05819e-16 280.258 3.38566)
(0 280.258 3.38566)
(-4.64834e-15 280.02 3.44563)
(0 280.02 3.44563)
(0 279.729 3.50594)
(-4.36315e-15 279.729 3.50594)
(-1.36803e-14 279.376 3.56644)
(-2.04558e-14 279.376 3.56644)
(5.35302e-15 278.949 3.62694)
(2.14121e-14 278.949 3.62694)
(0 278.436 3.68724)
(-8.25531e-15 278.436 3.68724)
(-5.84386e-15 277.825 3.74711)
(0 277.825 3.74711)
(-6.09566e-15 277.102 3.80628)
(0 277.102 3.80628)
(0 276.25 3.86445)
(2.54068e-14 276.25 3.86445)
(0 275.255 3.9213)
(0 275.255 3.9213)
(6.8764e-15 274.1 3.97647)
(2.75056e-14 274.1 3.97647)
(-1.45332e-14 272.768 4.0296)
(2.85798e-14 272.768 4.0296)
(-2.19232e-14 271.243 4.08029)
(1.45057e-14 271.243 4.08029)
(0 269.509 4.12815)
(3.0776e-14 269.509 4.12815)
(-1.59485e-14 267.553 4.17279)
(2.49076e-14 267.553 4.17279)
(0 265.361 4.21381)
(0 265.361 4.21381)
(0 262.925 4.25085)
(0 262.925 4.25085)
(-8.83578e-15 260.236 4.28358)
(-4.85676e-14 260.236 4.28358)
(9.12911e-15 257.29 4.3117)
(2.35343e-14 257.29 4.3117)
(2.21693e-14 254.087 4.33497)
(-5.04445e-14 254.087 4.33497)
(2.78736e-15 250.629 4.35321)
(3.88933e-14 250.629 4.35321)
(-1.22814e-14 246.925 4.3663)
(8.01887e-14 246.925 4.3663)
(1.03255e-14 242.985 4.37418)
(4.13019e-14 242.985 4.37418)
(-1.06286e-14 238.822 4.37688)
(-5.43499e-14 238.822 4.37688)
(0 234.454 4.37446)
(0 234.454 4.37446)
(-2.26429e-14 229.902 4.36709)
(0 229.902 4.36709)
(0 225.186 4.35496)
(0 225.186 4.35496)
(0 220.332 4.33831)
(-4.73857e-14 220.332 4.33831)
(1.36027e-15 215.362 4.31744)
(-2.15801e-14 215.362 4.31744)
(-1.24534e-14 210.302 4.29267)
(0 210.302 4.29267)
(-4.71383e-15 205.176 4.26434)
(5.10207e-14 205.176 4.26434)
(-1.30554e-14 200.007 4.2328)
(0 200.007 4.2328)
(-6.66654e-15 194.819 4.19841)
(-7.3457e-14 194.819 4.19841)
(1.36504e-14 189.633 4.16151)
(-5.46015e-14 189.633 4.16151)
(1.93135e-14 184.467 4.12247)
(-1.93135e-14 184.467 4.12247)
(-4.74322e-14 179.341 4.0816)
(1.1389e-13 179.341 4.0816)
(-1.45254e-14 174.268 4.03923)
(5.81015e-14 174.268 4.03923)
(0 169.264 3.99564)
(0 169.264 3.99564)
(-3.30314e-14 164.341 3.95112)
(6.03805e-14 164.341 3.95112)
(0 159.508 3.9059)
(0 159.508 3.9059)
(-1.56529e-14 154.773 3.86022)
(-1.7285e-14 154.773 3.86022)
(0 150.145 3.81427)
(-1.69682e-14 150.145 3.81427)
(0 145.627 3.76825)
(6.47929e-14 145.627 3.76825)
(0 141.225 3.72231)
(0 141.225 3.72231)
(-1.67307e-14 136.941 3.67659)
(6.69228e-14 136.941 3.67659)
(0 132.776 3.63122)
(6.79685e-14 132.776 3.63122)
(-1.72503e-14 128.733 3.5863)
(-6.90013e-14 128.733 3.5863)
(1.5186e-14 124.81 3.54191)
(-7.00213e-14 124.81 3.54191)
(-3.55143e-14 121.008 3.49815)
(7.10287e-14 121.008 3.49815)
(-3.60118e-14 117.325 3.45506)
(0 117.325 3.45506)
(-2.87328e-14 113.759 3.4127)
(1.01739e-13 113.759 3.4127)
(-4.67003e-14 110.31 3.37112)
(-7.39763e-14 110.31 3.37112)
(1.87337e-14 106.974 3.33034)
(0 106.974 3.33034)
(1.89703e-14 103.748 3.2904)
(-7.58812e-14 103.748 3.2904)
(-3.84081e-14 100.631 3.2513)
(0 100.631 3.2513)
(2.61949e-14 97.6195 3.21307)
(-2.61949e-14 97.6195 3.21307)
(1.96631e-14 94.71 3.17571)
(-1.8302e-13 94.71 3.17571)
(1.98885e-14 91.8996 3.13922)
(0 91.8996 3.13922)
(0 89.1853 3.1036)
(8.04451e-14 89.1853 3.1036)
(2.03314e-14 86.5641 3.06884)
(8.13258e-14 86.5641 3.06884)
(-1.7217e-14 84.0327 3.03495)
(0 84.0327 3.03495)
(-4.15285e-14 81.5882 3.00191)
(1.06501e-13 81.5882 3.00191)
(2.0977e-14 79.2274 2.96971)
(1.67816e-13 79.2274 2.96971)
(-2.11875e-14 76.9475 2.93833)
(0 76.9475 2.93833)
(-4.27912e-14 74.7455 2.90777)
(8.55824e-14 74.7455 2.90777)
(-2.16015e-14 72.6186 2.87801)
(8.6406e-14 72.6186 2.87801)
(-2.13729e-14 70.5639 2.84902)
(0 70.5639 2.84902)
(2.20068e-14 68.5789 2.8208)
(8.80273e-14 68.5789 2.8208)
(2.22064e-14 66.6609 2.79333)
(8.88255e-14 66.6609 2.79333)
(-2.24039e-14 64.8073 2.76658)
(8.96156e-14 64.8073 2.76658)
(-1.70982e-14 63.0158 2.74055)
(3.96977e-14 63.0158 2.74055)
(-2.27932e-14 61.284 2.71521)
(5.22024e-14 61.284 2.71521)
(2.2985e-14 59.6096 2.69055)
(0 59.6096 2.69055)
(1.43801e-14 57.9905 2.66655)
(5.5145e-14 57.9905 2.66655)
(6.02302e-14 56.4245 2.64319)
(5.65863e-14 56.4245 2.64319)
(0 54.9096 2.62046)
(5.80081e-14 54.9096 2.62046)
(0 53.4439 2.59833)
(-9.4939e-14 53.4439 2.59833)
(0 52.0256 2.57679)
(9.56722e-14 52.0256 2.57679)
(-2.40997e-14 50.6527 2.55582)
(0 50.6527 2.55582)
(-2.42799e-14 49.3237 2.53542)
(9.71197e-14 49.3237 2.53542)
(0 48.0368 2.51555)
(0 48.0368 2.51555)
(0 46.7905 2.49621)
(0 46.7905 2.49621)
(2.48117e-14 45.5832 2.47738)
(9.92467e-14 45.5832 2.47738)
(-6.22773e-15 44.4136 2.45905)
(9.99445e-14 44.4136 2.45905)
(0 43.2801 2.4412)
(1.00637e-13 43.2801 2.4412)
(-5.06621e-14 42.1815 2.42382)
(1.01324e-13 42.1815 2.42382)
(2.55016e-14 41.1165 2.4069)
(1.02006e-13 41.1165 2.4069)
(0 40.0839 2.39041)
(-1.02683e-13 40.0839 2.39041)
(0 39.0824 2.37435)
(-2.84568e-14 39.0824 2.37435)
(-5.20118e-14 38.111 2.35871)
(0 38.111 2.35871)
(-2.61717e-14 37.1685 2.34348)
(0 37.1685 2.34348)
(0 36.254 2.32863)
(-1.59187e-13 36.254 2.32863)
(5.29999e-14 35.3664 2.31417)
(-2.64276e-14 35.3664 2.31417)
(5.33249e-14 34.5047 2.30007)
(8.07065e-14 34.5047 2.30007)
(-2.6824e-14 33.6681 2.28634)
(1.07296e-13 33.6681 2.28634)
(7.89702e-14 32.8557 2.27295)
(-2.50013e-14 32.8557 2.27295)
(5.16871e-14 32.0666 2.2599)
(1.08576e-13 32.0666 2.2599)
(-2.73026e-14 31.3 2.24718)
(-2.40934e-14 31.3 2.24718)
(2.36519e-14 30.5551 2.23478)
(2.19682e-13 30.5551 2.23478)
(-2.7617e-14 29.8312 2.22268)
(0 29.8312 2.22268)
(-4.5586e-14 29.1276 2.21089)
(2.67769e-13 29.1276 2.21089)
(-2.79279e-14 28.4436 2.19939)
(0 28.4436 2.19939)
(0 27.7785 2.18817)
(1.56259e-13 27.7785 2.18817)
(2.82354e-14 27.1317 2.17722)
(2.25883e-13 27.1317 2.17722)
(-2.83879e-14 26.5026 2.16654)
(1.13552e-13 26.5026 2.16654)
(-1.30198e-14 25.8906 2.15613)
(1.14159e-13 25.8906 2.15613)
(-1.65835e-14 25.2951 2.14596)
(7.3965e-14 25.2951 2.14596)
(-4.00503e-14 24.7156 2.13603)
(2.30728e-13 24.7156 2.13603)
(3.93164e-14 24.1515 2.12634)
(7.66459e-14 24.1515 2.12634)
(9.45654e-15 23.6024 2.11688)
(-3.8596e-14 23.6024 2.11688)
(2.92876e-14 23.0678 2.10764)
(0 23.0678 2.10764)
(0 22.5472 2.09862)
(-3.71944e-14 22.5472 2.09862)
(-2.9582e-14 22.0402 2.08981)
(0 22.0402 2.08981)
(-2.97282e-14 21.5463 2.0812)
(-1.18913e-13 21.5463 2.0812)
(-2.98737e-14 21.0651 2.07278)
(2.3899e-13 21.0651 2.07278)
(0 20.5962 2.06455)
(1.20075e-13 20.5962 2.06455)
(-3.01631e-14 20.1393 2.05651)
(8.67431e-14 20.1393 2.05651)
(0 19.6939 2.04865)
(8.79397e-14 19.6939 2.04865)
(-3.04501e-14 19.2598 2.04096)
(1.218e-13 19.2598 2.04096)
(0 18.8365 2.03343)
(1.22371e-13 18.8365 2.03343)
(-3.07349e-14 18.4237 2.02607)
(0 18.4237 2.02607)
(-3.08765e-14 18.0212 2.01886)
(0 18.0212 2.01886)
(-6.13651e-14 17.6286 2.0118)
(0 17.6286 2.0118)
(1.36659e-15 17.2455 2.00488)
(-1.24632e-13 17.2455 2.00488)
(2.92456e-14 16.8718 1.99811)
(-2.92456e-14 16.8718 1.99811)
(0 16.5071 1.99147)
(0 16.5071 1.99147)
(5.97604e-14 16.1512 1.98495)
(0 16.1512 1.98495)
(-5.93825e-14 15.8038 1.97856)
(1.26862e-13 15.8038 1.97856)
(-5.90137e-14 15.4646 1.97229)
(1.54574e-13 15.4646 1.97229)
(-5.32888e-15 15.1335 1.96613)
(-2.66624e-14 15.1335 1.96613)
(0 14.8101 1.96009)
(1.28514e-13 14.8101 1.96009)
(-3.22654e-14 14.4943 1.95414)
(-1.29062e-13 14.4943 1.95414)
(3.24018e-14 14.1858 1.94829)
(1.29607e-13 14.1858 1.94829)
(3.25378e-14 13.8845 1.94254)
(1.30151e-13 13.8845 1.94254)
(3.26734e-14 13.59 1.93688)
(0 13.59 1.93688)
(0 13.3023 1.93129)
(1.31234e-13 13.3023 1.93129)
(-3.29433e-14 13.0212 1.92579)
(0 13.0212 1.92579)
(0 12.7463 1.92036)
(1.32311e-13 12.7463 1.92036)
(-3.32117e-14 12.4776 1.915)
(-4.51482e-14 12.4776 1.915)
(0 12.215 1.90971)
(0 12.215 1.90971)
(0 11.9581 1.90447)
(1.33914e-13 11.9581 1.90447)
(0 11.7069 1.89928)
(1.34446e-13 11.7069 1.89928)
(-3.37439e-14 11.4612 1.89414)
(0 11.4612 1.89414)
(-3.38761e-14 11.2208 1.88905)
(0 11.2208 1.88905)
(-3.40078e-14 10.9856 1.88399)
(0 10.9856 1.88399)
(6.82785e-14 10.7555 1.87896)
(9.68913e-14 10.7555 1.87896)
(-6.38721e-14 10.5303 1.87396)
(1.37081e-13 10.5303 1.87396)
(0 10.3098 1.86898)
(1.37604e-13 10.3098 1.86898)
(2.99342e-15 10.094 1.86402)
(-3.75249e-14 10.094 1.86402)
(-7.14987e-14 9.88268 1.85906)
(0 9.88268 1.85906)
(3.61622e-14 9.67575 1.85411)
(-3.61622e-14 9.67575 1.85411)
(0 9.47309 1.84915)
(1.39682e-13 9.47309 1.84915)
(3.46485e-14 9.27458 1.84418)
(-2.09896e-13 9.27458 1.84418)
(0 9.08009 1.8392)
(0 9.08009 1.8392)
(-6.889e-14 8.88952 1.83419)
(-3.16035e-13 8.88952 1.83419)
(-6.84025e-14 8.70276 1.82915)
(0 8.70276 1.82915)
(0 8.51969 1.82408)
(0 8.51969 1.82408)
(3.17709e-14 8.34023 1.81895)
(1.10986e-13 8.34023 1.81895)
(-7.16326e-14 8.16426 1.81378)
(2.8653e-13 8.16426 1.81378)
(-6.12344e-14 7.99168 1.80854)
(2.05006e-13 7.99168 1.80854)
(-3.60691e-14 7.82241 1.80324)
(0 7.82241 1.80324)
(0 7.65635 1.79786)
(-1.4478e-13 7.65635 1.79786)
(-3.63205e-14 7.4934 1.79239)
(0 7.4934 1.79239)
(0 7.33348 1.78682)
(1.45782e-13 7.33348 1.78682)
(0 7.1765 1.78115)
(1.46282e-13 7.1765 1.78115)
(-1.8108e-14 7.02237 1.77536)
(3.48361e-13 7.02237 1.77536)
(3.68188e-14 6.871 1.76945)
(1.47275e-13 6.871 1.76945)
(0 6.72233 1.7634)
(1.4777e-13 6.72233 1.7634)
(8.89106e-14 6.57625 1.75719)
(1.48263e-13 6.57625 1.75719)
(-3.71884e-14 6.43271 1.75083)
(2.97508e-13 6.43271 1.75083)
(-3.73108e-14 6.29161 1.74429)
(-1.49243e-13 6.29161 1.74429)
(4.90467e-14 6.15288 1.73756)
(0 6.15288 1.73756)
(1.05936e-14 6.01644 1.73064)
(-4.8148e-14 6.01644 1.73064)
(-7.53508e-14 5.88223 1.72349)
(-4.72657e-14 5.88223 1.72349)
(-3.7796e-14 5.75016 1.71611)
(1.51184e-13 5.75016 1.71611)
(0 5.62016 1.70848)
(0 5.62016 1.70848)
(-3.80358e-14 5.49217 1.70058)
(0 5.49217 1.70058)
(0 5.3661 1.6924)
(-4.38952e-14 5.3661 1.6924)
(3.82736e-14 5.2419 1.68392)
(3.06189e-13 5.2419 1.68392)
(7.67833e-14 5.11948 1.6751)
(-1.95868e-13 5.11948 1.6751)
(7.70183e-14 4.99877 1.66594)
(0 4.99877 1.66594)
(7.72521e-14 4.87972 1.65641)
(3.09008e-13 4.87972 1.65641)
(3.87424e-14 4.76224 1.64647)
(1.5497e-13 4.76224 1.64647)
(3.88581e-14 4.64626 1.63612)
(1.16147e-13 4.64626 1.63612)
(-3.89731e-14 4.53172 1.62531)
(1.55892e-13 4.53172 1.62531)
(-3.90874e-14 4.41855 1.61402)
(0 4.41855 1.61402)
(0 4.30666 1.60221)
(1.56804e-13 4.30666 1.60221)
(-7.86279e-14 4.19598 1.58986)
(1.57256e-13 4.19598 1.58986)
(-3.94261e-14 4.08645 1.57691)
(0 4.08645 1.57691)
(3.51586e-14 3.97798 1.56334)
(3.16299e-13 3.97798 1.56334)
(0 3.8705 1.54909)
(-3.45143e-14 3.8705 1.54909)
(3.97574e-14 3.76393 1.53413)
(-1.5903e-13 3.76393 1.53413)
(3.9866e-14 3.65818 1.5184)
(0 3.65818 1.5184)
(-1.46444e-14 3.55316 1.50184)
(0 3.55316 1.50184)
(1.60543e-14 3.4488 1.4844)
(0 3.4488 1.4844)
(0 3.34499 1.46601)
(1.60744e-13 3.34499 1.46601)
(0 3.24164 1.4466)
(1.61161e-13 3.24164 1.4466)
(4.03935e-14 3.13865 1.4261)
(1.61574e-13 3.13865 1.4261)
(0 3.03591 1.40442)
(-2.21517e-13 3.03591 1.40442)
(-4.05961e-14 2.93331 1.38148)
(0 2.93331 1.38148)
(1.66777e-14 2.83073 1.35716)
(1.05408e-13 2.83073 1.35716)
(0 2.72804 1.33137)
(1.63172e-13 2.72804 1.33137)
(1.44004e-14 2.6251 1.30399)
(-1.63557e-13 2.6251 1.30399)
(4.09838e-14 2.52178 1.27488)
(3.2787e-13 2.52178 1.27488)
(0 2.41791 1.24391)
(1.64306e-13 2.41791 1.24391)
(-4.11675e-14 2.31334 1.21091)
(0 2.31334 1.21091)
(4.12564e-14 2.20789 1.17571)
(1.65025e-13 2.20789 1.17571)
(9.06297e-15 2.10136 1.13812)
(1.65373e-13 2.10136 1.13812)
(-4.14277e-14 1.99356 1.09795)
(1.65711e-13 1.99356 1.09795)
(0 1.88427 1.05496)
(4.85757e-14 1.88427 1.05496)
(4.15895e-14 1.77328 1.00891)
(0 1.77328 1.00891)
(-8.33326e-14 1.66034 0.959534)
(1.66665e-13 1.66034 0.959534)
(0 1.54522 0.906559)
(4.59539e-14 1.54522 0.906559)
(0 1.42766 0.849684)
(0 1.42766 0.849684)
(4.18785e-14 1.30742 0.788596)
(1.67514e-13 1.30742 0.788596)
(-4.19423e-14 1.18427 0.722976)
(1.67769e-13 1.18427 0.722976)
(-8.46793e-14 1.05797 0.652501)
(0 1.05797 0.652501)
(0 0.928336 0.576851)
(0 0.928336 0.576851)
(4.11273e-14 0.795211 0.495727)
(-2.09565e-13 0.795211 0.495727)
(-1.78214e-15 0.658493 0.408855)
(-4.03736e-14 0.658493 0.408855)
(-4.2197e-14 0.518145 0.316)
(1.68788e-13 0.518145 0.316)
(0 0.374205 0.21698)
(1.68931e-13 0.374205 0.21698)
(-4.22624e-14 0.226797 0.111669)
(0 0.226797 0.111669)
(-7.97803e-14 1.34296e-06 4.97067e-07)
(3.38399e-13 8.66835e-07 3.20839e-07)
(0 281.194 -0.520388)
(-1.14425e-16 281.194 -0.520388)
(-2.24656e-16 281.194 -1.57088)
(0 281.194 -1.57088)
(-1.27907e-16 281.193 -2.18014)
(0 281.193 -2.18014)
(2.09584e-16 281.193 -2.22083)
(-4.32995e-16 281.193 -2.22083)
(1.34254e-16 281.192 -2.26228)
(-8.50121e-16 281.192 -2.26228)
(5.09052e-16 281.19 -2.30449)
(0 281.19 -2.30449)
(0 281.189 -2.34749)
(-8.1925e-16 281.189 -2.34749)
(1.6396e-15 281.186 -2.39129)
(0 281.186 -2.39129)
(-2.55854e-15 281.184 -2.43591)
(3.91816e-15 281.184 -2.43591)
(2.69233e-15 281.181 -2.48135)
(-6.1191e-15 281.181 -2.48135)
(1.09437e-15 281.177 -2.52762)
(-5.23206e-15 281.177 -2.52762)
(1.47686e-15 281.172 -2.57475)
(0 281.172 -2.57475)
(-1.64886e-15 281.165 -2.62275)
(-6.59545e-15 281.165 -2.62275)
(2.87907e-15 281.157 -2.67162)
(-7.29628e-15 281.157 -2.67162)
(2.00255e-15 281.146 -2.72137)
(-8.01018e-15 281.146 -2.72137)
(-2.77452e-15 281.132 -2.77202)
(0 281.132 -2.77202)
(2.36954e-15 281.115 -2.82356)
(-9.47818e-15 281.115 -2.82356)
(-2.78934e-15 281.091 -2.876)
(1.55803e-14 281.091 -2.876)
(2.75035e-15 281.062 -2.92934)
(0 281.062 -2.92934)
(5.89218e-15 281.023 -2.98356)
(-5.15334e-15 281.023 -2.98356)
(8.20438e-15 280.974 -3.03866)
(7.52297e-15 280.974 -3.03866)
(8.31476e-15 280.912 -3.09461)
(8.42802e-15 280.912 -3.09461)
(-3.55541e-15 280.833 -3.15138)
(0 280.833 -3.15138)
(7.53219e-15 280.733 -3.20894)
(0 280.733 -3.20894)
(3.98067e-15 280.607 -3.26722)
(0 280.607 -3.26722)
(4.61207e-15 280.451 -3.32615)
(0 280.451 -3.32615)
(0 280.258 -3.38566)
(-4.52756e-15 280.258 -3.38566)
(9.29669e-15 280.02 -3.44563)
(0 280.02 -3.44563)
(4.87906e-15 279.729 -3.50594)
(1.95163e-14 279.729 -3.50594)
(1.02279e-14 279.376 -3.56644)
(0 279.376 -3.56644)
(5.35302e-15 278.949 -3.62694)
(0 278.949 -3.62694)
(5.59632e-15 278.436 -3.68724)
(0 278.436 -3.68724)
(5.84386e-15 277.825 -3.74711)
(-2.33754e-14 277.825 -3.74711)
(0 277.102 -3.80628)
(-3.23382e-14 277.102 -3.80628)
(1.56195e-14 276.25 -3.86445)
(0 276.25 -3.86445)
(6.61196e-15 275.255 -3.9213)
(-2.64478e-14 275.255 -3.9213)
(-1.2995e-15 274.1 -3.97647)
(0 274.1 -3.97647)
(-7.14495e-15 272.768 -4.0296)
(-2.85798e-14 272.768 -4.0296)
(-7.41752e-15 271.243 -4.08029)
(-6.6593e-14 271.243 -4.08029)
(-7.69401e-15 269.509 -4.12815)
(0 269.509 -4.12815)
(-7.97426e-15 267.553 -4.17279)
(0 267.553 -4.17279)
(-8.25811e-15 265.361 -4.21381)
(-6.60649e-14 265.361 -4.21381)
(1.70907e-14 262.925 -4.25085)
(0 262.925 -4.25085)
(8.83578e-15 260.236 -4.28358)
(-3.53431e-14 260.236 -4.28358)
(1.82582e-14 257.29 -4.3117)
(3.65165e-14 257.29 -4.3117)
(2.21693e-14 254.087 -4.33497)
(-3.77003e-14 254.087 -4.33497)
(-1.94467e-14 250.629 -4.35321)
(-3.88933e-14 250.629 -4.35321)
(7.76573e-15 246.925 -4.3663)
(5.23758e-14 246.925 -4.3663)
(1.20564e-14 242.985 -4.37418)
(0 242.985 -4.37418)
(-1.06286e-14 238.822 -4.37688)
(-9.68643e-14 238.822 -4.37688)
(1.09327e-14 234.454 -4.37446)
(-4.37306e-14 234.454 -4.37446)
(1.12372e-14 229.902 -4.36709)
(0 229.902 -4.36709)
(0 225.186 -4.35496)
(-9.23354e-14 225.186 -4.35496)
(1.18464e-14 220.332 -4.33831)
(0 220.332 -4.33831)
(2.43007e-14 215.362 -4.31744)
(0 215.362 -4.31744)
(0 210.302 -4.29267)
(-4.98135e-14 210.302 -4.29267)
(1.27552e-14 205.176 -4.26434)
(0 205.176 -4.26434)
(3.34708e-14 200.007 -4.2328)
(-7.26372e-14 200.007 -4.2328)
(0 194.819 -4.19841)
(-5.34157e-14 194.819 -4.19841)
(0 189.633 -4.16151)
(-5.46015e-14 189.633 -4.16151)
(-5.36898e-15 184.467 -4.12247)
(1.93135e-14 184.467 -4.12247)
(0 179.341 -4.0816)
(-1.89596e-14 179.341 -4.0816)
(3.31376e-14 174.268 -4.03923)
(0 174.268 -4.03923)
(1.48117e-14 169.264 -3.99564)
(-1.82711e-14 169.264 -3.99564)
(1.79363e-14 164.341 -3.95112)
(-7.83168e-14 164.341 -3.95112)
(0 159.508 -3.9059)
(0 159.508 -3.9059)
(1.56529e-14 154.773 -3.86022)
(-6.26117e-14 154.773 -3.86022)
(0 150.145 -3.81427)
(-6.37087e-14 150.145 -3.81427)
(0 145.627 -3.76825)
(0 145.627 -3.76825)
(-1.64661e-14 141.225 -3.72231)
(1.31729e-13 141.225 -3.72231)
(0 136.941 -3.67659)
(0 136.941 -3.67659)
(3.27504e-14 132.776 -3.63122)
(-8.37267e-14 132.776 -3.63122)
(3.27198e-14 128.733 -3.5863)
(-8.44708e-14 128.733 -3.5863)
(3.0372e-14 124.81 -3.54191)
(-1.40043e-13 124.81 -3.54191)
(-1.77572e-14 121.008 -3.49815)
(0 121.008 -3.49815)
(0 117.325 -3.45506)
(0 117.325 -3.45506)
(0 113.759 -3.4127)
(7.3006e-14 113.759 -3.4127)
(9.71218e-15 110.31 -3.37112)
(-2.95905e-13 110.31 -3.37112)
(3.74673e-14 106.974 -3.33034)
(-7.49346e-14 106.974 -3.33034)
(-1.89703e-14 103.748 -3.2904)
(0 103.748 -3.2904)
(-1.9204e-14 100.631 -3.2513)
(-7.68161e-14 100.631 -3.2513)
(-3.88699e-14 97.6195 -3.21307)
(-7.77398e-14 97.6195 -3.21307)
(-1.96631e-14 94.71 -3.17571)
(-1.8302e-13 94.71 -3.17571)
(3.9777e-14 91.8996 -3.13922)
(-7.9554e-14 91.8996 -3.13922)
(-4.66983e-15 89.1853 -3.1036)
(1.05226e-13 89.1853 -3.1036)
(0 86.5641 -3.06884)
(8.13258e-14 86.5641 -3.06884)
(-3.33211e-15 84.0327 -3.03495)
(-8.21964e-14 84.0327 -3.03495)
(-6.49721e-14 81.5882 -3.00191)
(8.30571e-14 81.5882 -3.00191)
(2.0977e-14 79.2274 -2.96971)
(0 79.2274 -2.96971)
(1.40481e-15 76.9475 -2.93833)
(0 76.9475 -2.93833)
(0 74.7455 -2.90777)
(0 74.7455 -2.90777)
(2.16015e-14 72.6186 -2.87801)
(8.6406e-14 72.6186 -2.87801)
(2.13729e-14 70.5639 -2.84902)
(-6.58479e-14 70.5639 -2.84902)
(0 68.5789 -2.8208)
(-4.19625e-14 68.5789 -2.8208)
(2.22064e-14 66.6609 -2.79333)
(4.76319e-14 66.6609 -2.79333)
(4.04387e-14 64.8073 -2.76658)
(-4.04387e-14 64.8073 -2.76658)
(0 63.0158 -2.74055)
(-1.80796e-13 63.0158 -2.74055)
(0 61.284 -2.71521)
(0 61.284 -2.71521)
(2.2985e-14 59.6096 -2.69055)
(-1.30196e-13 59.6096 -2.69055)
(2.3175e-14 57.9905 -2.66655)
(0 57.9905 -2.66655)
(2.33633e-14 56.4245 -2.64319)
(1.86906e-13 56.4245 -2.64319)
(2.35499e-14 54.9096 -2.62046)
(0 54.9096 -2.62046)
(2.37348e-14 53.4439 -2.59833)
(-1.30467e-13 53.4439 -2.59833)
(-1.0959e-14 52.0256 -2.57679)
(9.56722e-14 52.0256 -2.57679)
(0 50.6527 -2.55582)
(0 50.6527 -2.55582)
(-2.42799e-14 49.3237 -2.53542)
(-9.71197e-14 49.3237 -2.53542)
(0 48.0368 -2.51555)
(0 48.0368 -2.51555)
(0 46.7905 -2.49621)
(-3.23901e-14 46.7905 -2.49621)
(0 45.5832 -2.47738)
(3.17965e-14 45.5832 -2.47738)
(3.12139e-14 44.4136 -2.45905)
(-1.31158e-13 44.4136 -2.45905)
(0 43.2801 -2.4412)
(-3.06419e-14 43.2801 -2.4412)
(3.00804e-14 42.1815 -2.42382)
(-3.00804e-14 42.1815 -2.42382)
(2.55016e-14 41.1165 -2.4069)
(-2.95292e-14 41.1165 -2.4069)
(-2.56709e-14 40.0839 -2.39041)
(0 40.0839 -2.39041)
(-2.5839e-14 39.0824 -2.37435)
(-2.84568e-14 39.0824 -2.37435)
(-1.92949e-15 38.111 -2.35871)
(0 38.111 -2.35871)
(0 37.1685 -2.34348)
(0 37.1685 -2.34348)
(-2.57517e-14 36.254 -2.32863)
(-2.10691e-13 36.254 -2.32863)
(0 35.3664 -2.31417)
(0 35.3664 -2.31417)
(2.66625e-14 34.5047 -2.30007)
(0 34.5047 -2.30007)
(-2.54679e-14 33.6681 -2.28634)
(1.07296e-13 33.6681 -2.28634)
(0 32.8557 -2.27295)
(-1.07938e-13 32.8557 -2.27295)
(0 32.0666 -2.2599)
(-1.08576e-13 32.0666 -2.2599)
(2.08842e-14 31.3 -2.24718)
(-1.57397e-13 31.3 -2.24718)
(0 30.5551 -2.23478)
(6.25372e-14 30.5551 -2.23478)
(-1.88199e-14 29.8312 -2.22268)
(4.64369e-14 29.8312 -2.22268)
(5.55457e-14 29.1276 -2.21089)
(1.11091e-13 29.1276 -2.21089)
(-2.79279e-14 28.4436 -2.19939)
(1.11711e-13 28.4436 -2.19939)
(-4.39306e-14 27.7785 -2.18817)
(-4.39306e-14 27.7785 -2.18817)
(2.82354e-14 27.1317 -2.17722)
(-4.31256e-14 27.1317 -2.17722)
(2.83879e-14 26.5026 -2.16654)
(1.13552e-13 26.5026 -2.16654)
(7.00992e-14 25.8906 -2.15613)
(7.25993e-14 25.8906 -2.15613)
(2.86907e-14 25.2951 -2.14596)
(0 25.2951 -2.14596)
(0 24.7156 -2.13603)
(-1.15364e-13 24.7156 -2.13603)
(1.07623e-13 24.1515 -2.12634)
(-3.93164e-14 24.1515 -2.12634)
(9.45654e-15 23.6024 -2.11688)
(0 23.6024 -2.11688)
(3.78887e-14 23.0678 -2.10764)
(-3.78887e-14 23.0678 -2.10764)
(-7.75931e-15 22.5472 -2.09862)
(0 22.5472 -2.09862)
(9.56767e-14 22.0402 -2.08981)
(0 22.0402 -2.08981)
(0 21.5463 -2.0812)
(3.58438e-14 21.5463 -2.0812)
(2.98737e-14 21.0651 -2.07278)
(2.3899e-13 21.0651 -2.07278)
(0 20.5962 -2.06455)
(0 20.5962 -2.06455)
(-9.79814e-14 20.1393 -2.05651)
(0 20.1393 -2.05651)
(-3.03069e-14 19.6939 -2.04865)
(0 19.6939 -2.04865)
(0 19.2598 -2.04096)
(0 19.2598 -2.04096)
(3.05928e-14 18.8365 -2.03343)
(0 18.8365 -2.03343)
(6.29823e-14 18.4237 -2.02607)
(0 18.4237 -2.02607)
(6.17529e-14 18.0212 -2.01886)
(-1.23506e-13 18.0212 -2.01886)
(6.20351e-14 17.6286 -2.0118)
(-1.2407e-13 17.6286 -2.0118)
(-3.11581e-14 17.2455 -2.00488)
(-3.14314e-13 17.2455 -2.00488)
(-3.12981e-14 16.8718 -1.99811)
(-5.84911e-14 16.8718 -1.99811)
(0 16.5071 -1.99147)
(9.70412e-14 16.5071 -1.99147)
(-5.63671e-14 16.1512 -1.98495)
(-2.81836e-14 16.1512 -1.98495)
(3.17154e-14 15.8038 -1.97856)
(0 15.8038 -1.97856)
(-4.69347e-15 15.4646 -1.97229)
(-1.54574e-13 15.4646 -1.97229)
(0 15.1335 -1.96613)
(0 15.1335 -1.96613)
(5.83024e-14 14.8101 -1.96009)
(1.28514e-13 14.8101 -1.96009)
(6.45308e-14 14.4943 -1.95414)
(-1.29062e-13 14.4943 -1.95414)
(5.04467e-14 14.1858 -1.94829)
(-1.80054e-13 14.1858 -1.94829)
(3.25378e-14 13.8845 -1.94254)
(-4.95223e-14 13.8845 -1.94254)
(-4.86148e-14 13.59 -1.93688)
(-1.30693e-13 13.59 -1.93688)
(0 13.3023 -1.93129)
(-2.62468e-13 13.3023 -1.93129)
(-4.68495e-14 13.0212 -1.92579)
(0 13.0212 -1.92579)
(6.61554e-14 12.7463 -1.92036)
(1.32311e-13 12.7463 -1.92036)
(3.32117e-14 12.4776 -1.915)
(0 12.4776 -1.915)
(0 12.215 -1.90971)
(1.77702e-13 12.215 -1.90971)
(3.34785e-14 11.9581 -1.90447)
(-1.33914e-13 11.9581 -1.90447)
(0 11.7069 -1.89928)
(-1.77157e-13 11.7069 -1.89928)
(0 11.4612 -1.89414)
(0 11.4612 -1.89414)
(3.38761e-14 11.2208 -1.88905)
(-1.35504e-13 11.2208 -1.88905)
(6.80157e-14 10.9856 -1.88399)
(-1.36031e-13 10.9856 -1.88399)
(3.41393e-14 10.7555 -1.87896)
(1.36557e-13 10.7555 -1.87896)
(6.85407e-14 10.5303 -1.87396)
(9.81425e-14 10.5303 -1.87396)
(3.44011e-14 10.3098 -1.86898)
(0 10.3098 -1.86898)
(4.05183e-14 10.094 -1.86402)
(-3.75249e-14 10.094 -1.86402)
(3.46615e-14 9.88268 -1.85906)
(-1.38646e-13 9.88268 -1.85906)
(3.47911e-14 9.67575 -1.85411)
(1.03002e-13 9.67575 -1.85411)
(6.9841e-14 9.47309 -1.84915)
(-3.54995e-14 9.47309 -1.84915)
(0 9.27458 -1.84418)
(1.40198e-13 9.27458 -1.84418)
(-3.51781e-14 9.08009 -1.8392)
(-1.74923e-13 9.08009 -1.8392)
(7.06129e-14 8.88952 -1.83419)
(-1.74809e-13 8.88952 -1.83419)
(-3.54344e-14 8.70276 -1.82915)
(-3.16444e-13 8.70276 -1.82915)
(6.7926e-14 8.51969 -1.82408)
(-1.74612e-13 8.51969 -1.82408)
(0 8.34023 -1.81895)
(1.10986e-13 8.34023 -1.81895)
(9.25509e-15 8.16426 -1.81378)
(1.43265e-13 8.16426 -1.81378)
(9.71773e-14 7.99168 -1.80854)
(-1.74389e-13 7.99168 -1.80854)
(-2.40432e-14 7.82241 -1.80324)
(0 7.82241 -1.80324)
(2.95054e-14 7.65635 -1.79786)
(-1.74285e-13 7.65635 -1.79786)
(0 7.4934 -1.79239)
(-1.45282e-13 7.4934 -1.79239)
(0 7.33348 -1.78682)
(-1.45782e-13 7.33348 -1.78682)
(0 7.1765 -1.78115)
(0 7.1765 -1.78115)
(3.66948e-14 7.02237 -1.77536)
(0 7.02237 -1.77536)
(3.68188e-14 6.871 -1.76945)
(1.47275e-13 6.871 -1.76945)
(3.69424e-14 6.72233 -1.7634)
(0 6.72233 -1.7634)
(0 6.57625 -1.75719)
(1.48263e-13 6.57625 -1.75719)
(0 6.43271 -1.75083)
(-5.08949e-14 6.43271 -1.75083)
(0 6.29161 -1.74429)
(-1.49243e-13 6.29161 -1.74429)
(-4.90467e-14 6.15288 -1.73756)
(-4.90467e-14 6.15288 -1.73756)
(-3.75543e-14 6.01644 -1.73064)
(0 6.01644 -1.73064)
(-3.76754e-14 5.88223 -1.72349)
(-1.50702e-13 5.88223 -1.72349)
(8.6035e-15 5.75016 -1.71611)
(-1.97584e-13 5.75016 -1.71611)
(4.55493e-14 5.62016 -1.70848)
(-4.55493e-14 5.62016 -1.70848)
(4.47146e-14 5.49217 -1.70058)
(-3.04287e-13 5.49217 -1.70058)
(0 5.3661 -1.6924)
(-1.96515e-13 5.3661 -1.6924)
(0 5.2419 -1.68392)
(0 5.2419 -1.68392)
(0 5.11948 -1.6751)
(-1.95868e-13 5.11948 -1.6751)
(4.4543e-14 4.99877 -1.66594)
(-4.15261e-14 4.99877 -1.66594)
(7.72521e-14 4.87972 -1.65641)
(1.13739e-13 4.87972 -1.65641)
(7.74848e-14 4.76224 -1.64647)
(0 4.76224 -1.64647)
(7.77161e-14 4.64626 -1.63612)
(-1.55432e-13 4.64626 -1.63612)
(7.7538e-14 4.53172 -1.62531)
(-3.85649e-14 4.53172 -1.62531)
(-3.90874e-14 4.41855 -1.61402)
(-3.78582e-14 4.41855 -1.61402)
(0 4.30666 -1.60221)
(1.56804e-13 4.30666 -1.60221)
(-3.9314e-14 4.19598 -1.58986)
(1.20772e-13 4.19598 -1.58986)
(0 4.08645 -1.57691)
(-1.93519e-13 4.08645 -1.57691)
(3.51586e-14 3.97798 -1.56334)
(-1.93308e-13 3.97798 -1.56334)
(-3.96478e-14 3.8705 -1.54909)
(-2.2762e-13 3.8705 -1.54909)
(7.95148e-14 3.76393 -1.53413)
(-1.5903e-13 3.76393 -1.53413)
(3.9866e-14 3.65818 -1.5184)
(0 3.65818 -1.5184)
(-6.5303e-14 3.55316 -1.50184)
(1.59895e-13 3.55316 -1.50184)
(0 3.4488 -1.4844)
(0 3.4488 -1.4844)
(0 3.34499 -1.46601)
(-2.23675e-13 3.34499 -1.46601)
(6.17784e-14 3.24164 -1.4466)
(-6.17784e-14 3.24164 -1.4466)
(-2.02528e-14 3.13865 -1.4261)
(1.61574e-13 3.13865 -1.4261)
(4.04955e-14 3.03591 -1.40442)
(-3.23964e-13 3.03591 -1.40442)
(0 2.93331 -1.38148)
(0 2.93331 -1.38148)
(-1.66777e-14 2.83073 -1.35716)
(0 2.83073 -1.35716)
(4.07931e-14 2.72804 -1.33137)
(-2.19494e-13 2.72804 -1.33137)
(-9.6179e-14 2.6251 -1.30399)
(1.08267e-13 2.6251 -1.30399)
(2.76911e-14 2.52178 -1.27488)
(1.63935e-13 2.52178 -1.27488)
(2.88712e-14 2.41791 -1.24391)
(0 2.41791 -1.24391)
(-1.11381e-14 2.31334 -1.21091)
(-5.23055e-14 2.31334 -1.21091)
(4.12564e-14 2.20789 -1.17571)
(-5.13471e-14 2.20789 -1.17571)
(-9.06297e-15 2.10136 -1.13812)
(-1.65373e-13 2.10136 -1.13812)
(4.14277e-14 1.99356 -1.09795)
(1.65711e-13 1.99356 -1.09795)
(0 1.88427 -1.05496)
(-1.66039e-13 1.88427 -1.05496)
(4.15895e-14 1.77328 -1.00891)
(-2.14043e-13 1.77328 -1.00891)
(8.84781e-14 1.66034 -0.959534)
(0 1.66034 -0.959534)
(0 1.54522 -0.906559)
(2.12915e-13 1.54522 -0.906559)
(0 1.42766 -0.849684)
(-3.34488e-13 1.42766 -0.849684)
(0 1.30742 -0.788596)
(-1.67514e-13 1.30742 -0.788596)
(4.19423e-14 1.18427 -0.722976)
(-1.67769e-13 1.18427 -0.722976)
(4.20023e-14 1.05797 -0.652501)
(1.25332e-13 1.05797 -0.652501)
(4.2058e-14 0.928336 -0.576851)
(-3.36464e-13 0.928336 -0.576851)
(8.42186e-14 0.795211 -0.495727)
(-1.68437e-13 0.795212 -0.495727)
(0 0.658493 -0.408855)
(0 0.658493 -0.408855)
(-4.2197e-14 0.518145 -0.316)
(1.29154e-13 0.518145 -0.316)
(0 0.374205 -0.21698)
(-1.68931e-13 0.374205 -0.21698)
(-4.22624e-14 0.226797 -0.111669)
(1.30855e-13 0.226797 -0.111669)
(4.22856e-14 1.38519e-06 -5.12698e-07)
(2.06865e-13 4.58245e-07 -1.69609e-07)
(7.98374e-14 -1.34435e-06 4.97584e-07)
(1.69142e-13 -8.65588e-07 3.20377e-07)
(0 -0.226797 0.111668)
(2.99904e-13 -0.226797 0.111668)
(-4.22327e-14 -0.374204 0.216979)
(-3.89075e-14 -0.374204 0.216979)
(0 -0.518144 0.316)
(1.68788e-13 -0.518144 0.316)
(0 -0.658493 0.408855)
(3.37246e-13 -0.658493 0.408855)
(-4.21093e-14 -0.795211 0.495727)
(-1.68437e-13 -0.795211 0.495727)
(0 -0.928336 0.576851)
(0 -0.928336 0.576851)
(-4.20023e-14 -1.05797 0.6525)
(-1.68009e-13 -1.05797 0.6525)
(0 -1.18427 0.722976)
(0 -1.18427 0.722976)
(4.18785e-14 -1.30742 0.788596)
(0 -1.30742 0.788596)
(0 -1.42766 0.849684)
(1.67244e-13 -1.42766 0.849684)
(0 -1.54522 0.906559)
(1.66961e-13 -1.54522 0.906559)
(0 -1.66034 0.959534)
(0 -1.66034 0.959534)
(6.09611e-15 -1.77328 1.00891)
(-2.14043e-13 -1.77328 1.00891)
(8.30197e-14 -1.88427 1.05496)
(-4.85757e-14 -1.88427 1.05496)
(0 -1.99356 1.09795)
(0 -1.99356 1.09795)
(8.26863e-14 -2.10136 1.13812)
(1.14967e-13 -2.10136 1.13812)
(-4.12564e-14 -2.20789 1.17571)
(-2.16373e-13 -2.20789 1.17571)
(-8.23349e-14 -2.31334 1.21091)
(0 -2.31334 1.21091)
(1.22053e-14 -2.41791 1.24391)
(1.11024e-13 -2.41791 1.24391)
(-8.19676e-14 -2.52178 1.27488)
(-1.63935e-13 -2.52178 1.27488)
(-4.08893e-14 -2.6251 1.30399)
(1.63557e-13 -2.6251 1.30399)