/*--------------------------------*- C++ -*----------------------------------*\
| =========                 |                                                 |
| \\      /  F ield         | OpenFOAM: The Open Source CFD Toolbox           |
|  \\    /   O peration     | Version:  2106                                  |
|   \\  /    A nd           | Website:  www.openfoam.com                      |
|    \\/     M anipulation  |                                                 |
\*---------------------------------------------------------------------------*/
FoamFile
{
    version     2.0;
    format      ascii;
    arch        "LSB;label=32;scalar=64";
    class       volTensorField;
    location    "10060";
    object      grad(U);
}
// * * * * * * * * * * * * * * * * * * * * * * * * * * * * * * * * * * * * * //

dimensions      [0 0 -1 0 0 0 0];

internalField   nonuniform List<tensor> 
2000
(
(0 -4.97672e-26 8.89258e-32 23.8136 -6.37267e-12 -1.30155e-13 0.0440744 -5.89528e-15 -8.67649e-17)
(0 -1.78374e-28 -8.89258e-32 23.8136 0 -8.26893e-18 0.0440744 -4.45936e-29 5.93108e-17)
(0 0 4.85945e-31 23.8091 0 -2.48806e-14 0.133029 -3.15544e-30 -9.38087e-17)
(0 -2.23478e-29 -3.99069e-31 23.8091 -2.33919e-15 -1.06456e-17 0.133029 -5.79681e-18 1.00227e-16)
(-5.42412e-18 -6.34168e-31 -9.61478e-32 23.8045 6.36065e-13 -1.14889e-14 0.184543 -3.80026e-15 -8.25909e-17)
(0 6.26809e-30 1.95878e-31 23.8045 -1.79436e-15 -1.12191e-17 0.184543 -8.49641e-18 1.0403e-16)
(-1.77565e-17 1.98811e-30 -1.43658e-31 23.7998 3.96348e-13 -1.11182e-14 0.18795 -5.99186e-15 -9.14889e-17)
(7.1026e-17 6.15323e-30 3.36505e-31 23.7998 -2.25602e-15 -8.34741e-18 0.18795 -1.32038e-17 1.08028e-16)
(-1.06265e-16 1.2081e-29 3.7753e-31 23.795 -7.258e-15 -1.18661e-14 0.191419 -2.7664e-16 -9.77368e-17)
(0 -9.06071e-30 -1.88765e-31 23.795 -2.32451e-15 -6.30003e-18 0.191419 -1.80185e-17 1.12227e-16)
(0 1.18596e-29 4.63264e-31 23.7901 -2.61841e-14 -1.22989e-14 0.194952 -1.4738e-16 -1.02031e-16)
(-1.72435e-16 -1.18596e-29 -4.63264e-31 23.7901 -2.45527e-15 -6.89307e-18 0.194952 -2.31681e-17 1.16635e-16)
(0 -3.56378e-28 -1.8191e-31 23.7851 -1.36788e-27 -1.25827e-14 0.198548 0 -1.06158e-16)
(2.24549e-16 5.82112e-30 1.8191e-31 23.7851 -2.48782e-15 -9.57403e-18 0.198548 -2.86263e-17 1.21254e-16)
(0 -2.85723e-30 0 23.7799 7.03256e-15 -1.28687e-14 0.20221 -6.28759e-17 -1.10741e-16)
(5.55249e-16 8.57168e-30 1.78577e-31 23.7799 -2.45934e-15 -9.80281e-18 0.20221 -3.4212e-17 1.26105e-16)
(-8.29198e-17 2.81849e-30 5.20477e-32 23.7746 5.29086e-15 -1.31808e-14 0.205938 -5.55649e-17 -1.15564e-16)
(0 2.80487e-30 8.76522e-32 23.7746 -2.56313e-15 -7.6313e-18 0.205938 -3.99438e-17 1.31204e-16)
(1.93758e-16 -2.75347e-30 -2.58138e-31 23.7692 3.72917e-15 -1.34988e-14 0.209734 -3.50682e-17 -1.20527e-16)
(-1.93758e-16 2.75347e-30 2.58138e-31 23.7692 -2.64494e-15 -4.89096e-18 0.209734 -4.61795e-17 1.36552e-16)
(3.80415e-16 -2.97332e-29 -9.29161e-31 23.7636 3.37565e-15 -1.38169e-14 0.213598 -3.00955e-17 -1.25639e-16)
(-1.90208e-16 2.70301e-29 8.44692e-31 23.7636 -2.50893e-15 -4.04914e-18 0.213598 -5.27285e-17 1.42181e-16)
(-6.17469e-17 5.14083e-30 2.74178e-31 23.7578 3.5607e-15 -1.41356e-14 0.217531 -3.00337e-17 -1.30906e-16)
(4.99901e-16 -5.30696e-30 -2.48764e-31 23.7578 -2.43204e-15 -5.39493e-18 0.217531 -5.86974e-17 1.48085e-16)
(0 0 0 23.7518 3.95537e-15 -1.44558e-14 0.221535 -3.46186e-17 -1.36345e-16)
(0 0 0 23.7518 -2.58287e-15 -6.31569e-18 0.221535 -6.49502e-17 1.54266e-16)
(-3.34262e-16 2.07166e-29 9.43349e-31 23.7456 4.14517e-15 -1.47786e-14 0.225609 -3.85288e-17 -1.41974e-16)
(0 -1.53427e-29 -7.19191e-31 23.7456 -2.53479e-15 -4.03067e-18 0.225609 -7.14537e-17 1.60741e-16)
(-5.22689e-16 1.28566e-29 3.81773e-31 23.739 4.12828e-15 -1.51039e-14 0.229755 -3.95301e-17 -1.47781e-16)
(0 -2.51027e-30 -1.56892e-31 23.739 -2.44812e-15 -4.24728e-19 0.229755 -7.74509e-17 1.67569e-16)
(5.31572e-16 -1.76001e-29 -3.79836e-31 23.732 4.08361e-15 -1.54323e-14 0.233973 -3.96536e-17 -1.538e-16)
(-1.08584e-15 1.23213e-29 1.54017e-31 23.732 -2.62211e-15 1.48613e-18 0.233973 -8.42724e-17 1.74732e-16)
(0 -2.41911e-30 -3.02389e-31 23.7246 4.11292e-15 -1.57641e-14 0.238263 -4.01388e-17 -1.60014e-16)
(0 2.41911e-30 3.02389e-31 23.7246 -2.536e-15 3.36962e-19 0.238263 -9.18692e-17 1.82206e-16)
(7.6687e-16 -2.93719e-29 -1.05043e-30 23.7165 4.23206e-15 -1.60981e-14 0.242625 -4.17366e-17 -1.66431e-16)
(5.31077e-16 1.89982e-29 7.42119e-31 23.7165 -2.55835e-15 -5.54118e-19 0.242625 -9.83248e-17 1.90055e-16)
(-2.32545e-16 5.14186e-30 2.29992e-31 23.7077 4.30122e-15 -1.64341e-14 0.247058 -4.40894e-17 -1.73048e-16)
(0 0 1.45704e-31 23.7077 -2.89158e-15 3.64136e-18 0.247058 -1.05888e-16 1.98254e-16)
(2.49063e-16 -7.38642e-30 -2.31857e-31 23.698 4.20836e-15 -1.6772e-14 0.251561 -4.4751e-17 -1.79878e-16)
(9.96252e-16 6.86563e-30 4.29102e-31 23.698 -2.82761e-15 -1.50805e-18 0.251561 -1.15099e-16 2.0685e-16)
(-2.65884e-16 2.8083e-30 9.35604e-32 23.6871 4.0736e-15 -1.71107e-14 0.256132 -4.3779e-17 -1.86895e-16)
(2.12707e-15 0 0 23.6871 -2.70279e-15 -6.25408e-18 0.256132 -1.22862e-16 2.15814e-16)
(0 8.82175e-30 4.1352e-31 23.6748 4.20934e-15 -1.74479e-14 0.260769 -4.35223e-17 -1.94087e-16)
(1.13205e-15 -4.41088e-30 -1.3784e-31 23.6748 -2.90105e-15 -7.05247e-19 0.260769 -1.30201e-16 2.25234e-16)
(3.047e-16 -8.6601e-30 -5.41256e-31 23.6607 4.53356e-15 -1.77822e-14 0.265467 -4.84198e-17 -2.01441e-16)
(1.20182e-15 8.6601e-30 6.7657e-31 23.6607 -2.97496e-15 4.4328e-18 0.265467 -1.39061e-16 2.35076e-16)
(0 8.5014e-30 5.31338e-31 23.6444 4.63756e-15 -1.81121e-14 0.270224 -5.24399e-17 -2.08945e-16)
(1.27286e-15 -4.2507e-30 -2.65669e-31 23.6444 -3.06342e-15 8.43111e-18 0.270224 -1.48073e-16 2.45391e-16)
(-3.363e-16 -1.37084e-30 -4.06906e-31 23.6256 4.52839e-15 -1.84348e-14 0.275031 -5.26222e-17 -2.16548e-16)
(0 8.34562e-30 7.82402e-31 23.6256 -3.28481e-15 5.66739e-18 0.275031 -1.57782e-16 2.56194e-16)
(0 -1.63854e-29 -7.68064e-31 23.6036 4.33111e-15 -1.87483e-14 0.279884 -5.18732e-17 -2.24257e-16)
(1.41884e-15 1.63854e-29 7.68064e-31 23.6036 -3.26956e-15 2.07967e-18 0.279884 -1.68808e-16 2.67425e-16)
(1.92492e-16 -5.24268e-30 -1.24645e-31 23.5777 4.34795e-15 -1.90508e-14 0.284771 -4.99242e-17 -2.32019e-16)
(0 8.04256e-30 2.5133e-31 23.5777 -3.29031e-15 8.51177e-18 0.284771 -1.80772e-16 2.79135e-16)
(-3.92531e-16 2.79798e-30 1.33072e-31 23.5474 4.78429e-15 -1.93355e-14 0.289683 -5.42349e-17 -2.39718e-16)
(0 3.94759e-30 2.46724e-31 23.5474 -3.28831e-15 1.52004e-17 0.289683 -1.93558e-16 2.91408e-16)
(0 7.75051e-30 2.42203e-31 23.5116 5.09757e-15 -1.95973e-14 0.294606 -6.25488e-17 -2.47327e-16)
(0 -3.87525e-30 0 23.5116 -3.15671e-15 2.46017e-17 0.294606 -2.06004e-16 3.04147e-16)
(-1.50251e-15 2.56184e-29 1.81101e-30 23.4696 5.06348e-15 -1.9834e-14 0.299524 -6.41358e-17 -2.54798e-16)
(-1.72683e-15 -1.90212e-29 -1.42659e-30 23.4696 -2.79294e-15 2.94578e-17 0.299524 -2.18121e-16 3.17331e-16)
(4.51813e-16 -6.52578e-30 -3.87275e-31 23.4201 4.97382e-15 -2.00429e-14 0.30442 -6.40349e-17 -2.62083e-16)
(1.80725e-15 3.73453e-30 2.33408e-31 23.4201 -2.62673e-15 2.1456e-17 0.30442 -2.27967e-16 3.30918e-16)
(0 3.66609e-30 4.58262e-31 23.3621 4.97149e-15 -2.02167e-14 0.309272 -6.4219e-17 -2.69009e-16)
(0 0 -2.29131e-31 23.3621 -3.16016e-15 2.31129e-17 0.309272 -2.37075e-16 3.44888e-16)
(-4.93059e-16 9.98515e-30 1.06891e-30 23.2942 5.10674e-15 -2.03476e-14 0.314058 -6.63861e-17 -2.75493e-16)
(0 -7.19783e-30 -8.99729e-31 23.2942 -3.57191e-15 2.58638e-17 0.314058 -2.49077e-16 3.59406e-16)
(-5.142e-16 2.78489e-30 -2.64326e-31 23.2151 5.22582e-15 -2.04304e-14 0.318749 -7.02915e-17 -2.81426e-16)
(0 3.53297e-30 8.83241e-31 23.2151 -3.46234e-15 2.00732e-17 0.318749 -2.63504e-16 3.7428e-16)
(0 -2.08093e-29 -1.08382e-30 23.1232 5.14228e-15 -2.04612e-14 0.323318 -7.21636e-17 -2.86736e-16)
(2.14273e-15 2.08093e-29 1.08382e-30 23.1232 -3.50875e-15 1.81828e-17 0.323318 -2.74973e-16 3.8962e-16)
(0 6.80934e-30 8.51168e-31 23.0171 5.17465e-15 -2.04366e-14 0.327731 -7.05993e-17 -2.91329e-16)
(0 -3.40467e-30 -4.25584e-31 23.0171 -3.81184e-15 3.13488e-17 0.327731 -2.86811e-16 4.05318e-16)
(5.7966e-16 3.90562e-30 -2.03472e-31 22.8952 5.35154e-15 -2.03452e-14 0.331956 -7.58068e-17 -2.94881e-16)
(2.31864e-15 -6.68456e-30 0 22.8952 -3.64037e-15 3.18011e-17 0.331956 -3.00155e-16 4.21495e-16)
(-6.02139e-16 -1.3629e-29 -1.42771e-30 22.756 5.38856e-15 -2.01798e-14 0.335956 -7.84039e-17 -2.97408e-16)
(2.40856e-15 1.64052e-29 2.05065e-30 22.756 -4.07628e-15 2.90823e-17 0.335956 -3.12647e-16 4.37816e-16)
(-6.24932e-16 -1.33308e-29 -1.38805e-30 22.5979 5.77543e-15 -1.99416e-14 0.339694 -7.97597e-17 -2.98805e-16)
(0 1.61046e-29 2.01307e-30 22.5979 -4.86106e-15 2.68233e-17 0.339694 -3.32873e-16 4.54503e-16)
(0 1.58094e-29 1.97618e-30 22.4196 5.75157e-15 -1.96301e-14 0.343134 -9.30326e-17 -2.99039e-16)
(2.5921e-15 -1.58094e-29 -1.97618e-30 22.4196 -4.20785e-15 1.37754e-17 0.343134 -3.49155e-16 4.71427e-16)
(-1.34281e-15 1.48506e-29 1.26068e-30 22.2198 4.58313e-15 -1.9244e-14 0.346238 -8.2032e-17 -2.97973e-16)
(1.81193e-15 -6.2079e-30 -3.87994e-31 22.2198 -3.31673e-15 3.22587e-17 0.346238 -3.57324e-16 4.88714e-16)
(0 -9.14121e-30 -1.52353e-30 21.9975 3.81674e-15 -1.87861e-14 0.348973 -5.99504e-17 -2.95703e-16)
(0 9.14121e-30 1.52353e-30 21.9975 -2.976e-15 6.61513e-17 0.348973 -3.74529e-16 5.06097e-16)
(8.41957e-16 -5.98247e-30 -7.47808e-31 21.7519 4.15279e-15 -1.82556e-14 0.351307 -6.06767e-17 -2.91963e-16)
(0 5.98247e-30 7.47808e-31 21.7519 -3.25433e-15 8.40397e-17 0.351307 -3.90315e-16 5.23563e-16)
(-7.43054e-16 5.70248e-30 1.74181e-30 21.4827 5.226e-15 -1.76514e-14 0.353211 -7.31288e-17 -2.86846e-16)
(-3.79874e-15 0 -1.10116e-30 21.4827 -3.4112e-15 8.84551e-17 0.353211 -4.05756e-16 5.40779e-16)
(7.67361e-16 1.22923e-31 7.61168e-32 21.1896 6.29475e-15 -1.69809e-14 0.354663 -9.84864e-17 -2.80357e-16)
(2.25806e-15 0 0 21.1896 -3.40221e-15 8.04393e-17 0.354663 -4.15466e-16 5.57859e-16)
(7.91834e-16 1.13939e-29 2.1813e-30 20.873 6.21063e-15 -1.62619e-14 0.355647 -1.1192e-16 -2.7296e-16)
(-3.16734e-15 -1.41489e-29 -2.47606e-30 20.873 -4.48459e-15 6.53532e-17 0.355647 -4.25686e-16 5.74412e-16)
(-8.16443e-16 -2.80117e-30 -4.19431e-32 20.5336 5.24572e-15 -1.55052e-14 0.35615 -9.93082e-17 -2.64447e-16)
(3.26577e-15 5.55587e-30 3.47242e-31 20.5336 -4.32656e-15 3.42385e-17 0.35615 -4.52562e-16 5.90758e-16)
(0 -1.63622e-29 -1.70439e-30 20.1722 4.79523e-15 -1.47196e-14 0.356169 -8.2377e-17 -2.55245e-16)
(6.72922e-15 1.63622e-29 1.70439e-30 20.1722 -3.08179e-15 -9.00732e-19 0.356169 -4.70026e-16 6.06744e-16)
(2.37298e-15 -2.41686e-29 -2.66831e-30 19.7904 5.30769e-15 -1.39183e-14 0.355708 -8.69942e-17 -2.45318e-16)
(1.95668e-15 1.60623e-29 2.34242e-30 19.7904 -3.38854e-15 3.93707e-17 0.355708 -4.82693e-16 6.21656e-16)
(-8.90743e-16 1.0631e-29 1.97836e-30 19.3898 5.28863e-15 -1.3107e-14 0.354776 -1.04087e-16 -2.34857e-16)
(-3.56297e-15 -2.628e-30 -9.855e-31 19.3898 -3.68159e-15 1.05757e-16 0.354776 -5.05143e-16 6.36097e-16)
(1.45232e-15 -7.73953e-30 -6.44961e-31 18.9725 4.80459e-15 -1.23079e-14 0.353388 -8.95676e-17 -2.24458e-16)
(0 7.73953e-30 6.44961e-31 18.9725 -3.42454e-15 6.52237e-17 0.353388 -5.18512e-16 6.50534e-16)
(-2.36604e-15 1.54066e-29 2.25447e-30 18.5405 5.48824e-15 -1.15182e-14 0.351567 -8.97727e-17 -2.13398e-16)
(0 -5.06514e-30 -1.26628e-30 18.5405 -3.8639e-15 2.20657e-17 0.351567 -5.31135e-16 6.64129e-16)
(1.39958e-15 -4.97232e-30 -6.2154e-31 18.0964 6.2272e-15 -1.07406e-14 0.34934 -1.1918e-16 -2.02519e-16)
(-1.39958e-15 4.97232e-30 6.2154e-31 18.0964 -4.39573e-15 5.75551e-17 0.34934 -5.5793e-16 6.76881e-16)
(0 1.2203e-29 1.2203e-30 17.6424 6.83813e-15 -9.99899e-15 0.346736 -1.22045e-16 -1.91904e-16)
(-3.95853e-15 -1.46436e-29 -2.4406e-30 17.6424 -4.84499e-15 7.59383e-17 0.346736 -5.85801e-16 6.89615e-16)
(-3.34659e-16 6.85964e-30 8.16603e-31 17.1811 7.75674e-15 -9.28691e-15 0.34379 -1.48001e-16 -1.81263e-16)
(0 -4.79176e-30 -5.98969e-31 17.1811 -5.09143e-15 6.19134e-17 0.34379 -6.09184e-16 7.01821e-16)
(-1.03841e-15 -1.98679e-30 -1.98663e-31 16.7149 7.40146e-15 -8.6195e-15 0.340536 -1.63909e-16 -1.71554e-16)
(0 7.05592e-30 1.17599e-30 16.7149 -5.05658e-15 1.48991e-17 0.340536 -6.34135e-16 7.13347e-16)
(-2.12505e-15 -8.41845e-30 -9.37653e-31 16.2462 6.73335e-15 -8.01038e-15 0.337012 -1.38896e-16 -1.62451e-16)
(4.2501e-15 6.92663e-30 5.77219e-31 16.2462 -5.04108e-15 -1.49229e-17 0.337012 -6.57902e-16 7.24511e-16)
(-1.08643e-15 2.71312e-30 4.04304e-31 15.7771 6.07658e-15 -7.45297e-15 0.333253 -1.41961e-16 -1.54116e-16)
(0 0 0 15.7771 -4.9187e-15 5.6428e-17 0.333253 -6.79217e-16 7.35534e-16)
(-2.22021e-15 2.76785e-29 3.60375e-30 15.3097 5.35279e-15 -6.9583e-15 0.329294 -1.15966e-16 -1.46965e-16)
(-4.44042e-15 -2.22503e-29 -2.78129e-30 15.3097 -4.53199e-15 1.67332e-16 0.329294 -7.03986e-16 7.47459e-16)
(1.13353e-15 6.02587e-30 6.74244e-31 14.8459 5.67264e-15 -6.51933e-15 0.325172 -1.15693e-16 -1.40389e-16)
(-4.53411e-15 -1.31056e-29 -1.63819e-30 14.8459 -4.01947e-15 1.84056e-16 0.325172 -7.30988e-16 7.59455e-16)
(-1.2071e-15 8.57693e-30 2.14423e-30 14.3873 5.97448e-15 -6.13028e-15 0.320917 -1.34569e-16 -1.34867e-16)
(0 -4.28847e-30 -5.36058e-31 14.3873 -3.3789e-15 7.9429e-17 0.320917 -7.55175e-16 7.70588e-16)
(-2.35911e-15 -7.22729e-30 -7.18115e-31 13.9355 5.7904e-15 -5.78564e-15 0.316561 -1.33735e-16 -1.29766e-16)
(9.43643e-15 8.41976e-30 1.57871e-30 13.9355 -3.07823e-15 -4.85078e-18 0.316561 -7.72797e-16 7.79932e-16)
(-1.20213e-15 1.09636e-29 2.50239e-30 13.4916 5.39373e-15 -5.48912e-15 0.312132 -1.3114e-16 -1.26002e-16)
(4.80854e-15 -8.26547e-30 -2.06637e-30 13.4916 -3.94321e-15 3.42628e-17 0.312132 -7.91454e-16 7.89229e-16)
(1.14195e-15 -8.11401e-30 -1.52138e-30 13.0568 4.94523e-15 -5.24513e-15 0.307655 -1.20116e-16 -1.22965e-16)
(0 8.11401e-30 2.0285e-30 13.0568 -4.11519e-15 8.03369e-17 0.307655 -8.1593e-16 7.98901e-16)
(-2.36741e-15 2.69459e-30 4.46846e-31 12.6319 5.69976e-15 -5.04119e-15 0.303154 -1.14592e-16 -1.20796e-16)
(4.98555e-15 7.96532e-30 1.4935e-30 12.6319 -3.84649e-15 3.93493e-17 0.303154 -8.37314e-16 8.08252e-16)
(-1.10048e-15 7.81936e-30 1.95484e-30 12.2176 6.67399e-15 -4.86973e-15 0.298648 -1.6147e-16 -1.19074e-16)
(0 -3.90968e-30 -9.7742e-31 12.2176 -4.66122e-15 2.40922e-17 0.298648 -8.62118e-16 8.17159e-16)
(-2.36971e-15 1.03544e-29 1.89635e-30 11.8144 5.08991e-15 -4.73104e-15 0.294156 -1.67348e-16 -1.18323e-16)
(0 -3.83804e-30 -4.79755e-31 11.8144 -4.12347e-15 8.78141e-17 0.294156 -8.94967e-16 8.25827e-16)
(0 7.53541e-30 1.88385e-30 11.4227 2.90276e-15 -4.63599e-15 0.289693 -8.73239e-17 -1.18657e-16)
(0 -3.76771e-30 -9.41926e-31 11.4227 -2.05224e-15 1.34548e-16 0.289693 -9.24732e-16 8.35097e-16)
(0 -1.47947e-29 -3.69866e-30 11.0428 3.40952e-15 -4.57083e-15 0.285274 -6.08108e-17 -1.19357e-16)
(5.32456e-15 1.47947e-29 3.69866e-30 11.0428 -1.97273e-15 9.936e-17 0.285274 -9.44631e-16 8.44955e-16)
(0 2.17853e-29 3.17703e-30 10.6748 4.36531e-15 -4.49754e-15 0.280908 -1.17248e-16 -1.19204e-16)
(0 -2.17853e-29 -3.17703e-30 10.6748 -3.57938e-15 1.58808e-17 0.280908 -9.69835e-16 8.53642e-16)
(-1.37163e-15 -8.88283e-31 9.17925e-31 10.3188 4.03186e-15 -4.46478e-15 0.276607 -1.14273e-16 -1.22068e-16)
(5.48651e-15 3.56435e-30 4.45544e-31 10.3188 -2.80462e-15 -5.60149e-18 0.276607 -1.00363e-15 8.60526e-16)
(0 -1.74952e-29 -2.62428e-30 9.97469 3.81384e-15 -4.4747e-15 0.272378 -1.03481e-16 -1.24247e-16)
(5.56564e-15 1.74952e-29 2.62428e-30 9.97469 -1.63127e-15 6.54788e-17 0.272378 -1.02514e-15 8.67226e-16)
(-5.27826e-15 1.29784e-29 3.91418e-30 9.64243 3.3468e-15 -4.4829e-15 0.268227 -1.06467e-16 -1.27132e-16)
(-1.77617e-15 -1.03048e-29 -3.43492e-30 9.64243 -3.08535e-15 1.7565e-16 0.268227 -1.04316e-15 8.75645e-16)
(1.89825e-15 -6.74395e-30 -1.26449e-30 9.32183 3.28595e-15 -4.52519e-15 0.264159 -8.09494e-17 -1.31367e-16)
(-5.72025e-15 6.74395e-30 1.68599e-30 9.32183 -3.59909e-15 1.41329e-16 0.264159 -1.07475e-15 8.84992e-16)
(-2.89789e-15 2.03365e-30 9.73102e-31 9.01268 3.58335e-15 -4.56715e-15 0.260179 -1.06971e-16 -1.34387e-16)
(5.79577e-15 3.31018e-30 0 9.01268 -3.14224e-15 -7.88228e-18 0.260179 -1.09695e-15 8.92266e-16)
(-2.93507e-15 8.59217e-30 9.80873e-31 8.71472 4.09341e-15 -4.60837e-15 0.256289 -1.01464e-16 -1.38783e-16)
(0 -3.24953e-30 0 8.71472 -3.19632e-15 -4.9921e-17 0.256289 -1.12839e-15 9.00981e-16)
(0 -9.56994e-30 -1.59499e-30 8.42769 5.2187e-15 -4.66626e-15 0.252492 -1.41514e-16 -1.42978e-16)
(5.94339e-15 9.56994e-30 1.59499e-30 8.42769 -3.04798e-15 1.06009e-17 0.252492 -1.14263e-15 9.07e-16)
(-6.79256e-15 2.14435e-29 5.19502e-30 8.15128 5.71138e-15 -4.71235e-15 0.248788 -1.73861e-16 -1.46874e-16)
(-4.25264e-15 -1.56576e-29 -3.9144e-30 8.15128 -3.22291e-15 9.09546e-17 0.248788 -1.17757e-15 9.12285e-16)
(1.52165e-15 -1.18702e-29 -2.03893e-30 7.88517 5.18897e-15 -4.76304e-15 0.245179 -1.77429e-16 -1.51571e-16)
(0 9.22242e-30 1.53707e-30 7.88517 -2.79794e-15 1.72384e-16 0.245179 -1.21941e-15 9.21427e-16)
(1.53915e-15 -8.68289e-30 -2.01496e-30 7.62903 4.09806e-15 -4.8424e-15 0.241664 -1.47379e-16 -1.5752e-16)
(-6.15659e-15 6.03561e-30 1.5089e-30 7.62903 -3.09677e-15 1.17381e-16 0.241664 -1.21406e-15 9.32258e-16)
(-3.11278e-15 1.41853e-29 3.24273e-30 7.38253 4.05125e-15 -4.91911e-15 0.238243 -1.13845e-16 -1.62316e-16)
(0 -5.92501e-30 -1.48125e-30 7.38253 -3.53416e-15 -2.34121e-17 0.238243 -1.24771e-15 9.38616e-16)
(0 8.72466e-30 1.45411e-30 7.14533 5.20204e-15 -4.98829e-15 0.234916 -1.49861e-16 -1.6808e-16)
(0 -1.45411e-29 -2.18116e-30 7.14533 -3.93313e-15 1.06241e-16 0.234916 -1.27413e-15 9.44098e-16)
(-1.70484e-17 -2.62945e-30 1.94842e-31 6.91709 5.78449e-15 -5.06279e-15 0.23168 -1.95056e-16 -1.73505e-16)
(-1.27211e-14 0 -7.13732e-31 6.91709 -4.91679e-15 2.90434e-16 0.23168 -1.29885e-15 9.5371e-16)
(3.18438e-15 -1.10314e-29 -3.32643e-30 6.69748 4.89696e-15 -5.14205e-15 0.228535 -1.95166e-16 -1.79912e-16)
(-1.57773e-15 8.40784e-30 2.80261e-30 6.69748 -3.44728e-15 1.53804e-16 0.228535 -1.33943e-15 9.65676e-16)
(1.54882e-15 -1.37563e-29 -4.12688e-30 6.48616 3.52253e-15 -5.22769e-15 0.22548 -1.40846e-16 -1.86093e-16)
(4.94289e-15 1.37563e-29 4.12688e-30 6.48616 -2.40615e-15 -9.33074e-17 0.22548 -1.35888e-15 9.75388e-16)
(1.63898e-15 -5.32657e-30 -5.34208e-31 6.28281 2.47539e-15 -5.31184e-15 0.222511 -1.0541e-16 -1.92748e-16)
(6.55594e-15 2.70084e-30 0 6.28281 -4.03986e-15 -3.85526e-17 0.222511 -1.38396e-15 9.80223e-16)
(1.16808e-15 -1.5959e-29 -4.22434e-30 6.08711 2.2389e-15 -5.39618e-15 0.219628 -7.07865e-17 -1.99289e-16)
(0 1.59081e-29 3.97702e-30 6.08711 -5.42113e-15 8.65641e-17 0.219628 -1.45273e-15 9.86562e-16)
(-1.87568e-15 -1.298e-29 -3.46015e-30 5.89876 3.008e-15 -5.17586e-15 0.216829 -9.20428e-17 -1.83556e-16)
(6.68181e-15 1.56166e-29 4.55483e-30 5.89876 -3.70644e-15 7.398e-17 0.216829 -1.49691e-15 9.92304e-16)
(1.68588e-15 -2.04951e-29 -4.38612e-30 5.71746 2.9579e-15 -4.79646e-15 0.21411 -1.30895e-16 -1.77934e-16)
(1.3487e-14 1.78855e-29 3.8326e-30 5.71746 -1.15893e-15 1.94249e-16 0.21411 -1.48722e-15 1.00043e-15)
(-2.89082e-16 -2.40291e-30 -6.96818e-31 5.54291 2.42861e-15 -4.77584e-15 0.211471 -9.16992e-17 -1.88875e-16)
(-1.41202e-15 1.0033e-29 1.88118e-30 5.54291 -1.96058e-15 1.91616e-16 0.211471 -1.4939e-15 1.0103e-15)
(-3.43226e-15 5.22592e-30 1.1237e-30 5.37483 3.90163e-15 -4.94353e-15 0.208909 -9.48078e-17 -1.97878e-16)
(6.86451e-15 0 0 5.37483 -3.24812e-15 -2.50239e-17 0.208909 -1.51976e-15 1.01401e-15)
(-1.73097e-15 2.5896e-30 5.66421e-31 5.21296 6.21442e-15 -5.10671e-15 0.206422 -2.11446e-16 -2.09115e-16)
(6.92388e-15 4.83433e-30 1.20858e-30 5.21296 -4.261e-15 -8.31981e-17 0.206422 -1.55015e-15 1.0182e-15)
(-5.34323e-15 1.18643e-29 2.37287e-30 5.05704 6.81996e-15 -5.07685e-15 0.204008 -2.84377e-16 -2.02888e-16)
(0 -4.74574e-30 -5.93217e-31 5.05704 -5.52917e-15 -2.67517e-17 0.204008 -1.63931e-15 1.01975e-15)
(1.76011e-15 -9.55364e-30 -2.90747e-30 4.90681 5.90164e-15 -4.95437e-15 0.201664 -2.69021e-16 -2.06774e-16)
(7.04044e-15 6.98816e-30 2.32939e-30 4.90681 -4.11221e-15 -8.04724e-18 0.201664 -1.74077e-15 1.0198e-15)
(4.34902e-15 -1.62848e-29 -4.01198e-30 4.76204 4.82311e-15 -5.04502e-15 0.199389 -2.18458e-16 -2.18239e-16)
(4.52308e-15 1.37202e-29 3.43005e-30 4.76204 -2.52704e-15 -8.25628e-17 0.199389 -1.76035e-15 1.02037e-15)
(-1.78856e-15 2.56155e-30 -5.36134e-31 4.6225 3.91756e-15 -5.19601e-15 0.19718 -1.87473e-16 -2.27641e-16)
(7.15424e-15 4.4896e-30 1.6836e-30 4.6225 -2.81659e-15 -1.09485e-17 0.19718 -1.7565e-15 1.01715e-15)
(4.28364e-15 -9.17407e-30 -3.34677e-30 4.48797 2.32795e-15 -5.21612e-15 0.195035 -1.48273e-16 -2.28236e-16)
(-2.4811e-15 6.61099e-30 2.75458e-30 4.48797 -1.45321e-15 1.16414e-16 0.195035 -1.80026e-15 1.02008e-15)
(-1.81636e-15 1.12271e-29 3.84266e-30 4.35824 1.56167e-15 -5.1687e-15 0.192952 -5.43139e-17 -2.31958e-16)
(7.26545e-15 -4.32656e-30 -2.16328e-30 4.35824 7.34188e-17 2.07517e-16 0.192952 -1.80426e-15 1.02237e-15)
(1.83003e-15 -6.8151e-30 -1.66302e-30 4.2331 1.69766e-15 -5.31026e-15 0.19093 -8.50023e-17 -2.49794e-16)
(0 4.24728e-30 1.06182e-30 4.2331 -2.11351e-16 2.49424e-16 0.19093 -1.77118e-15 1.0269e-15)
(-1.84355e-15 1.09083e-29 4.77699e-30 4.11237 1.84107e-15 -5.50143e-15 0.188965 -6.88088e-17 -2.58524e-16)
(7.37421e-15 -4.16945e-30 -3.12709e-30 4.11237 -3.6241e-16 -2.55718e-17 0.188965 -1.77765e-15 1.03368e-15)
(1.85693e-15 1.5302e-30 1.43127e-30 3.99587 3.05333e-15 -5.51022e-15 0.187057 -1.01578e-16 -2.60042e-16)
(5.12354e-15 0 -1.02326e-30 3.99587 -7.75058e-16 -9.07151e-17 0.187057 -1.7841e-15 1.03826e-15)
(0 4.01804e-30 3.01353e-30 3.8834 4.15489e-15 -5.52797e-15 0.185204 -1.86549e-16 -2.69984e-16)
(7.48067e-15 0 -2.00902e-30 3.8834 -1.75938e-15 2.74182e-16 0.185204 -1.79548e-15 1.03695e-15)
(0 7.88883e-30 1.97221e-30 3.77482 4.38439e-15 -5.69466e-15 0.183404 -2.11991e-16 -2.8627e-16)
(-7.53307e-15 -3.94441e-30 -9.86104e-31 3.77482 -1.80847e-15 3.15995e-16 0.183404 -1.83694e-15 1.04339e-15)
(0 1.54885e-29 3.87213e-30 3.66996 3.60099e-15 -5.75291e-15 0.181654 -2.16199e-16 -2.86006e-16)
(7.58495e-15 -1.54885e-29 -3.87213e-30 3.66996 -1.62182e-15 5.77969e-17 0.181654 -1.83428e-15 1.04707e-15)
(-1.90908e-15 -1.2675e-29 -4.09665e-30 3.56866 3.02998e-15 -4.78814e-15 0.179954 -1.41323e-16 -1.98381e-16)
(0 1.52047e-29 5.70177e-30 3.56866 -2.21851e-15 1.41709e-17 0.179954 -1.8446e-15 1.04772e-15)
(-1.92179e-15 2.52163e-30 -3.54604e-30 3.47078 3.57113e-15 -1.30233e-15 0.178302 -1.65943e-16 -3.36083e-17)
(7.68717e-15 7.46305e-30 0 3.47078 -1.87554e-15 1.38482e-16 0.178302 -1.90995e-15 1.04715e-15)
(2.06217e-15 -3.66314e-30 -2.74736e-30 3.37619 3.42829e-15 -5.83312e-16 0.176695 -2.0303e-16 -2.76731e-17)
(0 3.66314e-30 2.74736e-30 3.37619 -2.49775e-15 2.2219e-16 0.176695 -1.93613e-15 1.05012e-15)
(-2.02438e-15 7.19204e-30 -4.79491e-31 3.28474 3.36417e-15 -1.39518e-30 0.175134 -1.57036e-16 -7.88861e-31)
(0 -3.59602e-30 -8.99004e-31 3.28474 -2.77694e-15 1.28344e-16 0.175134 -1.96562e-15 1.05131e-15)
(1.95923e-15 -2.36736e-29 -5.09303e-30 3.19632 4.67098e-15 -6.30068e-17 0.173615 -2.03748e-16 -1.14552e-17)
(7.83691e-15 1.76506e-29 2.64759e-30 3.19632 -2.024e-15 6.02911e-17 0.173615 -1.96213e-15 1.0458e-15)
(2.06149e-17 4.45731e-30 2.78731e-30 3.1108 5.80761e-15 -2.2516e-16 0.172139 -3.06875e-16 -1.35914e-17)
(7.88592e-15 0 -8.66358e-31 3.1108 -2.48237e-15 3.99628e-17 0.172139 -1.99488e-15 1.04288e-15)
(0 0 0 3.02806 5.26183e-15 -1.63373e-16 0.170702 -3.38943e-16 -4.82559e-18)
(7.9345e-15 3.40193e-30 8.50483e-31 3.02806 -3.04129e-15 8.4985e-18 0.170702 -2.01416e-15 1.04115e-15)
(-3.99133e-15 4.92054e-30 -3.19425e-31 2.948 4.50932e-15 -2.03824e-16 0.169305 -2.56065e-16 -1.88127e-17)
(7.98265e-15 0 1.6698e-30 2.948 -3.12157e-15 -1.20955e-16 0.169305 -2.03517e-15 1.04119e-15)
(2.0076e-15 -1.55549e-29 -3.13311e-30 2.87052 4.82612e-15 -3.10756e-16 0.167946 -2.64111e-16 -1.76883e-17)
(8.0304e-15 1.31136e-29 2.4588e-30 2.87052 -3.35806e-15 -5.36965e-17 0.167946 -2.09767e-15 1.04049e-15)
(0 1.28733e-29 3.81278e-30 2.7955 4.97168e-15 -1.68155e-16 0.166623 -3.03283e-16 -5.03143e-18)
(-8.07775e-15 -1.28733e-29 -4.0229e-30 2.7955 -4.60723e-15 2.08699e-16 0.166623 -2.1653e-15 1.04275e-15)
(-3.55711e-15 3.15934e-30 0 2.72286 5.0743e-15 2.20203e-29 0.165335 -2.91647e-16 0)
(0 0 -2.36951e-30 2.72286 -3.36638e-15 2.09676e-16 0.165335 -2.24113e-15 1.04509e-15)
(-4.08565e-15 1.40934e-29 5.20498e-30 2.6525 5.75997e-15 -1.67113e-16 0.164082 -3.27339e-16 -3.16736e-17)
(0 -9.30435e-30 -3.87681e-30 2.6525 -2.45958e-15 -2.31976e-17 0.164082 -2.26476e-15 1.04314e-15)
(-3.76835e-15 8.45936e-30 2.18046e-30 2.58434 7.04439e-15 -6.6743e-16 0.162862 -3.8859e-16 -5.29624e-17)
(0 -3.04462e-30 0 2.58434 -3.53875e-15 1.46664e-16 0.162862 -2.28198e-15 1.03545e-15)
(-3.36512e-15 1.49441e-29 4.48324e-30 2.51829 8.14101e-15 -7.64311e-16 0.161673 -5.03686e-16 -4.54692e-17)
(-8.26338e-15 -1.19553e-29 -3.73603e-30 2.51829 -6.0753e-15 3.65158e-16 0.161673 -2.34098e-15 1.04467e-15)
(4.15445e-15 -1.70117e-30 1.59722e-31 2.45428 7.29731e-15 -8.64196e-16 0.160516 -5.45879e-16 -6.81935e-17)
(0 -2.93406e-30 -1.46703e-30 2.45428 -6.55844e-15 6.95802e-17 0.160516 -2.50837e-15 1.04855e-15)
(9.34117e-16 9.75938e-30 2.29644e-30 2.39222 5.18492e-15 -1.09532e-15 0.159389 -4.10871e-16 -7.83799e-17)
(8.35407e-15 -1.15212e-29 -3.60036e-30 2.39222 -3.76977e-15 -3.74684e-16 0.159389 -2.56464e-15 1.05089e-15)
(-2.09973e-15 2.32521e-30 -5.81194e-32 2.33204 4.43264e-15 -1.3243e-15 0.15829 -2.8132e-16 -1.02248e-16)
(8.39892e-15 5.65502e-30 2.12063e-30 2.33204 -4.17301e-15 -2.94029e-16 0.15829 -2.5965e-15 1.04187e-15)
(4.22172e-15 -1.83193e-30 -6.09482e-31 2.27368 4.72041e-15 -1.22437e-15 0.15722 -3.22915e-16 -6.73362e-17)
(0 -2.7757e-30 -6.93924e-31 2.27368 -5.36289e-15 -1.04917e-16 0.15722 -2.69161e-15 1.03501e-15)
(2.12192e-15 -2.2867e-30 -1.32891e-30 2.21706 4.19111e-15 -1.02117e-15 0.156177 -3.32228e-16 -7.71082e-17)
(8.48767e-15 0 6.81208e-31 2.21706 -6.91432e-15 -9.98522e-17 0.156177 -2.81572e-15 1.02361e-15)
(-5.14457e-15 1.03148e-29 1.98103e-30 2.16213 4.19639e-15 -1.19472e-15 0.15516 -2.59562e-16 -9.50973e-17)
(0 -2.6749e-30 0 2.16213 -7.25333e-15 -9.60277e-17 0.15516 -2.99394e-15 1.02849e-15)
(0 0 -1.96941e-30 2.10882 5.39669e-15 -1.74152e-15 0.154169 -3.45514e-16 -1.60972e-16)
(1.71504e-14 2.62588e-30 3.28236e-30 2.10882 -6.41988e-15 -3.23213e-16 0.154169 -3.06121e-15 1.03085e-15)
(-2.15463e-15 -5.48858e-30 -3.23618e-30 2.05707 5.94838e-15 -2.40938e-15 0.153202 -4.47054e-16 -1.99408e-16)
(-2.90231e-15 1.28888e-29 5.15553e-30 2.05707 -5.01468e-15 -9.2611e-18 0.153202 -3.15519e-15 1.04518e-15)
(0 -7.59159e-30 -4.42843e-30 2.00683 4.05235e-15 -2.67151e-15 0.152259 -4.41741e-16 -2.07311e-16)
(1.73231e-14 1.26526e-29 5.69369e-30 2.00683 -1.82115e-15 3.19086e-16 0.152259 -3.25932e-15 1.07213e-15)
(-2.17608e-15 1.46794e-29 4.3677e-30 1.95804 4.51174e-16 -2.40477e-15 0.15134 -1.72602e-16 -1.65175e-16)
(0 -1.24208e-29 -3.72624e-30 1.95804 -9.37913e-16 5.01478e-16 0.15134 -3.26272e-15 1.08492e-15)
(0 -3.2359e-30 -2.43864e-30 1.91065 -4.87581e-29 -1.53522e-15 0.150442 0 -7.64939e-17)
(8.74684e-15 4.87727e-30 2.43864e-30 1.91065 -8.95877e-16 3.27338e-16 0.150442 -3.27436e-15 1.09791e-15)
(4.89262e-15 -1.42471e-29 -7.82941e-30 1.86462 1.27028e-15 -1.12162e-15 0.149567 -8.38167e-17 -1.04231e-16)
(1.48828e-14 1.19697e-29 7.18185e-30 1.86462 -1.41714e-15 -2.9742e-16 0.149567 -3.27607e-15 1.09391e-15)
(-2.20777e-15 -2.42957e-30 1.82106e-30 1.81989 1.83649e-15 -1.41011e-15 0.148712 -1.20914e-16 -1.27102e-16)
(8.83107e-15 9.40033e-30 0 1.81989 -3.04078e-15 5.20303e-17 0.148712 -3.332e-15 1.10016e-15)
(2.2182e-15 4.66125e-30 1.48652e-30 1.77643 2.51291e-15 -9.88641e-16 0.147877 -1.80644e-16 -4.12666e-17)
(8.87281e-15 -2.30702e-30 -1.15351e-30 1.77643 -3.36164e-15 6.91875e-16 0.147877 -3.40006e-15 1.11009e-15)
(-1.90728e-15 6.75838e-30 3.56888e-30 1.73418 2.95255e-15 -5.30533e-16 0.147063 -2.39462e-16 -4.9038e-17)
(6.36443e-15 -2.26474e-30 -1.13237e-30 1.73418 -2.36439e-15 8.86136e-17 0.147063 -3.46453e-15 1.10416e-15)
(-2.50315e-15 -4.44648e-30 -2.22324e-30 1.6931 4.04831e-15 -8.87027e-16 0.146267 -2.62923e-16 -1.05162e-16)
(1.79111e-14 1.11162e-29 4.44648e-30 1.6931 -1.23557e-15 -4.0368e-16 0.146267 -3.52099e-15 1.06742e-15)
(0 4.365e-30 3.27375e-30 1.65316 4.33947e-15 -9.843e-16 0.145489 -4.40102e-16 -6.82136e-17)
(6.53932e-15 0 -2.1825e-30 1.65316 -8.93339e-16 2.06129e-16 0.145489 -3.52923e-15 1.05875e-15)
(-2.25935e-15 6.50542e-30 2.13565e-30 1.61432 3.23485e-15 -3.67214e-16 0.14473 -3.24697e-16 -1.65047e-17)
(-2.41225e-15 0 -1.07125e-30 1.61432 -2.78864e-15 6.28554e-16 0.14473 -3.5039e-15 1.07285e-15)
(2.26949e-15 1.97344e-30 -6.30584e-45 1.57653 3.47765e-15 -1.16443e-29 0.143988 -2.5624e-16 -4.82375e-46)
(0 -8.41298e-30 -6.30974e-30 1.57653 -3.55845e-15 3.52662e-16 0.143988 -3.58003e-15 1.07273e-15)
(0 4.12941e-30 2.0647e-30 1.53977 3.63305e-15 5.40148e-17 0.143262 -3.81814e-16 -1.52281e-17)
(-2.32465e-15 0 -1.03235e-30 1.53977 -2.49625e-15 9.09386e-17 0.143262 -3.58627e-15 1.05885e-15)
(-2.28963e-15 1.43728e-29 2.10195e-44 1.504 3.25446e-15 1.87937e-29 0.142552 -2.95158e-16 0)
(-2.28205e-15 -1.21612e-29 -5.06717e-30 1.504 -2.29609e-15 4.95554e-17 0.142552 -3.63761e-15 1.05376e-15)
(-5.93792e-17 6.17839e-30 1.62533e-30 1.46919 3.76163e-15 1.32298e-15 0.141858 -3.23581e-16 -9.61265e-17)
(-1.14387e-14 0 0 1.46919 -2.57796e-15 -1.28604e-16 0.141858 -3.74243e-15 1.03883e-15)
(-2.30955e-15 -5.6367e-30 -1.33881e-30 1.43531 3.71565e-15 1.30633e-15 0.14118 -4.05379e-16 -1.60581e-16)
(1.84764e-14 7.81307e-30 2.9299e-30 1.43531 -2.22167e-15 7.92265e-18 0.14118 -3.78336e-15 9.93412e-16)
(0 -1.15048e-29 -6.71116e-30 1.40232 3.63921e-15 8.5479e-16 0.140515 -3.26622e-16 -9.64364e-17)
(9.27776e-15 1.15048e-29 6.71116e-30 1.40232 -2.77597e-15 1.32783e-16 0.140515 -3.77051e-15 9.64802e-16)
(-2.32928e-15 5.9094e-30 1.56145e-30 1.3702 4.56223e-15 1.00808e-15 0.139865 -4.05157e-16 -7.50779e-17)
(9.31712e-15 0 0 1.3702 -3.49899e-15 1.94653e-17 0.139865 -3.91345e-15 9.36592e-16)
(-2.08049e-15 3.69569e-30 1.84784e-30 1.33892 4.40936e-15 1.50704e-15 0.139228 -5.29571e-16 -1.31732e-16)