/*--------------------------------*- C++ -*----------------------------------*\
| =========                 |                                                 |
| \\      /  F ield         | OpenFOAM: The Open Source CFD Toolbox           |
|  \\    /   O peration     | Version:  2106                                  |
|   \\  /    A nd           | Website:  www.openfoam.com                      |
|    \\/     M anipulation  |                                                 |
\*---------------------------------------------------------------------------*/
FoamFile
{
    version     2.0;
    format      ascii;
    arch        "LSB;label=32;scalar=64";
    class       volScalarField;
    location    "10060";
    object      p;
}
// * * * * * * * * * * * * * * * * * * * * * * * * * * * * * * * * * * * * * //

dimensions      [0 2 -2 0 0 0 0];

internalField   nonuniform List<scalar> 
2000
(
2.14181e-15
1.68342e-14
4.59492e-15
1.68344e-14
5.04663e-15
1.68349e-14
4.98911e-15
1.68357e-14
5.04466e-15
1.68368e-14
5.17185e-15
1.68382e-14
5.29946e-15
1.68399e-14
5.41637e-15
1.68421e-14
5.52863e-15
1.68445e-14
5.63864e-15
1.68473e-14
5.74639e-15
1.68504e-14
5.85184e-15
1.68538e-14
5.9549e-15
1.68575e-14
6.05551e-15
1.68614e-14
6.15358e-15
1.68656e-14
6.24908e-15
1.68701e-14
6.34232e-15
1.68747e-14
6.43322e-15
1.68796e-14
6.52178e-15
1.68846e-14
6.60801e-15
1.68899e-14
6.69203e-15
1.68953e-14
6.77388e-15
1.69011e-14
6.85361e-15
1.6907e-14
6.93131e-15
1.69132e-14
7.00693e-15
1.69195e-14
7.08055e-15
1.69259e-14
7.1522e-15
1.69327e-14
7.22217e-15
1.69395e-14
7.29025e-15
1.69465e-14
7.35655e-15
1.69536e-14
7.42092e-15
1.69607e-14
7.48373e-15
1.69678e-14
7.54504e-15
1.6975e-14
7.60474e-15
1.69823e-14
7.6629e-15
1.69897e-14
7.7196e-15
1.69972e-14
7.77504e-15
1.70048e-14
7.82922e-15
1.70124e-14
7.88216e-15
1.70203e-14
7.93399e-15
1.70282e-14
7.98449e-15
1.70365e-14
8.03389e-15
1.70448e-14
8.08291e-15
1.70532e-14
8.13131e-15
1.70613e-14
8.17887e-15
1.70693e-14
8.22539e-15
1.70772e-14
8.27131e-15
1.70851e-14
8.31687e-15
1.7093e-14
8.36208e-15
1.71013e-14
8.40692e-15
1.71097e-14
8.45129e-15
1.71177e-14
8.49587e-15
1.71254e-14
8.53951e-15
1.71336e-14
8.58312e-15
1.7142e-14
8.62669e-15
1.71505e-14
8.66881e-15
1.71592e-14
8.71062e-15
1.71685e-14
8.75231e-15
1.71787e-14
8.79339e-15
1.71895e-14
8.83452e-15
1.71999e-14
8.87592e-15
1.72096e-14
8.91731e-15
1.72193e-14
8.9584e-15
1.72296e-14
8.99939e-15
1.72404e-14
9.0415e-15
1.72508e-14
9.08341e-15
1.72614e-14
9.12505e-15
1.72724e-14
9.16636e-15
1.72833e-14
9.20861e-15
1.72938e-14
9.25231e-15
1.73038e-14
9.29521e-15
1.73145e-14
9.33946e-15
1.7326e-14
9.38329e-15
1.73378e-14
9.42662e-15
1.73489e-14
9.47288e-15
1.73585e-14
9.51848e-15
1.73693e-14
9.56451e-15
1.73807e-14
9.6115e-15
1.73927e-14
9.65687e-15
1.74043e-14
9.70365e-15
1.74154e-14
9.75305e-15
1.74249e-14
9.80177e-15
1.74361e-14
9.85098e-15
1.74484e-14
9.90057e-15
1.74573e-14
9.95112e-15
1.74655e-14
1.00018e-14
1.74744e-14
1.00539e-14
1.74849e-14
1.01074e-14
1.74936e-14
1.01606e-14
1.75035e-14
1.02149e-14
1.75131e-14
1.02708e-14
1.7519e-14
1.03276e-14
1.75256e-14
1.03835e-14
1.75331e-14
1.04354e-14
1.75401e-14
1.0489e-14
1.75483e-14
1.05444e-14
1.75563e-14
1.05982e-14
1.75674e-14
1.06517e-14
1.75769e-14
1.07063e-14
1.75868e-14
1.07634e-14
1.75922e-14
1.08213e-14
1.75998e-14
1.08782e-14
1.76099e-14
1.0937e-14
1.76192e-14
1.09959e-14
1.7623e-14
1.10547e-14
1.76281e-14
1.11148e-14
1.76331e-14
1.11742e-14
1.7638e-14
1.1238e-14
1.76398e-14
1.13023e-14
1.76367e-14
1.13723e-14
1.76359e-14
1.1439e-14
1.76341e-14
1.15055e-14
1.76316e-14
1.15734e-14
1.76338e-14
1.16425e-14
1.76374e-14
1.17124e-14
1.76392e-14
1.17829e-14
1.76356e-14
1.185e-14
1.76397e-14
1.19152e-14
1.76443e-14
1.19727e-14
1.76424e-14
1.20331e-14
1.76436e-14
1.20924e-14
1.7648e-14
1.21501e-14
1.7656e-14
1.22059e-14
1.76605e-14
1.2267e-14
1.76693e-14
1.23253e-14
1.7679e-14
1.23803e-14
1.76977e-14
1.24277e-14
1.77219e-14
1.24746e-14
1.77406e-14
1.25204e-14
1.77581e-14
1.25802e-14
1.7763e-14
1.26418e-14
1.77753e-14
1.27086e-14
1.77917e-14
1.27722e-14
1.77966e-14
1.28479e-14
1.77983e-14
1.29113e-14
1.78131e-14
1.29777e-14
1.78256e-14
1.30505e-14
1.7828e-14
1.31252e-14
1.78287e-14
1.32012e-14
1.78323e-14
1.32779e-14
1.78227e-14
1.33548e-14
1.77961e-14
1.34313e-14
1.77853e-14
1.35111e-14
1.77825e-14
1.35894e-14
1.77714e-14
1.36698e-14
1.77523e-14
1.37519e-14
1.7746e-14
1.38392e-14
1.77443e-14
1.39314e-14
1.77393e-14
1.4028e-14
1.77309e-14
1.41244e-14
1.77317e-14
1.42118e-14
1.77251e-14
1.43065e-14
1.77028e-14
1.43997e-14
1.76898e-14
1.45162e-14
1.76775e-14
1.46309e-14
1.76657e-14
1.47268e-14
1.76706e-14
1.48289e-14
1.76757e-14
1.49283e-14
1.76806e-14
1.50249e-14
1.76768e-14
1.51182e-14
1.76808e-14
1.52248e-14
1.76924e-14
1.53274e-14
1.77027e-14
1.54175e-14
1.77113e-14
1.55199e-14
1.77265e-14
1.56344e-14
1.77396e-14
1.57273e-14
1.77496e-14
1.58404e-14
1.77393e-14
1.59658e-14
1.77493e-14
1.60868e-14
1.77784e-14
1.62036e-14
1.78006e-14
1.63166e-14
1.78064e-14
1.64345e-14
1.78031e-14
1.6533e-14
1.78141e-14
1.66626e-14
1.78468e-14
1.67739e-14
1.78995e-14
1.69003e-14
1.79128e-14
1.69929e-14
1.7935e-14
1.70939e-14
1.79648e-14
1.71955e-14
1.80094e-14
1.73227e-14
1.80425e-14
1.74685e-14
1.80786e-14
1.75681e-14
1.80815e-14
1.76564e-14
1.81148e-14
1.77666e-14
1.81605e-14
1.78826e-14
1.82008e-14
1.79893e-14
1.8283e-14
1.81038e-14
1.84224e-14
1.82079e-14
1.8521e-14
1.83178e-14
1.86116e-14
1.84337e-14
1.86607e-14
1.85406e-14
1.87153e-14
1.86403e-14
1.87896e-14
1.87335e-14
1.88824e-14
1.8836e-14
1.89619e-14
1.8932e-14
1.90272e-14
1.90541e-14
1.91254e-14
1.91547e-14
1.92707e-14
1.92636e-14
1.93536e-14
1.93648e-14
1.94365e-14
1.94751e-14
1.95183e-14
1.95794e-14
1.95654e-14
1.96333e-14
1.96844e-14
1.97119e-14
1.97679e-14
1.97987e-14
1.98313e-14
1.98627e-14
1.98734e-14
1.9935e-14
2.00015e-14
1.99806e-14
2.00947e-14
2.00424e-14
2.01405e-14
2.01502e-14
2.02299e-14
2.02442e-14
2.03461e-14
2.03389e-14
2.04136e-14
2.04364e-14
2.04917e-14
2.04764e-14
2.05505e-14
2.05769e-14
2.06522e-14
2.06156e-14
2.07656e-14
2.07029e-14
2.08348e-14
2.08368e-14
2.09446e-14
2.09293e-14
2.10938e-14
2.1005e-14
2.11726e-14
2.11194e-14
2.12406e-14
2.13023e-14
2.13517e-14
2.13352e-14
2.14129e-14
2.13857e-14
2.14809e-14
2.15345e-14
2.15867e-14
2.16998e-14
2.17272e-14
2.18292e-14
2.18441e-14
2.19236e-14
2.19648e-14
2.20054e-14
2.20906e-14
2.20973e-14
2.21714e-14
2.22265e-14
2.22347e-14
2.23485e-14
2.22993e-14
2.24471e-14
2.23816e-14
2.24461e-14
2.2504e-14
2.2459e-14
2.25546e-14
2.25521e-14
2.26704e-14
2.25442e-14
2.28584e-14
2.26044e-14
2.29742e-14
2.26931e-14
2.30342e-14
2.27416e-14
2.31468e-14
2.27838e-14
2.32055e-14
2.28798e-14
2.31917e-14
2.30278e-14
2.3131e-14
2.31816e-14
2.31288e-14
2.31678e-14
2.31992e-14
2.31876e-14
2.31933e-14
2.3198e-14
2.31561e-14
2.31606e-14
2.31271e-14
2.31601e-14
2.31753e-14
2.31907e-14
2.31745e-14
2.3172e-14
2.31663e-14
1.35379e-14
1.4187e-14
1.35381e-14
1.41871e-14
1.35384e-14
1.41872e-14
1.35389e-14
1.41874e-14
1.35395e-14
1.41876e-14
1.35404e-14
1.41879e-14
1.35415e-14
1.41883e-14
1.35427e-14
1.41887e-14
1.35441e-14
1.41892e-14
1.35457e-14
1.41899e-14
1.35475e-14
1.41906e-14
1.35495e-14
1.41913e-14
1.35517e-14
1.41922e-14
1.3554e-14
1.41932e-14
1.35566e-14
1.41942e-14
1.35594e-14
1.41953e-14
1.35623e-14
1.41966e-14
1.35654e-14
1.41978e-14
1.35687e-14
1.41992e-14
1.35721e-14
1.42006e-14
1.35758e-14
1.42022e-14
1.35796e-14
1.42037e-14
1.35835e-14
1.42055e-14
1.35876e-14
1.42072e-14
1.3592e-14
1.4209e-14
1.35964e-14
1.42109e-14
1.36011e-14
1.42131e-14
1.3606e-14
1.42152e-14
1.3611e-14
1.42175e-14
1.36161e-14
1.42201e-14
1.36214e-14
1.42229e-14
1.36268e-14
1.42259e-14
1.36324e-14
1.42288e-14
1.36382e-14
1.42319e-14
1.36441e-14
1.4235e-14
1.36503e-14
1.42383e-14
1.36569e-14
1.42415e-14
1.36636e-14
1.4245e-14
1.36705e-14
1.42486e-14
1.36775e-14
1.42521e-14
1.36849e-14
1.42554e-14
1.36926e-14
1.42591e-14
1.37005e-14
1.42629e-14
1.37085e-14
1.4267e-14
1.37167e-14
1.42711e-14
1.37251e-14
1.42755e-14
1.37341e-14
1.42798e-14
1.37434e-14
1.42839e-14
1.37526e-14
1.42892e-14
1.37621e-14
1.42955e-14
1.37722e-14
1.4301e-14
1.37827e-14
1.43061e-14
1.3793e-14
1.43125e-14
1.38037e-14
1.43187e-14
1.38149e-14
1.43252e-14
1.38267e-14
1.43324e-14
1.38389e-14
1.43393e-14
1.38513e-14
1.43469e-14
1.38645e-14
1.43543e-14
1.38784e-14
1.43619e-14
1.38924e-14
1.43695e-14
1.39069e-14
1.43782e-14
1.39216e-14
1.43873e-14
1.39374e-14
1.43971e-14
1.39536e-14
1.44069e-14
1.39704e-14
1.44169e-14
1.39876e-14
1.4428e-14
1.40053e-14
1.44392e-14
1.4024e-14
1.44498e-14
1.40431e-14
1.44613e-14
1.40615e-14
1.44753e-14
1.4082e-14
1.4491e-14
1.4103e-14
1.45058e-14
1.41246e-14
1.45206e-14
1.41478e-14
1.45357e-14
1.4171e-14
1.45494e-14
1.41954e-14
1.45677e-14
1.42191e-14
1.45889e-14
1.42448e-14
1.46061e-14
1.42705e-14
1.46225e-14
1.42969e-14
1.46417e-14
1.43234e-14
1.46633e-14
1.43493e-14
1.46846e-14
1.43767e-14
1.47016e-14
1.44055e-14
1.47181e-14
1.44345e-14
1.47397e-14
1.44637e-14
1.47644e-14
1.44917e-14
1.47887e-14
1.45185e-14
1.48119e-14
1.45469e-14
1.4836e-14
1.45786e-14
1.48626e-14
1.4609e-14
1.48871e-14
1.46383e-14
1.49172e-14
1.4671e-14
1.49497e-14
1.47025e-14
1.49832e-14
1.47345e-14
1.50193e-14
1.47669e-14
1.50548e-14
1.47998e-14
1.50898e-14
1.48315e-14
1.51257e-14
1.48654e-14
1.51546e-14
1.48999e-14
1.51828e-14
1.49367e-14
1.52233e-14
1.49741e-14
1.52615e-14
1.50123e-14
1.52939e-14
1.50446e-14
1.53289e-14
1.50827e-14
1.53664e-14
1.51183e-14
1.54031e-14
1.51496e-14
1.5439e-14
1.51766e-14
1.54757e-14
1.5208e-14
1.55115e-14
1.52474e-14
1.55447e-14
1.52808e-14
1.55751e-14
1.53153e-14
1.56062e-14
1.5342e-14
1.56418e-14
1.53717e-14
1.56781e-14
1.54062e-14
1.57134e-14
1.54346e-14
1.5755e-14
1.54662e-14
1.5792e-14
1.54992e-14
1.5826e-14
1.55317e-14
1.5859e-14
1.55675e-14
1.58947e-14
1.55955e-14
1.59406e-14
1.56232e-14
1.59817e-14
1.56506e-14
1.6018e-14
1.56778e-14
1.60533e-14
1.57085e-14
1.60838e-14
1.57431e-14
1.61209e-14
1.57815e-14
1.61648e-14
1.5816e-14
1.62154e-14
1.58508e-14
1.62573e-14
1.58935e-14
1.62903e-14
1.59366e-14
1.63421e-14
1.59842e-14
1.64009e-14
1.60322e-14
1.64589e-14
1.60847e-14
1.65122e-14
1.6142e-14
1.65608e-14
1.62042e-14
1.66127e-14
1.62674e-14
1.6664e-14
1.63197e-14
1.67106e-14
1.63856e-14
1.67524e-14
1.6445e-14
1.67977e-14
1.65144e-14
1.68506e-14
1.65902e-14
1.69029e-14
1.66396e-14
1.69506e-14
1.66876e-14
1.70019e-14
1.67382e-14
1.70531e-14
1.67835e-14
1.71124e-14
1.68482e-14
1.71761e-14
1.69035e-14
1.72444e-14
1.69578e-14
1.73051e-14
1.70361e-14
1.73417e-14
1.71057e-14
1.73793e-14
1.71668e-14
1.74344e-14
1.72197e-14
1.74991e-14
1.72812e-14
1.75569e-14
1.73428e-14
1.75998e-14
1.73967e-14
1.76447e-14
1.74597e-14
1.77168e-14
1.75319e-14
1.77831e-14
1.76052e-14
1.78355e-14
1.76802e-14
1.79078e-14
1.774e-14
1.79835e-14
1.78185e-14
1.80296e-14
1.78741e-14
1.80798e-14
1.79408e-14
1.81596e-14
1.80101e-14
1.82445e-14
1.80821e-14
1.83437e-14
1.81565e-14
1.84248e-14
1.8225e-14
1.84717e-14
1.82963e-14
1.8552e-14
1.8362e-14
1.86075e-14
1.84306e-14
1.86557e-14
1.85026e-14
1.87138e-14
1.85617e-14
1.87908e-14
1.86157e-14
1.88709e-14
1.86811e-14
1.893e-14
1.87326e-14
1.89857e-14
1.87871e-14
1.90389e-14
1.88612e-14
1.90987e-14
1.89219e-14
1.91906e-14
1.89935e-14
1.92831e-14
1.90584e-14
1.93611e-14
1.91496e-14
1.93934e-14
1.92521e-14
1.93962e-14
1.93191e-14
1.94502e-14
1.93509e-14
1.95394e-14
1.94612e-14
1.96328e-14
1.9519e-14
1.97137e-14
1.95893e-14
1.97835e-14
1.96558e-14
1.98428e-14
1.9702e-14
1.98923e-14
1.97438e-14
1.99495e-14
1.98129e-14
1.99666e-14
1.98784e-14
2.0023e-14
1.99729e-14
2.00703e-14
2.005e-14
2.01717e-14
2.01408e-14
2.02325e-14
2.02468e-14
2.03152e-14
2.03055e-14
2.03876e-14
2.03801e-14
2.0467e-14
2.04385e-14
2.05544e-14
2.04948e-14
2.06213e-14
2.05493e-14
2.06998e-14
2.06322e-14
2.0745e-14
2.07143e-14
2.07715e-14
2.07841e-14
2.08397e-14
2.08269e-14
2.09021e-14
2.09043e-14
2.09446e-14
2.09425e-14
2.10125e-14
2.09848e-14
2.11231e-14
2.10262e-14
2.11594e-14
2.11264e-14
2.11676e-14
2.11711e-14
2.11861e-14
2.12988e-14
2.12877e-14
2.13929e-14
2.14408e-14
2.1512e-14
2.15625e-14
2.16284e-14
2.16272e-14
2.16881e-14
2.16895e-14
2.17791e-14
2.17473e-14
2.19058e-14
2.17978e-14
2.19326e-14
2.18924e-14
2.19923e-14
2.20079e-14
2.20535e-14
2.20388e-14
2.21778e-14
2.20961e-14
2.2287e-14
2.21993e-14
2.24087e-14
2.22899e-14
2.25199e-14
2.24195e-14
2.25663e-14
2.25354e-14
2.265e-14
2.25912e-14
2.27206e-14
2.26384e-14
2.27795e-14
2.27279e-14
2.28473e-14
2.28119e-14
2.28675e-14
2.28671e-14
2.29447e-14
2.29217e-14
2.29301e-14
2.29739e-14
2.29905e-14
2.30825e-14
2.30459e-14
2.31457e-14
2.30441e-14
2.31113e-14
2.31123e-14
2.31466e-14
2.32328e-14
2.32132e-14
2.32477e-14
2.32764e-14
2.32428e-14
2.32532e-14
2.32329e-14
2.32695e-14
2.32454e-14
2.32835e-14
2.3258e-14
2.32661e-14
2.32767e-14
2.32103e-14
2.33202e-14
2.3218e-14
2.32635e-14
2.32119e-14
2.32333e-14
2.31973e-14
2.31704e-14
2.31762e-14
2.31551e-14
2.31553e-14
2.32275e-14
2.31853e-14
2.3214e-14
2.32027e-14
2.32002e-14
2.31663e-14
2.31892e-14
2.3165e-14
2.32103e-14
2.32051e-14
2.3159e-14
2.32412e-14
2.318e-14
2.32167e-14
2.31675e-14
2.31972e-14
2.30992e-14
2.31825e-14
2.30839e-14
2.3106e-14
2.30588e-14
2.30796e-14
2.3067e-14
2.30788e-14
2.3066e-14
2.3078e-14
2.30052e-14
2.30555e-14
2.29531e-14
2.29642e-14
2.29453e-14
2.29249e-14
2.29371e-14
2.29069e-14
2.29029e-14
2.28592e-14
2.28464e-14
2.28359e-14
2.28219e-14
2.28165e-14
2.28014e-14
2.28009e-14
2.27842e-14
2.2762e-14
2.27732e-14
2.27473e-14
2.27993e-14
2.27276e-14
2.27819e-14
2.27526e-14
2.27696e-14
2.28022e-14
2.2699e-14
2.28001e-14
2.27026e-14
2.27244e-14
2.27045e-14
2.27063e-14
2.27069e-14
2.27149e-14
2.27055e-14
2.27514e-14
2.26985e-14
2.27928e-14
2.26536e-14
2.27867e-14
2.2652e-14
2.27648e-14
2.26972e-14
2.2782e-14
2.27049e-14
2.28052e-14
2.26728e-14
2.2805e-14
2.26878e-14
2.28143e-14
2.26754e-14
2.28324e-14
2.26646e-14
2.27688e-14
2.26598e-14
2.27412e-14
2.26632e-14
2.27641e-14
2.26735e-14
2.2731e-14
2.2663e-14
2.27307e-14
2.26778e-14
2.27034e-14
2.26744e-14
2.26929e-14
2.26381e-14
2.26815e-14
2.26304e-14
2.26703e-14
2.26367e-14
2.26759e-14
2.26248e-14
2.26822e-14
2.25935e-14
2.26906e-14
2.25896e-14
2.2671e-14
2.25823e-14
2.26223e-14
2.25581e-14
2.25741e-14
2.25336e-14
2.25889e-14
2.25554e-14
2.26522e-14
2.25263e-14
2.26693e-14
2.25253e-14
2.26419e-14
2.25207e-14
2.25689e-14
2.25145e-14
2.25453e-14
2.2507e-14
2.2571e-14
2.25137e-14
2.25653e-14
2.25188e-14
2.25606e-14
2.25224e-14
2.25399e-14
2.2509e-14
2.25518e-14
2.24944e-14
2.25641e-14
2.24947e-14
2.25771e-14
2.25097e-14
2.25748e-14
2.25239e-14
2.25565e-14
2.24878e-14
2.25379e-14
2.24507e-14
2.25362e-14
2.24616e-14
2.25693e-14
2.24537e-14
2.2571e-14
2.24433e-14
2.25496e-14
2.24391e-14
2.25381e-14
2.24414e-14
2.25447e-14
2.24333e-14
2.25277e-14
2.24235e-14
2.24784e-14
2.24127e-14
2.24716e-14
2.23923e-14
2.24905e-14
2.2387e-14
2.24934e-14
2.23799e-14
2.24888e-14
2.2371e-14
2.24768e-14
2.23688e-14
2.24575e-14
2.23651e-14
2.24559e-14
2.23685e-14
2.2455e-14
2.23706e-14
2.24546e-14
2.23547e-14
2.24547e-14
2.23627e-14
2.24469e-14
2.23612e-14
2.24562e-14
2.23502e-14
2.24743e-14
2.23631e-14
2.2468e-14
2.23664e-14
2.24455e-14
2.23773e-14
2.24401e-14
2.23791e-14
2.24433e-14
2.23803e-14
2.24469e-14
2.23894e-14
2.24423e-14
2.23898e-14
2.24463e-14
2.23897e-14
2.2434e-14
2.23809e-14
2.24301e-14
2.238e-14
2.24349e-14
2.23788e-14
2.244e-14
2.23895e-14
2.24413e-14
2.23997e-14
2.24553e-14
2.24096e-14
2.24655e-14
2.2415e-14
2.24636e-14
2.2416e-14
2.2466e-14
2.24125e-14
2.24728e-14
2.24126e-14
2.24799e-14
2.24165e-14
2.24873e-14
2.24198e-14
2.24992e-14
2.24268e-14
2.25032e-14
2.24293e-14
2.25118e-14
2.24314e-14
2.25166e-14
2.2433e-14
2.25057e-14
2.24383e-14
2.25033e-14
2.24432e-14
2.2505e-14
2.24477e-14
2.2511e-14
2.2448e-14
2.25292e-14
2.24518e-14
2.25279e-14
2.24553e-14
2.25348e-14
2.24545e-14
2.25381e-14
2.24611e-14
2.25457e-14
2.24713e-14
2.25614e-14
2.24733e-14
2.2562e-14
2.24751e-14
2.25515e-14
2.24804e-14
2.2549e-14
2.24893e-14
2.25582e-14
2.24904e-14
2.25638e-14
2.24912e-14
2.25585e-14
2.24882e-14
2.2561e-14
2.24887e-14
2.25637e-14
2.2489e-14
2.25611e-14
2.24856e-14
2.2557e-14
2.24838e-14
2.25567e-14
2.24838e-14
2.25603e-14
2.24782e-14
2.25695e-14
2.24796e-14
2.25698e-14
2.24792e-14
2.25651e-14
2.24786e-14
2.25623e-14
2.2478e-14
2.2565e-14
2.24789e-14
2.25643e-14
2.24781e-14
2.25656e-14
2.24788e-14
2.25652e-14
2.24811e-14
2.25633e-14
2.24817e-14
2.25649e-14
2.24822e-14
2.25683e-14
2.24825e-14
2.25701e-14
2.24844e-14
2.2572e-14
2.24863e-14
2.25772e-14
2.24848e-14
2.25776e-14
2.24864e-14
2.25734e-14
2.24848e-14
2.25724e-14
2.24816e-14
2.25731e-14
2.2483e-14
2.25769e-14
2.24827e-14
2.25823e-14
2.24839e-14
2.25817e-14
2.24881e-14
2.25812e-14
2.24906e-14
2.25837e-14
2.24916e-14
2.25862e-14
2.24939e-14
2.25881e-14
2.24948e-14
2.259e-14
2.24984e-14
2.25912e-14
2.25012e-14
2.25932e-14
2.25039e-14
2.25938e-14
2.25073e-14
2.25924e-14
2.25078e-14
2.2593e-14
2.25077e-14
2.25964e-14
2.25101e-14
2.25991e-14
2.25118e-14
2.26006e-14
2.25116e-14
2.2602e-14
2.25119e-14
2.26035e-14
2.2511e-14
2.26062e-14
2.25106e-14
2.26096e-14
2.25109e-14
2.26129e-14
2.2511e-14
2.26139e-14
2.25106e-14
2.26137e-14
2.25095e-14
2.26147e-14
2.25107e-14
2.26152e-14
2.25113e-14
2.26168e-14
2.25113e-14
2.26168e-14
2.25112e-14
2.26157e-14
2.25117e-14
2.26158e-14
2.25121e-14
2.26166e-14
2.25125e-14
2.26168e-14
2.25131e-14
2.26166e-14
2.25134e-14
2.26176e-14
2.25134e-14
2.26188e-14
2.25139e-14
2.26183e-14
2.25141e-14
2.26176e-14
2.25138e-14
2.26176e-14
2.2514e-14
2.26179e-14
2.25143e-14
2.2618e-14
2.25144e-14
2.26181e-14
2.25138e-14
2.26184e-14
2.25134e-14
2.26186e-14
2.25133e-14
2.26187e-14
2.25128e-14
2.26189e-14
2.25128e-14
2.26191e-14
2.2513e-14
2.26193e-14
2.25132e-14
2.26187e-14
2.25133e-14
2.26185e-14
2.25135e-14
2.26192e-14
2.25139e-14
2.26196e-14
2.2514e-14
2.26196e-14
2.25142e-14
2.26196e-14
2.25146e-14
2.26196e-14
2.25146e-14
2.26199e-14
2.25147e-14
2.26199e-14
2.25146e-14
2.26195e-14
2.25148e-14
2.26195e-14
2.25151e-14
2.26198e-14
2.25152e-14
2.26198e-14
2.25151e-14
2.26199e-14
2.2515e-14
2.26201e-14
2.25148e-14
2.26202e-14
2.25149e-14
2.26202e-14
2.2515e-14
2.26202e-14
2.25147e-14
2.26203e-14
2.25147e-14
2.26203e-14
2.25146e-14
2.26203e-14
2.25146e-14
2.26203e-14
2.25145e-14
2.26205e-14
2.25145e-14
2.26207e-14
2.25145e-14
2.26209e-14
2.25145e-14
2.26209e-14
2.25144e-14
2.26209e-14
2.25143e-14
2.2621e-14
2.25142e-14
2.26212e-14
2.25142e-14
2.26213e-14
2.25142e-14
2.26214e-14
2.25142e-14
2.26215e-14
2.25141e-14
2.26217e-14
2.25141e-14
2.26217e-14
2.2514e-14
2.26218e-14
2.25139e-14
2.26219e-14
2.25139e-14
2.26219e-14
2.25139e-14
2.26218e-14
2.25139e-14
2.26218e-14
2.25139e-14
2.26218e-14
2.25139e-14
2.26218e-14
2.25139e-14
2.26217e-14
2.25139e-14
2.26217e-14
2.25139e-14
2.26217e-14
2.25139e-14
2.26217e-14
2.25139e-14
2.26217e-14
2.25138e-14
2.26217e-14
2.25138e-14
2.26217e-14
2.25138e-14
2.26217e-14
2.32014e-14
2.3206e-14
2.32376e-14
2.31961e-14
2.32381e-14
2.32247e-14
2.32451e-14
2.32046e-14
2.31708e-14
2.31791e-14
2.32137e-14
2.32302e-14
2.32289e-14
2.32882e-14
2.31897e-14
2.32416e-14
2.3165e-14
2.32084e-14
2.31559e-14
2.32099e-14
2.31417e-14
2.31493e-14
2.32074e-14
2.31193e-14
2.31502e-14
2.3102e-14
2.31342e-14
2.30524e-14
2.31118e-14
2.30381e-14
2.30318e-14
2.29841e-14
2.29912e-14
2.29501e-14
2.29865e-14
2.2885e-14
2.29202e-14
2.28029e-14
2.27906e-14
2.27534e-14
2.27696e-14
2.2747e-14
2.27481e-14
2.27331e-14
2.27249e-14
2.27678e-14
2.2665e-14
2.27807e-14
2.27241e-14
2.27813e-14
2.27447e-14
2.27635e-14
2.27332e-14
2.27764e-14
2.27152e-14
2.27641e-14
2.26929e-14
2.2755e-14
2.26928e-14
2.27533e-14
2.2773e-14
2.27595e-14
2.27417e-14
2.27375e-14
2.27122e-14
2.27143e-14
2.27711e-14
2.27173e-14
2.27507e-14
2.27427e-14
2.27347e-14
2.27965e-14
2.27752e-14
2.28259e-14
2.27847e-14
2.27998e-14
2.27971e-14
2.28046e-14
2.27824e-14
2.28551e-14
2.27512e-14
2.27895e-14
2.27354e-14
2.27572e-14
2.27513e-14
2.27726e-14
2.27531e-14
2.27742e-14
2.27404e-14
2.27162e-14
2.27312e-14
2.2703e-14
2.26934e-14
2.27663e-14
2.26681e-14
2.27569e-14
2.26233e-14
2.27064e-14
2.26692e-14
2.27236e-14
2.26659e-14
2.26968e-14
2.26145e-14
2.27034e-14
2.25915e-14
2.2682e-14
2.25489e-14
2.26644e-14
2.25331e-14
2.26842e-14
2.25435e-14
2.26956e-14
2.25001e-14
2.27144e-14
2.24968e-14
2.27093e-14
2.25185e-14
2.26632e-14
2.25191e-14
2.26219e-14
2.25493e-14
2.26009e-14
2.25294e-14
2.25986e-14
2.25241e-14
2.25987e-14
2.25499e-14
2.26013e-14
2.25253e-14
2.26058e-14
2.25151e-14
2.26132e-14
2.25025e-14
2.26404e-14
2.24868e-14
2.26387e-14
2.24674e-14
2.26411e-14
2.24769e-14
2.26482e-14
2.24823e-14
2.26099e-14
2.2485e-14
2.25749e-14
2.2478e-14
2.25671e-14
2.24777e-14
2.25861e-14
2.24757e-14
2.25905e-14
2.24719e-14
2.25805e-14
2.24666e-14
2.25643e-14
2.24598e-14
2.25415e-14
2.24519e-14
2.252e-14
2.24517e-14
2.2542e-14
2.24419e-14
2.25659e-14
2.24308e-14
2.25668e-14
2.24349e-14
2.25447e-14
2.2438e-14
2.25161e-14
2.24236e-14
2.25055e-14
2.2417e-14
2.25131e-14
2.24264e-14
2.25307e-14
2.24181e-14
2.25414e-14
2.24088e-14
2.25539e-14
2.23981e-14
2.256e-14
2.23945e-14
2.25684e-14
2.23977e-14
2.25538e-14
2.23997e-14
2.2541e-14
2.24089e-14
2.25298e-14
2.24005e-14
2.25117e-14
2.23912e-14
2.25033e-14
2.23727e-14
2.25044e-14
2.2395e-14
2.249e-14
2.23915e-14
2.24765e-14
2.23958e-14
2.24638e-14
2.24079e-14
2.24517e-14
2.24032e-14
2.24482e-14
2.24065e-14
2.24452e-14
2.24139e-14
2.24424e-14
2.2417e-14
2.24563e-14
2.2424e-14
2.24704e-14
2.24349e-14
2.24683e-14
2.24539e-14
2.24705e-14
2.24565e-14
2.24728e-14
2.24549e-14
2.24711e-14
2.24575e-14
2.24735e-14
2.24642e-14
2.2476e-14
2.24669e-14
2.24784e-14
2.24695e-14
2.24889e-14
2.24682e-14
2.24873e-14
2.24789e-14
2.24898e-14
2.24896e-14
2.24923e-14
2.25004e-14
2.24827e-14
2.25033e-14
2.24811e-14
2.25104e-14
2.24754e-14
2.25176e-14
2.24576e-14
2.25173e-14
2.24554e-14
2.25172e-14
2.24567e-14
2.25175e-14
2.24577e-14
2.25218e-14
2.24546e-14
2.25187e-14
2.24434e-14
2.25236e-14
2.24396e-14
2.25249e-14
2.24431e-14
2.25188e-14
2.24462e-14
2.2513e-14
2.2449e-14
2.25111e-14
2.24402e-14
2.2502e-14
2.24461e-14
2.24968e-14
2.24592e-14
2.2488e-14
2.24665e-14
2.24811e-14
2.24736e-14
2.24688e-14
2.24787e-14
2.24674e-14
2.24873e-14
2.24678e-14
2.24905e-14
2.24574e-14
2.24937e-14
2.24524e-14
2.25056e-14
2.24543e-14
2.2514e-14
2.24561e-14
2.25154e-14
2.24542e-14
2.25203e-14
2.24506e-14
2.25287e-14
2.24503e-14
2.25354e-14
2.2455e-14
2.25387e-14
2.24561e-14
2.25455e-14
2.24554e-14
2.25506e-14
2.24546e-14
2.25542e-14
2.24537e-14
2.25643e-14
2.24543e-14
2.25713e-14
2.24547e-14
2.25751e-14
2.24534e-14
2.25773e-14
2.24551e-14
2.25781e-14
2.24552e-14
2.25822e-14
2.2455e-14
2.25863e-14
2.24548e-14
2.25905e-14
2.24575e-14
2.25932e-14
2.24615e-14
2.25961e-14
2.24609e-14
2.26019e-14
2.24616e-14
2.26049e-14
2.2463e-14
2.26066e-14
2.24671e-14
2.26076e-14
2.24675e-14
2.26079e-14
2.24678e-14
2.26098e-14
2.2468e-14
2.26111e-14
2.24715e-14
2.26103e-14
2.24728e-14
2.26104e-14
2.24747e-14
2.26132e-14
2.24778e-14
2.26127e-14
2.24795e-14
2.26124e-14
2.24824e-14
2.26115e-14
2.24851e-14
2.26125e-14
2.24866e-14
2.26142e-14
2.24897e-14
2.26147e-14
2.24928e-14
2.26141e-14
2.24957e-14
2.26129e-14
2.24986e-14
2.26112e-14
2.25014e-14
2.2609e-14
2.25035e-14
2.26092e-14
2.25056e-14
2.26105e-14
2.25086e-14
2.26096e-14
2.25111e-14
2.26087e-14
2.25135e-14
2.2609e-14
2.25145e-14
2.26098e-14
2.25145e-14
2.26106e-14
2.25154e-14
2.26115e-14
2.25163e-14
2.26119e-14
2.25171e-14
2.26122e-14
2.2518e-14
2.26124e-14
2.2519e-14
2.2613e-14
2.252e-14
2.26137e-14
2.25202e-14
2.26137e-14
2.25207e-14
2.26135e-14
2.25211e-14
2.26137e-14
2.25213e-14
2.26142e-14
2.25213e-14
2.26147e-14
2.25212e-14
2.26148e-14
2.25213e-14
2.26153e-14
2.25212e-14
2.26161e-14
2.25204e-14
2.26171e-14
2.25203e-14
2.26177e-14
2.25205e-14
2.26174e-14
2.25206e-14
2.26171e-14
2.25209e-14
2.26173e-14
2.25207e-14
2.26175e-14
2.25209e-14
2.26179e-14
2.25208e-14
2.2618e-14
2.25206e-14
2.26181e-14
2.25208e-14
2.26184e-14
2.25209e-14
2.26186e-14
2.25207e-14
2.26189e-14
2.25204e-14
2.26189e-14
2.25202e-14
2.26189e-14
2.25201e-14
2.2619e-14
2.25199e-14
2.26192e-14
2.25197e-14
2.26194e-14
2.25196e-14
2.26196e-14
2.25196e-14
2.26196e-14
2.25192e-14
2.26196e-14
2.2519e-14
2.26196e-14
2.2519e-14
2.26196e-14
2.2519e-14
2.26197e-14
2.25189e-14
2.26198e-14
2.25187e-14
2.26201e-14
2.25186e-14
2.26202e-14
2.25185e-14
2.26202e-14
2.25185e-14
2.26203e-14
2.25184e-14
2.26205e-14
2.25183e-14
2.26207e-14
2.25183e-14
2.26206e-14
2.25184e-14
2.26207e-14
2.25183e-14
2.26208e-14
2.25183e-14
2.26208e-14
2.25184e-14
2.26207e-14
2.25185e-14
2.26208e-14
2.25186e-14
2.26209e-14
2.25187e-14
2.26209e-14
2.25187e-14
2.2621e-14
2.25188e-14
2.2621e-14
2.25188e-14
2.26211e-14
2.25188e-14
2.26211e-14
2.25189e-14
2.26211e-14
2.25189e-14
2.26211e-14
2.25189e-14
2.26212e-14
2.25189e-14
2.26212e-14
2.2519e-14
2.26212e-14
2.2519e-14
2.26212e-14
2.2519e-14
2.26211e-14
2.2519e-14
2.26211e-14
)
;

boundaryField
{
    walls
    {
        type            zeroGradient;
    }
    inlet
    {
        type            cyclic;
    }
    outlet
    {
        type            cyclic;
    }
    sides
    {
        type            empty;
    }
}


// ************************************************************************* //
