/*--------------------------------*- C++ -*----------------------------------*\
| =========                 |                                                 |
| \\      /  F ield         | OpenFOAM: The Open Source CFD Toolbox           |
|  \\    /   O peration     | Version:  2106                                  |
|   \\  /    A nd           | Website:  www.openfoam.com                      |
|    \\/     M anipulation  |                                                 |
\*---------------------------------------------------------------------------*/
FoamFile
{
    version     2.0;
    format      ascii;
    arch        "LSB;label=32;scalar=64";
    class       volSymmTensorField;
    location    "10060";
    object      turbulenceProperties:R;
}
// * * * * * * * * * * * * * * * * * * * * * * * * * * * * * * * * * * * * * //

dimensions      [0 2 -2 0 0 0 0];

internalField   nonuniform List<symmTensor> 
2000
(
(1.05291e-07 -2.77609e-12 -5.138e-15 1.05291e-07 1.58602e-26 1.05291e-07)
(1.05291e-07 -2.77609e-12 -5.138e-15 1.05291e-07 9.63956e-31 1.05291e-07)
(1.69313e-08 -2.57158e-12 -1.43682e-14 1.69313e-08 2.6873e-27 1.69313e-08)
(1.69313e-08 -2.57158e-12 -1.43682e-14 1.69313e-08 1.77592e-30 1.69313e-08)
(1.55626e-08 -6.99849e-12 -5.42552e-14 1.55626e-08 4.49498e-27 1.55626e-08)
(1.55626e-08 -6.99849e-12 -5.42552e-14 1.55626e-08 5.79633e-30 1.55626e-08)
(4.27173e-08 -4.09025e-11 -3.23011e-13 4.27173e-08 2.94054e-26 4.27173e-08)
(4.27173e-08 -4.09025e-11 -3.23011e-13 4.27173e-08 3.7038e-29 4.27173e-08)
(1.08561e-07 -1.84162e-10 -1.48149e-12 1.08561e-07 9.39788e-26 1.08561e-07)
(1.08561e-07 -1.84162e-10 -1.48149e-12 1.08561e-07 1.88213e-28 1.08561e-07)
(2.32456e-07 -6.23511e-10 -5.10946e-12 2.32456e-07 3.26203e-25 2.32456e-07)
(2.32456e-07 -6.23511e-10 -5.10946e-12 2.32456e-07 7.87869e-28 2.32456e-07)
(4.38495e-07 -1.7232e-09 -1.43846e-11 4.38495e-07 9.11603e-25 4.38495e-07)
(4.38495e-07 -1.7232e-09 -1.43846e-11 4.38495e-07 2.76758e-27 4.38495e-07)
(7.55009e-07 -4.11745e-09 -3.50123e-11 7.55009e-07 2.23909e-24 7.55009e-07)
(7.55009e-07 -4.11745e-09 -3.50123e-11 7.55009e-07 7.62109e-27 7.55009e-07)
(1.21467e-06 -8.82843e-09 -7.64728e-11 1.21467e-06 4.91516e-24 1.21467e-06)
(1.21467e-06 -8.82843e-09 -7.64728e-11 1.21467e-06 1.76665e-26 1.21467e-06)
(1.85478e-06 -1.74143e-08 -1.5366e-10 1.85478e-06 9.91544e-24 1.85478e-06)
(1.85478e-06 -1.74143e-08 -1.5366e-10 1.85478e-06 3.74163e-26 1.85478e-06)
(2.71754e-06 -3.21522e-08 -2.88998e-10 2.71754e-06 1.8735e-23 2.71754e-06)
(2.71754e-06 -3.21522e-08 -2.88998e-10 2.71754e-06 7.68202e-26 2.71754e-06)
(3.8505e-06 -5.62622e-08 -5.15147e-10 3.8505e-06 3.35465e-23 3.8505e-06)
(3.8505e-06 -5.62622e-08 -5.15147e-10 3.8505e-06 1.51781e-25 3.8505e-06)
(5.30693e-06 -9.41782e-08 -8.78407e-10 5.30693e-06 5.74558e-23 5.30693e-06)
(5.30693e-06 -9.41782e-08 -8.78407e-10 5.30693e-06 2.82576e-25 5.30693e-06)
(7.14625e-06 -1.51873e-07 -1.44297e-09 7.14625e-06 9.47683e-23 7.14625e-06)
(7.14625e-06 -1.51873e-07 -1.44297e-09 7.14625e-06 4.82788e-25 7.14625e-06)
(9.43455e-06 -2.37246e-07 -2.29616e-09 9.43455e-06 1.51343e-22 9.43455e-06)
(9.43455e-06 -2.37246e-07 -2.29616e-09 9.43455e-06 7.78285e-25 9.43455e-06)
(1.2245e-05 -3.60578e-07 -3.55493e-09 1.2245e-05 2.35076e-22 1.2245e-05)
(1.2245e-05 -3.60578e-07 -3.55493e-09 1.2245e-05 1.25783e-24 1.2245e-05)
(1.56586e-05 -5.35063e-07 -5.37358e-09 1.56586e-05 3.56434e-22 1.56586e-05)
(1.56586e-05 -5.35063e-07 -5.37358e-09 1.56586e-05 2.06434e-24 1.56586e-05)
(1.97643e-05 -7.77433e-07 -7.95331e-09 1.97643e-05 5.29067e-22 1.97643e-05)
(1.97643e-05 -7.77433e-07 -7.95331e-09 1.97643e-05 3.24127e-24 1.97643e-05)
(2.466e-05 -1.10866e-06 -1.15534e-08 2.466e-05 7.70581e-22 2.466e-05)
(2.466e-05 -1.10866e-06 -1.15534e-08 2.466e-05 4.78142e-24 2.466e-05)
(3.04528e-05 -1.55478e-06 -1.65044e-08 3.04528e-05 1.10331e-21 3.04528e-05)
(3.04528e-05 -1.55478e-06 -1.65044e-08 3.04528e-05 7.65037e-24 3.04528e-05)
(3.72597e-05 -2.14777e-06 -2.32241e-08 3.72597e-05 1.55544e-21 3.72597e-05)
(3.72597e-05 -2.14777e-06 -2.32241e-08 3.72597e-05 1.17073e-23 3.72597e-05)
(4.52079e-05 -2.9266e-06 -3.22354e-08 4.52079e-05 2.16223e-21 4.52079e-05)
(4.52079e-05 -2.9266e-06 -3.22354e-08 4.52079e-05 1.61822e-23 4.52079e-05)
(5.44355e-05 -3.93831e-06 -4.41869e-08 5.44355e-05 2.96789e-21 5.44355e-05)
(5.44355e-05 -3.93831e-06 -4.41869e-08 5.44355e-05 2.24088e-23 5.44355e-05)
(6.5092e-05 -5.23921e-06 -5.9877e-08 6.5092e-05 4.02496e-21 6.5092e-05)
(6.5092e-05 -5.23921e-06 -5.9877e-08 6.5092e-05 3.09422e-23 6.5092e-05)
(7.73382e-05 -6.89614e-06 -8.02798e-08 7.73382e-05 5.39635e-21 7.73382e-05)
(7.73382e-05 -6.89614e-06 -8.02798e-08 7.73382e-05 4.44012e-23 7.73382e-05)
(9.13465e-05 -8.98774e-06 -1.06574e-07 9.13465e-05 7.15871e-21 9.13465e-05)
(9.13465e-05 -8.98774e-06 -1.06574e-07 9.13465e-05 6.34866e-23 9.13465e-05)
(0.000107301 -1.16057e-05 -1.40174e-07 0.000107301 9.40202e-21 0.000107301)
(0.000107301 -1.16057e-05 -1.40174e-07 0.000107301 8.47921e-23 0.000107301)
(0.000125398 -1.48562e-05 -1.82762e-07 0.000125398 1.22331e-20 0.000125398)
(0.000125398 -1.48562e-05 -1.82762e-07 0.000125398 1.12527e-22 0.000125398)
(0.000145844 -1.88604e-05 -2.36324e-07 0.000145844 1.57705e-20 0.000145844)
(0.000145844 -1.88604e-05 -2.36324e-07 0.000145844 1.45516e-22 0.000145844)
(0.000168855 -2.37558e-05 -3.03177e-07 0.000168855 2.01408e-20 0.000168855)
(0.000168855 -2.37558e-05 -3.03177e-07 0.000168855 1.90965e-22 0.000168855)
(0.000194657 -2.96967e-05 -3.86004e-07 0.000194657 2.54955e-20 0.000194657)
(0.000194657 -2.96967e-05 -3.86004e-07 0.000194657 2.61856e-22 0.000194657)
(0.000223484 -3.68535e-05 -4.87875e-07 0.000223484 3.1993e-20 0.000223484)
(0.000223484 -3.68535e-05 -4.87875e-07 0.000223484 3.37524e-22 0.000223484)
(0.000255572 -4.5413e-05 -6.12268e-07 0.000255572 3.97978e-20 0.000255572)
(0.000255572 -4.5413e-05 -6.12268e-07 0.000255572 4.35164e-22 0.000255572)
(0.000291163 -5.55761e-05 -7.63075e-07 0.000291163 4.9078e-20 0.000291163)
(0.000291163 -5.55761e-05 -7.63075e-07 0.000291163 5.82764e-22 0.000291163)
(0.000330495 -6.7556e-05 -9.44593e-07 0.000330495 5.99895e-20 0.000330495)
(0.000330495 -6.7556e-05 -9.44593e-07 0.000330495 7.50228e-22 0.000330495)
(0.000373801 -8.15746e-05 -1.16151e-06 0.000373801 7.26792e-20 0.000373801)
(0.000373801 -8.15746e-05 -1.16151e-06 0.000373801 9.05378e-22 0.000373801)
(0.000421306 -9.78582e-05 -1.41884e-06 0.000421306 8.72827e-20 0.000421306)
(0.000421306 -9.78582e-05 -1.41884e-06 0.000421306 1.14699e-21 0.000421306)
(0.000473219 -0.000116632 -1.72189e-06 0.000473219 1.0383e-19 0.000473219)
(0.000473219 -0.000116632 -1.72189e-06 0.000473219 1.45337e-21 0.000473219)
(0.000529727 -0.000138114 -2.07615e-06 0.000529727 1.22367e-19 0.000529727)
(0.000529727 -0.000138114 -2.07615e-06 0.000529727 1.87052e-21 0.000529727)
(0.000590993 -0.000162507 -2.48718e-06 0.000590993 1.42962e-19 0.000590993)
(0.000590993 -0.000162507 -2.48718e-06 0.000590993 2.43098e-21 0.000590993)
(0.000657146 -0.000189991 -2.96052e-06 0.000657146 1.65247e-19 0.000657146)
(0.000657146 -0.000189991 -2.96052e-06 0.000657146 2.77947e-21 0.000657146)
(0.000728276 -0.000220715 -3.50147e-06 0.000728276 1.89095e-19 0.000728276)
(0.000728276 -0.000220715 -3.50147e-06 0.000728276 3.09415e-21 0.000728276)
(0.00080443 -0.000254791 -4.11503e-06 0.00080443 2.14548e-19 0.00080443)
(0.00080443 -0.000254791 -4.11503e-06 0.00080443 3.58756e-21 0.00080443)
(0.000885605 -0.000292286 -4.80567e-06 0.000885605 2.41154e-19 0.000885605)
(0.000885605 -0.000292286 -4.80567e-06 0.000885605 4.3171e-21 0.000885605)
(0.000971748 -0.000333216 -5.57723e-06 0.000971748 2.6858e-19 0.000971748)
(0.000971748 -0.000333216 -5.57723e-06 0.000971748 5.26843e-21 0.000971748)
(0.00106275 -0.00037754 -6.43275e-06 0.00106275 2.96161e-19 0.00106275)
(0.00106275 -0.00037754 -6.43275e-06 0.00106275 6.51751e-21 0.00106275)
(0.00115844 -0.000425167 -7.37442e-06 0.00115844 3.23107e-19 0.00115844)
(0.00115844 -0.000425167 -7.37442e-06 0.00115844 8.66179e-21 0.00115844)
(0.00125861 -0.000475945 -8.40348e-06 0.00125861 3.49239e-19 0.00125861)
(0.00125861 -0.000475945 -8.40348e-06 0.00125861 1.11111e-20 0.00125861)
(0.00136298 -0.000529672 -9.5202e-06 0.00136298 3.74838e-19 0.00136298)
(0.00136298 -0.000529672 -9.5202e-06 0.00136298 1.18651e-20 0.00136298)
(0.00147123 -0.000586101 -1.07239e-05 0.00147123 3.99333e-19 0.00147123)
(0.00147123 -0.000586101 -1.07239e-05 0.00147123 1.20723e-20 0.00147123)
(0.00158301 -0.000644941 -1.20129e-05 0.00158301 4.21434e-19 0.00158301)
(0.00158301 -0.000644941 -1.20129e-05 0.00158301 1.54089e-20 0.00158301)
(0.0016979 -0.000705873 -1.33848e-05 0.0016979 4.41936e-19 0.0016979)
(0.0016979 -0.000705873 -1.33848e-05 0.0016979 1.93812e-20 0.0016979)
(0.00181549 -0.000768554 -1.48365e-05 0.00181549 4.61217e-19 0.00181549)
(0.00181549 -0.000768554 -1.48365e-05 0.00181549 2.12509e-20 0.00181549)
(0.00193533 -0.000832628 -1.63641e-05 0.00193533 4.77659e-19 0.00193533)
(0.00193533 -0.000832628 -1.63641e-05 0.00193533 2.40628e-20 0.00193533)
(0.00205696 -0.000897735 -1.79635e-05 0.00205696 4.92986e-19 0.00205696)
(0.00205696 -0.000897735 -1.79635e-05 0.00205696 2.85956e-20 0.00205696)
(0.00217992 -0.000963523 -1.963e-05 0.00217992 5.06315e-19 0.00217992)
(0.00217992 -0.000963523 -1.963e-05 0.00217992 3.56955e-20 0.00217992)
(0.00230377 -0.00102965 -2.13591e-05 0.00230377 5.16484e-19 0.00230377)
(0.00230377 -0.00102965 -2.13591e-05 0.00230377 4.26422e-20 0.00230377)
(0.00242805 -0.00109579 -2.31459e-05 0.00242805 5.27501e-19 0.00242805)
(0.00242805 -0.00109579 -2.31459e-05 0.00242805 4.32555e-20 0.00242805)
(0.00255234 -0.00116164 -2.49857e-05 0.00255234 5.3677e-19 0.00255234)
(0.00255234 -0.00116164 -2.49857e-05 0.00255234 4.07193e-20 0.00255234)
(0.00267624 -0.00122694 -2.68739e-05 0.00267624 5.48353e-19 0.00267624)
(0.00267624 -0.00122694 -2.68739e-05 0.00267624 4.52013e-20 0.00267624)
(0.00279938 -0.00129144 -2.88063e-05 0.00279938 5.62347e-19 0.00279938)
(0.00279938 -0.00129144 -2.88063e-05 0.00279938 6.06565e-20 0.00279938)
(0.00292141 -0.00135492 -3.07787e-05 0.00292141 5.7553e-19 0.00292141)
(0.00292141 -0.00135492 -3.07787e-05 0.00292141 7.56093e-20 0.00292141)
(0.00304201 -0.00141721 -3.27875e-05 0.00304201 5.90373e-19 0.00304201)
(0.00304201 -0.00141721 -3.27875e-05 0.00304201 7.95381e-20 0.00304201)
(0.00316091 -0.00147815 -3.48293e-05 0.00316091 6.07393e-19 0.00316091)
(0.00316091 -0.00147815 -3.48293e-05 0.00316091 8.32756e-20 0.00316091)
(0.00327786 -0.0015376 -3.69011e-05 0.00327786 6.27581e-19 0.00327786)
(0.00327786 -0.0015376 -3.69011e-05 0.00327786 9.71314e-20 0.00327786)
(0.00339264 -0.00159548 -3.90002e-05 0.00339264 6.5702e-19 0.00339264)
(0.00339264 -0.00159548 -3.90002e-05 0.00339264 1.09437e-19 0.00339264)
(0.00350507 -0.0016517 -4.11243e-05 0.00350507 6.84817e-19 0.00350507)
(0.00350507 -0.0016517 -4.11243e-05 0.00350507 1.12844e-19 0.00350507)
(0.003615 -0.00170621 -4.32715e-05 0.003615 7.05521e-19 0.003615)
(0.003615 -0.00170621 -4.32715e-05 0.003615 1.1803e-19 0.003615)
(0.0037223 -0.00175896 -4.54402e-05 0.0037223 7.37756e-19 0.0037223)
(0.0037223 -0.00175896 -4.54402e-05 0.0037223 1.3464e-19 0.0037223)
(0.00382686 -0.00180994 -4.76289e-05 0.00382686 7.82452e-19 0.00382686)
(0.00382686 -0.00180994 -4.76289e-05 0.00382686 1.61746e-19 0.00382686)
(0.00392862 -0.00185915 -4.98367e-05 0.00392862 8.25014e-19 0.00392862)
(0.00392862 -0.00185915 -4.98367e-05 0.00392862 1.81834e-19 0.00392862)
(0.00402751 -0.00190658 -5.20627e-05 0.00402751 8.7508e-19 0.00402751)
(0.00402751 -0.00190658 -5.20627e-05 0.00402751 1.83431e-19 0.00402751)
(0.0041235 -0.00195225 -5.43063e-05 0.0041235 9.29182e-19 0.0041235)
(0.0041235 -0.00195225 -5.43063e-05 0.0041235 1.7564e-19 0.0041235)
(0.00421657 -0.00199618 -5.65672e-05 0.00421657 9.86361e-19 0.00421657)
(0.00421657 -0.00199618 -5.65672e-05 0.00421657 1.99883e-19 0.00421657)
(0.00430672 -0.00203841 -5.8845e-05 0.00430672 1.05715e-18 0.00430672)
(0.00430672 -0.00203841 -5.8845e-05 0.00430672 2.49881e-19 0.00430672)
(0.00439396 -0.00207897 -6.11398e-05 0.00439396 1.12357e-18 0.00439396)
(0.00439396 -0.00207897 -6.11398e-05 0.00439396 2.81096e-19 0.00439396)
(0.00447831 -0.00211789 -6.34517e-05 0.00447831 1.2082e-18 0.00447831)
(0.00447831 -0.00211789 -6.34517e-05 0.00447831 2.84481e-19 0.00447831)
(0.00455979 -0.00215524 -6.57808e-05 0.00455979 1.29194e-18 0.00455979)
(0.00455979 -0.00215524 -6.57808e-05 0.00455979 2.87305e-19 0.00455979)
(0.00463845 -0.00219104 -6.81275e-05 0.00463845 1.3728e-18 0.00463845)
(0.00463845 -0.00219104 -6.81275e-05 0.00463845 2.90934e-19 0.00463845)
(0.00471433 -0.00222534 -7.04921e-05 0.00471433 1.45549e-18 0.00471433)
(0.00471433 -0.00222534 -7.04921e-05 0.00471433 3.19896e-19 0.00471433)
(0.00478749 -0.00225821 -7.28751e-05 0.00478749 1.53951e-18 0.00478749)
(0.00478749 -0.00225821 -7.28751e-05 0.00478749 3.88818e-19 0.00478749)
(0.00485797 -0.00228967 -7.52771e-05 0.00485797 1.64649e-18 0.00485797)
(0.00485797 -0.00228967 -7.52771e-05 0.00485797 3.74243e-19 0.00485797)
(0.00492585 -0.00231979 -7.76987e-05 0.00492585 1.76332e-18 0.00492585)
(0.00492585 -0.00231979 -7.76987e-05 0.00492585 3.38192e-19 0.00492585)
(0.00499117 -0.0023486 -8.01405e-05 0.00499117 1.8716e-18 0.00499117)
(0.00499117 -0.0023486 -8.01405e-05 0.00499117 4.15763e-19 0.00499117)
(0.00505402 -0.00237617 -8.26031e-05 0.00505402 1.96673e-18 0.00505402)
(0.00505402 -0.00237617 -8.26031e-05 0.00505402 5.32e-19 0.00505402)
(0.00511444 -0.00240252 -8.50874e-05 0.00511444 2.07154e-18 0.00511444)
(0.00511444 -0.00240252 -8.50874e-05 0.00511444 5.43965e-19 0.00511444)
(0.00517251 -0.00242771 -8.7594e-05 0.00517251 2.18038e-18 0.00517251)
(0.00517251 -0.00242771 -8.7594e-05 0.00517251 5.44865e-19 0.00517251)
(0.00522829 -0.00245179 -9.01237e-05 0.00522829 2.18958e-18 0.00522829)
(0.00522829 -0.00245179 -9.01237e-05 0.00522829 5.91432e-19 0.00522829)
(0.00528186 -0.00247479 -9.26773e-05 0.00528186 2.1328e-18 0.00528186)
(0.00528186 -0.00247479 -9.26773e-05 0.00528186 5.5966e-19 0.00528186)
(0.00533327 -0.00249676 -9.52556e-05 0.00533327 2.19255e-18 0.00533327)
(0.00533327 -0.00249676 -9.52556e-05 0.00533327 5.86605e-19 0.00533327)
(0.00538258 -0.00251773 -9.78594e-05 0.00538258 2.36011e-18 0.00538258)
(0.00538258 -0.00251773 -9.78594e-05 0.00538258 7.23623e-19 0.00538258)
(0.00542988 -0.00253775 -0.000100489 0.00542988 2.58896e-18 0.00542988)
(0.00542988 -0.00253775 -0.000100489 0.00542988 7.95136e-19 0.00542988)
(0.00547521 -0.00255684 -0.000103147 0.00547521 2.71064e-18 0.00547521)
(0.00547521 -0.00255684 -0.000103147 0.00547521 8.4236e-19 0.00547521)
(0.00551864 -0.00257506 -0.000105832 0.00551864 2.7412e-18 0.00551864)
(0.00551864 -0.00257506 -0.000105832 0.00551864 9.17766e-19 0.00551864)
(0.00556022 -0.00259242 -0.000108546 0.00556022 2.86539e-18 0.00556022)
(0.00556022 -0.00259242 -0.000108546 0.00556022 1.00327e-18 0.00556022)
(0.00560002 -0.00260896 -0.000111289 0.00560002 3.03847e-18 0.00560002)
(0.00560002 -0.00260896 -0.000111289 0.00560002 9.97555e-19 0.00560002)
(0.0056381 -0.00262472 -0.000114063 0.0056381 3.13728e-18 0.0056381)
(0.0056381 -0.00262472 -0.000114063 0.0056381 9.8477e-19 0.0056381)
(0.00567449 -0.00263972 -0.000116868 0.00567449 3.1635e-18 0.00567449)
(0.00567449 -0.00263972 -0.000116868 0.00567449 9.67123e-19 0.00567449)
(0.00570927 -0.00265399 -0.000119705 0.00570927 3.38261e-18 0.00570927)
(0.00570927 -0.00265399 -0.000119705 0.00570927 9.54078e-19 0.00570927)
(0.00574248 -0.00266755 -0.000122575 0.00574248 3.61321e-18 0.00574248)
(0.00574248 -0.00266755 -0.000122575 0.00574248 1.16968e-18 0.00574248)
(0.00577417 -0.00268044 -0.000125479 0.00577417 3.76441e-18 0.00577417)
(0.00577417 -0.00268044 -0.000125479 0.00577417 1.25763e-18 0.00577417)
(0.00580439 -0.00269267 -0.000128417 0.00580439 3.96233e-18 0.00580439)
(0.00580439 -0.00269267 -0.000128417 0.00580439 1.05483e-18 0.00580439)
(0.00583318 -0.00270427 -0.00013139 0.00583318 4.23151e-18 0.00583318)
(0.00583318 -0.00270427 -0.00013139 0.00583318 1.0896e-18 0.00583318)
(0.00586058 -0.00271526 -0.000134399 0.00586058 4.41632e-18 0.00586058)
(0.00586058 -0.00271526 -0.000134399 0.00586058 1.31435e-18 0.00586058)
(0.00588665 -0.00272567 -0.000137445 0.00588665 3.76502e-18 0.00588665)
(0.00588665 -0.00272567 -0.000137445 0.00588665 1.39804e-18 0.00588665)
(0.00591141 -0.0027355 -0.000140529 0.00591141 1.15722e-18 0.00591141)
(0.00591141 -0.0027355 -0.000140529 0.00591141 1.39619e-18 0.00591141)
(0.00593491 -0.00274478 -0.000143651 0.00593491 6.39283e-19 0.00593491)
(0.00593491 -0.00274478 -0.000143651 0.00593491 1.39341e-18 0.00593491)
(0.00595719 -0.00275354 -0.000146811 0.00595719 1.3164e-19 0.00595719)
(0.00595719 -0.00275354 -0.000146811 0.00595719 1.54016e-18 0.00595719)
(0.00597827 -0.00276177 -0.000150012 0.00597827 2.30489e-19 0.00597827)
(0.00597827 -0.00276177 -0.000150012 0.00597827 1.64328e-18 0.00597827)
(0.0059982 -0.00276951 -0.000153253 0.0059982 4.73666e-19 0.0059982)
(0.0059982 -0.00276951 -0.000153253 0.0059982 1.74044e-18 0.0059982)
(0.00601701 -0.00277676 -0.000156536 0.00601701 4.60628e-19 0.00601701)
(0.00601701 -0.00277676 -0.000156536 0.00601701 1.83921e-18 0.00601701)
(0.00603472 -0.00278354 -0.00015986 0.00603472 4.34234e-19 0.00603472)
(0.00603472 -0.00278354 -0.00015986 0.00603472 2.03584e-18 0.00603472)
(0.00605137 -0.00278987 -0.000163227 0.00605137 5.58716e-19 0.00605137)
(0.00605137 -0.00278987 -0.000163227 0.00605137 2.09093e-18 0.00605137)
(0.00606699 -0.00279575 -0.000166638 0.00606699 4.71481e-19 0.00606699)
(0.00606699 -0.00279575 -0.000166638 0.00606699 1.95678e-18 0.00606699)
(0.0060816 -0.0028012 -0.000170092 0.0060816 3.00039e-19 0.0060816)
(0.0060816 -0.0028012 -0.000170092 0.0060816 2.0899e-18 0.0060816)
(0.00609523 -0.00280623 -0.000173591 0.00609523 5.23108e-19 0.00609523)
(0.00609523 -0.00280623 -0.000173591 0.00609523 2.42056e-18 0.00609523)
(0.0061079 -0.00281085 -0.000177136 0.0061079 1.14858e-18 0.0061079)
(0.0061079 -0.00281085 -0.000177136 0.0061079 2.32247e-18 0.0061079)
(0.00611964 -0.00281507 -0.000180726 0.00611964 1.41743e-18 0.00611964)
(0.00611964 -0.00281507 -0.000180726 0.00611964 2.20868e-18 0.00611964)
(0.00613047 -0.0028189 -0.000184363 0.00613047 1.61957e-18 0.00613047)
(0.00613047 -0.0028189 -0.000184363 0.00613047 2.80111e-18 0.00613047)
(0.0061404 -0.00282235 -0.000188048 0.0061404 1.77702e-18 0.0061404)
(0.0061404 -0.00282235 -0.000188048 0.0061404 3.46784e-18 0.0061404)
(0.00614947 -0.00282543 -0.00019178 0.00614947 1.94532e-18 0.00614947)
(0.00614947 -0.00282543 -0.00019178 0.00614947 3.50208e-18 0.00614947)
(0.00615768 -0.00282815 -0.00019556 0.00615768 1.92461e-18 0.00615768)
(0.00615768 -0.00282815 -0.00019556 0.00615768 3.4785e-18 0.00615768)
(0.00616506 -0.0028305 -0.00019939 0.00616506 1.72787e-18 0.00616506)
(0.00616506 -0.0028305 -0.00019939 0.00616506 3.72229e-18 0.00616506)
(0.00617162 -0.00283251 -0.000203269 0.00617162 1.90519e-18 0.00617162)
(0.00617162 -0.00283251 -0.000203269 0.00617162 4.04803e-18 0.00617162)
(0.00617739 -0.00283418 -0.000207198 0.00617739 2.80491e-18 0.00617739)
(0.00617739 -0.00283418 -0.000207198 0.00617739 4.54856e-18 0.00617739)
(0.00618237 -0.00283551 -0.000211177 0.00618237 3.93738e-18 0.00618237)
(0.00618237 -0.00283551 -0.000211177 0.00618237 4.36194e-18 0.00618237)
(0.00618658 -0.0028365 -0.000215208 0.00618658 4.40036e-18 0.00618658)
(0.00618658 -0.0028365 -0.000215208 0.00618658 4.15581e-18 0.00618658)
(0.00619003 -0.00283718 -0.000219289 0.00619003 3.73458e-18 0.00619003)
(0.00619003 -0.00283718 -0.000219289 0.00619003 4.00101e-18 0.00619003)
(0.00619274 -0.00283753 -0.000223423 0.00619274 2.27996e-18 0.00619274)
(0.00619274 -0.00283753 -0.000223423 0.00619274 4.37665e-18 0.00619274)
(0.00619472 -0.00283756 -0.000227609 0.00619472 1.83443e-18 0.00619472)
(0.00619472 -0.00283756 -0.000227609 0.00619472 5.43812e-18 0.00619472)
(0.00619597 -0.00283729 -0.000231848 0.00619597 2.38693e-18 0.00619597)
(0.00619597 -0.00283729 -0.000231848 0.00619597 5.11362e-18 0.00619597)
(0.00619652 -0.00283671 -0.00023614 0.00619652 1.86719e-18 0.00619652)
(0.00619652 -0.00283671 -0.00023614 0.00619652 4.3246e-18 0.00619652)
(0.00619637 -0.00283582 -0.000240485 0.00619637 1.25914e-18 0.00619637)
(0.00619637 -0.00283582 -0.000240485 0.00619637 5.52049e-18 0.00619637)
(0.00619553 -0.00283463 -0.000244884 0.00619553 1.92528e-18 0.00619553)
(0.00619553 -0.00283463 -0.000244884 0.00619553 6.57079e-18 0.00619553)
(0.00619401 -0.00283315 -0.000249337 0.00619401 2.44111e-18 0.00619401)
(0.00619401 -0.00283315 -0.000249337 0.00619401 5.69506e-18 0.00619401)
(0.00619182 -0.00283137 -0.000253844 0.00619182 1.21355e-18 0.00619182)
(0.00619182 -0.00283137 -0.000253844 0.00619182 5.04311e-18 0.00619182)
(0.00618896 -0.0028293 -0.000258405 0.00618896 4.59858e-19 0.00618896)
(0.00618896 -0.0028293 -0.000258405 0.00618896 5.79194e-18 0.00618896)
(0.00618544 -0.00282694 -0.000263021 0.00618544 6.0182e-19 0.00618544)
(0.00618544 -0.00282694 -0.000263021 0.00618544 6.41724e-18 0.00618544)
(0.00618127 -0.00282429 -0.000267691 0.00618127 5.54261e-19 0.00618127)
(0.00618127 -0.00282429 -0.000267691 0.00618127 6.73782e-18 0.00618127)
(0.00617646 -0.00282135 -0.000272417 0.00617646 -1.91918e-18 0.00617646)
(0.00617646 -0.00282135 -0.000272417 0.00617646 7.43371e-18 0.00617646)
(0.00617101 -0.00281813 -0.000277197 0.00617101 -1.76897e-18 0.00617101)
(0.00617101 -0.00281813 -0.000277197 0.00617101 7.41282e-18 0.00617101)
(0.00616492 -0.00281463 -0.000282032 0.00616492 -1.0601e-18 0.00616492)
(0.00616492 -0.00281463 -0.000282032 0.00616492 7.30138e-18 0.00616492)
(0.0061582 -0.00281084 -0.000286921 0.0061582 -1.23685e-18 0.0061582)
(0.0061582 -0.00281084 -0.000286921 0.0061582 7.98818e-18 0.0061582)
(0.00615086 -0.00280678 -0.000291865 0.00615086 -2.04908e-18 0.00615086)
(0.00615086 -0.00280678 -0.000291865 0.00615086 8.31003e-18 0.00615086)
(0.00614289 -0.00280243 -0.000296864 0.00614289 -2.17521e-18 0.00614289)
(0.00614289 -0.00280243 -0.000296864 0.00614289 8.35161e-18 0.00614289)
(0.00613431 -0.0027978 -0.000301917 0.00613431 -1.45063e-18 0.00613431)
(0.00613431 -0.0027978 -0.000301917 0.00613431 8.84616e-18 0.00613431)
(0.00612511 -0.00279289 -0.000307023 0.00612511 -2.16069e-18 0.00612511)
(0.00612511 -0.00279289 -0.000307023 0.00612511 9.9692e-18 0.00612511)
(0.00611529 -0.0027877 -0.000312184 0.00611529 -3.47532e-18 0.00611529)
(0.00611529 -0.0027877 -0.000312184 0.00611529 1.08473e-17 0.00611529)
(0.00610487 -0.00278222 -0.000317397 0.00610487 -3.41891e-18 0.00610487)
(0.00610487 -0.00278222 -0.000317397 0.00610487 1.1397e-17 0.00610487)
(0.00609383 -0.00277647 -0.000322664 0.00609383 -2.50451e-18 0.00609383)
(0.00609383 -0.00277647 -0.000322664 0.00609383 1.44562e-17 0.00609383)
(0.00608218 -0.00277043 -0.000327982 0.00608218 -4.05786e-18 0.00608218)
(0.00608218 -0.00277043 -0.000327982 0.00608218 1.79759e-17 0.00608218)
(0.00606993 -0.00276411 -0.000333352 0.00606993 -6.05392e-18 0.00606993)
(0.00606993 -0.00276411 -0.000333352 0.00606993 1.69776e-17 0.00606993)
(0.00605707 -0.00275751 -0.000338773 0.00605707 -6.98852e-18 0.00605707)
(0.00605707 -0.00275751 -0.000338773 0.00605707 1.64643e-17 0.00605707)
(0.0060436 -0.00275063 -0.000344245 0.0060436 -8.27509e-18 0.0060436)
(0.0060436 -0.00275063 -0.000344245 0.0060436 1.76706e-17 0.0060436)
(0.00602952 -0.00274345 -0.000349765 0.00602952 -6.52595e-18 0.00602952)
(0.00602952 -0.00274345 -0.000349765 0.00602952 1.79657e-17 0.00602952)
(0.00601484 -0.00273599 -0.000355334 0.00601484 -4.06676e-18 0.00601484)
(0.00601484 -0.00273599 -0.000355334 0.00601484 1.91145e-17 0.00601484)
(0.00599955 -0.00272824 -0.00036095 0.00599955 -4.41313e-18 0.00599955)
(0.00599955 -0.00272824 -0.00036095 0.00599955 2.21102e-17 0.00599955)
(0.00598364 -0.0027202 -0.000366613 0.00598364 -5.3868e-18 0.00598364)
(0.00598364 -0.0027202 -0.000366613 0.00598364 2.81726e-17 0.00598364)
(0.00596713 -0.00271187 -0.00037232 0.00596713 -5.52365e-18 0.00596713)
(0.00596713 -0.00271187 -0.00037232 0.00596713 3.11705e-17 0.00596713)
(0.00595001 -0.00270324 -0.000378071 0.00595001 -4.63972e-18 0.00595001)
(0.00595001 -0.00270324 -0.000378071 0.00595001 3.12e-17 0.00595001)
(0.00593226 -0.00269431 -0.000383864 0.00593226 -1.67441e-18 0.00593226)
(0.00593226 -0.00269431 -0.000383864 0.00593226 3.32304e-17 0.00593226)
(0.00591391 -0.00268508 -0.000389697 0.00591391 2.85587e-18 0.00591391)
(0.00591391 -0.00268508 -0.000389697 0.00591391 3.31726e-17 0.00591391)
(0.00589493 -0.00267556 -0.000395569 0.00589493 1.34929e-18 0.00589493)
(0.00589493 -0.00267556 -0.000395569 0.00589493 3.26402e-17 0.00589493)
(0.00587533 -0.00266572 -0.000401479 0.00587533 6.83964e-20 0.00587533)
(0.00587533 -0.00266572 -0.000401479 0.00587533 3.53768e-17 0.00587533)
(0.0058551 -0.00265558 -0.000407423 0.0058551 3.17682e-18 0.0058551)
(0.0058551 -0.00265558 -0.000407423 0.0058551 3.94975e-17 0.0058551)
(0.00583425 -0.00264513 -0.0004134 0.00583425 2.94178e-18 0.00583425)
(0.00583425 -0.00264513 -0.0004134 0.00583425 4.48481e-17 0.00583425)
(0.00581276 -0.00263437 -0.000419408 0.00581276 4.06243e-19 0.00581276)
(0.00581276 -0.00263437 -0.000419408 0.00581276 4.52364e-17 0.00581276)
(0.00579064 -0.00262328 -0.000425444 0.00579064 -4.52564e-19 0.00579064)
(0.00579064 -0.00262328 -0.000425444 0.00579064 3.87485e-17 0.00579064)
(0.00576788 -0.00261188 -0.000431505 0.00576788 5.53378e-19 0.00576788)
(0.00576788 -0.00261188 -0.000431505 0.00576788 3.84471e-17 0.00576788)
(0.00574447 -0.00260015 -0.00043759 0.00574447 6.37685e-19 0.00574447)
(0.00574447 -0.00260015 -0.00043759 0.00574447 4.23166e-17 0.00574447)
(0.00572041 -0.0025881 -0.000443694 0.00572041 1.39679e-18 0.00572041)
(0.00572041 -0.0025881 -0.000443694 0.00572041 4.41613e-17 0.00572041)
(0.0056957 -0.00257571 -0.000449815 0.0056957 3.42261e-18 0.0056957)
(0.0056957 -0.00257571 -0.000449815 0.0056957 4.53023e-17 0.0056957)
(0.00567032 -0.00256299 -0.00045595 0.00567032 2.14174e-18 0.00567032)
(0.00567032 -0.00256299 -0.00045595 0.00567032 4.47134e-17 0.00567032)
(0.00564429 -0.00254993 -0.000462095 0.00564429 -4.44731e-18 0.00564429)
(0.00564429 -0.00254993 -0.000462095 0.00564429 4.32632e-17 0.00564429)
(0.00561758 -0.00253652 -0.000468246 0.00561758 -1.51348e-18 0.00561758)
(0.00561758 -0.00253652 -0.000468246 0.00561758 4.50061e-17 0.00561758)
(0.0055902 -0.00252277 -0.0004744 0.0055902 1.63843e-19 0.0055902)
(0.0055902 -0.00252277 -0.0004744 0.0055902 4.80553e-17 0.0055902)
(0.00556213 -0.00250867 -0.000480551 0.00556213 8.35372e-19 0.00556213)
(0.00556213 -0.00250867 -0.000480551 0.00556213 4.73611e-17 0.00556213)
(0.00553338 -0.0024942 -0.000486697 0.00553338 8.42563e-19 0.00553338)
(0.00553338 -0.0024942 -0.000486697 0.00553338 4.29077e-17 0.00553338)
(0.00550393 -0.00247938 -0.000492832 0.00550393 -1.83639e-18 0.00550393)
(0.00550393 -0.00247938 -0.000492832 0.00550393 3.80717e-17 0.00550393)
(0.00547378 -0.00246419 -0.000498951 0.00547378 -2.43778e-18 0.00547378)
(0.00547378 -0.00246419 -0.000498951 0.00547378 3.66321e-17 0.00547378)
(0.00544292 -0.00244862 -0.000505049 0.00544292 -6.41579e-19 0.00544292)
(0.00544292 -0.00244862 -0.000505049 0.00544292 4.0899e-17 0.00544292)
(0.00541135 -0.00243268 -0.00051112 0.00541135 4.55116e-18 0.00541135)
(0.00541135 -0.00243268 -0.00051112 0.00541135 3.55167e-17 0.00541135)
(0.00537905 -0.00241636 -0.00051716 0.00537905 8.00577e-18 0.00537905)
(0.00537905 -0.00241636 -0.00051716 0.00537905 3.39667e-17 0.00537905)
(0.00534603 -0.00239964 -0.000523161 0.00534603 4.50648e-18 0.00534603)
(0.00534603 -0.00239964 -0.000523161 0.00534603 2.73999e-17 0.00534603)
(0.00531227 -0.00238254 -0.000529117 0.00531227 -4.415e-18 0.00531227)
(0.00531227 -0.00238254 -0.000529117 0.00531227 3.11679e-17 0.00531227)
(0.00527776 -0.00236504 -0.000535023 0.00527776 9.28166e-20 0.00527776)
(0.00527776 -0.00236504 -0.000535023 0.00527776 2.89502e-17 0.00527776)
(0.0052425 -0.00234713 -0.000540869 0.0052425 5.28193e-18 0.0052425)
(0.0052425 -0.00234713 -0.000540869 0.0052425 2.05073e-17 0.0052425)
(0.00520648 -0.00232881 -0.00054665 0.00520648 -2.33173e-18 0.00520648)
(0.00520648 -0.00232881 -0.00054665 0.00520648 1.90235e-17 0.00520648)
(0.0051697 -0.00231007 -0.000552357 0.0051697 -5.28332e-18 0.0051697)
(0.0051697 -0.00231007 -0.000552357 0.0051697 1.9182e-17 0.0051697)
(0.00513214 -0.00229091 -0.000557982 0.00513214 -4.94283e-18 0.00513214)
(0.00513214 -0.00229091 -0.000557982 0.00513214 1.70647e-17 0.00513214)
(0.00509379 -0.00227131 -0.000563517 0.00509379 -4.12969e-18 0.00509379)
(0.00509379 -0.00227131 -0.000563517 0.00509379 1.06319e-17 0.00509379)
(0.00505465 -0.00225129 -0.000568952 0.00505465 -2.0519e-18 0.00505465)
(0.00505465 -0.00225129 -0.000568952 0.00505465 1.02154e-17 0.00505465)
(0.00501472 -0.00223081 -0.000574278 0.00501472 3.7166e-19 0.00501472)
(0.00501472 -0.00223081 -0.000574278 0.00501472 5.84789e-18 0.00501472)
(0.00497397 -0.00220989 -0.000579484 0.00497397 7.87247e-20 0.00497397)
(0.00497397 -0.00220989 -0.000579484 0.00497397 6.49826e-18 0.00497397)
(0.00493241 -0.00218851 -0.000584562 0.00493241 1.71555e-18 0.00493241)
(0.00493241 -0.00218851 -0.000584562 0.00493241 8.5958e-18 0.00493241)
(0.00489002 -0.00216667 -0.000589498 0.00489002 -7.50578e-19 0.00489002)
(0.00489002 -0.00216667 -0.000589498 0.00489002 1.27486e-17 0.00489002)
(0.0048468 -0.00214435 -0.000594283 0.0048468 2.38809e-18 0.0048468)
(0.0048468 -0.00214435 -0.000594283 0.0048468 9.87867e-18 0.0048468)
(0.00480275 -0.00212156 -0.000598903 0.00480275 2.84313e-18 0.00480275)
(0.00480275 -0.00212156 -0.000598903 0.00480275 6.47784e-18 0.00480275)
(0.00475784 -0.00209827 -0.000603347 0.00475784 -1.78686e-18 0.00475784)
(0.00475784 -0.00209827 -0.000603347 0.00475784 -1.27406e-19 0.00475784)
(0.00471208 -0.0020745 -0.000607601 0.00471208 -2.18227e-18 0.00471208)
(0.00471208 -0.0020745 -0.000607601 0.00471208 5.63744e-18 0.00471208)
(0.00466547 -0.00205022 -0.000611652 0.00466547 5.07501e-18 0.00466547)