/*--------------------------------*- C++ -*----------------------------------*\
| =========                 |                                                 |
| \\      /  F ield         | OpenFOAM: The Open Source CFD Toolbox           |
|  \\    /   O peration     | Version:  2106                                  |
|   \\  /    A nd           | Website:  www.openfoam.com                      |
|    \\/     M anipulation  |                                                 |
\*---------------------------------------------------------------------------*/
FoamFile
{
    version     2.0;
    format      ascii;
    arch        "LSB;label=32;scalar=64";
    class       volVectorField;
    location    "10060";
    object      U;
}
// * * * * * * * * * * * * * * * * * * * * * * * * * * * * * * * * * * * * * //

dimensions      [0 1 -1 0 0 0 0];

internalField   nonuniform List<vector> 
2000
(
(0.00220372 -5.89586e-16 -1.0489e-17)
(0.00220372 8.87277e-20 -7.75024e-22)
(0.00665147 -2.27605e-15 -3.79388e-17)
(0.00665147 -5.34696e-19 -2.29963e-21)
(0.0111814 -2.18104e-15 -4.0284e-17)
(0.0111814 -7.89825e-19 -4.79782e-21)
(0.015795 -2.03124e-15 -4.23488e-17)
(0.015795 -1.22553e-18 -6.60219e-21)
(0.0204937 -2.02732e-15 -4.4636e-17)
(0.0204937 -1.67258e-18 -8.06049e-21)
(0.0252792 -2.03424e-15 -4.70794e-17)
(0.0252792 -2.15226e-18 -9.10926e-21)
(0.030153 -2.03792e-15 -4.96302e-17)
(0.030153 -2.66974e-18 -1.08655e-20)
(0.0351167 -2.03635e-15 -5.22841e-17)
(0.0351167 -3.18108e-18 -1.30729e-20)
(0.0401719 -2.03496e-15 -5.50526e-17)
(0.0401719 -3.70594e-18 -1.49926e-20)
(0.0453204 -2.03408e-15 -5.79417e-17)
(0.0453204 -4.28151e-18 -1.63426e-20)
(0.0505637 -2.03333e-15 -6.09549e-17)
(0.0505637 -4.86226e-18 -1.71255e-20)
(0.0559037 -2.03258e-15 -6.40959e-17)
(0.0559037 -5.39837e-18 -1.8148e-20)
(0.061342 -2.03172e-15 -6.73685e-17)
(0.061342 -5.9658e-18 -1.95766e-20)
(0.0668803 -2.03075e-15 -7.07771e-17)
(0.0668803 -6.59247e-18 -2.1067e-20)
(0.0725206 -2.02976e-15 -7.43265e-17)
(0.0725206 -7.15843e-18 -2.14638e-20)
(0.0782644 -2.02877e-15 -7.8021e-17)
(0.0782644 -7.76677e-18 -2.12652e-20)
(0.0841138 -2.02777e-15 -8.1866e-17)
(0.0841138 -8.43983e-18 -2.07348e-20)
(0.0900704 -2.02673e-15 -8.58664e-17)
(0.0900704 -9.02785e-18 -2.11059e-20)
(0.096136 -2.02562e-15 -9.00271e-17)
(0.096136 -9.73771e-18 -2.10114e-20)
(0.102312 -2.0245e-15 -9.43533e-17)
(0.102312 -1.05215e-17 -1.92099e-20)
(0.108601 -2.02341e-15 -9.88503e-17)
(0.108601 -1.12242e-17 -2.18456e-20)
(0.115005 -2.02232e-15 -1.03523e-16)
(0.115005 -1.19701e-17 -2.25429e-20)
(0.121524 -2.02111e-15 -1.08375e-16)
(0.121524 -1.28084e-17 -2.22211e-20)
(0.128161 -2.0198e-15 -1.13411e-16)
(0.128161 -1.36239e-17 -2.00613e-20)
(0.134916 -2.01849e-15 -1.18635e-16)
(0.134916 -1.45444e-17 -1.74419e-20)
(0.141792 -2.01719e-15 -1.24048e-16)
(0.141792 -1.55195e-17 -1.681e-20)
(0.148789 -2.01594e-15 -1.29655e-16)
(0.148789 -1.64656e-17 -1.622e-20)
(0.155908 -2.01458e-15 -1.35455e-16)
(0.155908 -1.749e-17 -1.16778e-20)
(0.16315 -2.01302e-15 -1.41448e-16)
(0.16315 -1.84706e-17 -6.94845e-21)
(0.170516 -2.01142e-15 -1.47631e-16)
(0.170516 -1.9451e-17 3.65981e-21)
(0.178004 -2.00982e-15 -1.54001e-16)
(0.178004 -2.02362e-17 1.16691e-20)
(0.185614 -2.00821e-15 -1.60553e-16)
(0.185614 -2.11455e-17 1.74707e-20)
(0.193346 -2.00655e-15 -1.67278e-16)
(0.193346 -2.23138e-17 2.688e-20)
(0.201197 -2.00479e-15 -1.74166e-16)
(0.201197 -2.35353e-17 3.47576e-20)
(0.209166 -2.00299e-15 -1.81201e-16)
(0.209166 -2.46723e-17 4.05388e-20)
(0.217249 -2.00122e-15 -1.8837e-16)
(0.217249 -2.59724e-17 4.73888e-20)
(0.225442 -1.99933e-15 -1.95653e-16)
(0.225442 -2.73685e-17 6.27842e-20)
(0.233741 -1.99737e-15 -2.03025e-16)
(0.233741 -2.85929e-17 7.02212e-20)
(0.24214 -1.99538e-15 -2.1046e-16)
(0.24214 -3.03645e-17 8.41833e-20)
(0.250633 -1.99305e-15 -2.1793e-16)
(0.250633 -3.22271e-17 9.01963e-20)
(0.259211 -1.991e-15 -2.25406e-16)
(0.259211 -3.35634e-17 9.46573e-20)
(0.267867 -1.9895e-15 -2.32856e-16)
(0.267867 -3.47986e-17 1.15366e-19)
(0.276591 -1.98798e-15 -2.40248e-16)
(0.276591 -3.59135e-17 1.47023e-19)
(0.285374 -1.98616e-15 -2.47547e-16)
(0.285374 -3.74214e-17 1.83044e-19)
(0.294204 -1.98369e-15 -2.54719e-16)
(0.294204 -3.87082e-17 2.19547e-19)
(0.303071 -1.98089e-15 -2.61727e-16)
(0.303071 -4.02652e-17 2.50168e-19)
(0.311962 -1.97841e-15 -2.68551e-16)
(0.311962 -4.25299e-17 2.75093e-19)
(0.320866 -1.97635e-15 -2.75163e-16)
(0.320866 -4.40074e-17 2.79652e-19)
(0.32977 -1.97418e-15 -2.81544e-16)
(0.32977 -4.52483e-17 2.74205e-19)
(0.338663 -1.97158e-15 -2.87677e-16)
(0.338663 -4.70599e-17 3.15489e-19)
(0.347532 -1.96934e-15 -2.93548e-16)
(0.347532 -4.86186e-17 3.71219e-19)
(0.356367 -1.96709e-15 -2.9916e-16)
(0.356367 -5.02563e-17 3.75881e-19)
(0.365156 -1.96411e-15 -3.04495e-16)
(0.365156 -5.22952e-17 3.92303e-19)
(0.373889 -1.96106e-15 -3.09558e-16)
(0.373889 -5.45145e-17 4.31827e-19)
(0.382558 -1.95736e-15 -3.14355e-16)
(0.382558 -5.70775e-17 4.6717e-19)
(0.391153 -1.95326e-15 -3.18887e-16)
(0.391153 -5.96303e-17 4.93959e-19)
(0.399666 -1.94979e-15 -3.23176e-16)
(0.399666 -6.22539e-17 4.82063e-19)
(0.408091 -1.94624e-15 -3.27237e-16)
(0.408091 -6.48866e-17 4.78476e-19)
(0.416423 -1.94334e-15 -3.3109e-16)
(0.416423 -6.74779e-17 5.42624e-19)
(0.424655 -1.94045e-15 -3.34764e-16)
(0.424655 -6.97875e-17 6.60016e-19)
(0.432784 -1.93709e-15 -3.38274e-16)
(0.432784 -7.19062e-17 7.45186e-19)
(0.440807 -1.93374e-15 -3.41645e-16)
(0.440807 -7.3577e-17 7.48437e-19)
(0.448721 -1.93046e-15 -3.44889e-16)
(0.448721 -7.54285e-17 7.39525e-19)
(0.456524 -1.92746e-15 -3.48039e-16)
(0.456524 -7.81793e-17 7.88894e-19)
(0.464216 -1.9246e-15 -3.51114e-16)
(0.464216 -8.03066e-17 8.34837e-19)
(0.471795 -1.92056e-15 -3.54133e-16)
(0.471795 -8.28332e-17 8.36051e-19)
(0.479261 -1.91638e-15 -3.5711e-16)
(0.479261 -8.60534e-17 8.64761e-19)
(0.486615 -1.91419e-15 -3.60068e-16)
(0.486615 -8.79943e-17 9.46706e-19)
(0.493857 -1.91267e-15 -3.63035e-16)
(0.493857 -8.86642e-17 1.03678e-18)
(0.500989 -1.90974e-15 -3.66019e-16)
(0.500989 -9.05738e-17 1.07558e-18)
(0.508012 -1.90689e-15 -3.68999e-16)
(0.508012 -9.34194e-17 1.05731e-18)
(0.514927 -1.9043e-15 -3.72051e-16)
(0.514927 -9.43446e-17 1.06828e-18)
(0.521736 -1.90164e-15 -3.75157e-16)
(0.521736 -9.56678e-17 1.14805e-18)
(0.528442 -1.89961e-15 -3.78335e-16)
(0.528442 -9.86851e-17 1.3153e-18)
(0.535046 -1.89694e-15 -3.81619e-16)
(0.535046 -1.00799e-16 1.34861e-18)
(0.54155 -1.8944e-15 -3.84979e-16)
(0.54155 -1.03259e-16 1.30311e-18)
(0.547958 -1.89086e-15 -3.88448e-16)
(0.547958 -1.05533e-16 1.2748e-18)
(0.55427 -1.88652e-15 -3.92023e-16)
(0.55427 -1.0786e-16 1.31979e-18)
(0.56049 -1.88208e-15 -3.95695e-16)
(0.56049 -1.10491e-16 1.41511e-18)
(0.566619 -1.8784e-15 -3.99484e-16)
(0.566619 -1.12234e-16 1.59052e-18)
(0.572661 -1.87555e-15 -4.03422e-16)
(0.572661 -1.15445e-16 1.60086e-18)
(0.578617 -1.8718e-15 -4.0748e-16)
(0.578617 -1.17971e-16 1.55192e-18)
(0.58449 -1.86693e-15 -4.11682e-16)
(0.58449 -1.21971e-16 1.77931e-18)
(0.590282 -1.86205e-15 -4.1602e-16)
(0.590282 -1.26266e-16 2.04207e-18)
(0.595995 -1.85853e-15 -4.20517e-16)
(0.595995 -1.27868e-16 2.04111e-18)
(0.601632 -1.85589e-15 -4.2517e-16)
(0.601632 -1.30487e-16 1.87727e-18)
(0.607195 -1.85412e-15 -4.29988e-16)
(0.607195 -1.35088e-16 1.97479e-18)
(0.612686 -1.85182e-15 -4.34971e-16)
(0.612686 -1.40337e-16 2.03411e-18)
(0.618106 -1.84855e-15 -4.3956e-16)
(0.618106 -1.41911e-16 2.11182e-18)
(0.623459 -1.84626e-15 -4.44008e-16)
(0.623459 -1.42512e-16 2.40213e-18)
(0.628746 -1.84389e-15 -4.4873e-16)
(0.628746 -1.45698e-16 2.47766e-18)
(0.633969 -1.8386e-15 -4.53677e-16)
(0.633969 -1.48864e-16 2.35133e-18)
(0.639129 -1.83149e-15 -4.58905e-16)
(0.639129 -1.54206e-16 2.31274e-18)
(0.644229 -1.82477e-15 -4.63977e-16)
(0.644229 -1.60088e-16 2.29726e-18)
(0.649271 -1.8193e-15 -4.69146e-16)
(0.649271 -1.62675e-16 2.29624e-18)
(0.654256 -1.81462e-15 -4.74602e-16)
(0.654256 -1.6541e-16 2.12181e-18)
(0.659185 -1.81091e-15 -4.80293e-16)
(0.659185 -1.68722e-16 2.2758e-18)
(0.664061 -1.80955e-15 -4.85999e-16)
(0.664061 -1.68553e-16 2.37567e-18)
(0.668885 -1.80743e-15 -4.91798e-16)
(0.668885 -1.6856e-16 2.74012e-18)
(0.673658 -1.80571e-15 -4.98043e-16)
(0.673658 -1.69037e-16 2.93965e-18)
(0.678382 -1.80317e-15 -5.04506e-16)
(0.678382 -1.69396e-16 2.67678e-18)
(0.683059 -1.7985e-15 -5.11007e-16)
(0.683059 -1.7087e-16 2.72914e-18)
(0.687689 -1.7932e-15 -5.17757e-16)
(0.687689 -1.73625e-16 3.33904e-18)
(0.692274 -1.7878e-15 -5.24913e-16)
(0.692274 -1.75275e-16 3.4964e-18)
(0.696815 -1.78427e-15 -5.32064e-16)
(0.696815 -1.77665e-16 3.48118e-18)
(0.701314 -1.78012e-15 -5.37023e-16)
(0.701314 -1.80903e-16 3.53292e-18)
(0.705772 -1.77504e-15 -5.37863e-16)
(0.705772 -1.8249e-16 3.84092e-18)
(0.710189 -1.77112e-15 -5.38555e-16)
(0.710189 -1.87501e-16 4.11672e-18)
(0.714567 -1.76602e-15 -5.38444e-16)
(0.714567 -1.89902e-16 4.18267e-18)
(0.718908 -1.75835e-15 -5.38731e-16)
(0.718908 -1.93029e-16 4.28148e-18)
(0.723211 -1.74988e-15 -5.3907e-16)
(0.723211 -1.96806e-16 4.29291e-18)
(0.727479 -1.74348e-15 -5.39191e-16)
(0.727479 -2.01648e-16 4.30555e-18)
(0.731711 -1.73687e-15 -5.39661e-16)
(0.731711 -2.058e-16 3.94064e-18)
(0.73591 -1.72929e-15 -5.40104e-16)
(0.73591 -2.11526e-16 4.15317e-18)
(0.740076 -1.722e-15 -5.40229e-16)
(0.740076 -2.19607e-16 4.56696e-18)
(0.744209 -1.71382e-15 -5.39966e-16)
(0.744209 -2.21731e-16 4.7905e-18)
(0.748311 -1.7041e-15 -5.40758e-16)
(0.748311 -2.27276e-16 4.49009e-18)
(0.752383 -1.69151e-15 -5.42082e-16)
(0.752383 -2.32925e-16 5.26431e-18)
(0.756424 -1.67786e-15 -5.43219e-16)
(0.756424 -2.46927e-16 5.66312e-18)
(0.760437 -1.66759e-15 -5.44924e-16)
(0.760437 -2.54389e-16 5.48736e-18)
(0.764422 -1.66056e-15 -5.46883e-16)
(0.764422 -2.59509e-16 4.40203e-18)
(0.768379 -1.65248e-15 -5.49439e-16)
(0.768379 -2.68638e-16 4.4969e-18)
(0.77231 -1.64418e-15 -5.51123e-16)
(0.77231 -2.78117e-16 4.03287e-18)
(0.776214 -1.63769e-15 -5.5305e-16)
(0.776214 -2.93125e-16 4.14939e-18)
(0.780093 -1.62905e-15 -5.55428e-16)
(0.780093 -3.04193e-16 3.68177e-18)
(0.783947 -1.61788e-15 -5.59452e-16)
(0.783947 -3.16681e-16 2.96177e-18)
(0.787777 -1.60683e-15 -5.64437e-16)
(0.787777 -3.22868e-16 3.66029e-18)
(0.791584 -1.60252e-15 -5.6962e-16)
(0.791584 -3.2356e-16 4.17431e-18)
(0.795367 -1.60515e-15 -5.7375e-16)
(0.795367 -3.26524e-16 5.61278e-18)
(0.799128 -1.60305e-15 -5.75662e-16)
(0.799128 -3.27076e-16 5.45211e-18)
(0.802868 -1.60003e-15 -5.78268e-16)
(0.802868 -3.32268e-16 4.40824e-18)
(0.806585 -1.59551e-15 -5.81445e-16)
(0.806585 -3.39555e-16 5.68678e-18)
(0.810282 -1.58953e-15 -5.82477e-16)
(0.810282 -3.46294e-16 7.29926e-18)
(0.813959 -1.58295e-15 -5.83703e-16)
(0.813959 -3.49576e-16 6.03699e-18)
(0.817616 -1.57195e-15 -5.86332e-16)
(0.817616 -3.51635e-16 5.55802e-18)
(0.821253 -1.56383e-15 -5.88037e-16)
(0.821253 -3.53516e-16 6.9639e-18)
(0.824871 -1.55743e-15 -5.8845e-16)
(0.824871 -3.6425e-16 8.38323e-18)
(0.828471 -1.54788e-15 -5.88069e-16)
(0.828471 -3.6976e-16 8.56712e-18)
(0.832052 -1.5405e-15 -5.88203e-16)
(0.832052 -3.75899e-16 8.80788e-18)
(0.835616 -1.53241e-15 -5.85799e-16)
(0.835616 -3.80656e-16 8.80026e-18)
(0.839163 -1.52228e-15 -5.81785e-16)
(0.839163 -3.88403e-16 8.17981e-18)
(0.842692 -1.51411e-15 -5.79374e-16)
(0.842692 -3.91567e-16 8.85127e-18)
(0.846205 -1.50398e-15 -5.77497e-16)
(0.846205 -4.02415e-16 8.84034e-18)
(0.849702 -1.49075e-15 -5.74204e-16)
(0.849702 -4.09431e-16 8.95198e-18)
(0.853182 -1.48104e-15 -5.69632e-16)
(0.853182 -4.22568e-16 9.07954e-18)
(0.856647 -1.47012e-15 -5.66767e-16)
(0.856647 -4.35981e-16 1.05115e-17)
(0.860097 -1.45987e-15 -5.63682e-16)
(0.860097 -4.48874e-16 1.08258e-17)
(0.863532 -1.44954e-15 -5.59168e-16)
(0.863532 -4.62096e-16 1.08079e-17)
(0.866952 -1.43766e-15 -5.528e-16)
(0.866952 -4.72663e-16 1.03724e-17)
(0.870358 -1.41898e-15 -5.4808e-16)
(0.870358 -4.91818e-16 1.00368e-17)
(0.87375 -1.39988e-15 -5.42307e-16)
(0.87375 -4.98297e-16 4.35837e-18)
(0.877128 -1.38868e-15 -5.33606e-16)
(0.877128 -5.02227e-16 -3.09768e-18)
(0.880492 -1.38015e-15 -5.24833e-16)
(0.880492 -5.21352e-16 -6.06965e-18)
(0.883843 -1.37018e-15 -5.14471e-16)
(0.883843 -5.3402e-16 -1.04413e-17)
(0.887181 -1.35463e-15 -5.02194e-16)
(0.887181 -5.42573e-16 -1.49435e-17)
(0.890506 -1.33494e-15 -4.94693e-16)
(0.890506 -5.62669e-16 -1.86828e-17)
(0.893818 -1.31988e-15 -4.87202e-16)
(0.893818 -5.70479e-16 -2.36205e-17)
(0.897118 -1.3061e-15 -4.80008e-16)
(0.897118 -5.86766e-16 -3.35761e-17)
(0.900405 -1.29022e-15 -4.70415e-16)
(0.900405 -6.05664e-16 -5.11741e-17)
(0.90368 -1.27626e-15 -4.62284e-16)
(0.90368 -6.0495e-16 -6.56462e-17)
(0.906944 -1.25649e-15 -4.55292e-16)
(0.906944 -6.14578e-16 -8.22445e-17)
(0.910196 -1.23939e-15 -4.5263e-16)
(0.910196 -6.20584e-16 -1.00197e-16)
(0.913436 -1.22838e-15 -4.57293e-16)
(0.913436 -6.28918e-16 -1.14742e-16)
(0.916664 -1.2278e-15 -4.56687e-16)
(0.916664 -6.2914e-16 -1.29206e-16)
(0.919881 -1.21182e-15 -4.57295e-16)
(0.919881 -6.24453e-16 -1.49488e-16)
(0.923087 -1.20073e-15 -4.59476e-16)
(0.923087 -6.3527e-16 -1.72584e-16)
(0.926282 -1.19764e-15 -4.60932e-16)
(0.926282 -6.36618e-16 -2.03823e-16)
(0.929467 -1.18694e-15 -4.59498e-16)
(0.929467 -6.40329e-16 -2.27443e-16)
(0.93264 -1.16773e-15 -4.56343e-16)
(0.93264 -6.45325e-16 -2.41411e-16)
(0.935802 -1.15119e-15 -4.54493e-16)
(0.935802 -6.43317e-16 -2.6322e-16)
(0.938954 -1.13591e-15 -4.52312e-16)
(0.938954 -6.44766e-16 -2.85488e-16)
(0.942095 -1.11209e-15 -4.52663e-16)
(0.942095 -6.50727e-16 -3.09562e-16)
(0.945226 -1.09662e-15 -4.52591e-16)
(0.945226 -6.58254e-16 -3.32757e-16)
(0.948346 -1.09174e-15 -4.47006e-16)
(0.948346 -6.6292e-16 -3.54407e-16)
(0.951455 -1.0751e-15 -4.39939e-16)
(0.951455 -6.59224e-16 -3.72062e-16)
(0.954554 -1.05607e-15 -4.37189e-16)
(0.954554 -6.61376e-16 -3.96969e-16)
(0.957643 -1.03292e-15 -4.33158e-16)
(0.957643 -6.72076e-16 -4.19759e-16)
(0.960722 -1.02056e-15 -4.30371e-16)
(0.960722 -6.62216e-16 -4.40496e-16)
(0.96379 -1.02379e-15 -4.30428e-16)
(0.96379 -6.61114e-16 -4.519e-16)
(0.966847 -1.00654e-15 -4.25791e-16)
(0.966847 -6.63786e-16 -4.59709e-16)
(0.969895 -9.81451e-16 -4.17355e-16)
(0.969895 -6.70404e-16 -4.65543e-16)
(0.972932 -9.59517e-16 -4.13874e-16)
(0.972932 -6.91806e-16 -4.80719e-16)
(0.975958 -9.40003e-16 -4.1955e-16)
(0.975958 -7.04028e-16 -4.81861e-16)
(0.978974 -9.21098e-16 -4.25529e-16)
(0.978974 -7.19157e-16 -4.6773e-16)
(0.981979 -9.06536e-16 -4.22517e-16)
(0.981979 -7.21841e-16 -4.62486e-16)
(0.984974 -8.94596e-16 -4.07823e-16)
(0.984974 -7.33142e-16 -4.64101e-16)
(0.987957 -8.80131e-16 -4.17565e-16)
(0.987957 -7.49395e-16 -4.58328e-16)
(0.99093 -8.75744e-16 -4.1443e-16)
(0.99093 -7.63269e-16 -4.55812e-16)
(0.993892 -8.7859e-16 -4.09543e-16)
(0.993892 -7.69035e-16 -4.53913e-16)
(0.996843 -8.67212e-16 -4.00872e-16)
(0.996843 -7.65104e-16 -4.52423e-16)
(0.999782 -8.508e-16 -3.91272e-16)
(0.999782 -7.71206e-16 -4.42993e-16)
(1.00271 -8.39404e-16 -3.82047e-16)
(1.00271 -7.66399e-16 -4.4038e-16)
(1.00563 -8.29152e-16 -3.80242e-16)
(1.00563 -7.64535e-16 -4.24654e-16)
(1.00853 -8.2746e-16 -3.77721e-16)
(1.00853 -7.81004e-16 -4.22427e-16)
(1.01142 -8.27899e-16 -3.796e-16)
(1.01142 -7.94016e-16 -4.17259e-16)
(1.0143 -8.35709e-16 -3.78034e-16)
(1.0143 -7.73689e-16 -4.27101e-16)
(1.01717 -8.34664e-16 -3.77619e-16)
(1.01717 -7.75464e-16 -4.20346e-16)
(1.02003 -8.15618e-16 -3.83889e-16)
(1.02003 -7.84879e-16 -4.20644e-16)
(1.02287 -8.00913e-16 -3.74329e-16)
(1.02287 -7.79105e-16 -4.17237e-16)
(1.0257 -7.9719e-16 -3.70637e-16)
(1.0257 -7.71513e-16 -4.0767e-16)
(1.02851 -7.7001e-16 -3.662e-16)
(1.02851 -7.49005e-16 -4.17675e-16)
(1.03131 -7.34653e-16 -3.6834e-16)
(1.03131 -7.41229e-16 -4.13453e-16)
(1.0341 -7.25673e-16 -3.6337e-16)
(1.0341 -7.31219e-16 -4.20758e-16)
(1.03687 -7.26811e-16 -3.8526e-16)
(1.03687 -7.27038e-16 -4.24103e-16)
(1.03963 -7.06033e-16 -3.93598e-16)
(1.03963 -6.79818e-16 -4.04565e-16)
(1.04237 -6.76068e-16 -4.1339e-16)
(1.04237 -7.0649e-16 -3.98005e-16)
(1.04509 -6.60302e-16 -4.14096e-16)
(1.04509 -7.33176e-16 -4.0918e-16)
(1.0478 -6.59606e-16 -4.23311e-16)
(1.0478 -6.85279e-16 -3.93693e-16)
(1.05049 -6.64178e-16 -4.01587e-16)
(1.05049 -6.54693e-16 -3.85152e-16)
(1.05316 -6.44906e-16 -3.82912e-16)
(1.05316 -6.42282e-16 -4.08875e-16)
(1.05581 -6.24251e-16 -3.61688e-16)
(1.05581 -6.06291e-16 -4.00248e-16)
(1.05844 -6.12548e-16 -3.90776e-16)
(1.05844 -6.00489e-16 -3.76472e-16)
(1.06106 -5.72706e-16 -3.77488e-16)
(1.06106 -6.12009e-16 -3.49631e-16)
(1.06365 -5.99871e-16 -4.33414e-16)
(1.06365 -6.23045e-16 -3.67027e-16)
(1.06622 -6.41437e-16 -4.63206e-16)
(1.06622 -6.4725e-16 -4.07093e-16)
(1.06877 -6.43162e-16 -4.69923e-16)
(1.06877 -6.19743e-16 -4.39659e-16)
(1.07129 -6.47972e-16 -4.85835e-16)
(1.07129 -5.9637e-16 -4.37039e-16)
(1.07379 -6.3561e-16 -4.83086e-16)
(1.07379 -6.43901e-16 -4.27877e-16)
(1.07626 -6.34149e-16 -4.96574e-16)
(1.07626 -6.38734e-16 -4.09301e-16)
(1.07871 -6.66811e-16 -5.00196e-16)
(1.07871 -6.2863e-16 -3.90948e-16)
(1.08112 -6.20744e-16 -4.57856e-16)
(1.08112 -6.32156e-16 -3.9465e-16)
(1.08351 -5.80374e-16 -4.87745e-16)
(1.08351 -5.93677e-16 -4.29095e-16)
(1.08587 -6.12634e-16 -4.69931e-16)
(1.08587 -5.78215e-16 -4.00806e-16)
(1.08819 -6.37993e-16 -4.53876e-16)
(1.08819 -5.83603e-16 -3.76701e-16)
(1.09048 -6.36453e-16 -4.67126e-16)
(1.09048 -6.12102e-16 -3.74262e-16)
(1.09273 -6.16526e-16 -4.73896e-16)
(1.09273 -6.54222e-16 -3.77775e-16)
(1.09495 -5.79746e-16 -5.00077e-16)
(1.09495 -6.35684e-16 -3.79695e-16)
(1.09712 -5.77222e-16 -4.87273e-16)
(1.09712 -5.50545e-16 -3.80282e-16)
(1.09925 -5.76014e-16 -4.52725e-16)
(1.09925 -5.62387e-16 -3.79549e-16)
(1.10134 -5.99842e-16 -4.32029e-16)
(1.10134 -5.67814e-16 -3.58903e-16)
(1.10338 -5.71595e-16 -3.89916e-16)
(1.10338 -5.08081e-16 -3.73053e-16)
(1.10537 -5.20565e-16 -4.08408e-16)
(1.10537 -5.47401e-16 -3.8022e-16)
(1.1073 -4.83394e-16 -4.20584e-16)
(1.1073 -5.59871e-16 -3.99663e-16)
(1.10918 -4.19003e-16 -4.39455e-16)
(1.10918 -5.68583e-16 -4.28565e-16)
(1.11099 -5.29904e-16 -4.10897e-16)
(1.11099 -5.97647e-16 -3.81829e-16)
(1.11274 -4.55334e-16 -4.27206e-16)
(1.11274 -6.32262e-16 -4.39531e-16)
(1.11442 -5.37402e-16 -4.31798e-16)
(1.11442 -6.17733e-16 -4.0053e-16)
(1.11603 -5.22882e-16 -3.74895e-16)
(1.11603 -5.74214e-16 -3.21495e-16)
(1.11756 -5.34788e-16 -4.2244e-16)
(1.11756 -5.523e-16 -2.95035e-16)
(1.119 -5.72455e-16 -4.7484e-16)
(1.119 -5.02242e-16 -2.41923e-16)
(1.12035 -6.028e-16 -4.36672e-16)
(1.12035 -4.53314e-16 -2.63902e-16)
(1.12161 -5.9174e-16 -3.16409e-16)
(1.12161 -4.12936e-16 -1.91765e-16)
(1.12275 -5.03901e-16 -1.6831e-16)
(1.12275 -4.09064e-16 -1.60603e-16)
(1.12379 -4.35311e-16 -1.03319e-16)
(1.12379 -4.19254e-16 -1.38133e-16)
(1.12471 -4.12432e-16 -9.96692e-17)
(1.12471 -3.71736e-16 -9.61701e-17)
(1.12549 -4.0262e-16 -1.4096e-16)
(1.12549 -3.79765e-16 -6.65405e-17)
(1.12614 -3.73398e-16 -2.00853e-16)
(1.12614 -3.53836e-16 -1.63283e-16)
(1.12665 -3.06998e-16 -1.82232e-16)
(1.12665 -3.70996e-16 -1.23003e-16)
(1.12699 -3.32162e-16 -1.15474e-16)
(1.12699 -3.70575e-16 -5.18181e-17)
(1.12717 -3.21777e-16 -3.3142e-17)
(1.12717 -3.2342e-16 -3.99481e-17)
(0.00220372 5.75856e-20 1.8125e-18)
(0.00220372 2.22716e-20 5.93186e-18)
(0.00665147 -2.38831e-19 -2.74261e-18)
(0.00665147 -4.49845e-20 1.0025e-17)
(0.0111814 -3.3697e-19 -4.55193e-18)
(0.0111814 -5.98161e-20 1.04078e-17)
(0.015795 -5.22813e-19 -1.84194e-18)
(0.015795 -9.48493e-20 1.08094e-17)
(0.0204937 -7.25073e-19 1.23228e-19)
(0.0204937 -1.29265e-19 1.12308e-17)
(0.0252792 -9.34608e-19 1.45806e-18)
(0.0252792 -1.6455e-19 1.16726e-17)
(0.030153 -1.14378e-18 2.82656e-18)
(0.030153 -1.92896e-19 1.21362e-17)
(0.0351167 -1.33692e-18 4.35287e-18)
(0.0351167 -2.40122e-19 1.26236e-17)
(0.0401719 -1.53476e-18 5.99194e-18)
(0.0401719 -2.88439e-19 1.31354e-17)
(0.0453204 -1.75489e-18 7.72158e-18)
(0.0453204 -3.36441e-19 1.36716e-17)
(0.0505637 -1.96936e-18 9.25261e-18)
(0.0505637 -4.10592e-19 1.42353e-17)
(0.0559037 -2.17294e-18 9.56724e-18)
(0.0559037 -4.71369e-19 1.48267e-17)
(0.061342 -2.41275e-18 9.88969e-18)
(0.061342 -5.29224e-19 1.54462e-17)
(0.0668803 -2.73556e-18 1.02201e-17)
(0.0668803 -5.52903e-19 1.60952e-17)
(0.0725206 -3.02776e-18 1.05568e-17)
(0.0725206 -5.86663e-19 1.67784e-17)
(0.0782644 -3.28758e-18 1.09021e-17)
(0.0782644 -6.60473e-19 1.74945e-17)
(0.0841138 -3.52958e-18 1.12563e-17)
(0.0841138 -7.4709e-19 1.82413e-17)
(0.0900704 -3.74971e-18 1.16172e-17)
(0.0900704 -8.04634e-19 1.90266e-17)
(0.096136 -4.03233e-18 1.19862e-17)
(0.096136 -8.51054e-19 1.98464e-17)
(0.102312 -4.30813e-18 1.23616e-17)
(0.102312 -9.88381e-19 2.07042e-17)
(0.108601 -4.55856e-18 1.27434e-17)
(0.108601 -1.06199e-18 2.16033e-17)
(0.115005 -4.80383e-18 1.31315e-17)
(0.115005 -1.05004e-18 2.2546e-17)
(0.121524 -5.14707e-18 1.35267e-17)
(0.121524 -1.09768e-18 2.35298e-17)
(0.128161 -5.51663e-18 1.39274e-17)
(0.128161 -1.18338e-18 2.45592e-17)
(0.134916 -5.80837e-18 1.43328e-17)
(0.134916 -1.23381e-18 2.56369e-17)
(0.141792 -6.12719e-18 1.47454e-17)
(0.141792 -1.36129e-18 2.67593e-17)
(0.148789 -6.57529e-18 1.51667e-17)
(0.148789 -1.61155e-18 2.79297e-17)
(0.155908 -6.99725e-18 1.55944e-17)
(0.155908 -1.86583e-18 2.91524e-17)
(0.16315 -7.2436e-18 1.60283e-17)
(0.16315 -2.12986e-18 3.04216e-17)
(0.170516 -7.50871e-18 1.64728e-17)
(0.170516 -2.3611e-18 3.17295e-17)
(0.178004 -7.89702e-18 1.69203e-17)
(0.178004 -2.56051e-18 3.30801e-17)
(0.185614 -8.25245e-18 1.73706e-17)
(0.185614 -2.56203e-18 3.44713e-17)
(0.193346 -8.56373e-18 1.78201e-17)
(0.193346 -2.59396e-18 3.59137e-17)
(0.201197 -8.95846e-18 1.8269e-17)
(0.201197 -2.81504e-18 3.73933e-17)
(0.209166 -9.4155e-18 1.87114e-17)
(0.209166 -2.82498e-18 3.89215e-17)
(0.217249 -1.01198e-17 1.91436e-17)
(0.217249 -2.70872e-18 4.04844e-17)
(0.225442 -1.0692e-17 1.95481e-17)
(0.225442 -2.64698e-18 4.20867e-17)
(0.233741 -1.09154e-17 1.99403e-17)
(0.233741 -2.6718e-18 4.37114e-17)
(0.24214 -1.12879e-17 2.03177e-17)
(0.24214 -2.92288e-18 4.53662e-17)
(0.250633 -1.20704e-17 2.06704e-17)
(0.250633 -2.68842e-18 4.70525e-17)
(0.259211 -1.27658e-17 2.09804e-17)
(0.259211 -2.16898e-18 4.87768e-17)
(0.267867 -1.33959e-17 2.12602e-17)
(0.267867 -2.65435e-18 5.04944e-17)
(0.276591 -1.39617e-17 2.15031e-17)
(0.276591 -3.11796e-18 5.22093e-17)
(0.285374 -1.43174e-17 2.17143e-17)
(0.285374 -3.15428e-18 5.38948e-17)
(0.294204 -1.47202e-17 2.18883e-17)
(0.294204 -2.83849e-18 5.55664e-17)
(0.303071 -1.54772e-17 2.20326e-17)
(0.303071 -2.30337e-18 5.71911e-17)
(0.311962 -1.64853e-17 2.2116e-17)
(0.311962 -2.72632e-18 5.88007e-17)
(0.320866 -1.7133e-17 2.21672e-17)
(0.320866 -2.99517e-18 6.03948e-17)
(0.32977 -1.76425e-17 2.21854e-17)
(0.32977 -3.02103e-18 6.18913e-17)
(0.338663 -1.82371e-17 2.21798e-17)
(0.338663 -3.45433e-18 6.32942e-17)
(0.347532 -1.88208e-17 2.21151e-17)
(0.347532 -3.23264e-18 6.46822e-17)
(0.356367 -1.89556e-17 2.19839e-17)
(0.356367 -2.8572e-18 6.6037e-17)
(0.365156 -1.90654e-17 2.18518e-17)
(0.365156 -3.49777e-18 6.72958e-17)
(0.373889 -1.96628e-17 2.16671e-17)
(0.373889 -4.06561e-18 6.85297e-17)
(0.382558 -2.01975e-17 2.14477e-17)
(0.382558 -3.84089e-18 6.97149e-17)
(0.391153 -2.10463e-17 2.11892e-17)
(0.391153 -3.78318e-18 7.08408e-17)
(0.399666 -2.21895e-17 2.08607e-17)
(0.399666 -3.53626e-18 7.1969e-17)
(0.408091 -2.29623e-17 2.04933e-17)
(0.408091 -3.03506e-18 7.30749e-17)
(0.416423 -2.39606e-17 2.00722e-17)
(0.416423 -2.92071e-18 7.42032e-17)
(0.424655 -2.4721e-17 1.96068e-17)
(0.424655 -3.3113e-18 7.52855e-17)
(0.432784 -2.52529e-17 1.91173e-17)
(0.432784 -3.6113e-18 7.63136e-17)
(0.440807 -2.60338e-17 1.86083e-17)
(0.440807 -3.70272e-18 7.72448e-17)
(0.448721 -2.68765e-17 1.81047e-17)
(0.448721 -3.71691e-18 7.81834e-17)
(0.456524 -2.77316e-17 1.75766e-17)
(0.456524 -3.41366e-18 7.91012e-17)
(0.464216 -2.85161e-17 1.70474e-17)
(0.464216 -3.42483e-18 7.99904e-17)
(0.471795 -2.95865e-17 1.64837e-17)
(0.471795 -3.3786e-18 8.08798e-17)
(0.479261 -3.03176e-17 1.59106e-17)
(0.479261 -3.44332e-18 8.1718e-17)
(0.486615 -3.09356e-17 1.56227e-17)
(0.486615 -4.47892e-18 8.2563e-17)
(0.493857 -3.17764e-17 1.57932e-17)
(0.493857 -5.79892e-18 8.34587e-17)
(0.500989 -3.14619e-17 1.59871e-17)
(0.500989 -6.40973e-18 8.42887e-17)
(0.508012 -3.28532e-17 1.64059e-17)
(0.508012 -6.94344e-18 8.49953e-17)
(0.514927 -3.49911e-17 1.678e-17)
(0.514927 -8.16957e-18 8.56543e-17)
(0.521736 -3.55567e-17 1.70958e-17)
(0.521736 -8.64863e-18 8.64164e-17)
(0.528442 -3.73624e-17 1.73954e-17)
(0.528442 -8.78975e-18 8.71839e-17)
(0.535046 -3.90769e-17 1.75836e-17)
(0.535046 -8.89636e-18 8.7878e-17)
(0.54155 -4.06344e-17 1.77037e-17)
(0.54155 -9.58029e-18 8.8795e-17)
(0.547958 -4.23924e-17 1.80627e-17)
(0.547958 -8.73038e-18 8.94252e-17)
(0.55427 -4.35534e-17 1.86768e-17)
(0.55427 -9.89681e-18 8.99087e-17)
(0.56049 -4.36203e-17 1.8909e-17)
(0.56049 -1.14497e-17 9.07276e-17)
(0.566619 -4.39032e-17 1.90778e-17)
(0.566619 -9.17251e-18 9.16352e-17)
(0.572661 -4.4554e-17 1.93903e-17)
(0.572661 -9.32592e-18 9.22607e-17)
(0.578617 -4.55416e-17 1.98824e-17)
(0.578617 -9.44198e-18 9.28579e-17)
(0.58449 -4.72959e-17 2.04323e-17)
(0.58449 -7.91401e-18 9.35917e-17)
(0.590282 -4.79388e-17 2.05761e-17)
(0.590282 -7.6765e-18 9.45255e-17)
(0.595995 -4.77427e-17 2.05854e-17)
(0.595995 -8.01983e-18 9.54977e-17)
(0.601632 -4.66855e-17 2.09574e-17)
(0.601632 -7.90979e-18 9.61451e-17)
(0.607195 -4.51183e-17 2.15423e-17)
(0.607195 -1.01844e-17 9.66814e-17)
(0.612686 -4.50629e-17 2.22155e-17)
(0.612686 -9.3533e-18 9.71963e-17)
(0.618106 -4.50081e-17 2.2911e-17)
(0.618106 -6.8111e-18 9.79317e-17)
(0.623459 -4.6194e-17 2.35399e-17)
(0.623459 -6.87803e-18 9.86283e-17)
(0.628746 -4.84314e-17 2.40881e-17)
(0.628746 -6.27794e-18 9.89231e-17)
(0.633969 -4.85468e-17 2.46156e-17)
(0.633969 -6.15104e-18 9.94691e-17)
(0.639129 -4.8965e-17 2.56855e-17)
(0.639129 -9.72456e-18 9.96618e-17)
(0.644229 -5.07587e-17 2.67442e-17)
(0.644229 -1.39893e-17 9.96831e-17)
(0.649271 -5.04888e-17 2.79966e-17)
(0.649271 -1.33597e-17 9.97405e-17)
(0.654256 -4.99212e-17 2.93894e-17)
(0.654256 -1.02396e-17 9.9593e-17)
(0.659185 -5.08108e-17 3.07541e-17)
(0.659185 -1.13038e-17 9.97317e-17)
(0.664061 -5.06458e-17 3.20879e-17)
(0.664061 -1.18731e-17 9.98618e-17)
(0.668885 -5.13822e-17 3.36108e-17)
(0.668885 -8.55739e-18 9.99499e-17)
(0.673658 -5.25862e-17 3.44144e-17)
(0.673658 -8.72797e-18 1.00429e-16)
(0.678382 -5.37121e-17 3.51631e-17)
(0.678382 -9.01366e-18 1.01149e-16)
(0.683059 -5.49031e-17 3.6711e-17)
(0.683059 -8.67727e-18 1.00966e-16)
(0.687689 -5.53058e-17 3.80172e-17)
(0.687689 -1.00694e-17 1.01e-16)
(0.692274 -5.38439e-17 3.87994e-17)
(0.692274 -8.15281e-18 1.01211e-16)
(0.696815 -5.2737e-17 4.03793e-17)
(0.696815 -6.79544e-18 1.01291e-16)
(0.701314 -5.34992e-17 4.1623e-17)
(0.701314 -1.00921e-17 1.01182e-16)
(0.705772 -5.22178e-17 4.30614e-17)
(0.705772 -1.11236e-17 1.01171e-16)
(0.710189 -5.04081e-17 4.47703e-17)
(0.710189 -9.06124e-18 1.01014e-16)
(0.714567 -5.0624e-17 4.70378e-17)
(0.714567 -6.31156e-18 1.00397e-16)
(0.718908 -5.47209e-17 4.87288e-17)
(0.718908 -6.45904e-18 1.00007e-16)
(0.723211 -5.77094e-17 4.95428e-17)
(0.723211 -4.61049e-18 9.98217e-17)
(0.727479 -5.49436e-17 5.07876e-17)
(0.727479 -1.86938e-18 9.98131e-17)
(0.731711 -4.87026e-17 5.19972e-17)
(0.731711 -3.96724e-18 1.00109e-16)
(0.73591 -4.45016e-17 5.44114e-17)
(0.73591 -5.00459e-18 1.00122e-16)
(0.740076 -4.59484e-17 5.66295e-17)
(0.740076 -4.50533e-18 9.9942e-17)
(0.744209 -4.43683e-17 5.82772e-17)
(0.744209 -4.74443e-18 9.95237e-17)
(0.748311 -4.26148e-17 6.12131e-17)
(0.748311 -9.22251e-19 9.9055e-17)
(0.752383 -4.46455e-17 6.3468e-17)
(0.752383 -1.17363e-18 9.92026e-17)
(0.756424 -4.67401e-17 6.53927e-17)
(0.756424 -3.90976e-18 9.91921e-17)
(0.760437 -4.59809e-17 6.72977e-17)
(0.760437 -2.07503e-18 9.96017e-17)
(0.764422 -4.30677e-17 6.91788e-17)
(0.764422 -1.41213e-19 9.97847e-17)
(0.768379 -3.98794e-17 7.31042e-17)
(0.768379 -5.22204e-19 9.90039e-17)
(0.77231 -3.67822e-17 7.66921e-17)
(0.77231 -3.4549e-18 9.83281e-17)
(0.776214 -3.84827e-17 7.97947e-17)
(0.776214 -6.26869e-18 9.86991e-17)
(0.780093 -4.20388e-17 8.29253e-17)
(0.780093 -1.92856e-18 9.94029e-17)
(0.783947 -4.43179e-17 8.52089e-17)
(0.783947 1.16234e-18 1.01556e-16)
(0.787777 -4.48093e-17 8.79036e-17)
(0.787777 -3.06419e-18 1.03553e-16)
(0.791584 -4.22251e-17 9.08795e-17)
(0.791584 -2.71136e-18 1.04318e-16)
(0.795367 -4.30353e-17 9.5228e-17)
(0.795367 -9.11758e-19 1.04179e-16)
(0.799128 -4.63358e-17 9.86233e-17)
(0.799128 -5.31598e-19 1.03939e-16)
(0.802868 -4.81939e-17 1.00055e-16)
(0.802868 -9.32494e-19 1.05608e-16)
(0.806585 -5.09093e-17 1.03631e-16)
(0.806585 -4.50737e-19 1.05322e-16)
(0.810282 -5.34228e-17 1.07709e-16)
(0.810282 -1.58634e-19 1.03116e-16)
(0.813959 -5.88999e-17 1.11613e-16)
(0.813959 -2.5229e-18 1.00705e-16)
(0.817616 -6.2849e-17 1.14807e-16)
(0.817616 -1.28841e-18 1.00317e-16)
(0.821253 -6.86038e-17 1.16658e-16)
(0.821253 3.12608e-18 1.00321e-16)
(0.824871 -7.72791e-17 1.18159e-16)
(0.824871 6.2476e-18 9.88899e-17)
(0.828471 -8.09124e-17 1.19544e-16)
(0.828471 1.1133e-17 9.73174e-17)
(0.832052 -8.26348e-17 1.22001e-16)
(0.832052 1.21374e-17 9.65685e-17)
(0.835616 -8.44453e-17 1.2189e-16)
(0.835616 6.41312e-18 9.50832e-17)
(0.839163 -8.64985e-17 1.22963e-16)
(0.839163 1.0067e-17 9.11614e-17)
(0.842692 -8.6566e-17 1.23543e-16)
(0.842692 1.45153e-17 8.76289e-17)
(0.846205 -8.19719e-17 1.23027e-16)
(0.846205 1.10696e-17 8.48189e-17)
(0.849702 -7.5503e-17 1.26059e-16)
(0.849702 8.43092e-18 8.18018e-17)
(0.853182 -7.13957e-17 1.29829e-16)
(0.853182 3.48343e-18 7.7323e-17)
(0.856647 -7.08316e-17 1.33121e-16)
(0.856647 -8.25966e-19 7.44953e-17)
(0.860097 -7.85928e-17 1.38507e-16)
(0.860097 -2.6935e-18 7.07123e-17)
(0.863532 -8.54793e-17 1.41248e-16)
(0.863532 -5.25467e-18 6.56153e-17)
(0.866952 -8.65209e-17 1.4641e-16)
(0.866952 -3.01219e-18 5.90043e-17)
(0.870358 -9.47749e-17 1.51021e-16)
(0.870358 -1.35803e-17 5.46352e-17)
(0.87375 -1.05868e-16 1.48211e-16)
(0.87375 -2.10763e-17 5.37211e-17)
(0.877128 -1.01831e-16 1.46867e-16)
(0.877128 -9.87064e-18 5.03357e-17)
(0.880492 -9.38476e-17 1.49906e-16)
(0.880492 -1.09624e-17 4.47232e-17)