/*--------------------------------*- C++ -*----------------------------------*\
| =========                 |                                                 |
| \\      /  F ield         | OpenFOAM: The Open Source CFD Toolbox           |
|  \\    /   O peration     | Version:  2106                                  |
|   \\  /    A nd           | Website:  www.openfoam.com                      |
|    \\/     M anipulation  |                                                 |
\*---------------------------------------------------------------------------*/
FoamFile
{
    version     2.0;
    format      ascii;
    arch        "LSB;label=32;scalar=64";
    class       volTensorField;
    location    "10010";
    object      grad(U);
}
// * * * * * * * * * * * * * * * * * * * * * * * * * * * * * * * * * * * * * //

dimensions      [0 0 -1 0 0 0 0];

internalField   nonuniform List<tensor> 
2000
(
(0 -1.77241e-25 -3.2468e-28 23.8222 -6.19583e-12 -4.71186e-13 0.0440904 -5.73597e-15 -3.06688e-16)
(0 -5.69125e-30 -3.77129e-27 23.8222 -3.87444e-15 -1.06471e-13 0.0440904 -6.37671e-18 -1.16836e-16)
(0 -5.60519e-45 1.44336e-30 23.8177 -8.07794e-28 -8.01076e-14 0.133077 0 -3.02035e-16)
(0 -3.83106e-29 -1.19721e-30 23.8177 -5.90725e-15 -8.22198e-14 0.133077 -9.68893e-18 -6.11077e-16)
(-5.42609e-18 -4.80853e-30 1.31791e-31 23.8131 1.47992e-12 -3.9592e-14 0.184609 -1.95711e-14 -3.06254e-16)
(0 1.25362e-29 3.91756e-31 23.8131 -9.26742e-15 -7.72937e-15 0.184609 -3.12864e-17 -6.34073e-16)
(-1.77629e-17 -8.65209e-30 -2.46081e-31 23.8084 2.92078e-13 -4.03679e-14 0.188018 -3.01169e-15 -3.25672e-16)
(7.10516e-17 1.84597e-29 3.84577e-31 23.8084 -8.55562e-15 -7.82932e-15 0.188018 -5.00191e-17 -6.57918e-16)
(0 1.81214e-29 3.7753e-31 23.8036 6.87711e-14 -4.20119e-14 0.191489 -1.5457e-15 -3.44248e-16)
(0 -1.2081e-29 -3.7753e-31 23.8036 -8.68071e-15 -7.93176e-15 0.191489 -6.92772e-17 -6.82654e-16)
(0 -4.92226e-28 1.11183e-30 23.7987 -1.85968e-14 -4.33395e-14 0.195023 -7.55003e-17 -3.59706e-16)
(-1.72497e-16 -2.37191e-29 -1.11183e-30 23.7987 -8.86477e-15 -8.03444e-15 0.195023 -8.93066e-17 -7.0832e-16)
(1.02406e-16 -8.08308e-30 -7.2764e-31 23.7938 1.9548e-27 -4.43989e-14 0.198621 -6.31089e-30 -3.74908e-16)
(1.22223e-16 1.74634e-29 7.2764e-31 23.7938 -8.98834e-15 -8.13592e-15 0.198621 -1.10035e-16 -7.34948e-16)
(0 0 0 23.7887 1.45815e-14 -4.54242e-14 0.202285 -1.0927e-16 -3.90699e-16)
(5.55448e-16 5.71445e-30 7.14307e-31 23.7887 -9.13104e-15 -8.23701e-15 0.202285 -1.31329e-16 -7.6258e-16)
(-8.29497e-17 4.01698e-30 1.82639e-31 23.7835 1.57716e-14 -4.64697e-14 0.206015 -1.36701e-16 -4.07149e-16)
(0 5.60974e-30 0 23.7835 -9.21154e-15 -8.34251e-15 0.206015 -1.5339e-16 -7.91235e-16)
(0 -1.10139e-29 -6.88368e-31 23.7781 1.55172e-14 -4.7538e-14 0.209813 -1.34009e-16 -4.24276e-16)
(0 1.65208e-29 6.88368e-31 23.7781 -9.14508e-15 -8.44883e-15 0.209813 -1.76089e-16 -8.20987e-16)
(1.90208e-16 -3.78422e-29 -2.70301e-30 23.7727 1.58522e-14 -4.86291e-14 0.21368 -1.37362e-16 -4.42109e-16)
(0 3.78422e-29 2.36514e-30 23.7727 -9.2522e-15 -8.55158e-15 0.21368 -1.99405e-16 -8.51841e-16)
(1.25021e-16 1.1915e-29 7.80388e-31 23.767 1.64601e-14 -4.97423e-14 0.217616 -1.45081e-16 -4.60651e-16)
(5.00083e-16 -1.06139e-29 -3.31685e-31 23.767 -9.56423e-15 -8.65545e-15 0.217616 -2.23898e-16 -8.83837e-16)
(0 0 0 23.7611 1.69362e-14 -5.08763e-14 0.221622 -1.53672e-16 -4.79925e-16)
(0 0 0 23.7611 -9.83611e-15 -8.75812e-15 0.221622 -2.49817e-16 -9.17029e-16)
(-5.1426e-16 3.46819e-29 2.79552e-30 23.755 1.72726e-14 -5.20298e-14 0.2257 -1.5943e-16 -4.99932e-16)
(1.79942e-16 -2.55712e-29 -2.55712e-30 23.755 -1.00179e-14 -8.85502e-15 0.2257 -2.76952e-16 -9.51464e-16)
(-3.46107e-16 2.40736e-29 1.50618e-30 23.7486 1.73724e-14 -5.32009e-14 0.22985 -1.65855e-16 -5.20681e-16)
(0 -1.00411e-29 -6.27567e-31 23.7486 -1.01904e-14 -8.95368e-15 0.22985 -3.05269e-16 -9.87144e-16)
(5.3164e-16 -2.86299e-29 -2.11243e-30 23.7418 1.72187e-14 -5.43897e-14 0.234071 -1.6737e-16 -5.42216e-16)
(-7.39302e-16 1.97141e-29 1.23213e-30 23.7418 -1.03228e-14 -9.05208e-15 0.234071 -3.34371e-16 -1.02415e-15)
(0 -1.45147e-29 -1.20955e-30 23.7346 1.74981e-14 -5.55942e-14 0.238365 -1.69075e-16 -5.64498e-16)
(0 1.45147e-29 1.20955e-30 23.7346 -1.03361e-14 -9.1411e-15 0.238365 -3.64481e-16 -1.06249e-15)
(7.67032e-16 -3.17022e-29 -2.36583e-30 23.7267 1.81214e-14 -5.68102e-14 0.24273 -1.79289e-16 -5.87532e-16)
(5.31402e-16 2.37478e-29 1.78109e-30 23.7267 -1.04767e-14 -9.2378e-15 0.24273 -3.95694e-16 -1.10215e-15)
(-2.32633e-16 1.7959e-29 3.07369e-31 23.7181 1.86421e-14 -5.80356e-14 0.247167 -1.88201e-16 -6.11313e-16)
(-3.28096e-16 -4.66253e-30 0 23.7181 -1.08218e-14 -9.33488e-15 0.247167 -4.28314e-16 -1.14329e-15)
(2.49158e-16 -1.31197e-29 -8.95154e-31 23.7086 1.90693e-14 -5.92673e-14 0.251674 -1.969e-16 -6.35828e-16)
(9.96631e-16 1.37313e-29 1.71641e-30 23.7086 -1.10186e-14 -9.40923e-15 0.251674 -4.62768e-16 -1.18587e-15)
(-2.65986e-16 3.95949e-30 9.00998e-31 23.6979 1.94069e-14 -6.0502e-14 0.25625 -2.04365e-16 -6.61058e-16)
(2.12789e-15 0 -5.61652e-31 23.6979 -1.11156e-14 -9.47476e-15 0.25625 -4.97138e-16 -1.22988e-15)
(-3.10388e-16 8.82175e-30 1.10272e-30 23.6857 1.98011e-14 -6.17351e-14 0.260891 -2.11623e-16 -6.86958e-16)
(1.13249e-15 -4.41088e-30 0 23.6857 -1.13423e-14 -9.54368e-15 0.260891 -5.32737e-16 -1.27534e-15)
(0 -1.29901e-29 -1.08251e-30 23.6719 2.01554e-14 -6.2961e-14 0.265594 -2.20751e-16 -7.13486e-16)
(1.20229e-15 1.29901e-29 2.16502e-30 23.6719 -1.15347e-14 -9.60405e-15 0.265594 -5.70945e-16 -1.32235e-15)
(0 8.5014e-30 1.06268e-30 23.6558 2.04068e-14 -6.41739e-14 0.270355 -2.27551e-16 -7.40576e-16)
(6.75134e-16 0 -1.06268e-30 23.6558 -1.17626e-14 -9.64846e-15 0.270355 -6.09445e-16 -1.37094e-15)
(-3.36434e-16 -2.39131e-31 4.12051e-31 23.6372 2.07539e-14 -6.53627e-14 0.275168 -2.34817e-16 -7.68061e-16)
(0 1.25184e-29 1.0432e-30 23.6372 -1.19286e-14 -9.68798e-15 0.275168 -6.50493e-16 -1.42099e-15)
(0 -2.04817e-29 -4.09634e-30 23.6153 2.12672e-14 -6.65178e-14 0.280025 -2.4421e-16 -7.95892e-16)
(1.41941e-15 2.04817e-29 4.09634e-30 23.6153 -1.19478e-14 -9.71757e-15 0.280025 -6.9348e-16 -1.47256e-15)
(7.58285e-16 -8.14522e-30 -5.52047e-31 23.5897 2.17062e-14 -6.76305e-14 0.284917 -2.55846e-16 -8.23897e-16)
(-5.65945e-16 1.60851e-29 1.00532e-30 23.5897 -1.21991e-14 -9.71672e-15 0.284917 -7.36717e-16 -1.52571e-15)
(-3.92693e-16 7.85868e-30 -5.11682e-31 23.5595 2.1822e-14 -6.86876e-14 0.289833 -2.64022e-16 -8.51911e-16)
(0 3.94759e-30 1.9738e-30 23.5595 -1.22183e-14 -9.70751e-15 0.289833 -7.83611e-16 -1.58022e-15)
(0 1.16258e-29 9.68813e-31 23.5239 2.21104e-14 -6.96756e-14 0.29476 -2.68338e-16 -8.79721e-16)
(0 -3.87525e-30 -9.68813e-31 23.5239 -1.20885e-14 -9.6998e-15 0.29476 -8.30435e-16 -1.6362e-15)
(-9.67289e-16 3.81336e-29 6.2283e-30 23.482 2.27129e-14 -7.05749e-14 0.299683 -2.81204e-16 -9.0699e-16)
(-1.72756e-15 -2.66297e-29 -3.80424e-30 23.482 -1.22475e-14 -9.66287e-15 0.299683 -8.78115e-16 -1.69359e-15)
(4.52005e-16 -1.13555e-29 -5.46779e-31 23.4326 2.2875e-14 -7.13675e-14 0.304583 -2.93843e-16 -9.33499e-16)
(1.28243e-15 7.46906e-30 0 23.4326 -1.24588e-14 -9.60103e-15 0.304583 -9.28161e-16 -1.75224e-15)
(-5.15957e-16 1.46644e-29 2.74957e-30 23.3746 2.2865e-14 -7.20346e-14 0.309438 -2.96018e-16 -9.58852e-16)
(0 -3.66609e-30 -9.16524e-31 23.3746 -1.27637e-14 -9.50776e-15 0.309438 -9.79808e-16 -1.81213e-15)
(-4.93273e-16 1.8266e-29 2.39901e-30 23.3067 2.32605e-14 -7.25522e-14 0.314227 -3.04651e-16 -9.82653e-16)
(0 -1.43957e-29 -1.79946e-30 23.3067 -1.28849e-14 -9.37181e-15 0.314227 -1.03456e-15 -1.87302e-15)
(-1.72045e-17 3.27707e-31 -1.13896e-30 23.2276 2.37467e-14 -7.28971e-14 0.31892 -3.17854e-16 -1.00447e-15)
(-4.97221e-16 1.41319e-29 1.76648e-30 23.2276 -1.27987e-14 -9.20367e-15 0.31892 -1.09157e-15 -1.93477e-15)
(0 -1.73411e-29 -4.33528e-30 23.1356 2.43894e-14 -7.30504e-14 0.32349 -3.29508e-16 -1.02398e-15)
(2.14368e-15 1.73411e-29 4.33528e-30 23.1356 -1.31802e-14 -8.99688e-15 0.32349 -1.14721e-15 -1.99723e-15)
(0 1.36187e-29 3.40467e-30 23.0293 2.49148e-14 -7.29888e-14 0.327904 -3.47841e-16 -1.04056e-15)
(0 -6.80934e-30 0 23.0293 -1.38135e-14 -8.75208e-15 0.327904 -1.20857e-15 -2.06006e-15)
(5.79921e-16 -3.82926e-30 -7.17658e-31 22.9072 2.5122e-14 -7.26937e-14 0.332128 -3.56924e-16 -1.05398e-15)
(2.31969e-15 0 0 22.9072 -1.37445e-14 -8.46783e-15 0.332128 -1.27473e-15 -2.12306e-15)
(-6.02413e-16 -1.58675e-29 -2.53135e-30 22.7677 2.55438e-14 -7.21528e-14 0.336126 -3.66973e-16 -1.06375e-15)
(2.40965e-15 2.29672e-29 4.92155e-30 22.7677 -1.37215e-14 -8.12969e-15 0.336126 -1.33659e-15 -2.18607e-15)
(-6.25218e-16 -1.55182e-29 -5.65918e-30 22.6092 2.59964e-14 -7.13512e-14 0.339861 -3.82868e-16 -1.06951e-15)
(0 2.57673e-29 6.44182e-30 22.6092 -1.42374e-14 -7.712e-15 0.339861 -1.40369e-15 -2.2487e-15)
(0 2.21332e-29 6.32378e-30 22.4304 2.6576e-14 -7.02794e-14 0.343296 -3.94461e-16 -1.07089e-15)
(2.59329e-15 -2.21332e-29 -6.32378e-30 22.4304 -1.45864e-14 -7.24487e-15 0.343296 -1.47275e-15 -2.31014e-15)
(-2.21711e-15 1.99814e-29 7.91002e-30 22.2301 2.63486e-14 -6.89292e-14 0.346395 -4.15113e-16 -1.06753e-15)
(2.68686e-15 0 -3.10395e-30 22.2301 -1.43919e-14 -6.76699e-15 0.346395 -1.54247e-15 -2.37028e-15)
(8.57674e-16 0 -3.04707e-30 22.0071 2.55322e-14 -6.73086e-14 0.349122 -4.02202e-16 -1.05955e-15)
(-8.57674e-16 6.09414e-30 4.5706e-30 22.0071 -1.35339e-14 -6.28095e-15 0.349122 -1.62068e-15 -2.42893e-15)
(8.41957e-16 -5.98247e-30 -4.48685e-30 21.7609 2.55673e-14 -6.1753e-14 0.351446 -4.04715e-16 -9.27235e-16)
(0 1.19649e-29 4.48685e-30 21.7609 -1.30965e-14 -5.75826e-15 0.351446 -1.69434e-15 -2.48595e-15)
(-7.43398e-16 2.13708e-29 -2.66488e-28 21.4909 2.57208e-14 -1.66898e-14 0.35334 -4.18499e-16 -1.36831e-16)
(-3.80012e-15 -1.17457e-29 0 21.4909 -1.30536e-14 -5.20092e-15 0.35334 -1.76648e-15 -2.54049e-15)
(7.67716e-16 2.02384e-30 3.54785e-31 21.197 2.6134e-14 -6.7764e-15 0.35478 -4.25046e-16 -8.91005e-17)
(3.07087e-15 0 0 21.197 -1.32303e-14 -4.63422e-15 0.35478 -1.83717e-15 -2.59237e-15)
(7.922e-16 1.8911e-29 4.56553e-30 20.8795 2.61579e-14 -3.80415e-15 0.355749 -4.48201e-16 -3.98983e-17)
(-3.1688e-15 -2.26383e-29 -5.65958e-30 20.8795 -1.39115e-14 -4.02252e-15 0.355749 -1.91369e-15 -2.64145e-15)
(-3.48984e-17 3.71778e-30 -2.46885e-29 20.5391 2.56477e-14 -1.27457e-28 0.356238 -4.41884e-16 0)
(3.26727e-15 0 4.1669e-30 20.5391 -1.36134e-14 -3.3463e-15 0.356238 -2.00109e-15 -2.68718e-15)
(0 -1.63622e-29 -1.80687e-29 20.1767 2.62326e-14 1.41966e-15 0.356241 -4.47237e-16 -1.25327e-17)
(6.73228e-15 1.63622e-29 6.81757e-30 20.1767 -1.29924e-14 -2.68579e-15 0.356241 -2.07741e-15 -2.72877e-15)
(8.66321e-16 -3.04602e-29 -6.43765e-30 19.7939 2.70477e-14 4.92724e-15 0.355762 -4.79384e-16 -6.3341e-17)
(3.46528e-15 2.14164e-29 5.35411e-30 19.7939 -1.34744e-14 -2.09542e-15 0.355762 -2.15266e-15 -2.76685e-15)
(-8.91139e-16 8.93148e-30 5.01288e-30 19.3923 2.71455e-14 7.63021e-15 0.354812 -4.93683e-16 -1.14369e-16)
(-5.04399e-15 0 -1.314e-30 19.3923 -1.41601e-14 -1.48377e-15 0.354812 -2.24092e-15 -2.80179e-15)
(0 -1.03194e-29 -1.28992e-30 18.9739 2.72552e-14 1.01675e-14 0.353406 -5.01066e-16 -1.65696e-16)
(0 1.03194e-29 1.28992e-30 18.9739 -1.4162e-14 -8.36334e-16 0.353406 -2.33445e-15 -2.83232e-15)
(-2.36644e-15 1.88427e-29 6.10642e-30 18.541 2.70179e-14 1.24216e-14 0.351567 -5.16419e-16 -2.14271e-16)
(0 -1.01303e-29 -2.53257e-30 18.541 -1.33301e-14 -2.39696e-16 0.351567 -2.41963e-15 -2.85868e-15)
(1.39958e-15 -9.94464e-30 -4.97232e-30 18.0959 2.65561e-14 1.45403e-14 0.34932 -5.10837e-16 -2.58449e-16)
(0 9.94464e-30 4.97232e-30 18.0959 -1.31637e-14 3.0754e-16 0.34932 -2.50798e-15 -2.88119e-15)
(-1.37394e-15 9.7624e-30 4.8812e-30 17.6409 2.69704e-14 1.64998e-14 0.346698 -5.17825e-16 -3.05174e-16)
(-2.58623e-15 -1.46436e-29 -4.8812e-30 17.6409 -1.38424e-14 8.29887e-16 0.346698 -2.60492e-15 -2.89942e-15)
(-3.3425e-16 1.07713e-29 3.80263e-30 17.1788 2.69124e-14 1.81069e-14 0.343733 -5.46586e-16 -3.46225e-16)
(0 -4.79176e-30 0 17.1788 -1.36468e-14 1.33688e-15 0.343733 -2.69469e-15 -2.91379e-15)
(2.85229e-16 3.59207e-30 -1.38142e-30 16.7117 2.55851e-14 1.94901e-14 0.340461 -5.34984e-16 -3.81869e-16)
(-1.32404e-15 4.70395e-30 4.70395e-30 16.7117 -1.30567e-14 1.85972e-15 0.340461 -2.78488e-15 -2.92422e-15)
(-8.26081e-16 -6.68845e-30 -5.02437e-30 16.2421 2.43287e-14 2.07393e-14 0.336919 -5.12334e-16 -4.16431e-16)
(2.95194e-15 9.2355e-30 5.77219e-30 16.2421 -1.22527e-14 2.33643e-15 0.336919 -2.87727e-15 -2.93012e-15)
(-1.08683e-15 3.57072e-30 9.31025e-31 15.7723 2.34131e-14 2.17724e-14 0.333143 -5.0225e-16 -4.48845e-16)
(0 0 0 15.7723 -1.12199e-14 2.70644e-15 0.333143 -2.96822e-15 -2.93269e-15)
(-2.221e-15 2.49195e-29 7.38418e-30 15.3042 2.30467e-14 2.2582e-14 0.329168 -4.9238e-16 -4.76424e-16)
(-4.44201e-15 -1.78003e-29 -5.56258e-30 15.3042 -1.06674e-14 3.01921e-15 0.329168 -3.05853e-15 -2.93234e-15)
(1.13392e-15 9.55967e-30 1.29395e-30 14.8398 2.36794e-14 2.32109e-14 0.32503 -5.0517e-16 -5.01123e-16)
(-4.53567e-15 -2.18426e-29 -4.36852e-30 14.8398 -1.08677e-14 3.27633e-15 0.32503 -3.14924e-15 -2.92833e-15)
(-2.41419e-15 1.28654e-29 5.36058e-30 14.3807 2.4097e-14 2.36018e-14 0.320761 -5.39086e-16 -5.22364e-16)
(0 -4.28847e-30 -2.14423e-30 14.3807 -1.09898e-14 3.55757e-15 0.320761 -3.2438e-15 -2.92158e-15)
(-3.54483e-15 -5.60236e-30 -2.51065e-30 13.9284 2.31437e-14 2.38226e-14 0.316391 -5.43134e-16 -5.37726e-16)
(9.43941e-15 8.41976e-30 4.20988e-30 13.9284 -1.01897e-14 3.89144e-15 0.316391 -3.3345e-15 -2.91086e-15)
(-1.2025e-15 1.59033e-29 2.89562e-30 13.484 2.19517e-14 2.39017e-14 0.311949 -5.15384e-16 -5.52241e-16)
(4.80999e-15 -1.23982e-29 -2.06637e-30 13.484 -1.03532e-14 4.11878e-15 0.311949 -3.4207e-15 -2.89719e-15)
(0 -8.11401e-30 -2.0285e-30 13.0488 2.15238e-14 2.38896e-14 0.30746 -5.07533e-16 -5.61708e-16)
(0 8.11401e-30 3.04275e-30 13.0488 -1.05793e-14 4.32229e-15 0.30746 -3.51104e-15 -2.88181e-15)
(-1.24673e-15 3.48083e-30 1.78494e-30 12.6236 2.1911e-14 2.37899e-14 0.302947 -5.14302e-16 -5.72474e-16)
(4.9869e-15 7.96532e-30 1.99133e-30 12.6236 -9.68792e-15 4.5147e-15 0.302947 -3.60247e-15 -2.86267e-15)
(0 7.81936e-30 1.95484e-30 12.209 2.20512e-14 2.35209e-14 0.298431 -5.45556e-16 -5.78007e-16)
(0 -3.90968e-30 0 12.209 -9.66763e-15 4.66679e-15 0.298431 -3.68688e-15 -2.84177e-15)
(-1.28971e-15 1.1126e-29 3.62924e-30 11.8055 2.10012e-14 2.31757e-14 0.293929 -5.40652e-16 -5.80668e-16)
(-1.08031e-15 -3.83804e-30 -9.59509e-31 11.8055 -1.01297e-14 4.83998e-15 0.293929 -3.77522e-15 -2.81798e-15)
(-2.12103e-15 7.53541e-30 1.88385e-30 11.4136 2.01818e-14 2.28025e-14 0.289458 -5.12933e-16 -5.82308e-16)
(0 -3.76771e-30 0 11.4136 -8.86889e-15 5.06283e-15 0.289458 -3.87288e-15 -2.79218e-15)
(0 -1.47947e-29 -5.548e-30 11.0336 2.01368e-14 2.23727e-14 0.28503 -5.1875e-16 -5.83292e-16)
(5.32569e-15 1.47947e-29 5.548e-30 11.0336 -7.4903e-15 5.18729e-15 0.28503 -3.94946e-15 -2.76286e-15)
(0 1.81544e-29 5.44633e-30 10.6655 1.99903e-14 2.18669e-14 0.280657 -5.29897e-16 -5.81661e-16)
(0 -1.81544e-29 -5.44633e-30 10.6655 -8.67494e-15 5.14172e-15 0.280657 -4.02438e-15 -2.73125e-15)
(-1.37188e-15 -1.64117e-31 1.56877e-30 10.3093 1.9424e-14 2.13306e-14 0.276349 -5.30455e-16 -5.78193e-16)
(5.48752e-15 7.1287e-30 0 10.3093 -8.60643e-15 5.17527e-15 0.276349 -4.12136e-15 -2.69855e-15)
(0 -2.09942e-29 -5.24855e-30 9.96519 1.90688e-14 2.08436e-14 0.272113 -5.18979e-16 -5.7433e-16)
(5.56657e-15 2.09942e-29 5.24855e-30 9.96519 -7.90289e-15 5.27575e-15 0.272113 -4.21041e-15 -2.66377e-15)
(-3.34479e-15 2.05477e-29 4.07745e-30 9.6329 1.98208e-14 2.02486e-14 0.267957 -5.30712e-16 -5.72923e-16)
(-3.71072e-15 -1.71746e-29 -3.43492e-30 9.6329 -9.76491e-15 5.34367e-15 0.267957 -4.30105e-15 -2.62778e-15)
(0 -6.74395e-30 -1.68599e-30 9.31228 2.01679e-14 1.94315e-14 0.263884 -5.81091e-16 -5.62298e-16)
(-5.72104e-15 3.37197e-30 1.68599e-30 9.31228 -9.50272e-15 5.46018e-15 0.263884 -4.41379e-15 -2.59078e-15)
(-2.89825e-15 6.67931e-30 2.87849e-30 9.00314 1.84948e-14 1.69507e-14 0.259899 -5.7072e-16 -5.47408e-16)
(5.79649e-15 0 -1.65509e-30 9.00314 -7.84325e-15 5.60081e-15 0.259899 -4.50731e-15 -2.54984e-15)
(-2.93539e-15 6.67272e-30 1.22748e-30 8.70521 1.79291e-14 1.45112e-14 0.256006 -5.04737e-16 -4.37804e-16)
(0 0 0 8.70521 -7.8433e-15 5.56719e-15 0.256006 -4.59755e-15 -2.50499e-15)
(0 -9.56994e-30 -1.59499e-30 8.41823 1.95808e-14 1.38183e-14 0.252205 -5.58381e-16 -4.221e-16)
(5.94396e-15 9.56994e-30 1.59499e-30 8.41823 -8.95273e-15 5.50106e-15 0.252205 -4.67635e-15 -2.46023e-15)
(-5.02979e-15 2.83401e-29 5.28931e-30 8.14188 1.9398e-14 1.28875e-14 0.248498 -6.24406e-16 -4.12081e-16)
(-4.25312e-15 -1.87891e-29 -3.9144e-30 8.14188 -9.94529e-15 5.71799e-15 0.248498 -4.79159e-15 -2.41633e-15)
(1.52175e-15 -6.3551e-30 -2.89067e-30 7.87584 1.64215e-14 1.2024e-14 0.244886 -5.6808e-16 -3.80225e-16)
(0 3.07414e-30 2.3056e-30 7.87584 -7.7211e-15 5.91778e-15 0.244886 -4.91746e-15 -2.36833e-15)
(1.53923e-15 -9.32037e-30 -2.08389e-30 7.6198 1.32379e-14 1.17559e-14 0.241368 -4.59713e-16 -3.73002e-16)
(-6.15691e-15 6.03561e-30 1.5089e-30 7.6198 -5.2942e-15 5.79615e-15 0.241368 -4.97878e-15 -2.3167e-15)
(-3.1129e-15 1.54599e-29 1.86694e-30 7.3734 1.18829e-14 1.13322e-14 0.237945 -3.84419e-16 -3.77287e-16)
(-1.66774e-15 -5.92501e-30 0 7.3734 -4.15612e-15 5.63001e-15 0.237945 -5.05698e-15 -2.26342e-15)
(-1.63718e-15 2.90822e-30 2.18116e-30 7.1363 1.20127e-14 1.06857e-14 0.234616 -3.88121e-16 -3.59255e-16)
(1.63718e-15 -8.72466e-30 -2.90822e-30 7.1363 -4.17199e-15 5.52286e-15 0.234616 -5.12126e-15 -2.21068e-15)
(-1.70278e-17 -4.07136e-31 8.81316e-31 6.90818 1.20745e-14 1.02933e-14 0.231379 -4.07585e-16 -3.48292e-16)
(-1.27212e-14 -2.85493e-30 0 6.90818 -5.76941e-15 5.49469e-15 0.231379 -5.19795e-15 -2.15996e-15)
(3.18438e-15 -8.85694e-30 -1.93754e-30 6.6887 1.17976e-14 9.98863e-15 0.228233 -4.0695e-16 -3.46069e-16)
(-1.57773e-15 5.60522e-30 1.40131e-30 6.6887 -5.58754e-15 5.53773e-15 0.228233 -5.29649e-15 -2.10532e-15)
(0 -1.1005e-29 -4.12688e-30 6.47751 1.16976e-14 9.52793e-15 0.225177 -4.0374e-16 -3.40287e-16)
(6.49162e-15 1.1005e-29 4.12688e-30 6.47751 -4.29147e-15 5.49729e-15 0.225177 -5.36926e-15 -2.0468e-15)
(3.15938e-15 -3.23143e-30 -2.54511e-30 6.2743 1.10939e-14 8.95494e-15 0.222208 -4.15218e-16 -3.26559e-16)
(6.55577e-15 0 6.7521e-31 6.2743 -4.65205e-15 5.29229e-15 0.222208 -5.4194e-15 -1.98718e-15)
(1.1682e-15 -9.45694e-30 -3.61469e-30 6.07875 9.12334e-15 8.5851e-15 0.219324 -3.75506e-16 -3.11869e-16)
(0 1.59081e-29 2.65135e-30 6.07875 -5.31449e-15 5.17036e-15 0.219324 -5.50885e-15 -1.93035e-15)
(-4.10289e-16 -9.15714e-30 -4.19827e-30 5.89055 8.27916e-15 8.35063e-15 0.216525 -2.86387e-16 -3.11749e-16)
(6.68148e-15 1.0411e-29 4.55483e-30 5.89055 -3.39761e-15 5.21021e-15 0.216525 -5.58076e-15 -1.8697e-15)
(1.68577e-15 -1.85464e-29 -4.32833e-30 5.7094 1.00551e-14 7.89052e-15 0.213807 -3.26607e-16 -3.06109e-16)
(1.34862e-14 1.53304e-29 3.8326e-30 5.7094 -3.32023e-15 5.14977e-15 0.213807 -5.6088e-15 -1.8065e-15)
(1.12306e-15 -1.82641e-30 -1.37021e-31 5.53501 1.20033e-14 7.54455e-15 0.211168 -4.32289e-16 -2.88491e-16)
(-2.82403e-15 5.01649e-30 1.88118e-30 5.53501 -5.3483e-15 5.07365e-15 0.211168 -5.69089e-15 -1.74446e-15)
(-3.43196e-15 6.34377e-30 9.63416e-31 5.3671 1.26962e-14 7.2189e-15 0.208607 -4.89906e-16 -2.90831e-16)
(6.86392e-15 0 0 5.3671 -3.84468e-15 5.05188e-15 0.208607 -5.77964e-15 -1.67909e-15)
(-1.7308e-15 3.15845e-30 4.7684e-31 5.20539 1.15501e-14 6.72249e-15 0.206121 -5.0328e-16 -2.73652e-16)
(6.9232e-15 4.83433e-30 6.04291e-31 5.20539 -2.94514e-15 4.82991e-15 0.206121 -5.82437e-15 -1.61122e-15)
(-2.67161e-15 9.49148e-30 2.96609e-30 5.04963 9.89491e-15 6.39502e-15 0.203708 -4.16198e-16 -2.61869e-16)
(-2.67161e-15 0 -1.18643e-30 5.04963 -4.93542e-15 3.27133e-15 0.203708 -5.90713e-15 -1.54821e-15)
(1.7599e-15 -1.24819e-29 -1.63103e-30 4.89957 1.02873e-14 6.28163e-15 0.201366 -3.86645e-16 -2.57137e-16)
(7.03959e-15 9.31755e-30 -2.09473e-31 4.89957 -4.69919e-15 -1.01566e-29 0.201366 -6.02887e-15 -1.50941e-15)
(4.34878e-15 -1.22861e-29 -3.31785e-30 4.75497 9.61474e-15 6.17529e-15 0.199092 -4.64627e-16 -2.62274e-16)
(4.52215e-15 9.14681e-30 2.85838e-30 4.75497 -3.64015e-15 -2.43318e-16 0.199092 -6.09385e-15 -1.48898e-15)
(-1.78831e-15 3.14576e-30 4.53866e-31 4.6156 9.04575e-15 5.94768e-15 0.196884 -3.4404e-16 -2.57786e-16)
(7.15323e-15 0 1.1224e-30 4.6156 -4.66606e-15 -1.99695e-16 0.196884 -6.14792e-15 -1.47185e-15)
(1.80227e-15 -3.12141e-30 -2.6523e-30 4.48124 9.87856e-15 5.81477e-15 0.194742 -4.32863e-16 -2.52447e-16)
(0 0 2.20366e-30 4.48124 -4.62817e-15 -1.15083e-16 0.194742 -6.25232e-15 -1.45292e-15)
(-1.81607e-15 1.17608e-29 2.60539e-30 4.35168 9.67759e-15 5.69365e-15 0.192661 -4.30469e-16 -2.55775e-16)
(7.26427e-15 -4.32656e-30 -1.08164e-30 4.35168 -4.37175e-15 -8.58358e-17 0.192661 -6.33775e-15 -1.43189e-15)
(1.82972e-15 -1.15864e-29 -2.02928e-30 4.22671 1.03274e-14 5.56756e-15 0.190641 -4.31115e-16 -2.51077e-16)
(0 8.49456e-30 1.59273e-30 4.22671 -4.51887e-15 -2.94669e-17 0.190641 -6.40877e-15 -1.40205e-15)
(-1.84322e-15 1.1402e-29 3.03581e-30 4.10615 1.03313e-14 5.55426e-15 0.188679 -5.06166e-16 -2.53871e-16)
(5.02568e-15 -4.16945e-30 -3.7237e-31 4.10615 -3.87406e-15 -1.61229e-29 0.188679 -6.50517e-15 -1.3416e-15)
(1.85657e-15 1.03499e-30 1.11266e-30 3.98981 1.05109e-14 5.31814e-15 0.186774 -4.47724e-16 -2.59297e-16)
(7.4263e-15 0 -5.11631e-31 3.98981 -3.76564e-15 -2.9958e-16 0.186774 -6.58113e-15 -1.2913e-15)
(0 4.01804e-30 1.00451e-30 3.87752 1.07749e-14 4.97461e-15 0.184924 -5.42307e-16 -2.4101e-16)
(7.47917e-15 0 0 3.87752 -4.21909e-15 -1.38987e-16 0.184924 -6.66055e-15 -1.23759e-15)
(-2.22051e-15 3.94441e-30 1.97221e-30 3.76911 9.02189e-15 4.88346e-15 0.183126 -4.90138e-16 -2.35829e-16)
(-7.53149e-15 0 -9.86104e-31 3.76911 -4.93641e-15 -3.6025e-17 0.183126 -6.78748e-15 -1.186e-15)
(-2.17982e-15 1.16164e-29 2.42008e-30 3.66441 7.23679e-15 4.7903e-15 0.18138 -3.89955e-16 -2.41107e-16)
(9.7631e-15 -1.16164e-29 -1.56646e-31 3.66441 -3.47056e-15 -7.43437e-46 0.18138 -6.8822e-15 -1.12875e-15)
(-1.90864e-15 -1.59895e-29 -3.87681e-30 3.56328 6.08503e-15 4.76131e-15 0.179683 -3.29375e-16 -2.35361e-16)
(0 1.14035e-29 4.75147e-30 3.56328 -1.49439e-15 -6.41909e-17 0.179683 -6.92289e-15 -1.07462e-15)
(-1.92134e-15 3.01373e-30 3.90956e-31 3.46557 5.72349e-15 4.74229e-15 0.178034 -2.86849e-16 -2.47227e-16)
(7.68536e-15 3.73152e-30 9.32881e-31 3.46557 -4.53393e-16 -6.22919e-17 0.178034 -7.00689e-15 -1.01917e-15)
(2.06217e-15 -7.32629e-30 -9.15786e-31 3.37114 5.37763e-15 4.65648e-15 0.176432 -3.04118e-16 -2.42249e-16)
(0 7.32629e-30 1.37368e-30 3.37114 -6.88795e-16 1.42432e-16 0.176432 -7.03607e-15 -9.65961e-16)
(0 3.59602e-30 2.24751e-30 3.27986 4.49479e-15 4.81321e-15 0.174874 -2.6095e-16 -2.47436e-16)
(0 0 -1.34851e-30 3.27986 -5.55812e-16 2.67317e-16 0.174874 -7.05726e-15 -9.06081e-16)
(3.946e-15 -2.06546e-29 -3.45533e-30 3.1916 5.43598e-15 5.23727e-15 0.17336 -2.2013e-16 -2.68322e-16)
(7.83488e-15 1.05904e-29 -1.18055e-31 3.1916 3.27025e-16 -4.32776e-30 0.17336 -7.0421e-15 -8.50675e-16)
(2.00868e-17 7.42034e-30 9.46668e-31 3.10624 7.49693e-15 5.29508e-15 0.171887 -3.7444e-16 -3.03463e-16)
(7.88381e-15 0 0 3.10624 -1.46567e-15 -1.84517e-16 0.171887 -7.03558e-15 -8.0255e-16)
(0 0 0 3.02366 7.10401e-15 5.02157e-15 0.170455 -4.59639e-16 -2.84918e-16)
(7.93231e-15 3.40193e-30 4.25241e-31 3.02366 -2.59809e-15 -2.3426e-16 0.170455 -7.05946e-15 -7.54752e-16)
(-3.9902e-15 5.90495e-30 2.61656e-31 2.94376 5.80027e-15 4.82462e-15 0.169063 -3.43644e-16 -2.83641e-16)
(7.9804e-15 0 4.17449e-31 2.94376 -1.48243e-15 -3.66605e-16 0.169063 -7.06706e-15 -7.08791e-16)
(2.00702e-15 -1.27772e-29 -3.61155e-30 2.86643 6.00565e-15 4.69732e-15 0.167708 -3.25184e-16 -2.72727e-16)
(8.02807e-15 9.83518e-30 3.27839e-30 2.86643 -1.8745e-15 -2.06063e-16 0.167708 -7.08297e-15 -6.67562e-16)
(0 9.65496e-30 2.81603e-30 2.79156 6.30352e-15 4.82906e-15 0.16639 -3.80949e-16 -2.79232e-16)
(-8.07535e-15 -9.65496e-30 -2.81603e-30 2.79156 -3.34672e-15 1.31498e-16 0.16639 -7.13745e-15 -6.21688e-16)
(0 0 7.89836e-31 2.71907 6.02466e-15 5.12378e-15 0.165107 -3.73421e-16 -2.98919e-16)
(0 0 -7.12145e-32 2.71907 -2.58785e-15 0 0.165107 -7.17659e-15 -5.74989e-16)
(-4.08438e-15 1.82183e-29 2.53501e-30 2.64887 7.19609e-15 5.10021e-15 0.163859 -3.60989e-16 -3.26021e-16)
(0 -1.24058e-29 -1.93841e-30 2.64887 -1.55889e-15 -2.43152e-16 0.163859 -7.19306e-15 -5.3492e-16)
(-5.48166e-15 5.90519e-30 1.0526e-30 2.58085 9.20966e-15 4.83723e-15 0.162643 -5.34335e-16 -3.07229e-16)
(0 0 -3.80577e-31 2.58085 -2.20827e-15 -8.51156e-18 0.162643 -7.20942e-15 -4.99341e-16)
(-3.36512e-15 1.7933e-29 2.24162e-30 2.51495 8.1622e-15 4.77635e-15 0.16146 -6.31714e-16 -3.04724e-16)
(-8.26072e-15 -1.19553e-29 -1.86802e-30 2.51495 -2.6051e-15 3.15973e-16 0.16146 -7.30135e-15 -4.59207e-16)
(4.15309e-15 -5.71159e-30 1.89313e-31 2.45107 6.33114e-15 5.22077e-15 0.160309 -4.18218e-16 -3.10887e-16)
(0 0 0 2.45107 -2.17618e-15 -1.78726e-30 0.160309 -7.38445e-15 -4.21859e-16)
(9.32727e-16 5.82978e-30 1.65601e-30 2.38916 6.19797e-15 5.42447e-15 0.159187 -4.12891e-16 -3.75095e-16)
(8.35129e-15 -1.15212e-29 -2.16022e-30 2.38916 -3.17826e-15 -6.08917e-16 0.159187 -7.44093e-15 -4.05812e-16)
(-2.09902e-15 2.82661e-30 2.44973e-31 2.32912 5.35547e-15 4.98785e-15 0.158094 -4.16002e-16 -3.50097e-16)
(8.39608e-15 2.82751e-30 7.06878e-31 2.32912 -4.02378e-15 -2.70255e-16 0.158094 -7.52995e-15 -3.96115e-16)
(4.22028e-15 -5.65772e-30 -1.25964e-31 2.27089 4.63157e-15 5.02986e-15 0.15703 -3.12606e-16 -3.29194e-16)
(-3.12516e-15 0 -8.49112e-31 2.27089 -2.82827e-15 1.50377e-30 0.15703 -7.57687e-15 -3.7535e-16)
(5.18907e-15 -5.5449e-30 -8.99934e-31 2.21441 4.81801e-15 5.62017e-15 0.155992 -3.30285e-16 -3.69174e-16)
(8.48471e-15 2.72483e-30 6.81208e-31 2.21441 -3.61318e-15 7.735e-18 0.155992 -7.59017e-15 -3.62841e-16)
(-2.13214e-15 5.48962e-30 1.20054e-30 2.15961 5.09087e-15 5.94178e-15 0.154982 -3.50986e-16 -4.25824e-16)
(0 0 -3.34363e-31 2.15961 -4.2719e-15 7.43359e-17 0.154982 -7.66696e-15 -3.44476e-16)
(0 -2.62588e-30 -6.56471e-31 2.10642 5.42459e-15 5.82609e-15 0.153997 -3.8239e-16 -4.29831e-16)
(1.41878e-14 5.25177e-30 1.31294e-30 2.10642 -3.84692e-15 -2.29281e-16 0.153997 -7.68054e-15 -3.25121e-16)
(-2.15385e-15 -4.95191e-30 -1.11678e-30 2.0548 6.23044e-15 5.65671e-15 0.153036 -4.13622e-16 -4.2474e-16)
(0 1.28888e-29 1.28888e-30 2.0548 -5.2657e-15 -4.72578e-16 0.153036 -7.74077e-15 -3.17118e-16)
(0 -5.06106e-30 -1.26526e-30 2.00469 6.65854e-15 5.44485e-15 0.1521 -5.18338e-16 -4.20481e-16)
(1.73168e-14 1.01221e-29 1.58158e-30 2.00469 -5.77258e-15 -3.05802e-16 0.1521 -7.89195e-15 -3.07487e-16)
(-2.17528e-15 1.26719e-29 1.3919e-30 1.95602 6.59503e-15 4.58541e-15 0.151186 -4.94979e-16 -4.08196e-16)
(0 -9.93663e-30 -1.24208e-30 1.95602 -6.06239e-15 5.0737e-17 0.151186 -7.99776e-15 -2.96004e-16)
(0 -4.87727e-30 -6.09659e-31 1.90875 5.87126e-15 2.16129e-15 0.150296 -5.27931e-16 -3.01821e-16)
(8.74359e-15 4.87727e-30 6.09659e-31 1.90875 -4.47656e-15 -9.98957e-17 0.150296 -8.12802e-15 -2.76454e-16)
(2.19645e-15 -1.70737e-29 -1.68894e-30 1.86284 4.31064e-15 6.81897e-16 0.149427 -3.98244e-16 -3.711e-17)
(1.75716e-14 1.43637e-29 1.49622e-30 1.86284 -3.08942e-15 -6.3504e-16 0.149427 -8.17057e-15 -2.75271e-16)
(-2.20693e-15 2.70919e-30 1.87592e-31 1.81823 6.2936e-15 9.29305e-16 0.148579 -2.94377e-16 -7.29384e-17)
(8.82773e-15 0 2.9376e-31 1.81823 -4.11222e-15 -2.02744e-16 0.148579 -8.2779e-15 -2.76466e-16)
(-2.97758e-15 6.60402e-30 3.92612e-31 1.77487 9.00629e-15 9.46409e-16 0.147751 -7.41297e-16 -7.94379e-17)
(8.86943e-15 -4.61403e-30 -2.88377e-31 1.77487 -4.58144e-15 2.18513e-16 0.147751 -8.39626e-15 -2.68593e-16)
(-4.45544e-15 9.72759e-30 6.46616e-31 1.73273 7.90749e-15 1.13497e-15 0.146943 -7.62616e-16 -7.85692e-17)
(6.36101e-15 0 0 1.73273 -3.7396e-15 -7.35385e-17 0.146943 -8.5096e-15 -2.79183e-16)
(-5.00629e-15 -4.44648e-30 -5.5581e-31 1.69176 7.35037e-15 1.3251e-15 0.146154 -5.80603e-16 -1.148e-16)
(1.79042e-14 4.44648e-30 1.11162e-30 1.69176 -2.47282e-15 -1.18303e-16 0.146154 -8.61662e-15 -3.07333e-16)
(0 4.365e-30 0 1.65193 7.1295e-15 1.41039e-15 0.145384 -6.93928e-16 -1.1478e-16)
(8.9931e-15 0 0 1.65193 -3.71841e-15 5.86892e-17 0.145384 -8.67717e-15 -3.369e-16)
(-2.25847e-15 6.86845e-30 4.25435e-31 1.61319 6.2571e-15 1.7512e-15 0.144632 -5.63137e-16 -1.34319e-16)
(0 0 0 1.61319 -5.0219e-15 2.84844e-18 0.144632 -8.73425e-15 -3.66007e-16)
(2.26861e-15 1.6379e-30 6.44123e-31 1.5755 6.26418e-15 1.97268e-15 0.143897 -5.61769e-16 -1.80949e-16)
(0 -4.20649e-30 -1.05162e-30 1.5755 -4.21283e-15 -1.6199e-16 0.143897 -8.83273e-15 -3.87714e-16)
(0 4.12941e-30 5.16176e-31 1.53884 5.66315e-15 1.92319e-15 0.143178 -5.85666e-16 -1.80319e-16)
(-2.32465e-15 0 -2.58088e-31 1.53884 -2.21016e-15 -3.36725e-17 0.143178 -8.94268e-15 -4.10014e-16)
(-6.66984e-18 1.06431e-29 1.14266e-30 1.50317 5.71685e-15 1.88365e-15 0.142476 -4.69764e-16 -1.78449e-16)
(-2.28205e-15 -4.05374e-30 -7.00649e-46 1.50317 -3.00271e-15 -1.2819e-30 0.142476 -8.97496e-15 -4.39315e-16)
(-2.2987e-15 6.48133e-30 3.72189e-31 1.46845 6.37084e-15 1.43886e-15 0.14179 -6.18035e-16 -1.7953e-16)
(-9.19482e-15 0 0 1.46845 -4.91961e-15 -4.77857e-16 0.14179 -9.14156e-15 -4.57234e-16)
(-4.50782e-15 -1.42385e-30 -5.99567e-31 1.43465 5.15045e-15 6.20497e-16 0.141119 -6.15253e-16 -9.8264e-17)
(2.06683e-14 3.90653e-30 7.32475e-31 1.43465 -2.76099e-15 -3.95087e-16 0.141119 -9.26235e-15 -4.48769e-16)
(0 -7.6699e-30 -9.58737e-31 1.40175 3.18184e-15 1.56176e-16 0.140462 -3.98415e-16 -2.34063e-17)
(9.27408e-15 7.6699e-30 9.58737e-31 1.40175 -1.13075e-15 -1.27687e-16 0.140462 -9.26755e-15 -4.54278e-16)
(-2.32835e-15 6.2714e-30 6.18926e-31 1.36971 2.20994e-15 1.32753e-16 0.139819 -2.39288e-16 -7.82259e-18)
(7.1941e-15 0 0 1.36971 -8.80676e-16 1.47461e-18 0.139819 -9.37205e-15 -4.63392e-16)
(0 0 4.61961e-31 1.33851 2.33549e-15 3.05085e-16 0.13919 -2.12689e-16 -1.94505e-17)
(9.35258e-15 0 -2.3098e-31 1.33851 -7.70339e-16 -9.61882e-17 0.13919 -9.43478e-15 -4.65902e-16)