/*--------------------------------*- C++ -*----------------------------------*\
| =========                 |                                                 |
| \\      /  F ield         | OpenFOAM: The Open Source CFD Toolbox           |
|  \\    /   O peration     | Version:  2106                                  |
|   \\  /    A nd           | Website:  www.openfoam.com                      |
|    \\/     M anipulation  |                                                 |
\*---------------------------------------------------------------------------*/
FoamFile
{
    version     2.0;
    format      ascii;
    arch        "LSB;label=32;scalar=64";
    class       surfaceScalarField;
    location    "10010";
    object      phi;
}
// * * * * * * * * * * * * * * * * * * * * * * * * * * * * * * * * * * * * * //

dimensions      [0 3 -1 0 0 0 0];

oriented        oriented;

internalField   nonuniform List<scalar> 
3996
(
2.03988e-08
-7.30622e-18
-6.15966e-22
-1.12444e-21
-5.40596e-23
6.27188e-08
-7.29975e-18
-2.28039e-21
-5.02927e-21
-2.88064e-22
1.07401e-07
-7.29303e-18
-2.36772e-21
-9.07767e-21
-3.04526e-22
1.54548e-07
-7.28606e-18
-2.46275e-21
-1.32635e-20
-3.21924e-22
2.04266e-07
-7.27882e-18
-2.55851e-21
-1.75621e-20
-3.40313e-22
2.56668e-07
-7.27135e-18
-2.6557e-21
-2.20246e-20
-3.59751e-22
3.11868e-07
-7.26369e-18
-2.75622e-21
-2.66555e-20
-3.80301e-22
3.69987e-07
-7.25559e-18
-2.86064e-21
-3.1471e-20
-4.02024e-22
4.3115e-07
-7.24722e-18
-2.96912e-21
-3.64794e-20
-4.24984e-22
4.95487e-07
-7.23873e-18
-3.0818e-21
-4.13833e-20
-4.49252e-22
5.63132e-07
-7.23009e-18
-3.19881e-21
-4.64975e-20
-4.74904e-22
6.34227e-07
-7.22075e-18
-3.3203e-21
-5.19917e-20
-5.02017e-22
7.08916e-07
-7.21111e-18
-3.44643e-21
-5.76483e-20
-5.3067e-22
7.87351e-07
-7.20098e-18
-3.57736e-21
-6.35575e-20
-5.60945e-22
8.6969e-07
-7.19034e-18
-3.71327e-21
-6.9708e-20
-5.92928e-22
9.56095e-07
-7.18017e-18
-3.85433e-21
-7.59477e-20
-6.26714e-22
1.04674e-06
-7.16922e-18
-4.00072e-21
-8.23196e-20
-6.62396e-22
1.14179e-06
-7.15777e-18
-4.15263e-21
-8.90557e-20
-7.00067e-22
1.24143e-06
-7.14569e-18
-4.31024e-21
-9.59347e-20
-7.39834e-22
1.34586e-06
-7.13309e-18
-4.47376e-21
-1.03232e-19
-7.81797e-22
1.45526e-06
-7.12013e-18
-4.64337e-21
-1.10775e-19
-8.2605e-22
1.56983e-06
-7.10652e-18
-4.81924e-21
-1.18413e-19
-8.72699e-22
1.68979e-06
-7.0926e-18
-5.00153e-21
-1.26394e-19
-9.21874e-22
1.81535e-06
-7.07813e-18
-5.19039e-21
-1.34799e-19
-9.73674e-22
1.94672e-06
-7.06318e-18
-5.38597e-21
-1.43286e-19
-1.02818e-21
2.08413e-06
-7.0474e-18
-5.58831e-21
-1.52298e-19
-1.08553e-21
2.22781e-06
-7.03124e-18
-5.79752e-21
-1.61182e-19
-1.14578e-21
2.37799e-06
-7.0143e-18
-6.0136e-21
-1.70907e-19
-1.20904e-21
2.53492e-06
-6.99769e-18
-6.23652e-21
-1.79885e-19
-1.27538e-21
2.69882e-06
-6.97905e-18
-6.46613e-21
-1.89499e-19
-1.34492e-21
2.86994e-06
-6.96099e-18
-6.70232e-21
-1.9964e-19
-1.41766e-21
3.04852e-06
-6.94228e-18
-6.94473e-21
-2.10247e-19
-1.49362e-21
3.23479e-06
-6.92258e-18
-7.193e-21
-2.21038e-19
-1.57279e-21
3.429e-06
-6.90234e-18
-7.44669e-21
-2.31743e-19
-1.65514e-21
3.63137e-06
-6.88142e-18
-7.70513e-21
-2.43101e-19
-1.74065e-21
3.84211e-06
-6.8587e-18
-7.96762e-21
-2.5554e-19
-1.82917e-21
4.06145e-06
-6.83666e-18
-8.23332e-21
-2.67912e-19
-1.92057e-21
4.28957e-06
-6.81264e-18
-8.50115e-21
-2.80684e-19
-2.01467e-21
4.52666e-06
-6.78865e-18
-8.77012e-21
-2.93477e-19
-2.11112e-21
4.77289e-06
-6.76373e-18
-9.03891e-21
-3.07664e-19
-2.20968e-21
5.0284e-06
-6.73678e-18
-9.30618e-21
-3.22049e-19
-2.30998e-21
5.29331e-06
-6.71309e-18
-9.57064e-21
-3.34879e-19
-2.4117e-21
5.56773e-06
-6.68657e-18
-9.83051e-21
-3.48243e-19
-2.51458e-21
5.85174e-06
-6.66039e-18
-1.00845e-20
-3.61182e-19
-2.61815e-21
6.14541e-06
-6.63316e-18
-1.03311e-20
-3.75629e-19
-2.72199e-21
6.44877e-06
-6.60466e-18
-1.05689e-20
-3.90226e-19
-2.82565e-21
6.76183e-06
-6.57776e-18
-1.07967e-20
-4.04719e-19
-2.92873e-21
7.0846e-06
-6.54853e-18
-1.10129e-20
-4.19335e-19
-3.03076e-21
7.41708e-06
-6.51828e-18
-1.12166e-20
-4.34895e-19
-3.13141e-21
7.75922e-06
-6.48709e-18
-1.14067e-20
-4.49617e-19
-3.23041e-21
8.11099e-06
-6.45613e-18
-1.15826e-20
-4.67004e-19
-3.32747e-21
8.47236e-06
-6.42268e-18
-1.17439e-20
-4.83059e-19
-3.42223e-21
8.84328e-06
-6.39228e-18
-1.18904e-20
-4.98366e-19
-3.51434e-21
9.22371e-06
-6.35822e-18
-1.20218e-20
-5.16122e-19
-3.60377e-21
9.61362e-06
-6.32368e-18
-1.21384e-20
-5.33011e-19
-3.69023e-21
1.0013e-05
-6.29161e-18
-1.22407e-20
-5.49307e-19
-3.77365e-21
1.04217e-05
-6.25975e-18
-1.23287e-20
-5.66508e-19
-3.85374e-21
1.08399e-05
-6.22907e-18
-1.24027e-20
-5.81225e-19
-3.93053e-21
1.12676e-05
-6.19736e-18
-1.24633e-20
-5.95019e-19
-4.0042e-21
1.17047e-05
-6.16631e-18
-1.25112e-20
-6.09415e-19
-4.07484e-21
1.21512e-05
-6.13118e-18
-1.25469e-20
-6.24947e-19
-4.14258e-21
1.26073e-05
-6.0984e-18
-1.25715e-20
-6.4058e-19
-4.20705e-21
1.3073e-05
-6.06626e-18
-1.25854e-20
-6.54985e-19
-4.26807e-21
1.35485e-05
-6.03563e-18
-1.25896e-20
-6.70857e-19
-4.32567e-21
1.40337e-05
-6.00182e-18
-1.25846e-20
-6.85548e-19
-4.37972e-21
1.45288e-05
-5.96727e-18
-1.2571e-20
-7.00895e-19
-4.4304e-21
1.5034e-05
-5.93496e-18
-1.25502e-20
-7.16108e-19
-4.47723e-21
1.55494e-05
-5.90219e-18
-1.25221e-20
-7.31958e-19
-4.5207e-21
1.60752e-05
-5.87079e-18
-1.24874e-20
-7.40939e-19
-4.56012e-21
1.66115e-05
-5.83689e-18
-1.24469e-20
-7.56029e-19
-4.59632e-21
1.71585e-05
-5.80352e-18
-1.24006e-20
-7.72518e-19
-4.6298e-21
1.77165e-05
-5.77258e-18
-1.23491e-20
-7.84668e-19
-4.65887e-21
1.82856e-05
-5.73582e-18
-1.22928e-20
-8.03135e-19
-4.68425e-21
1.8866e-05
-5.70017e-18
-1.22336e-20
-8.18569e-19
-4.7051e-21
1.94581e-05
-5.6658e-18
-1.21722e-20
-8.33354e-19
-4.72161e-21
2.0062e-05
-5.63412e-18
-1.2107e-20
-8.48637e-19
-4.73355e-21
2.0678e-05
-5.59793e-18
-1.20383e-20
-8.63678e-19
-4.74134e-21
2.13064e-05
-5.55609e-18
-1.19662e-20
-8.85746e-19
-4.74508e-21
2.19473e-05
-5.52519e-18
-1.18934e-20
-9.01416e-19
-4.74093e-21
2.26012e-05
-5.50168e-18
-1.18178e-20
-9.07901e-19
-4.73091e-21
2.32683e-05
-5.47585e-18
-1.17381e-20
-9.19657e-19
-4.71828e-21
2.39488e-05
-5.45175e-18
-1.16543e-20
-9.27498e-19
-4.70094e-21
2.46432e-05
-5.42664e-18
-1.15654e-20
-9.37641e-19
-4.67878e-21
2.53516e-05
-5.4012e-18
-1.14718e-20
-9.50252e-19
-4.65211e-21
2.60745e-05
-5.3762e-18
-1.13747e-20
-9.61251e-19
-4.61985e-21
2.68121e-05
-5.34961e-18
-1.12753e-20
-9.70584e-19
-4.58163e-21
2.75648e-05
-5.3296e-18
-1.11747e-20
-9.84328e-19
-4.53784e-21
2.83329e-05
-5.31188e-18
-1.10691e-20
-9.88458e-19
-4.4865e-21
2.91168e-05
-5.28717e-18
-1.09598e-20
-1.00085e-18
-4.42875e-21
2.99169e-05
-5.25986e-18
-1.08488e-20
-1.01169e-18
-4.36392e-21
3.07334e-05
-5.22553e-18
-1.07388e-20
-1.02183e-18
-4.29295e-21
3.15668e-05
-5.19731e-18
-1.06324e-20
-1.02747e-18
-4.21652e-21
3.24174e-05
-5.17309e-18
-1.05273e-20
-1.0387e-18
-4.13712e-21
3.32857e-05
-5.14887e-18
-1.04277e-20
-1.05232e-18
-4.05266e-21
3.41721e-05
-5.12339e-18
-1.03264e-20
-1.06153e-18
-3.9629e-21
3.50768e-05
-5.09573e-18
-1.02222e-20
-1.0762e-18
-3.87283e-21
3.60005e-05
-5.06761e-18
-1.01171e-20
-1.08719e-18
-3.77624e-21
3.69434e-05
-5.04475e-18
-1.00096e-20
-1.09954e-18
-3.67607e-21
3.7906e-05
-5.01359e-18
-9.89245e-21
-1.11512e-18
-3.5757e-21
3.88888e-05
-4.98475e-18
-9.77009e-21
-1.11787e-18
-3.46855e-21
3.98921e-05
-4.95567e-18
-9.64017e-21
-1.13729e-18
-3.36991e-21
4.09166e-05
-4.91931e-18
-9.51198e-21
-1.14606e-18
-3.26663e-21
4.19625e-05
-4.8935e-18
-9.38415e-21
-1.16608e-18
-3.16538e-21
4.30304e-05
-4.87e-18
-9.25837e-21
-1.17187e-18
-3.04872e-21
4.41209e-05
-4.85277e-18
-9.12881e-21
-1.18014e-18
-2.93046e-21
4.52343e-05
-4.83277e-18
-9.0054e-21
-1.17852e-18
-2.80489e-21
4.63711e-05
-4.81446e-18
-8.88318e-21
-1.18298e-18
-2.67852e-21
4.7532e-05
-4.79811e-18
-8.76465e-21
-1.18362e-18
-2.54477e-21
4.87174e-05
-4.78782e-18
-8.64716e-21
-1.1815e-18
-2.41067e-21
4.99279e-05
-4.75227e-18
-8.52813e-21
-1.1856e-18
-2.27904e-21
5.1164e-05
-4.73142e-18
-8.42571e-21
-1.19835e-18
-2.14397e-21
5.24263e-05
-4.70782e-18
-8.30902e-21
-1.20113e-18
-2.00302e-21
5.37153e-05
-4.68967e-18
-8.1991e-21
-1.21021e-18
-1.86574e-21
5.50316e-05
-4.6627e-18
-8.07535e-21
-1.22117e-18
-1.73031e-21
5.63758e-05
-4.64364e-18
-7.95116e-21
-1.23021e-18
-1.59845e-21
5.77486e-05
-4.61747e-18
-7.83533e-21
-1.23861e-18
-1.46034e-21
5.91504e-05
-4.57628e-18
-7.71169e-21
-1.2473e-18
-1.32971e-21
6.05821e-05
-4.53893e-18
-7.60779e-21
-1.25807e-18
-1.20968e-21
6.20442e-05
-4.52128e-18
-7.53572e-21
-1.25746e-18
-1.10379e-21
6.35373e-05
-4.4913e-18
-7.47595e-21
-1.27864e-18
-1.02122e-21
6.50622e-05
-4.4672e-18
-7.43806e-21
-1.30211e-18
-9.48991e-22
6.66195e-05
-4.44885e-18
-7.38413e-21
-1.30251e-18
-8.88264e-22
6.82099e-05
-4.43226e-18
-7.34478e-21
-1.32364e-18
-8.45475e-22
6.98341e-05
-4.4019e-18
-7.31139e-21
-1.34586e-18
-7.84123e-22
7.14929e-05
-4.38281e-18
-7.32135e-21
-1.35841e-18
-7.16705e-22
7.3187e-05
-4.35132e-18
-7.32142e-21
-1.3854e-18
-6.46166e-22
7.49172e-05
-4.31966e-18
-7.34425e-21
-1.41152e-18
-5.75958e-22
7.66841e-05
-4.28772e-18
-7.40102e-21
-1.44792e-18
-5.11986e-22
7.84887e-05
-4.24875e-18
-7.48137e-21
-1.46117e-18
-4.54643e-22
8.03317e-05
-4.24403e-18
-7.57548e-21
-1.48082e-18
-4.06444e-22
8.22139e-05
-4.21023e-18
-7.63791e-21
-1.50649e-18
-3.4074e-22
8.41362e-05
-4.15041e-18
-7.68228e-21
-1.52564e-18
-3.44677e-22
8.60993e-05
-4.1196e-18
-7.79501e-21
-1.5416e-18
-4.16216e-22
8.81043e-05
-4.07334e-18
-7.87766e-21
-1.55876e-18
-5.50155e-22
9.0152e-05
-4.03443e-18
-7.95588e-21
-1.5806e-18
-7.22202e-22
9.22432e-05
-4.00598e-18
-8.05096e-21
-1.60278e-18
-9.15241e-22
9.4379e-05
-3.96465e-18
-8.1364e-21
-1.6297e-18
-1.13786e-21
9.65602e-05
-3.93731e-18
-8.20198e-21
-1.64896e-18
-1.38827e-21
9.87878e-05
-3.90289e-18
-8.2175e-21
-1.65296e-18
-1.62795e-21
0.000101063
-3.85662e-18
-8.33183e-21
-1.68994e-18
-1.8633e-21
0.000103386
-3.82307e-18
-8.54625e-21
-1.71294e-18
-2.03881e-21
0.000105759
-3.80829e-18
-8.80466e-21
-1.71952e-18
-2.16138e-21
0.000108182
-3.79248e-18
-9.10287e-21
-1.72102e-18
-2.21742e-21
0.000110657
-3.78263e-18
-9.35198e-21
-1.72307e-18
-2.268e-21
0.000113185
-3.75829e-18
-9.57117e-21
-1.73407e-18
-2.32303e-21
0.000115766
-3.73765e-18
-9.79834e-21
-1.7452e-18
-2.33076e-21
0.000118402
-3.72472e-18
-1.00407e-20
-1.74646e-18
-2.31331e-21
0.000121094
-3.69114e-18
-1.0307e-20
-1.7645e-18
-2.34294e-21
0.000123843
-3.67485e-18
-1.06246e-20
-1.78253e-18
-2.32636e-21
0.00012665
-3.66597e-18
-1.09158e-20
-1.76417e-18
-2.25602e-21
0.000129518
-3.66372e-18
-1.10672e-20
-1.79163e-18
-2.32319e-21
0.000132446
-3.63468e-18
-1.11135e-20
-1.81293e-18
-2.26655e-21
0.000135436
-3.64713e-18
-1.10953e-20
-1.82347e-18
-2.34798e-21
0.000138489
-3.63787e-18
-1.08983e-20
-1.82051e-18
-2.51011e-21
0.000141607
-3.59622e-18
-1.06864e-20
-1.85172e-18
-2.77706e-21
0.000144792
-3.58095e-18
-1.06138e-20
-1.85604e-18
-2.93697e-21
0.000148044
-3.56135e-18
-1.05877e-20
-1.87727e-18
-3.01603e-21
0.000151364
-3.53605e-18
-1.06869e-20
-1.88573e-18
-3.11748e-21
0.000154755
-3.48763e-18
-1.07989e-20
-1.94513e-18
-3.32153e-21
0.000158218
-3.46728e-18
-1.10583e-20
-1.94263e-18
-3.32314e-21
0.000161754
-3.43664e-18
-1.12663e-20
-1.97195e-18
-3.39988e-21
0.000165365
-3.37246e-18
-1.14772e-20
-1.9859e-18
-3.50249e-21
0.000169052
-3.36323e-18
-1.20662e-20
-2.00759e-18
-3.57422e-21
0.000172817
-3.35663e-18
-1.23787e-20
-2.00871e-18
-3.6371e-21
0.000176662
-3.32382e-18
-1.25963e-20
-1.99024e-18
-3.83182e-21
0.000180588
-3.28732e-18
-1.28267e-20
-2.00712e-18
-4.39127e-21
0.000184596
-3.28006e-18
-1.31216e-20
-2.02686e-18
-5.12611e-21
0.000188689
-3.2597e-18
-1.32713e-20
-2.02924e-18
-5.6403e-21
0.000192869
-3.23181e-18
-1.32187e-20
-2.02939e-18
-5.99233e-21
0.000197136
-3.20236e-18
-1.30305e-20
-2.05819e-18
-6.50013e-21
0.000201494
-3.16465e-18
-1.2859e-20
-2.07012e-18
-6.69822e-21
0.000205943
-3.11023e-18
-1.26371e-20
-2.08084e-18
-6.91091e-21
0.000210485
-3.11207e-18
-1.25436e-20
-2.07086e-18
-7.19269e-21
0.000215123
-3.05013e-18
-1.21178e-20
-2.0568e-18
-7.45e-21
0.000219859
-3.04602e-18
-1.21846e-20
-2.05718e-18
-7.60256e-21
0.000224694
-2.97095e-18
-1.19364e-20
-2.0613e-18
-7.47352e-21
0.00022963
-2.93958e-18
-1.18798e-20
-2.03318e-18
-7.37973e-21
0.00023467
-2.92343e-18
-1.18309e-20
-2.0821e-18
-7.32362e-21
0.000239816
-2.88969e-18
-1.17634e-20
-2.07228e-18
-6.87883e-21
0.000245069
-2.80635e-18
-1.14314e-20
-2.09737e-18
-7.12835e-21
0.000250432
-2.74746e-18
-1.1278e-20
-2.08982e-18
-7.44798e-21
0.000255908
-2.68537e-18
-1.11916e-20
-2.12387e-18
-7.86264e-21
0.000261497
-2.65229e-18
-1.12299e-20
-2.12856e-18
-7.65507e-21
0.000267204
-2.61809e-18
-1.10268e-20
-2.10633e-18
-7.32384e-21
0.000273029
-2.58811e-18
-1.08215e-20
-2.06825e-18
-7.44894e-21
0.000278976
-2.56996e-18
-1.01137e-20
-2.16479e-18
-8.65395e-21
0.000285047
-2.57146e-18
-1.02955e-20
-2.1216e-18
-9.04934e-21
0.000291243
-2.53808e-18
-1.01964e-20
-2.25356e-18
-1.08801e-20
0.000297569
-2.47825e-18
-1.09715e-20
-2.21334e-18
-1.16153e-20
0.000304026
-2.47395e-18
-1.24239e-20
-2.25592e-18
-1.33236e-20
0.000310617
-2.47624e-18
-1.38275e-20
-2.29423e-18
-1.43311e-20
0.000317344
-2.45105e-18
-1.52289e-20
-2.31642e-18
-1.53526e-20
0.000324211
-2.43802e-18
-1.66817e-20
-2.32017e-18
-1.58656e-20
0.00033122
-2.40207e-18
-1.89254e-20
-2.31519e-18
-1.62613e-20
0.000338373
-2.36909e-18
-2.15125e-20
-2.32715e-18
-1.61807e-20
0.000345674
-2.34873e-18
-2.33578e-20
-2.34099e-18
-1.65754e-20
0.000353125
-2.41322e-18
-2.50157e-20
-2.29213e-18
-1.65186e-20
0.000360729
-2.39152e-18
-2.51798e-20
-2.30477e-18
-1.87116e-20
0.00036849
-2.33217e-18
-2.34798e-20
-2.2224e-18
-2.16761e-20
0.00037641
-2.28632e-18
-2.15306e-20
-2.2357e-18
-2.48866e-20
0.000384492
-2.25356e-18
-2.20295e-20
-2.24283e-18
-2.59414e-20
0.000392739
-2.22954e-18
-2.2497e-20
-2.10546e-18
-2.38944e-20
0.000401154
-2.169e-18
-2.16333e-20
-2.14199e-18
-2.5353e-20
0.000409741
-2.12819e-18
-2.38729e-20
-2.09057e-18
-2.44123e-20
0.000418503
-2.09864e-18
-2.60631e-20
-2.07286e-18
-2.25435e-20
0.000427442
-2.00202e-18
-2.80879e-20
-2.0528e-18
-2.03468e-20
0.000436562
-2.02098e-18
-3.04209e-20
-1.97028e-18
-2.0316e-20
0.000445867
-1.96503e-18
-3.32062e-20
-1.92701e-18
-2.30496e-20
0.00045536
-1.93131e-18
-3.3229e-20
-1.91155e-18
-2.52789e-20
0.000465043
-1.88964e-18
-3.42543e-20
-1.87126e-18
-2.55158e-20
0.000474922
-1.83339e-18
-3.30015e-20
-1.83852e-18
-2.41844e-20
0.000484997
-1.78761e-18
-3.31359e-20
-1.76122e-18
-2.04572e-20
0.000495275
-1.80155e-18
-3.03719e-20
-1.83796e-18
-1.90217e-20
0.000505756
-1.75883e-18
-2.80029e-20
-1.80086e-18
-1.83898e-20
0.000516446
-1.76634e-18
-2.98608e-20
-1.87367e-18
-2.36437e-20
0.000527348
-1.84502e-18
-3.5069e-20
-1.86753e-18
-2.38812e-20
0.000538465
-1.80678e-18
-3.60548e-20
-1.83297e-18
-2.16162e-20
0.0005498
-1.78327e-18
-3.58435e-20
-1.65073e-18
-1.83674e-20
0.000561357
-1.76014e-18
-4.02153e-20
-1.66488e-18
-2.43645e-20
0.00057314
-1.85686e-18
-4.99681e-20
-1.72708e-18
-3.15933e-20
0.000585152
-1.75142e-18
-4.44568e-20
-1.71908e-18
-3.75598e-20
0.000597396
-1.70072e-18
-4.44871e-20
-1.7176e-18
-4.32551e-20
0.000609875
-1.69376e-18
-4.02997e-20
-1.66521e-18
-4.53816e-20
0.000622594
-1.69203e-18
-3.6554e-20
-1.72269e-18
-4.38055e-20
0.000635555
-1.58499e-18
-3.26789e-20
-1.67383e-18
-3.99136e-20
0.000648761
-1.60546e-18
-3.74416e-20
-1.69803e-18
-3.66753e-20
0.000662215
-1.58259e-18
-3.87578e-20
-1.58834e-18
-3.54156e-20
0.00067592
-1.58577e-18
-4.12913e-20
-1.59217e-18
-3.85642e-20
0.00068988
-1.68158e-18
-4.26851e-20
-1.60986e-18
-3.61673e-20
0.000704096
-1.45837e-18
-3.7782e-20
-1.59998e-18
-3.02887e-20
0.000718572
-1.4446e-18
-4.37382e-20
-1.44817e-18
-2.697e-20
0.000733308
-1.44881e-18
-5.40828e-20
-1.44044e-18
-3.0132e-20
0.000748308
-1.35747e-18
-5.28109e-20
-1.56288e-18
-3.28302e-20
0.000763573
-1.40216e-18
-6.3248e-20
-1.57231e-18
-3.27097e-20
0.000779104
-1.32769e-18
-6.01718e-20
-1.63957e-18
-3.11564e-20
0.000794902
-1.51008e-18
-7.31257e-20
-1.67282e-18
-3.06586e-20
0.000810967
-1.58209e-18
-7.16835e-20
-1.63202e-18
-3.0824e-20
0.0008273
-1.67163e-18
-5.7331e-20
-1.56211e-18
-1.6744e-20
0.000843901
-1.65154e-18
-3.97351e-20
-1.57514e-18
-1.59316e-20
0.000860767
-1.65888e-18
-4.08858e-20
-1.5462e-18
-2.17649e-20
0.000877897
-1.69428e-18
-3.25151e-20
-1.4637e-18
-3.17794e-20
0.000895288
-1.69551e-18
-3.12848e-20
-1.45778e-18
-2.78623e-20
0.000912937
-1.58736e-18
-2.69011e-20
-1.44313e-18
-2.98976e-20
0.00093084
-1.32715e-18
-2.97448e-20
-1.393e-18
-2.73497e-20
0.000948991
-1.20711e-18
-4.01059e-20
-1.33579e-18
-1.78483e-20
0.000967384
-1.17304e-18
-6.08818e-20
-1.20628e-18
-3.90471e-21
0.000986012
-1.23577e-18
-7.88931e-20
-1.05248e-18
-2.50658e-20
0.00100487
-1.11639e-18
-5.18614e-20
-1.01441e-18
-4.05672e-20
0.00102394
-8.90279e-19
-3.06194e-20
-1.18453e-18
-2.76897e-20
0.00104322
-1.67422e-20
-9.02396e-19
9.26994e-21
-9.64769e-19
2.03988e-08
-5.60865e-22
-1.09332e-22
6.27188e-08
-2.62324e-21
-5.97479e-22
1.07401e-07
-4.76906e-21
-1.11829e-21
1.54548e-07
-7.00845e-21
-1.68729e-21
2.04266e-07
-9.32513e-21
-2.28748e-21
2.56668e-07
-1.1791e-20
-2.85824e-21
3.11868e-07
-1.42754e-20
-3.48846e-21
3.69987e-07
-1.70103e-20
-4.04066e-21
4.3115e-07
-1.96837e-20
-4.75453e-21
4.95487e-07
-2.23607e-20
-5.45302e-21
5.63132e-07
-2.50374e-20
-6.26984e-21
6.34227e-07
-2.78815e-20
-7.19755e-21
7.08916e-07
-3.08656e-20
-8.15663e-21
7.87351e-07
-3.40102e-20
-9.12424e-21
8.6969e-07
-3.72248e-20
-1.02987e-20
9.56095e-07
-4.04238e-20
-1.13674e-20
1.04674e-06
-4.38003e-20
-1.24337e-20
1.14179e-06
-4.72745e-20
-1.39769e-20
1.24143e-06
-5.09918e-20
-1.53322e-20
1.34586e-06
-5.47797e-20
-1.66334e-20
1.45526e-06
-5.86883e-20
-1.78398e-20
1.56983e-06
-6.27841e-20
-1.95022e-20
1.68979e-06
-6.69811e-20
-2.11509e-20
1.81535e-06
-7.18126e-20
-2.23974e-20
1.94672e-06
-7.57774e-20
-2.46212e-20
2.08413e-06
-8.07017e-20
-2.66387e-20
2.22781e-06
-8.54458e-20
-2.84848e-20
2.37799e-06
-9.07563e-20
-3.11233e-20
2.53492e-06
-9.57535e-20
-3.36038e-20
2.69882e-06
-1.01335e-19
-3.59282e-20
2.86994e-06
-1.06613e-19
-3.86204e-20
3.04852e-06
-1.12178e-19
-4.15169e-20
3.23479e-06
-1.18195e-19
-4.4572e-20
3.429e-06
-1.23657e-19
-4.79676e-20
3.63137e-06
-1.30133e-19
-5.08425e-20
3.84211e-06
-1.35794e-19
-5.4777e-20
4.06145e-06
-1.41504e-19
-5.88815e-20
4.28957e-06
-1.48854e-19
-6.19767e-20
4.52666e-06
-1.55877e-19
-6.55837e-20
4.77289e-06
-1.63197e-19
-6.88266e-20
5.0284e-06
-1.71014e-19
-7.36133e-20
5.29331e-06
-1.77845e-19
-7.94687e-20
5.56773e-06
-1.85242e-19
-8.43221e-20
5.85174e-06
-1.93686e-19
-8.85748e-20
6.14541e-06
-2.02063e-19
-9.35564e-20
6.44877e-06
-2.11312e-19
-9.93416e-20
6.76183e-06
-2.19521e-19
-1.04456e-19
7.0846e-06
-2.28053e-19
-1.09311e-19
7.41708e-06
-2.36474e-19
-1.15171e-19
7.75922e-06
-2.45272e-19
-1.20497e-19
8.11099e-06
-2.55206e-19
-1.27303e-19
8.47236e-06
-2.63756e-19
-1.32564e-19
8.84328e-06
-2.73067e-19
-1.39953e-19
9.22371e-06
-2.8275e-19
-1.46492e-19
9.61362e-06
-2.91913e-19
-1.52132e-19
1.0013e-05
-3.00859e-19
-1.57154e-19
1.04217e-05
-3.09123e-19
-1.65038e-19
1.08399e-05
-3.17045e-19
-1.72967e-19
1.12676e-05
-3.26078e-19
-1.80483e-19
1.17047e-05
-3.36646e-19
-1.89055e-19
1.21512e-05
-3.45831e-19
-1.9641e-19
1.26073e-05
-3.55029e-19
-2.04644e-19
1.3073e-05
-3.65495e-19
-2.11156e-19
1.35485e-05
-3.76138e-19
-2.17857e-19
1.40337e-05
-3.84278e-19
-2.26257e-19
1.45288e-05
-3.95025e-19
-2.3187e-19
1.5034e-05
-4.03911e-19
-2.4032e-19
1.55494e-05
-4.12839e-19
-2.47365e-19
1.60752e-05
-4.26762e-19
-2.51514e-19
1.66115e-05
-4.34505e-19
-2.62263e-19
1.71585e-05
-4.40815e-19
-2.69541e-19
1.77165e-05
-4.49681e-19
-2.79011e-19
1.82856e-05
-4.59629e-19
-2.87288e-19
1.8866e-05
-4.73418e-19
-2.95132e-19
1.94581e-05
-4.79981e-19
-3.03605e-19
2.0062e-05
-4.90075e-19
-3.11425e-19
2.0678e-05
-4.96456e-19
-3.20915e-19
2.13064e-05
-5.05903e-19
-3.28535e-19
2.19473e-05
-5.14635e-19
-3.36659e-19
2.26012e-05
-5.24456e-19
-3.44816e-19
2.32683e-05
-5.29966e-19
-3.55449e-19
2.39488e-05
-5.35757e-19
-3.63314e-19
2.46432e-05
-5.41785e-19
-3.72182e-19
2.53516e-05
-5.49214e-19
-3.81569e-19
2.60745e-05
-5.58074e-19
-3.88589e-19
2.68121e-05
-5.663e-19
-3.96383e-19
2.75648e-05
-5.65758e-19
-4.0381e-19
2.83329e-05
-5.71422e-19
-4.06158e-19
2.91168e-05
-5.76249e-19
-4.15515e-19
2.99169e-05
-5.87731e-19
-4.22331e-19
3.07334e-05
-5.98966e-19
-4.29421e-19
3.15668e-05
-6.08818e-19
-4.39509e-19
3.24174e-05
-6.32375e-19
-4.50975e-19
3.32857e-05
-6.38575e-19
-4.6059e-19
3.41721e-05
-6.40106e-19
-4.70799e-19
3.50768e-05
-6.45325e-19
-4.75303e-19
3.60005e-05
-6.49941e-19
-4.84736e-19
3.69434e-05
-6.47832e-19
-4.97042e-19
3.7906e-05
-6.47992e-19
-4.97689e-19
3.88888e-05
-6.44716e-19
-5.13034e-19
3.98921e-05
-6.56195e-19
-5.20517e-19
4.09166e-05
-6.53225e-19
-5.37967e-19
4.19625e-05
-6.57334e-19
-5.42341e-19
4.30304e-05
-6.50039e-19
-5.53667e-19
4.41209e-05
-6.5989e-19
-5.6327e-19
4.52343e-05
-6.57266e-19
-5.77864e-19
4.63711e-05
-6.61123e-19
-5.79183e-19
4.7532e-05
-6.66469e-19
-5.78653e-19
4.87174e-05
-6.78653e-19
-5.78893e-19
4.99279e-05
-6.91281e-19
-5.7357e-19
5.1164e-05
-6.79193e-19
-5.68348e-19
5.24263e-05
-6.86827e-19
-5.6697e-19
5.37153e-05
-6.78214e-19
-5.69996e-19
5.50316e-05
-6.81558e-19
-5.70666e-19
5.63758e-05
-7.00049e-19
-5.60701e-19
5.77486e-05
-6.90026e-19
-5.64221e-19
5.91504e-05
-6.92181e-19
-5.68897e-19
6.05821e-05
-7.09046e-19
-5.79435e-19
6.20442e-05
-7.22474e-19
-5.83474e-19
6.35373e-05
-7.27846e-19
-5.92809e-19
6.50622e-05
-7.06674e-19
-5.98026e-19
6.66195e-05
-7.20367e-19
-5.8983e-19
6.82099e-05
-7.29619e-19
-5.80002e-19
6.98341e-05
-7.53391e-19
-5.77262e-19
7.14929e-05
-7.4558e-19
-5.63729e-19
7.3187e-05
-7.44386e-19
-5.67562e-19
7.49172e-05
-7.48357e-19
-5.71976e-19
7.66841e-05
-7.47463e-19
-5.78782e-19
7.84887e-05
-7.3656e-19
-5.73873e-19
8.03317e-05
-7.35078e-19
-5.64321e-19
8.22139e-05
-7.21691e-19
-5.88782e-19
8.41362e-05
-7.41539e-19
-5.89321e-19
8.60993e-05
-7.39214e-19
-5.96925e-19
8.81043e-05
-7.41045e-19
-6.0681e-19
9.0152e-05
-7.65402e-19
-5.98906e-19
9.22432e-05
-7.84991e-19
-5.85391e-19
9.4379e-05
-7.79036e-19
-5.94071e-19
9.65602e-05
-7.57073e-19
-5.99929e-19
9.87878e-05
-7.80107e-19
-5.99383e-19
0.000101063
-7.86993e-19
-6.0574e-19
0.000103386
-7.79018e-19
-6.12708e-19
0.000105759
-7.86378e-19
-6.11764e-19
0.000108182
-7.63632e-19
-6.28483e-19
0.000110657
-7.56551e-19
-6.42339e-19
0.000113185
-7.49167e-19
-6.48576e-19
0.000115766
-7.52906e-19
-6.59649e-19
0.000118402
-7.68547e-19
-6.75033e-19
0.000121094
-7.70426e-19
-6.79984e-19
0.000123843
-7.764e-19
-6.94478e-19
0.00012665
-7.79699e-19
-7.24688e-19
0.000129518
-8.01434e-19
-6.90957e-19
0.000132446
-7.99733e-19
-7.0054e-19
0.000135436
-8.10899e-19
-6.91999e-19
0.000138489
-8.28923e-19
-7.03216e-19
0.000141607
-8.4495e-19
-7.14079e-19
0.000144792
-8.69392e-19
-6.95978e-19
0.000148044
-9.00475e-19
-7.0608e-19
0.000151364
-8.94925e-19
-7.22606e-19
0.000154755
-8.95389e-19
-7.40009e-19
0.000158218
-8.80671e-19
-7.35762e-19
0.000161754
-8.68811e-19
-7.44933e-19
0.000165365
-8.92503e-19
-7.47518e-19
0.000169052
-8.4745e-19
-7.37122e-19
0.000172817
-8.45096e-19
-7.2568e-19
0.000176662
-8.42632e-19
-7.40198e-19
0.000180588
-8.49242e-19
-7.55814e-19
0.000184596
-8.53853e-19
-7.55506e-19
0.000188689
-8.40655e-19
-7.48497e-19
0.000192869
-8.28195e-19
-7.49139e-19
0.000197136
-8.29758e-19
-7.32758e-19
0.000201494
-8.22536e-19
-7.54093e-19
0.000205943
-8.28386e-19
-7.52719e-19
0.000210485
-8.19925e-19
-7.26544e-19
0.000215123
-8.5784e-19
-7.10494e-19
0.000219859
-8.6919e-19
-7.0144e-19
0.000224694
-8.60596e-19
-7.23993e-19
0.00022963
-8.689e-19
-7.03548e-19
0.00023467
-8.77658e-19
-7.10308e-19
0.000239816
-8.58004e-19
-7.56036e-19
0.000245069
-8.56032e-19
-7.69203e-19
0.000250432
-8.6123e-19
-7.4172e-19
0.000255908
-8.59909e-19
-7.29598e-19
0.000261497
-8.42643e-19
-7.23476e-19
0.000267204
-8.28162e-19
-6.71582e-19
0.000273029
-7.50041e-19
-6.86192e-19
0.000278976
-7.76131e-19
-7.20813e-19
0.000285047
-7.45824e-19
-7.36428e-19
0.000291243
-7.64759e-19
-7.22687e-19
0.000297569
-7.32359e-19
-7.33958e-19
0.000304026
-7.27577e-19
-7.291e-19
0.000310617
-7.51841e-19
-7.66101e-19
0.000317344
-7.49578e-19
-7.70015e-19
0.000324211
-7.95484e-19
-7.73909e-19
0.00033122
-8.01899e-19
-7.37818e-19
0.000338373
-7.86474e-19
-7.88007e-19
0.000345674
-8.09573e-19
-8.05185e-19
0.000353125
-8.31169e-19
-8.6699e-19
0.000360729
-7.66313e-19
-8.85987e-19
0.00036849
-7.39337e-19
-7.92301e-19
0.00037641
-8.27507e-19
-7.52677e-19
0.000384492
-8.29024e-19
-7.04583e-19
0.000392739
-8.0444e-19
-7.45937e-19
0.000401154
-9.09583e-19
-7.42726e-19
0.000409741
-9.11486e-19
-7.59248e-19
0.000418503
-9.50547e-19
-7.90323e-19
0.000427442
-9.28784e-19
-8.32769e-19
0.000436562
-1.00373e-18
-8.54283e-19
0.000445867
-8.87644e-19
-8.56523e-19
0.00045536
-9.31568e-19
-8.3488e-19
0.000465043
-8.6992e-19
-8.43383e-19
0.000474922
-9.17198e-19
-8.15005e-19
0.000484997
-8.60031e-19
-8.18871e-19
0.000495275
-9.13252e-19
-8.90036e-19
0.000505756
-9.29307e-19
-9.3016e-19
0.000516446
-9.56222e-19
-8.50372e-19
0.000527348
-9.23599e-19
-8.9348e-19
0.000538465
-8.80549e-19
-9.10789e-19
0.0005498
-9.50626e-19
-9.43215e-19
0.000561357
-1.04047e-18
-9.62588e-19
0.00057314
-8.50422e-19
-9.40273e-19
0.000585152
-9.32275e-19
-9.28461e-19
0.000597396
-8.31806e-19
-9.48514e-19
0.000609875
-8.44303e-19
-8.6692e-19
0.000622594
-8.47548e-19
-8.95019e-19
0.000635555
-9.1748e-19
-9.02946e-19
0.000648761
-8.95475e-19
-9.65585e-19
0.000662215
-8.96314e-19
-9.8101e-19
0.00067592
-8.86969e-19
-9.34381e-19
0.00068988
-9.14462e-19
-7.95303e-19
0.000704096
-8.75952e-19
-7.99549e-19
0.000718572
-8.98749e-19
-7.83103e-19
0.000733308
-6.84507e-19
-7.05529e-19
0.000748308
-7.44735e-19
-7.56305e-19
0.000763573
-5.93319e-19
-7.49414e-19
0.000779104
-6.46636e-19
-7.67945e-19
0.000794902
-6.83899e-19
-8.03114e-19
0.000810967
-6.97795e-19
-7.29858e-19
0.0008273
-7.6003e-19
-8.8287e-19
0.000843901
-9.4845e-19
-9.04868e-19
0.000860767
-8.89318e-19
-9.58011e-19
0.000877897
-1.04865e-18
-8.94228e-19
0.000895288
-1.0614e-18
-9.90189e-19
0.000912937
-1.07078e-18
-9.28571e-19
0.00093084
-1.00137e-18
-9.48932e-19
0.000948991
-1.03952e-18
-9.32078e-19
0.000967384
-9.79097e-19
-1.04704e-18
0.000986012
-7.41285e-19
-8.56798e-19
0.00100487
-7.21589e-19
-6.6948e-19
0.00102394
-5.34388e-19
-6.66795e-19
0.00104322
-5.71692e-19
-6.07315e-19
0.00104322
-9.13195e-19
-1.53604e-21
-7.46051e-19
2.72338e-20
0.00102394
-6.91627e-19
1.08957e-20
-7.79322e-19
2.97078e-20
0.00100487
-5.32909e-19
3.83372e-21
-5.50365e-19
2.491e-20
0.000986012
-6.30099e-19
-1.48843e-20
-5.78496e-19
1.31004e-20
0.000967384
-6.99597e-19
-9.03482e-21
-5.59618e-19
-6.04888e-21
0.000948991
-5.17147e-19
-1.24978e-20
-6.9334e-19
-1.70348e-20
0.00093084
-6.26607e-19
-2.57152e-20
-5.57438e-19
-8.14089e-21
0.000912937
-4.99385e-19
-6.99058e-21
-5.0251e-19
-9.35702e-21
0.000895288
-4.92451e-19
-7.15987e-21
-5.28398e-19
-1.83124e-21
0.000877897
-5.54174e-19
-5.50301e-21
-5.73058e-19
-4.8131e-21
0.000860767
-5.10446e-19
-3.08927e-21
-6.22975e-19
-5.26451e-21
0.000843901
-6.55265e-19
-1.38324e-20
-4.88344e-19
-1.27258e-22
0.0008273
-5.97331e-19
-8.59825e-21
-4.74077e-19
-2.50763e-21
0.000810967
-5.44498e-19
-5.32383e-21
-5.03506e-19
-5.008e-21
0.000794902
-4.6748e-19
-3.21464e-21
-4.79097e-19
-7.18574e-21
0.000779104
-4.85686e-19
-4.54582e-21
-5.10753e-19
-7.53155e-21
0.000763573
-3.43491e-19
1.36761e-21
-5.64336e-19
1.21716e-21
0.000748308
-3.19632e-19
-8.53761e-22
-3.68001e-19
1.96931e-20
0.000733308
-2.63125e-19
3.9838e-21
-3.40967e-19
2.02866e-20
0.000718572
-2.94457e-19
1.11695e-20
-2.63691e-19
2.28188e-20
0.000704096
-2.82547e-19
1.63035e-20
-3.65955e-19
2.32542e-20
0.00068988
-2.87211e-19
1.81042e-20
-2.74737e-19
2.46918e-20
0.00067592
-2.13135e-19
1.85082e-20
-2.36749e-19
1.92707e-20
0.000662215
-1.84469e-19
1.83947e-20
-7.36339e-20
8.992e-21
0.000648761
-1.47994e-19
7.98306e-21
-1.83709e-19
3.71674e-21
0.000635555
-1.02617e-19
1.45483e-21
-1.19449e-19
4.65755e-21
0.000622594
-1.32898e-19
-4.7533e-21
-2.37267e-19
6.80061e-22
0.000609875
-1.74487e-19
-7.68236e-21
-2.07898e-19
3.07814e-21
0.000597396
-3.06428e-19
-5.32961e-21
-2.12578e-19
-2.04657e-22
0.000585152
-3.0916e-19
2.45852e-21
-2.36352e-19
-4.29456e-21
0.00057314
-3.02891e-19
1.19804e-21
-2.24273e-19
-1.24742e-21
0.000561357
-2.75932e-19
5.99521e-21
-2.5139e-19
1.24722e-21
0.0005498
-2.44147e-19
6.78048e-21
-2.59766e-19
4.61667e-21
0.000538465
-2.97562e-19
1.22464e-21
-2.67015e-19
5.29763e-21
0.000527348
-3.71684e-19
2.1878e-21
-3.23982e-19
1.17168e-21
0.000516446
-3.75091e-19
4.5322e-21
-3.03668e-19
-3.84752e-21
0.000505756
-2.42216e-19
2.53791e-21
-3.17346e-19
-6.6232e-21
0.000495275
-3.43804e-19
-2.26502e-21
-3.02897e-19
-6.50625e-21
0.000484997
-3.09558e-19
-3.90605e-22
-2.85977e-19
-3.47595e-21
0.000474922
-3.19281e-19
2.21682e-21
-1.63823e-19
-1.09435e-21
0.000465044
-2.3555e-19
5.47428e-21
-2.60121e-19
-3.04692e-21
0.00045536
-1.52877e-19
4.60164e-21
-3.89027e-19
-1.96409e-21
0.000445867
-2.53957e-19
1.29966e-21
-2.36776e-19
1.21095e-21
0.000436562
-2.26592e-19
1.94731e-21
-2.6585e-19
1.2929e-22
0.000427442
-2.48191e-19
1.72677e-21
-2.27157e-19
2.02624e-22
0.000418503
-2.15375e-19
2.39012e-21
-2.36799e-19
-2.18308e-21
0.000409741
-1.8757e-19
2.53659e-21
-2.45658e-19
-5.53504e-21
0.000401154
-1.9046e-19
3.12e-22
-2.49355e-19
-5.11276e-21
0.000392739
-1.97417e-19
-7.27286e-22
-2.64656e-19
-4.70106e-21
0.000384492
-1.64724e-19
-2.63215e-21
-2.61441e-19
-4.21701e-21
0.00037641
-1.57464e-19
-3.73656e-21
-2.39782e-19
-3.42997e-21
0.00036849
-2.40792e-19
-4.5841e-21
-1.63098e-19
-1.47758e-21
0.000360729
-2.22016e-19
-3.50317e-21
-1.86241e-19
-1.44509e-21
0.000353125
-1.9969e-19
-2.71214e-21
-1.7052e-19
-3.45464e-22
0.000345674
-1.53386e-19
-2.6678e-21
-1.84797e-19
-1.57513e-22
0.000338373
-1.46053e-19
-2.80845e-21
-1.99849e-19
8.76551e-22
0.00033122
-1.45293e-19
-2.03747e-21
-1.56058e-19
1.89665e-21
0.000324211
-1.67851e-19
-1.33906e-21
-9.97886e-20
2.40208e-21
0.000317344
-1.14556e-19
-3.324e-22
-1.2601e-19
1.93538e-21
0.000310617
-1.13013e-19
-3.16311e-22
-9.44766e-20
1.63028e-21
0.000304026
-1.05704e-19
-6.1013e-22
-1.17531e-19