/*--------------------------------*- C++ -*----------------------------------*\
| =========                 |                                                 |
| \\      /  F ield         | OpenFOAM: The Open Source CFD Toolbox           |
|  \\    /   O peration     | Version:  2106                                  |
|   \\  /    A nd           | Website:  www.openfoam.com                      |
|    \\/     M anipulation  |                                                 |
\*---------------------------------------------------------------------------*/
FoamFile
{
    version     2.0;
    format      ascii;
    arch        "LSB;label=32;scalar=64";
    class       volSymmTensorField;
    location    "10010";
    object      turbulenceProperties:R;
}
// * * * * * * * * * * * * * * * * * * * * * * * * * * * * * * * * * * * * * //

dimensions      [0 2 -2 0 0 0 0];

internalField   nonuniform List<symmTensor> 
2000
(
(1.05368e-07 -2.7791e-12 -5.14358e-15 1.05368e-07 5.56378e-26 1.05368e-07)
(1.05368e-07 -2.7791e-12 -5.14358e-15 1.05368e-07 1.24217e-26 1.05368e-07)
(1.69497e-08 -2.57529e-12 -1.4389e-14 1.69497e-08 8.66162e-27 1.69497e-08)
(1.69497e-08 -2.57529e-12 -1.4389e-14 1.69497e-08 8.89105e-27 1.69497e-08)
(1.56179e-08 -7.02587e-12 -5.44675e-14 1.56179e-08 1.74556e-26 1.56179e-08)
(1.56179e-08 -7.02587e-12 -5.44675e-14 1.56179e-08 2.28972e-27 1.56179e-08)
(4.29116e-08 -4.11033e-11 -3.24597e-13 4.29116e-08 7.48912e-26 4.29116e-08)
(4.29116e-08 -4.11033e-11 -3.24597e-13 4.29116e-08 1.3603e-26 4.29116e-08)
(1.0907e-07 -1.85093e-10 -1.48898e-12 1.0907e-07 3.38696e-25 1.0907e-07)
(1.0907e-07 -1.85093e-10 -1.48898e-12 1.0907e-07 6.22147e-26 1.0907e-07)
(2.33553e-07 -6.26681e-10 -5.13544e-12 2.33553e-07 1.14323e-24 2.33553e-07)
(2.33553e-07 -6.26681e-10 -5.13544e-12 2.33553e-07 2.13919e-25 2.33553e-07)
(4.40567e-07 -1.73198e-09 -1.44579e-11 4.40567e-07 3.23185e-24 4.40567e-07)
(4.40567e-07 -1.73198e-09 -1.44579e-11 4.40567e-07 6.00234e-25 4.40567e-07)
(7.58577e-07 -4.13844e-09 -3.51909e-11 7.58577e-07 7.92131e-24 7.58577e-07)
(7.58577e-07 -4.13844e-09 -3.51909e-11 7.58577e-07 1.45581e-24 7.58577e-07)
(1.22042e-06 -8.87346e-09 -7.6863e-11 1.22042e-06 1.73886e-23 1.22042e-06)
(1.22042e-06 -8.87346e-09 -7.6863e-11 1.22042e-06 3.16977e-24 1.22042e-06)
(1.86354e-06 -1.75032e-08 -1.54444e-10 1.86354e-06 3.50915e-23 1.86354e-06)
(1.86354e-06 -1.75032e-08 -1.54444e-10 1.86354e-06 6.34884e-24 1.86354e-06)
(2.73038e-06 -3.23164e-08 -2.90475e-10 2.73038e-06 6.62929e-23 2.73038e-06)
(2.73038e-06 -3.23164e-08 -2.90475e-10 2.73038e-06 1.1896e-23 2.73038e-06)
(3.86869e-06 -5.65498e-08 -5.17783e-10 3.86869e-06 1.18699e-22 3.86869e-06)
(3.86869e-06 -5.65498e-08 -5.17783e-10 3.86869e-06 2.1127e-23 3.86869e-06)
(5.33199e-06 -9.46602e-08 -8.82904e-10 5.33199e-06 2.03294e-22 5.33199e-06)
(5.33199e-06 -9.46602e-08 -8.82904e-10 5.33199e-06 3.5886e-23 5.33199e-06)
(7.17999e-06 -1.52651e-07 -1.45036e-09 7.17999e-06 3.35371e-22 7.17999e-06)
(7.17999e-06 -1.52651e-07 -1.45036e-09 7.17999e-06 5.86826e-23 7.17999e-06)
(9.47908e-06 -2.38463e-07 -2.30795e-09 9.47908e-06 5.35862e-22 9.47908e-06)
(9.47908e-06 -2.38463e-07 -2.30795e-09 9.47908e-06 9.29702e-23 9.47908e-06)
(1.23028e-05 -3.62428e-07 -3.57319e-09 1.23028e-05 8.32835e-22 1.23028e-05)
(1.23028e-05 -3.62428e-07 -3.57319e-09 1.23028e-05 1.43288e-22 1.23028e-05)
(1.57325e-05 -5.37813e-07 -5.40122e-09 1.57325e-05 1.26357e-21 1.57325e-05)
(1.57325e-05 -5.37813e-07 -5.40122e-09 1.57325e-05 2.15391e-22 1.57325e-05)
(1.98575e-05 -7.81432e-07 -7.99425e-09 1.98575e-05 1.87693e-21 1.98575e-05)
(1.98575e-05 -7.81432e-07 -7.99425e-09 1.98575e-05 3.17276e-22 1.98575e-05)
(2.47762e-05 -1.11437e-06 -1.16129e-08 2.47762e-05 2.73559e-21 2.47762e-05)
(2.47762e-05 -1.11437e-06 -1.16129e-08 2.47762e-05 4.58714e-22 2.47762e-05)
(3.05962e-05 -1.56279e-06 -1.65895e-08 3.05962e-05 3.91969e-21 3.05962e-05)
(3.05962e-05 -1.56279e-06 -1.65895e-08 3.05962e-05 6.5073e-22 3.05962e-05)
(3.74351e-05 -2.15885e-06 -2.33441e-08 3.74351e-05 5.53028e-21 3.74351e-05)
(3.74351e-05 -2.15885e-06 -2.33441e-08 3.74351e-05 9.08429e-22 3.74351e-05)
(4.54205e-05 -2.94171e-06 -3.2402e-08 4.54205e-05 7.69363e-21 4.54205e-05)
(4.54205e-05 -2.94171e-06 -3.2402e-08 4.54205e-05 1.25147e-21 4.54205e-05)
(5.46915e-05 -3.95867e-06 -4.44155e-08 5.46915e-05 1.05659e-20 5.46915e-05)
(5.46915e-05 -3.95867e-06 -4.44155e-08 5.46915e-05 1.70157e-21 5.46915e-05)
(6.53978e-05 -5.26632e-06 -6.01871e-08 6.53978e-05 1.43372e-20 6.53978e-05)
(6.53978e-05 -5.26632e-06 -6.01871e-08 6.53978e-05 2.28364e-21 6.53978e-05)
(7.77012e-05 -6.93184e-06 -8.06957e-08 7.77012e-05 1.92371e-20 7.77012e-05)
(7.77012e-05 -6.93184e-06 -8.06957e-08 7.77012e-05 3.03186e-21 7.77012e-05)
(9.17748e-05 -9.03429e-06 -1.07126e-07 9.17748e-05 2.55405e-20 9.17748e-05)
(9.17748e-05 -9.03429e-06 -1.07126e-07 9.17748e-05 3.98285e-21 9.17748e-05)
(0.000107804 -1.16659e-05 -1.40901e-07 0.000107804 3.3572e-20 0.000107804)
(0.000107804 -1.16659e-05 -1.40901e-07 0.000107804 5.16956e-21 0.000107804)
(0.000125985 -1.49331e-05 -1.8371e-07 0.000125985 4.37048e-20 0.000125985)
(0.000125985 -1.49331e-05 -1.8371e-07 0.000125985 6.64976e-21 0.000125985)
(0.000146525 -1.8958e-05 -2.37548e-07 0.000146525 5.6368e-20 0.000146525)
(0.000146525 -1.8958e-05 -2.37548e-07 0.000146525 8.48635e-21 0.000146525)
(0.000169643 -2.38787e-05 -3.04746e-07 0.000169643 7.20533e-20 0.000169643)
(0.000169643 -2.38787e-05 -3.04746e-07 0.000169643 1.07191e-20 0.000169643)
(0.000195564 -2.98501e-05 -3.87999e-07 0.000195564 9.12874e-20 0.000195564)
(0.000195564 -2.98501e-05 -3.87999e-07 0.000195564 1.34128e-20 0.000195564)
(0.000224523 -3.70437e-05 -4.90392e-07 0.000224523 1.14628e-19 0.000224523)
(0.000224523 -3.70437e-05 -4.90392e-07 0.000224523 1.66205e-20 0.000224523)
(0.000256758 -4.56467e-05 -6.15419e-07 0.000256758 1.42692e-19 0.000256758)
(0.000256758 -4.56467e-05 -6.15419e-07 0.000256758 2.03811e-20 0.000256758)
(0.00029251 -5.58613e-05 -7.6699e-07 0.00029251 1.76079e-19 0.00029251)
(0.00029251 -5.58613e-05 -7.6699e-07 0.00029251 2.47596e-20 0.00029251)
(0.00033202 -6.79014e-05 -9.49422e-07 0.00033202 2.15365e-19 0.00033202)
(0.00033202 -6.79014e-05 -9.49422e-07 0.00033202 2.97722e-20 0.00033202)
(0.000375521 -8.19899e-05 -1.16742e-06 0.000375521 2.61096e-19 0.000375521)
(0.000375521 -8.19899e-05 -1.16742e-06 0.000375521 3.54622e-20 0.000375521)
(0.000423238 -9.83539e-05 -1.42602e-06 0.000423238 3.13648e-19 0.000423238)
(0.000423238 -9.83539e-05 -1.42602e-06 0.000423238 4.18304e-20 0.000423238)
(0.00047538 -0.000117219 -1.73055e-06 0.00047538 3.73368e-19 0.00047538)
(0.00047538 -0.000117219 -1.73055e-06 0.00047538 4.87372e-20 0.00047538)
(0.000532137 -0.000138805 -2.08651e-06 0.000532137 4.40397e-19 0.000532137)
(0.000532137 -0.000138805 -2.08651e-06 0.000532137 5.5964e-20 0.000532137)
(0.000593668 -0.000163313 -2.4995e-06 0.000593668 5.14567e-19 0.000593668)
(0.000593668 -0.000163313 -2.4995e-06 0.000593668 6.34719e-20 0.000593668)
(0.000660105 -0.000190925 -2.97504e-06 0.000660105 5.95569e-19 0.000660105)
(0.000660105 -0.000190925 -2.97504e-06 0.000660105 7.13664e-20 0.000660105)
(0.000731536 -0.000221789 -3.51847e-06 0.000731536 6.82394e-19 0.000731536)
(0.000731536 -0.000221789 -3.51847e-06 0.000731536 7.96331e-20 0.000731536)
(0.000808008 -0.000256018 -4.13478e-06 0.000808008 7.31288e-19 0.000808008)
(0.000808008 -0.000256018 -4.13478e-06 0.000808008 8.76802e-20 0.000808008)
(0.000889518 -0.000293677 -4.82845e-06 0.000889518 2.33788e-19 0.000889518)
(0.000889518 -0.000293677 -4.82845e-06 0.000889518 9.52108e-20 0.000889518)
(0.00097601 -0.00033478 -5.60331e-06 0.00097601 1.13738e-19 0.00097601)
(0.00097601 -0.00033478 -5.60331e-06 0.00097601 1.02207e-19 0.00097601)
(0.00106737 -0.000379288 -6.4624e-06 0.00106737 7.72465e-20 0.00106737)
(0.00106737 -0.000379288 -6.4624e-06 0.00106737 1.07835e-19 0.00106737)
(0.00116344 -0.000427106 -7.40789e-06 0.00116344 9.18889e-21 0.00116344)
(0.00116344 -0.000427106 -7.40789e-06 0.00116344 1.11198e-19 0.00116344)
(0.00126399 -0.000478081 -8.44101e-06 0.00126399 -2.30411e-20 0.00126399)
(0.00126399 -0.000478081 -8.44101e-06 0.00126399 1.12862e-19 0.00126399)
(0.00136876 -0.000532011 -9.562e-06 0.00136876 -1.19547e-19 0.00136876)
(0.00136876 -0.000532011 -9.562e-06 0.00136876 1.14178e-19 0.00136876)
(0.00147741 -0.000588644 -1.07701e-05 0.00147741 -2.16626e-19 0.00147741)
(0.00147741 -0.000588644 -1.07701e-05 0.00147741 1.13061e-19 0.00147741)
(0.00158958 -0.000647691 -1.20638e-05 0.00158958 -3.29972e-19 0.00158958)
(0.00158958 -0.000647691 -1.20638e-05 0.00158958 1.08237e-19 0.00158958)
(0.00170488 -0.000708828 -1.34405e-05 0.00170488 -4.5514e-19 0.00170488)
(0.00170488 -0.000708828 -1.34405e-05 0.00170488 1.01667e-19 0.00170488)
(0.00182287 -0.000771713 -1.4897e-05 0.00182287 -5.98298e-19 0.00182287)
(0.00182287 -0.000771713 -1.4897e-05 0.00182287 9.38395e-20 0.00182287)
(0.00194312 -0.000835987 -1.64297e-05 0.00194312 -7.57372e-19 0.00194312)
(0.00194312 -0.000835987 -1.64297e-05 0.00194312 8.4117e-20 0.00194312)
(0.00206515 -0.00090129 -1.80341e-05 0.00206515 -9.21312e-19 0.00206515)
(0.00206515 -0.00090129 -1.80341e-05 0.00206515 7.12384e-20 0.00206515)
(0.00218852 -0.000967268 -1.97058e-05 0.00218852 -1.09712e-18 0.00218852)
(0.00218852 -0.000967268 -1.97058e-05 0.00218852 5.35483e-20 0.00218852)
(0.00231275 -0.00103358 -2.144e-05 0.00231275 -1.28715e-18 0.00231275)
(0.00231275 -0.00103358 -2.144e-05 0.00231275 3.44168e-20 0.00231275)
(0.00243742 -0.0010999 -2.3232e-05 0.00243742 -1.48329e-18 0.00243742)
(0.00243742 -0.0010999 -2.3232e-05 0.00243742 1.82558e-20 0.00243742)
(0.0025621 -0.00116593 -2.50771e-05 0.0025621 -1.68286e-18 0.0025621)
(0.0025621 -0.00116593 -2.50771e-05 0.0025621 2.99528e-21 0.0025621)
(0.00268638 -0.00123139 -2.69706e-05 0.00268638 -1.8841e-18 0.00268638)
(0.00268638 -0.00123139 -2.69706e-05 0.00268638 -1.05456e-20 0.00268638)
(0.00280989 -0.00129605 -2.89083e-05 0.00280989 -2.07851e-18 0.00280989)
(0.00280989 -0.00129605 -2.89083e-05 0.00280989 -2.82786e-20 0.00280989)
(0.00293228 -0.00135969 -3.08861e-05 0.00293228 -2.27254e-18 0.00293228)
(0.00293228 -0.00135969 -3.08861e-05 0.00293228 -5.43689e-20 0.00293228)
(0.00305325 -0.00142212 -3.29003e-05 0.00305325 -2.46648e-18 0.00305325)
(0.00305325 -0.00142212 -3.29003e-05 0.00305325 -7.36242e-20 0.00305325)
(0.0031725 -0.0014832 -3.49475e-05 0.0031725 -2.65773e-18 0.0031725)
(0.0031725 -0.0014832 -3.49475e-05 0.0031725 -9.22112e-20 0.0031725)
(0.0032898 -0.00154279 -3.70248e-05 0.0032898 -2.84464e-18 0.0032898)
(0.0032898 -0.00154279 -3.70248e-05 0.0032898 -1.11489e-19 0.0032898)
(0.00340494 -0.00160081 -3.91295e-05 0.00340494 -3.01246e-18 0.00340494)
(0.00340494 -0.00160081 -3.91295e-05 0.00340494 -1.28483e-19 0.00340494)
(0.00351771 -0.00165716 -4.12593e-05 0.00351771 -3.17732e-18 0.00351771)
(0.00351771 -0.00165716 -4.12593e-05 0.00351771 -1.49462e-19 0.00351771)
(0.00362798 -0.00171179 -4.34123e-05 0.00362798 -3.34294e-18 0.00362798)
(0.00362798 -0.00171179 -4.34123e-05 0.00362798 -1.78466e-19 0.00362798)
(0.00373562 -0.00176468 -4.55868e-05 0.00373562 -3.49525e-18 0.00373562)
(0.00373562 -0.00176468 -4.55868e-05 0.00373562 -1.97975e-19 0.00373562)
(0.00384053 -0.00181578 -4.77816e-05 0.00384053 -3.63261e-18 0.00384053)
(0.00384053 -0.00181578 -4.77816e-05 0.00384053 -1.90225e-19 0.00384053)
(0.00394262 -0.00186511 -4.99955e-05 0.00394262 -3.76305e-18 0.00394262)
(0.00394262 -0.00186511 -4.99955e-05 0.00394262 -1.90669e-19 0.00394262)
(0.00404186 -0.00191266 -5.22279e-05 0.00404186 -3.90099e-18 0.00404186)
(0.00404186 -0.00191266 -5.22279e-05 0.00404186 -2.04475e-19 0.00404186)
(0.00413819 -0.00195846 -5.4478e-05 0.00413819 -4.00882e-18 0.00413819)
(0.00413819 -0.00195846 -5.4478e-05 0.00413819 -2.11974e-19 0.00413819)
(0.00423161 -0.00200251 -5.67456e-05 0.00423161 -4.05358e-18 0.00423161)
(0.00423161 -0.00200251 -5.67456e-05 0.00423161 -2.25015e-19 0.00423161)
(0.00432211 -0.00204486 -5.90304e-05 0.00432211 -3.72035e-18 0.00432211)
(0.00432211 -0.00204486 -5.90304e-05 0.00432211 -2.48364e-19 0.00432211)
(0.00440969 -0.00208555 -6.13324e-05 0.00440969 -3.35559e-18 0.00440969)
(0.00440969 -0.00208555 -6.13324e-05 0.00440969 -2.32301e-19 0.00440969)
(0.00449439 -0.0021246 -6.36517e-05 0.00449439 -3.34657e-18 0.00449439)
(0.00449439 -0.0021246 -6.36517e-05 0.00449439 -2.08141e-19 0.00449439)
(0.00457623 -0.00216207 -6.59886e-05 0.00457623 -3.25647e-18 0.00457623)
(0.00457623 -0.00216207 -6.59886e-05 0.00457623 -2.46005e-19 0.00457623)
(0.00465526 -0.00219801 -6.83432e-05 0.00465526 -3.19713e-18 0.00465526)
(0.00465526 -0.00219801 -6.83432e-05 0.00465526 -2.79169e-19 0.00465526)
(0.00473151 -0.00223245 -7.07161e-05 0.00473151 -3.30956e-18 0.00473151)
(0.00473151 -0.00223245 -7.07161e-05 0.00473151 -2.39474e-19 0.00473151)
(0.00480504 -0.00226545 -7.31078e-05 0.00480504 -3.36367e-18 0.00480504)
(0.00480504 -0.00226545 -7.31078e-05 0.00480504 -1.76062e-19 0.00480504)
(0.00487591 -0.00229705 -7.55187e-05 0.00487591 -3.31462e-18 0.00487591)
(0.00487591 -0.00229705 -7.55187e-05 0.00487591 -1.29267e-19 0.00487591)
(0.00494417 -0.00232731 -7.79496e-05 0.00494417 -3.3304e-18 0.00494417)
(0.00494417 -0.00232731 -7.79496e-05 0.00494417 -9.99709e-20 0.00494417)
(0.0050099 -0.00235627 -8.0401e-05 0.0050099 -3.37539e-18 0.0050099)
(0.0050099 -0.00235627 -8.0401e-05 0.0050099 -8.49834e-20 0.0050099)
(0.00507314 -0.00238398 -8.28738e-05 0.00507314 -3.35806e-18 0.00507314)
(0.00507314 -0.00238398 -8.28738e-05 0.00507314 -4.71213e-20 0.00507314)
(0.00513397 -0.00241048 -8.53685e-05 0.00513397 -3.28082e-18 0.00513397)
(0.00513397 -0.00241048 -8.53685e-05 0.00513397 4.88346e-20 0.00513397)
(0.00519246 -0.00243583 -8.7886e-05 0.00519246 -3.28969e-18 0.00519246)
(0.00519246 -0.00243583 -8.7886e-05 0.00519246 1.35637e-19 0.00519246)
(0.00524867 -0.00246007 -9.04271e-05 0.00524867 -3.36786e-18 0.00524867)
(0.00524867 -0.00246007 -9.04271e-05 0.00524867 1.54754e-19 0.00524867)
(0.00530266 -0.00248323 -9.29926e-05 0.00530266 -3.28983e-18 0.00530266)
(0.00530266 -0.00248323 -9.29926e-05 0.00530266 1.99647e-19 0.00530266)
(0.00535451 -0.00250536 -9.55831e-05 0.00535451 -3.21929e-18 0.00535451)
(0.00535451 -0.00250536 -9.55831e-05 0.00535451 2.79388e-19 0.00535451)
(0.00540427 -0.00252651 -9.81997e-05 0.00540427 -3.1676e-18 0.00540427)
(0.00540427 -0.00252651 -9.81997e-05 0.00540427 3.42585e-19 0.00540427)
(0.00545202 -0.0025467 -0.000100843 0.00545202 -3.0427e-18 0.00545202)
(0.00545202 -0.0025467 -0.000100843 0.00545202 4.86534e-19 0.00545202)
(0.00549781 -0.00256597 -0.000103514 0.00549781 -3.03814e-18 0.00549781)
(0.00549781 -0.00256597 -0.000103514 0.00549781 1.33938e-18 0.00549781)
(0.00554171 -0.00258436 -0.000106214 0.00554171 -3.10941e-18 0.00554171)
(0.00554171 -0.00258436 -0.000106214 0.00554171 3.18003e-18 0.00554171)
(0.00558377 -0.00260191 -0.000108943 0.00558377 -3.12486e-18 0.00558377)
(0.00558377 -0.00260191 -0.000108943 0.00558377 3.46768e-18 0.00558377)
(0.00562406 -0.00261864 -0.000111702 0.00562406 -3.1792e-18 0.00562406)
(0.00562406 -0.00261864 -0.000111702 0.00562406 3.60129e-18 0.00562406)
(0.00566262 -0.00263459 -0.000114492 0.00566262 -3.16411e-18 0.00566262)
(0.00566262 -0.00263459 -0.000114492 0.00566262 3.7435e-18 0.00566262)
(0.00569952 -0.00264979 -0.000117314 0.00569952 -3.20482e-18 0.00569952)
(0.00569952 -0.00264979 -0.000117314 0.00569952 3.9114e-18 0.00569952)
(0.00573481 -0.00266426 -0.000120168 0.00573481 -3.23769e-18 0.00573481)
(0.00573481 -0.00266426 -0.000120168 0.00573481 4.05827e-18 0.00573481)
(0.00576853 -0.00267802 -0.000123056 0.00576853 -3.29235e-18 0.00576853)
(0.00576853 -0.00267802 -0.000123056 0.00576853 4.24266e-18 0.00576853)
(0.00580074 -0.00269112 -0.000125979 0.00580074 -3.28508e-18 0.00580074)
(0.00580074 -0.00269112 -0.000125979 0.00580074 4.64101e-18 0.00580074)
(0.00583148 -0.00270356 -0.000128936 0.00583148 -3.09038e-18 0.00583148)
(0.00583148 -0.00270356 -0.000128936 0.00583148 4.74091e-18 0.00583148)
(0.0058608 -0.00271537 -0.000131929 0.0058608 -3.16508e-18 0.0058608)
(0.0058608 -0.00271537 -0.000131929 0.0058608 4.91585e-18 0.0058608)
(0.00588875 -0.00272658 -0.00013496 0.00588875 -3.27417e-18 0.00588875)
(0.00588875 -0.00272658 -0.00013496 0.00588875 5.12085e-18 0.00588875)
(0.00591536 -0.00273721 -0.000138027 0.00591536 -3.40448e-18 0.00591536)
(0.00591536 -0.00273721 -0.000138027 0.00591536 5.36727e-18 0.00591536)
(0.00594067 -0.00274727 -0.000141134 0.00594067 -3.53197e-18 0.00594067)
(0.00594067 -0.00274727 -0.000141134 0.00594067 5.60396e-18 0.00594067)
(0.00596473 -0.00275678 -0.000144279 0.00596473 -3.55918e-18 0.00596473)
(0.00596473 -0.00275678 -0.000144279 0.00596473 5.63733e-18 0.00596473)
(0.00598756 -0.00276576 -0.000147464 0.00598756 -3.83872e-18 0.00598756)
(0.00598756 -0.00276576 -0.000147464 0.00598756 5.72566e-18 0.00598756)
(0.00600922 -0.00277423 -0.000150689 0.00600922 -4.36105e-18 0.00600922)
(0.00600922 -0.00277423 -0.000150689 0.00600922 6.1212e-18 0.00600922)
(0.00602972 -0.0027822 -0.000153957 0.00602972 -4.40733e-18 0.00602972)
(0.00602972 -0.0027822 -0.000153957 0.00602972 6.46691e-18 0.00602972)
(0.0060491 -0.00278969 -0.000157266 0.0060491 -4.20894e-18 0.0060491)
(0.0060491 -0.00278969 -0.000157266 0.0060491 6.72934e-18 0.0060491)
(0.00606739 -0.00279672 -0.000160618 0.00606739 -4.25715e-18 0.00606739)
(0.00606739 -0.00279672 -0.000160618 0.00606739 7.06235e-18 0.00606739)
(0.00608463 -0.00280328 -0.000164013 0.00608463 -4.27582e-18 0.00608463)
(0.00608463 -0.00280328 -0.000164013 0.00608463 7.12847e-18 0.00608463)
(0.00610083 -0.00280941 -0.000167453 0.00610083 -4.47655e-18 0.00610083)
(0.00610083 -0.00280941 -0.000167453 0.00610083 7.05074e-18 0.00610083)
(0.00611603 -0.00281511 -0.000170938 0.00611603 -4.91814e-18 0.00611603)
(0.00611603 -0.00281511 -0.000170938 0.00611603 7.43006e-18 0.00611603)
(0.00613025 -0.00282039 -0.000174469 0.00613025 -5.04611e-18 0.00613025)
(0.00613025 -0.00282039 -0.000174469 0.00613025 7.91773e-18 0.00613025)
(0.00614352 -0.00282526 -0.000178046 0.00614352 -4.71038e-18 0.00614352)
(0.00614352 -0.00282526 -0.000178046 0.00614352 7.90148e-18 0.00614352)
(0.00615586 -0.00282974 -0.00018167 0.00615586 -4.6634e-18 0.00615586)
(0.00615586 -0.00282974 -0.00018167 0.00615586 7.85971e-18 0.00615586)
(0.00616728 -0.00283382 -0.000185342 0.00616728 -5.55249e-18 0.00616728)
(0.00616728 -0.00283382 -0.000185342 0.00616728 8.53757e-18 0.00616728)
(0.00617782 -0.00283753 -0.000189061 0.00617782 -5.9521e-18 0.00617782)
(0.00617782 -0.00283753 -0.000189061 0.00617782 9.56056e-18 0.00617782)
(0.00618749 -0.00284087 -0.00019283 0.00618749 -5.57636e-18 0.00618749)
(0.00618749 -0.00284087 -0.00019283 0.00618749 9.51405e-18 0.00618749)
(0.00619631 -0.00284384 -0.000196648 0.00619631 -5.90743e-18 0.00619631)
(0.00619631 -0.00284384 -0.000196648 0.00619631 9.48853e-18 0.00619631)
(0.00620429 -0.00284646 -0.000200517 0.00620429 -6.79975e-18 0.00620429)
(0.00620429 -0.00284646 -0.000200517 0.00620429 9.74666e-18 0.00620429)
(0.00621146 -0.00284873 -0.000204436 0.00621146 -7.37479e-18 0.00621146)
(0.00621146 -0.00284873 -0.000204436 0.00621146 1.00154e-17 0.00621146)
(0.00621783 -0.00285065 -0.000208406 0.00621783 -7.36703e-18 0.00621783)
(0.00621783 -0.00285065 -0.000208406 0.00621783 1.07045e-17 0.00621783)
(0.00622341 -0.00285224 -0.000212427 0.00622341 -7.27786e-18 0.00622341)
(0.00622341 -0.00285224 -0.000212427 0.00622341 1.14008e-17 0.00622341)
(0.00622823 -0.0028535 -0.000216501 0.00622823 -7.01248e-18 0.00622823)
(0.00622823 -0.0028535 -0.000216501 0.00622823 1.16688e-17 0.00622823)
(0.00623228 -0.00285444 -0.000220628 0.00623228 -5.96921e-18 0.00623228)
(0.00623228 -0.00285444 -0.000220628 0.00623228 1.15972e-17 0.00623228)
(0.00623559 -0.00285505 -0.000224807 0.00623559 -2.44313e-18 0.00623559)
(0.00623559 -0.00285505 -0.000224807 0.00623559 1.2307e-17 0.00623559)
(0.00623817 -0.00285535 -0.000229041 0.00623817 -4.34783e-19 0.00623817)
(0.00623817 -0.00285535 -0.000229041 0.00623817 1.34972e-17 0.00623817)
(0.00624002 -0.00285534 -0.000233328 0.00624002 -9.97091e-19 0.00624002)
(0.00624002 -0.00285534 -0.000233328 0.00624002 1.3318e-17 0.00624002)
(0.00624116 -0.00285502 -0.000237669 0.00624116 -3.29939e-19 0.00624116)
(0.00624116 -0.00285502 -0.000237669 0.00624116 1.31545e-17 0.00624116)
(0.0062416 -0.00285439 -0.000242065 0.0062416 -6.13388e-19 0.0062416)
(0.0062416 -0.00285439 -0.000242065 0.0062416 1.41393e-17 0.0062416)
(0.00624135 -0.00285346 -0.000246516 0.00624135 -1.25574e-18 0.00624135)
(0.00624135 -0.00285346 -0.000246516 0.00624135 1.4733e-17 0.00624135)
(0.00624041 -0.00285224 -0.000251022 0.00624041 -1.23706e-18 0.00624041)
(0.00624041 -0.00285224 -0.000251022 0.00624041 1.48808e-17 0.00624041)
(0.0062388 -0.00285072 -0.000255584 0.0062388 -2.09948e-18 0.0062388)
(0.0062388 -0.00285072 -0.000255584 0.0062388 1.54296e-17 0.0062388)
(0.00623651 -0.0028489 -0.000260201 0.00623651 -2.55127e-18 0.00623651)
(0.00623651 -0.0028489 -0.000260201 0.00623651 1.62647e-17 0.00623651)
(0.00623357 -0.00284679 -0.000264875 0.00623357 -2.47436e-18 0.00623357)
(0.00623357 -0.00284679 -0.000264875 0.00623357 1.66059e-17 0.00623357)
(0.00622996 -0.0028444 -0.000269604 0.00622996 -2.67546e-18 0.00622996)
(0.00622996 -0.0028444 -0.000269604 0.00622996 1.69831e-17 0.00622996)
(0.00622571 -0.00284171 -0.000274389 0.00622571 -1.58845e-18 0.00622571)
(0.00622571 -0.00284171 -0.000274389 0.00622571 1.86153e-17 0.00622571)
(0.00622081 -0.00283874 -0.000279231 0.00622081 -1.03745e-20 0.00622081)
(0.00622081 -0.00283874 -0.000279231 0.00622081 1.91091e-17 0.00622081)
(0.00621527 -0.00283548 -0.000284128 0.00621527 4.90004e-19 0.00621527)
(0.00621527 -0.00283548 -0.000284128 0.00621527 1.90048e-17 0.00621527)
(0.00620909 -0.00283194 -0.000289082 0.00620909 2.20265e-19 0.00620909)
(0.00620909 -0.00283194 -0.000289082 0.00620909 1.9374e-17 0.00620909)
(0.00620228 -0.00282811 -0.000294091 0.00620228 -1.9522e-19 0.00620228)
(0.00620228 -0.00282811 -0.000294091 0.00620228 2.01377e-17 0.00620228)
(0.00619484 -0.00282399 -0.000299156 0.00619484 -1.1718e-19 0.00619484)
(0.00619484 -0.00282399 -0.000299156 0.00619484 2.09407e-17 0.00619484)
(0.00618677 -0.0028196 -0.000304277 0.00618677 4.27448e-19 0.00618677)
(0.00618677 -0.0028196 -0.000304277 0.00618677 2.12742e-17 0.00618677)
(0.00617808 -0.00281492 -0.000309454 0.00617808 1.89938e-19 0.00617808)
(0.00617808 -0.00281492 -0.000309454 0.00617808 2.19871e-17 0.00617808)
(0.00616877 -0.00280995 -0.000314685 0.00616877 7.16541e-19 0.00616877)
(0.00616877 -0.00280995 -0.000314685 0.00616877 2.31379e-17 0.00616877)
(0.00615883 -0.0028047 -0.000319971 0.00615883 1.70344e-18 0.00615883)
(0.00615883 -0.0028047 -0.000319971 0.00615883 2.29279e-17 0.00615883)
(0.00614828 -0.00279916 -0.00032531 0.00614828 4.8293e-19 0.00614828)
(0.00614828 -0.00279916 -0.00032531 0.00614828 2.37289e-17 0.00614828)
(0.00613711 -0.00279334 -0.000330704 0.00613711 -2.09827e-19 0.00613711)
(0.00613711 -0.00279334 -0.000330704 0.00613711 2.50763e-17 0.00613711)
(0.00612531 -0.00278723 -0.00033615 0.00612531 2.00259e-20 0.00612531)
(0.00612531 -0.00278723 -0.00033615 0.00612531 2.49362e-17 0.00612531)
(0.00611291 -0.00278083 -0.000341649 0.00611291 1.9527e-19 0.00611291)
(0.00611291 -0.00278083 -0.000341649 0.00611291 2.52809e-17 0.00611291)
(0.00609988 -0.00277415 -0.000347199 0.00609988 -2.79613e-18 0.00609988)
(0.00609988 -0.00277415 -0.000347199 0.00609988 2.65571e-17 0.00609988)
(0.00608624 -0.00276717 -0.0003528 0.00608624 -1.68093e-18 0.00608624)
(0.00608624 -0.00276717 -0.0003528 0.00608624 2.77239e-17 0.00608624)
(0.00607197 -0.00275989 -0.00035845 0.00607197 -4.58635e-19 0.00607197)
(0.00607197 -0.00275989 -0.00035845 0.00607197 2.86616e-17 0.00607197)
(0.00605709 -0.00275233 -0.000364149 0.00605709 -6.02015e-19 0.00605709)
(0.00605709 -0.00275233 -0.000364149 0.00605709 2.87285e-17 0.00605709)
(0.00604158 -0.00274447 -0.000369895 0.00604158 -5.08441e-19 0.00604158)
(0.00604158 -0.00274447 -0.000369895 0.00604158 3.07557e-17 0.00604158)
(0.00602545 -0.0027363 -0.000375687 0.00602545 1.47111e-18 0.00602545)
(0.00602545 -0.0027363 -0.000375687 0.00602545 3.22673e-17 0.00602545)
(0.0060087 -0.00272784 -0.000381524 0.0060087 3.17235e-18 0.0060087)
(0.0060087 -0.00272784 -0.000381524 0.0060087 3.20197e-17 0.0060087)
(0.00599132 -0.00271908 -0.000387404 0.00599132 2.63628e-18 0.00599132)
(0.00599132 -0.00271908 -0.000387404 0.00599132 3.43627e-17 0.00599132)
(0.00597331 -0.00271 -0.000393326 0.00597331 4.71041e-18 0.00597331)
(0.00597331 -0.00271 -0.000393326 0.00597331 3.50335e-17 0.00597331)
(0.00595466 -0.00270062 -0.000399288 0.00595466 4.36127e-18 0.00595466)
(0.00595466 -0.00270062 -0.000399288 0.00595466 3.4035e-17 0.00595466)
(0.00593538 -0.00269093 -0.000405288 0.00593538 6.92462e-19 0.00593538)
(0.00593538 -0.00269093 -0.000405288 0.00593538 3.48853e-17 0.00593538)
(0.00591546 -0.00268092 -0.000411324 0.00591546 1.219e-18 0.00591546)
(0.00591546 -0.00268092 -0.000411324 0.00591546 3.75412e-17 0.00591546)
(0.00589489 -0.0026706 -0.000417394 0.00589489 3.4748e-18 0.00589489)
(0.00589489 -0.0026706 -0.000417394 0.00589489 4.07314e-17 0.00589489)
(0.00587368 -0.00265995 -0.000423495 0.00587368 6.48522e-18 0.00587368)
(0.00587368 -0.00265995 -0.000423495 0.00587368 4.11931e-17 0.00587368)
(0.00585182 -0.00264898 -0.000429626 0.00585182 8.95548e-19 0.00585182)
(0.00585182 -0.00264898 -0.000429626 0.00585182 4.0402e-17 0.00585182)
(0.0058293 -0.00263769 -0.000435783 0.0058293 9.90707e-19 0.0058293)
(0.0058293 -0.00263769 -0.000435783 0.0058293 4.07538e-17 0.0058293)
(0.00580612 -0.00262606 -0.000441963 0.00580612 -1.77041e-18 0.00580612)
(0.00580612 -0.00262606 -0.000441963 0.00580612 4.07668e-17 0.00580612)
(0.00578228 -0.00261409 -0.000448165 0.00578228 -1.57446e-18 0.00578228)
(0.00578228 -0.00261409 -0.000448165 0.00578228 4.08777e-17 0.00578228)
(0.00575777 -0.00260179 -0.000454384 0.00575777 5.08562e-20 0.00575777)
(0.00575777 -0.00260179 -0.000454384 0.00575777 4.21209e-17 0.00575777)
(0.00573258 -0.00258914 -0.000460617 0.00573258 -1.94797e-18 0.00573258)
(0.00573258 -0.00258914 -0.000460617 0.00573258 4.24671e-17 0.00573258)
(0.0057067 -0.00257614 -0.00046686 0.0057067 -1.69689e-18 0.0057067)
(0.0057067 -0.00257614 -0.00046686 0.0057067 4.21136e-17 0.0057067)
(0.00568015 -0.00256279 -0.000473111 0.00568015 1.73211e-19 0.00568015)
(0.00568015 -0.00256279 -0.000473111 0.00568015 4.10729e-17 0.00568015)
(0.00565289 -0.00254909 -0.000479364 0.00565289 -3.81924e-19 0.00565289)
(0.00565289 -0.00254909 -0.000479364 0.00565289 4.1309e-17 0.00565289)
(0.00562494 -0.00253502 -0.000485616 0.00562494 1.41322e-18 0.00562494)
(0.00562494 -0.00253502 -0.000485616 0.00562494 4.22019e-17 0.00562494)
(0.00559629 -0.00252059 -0.000491862 0.00559629 6.00219e-20 0.00559629)
(0.00559629 -0.00252059 -0.000491862 0.00559629 4.15665e-17 0.00559629)
(0.00556692 -0.00250579 -0.000498097 0.00556692 -1.82997e-18 0.00556692)
(0.00556692 -0.00250579 -0.000498097 0.00556692 4.40549e-17 0.00556692)
(0.00553683 -0.00249061 -0.000504316 0.00553683 1.15284e-18 0.00553683)
(0.00553683 -0.00249061 -0.000504316 0.00553683 4.78116e-17 0.00553683)
(0.00550602 -0.00247505 -0.000510515 0.00550602 3.18418e-18 0.00550602)
(0.00550602 -0.00247505 -0.000510515 0.00550602 4.70797e-17 0.00550602)
(0.00547447 -0.0024591 -0.000516687 0.00547447 2.33656e-18 0.00547447)
(0.00547447 -0.0024591 -0.000516687 0.00547447 4.06265e-17 0.00547447)
(0.00544218 -0.00244276 -0.000522827 0.00544218 1.76867e-18 0.00544218)
(0.00544218 -0.00244276 -0.000522827 0.00544218 3.59408e-17 0.00544218)
(0.00540915 -0.00242602 -0.000528928 0.00540915 3.76084e-19 0.00540915)
(0.00540915 -0.00242602 -0.000528928 0.00540915 3.38092e-17 0.00540915)
(0.00537536 -0.00240888 -0.000534984 0.00537536 -1.76872e-18 0.00537536)
(0.00537536 -0.00240888 -0.000534984 0.00537536 3.92365e-17 0.00537536)
(0.00534081 -0.00239133 -0.000540988 0.00534081 -9.25315e-19 0.00534081)
(0.00534081 -0.00239133 -0.000540988 0.00534081 3.76262e-17 0.00534081)
(0.00530548 -0.00237337 -0.000546933 0.00530548 4.03642e-19 0.00530548)
(0.00530548 -0.00237337 -0.000546933 0.00530548 3.7091e-17 0.00530548)
(0.00526938 -0.00235499 -0.000552811 0.00526938 1.92785e-18 0.00526938)
(0.00526938 -0.00235499 -0.000552811 0.00526938 3.2941e-17 0.00526938)
(0.00523248 -0.00233617 -0.000558615 0.00523248 8.48213e-18 0.00523248)
(0.00523248 -0.00233617 -0.000558615 0.00523248 2.48102e-17 0.00523248)
(0.0051948 -0.00231693 -0.000564335 0.0051948 8.23127e-18 0.0051948)
(0.0051948 -0.00231693 -0.000564335 0.0051948 2.47025e-17 0.0051948)
(0.00515631 -0.00229724 -0.000569964 0.00515631 5.88238e-18 0.00515631)
(0.00515631 -0.00229724 -0.000569964 0.00515631 1.90487e-17 0.00515631)
(0.00511701 -0.0022771 -0.000575492 0.00511701 6.44526e-18 0.00511701)
(0.00511701 -0.0022771 -0.000575492 0.00511701 1.46676e-17 0.00511701)
(0.00507689 -0.00225651 -0.000580909 0.00507689 9.27294e-18 0.00507689)
(0.00507689 -0.00225651 -0.000580909 0.00507689 1.13978e-17 0.00507689)
(0.00503594 -0.00223547 -0.000586206 0.00503594 1.11164e-17 0.00503594)
(0.00503594 -0.00223547 -0.000586206 0.00503594 7.45438e-18 0.00503594)
(0.00499415 -0.00221395 -0.000591371 0.00499415 1.14478e-17 0.00499415)
(0.00499415 -0.00221395 -0.000591371 0.00499415 3.17318e-18 0.00499415)
(0.00495152 -0.00219195 -0.000596393 0.00495152 8.74392e-18 0.00495152)
(0.00495152 -0.00219195 -0.000596393 0.00495152 2.50862e-18 0.00495152)
(0.00490804 -0.00216948 -0.000601261 0.00490804 1.50757e-18 0.00490804)
(0.00490804 -0.00216948 -0.000601261 0.00490804 9.52893e-18 0.00490804)
(0.0048637 -0.00214651 -0.000605963 0.0048637 -2.57292e-18 0.0048637)
(0.0048637 -0.00214651 -0.000605963 0.0048637 1.68257e-17 0.0048637)
(0.0048185 -0.00212305 -0.000610485 0.0048185 -5.37215e-18 0.0048185)
(0.0048185 -0.00212305 -0.000610485 0.0048185 2.05695e-17 0.0048185)
(0.00477241 -0.00209908 -0.000614815 0.00477241 -3.89614e-19 0.00477241)