/*--------------------------------*- C++ -*----------------------------------*\
| =========                 |                                                 |
| \\      /  F ield         | OpenFOAM: The Open Source CFD Toolbox           |
|  \\    /   O peration     | Version:  2106                                  |
|   \\  /    A nd           | Website:  www.openfoam.com                      |
|    \\/     M anipulation  |                                                 |
\*---------------------------------------------------------------------------*/
FoamFile
{
    version     2.0;
    format      ascii;
    arch        "LSB;label=32;scalar=64";
    class       volVectorField;
    location    "10010";
    object      U;
}
// * * * * * * * * * * * * * * * * * * * * * * * * * * * * * * * * * * * * * //

dimensions      [0 1 -1 0 0 0 0];

internalField   nonuniform List<vector> 
2000
(
(0.00220452 -5.73311e-16 -3.71343e-17)
(0.00220452 -5.49624e-19 -9.85197e-18)
(0.00665387 -3.49665e-15 -1.41436e-16)
(0.00665387 -8.87536e-19 -3.91332e-17)
(0.0111854 -3.00737e-15 -1.48987e-16)
(0.0111854 -2.79135e-18 -4.05946e-17)
(0.0158006 -2.93208e-15 -1.56643e-16)
(0.0158006 -4.4446e-18 -4.21023e-17)
(0.0205011 -2.89344e-15 -1.64785e-16)
(0.0205011 -6.13907e-18 -4.36582e-17)
(0.0252883 -2.90514e-15 -1.73391e-16)
(0.0252883 -7.90493e-18 -4.52639e-17)
(0.0301639 -2.90703e-15 -1.82384e-16)
(0.0301639 -9.73867e-18 -4.69205e-17)
(0.0351294 -2.90429e-15 -1.91757e-16)
(0.0351294 -1.16227e-17 -4.86292e-17)
(0.0401865 -2.90088e-15 -2.01524e-16)
(0.0401865 -1.35862e-17 -5.03911e-17)
(0.0453369 -2.89753e-15 -2.11703e-16)
(0.0453369 -1.5576e-17 -5.22099e-17)
(0.0505822 -2.89409e-15 -2.2231e-16)
(0.0505822 -1.75842e-17 -5.40852e-17)
(0.0559242 -2.89046e-15 -2.33363e-16)
(0.0559242 -1.96972e-17 -5.60186e-17)
(0.0613646 -2.88662e-15 -2.44879e-16)
(0.0613646 -2.19239e-17 -5.80121e-17)
(0.0669052 -2.88264e-15 -2.56877e-16)
(0.0669052 -2.42433e-17 -6.00663e-17)
(0.0725477 -2.87849e-15 -2.69375e-16)
(0.0725477 -2.66403e-17 -6.2181e-17)
(0.0782939 -2.87431e-15 -2.82392e-16)
(0.0782939 -2.91306e-17 -6.43603e-17)
(0.0841457 -2.87008e-15 -2.95948e-16)
(0.0841457 -3.16832e-17 -6.66032e-17)
(0.0901048 -2.8656e-15 -3.1006e-16)
(0.0901048 -3.4274e-17 -6.89093e-17)
(0.0961731 -2.86089e-15 -3.24748e-16)
(0.0961731 -3.69947e-17 -7.12862e-17)
(0.102352 -2.85597e-15 -3.40031e-16)
(0.102352 -3.9863e-17 -7.37298e-17)
(0.108644 -2.85086e-15 -3.55927e-16)
(0.108644 -4.27907e-17 -7.62357e-17)
(0.11505 -2.84557e-15 -3.72453e-16)
(0.11505 -4.58196e-17 -7.88069e-17)
(0.121573 -2.84005e-15 -3.89627e-16)
(0.121573 -4.89825e-17 -8.14452e-17)
(0.128213 -2.83436e-15 -4.07465e-16)
(0.128213 -5.22334e-17 -8.41471e-17)
(0.134971 -2.82849e-15 -4.25979e-16)
(0.134971 -5.56458e-17 -8.69102e-17)
(0.141851 -2.82239e-15 -4.4518e-16)
(0.141851 -5.91159e-17 -8.9737e-17)
(0.148851 -2.81599e-15 -4.65078e-16)
(0.148851 -6.26683e-17 -9.26218e-17)
(0.155974 -2.80939e-15 -4.85675e-16)
(0.155974 -6.64209e-17 -9.55545e-17)
(0.16322 -2.80268e-15 -5.06973e-16)
(0.16322 -7.0119e-17 -9.85423e-17)
(0.170589 -2.79565e-15 -5.28966e-16)
(0.170589 -7.39317e-17 -1.01581e-16)
(0.178081 -2.78831e-15 -5.51641e-16)
(0.178081 -7.78707e-17 -1.04658e-16)
(0.185696 -2.78091e-15 -5.74978e-16)
(0.185696 -8.19645e-17 -1.0777e-16)
(0.193432 -2.77329e-15 -5.98949e-16)
(0.193432 -8.62541e-17 -1.10901e-16)
(0.201287 -2.76534e-15 -6.23516e-16)
(0.201287 -9.0584e-17 -1.14039e-16)
(0.20926 -2.7571e-15 -6.48628e-16)
(0.20926 -9.49758e-17 -1.17173e-16)
(0.217347 -2.74841e-15 -6.74227e-16)
(0.217347 -9.97362e-17 -1.20284e-16)
(0.225545 -2.73949e-15 -7.00241e-16)
(0.225545 -1.04746e-16 -1.23361e-16)
(0.233848 -2.73031e-15 -7.26591e-16)
(0.233848 -1.09635e-16 -1.26383e-16)
(0.242251 -2.72074e-15 -7.53185e-16)
(0.242251 -1.14816e-16 -1.29325e-16)
(0.250748 -2.71088e-15 -7.79922e-16)
(0.250748 -1.20279e-16 -1.32146e-16)
(0.25933 -2.7005e-15 -8.06694e-16)
(0.25933 -1.25924e-16 -1.3484e-16)
(0.26799 -2.69045e-15 -8.33383e-16)
(0.26799 -1.3144e-16 -1.37393e-16)
(0.276718 -2.68033e-15 -8.59871e-16)
(0.276718 -1.36613e-16 -1.39801e-16)
(0.285504 -2.66986e-15 -8.83052e-16)
(0.285504 -1.41983e-16 -1.42026e-16)
(0.294338 -2.65924e-15 -8.86473e-16)
(0.294338 -1.47315e-16 -1.44063e-16)
(0.303207 -2.64803e-15 -8.88701e-16)
(0.303207 -1.53035e-16 -1.45894e-16)
(0.312101 -2.63699e-15 -8.89698e-16)
(0.312101 -1.59154e-16 -1.47483e-16)
(0.321007 -2.62581e-15 -8.89385e-16)
(0.321007 -1.64829e-16 -1.48792e-16)
(0.329913 -2.61382e-15 -8.87801e-16)
(0.329913 -1.70625e-16 -1.49852e-16)
(0.338807 -2.60148e-15 -8.84942e-16)
(0.338807 -1.76951e-16 -1.50674e-16)
(0.347678 -2.58895e-15 -8.808e-16)
(0.347678 -1.83599e-16 -1.51209e-16)
(0.356513 -2.57604e-15 -8.75443e-16)
(0.356513 -1.90166e-16 -1.51452e-16)
(0.365302 -2.56327e-15 -8.68982e-16)
(0.365302 -1.96266e-16 -1.51434e-16)
(0.374035 -2.55033e-15 -8.61352e-16)
(0.374035 -2.02918e-16 -1.51151e-16)
(0.382702 -2.53666e-15 -8.52697e-16)
(0.382702 -2.09923e-16 -1.50613e-16)
(0.391296 -2.52329e-15 -8.4315e-16)
(0.391296 -2.16627e-16 -1.49806e-16)
(0.399807 -2.51048e-15 -8.32739e-16)
(0.399807 -2.23288e-16 -1.48707e-16)
(0.40823 -2.49792e-15 -8.21518e-16)
(0.40823 -2.29398e-16 -1.47367e-16)
(0.416559 -2.48561e-15 -8.09607e-16)
(0.416559 -2.35202e-16 -1.4583e-16)
(0.424788 -2.47298e-15 -7.97079e-16)
(0.424788 -2.40939e-16 -1.44099e-16)
(0.432914 -2.45951e-15 -7.8402e-16)
(0.432914 -2.47184e-16 -1.42218e-16)
(0.440933 -2.44593e-15 -7.70577e-16)
(0.440933 -2.53276e-16 -1.40102e-16)
(0.448842 -2.43304e-15 -7.56771e-16)
(0.448842 -2.58833e-16 -1.37765e-16)
(0.456641 -2.42035e-15 -7.42728e-16)
(0.456641 -2.65347e-16 -1.35303e-16)
(0.464328 -2.4075e-15 -7.28417e-16)
(0.464328 -2.71385e-16 -1.32634e-16)
(0.471901 -2.39386e-15 -7.13966e-16)
(0.471901 -2.77056e-16 -1.29843e-16)
(0.479362 -2.38034e-15 -6.9945e-16)
(0.479362 -2.83296e-16 -1.26885e-16)
(0.48671 -2.36752e-15 -6.84892e-16)
(0.48671 -2.89766e-16 -1.2377e-16)
(0.493947 -2.35455e-15 -6.7031e-16)
(0.493947 -2.94614e-16 -1.20413e-16)
(0.501073 -2.3413e-15 -6.55768e-16)
(0.501073 -2.99517e-16 -1.17017e-16)
(0.508089 -2.32804e-15 -6.41313e-16)
(0.508089 -3.06134e-16 -1.13594e-16)
(0.514998 -2.31507e-15 -6.26955e-16)
(0.514998 -3.11128e-16 -1.10025e-16)
(0.521801 -2.3018e-15 -6.12632e-16)
(0.521801 -3.17017e-16 -1.06333e-16)
(0.528499 -2.28727e-15 -5.98575e-16)
(0.528499 -3.24833e-16 -1.02534e-16)
(0.535097 -2.273e-15 -5.84889e-16)
(0.535097 -3.30566e-16 -9.8535e-17)
(0.541594 -2.26038e-15 -5.73944e-16)
(0.541594 -3.36241e-16 -9.43855e-17)
(0.547994 -2.24643e-15 -5.63392e-16)
(0.547994 -3.4219e-16 -9.02866e-17)
(0.554299 -2.23082e-15 -5.5309e-16)
(0.554299 -3.49769e-16 -8.60814e-17)
(0.560512 -2.21661e-15 -5.43584e-16)
(0.560512 -3.57483e-16 -8.14914e-17)
(0.566634 -2.20512e-15 -5.34259e-16)
(0.566634 -3.61831e-16 -7.6812e-17)
(0.572668 -2.19551e-15 -5.24827e-16)
(0.572668 -3.65927e-16 -7.22449e-17)
(0.578617 -2.18581e-15 -5.15845e-16)
(0.578617 -3.68572e-16 -6.76616e-17)
(0.584482 -2.17562e-15 -5.07138e-16)
(0.584482 -3.72849e-16 -6.31015e-17)
(0.590267 -2.16544e-15 -4.98486e-16)
(0.590267 -3.78314e-16 -5.83935e-17)
(0.595972 -2.15535e-15 -4.89979e-16)
(0.595972 -3.82436e-16 -5.35869e-17)
(0.601602 -2.14497e-15 -4.81815e-16)
(0.601602 -3.85817e-16 -4.87729e-17)
(0.607157 -2.13558e-15 -4.74019e-16)
(0.607157 -3.90744e-16 -4.41541e-17)
(0.61264 -2.12842e-15 -4.66225e-16)
(0.61264 -3.95466e-16 -3.93822e-17)
(0.618053 -2.12026e-15 -4.58572e-16)
(0.618053 -3.97e-16 -3.45148e-17)
(0.623398 -2.10945e-15 -4.5136e-16)
(0.623398 -4.01753e-16 -2.96781e-17)
(0.628678 -2.0972e-15 -4.44089e-16)
(0.628678 -4.07273e-16 -2.47749e-17)
(0.633893 -2.08462e-15 -4.37248e-16)
(0.633893 -4.09238e-16 -1.97988e-17)
(0.639046 -2.07422e-15 -4.30701e-16)
(0.639046 -4.13158e-16 -1.51571e-17)
(0.644139 -2.06455e-15 -4.24273e-16)
(0.644139 -4.19273e-16 -1.31856e-17)
(0.649173 -2.05293e-15 -4.17716e-16)
(0.649173 -4.22848e-16 -1.34186e-17)
(0.65415 -2.04433e-15 -4.11271e-16)
(0.65415 -4.26942e-16 -1.36984e-17)
(0.659072 -2.03351e-15 -4.0496e-16)
(0.659072 -4.32873e-16 -1.38457e-17)
(0.663941 -2.02275e-15 -3.98566e-16)
(0.663941 -4.37038e-16 -1.39494e-17)
(0.668757 -2.01197e-15 -3.92289e-16)
(0.668757 -4.42616e-16 -1.40366e-17)
(0.673523 -1.99932e-15 -3.85942e-16)
(0.673523 -4.47275e-16 -1.40152e-17)
(0.67824 -1.98812e-15 -3.79459e-16)
(0.67824 -4.5156e-16 -1.45405e-17)
(0.68291 -1.97457e-15 -3.73434e-16)
(0.68291 -4.56137e-16 -1.47168e-17)
(0.687533 -1.96231e-15 -3.67538e-16)
(0.687533 -4.6168e-16 -1.48735e-17)
(0.692111 -1.95256e-15 -3.61511e-16)
(0.692111 -4.68197e-16 -1.48026e-17)
(0.696645 -1.94433e-15 -3.55627e-16)
(0.696645 -4.7027e-16 -1.49215e-17)
(0.701137 -1.93716e-15 -3.49446e-16)
(0.701137 -4.7198e-16 -1.49645e-17)
(0.705588 -1.92956e-15 -3.4339e-16)
(0.705588 -4.71419e-16 -1.50829e-17)
(0.709999 -1.92303e-15 -3.37204e-16)
(0.709999 -4.73818e-16 -1.45844e-17)
(0.714371 -1.91753e-15 -3.30496e-16)
(0.714371 -4.72877e-16 -1.43697e-17)
(0.718705 -1.90817e-15 -3.22909e-16)
(0.718705 -4.72935e-16 -1.4642e-17)
(0.723002 -1.89668e-15 -3.15786e-16)
(0.723002 -4.76987e-16 -1.48821e-17)
(0.727263 -1.88809e-15 -3.08695e-16)
(0.727263 -4.80282e-16 -1.53068e-17)
(0.73149 -1.87996e-15 -3.01877e-16)
(0.73149 -4.81239e-16 -1.59412e-17)
(0.735683 -1.87043e-15 -2.94896e-16)
(0.735683 -4.85822e-16 -1.59059e-17)
(0.739842 -1.8611e-15 -2.87423e-16)
(0.739842 -4.91261e-16 -1.55447e-17)
(0.74397 -1.85207e-15 -2.79273e-16)
(0.74397 -4.93681e-16 -1.58651e-17)
(0.748067 -1.83871e-15 -2.71592e-16)
(0.748067 -4.96101e-16 -1.63007e-17)
(0.752133 -1.82292e-15 -2.63974e-16)
(0.752133 -5.00686e-16 -1.58841e-17)
(0.756169 -1.81247e-15 -2.56202e-16)
(0.756169 -5.04488e-16 -1.5281e-17)
(0.760177 -1.80214e-15 -2.46825e-16)
(0.760177 -5.07824e-16 -1.61449e-17)
(0.764157 -1.79174e-15 -2.38072e-16)
(0.764157 -5.1515e-16 -1.73196e-17)
(0.768109 -1.78393e-15 -2.29842e-16)
(0.768109 -5.21519e-16 -1.7052e-17)
(0.772035 -1.77567e-15 -2.20613e-16)
(0.772035 -5.24935e-16 -1.7145e-17)
(0.775934 -1.7669e-15 -2.09967e-16)
(0.775934 -5.34343e-16 -1.70227e-17)
(0.779809 -1.75734e-15 -1.99222e-16)
(0.779809 -5.40282e-16 -1.68772e-17)
(0.783659 -1.747e-15 -1.88603e-16)
(0.783659 -5.48472e-16 -1.78741e-17)
(0.787485 -1.73404e-15 -1.78091e-16)
(0.787485 -5.59983e-16 -1.86405e-17)
(0.791287 -1.72166e-15 -1.67886e-16)
(0.791287 -5.70429e-16 -1.90343e-17)
(0.795067 -1.70846e-15 -1.60341e-16)
(0.795067 -5.83508e-16 -1.84346e-17)
(0.798824 -1.69851e-15 -1.59413e-16)
(0.798824 -5.88026e-16 -1.94436e-17)
(0.80256 -1.69115e-15 -1.57589e-16)
(0.80256 -5.95967e-16 -2.0994e-17)
(0.806274 -1.67262e-15 -1.55603e-16)
(0.806274 -6.04886e-16 -2.02532e-17)
(0.809968 -1.65355e-15 -1.53639e-16)
(0.809968 -6.15102e-16 -2.00873e-17)
(0.813642 -1.63904e-15 -1.50769e-16)
(0.813642 -6.20744e-16 -2.05719e-17)
(0.817296 -1.62169e-15 -1.479e-16)
(0.817296 -6.25807e-16 -2.05954e-17)
(0.82093 -1.60761e-15 -1.44542e-16)
(0.82093 -6.37209e-16 -2.03101e-17)
(0.824546 -1.59357e-15 -1.40018e-16)
(0.824546 -6.48377e-16 -2.05878e-17)
(0.828144 -1.57892e-15 -1.3551e-16)
(0.828144 -6.56469e-16 -2.10535e-17)
(0.831723 -1.56718e-15 -1.31049e-16)
(0.831723 -6.5863e-16 -2.07376e-17)
(0.835285 -1.55173e-15 -1.26561e-16)
(0.835285 -6.70828e-16 -2.175e-17)
(0.83883 -1.53635e-15 -1.24104e-16)
(0.83883 -6.82434e-16 -2.3053e-17)
(0.842358 -1.52639e-15 -1.23519e-16)
(0.842358 -6.8435e-16 -2.36917e-17)
(0.845869 -1.5204e-15 -1.23323e-16)
(0.845869 -6.8813e-16 -2.36883e-17)
(0.849365 -1.51509e-15 -1.22837e-16)
(0.849365 -6.88827e-16 -2.36841e-17)
(0.852844 -1.50822e-15 -1.21728e-16)
(0.852844 -6.92169e-16 -2.41943e-17)
(0.856309 -1.49914e-15 -1.21095e-16)
(0.856309 -6.95162e-16 -2.47243e-17)
(0.859758 -1.49195e-15 -1.20815e-16)
(0.859758 -6.97891e-16 -2.45608e-17)
(0.863193 -1.48316e-15 -1.19971e-16)
(0.863193 -7.03743e-16 -2.53643e-17)
(0.866613 -1.47372e-15 -1.20603e-16)
(0.866613 -7.08218e-16 -2.62707e-17)
(0.870018 -1.46868e-15 -1.21964e-16)
(0.870018 -7.08832e-16 -2.5081e-17)
(0.87341 -1.46502e-15 -1.21331e-16)
(0.87341 -7.11897e-16 -2.60345e-17)
(0.876789 -1.46101e-15 -1.20585e-16)
(0.876789 -7.19353e-16 -2.65038e-17)
(0.880154 -1.45633e-15 -1.20416e-16)
(0.880154 -7.27944e-16 -2.61917e-17)
(0.883505 -1.45533e-15 -1.17619e-16)
(0.883505 -7.30409e-16 -2.57099e-17)
(0.886844 -1.44752e-15 -1.13408e-16)
(0.886844 -7.33527e-16 -2.71109e-17)
(0.89017 -1.43653e-15 -1.11597e-16)
(0.89017 -7.44089e-16 -2.75608e-17)
(0.893484 -1.42816e-15 -1.0944e-16)
(0.893484 -7.44487e-16 -2.90196e-17)
(0.896785 -1.4192e-15 -1.07937e-16)
(0.896785 -7.6457e-16 -2.87647e-17)
(0.900075 -1.40583e-15 -1.05794e-16)
(0.900075 -7.71269e-16 -3.22071e-17)
(0.903352 -1.39106e-15 -1.07828e-16)
(0.903352 -7.73989e-16 -3.27673e-17)
(0.906618 -1.38085e-15 -1.0926e-16)
(0.906618 -7.82457e-16 -3.39868e-17)
(0.909872 -1.36119e-15 -1.11239e-16)
(0.909872 -7.91532e-16 -3.85428e-17)
(0.913114 -1.34725e-15 -1.14849e-16)
(0.913114 -7.9913e-16 -3.86115e-17)
(0.916346 -1.34456e-15 -1.17557e-16)
(0.916346 -8.03438e-16 -3.85706e-17)
(0.919566 -1.33505e-15 -1.17769e-16)
(0.919566 -7.97291e-16 -3.98911e-17)
(0.922775 -1.32232e-15 -1.15063e-16)
(0.922775 -8.0212e-16 -4.48775e-17)
(0.925974 -1.31393e-15 -1.22212e-16)
(0.925974 -8.08372e-16 -5.14273e-17)
(0.929161 -1.30731e-15 -1.27944e-16)
(0.929161 -8.09181e-16 -5.5549e-17)
(0.932338 -1.29836e-15 -1.278e-16)
(0.932338 -8.10935e-16 -5.79345e-17)
(0.935505 -1.28729e-15 -1.23672e-16)
(0.935505 -8.18406e-16 -6.16923e-17)
(0.93866 -1.2748e-15 -1.19808e-16)
(0.93866 -8.27434e-16 -6.24075e-17)
(0.941806 -1.25389e-15 -1.15583e-16)
(0.941806 -8.32155e-16 -6.32092e-17)
(0.944941 -1.24256e-15 -1.12625e-16)
(0.944941 -8.31615e-16 -6.45809e-17)
(0.948066 -1.23394e-15 -1.06808e-16)
(0.948066 -8.24594e-16 -6.56655e-17)
(0.95118 -1.21822e-15 -1.05429e-16)
(0.95118 -8.21627e-16 -6.57823e-17)
(0.954285 -1.20373e-15 -1.01389e-16)
(0.954285 -8.2331e-16 -6.34807e-17)
(0.957379 -1.18291e-15 -9.90593e-17)
(0.957379 -8.21913e-16 -6.15354e-17)
(0.960463 -1.17094e-15 -9.68431e-17)
(0.960463 -8.20046e-16 -5.99485e-17)
(0.963536 -1.1655e-15 -9.45263e-17)
(0.963536 -8.30006e-16 -5.52758e-17)
(0.9666 -1.14076e-15 -9.0175e-17)
(0.9666 -8.31145e-16 -5.62311e-17)
(0.969653 -1.10943e-15 -8.73348e-17)
(0.969653 -8.37364e-16 -5.76759e-17)
(0.972696 -1.08731e-15 -8.50776e-17)
(0.972696 -8.47658e-16 -5.97712e-17)
(0.975728 -1.0671e-15 -8.38046e-17)
(0.975728 -8.45095e-16 -5.71269e-17)
(0.978751 -1.05127e-15 -8.07808e-17)
(0.978751 -8.50539e-16 -5.36536e-17)
(0.981763 -1.04018e-15 -7.78244e-17)
(0.981763 -8.36633e-16 -5.357e-17)
(0.984764 -1.03089e-15 -7.14014e-17)
(0.984764 -8.43187e-16 -6.10956e-17)
(0.987754 -1.02827e-15 -7.13525e-17)
(0.987754 -8.53983e-16 -6.27162e-17)
(0.990734 -1.02189e-15 -6.9371e-17)
(0.990734 -8.75191e-16 -7.40222e-17)
(0.993703 -1.00211e-15 -7.32767e-17)
(0.993703 -8.98442e-16 -7.75761e-17)
(0.996662 -9.91354e-16 -8.14563e-17)
(0.996662 -8.92493e-16 -8.73554e-17)
(0.999609 -9.90759e-16 -8.89977e-17)
(0.999609 -9.12053e-16 -9.2239e-17)
(1.00254 -9.86582e-16 -9.6221e-17)
(1.00254 -9.23147e-16 -9.70028e-17)
(1.00547 -9.76865e-16 -1.03469e-16)
(1.00547 -9.23632e-16 -9.84073e-17)
(1.00838 -9.69627e-16 -1.15235e-16)
(1.00838 -9.29578e-16 -9.90132e-17)
(1.01128 -9.54563e-16 -1.28587e-16)
(1.01128 -9.35742e-16 -9.67171e-17)
(1.01417 -9.40861e-16 -1.37058e-16)
(1.01417 -9.25939e-16 -9.72611e-17)
(1.01705 -9.5414e-16 -1.44097e-16)
(1.01705 -9.23937e-16 -9.51517e-17)
(1.01991 -9.6132e-16 -1.42384e-16)
(1.01991 -9.26599e-16 -1.05809e-16)
(1.02276 -9.42834e-16 -1.30339e-16)
(1.02276 -8.98941e-16 -1.20326e-16)
(1.0256 -9.23138e-16 -1.17328e-16)
(1.0256 -8.99499e-16 -1.35616e-16)
(1.02842 -9.11685e-16 -1.17847e-16)
(1.02842 -8.95769e-16 -1.38773e-16)
(1.03123 -9.16849e-16 -1.18142e-16)
(1.03123 -8.63322e-16 -1.25481e-16)
(1.03402 -8.76786e-16 -1.11525e-16)
(1.03402 -8.51431e-16 -1.30701e-16)
(1.0368 -8.63917e-16 -1.20815e-16)
(1.0368 -8.57578e-16 -1.23545e-16)
(1.03957 -8.46809e-16 -1.29482e-16)
(1.03957 -8.2437e-16 -1.11997e-16)
(1.04232 -8.17169e-16 -1.36985e-16)
(1.04232 -8.11773e-16 -9.92315e-17)
(1.04505 -8.05234e-16 -1.45644e-16)
(1.04505 -8.23939e-16 -9.72653e-17)
(1.04777 -7.96874e-16 -1.56066e-16)
(1.04777 -7.77389e-16 -1.08331e-16)
(1.05046 -7.80048e-16 -1.53311e-16)
(1.05046 -7.59517e-16 -1.16631e-16)
(1.05314 -7.65153e-16 -1.55146e-16)
(1.05314 -7.62711e-16 -1.15567e-16)
(1.05581 -7.41034e-16 -1.46732e-16)
(1.05581 -7.36832e-16 -1.07529e-16)
(1.05845 -7.2641e-16 -1.4463e-16)
(1.05845 -7.20122e-16 -8.92905e-17)
(1.06107 -7.43345e-16 -1.30137e-16)
(1.06107 -7.23319e-16 -8.15036e-17)
(1.06367 -7.06546e-16 -1.17787e-16)
(1.06367 -7.18259e-16 -7.73522e-17)
(1.06625 -7.13435e-16 -1.23301e-16)
(1.06625 -7.43736e-16 -9.7629e-17)
(1.06881 -7.24541e-16 -1.42152e-16)
(1.06881 -7.54855e-16 -9.68026e-17)
(1.07134 -7.29426e-16 -1.4347e-16)
(1.07134 -7.21892e-16 -8.6016e-17)
(1.07385 -7.20083e-16 -1.40016e-16)
(1.07385 -6.98863e-16 -7.17488e-17)
(1.07633 -7.07061e-16 -1.54215e-16)
(1.07633 -6.69939e-16 -9.34312e-17)
(1.07878 -7.20079e-16 -1.88103e-16)
(1.07878 -6.71888e-16 -1.18932e-16)
(1.08121 -7.23965e-16 -1.64289e-16)
(1.08121 -6.93123e-16 -1.38802e-16)
(1.0836 -6.90128e-16 -1.61389e-16)
(1.0836 -6.9266e-16 -1.56919e-16)
(1.08597 -6.7861e-16 -1.43519e-16)
(1.08597 -6.80408e-16 -1.61617e-16)
(1.0883 -6.77581e-16 -1.27794e-16)
(1.0883 -6.66627e-16 -1.53145e-16)
(1.0906 -6.56095e-16 -1.12153e-16)
(1.0906 -6.73037e-16 -1.36982e-16)
(1.09286 -6.37839e-16 -1.26143e-16)
(1.09286 -6.88589e-16 -1.23562e-16)
(1.09508 -6.38705e-16 -1.28185e-16)
(1.09508 -6.6265e-16 -1.17131e-16)
(1.09726 -6.3274e-16 -1.34062e-16)
(1.09726 -6.16662e-16 -1.25207e-16)
(1.0994 -6.54256e-16 -1.36047e-16)
(1.0994 -6.4585e-16 -1.15274e-16)
(1.1015 -6.32767e-16 -1.18213e-16)
(1.1015 -6.59738e-16 -9.47683e-17)
(1.10354 -5.74032e-16 -1.34342e-16)
(1.10354 -5.94974e-16 -8.28383e-17)
(1.10554 -5.82025e-16 -1.63071e-16)
(1.10554 -5.76281e-16 -9.08542e-17)
(1.10748 -5.6517e-16 -1.56318e-16)
(1.10748 -6.06702e-16 -9.71759e-17)
(1.10936 -5.19855e-16 -1.83781e-16)
(1.10936 -6.292e-16 -9.50452e-17)
(1.11118 -5.46717e-16 -1.71638e-16)
(1.11118 -6.3786e-16 -8.88726e-17)
(1.11294 -5.53757e-16 -2.04766e-16)
(1.11294 -6.59373e-16 -8.58502e-17)
(1.11463 -6.09149e-16 -1.9705e-16)
(1.11463 -6.7413e-16 -8.47317e-17)
(1.11624 -6.46142e-16 -1.37082e-16)
(1.11624 -6.33761e-16 -1.92331e-17)
(1.11777 -6.66946e-16 -9.67391e-17)
(1.11777 -6.15623e-16 -2.81661e-17)
(1.11922 -6.61236e-16 -1.06324e-16)
(1.11922 -6.34686e-16 -5.66e-17)
(1.12058 -6.77628e-16 -8.30066e-17)
(1.12058 -6.05577e-16 -8.11287e-17)
(1.12183 -6.75347e-16 -4.61225e-17)
(1.12183 -5.79181e-16 -6.98253e-17)
(1.12299 -6.61918e-16 -1.26169e-17)
(1.12299 -5.8486e-16 -6.46424e-17)
(1.12403 -5.89913e-16 9.06076e-18)
(1.12403 -5.57423e-16 -6.60517e-17)
(1.12495 -4.9341e-16 -1.01604e-17)
(1.12495 -5.42222e-16 -4.23152e-17)
(1.12574 -4.78508e-16 -9.05015e-17)
(1.12574 -5.19864e-16 1.98598e-17)
(1.12639 -4.35832e-16 -1.70256e-16)
(1.12639 -4.56179e-16 1.20959e-18)
(1.12689 -4.59315e-16 -9.58528e-17)
(1.12689 -4.01968e-16 -5.13755e-17)
(1.12724 -4.03249e-16 -1.29798e-17)
(1.12724 -4.47192e-16 -8.29917e-18)
(1.12741 -3.70653e-16 -9.28324e-20)
(1.12741 -4.34609e-16 7.25682e-17)
(0.00220452 -2.86145e-19 6.46545e-18)
(0.00220452 -8.80466e-20 -1.83165e-18)
(0.00665387 -4.56849e-19 2.25448e-17)
(0.00665387 -8.13571e-20 -2.19745e-17)
(0.0111854 -1.46144e-18 2.33963e-17)
(0.0111854 -3.37288e-19 -2.28127e-17)
(0.0158006 -2.34147e-18 2.4279e-17)
(0.0158006 -5.57314e-19 -2.36895e-17)
(0.0205011 -3.25757e-18 2.51943e-17)
(0.0205011 -7.88651e-19 -2.46072e-17)
(0.0252883 -4.21564e-18 2.61435e-17)
(0.0252883 -1.02573e-18 -2.55681e-17)
(0.0301639 -5.21182e-18 2.71273e-17)
(0.0301639 -1.26482e-18 -2.65743e-17)
(0.0351294 -6.24978e-18 2.81474e-17)
(0.0351294 -1.51025e-18 -2.76289e-17)
(0.0401865 -7.3345e-18 2.92041e-17)
(0.0401865 -1.75285e-18 -2.87324e-17)
(0.0453369 -8.41321e-18 3.02996e-17)
(0.0453369 -2.03287e-18 -2.98889e-17)
(0.0505822 -9.47942e-18 3.14353e-17)
(0.0505822 -2.35633e-18 -3.1099e-17)
(0.0559242 -1.05794e-17 3.26129e-17)
(0.0559242 -2.69263e-18 -3.23651e-17)
(0.0613646 -1.175e-17 3.38342e-17)
(0.0613646 -3.05777e-18 -3.36908e-17)
(0.0669052 -1.29847e-17 3.51002e-17)
(0.0669052 -3.45187e-18 -3.50801e-17)
(0.0725477 -1.42494e-17 3.64115e-17)
(0.0725477 -3.88658e-18 -3.65335e-17)
(0.0782939 -1.5537e-17 3.77699e-17)
(0.0782939 -4.30652e-18 -3.80546e-17)
(0.0841457 -1.68414e-17 3.91757e-17)
(0.0841457 -4.76493e-18 -3.96455e-17)
(0.0901048 -1.82062e-17 4.06293e-17)
(0.0901048 -5.29541e-18 -4.13058e-17)
(0.0961731 -1.96581e-17 4.21341e-17)
(0.0961731 -5.83669e-18 -4.3043e-17)
(0.102352 -2.11519e-17 4.36896e-17)
(0.102352 -6.41378e-18 -4.48576e-17)
(0.108644 -2.26919e-17 4.52963e-17)
(0.108644 -6.923e-18 -4.67518e-17)
(0.11505 -2.42811e-17 4.69553e-17)
(0.11505 -7.45411e-18 -4.87275e-17)
(0.121573 -2.59513e-17 4.86695e-17)
(0.121573 -8.11205e-18 -5.07901e-17)
(0.128213 -2.77623e-17 5.04389e-17)
(0.128213 -8.71107e-18 -5.29467e-17)
(0.134971 -2.95036e-17 5.22586e-17)
(0.134971 -9.40351e-18 -5.51887e-17)
(0.141851 -3.1294e-17 5.41377e-17)
(0.141851 -1.02321e-17 -5.75188e-17)
(0.148851 -3.32534e-17 5.60705e-17)
(0.148851 -1.10034e-17 -5.9949e-17)
(0.155974 -3.52505e-17 5.80547e-17)
(0.155974 -1.19402e-17 -6.24673e-17)
(0.16322 -3.73043e-17 6.00891e-17)
(0.16322 -1.29245e-17 -6.50776e-17)
(0.170589 -3.942e-17 6.2172e-17)
(0.170589 -1.38798e-17 -6.77783e-17)
(0.178081 -4.15728e-17 6.42953e-17)
(0.178081 -1.49454e-17 -7.05664e-17)
(0.185696 -4.37581e-17 6.6459e-17)
(0.185696 -1.60163e-17 -7.34423e-17)
(0.193432 -4.60389e-17 6.8659e-17)
(0.193432 -1.72019e-17 -7.64004e-17)
(0.201287 -4.83501e-17 7.08885e-17)
(0.201287 -1.85727e-17 -7.94374e-17)
(0.20926 -5.07979e-17 7.31487e-17)
(0.20926 -1.97448e-17 -8.25499e-17)
(0.217347 -5.32182e-17 7.54246e-17)
(0.217347 -2.11205e-17 -8.57218e-17)
(0.225545 -5.54774e-17 7.77158e-17)
(0.225545 -2.27273e-17 -8.89447e-17)
(0.233848 -5.80885e-17 8.00122e-17)
(0.233848 -2.40236e-17 -9.22244e-17)
(0.242251 -6.09782e-17 8.22819e-17)
(0.242251 -2.55525e-17 -9.55449e-17)
(0.250748 -6.38276e-17 8.45121e-17)
(0.250748 -2.69954e-17 -9.88676e-17)
(0.25933 -6.68132e-17 8.66883e-17)
(0.25933 -2.8323e-17 -1.02188e-16)
(0.26799 -6.98178e-17 8.8802e-17)
(0.26799 -3.06274e-17 -1.05499e-16)
(0.276718 -7.26481e-17 9.08474e-17)
(0.276718 -3.28205e-17 -1.08794e-16)
(0.285504 -7.57684e-17 9.2801e-17)
(0.285504 -3.46659e-17 -1.12023e-16)
(0.294338 -7.9214e-17 9.4643e-17)
(0.294338 -3.64016e-17 -1.15173e-16)
(0.303207 -8.2573e-17 9.6367e-17)
(0.303207 -3.83332e-17 -1.18251e-16)
(0.312101 -8.61436e-17 9.79534e-17)
(0.312101 -4.09555e-17 -1.21234e-16)
(0.321007 -8.96059e-17 9.93972e-17)
(0.321007 -4.2912e-17 -1.24085e-16)
(0.329913 -9.28102e-17 1.00697e-16)
(0.329913 -4.46414e-17 -1.26833e-16)
(0.338807 -9.63509e-17 1.01852e-16)
(0.338807 -4.71413e-17 -1.29505e-16)
(0.347678 -1.00216e-16 1.02847e-16)
(0.347678 -4.9846e-17 -1.32024e-16)
(0.356513 -1.03754e-16 1.03689e-16)
(0.356513 -5.17976e-17 -1.34417e-16)
(0.365302 -1.07326e-16 1.04378e-16)
(0.365302 -5.45318e-17 -1.36685e-16)
(0.374035 -1.11273e-16 1.04925e-16)
(0.374035 -5.75743e-17 -1.38791e-16)
(0.382702 -1.14928e-16 1.05333e-16)
(0.382702 -5.9546e-17 -1.40766e-16)
(0.391296 -1.18573e-16 1.05606e-16)
(0.391296 -6.18609e-17 -1.42617e-16)
(0.399807 -1.22146e-16 1.05738e-16)
(0.399807 -6.44399e-17 -1.44306e-16)
(0.40823 -1.25281e-16 1.05759e-16)
(0.40823 -6.74244e-17 -1.45902e-16)
(0.416559 -1.2861e-16 1.05664e-16)
(0.416559 -7.06514e-17 -1.47403e-16)
(0.424788 -1.3261e-16 1.05436e-16)
(0.424788 -7.39846e-17 -1.48735e-16)
(0.432914 -1.36478e-16 1.05075e-16)
(0.432914 -7.71952e-17 -1.4994e-16)
(0.440933 -1.40233e-16 1.04594e-16)
(0.440933 -8.01733e-17 -1.50984e-16)
(0.448842 -1.44199e-16 1.04008e-16)
(0.448842 -8.32362e-17 -1.51954e-16)
(0.456641 -1.48231e-16 1.03288e-16)
(0.456641 -8.57567e-17 -1.52879e-16)
(0.464328 -1.52134e-16 1.0244e-16)
(0.464328 -8.88623e-17 -1.53633e-16)
(0.471901 -1.55929e-16 1.01509e-16)
(0.471901 -9.16319e-17 -1.54334e-16)
(0.479362 -1.59637e-16 1.0044e-16)
(0.479362 -9.42265e-17 -1.54913e-16)
(0.48671 -1.63285e-16 9.92776e-17)
(0.48671 -9.75225e-17 -1.55448e-16)
(0.493947 -1.67857e-16 9.8006e-17)
(0.493947 -1.00331e-16 -1.55873e-16)
(0.501073 -1.72194e-16 9.65778e-17)
(0.501073 -1.02921e-16 -1.56108e-16)
(0.508089 -1.75133e-16 9.51741e-17)
(0.508089 -1.06002e-16 -1.5626e-16)
(0.514998 -1.78055e-16 9.3768e-17)
(0.514998 -1.09914e-16 -1.56353e-16)
(0.521801 -1.81878e-16 9.23489e-17)
(0.521801 -1.13088e-16 -1.56444e-16)
(0.528499 -1.86354e-16 9.08974e-17)
(0.528499 -1.16546e-16 -1.56545e-16)
(0.535097 -1.90544e-16 8.93727e-17)
(0.535097 -1.20165e-16 -1.56449e-16)
(0.541594 -1.9419e-16 8.79184e-17)
(0.541594 -1.23514e-16 -1.56113e-16)
(0.547994 -1.97249e-16 8.65442e-17)
(0.547994 -1.25444e-16 -1.55737e-16)
(0.554299 -2.00791e-16 8.52851e-17)
(0.554299 -1.2939e-16 -1.55551e-16)
(0.560512 -2.04379e-16 8.39752e-17)
(0.560512 -1.34263e-16 -1.55342e-16)
(0.566634 -2.0777e-16 8.26358e-17)
(0.566634 -1.36047e-16 -1.54858e-16)
(0.572668 -2.10875e-16 8.13023e-17)
(0.572668 -1.39771e-16 -1.54097e-16)
(0.578617 -2.13065e-16 8.00344e-17)
(0.578617 -1.43554e-16 -1.53406e-16)
(0.584482 -2.15706e-16 7.87682e-17)
(0.584482 -1.46945e-16 -1.52895e-16)
(0.590267 -2.18357e-16 7.74819e-17)
(0.590267 -1.51335e-16 -1.52138e-16)
(0.595972 -2.21361e-16 7.61663e-17)
(0.595972 -1.54489e-16 -1.51093e-16)
(0.601602 -2.25046e-16 7.48356e-17)
(0.601602 -1.56123e-16 -1.49946e-16)
(0.607157 -2.26239e-16 7.34752e-17)
(0.607157 -1.60141e-16 -1.48881e-16)
(0.61264 -2.27471e-16 7.21494e-17)
(0.61264 -1.6261e-16 -1.47588e-16)
(0.618053 -2.29742e-16 7.07537e-17)
(0.618053 -1.6388e-16 -1.46135e-16)
(0.623398 -2.32476e-16 6.93993e-17)
(0.623398 -1.67336e-16 -1.44768e-16)
(0.628678 -2.37372e-16 6.78986e-17)
(0.628678 -1.70691e-16 -1.43134e-16)
(0.633893 -2.41608e-16 6.62828e-17)
(0.633893 -1.732e-16 -1.41323e-16)
(0.639046 -2.48081e-16 6.45901e-17)
(0.639046 -1.77556e-16 -1.39663e-16)
(0.644139 -2.54239e-16 6.25266e-17)
(0.644139 -1.83615e-16 -1.37756e-16)
(0.649173 -2.55625e-16 6.04033e-17)
(0.649173 -1.86537e-16 -1.35479e-16)
(0.65415 -2.56829e-16 5.84473e-17)
(0.65415 -1.8785e-16 -1.33487e-16)
(0.659072 -2.58991e-16 5.6441e-17)
(0.659072 -1.92359e-16 -1.31446e-16)
(0.663941 -2.5959e-16 5.44164e-17)
(0.663941 -1.96737e-16 -1.29239e-16)
(0.668757 -2.59059e-16 5.26155e-17)
(0.668757 -1.98261e-16 -1.26169e-16)
(0.673523 -2.58511e-16 5.07733e-17)
(0.673523 -2.03243e-16 -1.20145e-16)
(0.67824 -2.60214e-16 4.92799e-17)
(0.67824 -2.06553e-16 -1.14589e-16)
(0.68291 -2.62141e-16 4.78148e-17)
(0.68291 -2.09919e-16 -1.09042e-16)
(0.687533 -2.62161e-16 4.66422e-17)
(0.687533 -2.17068e-16 -1.03726e-16)
(0.692111 -2.61642e-16 4.52657e-17)
(0.692111 -2.20022e-16 -9.80725e-17)
(0.696645 -2.62128e-16 4.42079e-17)
(0.696645 -2.22018e-16 -9.25409e-17)
(0.701137 -2.6315e-16 4.301e-17)
(0.701137 -2.28709e-16 -8.69523e-17)
(0.705588 -2.63566e-16 4.19483e-17)
(0.705588 -2.32188e-16 -8.15132e-17)
(0.709999 -2.65294e-16 4.07828e-17)
(0.709999 -2.31909e-16 -7.60237e-17)
(0.714371 -2.6906e-16 3.95953e-17)
(0.714371 -2.31333e-16 -7.06979e-17)
(0.718705 -2.73685e-16 3.82934e-17)
(0.718705 -2.30623e-16 -6.5613e-17)
(0.723002 -2.74326e-16 3.67625e-17)
(0.723002 -2.28959e-16 -6.05931e-17)
(0.727263 -2.73763e-16 3.5658e-17)
(0.727263 -2.26424e-16 -5.55723e-17)
(0.73149 -2.72542e-16 3.45393e-17)
(0.73149 -2.27057e-16 -5.0815e-17)
(0.735683 -2.71773e-16 3.37752e-17)
(0.735683 -2.27923e-16 -4.62629e-17)
(0.739842 -2.76546e-16 3.30536e-17)
(0.739842 -2.26398e-16 -4.19542e-17)
(0.74397 -2.78184e-16 3.17218e-17)
(0.74397 -2.25624e-16 -3.7627e-17)
(0.748067 -2.75983e-16 3.08572e-17)
(0.748067 -2.24841e-16 -3.36334e-17)
(0.752133 -2.8004e-16 3.00992e-17)
(0.752133 -2.29449e-16 -3.00366e-17)
(0.756169 -2.87172e-16 2.90442e-17)
(0.756169 -2.33958e-16 -2.6905e-17)
(0.760177 -2.89684e-16 2.76563e-17)
(0.760177 -2.36269e-16 -2.44363e-17)
(0.764157 -2.86648e-16 2.65406e-17)
(0.764157 -2.37845e-16 -2.22918e-17)
(0.768109 -2.85742e-16 2.6533e-17)
(0.768109 -2.36169e-16 -2.0483e-17)
(0.772035 -2.89427e-16 2.60873e-17)
(0.772035 -2.34082e-16 -1.9139e-17)
(0.775934 -2.96424e-16 2.51033e-17)
(0.775934 -2.32353e-16 -1.74249e-17)
(0.779809 -3.00631e-16 2.35899e-17)
(0.779809 -2.27772e-16 -1.56349e-17)
(0.783659 -2.98568e-16 2.21183e-17)
(0.783659 -2.25605e-16 -1.38378e-17)
(0.787485 -2.98006e-16 2.06425e-17)
(0.787485 -2.29212e-16 -1.21083e-17)
(0.791287 -2.988e-16 1.91118e-17)
(0.791287 -2.29348e-16 -1.05661e-17)
(0.795067 -2.97596e-16 1.79832e-17)
(0.795067 -2.29294e-16 -9.21079e-18)
(0.798824 -2.94114e-16 1.68339e-17)
(0.798824 -2.29031e-16 -8.08343e-18)
(0.80256 -2.90466e-16 1.51214e-17)
(0.80256 -2.31823e-16 -6.65251e-18)
(0.806274 -2.92336e-16 1.49713e-17)
(0.806274 -2.3474e-16 -6.60606e-18)
(0.809968 -2.95527e-16 1.4809e-17)
(0.809968 -2.35858e-16 -7.831e-18)
(0.813642 -2.95941e-16 1.54305e-17)
(0.813642 -2.40918e-16 -1.01613e-17)
(0.817296 -3.01284e-16 1.67422e-17)
(0.817296 -2.4191e-16 -1.30946e-17)
(0.82093 -3.10267e-16 1.75312e-17)
(0.82093 -2.36216e-16 -1.62906e-17)
(0.824546 -3.13474e-16 1.7732e-17)
(0.824546 -2.34896e-16 -1.81836e-17)
(0.828144 -3.08218e-16 1.86352e-17)
(0.828144 -2.37799e-16 -1.99478e-17)
(0.831723 -3.06896e-16 2.00902e-17)
(0.831723 -2.38866e-16 -2.31939e-17)
(0.835285 -3.12867e-16 1.96356e-17)
(0.835285 -2.43329e-16 -2.39734e-17)
(0.83883 -3.14143e-16 1.85071e-17)
(0.83883 -2.43802e-16 -2.18239e-17)
(0.842358 -3.12684e-16 1.7693e-17)
(0.842358 -2.42406e-16 -2.17361e-17)
(0.845869 -3.0981e-16 1.56496e-17)
(0.845869 -2.49076e-16 -2.26509e-17)
(0.849365 -3.04532e-16 1.40888e-17)
(0.849365 -2.54652e-16 -2.29061e-17)
(0.852844 -3.00844e-16 1.24982e-17)
(0.852844 -2.58248e-16 -2.20992e-17)
(0.856309 -2.99723e-16 1.06206e-17)
(0.856309 -2.62599e-16 -2.12002e-17)
(0.859758 -3.0412e-16 8.59148e-18)
(0.859758 -2.66763e-16 -1.9454e-17)
(0.863193 -3.07661e-16 6.43037e-18)
(0.863193 -2.71667e-16 -1.67162e-17)
(0.866613 -3.07839e-16 4.46669e-18)
(0.866613 -2.72604e-16 -1.46745e-17)