/*--------------------------------*- C++ -*----------------------------------*\
| =========                 |                                                 |
| \\      /  F ield         | OpenFOAM: The Open Source CFD Toolbox           |
|  \\    /   O peration     | Version:  2106                                  |
|   \\  /    A nd           | Website:  www.openfoam.com                      |
|    \\/     M anipulation  |                                                 |
\*---------------------------------------------------------------------------*/
FoamFile
{
    version     2.0;
    format      ascii;
    arch        "LSB;label=32;scalar=64";
    class       volVectorField;
    location    "10090";
    object      grad(T);
}
// * * * * * * * * * * * * * * * * * * * * * * * * * * * * * * * * * * * * * //

dimensions      [0 -1 0 1 0 0 0];

internalField   nonuniform List<vector> 
2000
(
(0 874.932 1.61918)
(0 874.932 1.61918)
(0 874.93 4.88777)
(0 874.93 4.88777)
(-1.98997e-16 874.925 6.78343)
(0 874.925 6.78343)
(-6.52135e-16 874.915 6.90994)
(2.60854e-15 874.915 6.90994)
(0 874.891 7.03866)
(0 874.891 7.03866)
(0 874.838 7.16944)
(-6.336e-15 874.838 7.16944)
(3.277e-15 874.722 7.30196)
(8.25236e-15 874.722 7.30196)
(0 874.491 7.43567)
(2.04097e-14 874.491 7.43567)
(-3.04857e-15 874.061 7.56967)
(0 874.061 7.56967)
(0 873.31 7.7026)
(6.20026e-15 873.31 7.7026)
(6.08665e-15 872.068 7.83257)
(6.08665e-15 872.068 7.83257)
(4.59803e-15 870.111 7.95701)
(1.2417e-14 870.111 7.95701)
(0 867.162 8.07271)
(0 867.162 8.07271)
(-1.14381e-14 862.897 8.17579)
(0 862.897 8.17579)
(-6.23531e-15 856.96 8.26195)
(0 856.96 8.26195)
(1.78977e-14 848.991 8.32671)
(-2.71984e-14 848.991 8.32671)
(0 838.664 8.36584)
(0 838.664 8.36584)
(1.59021e-14 825.731 8.37581)
(3.18043e-14 825.731 8.37581)
(-8.53525e-15 810.055 8.3543)
(-1.04991e-14 810.055 8.3543)
(9.12242e-15 791.641 8.3004)
(3.64897e-14 791.641 8.3004)
(-9.71025e-15 770.642 8.21486)
(7.7682e-14 770.642 8.21486)
(0 747.348 8.09988)
(2.13201e-14 747.348 8.09988)
(1.95008e-14 722.155 7.9589)
(4.35113e-14 722.155 7.9589)
(1.91435e-14 695.524 7.79616)
(2.66672e-14 695.524 7.79616)
(-1.20186e-14 667.939 7.61629)
(0 667.939 7.61629)
(0 639.868 7.42389)
(5.02952e-14 639.868 7.42389)
(-3.1227e-14 611.734 7.22328)
(1.81102e-14 611.734 7.22328)
(-1.36464e-14 583.899 7.0183)
(0 583.899 7.0183)
(0 556.655 6.81217)
(0 556.655 6.81217)
(-3.17959e-14 530.226 6.60752)
(-5.86525e-14 530.226 6.60752)
(1.51495e-14 504.774 6.40643)
(4.37792e-14 504.774 6.40643)
(1.65106e-14 480.404 6.21042)
(-1.65106e-14 480.404 6.21042)
(-1.60785e-14 457.179 6.0206)
(0 457.179 6.0206)
(-1.65217e-14 435.125 5.83771)
(0 435.125 5.83771)
(0 414.241 5.66221)
(6.78044e-14 414.241 5.66221)
(0 394.506 5.49432)
(0 394.506 5.49432)
(1.77708e-14 375.886 5.33408)
(7.10831e-14 375.886 5.33408)
(-1.81621e-14 358.335 5.18144)
(7.26484e-14 358.335 5.18144)
(-1.85418e-14 341.803 5.03621)
(0 341.803 5.03621)
(0 326.237 4.89817)
(7.56416e-14 326.237 4.89817)
(-3.85369e-14 311.58 4.76703)
(7.70739e-14 311.58 4.76703)
(0 297.779 4.64251)
(0 297.779 4.64251)
(2.69426e-14 284.779 4.52427)
(0 284.779 4.52427)
(-2.02846e-14 272.53 4.41201)
(-8.11384e-14 272.53 4.41201)
(2.06055e-14 260.983 4.3054)
(8.24221e-14 260.983 4.3054)
(2.09183e-14 250.09 4.20413)
(-8.36733e-14 250.09 4.20413)
(3.79798e-15 239.809 4.1079)
(8.48936e-14 239.809 4.1079)
(0 230.097 4.01642)
(1.72169e-13 230.097 4.01642)
(2.18119e-14 220.918 3.92942)
(8.72477e-14 220.918 3.92942)
(2.52458e-14 212.235 3.84663)
(-1.35726e-13 212.235 3.84663)
(4.64743e-14 204.015 3.76781)
(0 204.015 3.76781)
(-2.26458e-14 196.228 3.69272)
(-2.28113e-14 196.228 3.69272)
(0 188.845 3.62115)
(0 188.845 3.62115)
(0 181.84 3.5529)
(-9.26907e-14 181.84 3.5529)
(1.84811e-15 175.188 3.48776)
(-2.15801e-14 175.188 3.48776)
(-2.36789e-14 168.867 3.42557)
(0 168.867 3.42557)
(-2.70532e-14 162.856 3.36614)
(9.56994e-14 162.856 3.36614)
(-2.41663e-14 157.135 3.30933)
(0 157.135 3.30933)
(-8.72434e-15 151.687 3.25499)
(-1.37696e-13 151.687 3.25499)
(2.46366e-14 146.495 3.20298)
(-9.85462e-14 146.495 3.20298)
(-3.86271e-14 141.543 3.15318)
(-3.86271e-14 141.543 3.15318)
(-5.01823e-14 136.817 3.10545)
(2.00729e-13 136.817 3.10545)
(-2.5313e-14 132.303 3.0597)
(1.01252e-13 132.303 3.0597)
(0 127.99 3.01581)
(3.65423e-14 127.99 3.01581)
(-6.16191e-14 123.866 2.9737)
(1.02986e-13 123.866 2.9737)
(0 119.92 2.93325)
(0 119.92 2.93325)
(8.40261e-15 116.142 2.8944)
(-3.457e-14 116.142 2.8944)
(3.39365e-14 112.523 2.85705)
(-3.39365e-14 112.523 2.85705)
(0 109.054 2.82114)
(1.06306e-13 109.054 2.82114)
(0 105.727 2.78659)
(0 105.727 2.78659)
(-2.69751e-14 102.534 2.75334)
(1.07901e-13 102.534 2.75334)
(0 99.4692 2.72132)
(1.08683e-13 99.4692 2.72132)
(-2.73637e-14 96.525 2.69047)
(-1.09455e-13 96.525 2.69047)
(3.0372e-14 93.6955 2.66075)
(-1.10218e-13 93.6955 2.66075)
(-5.54863e-14 90.9748 2.63208)
(1.10973e-13 90.9748 2.63208)
(-5.58593e-14 88.3576 2.60444)
(0 88.3576 2.60444)
(-5.74656e-14 85.8387 2.57777)
(1.69922e-13 85.8387 2.57777)
(-5.65028e-14 83.4133 2.55203)
(-1.13186e-13 83.4133 2.55203)
(7.87638e-16 81.077 2.52717)
(2.76894e-14 81.077 2.52717)
(2.86557e-14 78.8254 2.50316)
(-1.14623e-13 78.8254 2.50316)
(-5.76653e-14 76.6547 2.47996)
(-5.33678e-14 76.6547 2.47996)
(0 74.561 2.45754)
(0 74.561 2.45754)
(5.48963e-14 72.5409 2.43586)
(-2.59166e-13 72.5409 2.43586)
(2.93533e-14 70.5909 2.41489)
(0 70.5909 2.41489)
(0 68.708 2.39461)
(1.18095e-13 68.708 2.39461)
(7.83465e-14 66.8892 2.37498)
(1.1877e-13 66.8892 2.37498)
(-1.19576e-14 65.1317 2.35598)
(0 65.1317 2.35598)
(-6.0052e-14 63.4327 2.33759)
(1.20104e-13 63.4327 2.33759)
(3.01907e-14 61.7899 2.31977)
(2.41526e-13 61.7899 2.31977)
(-3.03541e-14 60.2007 2.30252)
(0 60.2007 2.30252)
(-6.10323e-14 58.6631 2.28579)
(1.22065e-13 58.6631 2.28579)
(-3.0677e-14 57.1748 2.26959)
(1.22708e-13 57.1748 2.26959)
(0 55.7337 2.25388)
(-4.27458e-14 55.7337 2.25388)
(3.09952e-14 54.3381 2.23864)
(1.23981e-13 54.3381 2.23864)
(3.11526e-14 52.986 2.22387)
(1.2461e-13 52.986 2.22387)
(-3.13089e-14 51.6758 2.20954)
(1.25235e-13 51.6758 2.20954)
(3.14641e-14 50.4057 2.19563)
(0 50.4057 2.19563)
(-3.16183e-14 49.1743 2.18214)
(8.75031e-14 49.1743 2.18214)
(3.17716e-14 47.9799 2.16904)
(0 47.9799 2.16904)
(-3.19238e-14 46.8213 2.15633)
(1.27695e-13 46.8213 2.15633)
(3.20752e-14 45.697 2.14398)
(1.28301e-13 45.697 2.14398)
(0 44.6058 2.132)
(1.28902e-13 44.6058 2.132)
(0 43.5464 2.12035)
(-1.65029e-13 43.5464 2.12035)
(0 42.5176 2.10904)
(1.30095e-13 42.5176 2.10904)
(-3.26717e-14 41.5184 2.09805)
(6.84759e-14 41.5184 2.09805)
(-3.28188e-14 40.5477 2.08738)
(1.31275e-13 40.5477 2.08738)
(0 39.6044 2.077)
(0 39.6044 2.077)
(0 38.6876 2.06691)
(-3.23901e-14 38.6876 2.06691)
(3.32554e-14 37.7963 2.05711)
(1.33022e-13 37.7963 2.05711)
(-2.90283e-14 36.9297 2.04758)
(1.33598e-13 36.9297 2.04758)
(0 36.0869 2.03831)
(1.34171e-13 36.0869 2.03831)
(-6.7371e-14 35.2671 2.02929)
(1.34742e-13 35.2671 2.02929)
(3.38275e-14 34.4695 2.02052)
(1.3531e-13 34.4695 2.02052)
(0 33.6933 2.01199)
(-1.35876e-13 33.6933 2.01199)
(0 32.9378 2.0037)
(0 32.9378 2.0037)
(-6.84996e-14 32.2024 1.99562)
(0 32.2024 1.99562)
(-3.43894e-14 31.4864 1.98777)
(0 31.4864 1.98777)
(0 30.7891 1.98012)
(-1.38114e-13 30.7891 1.98012)
(6.93336e-14 30.11 1.97268)
(-5.28553e-14 30.11 1.97268)
(6.96094e-14 29.4484 1.96544)
(1.39219e-13 29.4484 1.96544)
(-3.49421e-14 28.8038 1.95838)
(1.39768e-13 28.8038 1.95838)
(7.01578e-14 28.1757 1.95152)
(0 28.1757 1.95152)
(8.43015e-14 27.5635 1.94483)
(1.40861e-13 27.5635 1.94483)
(1.28356e-14 26.9667 1.93832)
(-4.81867e-14 26.9667 1.93832)
(-4.73037e-14 26.3849 1.93197)
(3.31196e-13 26.3849 1.93197)
(-8.20583e-14 25.8176 1.92579)
(4.64369e-14 25.8176 1.92579)
(-4.5586e-14 25.2643 1.91977)
(2.86047e-13 25.2643 1.91977)
(8.86074e-15 24.7247 1.91391)
(-4.47506e-14 24.7247 1.91391)
(0 24.1983 1.90819)
(1.44094e-13 24.1983 1.90819)
(3.61567e-14 23.6847 1.90262)
(2.89253e-13 23.6847 1.90262)
(-3.62894e-14 23.1835 1.89718)
(1.45158e-13 23.1835 1.89718)
(-5.13772e-15 22.6944 1.89189)
(1.04128e-13 22.6944 1.89189)
(-7.31076e-14 22.217 1.88672)
(1.05417e-13 22.217 1.88672)
(-4.00503e-14 21.751 1.88168)
(2.93483e-13 21.751 1.88168)
(3.93164e-14 21.296 1.87676)
(1.0795e-13 21.296 1.87676)
(-3.69476e-14 20.8517 1.87197)
(0 20.8517 1.87197)
(7.49668e-14 20.4178 1.86728)
(-3.78887e-14 20.4178 1.86728)
(0 19.9941 1.86271)
(-3.71944e-14 19.9941 1.86271)
(-3.73382e-14 19.5801 1.85825)
(-3.65128e-14 19.5801 1.85825)
(-3.74677e-14 19.1757 1.85389)
(-1.85715e-13 19.1757 1.85389)
(-3.7597e-14 18.7806 1.84963)
(3.00776e-13 18.7806 1.84963)
(0 18.3945 1.84546)
(1.50904e-13 18.3945 1.84546)
(-3.94533e-15 18.0172 1.84139)
(1.17509e-13 18.0172 1.84139)
(0 17.6484 1.83741)
(1.18643e-13 17.6484 1.83741)
(-3.81109e-14 17.2879 1.83351)
(1.52443e-13 17.2879 1.83351)
(0 16.9354 1.82969)
(1.52954e-13 16.9354 1.82969)
(-3.83661e-14 16.5908 1.82595)
(0 16.5908 1.82595)
(-3.84933e-14 16.2538 1.82229)
(0 16.2538 1.82229)
(-3.86202e-14 15.9242 1.8187)
(0 15.9242 1.8187)
(3.87469e-14 15.6019 1.81518)
(-1.54988e-13 15.6019 1.81518)
(0 15.2866 1.81172)
(0 15.2866 1.81172)
(0 14.9781 1.80833)
(0 14.9781 1.80833)
(9.54926e-14 14.6763 1.80499)
(0 14.6763 1.80499)
(-9.45854e-14 14.3809 1.80171)
(2.12339e-13 14.3809 1.80171)
(-9.36969e-14 14.0919 1.79848)
(2.11827e-13 14.0919 1.79848)
(1.38229e-14 13.809 1.7953)
(-5.33248e-14 13.809 1.7953)
(0 13.5322 1.79216)
(1.58508e-13 13.5322 1.79216)
(-3.97517e-14 13.2611 1.78906)
(-2.10395e-13 13.2611 1.78906)
(-1.05705e-14 12.9957 1.786)
(2.09952e-13 12.9957 1.786)
(4.00006e-14 12.7359 1.78298)
(1.60002e-13 12.7359 1.78298)
(4.01247e-14 12.4814 1.77999)
(0 12.4814 1.77999)
(0 12.2322 1.77702)
(1.60995e-13 12.2322 1.77702)
(-8.72218e-14 11.9881 1.77408)
(4.68495e-14 11.9881 1.77408)
(0 11.749 1.77116)
(2.07974e-13 11.749 1.77116)
(-4.06192e-14 11.5147 1.76825)
(0 11.5147 1.76825)
(0 11.2852 1.76536)
(0 11.2852 1.76536)
(4.35087e-14 11.0603 1.76247)
(1.63461e-13 11.0603 1.76247)
(-4.27114e-14 10.8399 1.75959)
(2.06663e-13 10.8399 1.75959)
(-4.11104e-14 10.6238 1.75671)
(0 10.6238 1.75671)
(-4.12327e-14 10.412 1.75382)
(0 10.412 1.75382)
(-4.13548e-14 10.2044 1.75093)
(0 10.2044 1.75093)
(4.32876e-14 10.0009 1.74803)
(1.65907e-13 10.0009 1.74803)
(-8.58562e-14 9.80124 1.7451)
(1.66393e-13 9.80124 1.7451)
(-3.82253e-14 9.60548 1.74216)
(1.66879e-13 9.60548 1.74216)
(-4.18412e-14 9.41347 1.73919)
(-3.75249e-14 9.41347 1.73919)
(-7.87995e-14 9.22512 1.73619)
(0 9.22512 1.73619)
(3.61622e-14 9.04034 1.73315)
(-3.61622e-14 9.04034 1.73315)
(0 8.85903 1.73007)
(1.68815e-13 8.85903 1.73007)
(-4.23243e-14 8.68111 1.72694)
(-1.69297e-13 8.68111 1.72694)
(3.42104e-14 8.50648 1.72376)
(-3.42104e-14 8.50648 1.72376)
(-1.09732e-13 8.33508 1.72053)
(-3.40517e-13 8.33508 1.72053)
(-4.26845e-14 8.1668 1.71722)
(0 8.1668 1.71722)
(0 8.00158 1.71385)
(0 8.00158 1.71385)
(0 7.83933 1.7104)
(1.71694e-13 7.83933 1.7104)
(-8.60854e-14 7.67998 1.70686)
(3.44342e-13 7.67998 1.70686)
(0 7.52345 1.70324)
(1.72647e-13 7.52345 1.70324)
(-4.32803e-14 7.36966 1.69951)
(-6.01123e-14 7.36966 1.69951)
(0 7.21855 1.69568)
(-1.14584e-13 7.21855 1.69568)
(-4.3517e-14 7.07003 1.69173)
(-5.79294e-14 7.07003 1.69173)
(0 6.92405 1.68766)
(1.7454e-13 6.92405 1.68766)
(0 6.78053 1.68346)
(1.75011e-13 6.78053 1.68346)
(4.38701e-14 6.63941 1.67911)
(3.50961e-13 6.63941 1.67911)
(4.39872e-14 6.50062 1.67462)
(1.75949e-13 6.50062 1.67462)
(0 6.36409 1.66996)
(1.76416e-13 6.36409 1.66996)
(4.42206e-14 6.22975 1.66514)
(1.76882e-13 6.22975 1.66514)
(-9.52317e-14 6.09755 1.66012)
(4.0559e-13 6.09755 1.66012)
(-4.44528e-14 5.96743 1.65492)
(-1.77811e-13 5.96743 1.65492)
(0 5.83931 1.6495)
(0 5.83931 1.6495)
(-4.46836e-14 5.71314 1.64387)
(0 5.71314 1.64387)
(-8.95969e-14 5.58886 1.63799)
(-4.72657e-14 5.58886 1.63799)
(-4.4913e-14 5.4664 1.63187)
(1.79652e-13 5.4664 1.63187)
(9.10986e-14 5.34571 1.62549)
(-9.10986e-14 5.34571 1.62549)
(-4.51408e-14 5.22672 1.61882)
(0 5.22672 1.61882)
(0 5.10938 1.61185)
(-8.77904e-14 5.10938 1.61185)
(4.5367e-14 4.99363 1.60457)
(3.62936e-13 4.99363 1.60457)
(1.3326e-13 4.87941 1.59694)
(-2.24219e-13 4.87941 1.59694)
(8.13038e-15 4.76665 1.58896)
(8.30522e-14 4.76665 1.58896)
(9.14054e-14 4.6553 1.5806)
(3.65621e-13 4.6553 1.5806)
(4.58136e-14 4.5453 1.57183)
(1.03218e-13 4.5453 1.57183)
(4.59239e-14 4.43658 1.56263)
(1.83696e-13 4.43658 1.56263)
(-4.60337e-14 4.32909 1.55297)
(1.84135e-13 4.32909 1.55297)
(-4.61429e-14 4.22276 1.54283)
(0 4.22276 1.54283)
(7.4329e-14 4.11753 1.53217)
(1.85006e-13 4.11753 1.53217)
(-9.27185e-14 4.01333 1.52095)
(1.85437e-13 4.01333 1.52095)
(-4.64664e-14 3.9101 1.50915)
(0 3.9101 1.50915)
(0 3.80776 1.49673)
(4.429e-13 3.80776 1.49673)
(6.90287e-14 3.70626 1.48363)
(-6.90287e-14 3.70626 1.48363)
(4.67834e-14 3.60551 1.46983)
(-2.54897e-13 3.60551 1.46983)
(4.68874e-14 3.50545 1.45526)
(0 3.50545 1.45526)
(-2.86781e-14 3.40599 1.43988)
(0 3.40599 1.43988)
(9.41854e-14 3.30705 1.42362)
(-6.41064e-14 3.30705 1.42362)
(0 3.20855 1.40644)
(1.88776e-13 3.20855 1.40644)
(0 3.1104 1.38825)
(1.89176e-13 3.1104 1.38825)
(4.7393e-14 3.01251 1.36899)
(1.89572e-13 3.01251 1.36899)
(0 2.91477 1.34858)
(-2.49498e-13 2.91477 1.34858)
(-4.75874e-14 2.81708 1.32693)
(0 2.81708 1.32693)
(6.70635e-14 2.71932 1.30393)
(7.59845e-14 2.71932 1.30393)
(0 2.62139 1.2795)
(1.91106e-13 2.62139 1.2795)
(7.42075e-15 2.52314 1.25351)
(-1.91476e-13 2.52314 1.25351)
(4.79597e-14 2.42445 1.22584)
(3.29401e-13 2.42445 1.22584)
(0 2.32517 1.19634)
(1.92196e-13 2.32517 1.19634)
(4.16926e-15 2.22514 1.16488)
(-5.23055e-14 2.22514 1.16488)
(4.82218e-14 2.12419 1.13127)
(1.92887e-13 2.12419 1.13127)
(1.02913e-13 2.02215 1.09535)
(1.93221e-13 2.02215 1.09535)
(-4.83866e-14 1.91882 1.0569)
(1.93546e-13 1.91882 1.0569)
(0 1.814 1.01572)
(9.71514e-14 1.814 1.01572)
(1.43913e-13 1.70747 0.97156)
(0 1.70747 0.97156)
(-9.72325e-14 1.59902 0.924178)
(1.94465e-13 1.59902 0.924178)
(0 1.4884 0.8733)
(0 1.4884 0.8733)
(0 1.37538 0.818636)
(0 1.37538 0.818636)
(4.88206e-14 1.25973 0.759889)
(1.95282e-13 1.25973 0.759889)
(-4.88821e-14 1.14122 0.696747)
(1.95528e-13 1.14122 0.696747)
(-9.16169e-14 1.01964 0.628901)
(0 1.01964 0.628901)
(8.379e-14 0.894801 0.556044)
(-8.379e-14 0.894801 0.556044)
(0 0.766557 0.477887)
(-1.96172e-13 0.766557 0.477887)
(3.16595e-14 0.634815 0.394169)
(-8.07473e-14 0.634815 0.394169)
(-9.49376e-15 0.499545 0.304667)
(1.9651e-13 0.499545 0.304667)
(0 0.360791 0.209207)
(1.96648e-13 0.360791 0.209207)
(-4.91906e-14 0.218674 0.107671)
(0 0.218674 0.107671)
(-1.24202e-13 3.41001e-07 1.26214e-07)
(4.68803e-13 3.41264e-07 1.26311e-07)
(0 874.932 -1.61918)
(-2.28849e-16 874.932 -1.61918)
(-8.98622e-16 874.93 -4.88777)
(0 874.93 -4.88777)
(-3.97994e-16 874.925 -6.78343)
(0 874.925 -6.78343)
(6.52135e-16 874.915 -6.90994)
(-1.73198e-15 874.915 -6.90994)
(-2.22749e-15 874.891 -7.03866)
(0 874.891 -7.03866)
(1.584e-15 874.838 -7.16944)
(0 874.838 -7.16944)
(-3.277e-15 874.722 -7.30196)
(0 874.722 -7.30196)
(5.10242e-15 874.491 -7.43567)
(0 874.491 -7.43567)
(-3.04857e-15 874.061 -7.56967)
(1.21943e-14 874.061 -7.56967)
(3.55537e-15 873.31 -7.7026)
(-1.42215e-14 873.31 -7.7026)
(8.14362e-15 872.068 -7.83257)
(-2.23739e-14 872.068 -7.83257)
(4.59803e-15 870.111 -7.95701)
(0 870.111 -7.95701)
(-5.1341e-15 867.162 -8.07271)
(-2.05364e-14 867.162 -8.07271)
(1.72744e-14 862.897 -8.17579)
(-3.42361e-14 862.897 -8.17579)
(6.23531e-15 856.96 -8.26195)
(-2.49412e-14 856.96 -8.26195)
(-1.10981e-14 848.991 -8.32671)
(0 848.991 -8.32671)
(7.37196e-15 838.664 -8.36584)
(-4.03825e-14 838.664 -8.36584)
(7.95107e-15 825.731 -8.37581)
(3.18043e-14 825.731 -8.37581)
(8.53525e-15 810.055 -8.3543)
(0 810.055 -8.3543)
(1.82448e-14 791.641 -8.3004)
(0 791.641 -8.3004)
(9.71025e-15 770.642 -8.21486)
(2.87232e-14 770.642 -8.21486)
(1.02962e-14 747.348 -8.09988)
(2.13201e-14 747.348 -8.09988)
(-1.08778e-14 722.155 -7.9589)
(0 722.155 -7.9589)
(2.29054e-14 695.524 -7.79616)
(0 695.524 -7.79616)
(1.20186e-14 667.939 -7.61629)
(0 667.939 -7.61629)
(0 639.868 -7.42389)
(0 639.868 -7.42389)
(-1.81102e-14 611.734 -7.22328)
(-1.81102e-14 611.734 -7.22328)
(2.72929e-14 583.899 -7.0183)
(0 583.899 -7.0183)
(1.4162e-14 556.655 -6.81217)
(5.66481e-14 556.655 -6.81217)
(2.93262e-14 530.226 -6.60752)
(0 530.226 -6.60752)
(1.51495e-14 504.774 -6.40643)
(0 504.774 -6.40643)
(3.21319e-14 480.404 -6.21042)
(-1.65106e-14 480.404 -6.21042)
(1.60785e-14 457.179 -6.0206)
(-6.43141e-14 457.179 -6.0206)
(0 435.125 -5.83771)
(-6.60867e-14 435.125 -5.83771)
(1.56195e-14 414.241 -5.66221)
(0 414.241 -5.66221)
(1.73673e-14 394.506 -5.49432)
(-6.94692e-14 394.506 -5.49432)
(5.43696e-15 375.886 -5.33408)
(0 375.886 -5.33408)
(-1.81621e-14 358.335 -5.18144)
(-7.26484e-14 358.335 -5.18144)
(-1.85418e-14 341.803 -5.03621)
(-1.77346e-13 341.803 -5.03621)
(-1.89104e-14 326.237 -4.89817)
(0 326.237 -4.89817)
(-1.92685e-14 311.58 -4.76703)
(0 311.58 -4.76703)
(-1.96165e-14 297.779 -4.64251)
(-1.56932e-13 297.779 -4.64251)
(3.99102e-14 284.779 -4.52427)
(0 284.779 -4.52427)
(2.02846e-14 272.53 -4.41201)
(-8.11384e-14 272.53 -4.41201)
(6.71753e-14 260.983 -4.3054)
(5.64579e-14 260.983 -4.3054)
(4.64068e-14 250.09 -4.20413)
(-8.36733e-14 250.09 -4.20413)
(-4.24468e-14 239.809 -4.1079)
(-8.48936e-14 239.809 -4.1079)
(4.30423e-14 230.097 -4.01642)
(8.60846e-14 230.097 -4.01642)
(4.82256e-14 220.918 -3.92942)
(0 220.918 -3.92942)
(-2.20961e-14 212.235 -3.84663)
(-2.2411e-13 212.235 -3.84663)
(2.23739e-14 204.015 -3.76781)
(-8.94957e-14 204.015 -3.76781)
(2.26458e-14 196.228 -3.69272)
(0 196.228 -3.69272)
(0 188.845 -3.62115)
(-1.83296e-13 188.845 -3.62115)
(2.31727e-14 181.84 -3.5529)
(0 181.84 -3.5529)
(4.68565e-14 175.188 -3.48776)
(0 175.188 -3.48776)
(4.23694e-14 168.867 -3.42557)
(-1.37085e-13 168.867 -3.42557)
(3.12835e-15 162.856 -3.36614)
(0 162.856 -3.36614)
(2.41663e-14 157.135 -3.30933)
(-9.66652e-14 157.135 -3.30933)
(0 151.687 -3.25499)
(-9.76139e-14 151.687 -3.25499)
(0 146.495 -3.20298)
(-9.85462e-14 146.495 -3.20298)
(2.48657e-14 141.543 -3.15318)
(0 141.543 -3.15318)
(0 136.817 -3.10545)
(0 136.817 -3.10545)
(6.25373e-14 132.303 -3.0597)
(-3.72244e-14 132.303 -3.0597)
(6.20736e-14 127.99 -3.01581)
(-3.65423e-14 127.99 -3.01581)
(3.58726e-14 123.866 -2.9737)
(-1.38859e-13 123.866 -2.9737)
(0 119.92 -2.93325)
(0 119.92 -2.93325)
(6.07373e-14 116.142 -2.8944)
(-1.39239e-13 116.142 -2.8944)
(0 112.523 -2.85705)
(-1.05494e-13 112.523 -2.85705)
(0 109.054 -2.82114)
(0 109.054 -2.82114)
(-2.67772e-14 105.727 -2.78659)
(2.14217e-13 105.727 -2.78659)
(0 102.534 -2.75334)
(0 102.534 -2.75334)
(2.71706e-14 99.4692 -2.72132)
(-1.08683e-13 99.4692 -2.72132)
(2.73637e-14 96.525 -2.69047)
(-1.09455e-13 96.525 -2.69047)
(6.07441e-14 93.6955 -2.66075)
(-2.20436e-13 93.6955 -2.66075)
(-2.77432e-14 90.9748 -2.63208)
(-5.9631e-14 90.9748 -2.63208)
(0 88.3576 -2.60444)
(5.85383e-14 88.3576 -2.60444)
(-2.87328e-14 85.8387 -2.57777)
(1.41189e-13 85.8387 -2.57777)
(2.8116e-14 83.4133 -2.55203)
(-5.09156e-13 83.4133 -2.55203)
(5.69541e-14 81.077 -2.52717)
(-1.13908e-13 81.077 -2.52717)
(-2.86557e-14 78.8254 -2.50316)
(0 78.8254 -2.50316)
(-2.14874e-15 76.6547 -2.47996)
(-1.42014e-13 76.6547 -2.47996)
(-5.80156e-14 74.561 -2.45754)
(-1.42226e-13 74.561 -2.45754)
(-2.91814e-14 72.5409 -2.43586)
(-2.59166e-13 72.5409 -2.43586)
(5.87066e-14 70.5909 -2.41489)
(-1.17413e-13 70.5909 -2.41489)
(2.95237e-14 68.708 -2.39461)
(1.18095e-13 68.708 -2.39461)
(-2.4327e-14 66.8892 -2.37498)
(1.1877e-13 66.8892 -2.37498)
(2.986e-14 65.1317 -2.35598)
(-1.67202e-13 65.1317 -2.35598)
(-6.0052e-14 63.4327 -2.33759)
(1.20104e-13 63.4327 -2.33759)
(3.01907e-14 61.7899 -2.31977)
(0 61.7899 -2.31977)
(1.48305e-14 60.2007 -2.30252)
(0 60.2007 -2.30252)
(0 58.6631 -2.28579)
(-4.43566e-14 58.6631 -2.28579)
(3.0677e-14 57.1748 -2.26959)
(1.22708e-13 57.1748 -2.26959)
(4.27458e-14 55.7337 -2.25388)
(-1.23347e-13 55.7337 -2.25388)
(0 54.3381 -2.23864)
(0 54.3381 -2.23864)
(3.11526e-14 52.986 -2.22387)
(1.2461e-13 52.986 -2.22387)
(0 51.6758 -2.20954)
(0 51.6758 -2.20954)
(0 50.4057 -2.19563)
(-2.51713e-13 50.4057 -2.19563)
(0 49.1743 -2.18214)
(0 49.1743 -2.18214)
(3.17716e-14 47.9799 -2.16904)
(-1.65342e-13 47.9799 -2.16904)
(3.19238e-14 46.8213 -2.15633)
(0 46.8213 -2.15633)
(3.20752e-14 45.697 -2.14398)
(2.56601e-13 45.697 -2.14398)
(6.84169e-14 44.6058 -2.132)
(-3.61913e-14 44.6058 -2.132)
(3.23752e-14 43.5464 -2.12035)
(-1.29501e-13 43.5464 -2.12035)
(-2.35322e-15 42.5176 -2.10904)
(1.30095e-13 42.5176 -2.10904)
(3.4238e-14 41.5184 -2.09805)
(0 41.5184 -2.09805)
(-3.28188e-14 40.5477 -2.08738)
(-1.31275e-13 40.5477 -2.08738)
(0 39.6044 -2.077)
(0 39.6044 -2.077)
(0 38.6876 -2.06691)
(-3.23901e-14 38.6876 -2.06691)
(0 37.7963 -2.05711)
(3.17965e-14 37.7963 -2.05711)
(6.24277e-14 36.9297 -2.04758)
(-1.33598e-13 36.9297 -2.04758)
(-3.06419e-14 36.0869 -2.03831)
(0 36.0869 -2.03831)
(0 35.2671 -2.02929)
(-3.00804e-14 35.2671 -2.02929)
(-2.52308e-14 34.4695 -2.02052)
(0 34.4695 -2.02052)
(-3.39689e-14 33.6933 -2.01199)
(0 33.6933 -2.01199)
(-5.65283e-15 32.9378 -2.0037)
(-2.84568e-14 32.9378 -2.0037)
(6.31444e-15 32.2024 -1.99562)
(0 32.2024 -1.99562)
(0 31.4864 -1.98777)
(0 31.4864 -1.98777)
(-1.52149e-14 30.7891 -1.98012)
(-2.76227e-13 30.7891 -1.98012)
(0 30.11 -1.97268)
(0 30.11 -1.97268)
(3.48047e-14 29.4484 -1.96544)
(0 29.4484 -1.96544)
(-5.09359e-14 28.8038 -1.95838)
(1.39768e-13 28.8038 -1.95838)
(0 28.1757 -1.95152)
(-1.90318e-13 28.1757 -1.95152)
(4.90862e-14 27.5635 -1.94483)
(-1.89947e-13 27.5635 -1.94483)
(1.28356e-14 26.9667 -1.93832)
(-1.89591e-13 26.9667 -1.93832)
(0 26.3849 -1.93197)
(9.46421e-14 26.3849 -1.93197)
(3.56214e-14 25.8176 -1.92579)
(4.64369e-14 25.8176 -1.92579)
(7.15117e-14 25.2643 -1.91977)
(1.43023e-13 25.2643 -1.91977)
(-3.58899e-14 24.7247 -1.91391)
(1.4356e-13 24.7247 -1.91391)
(-4.39306e-14 24.1983 -1.90819)
(-4.39306e-14 24.1983 -1.90819)
(7.92822e-14 23.6847 -1.90262)
(-4.31256e-14 23.6847 -1.90262)
(3.62894e-14 23.1835 -1.89718)
(1.45158e-13 23.1835 -1.89718)
(3.64218e-14 22.6944 -1.89189)
(1.45687e-13 22.6944 -1.89189)
(3.65538e-14 22.217 -1.88672)
(0 22.217 -1.88672)
(4.00503e-14 21.751 -1.88168)
(-1.46742e-13 21.751 -1.88168)
(7.61331e-14 21.296 -1.87676)
(0 21.296 -1.87676)
(4.02444e-14 20.8517 -1.87197)
(-3.8596e-14 20.8517 -1.87197)
(0 20.4178 -1.86728)
(0 20.4178 -1.86728)
(1.38885e-17 19.9941 -1.86271)
(0 19.9941 -1.86271)
(7.46764e-14 19.5801 -1.85825)
(3.65128e-14 19.5801 -1.85825)
(0 19.1757 -1.85389)
(3.58438e-14 19.1757 -1.85389)
(3.7597e-14 18.7806 -1.84963)
(3.00776e-13 18.7806 -1.84963)
(0 18.3945 -1.84546)
(0 18.3945 -1.84546)
(-1.05673e-13 18.0172 -1.84139)
(0 18.0172 -1.84139)
(-3.79828e-14 17.6484 -1.83741)
(0 17.6484 -1.83741)
(3.26778e-14 17.2879 -1.83351)
(0 17.2879 -1.83351)
(3.82386e-14 16.9354 -1.82969)
(0 16.9354 -1.82969)
(3.14912e-14 16.5908 -1.82595)
(0 16.5908 -1.82595)
(7.69866e-14 16.2538 -1.82229)
(-1.53973e-13 16.2538 -1.82229)
(7.72405e-14 15.9242 -1.8187)
(-1.54481e-13 15.9242 -1.8187)
(-3.87469e-14 15.6019 -1.81518)
(-4.0538e-13 15.6019 -1.81518)
(-3.88734e-14 15.2866 -1.81172)
(0 15.2866 -1.81172)
(0 14.9781 -1.80833)
(9.85789e-14 14.9781 -1.80833)
(-5.63671e-14 14.6763 -1.80499)
(0 14.6763 -1.80499)
(-1.6083e-14 14.3809 -1.80171)
(5.53342e-14 14.3809 -1.80171)
(-3.93767e-14 14.0919 -1.79848)
(-2.11827e-13 14.0919 -1.79848)
(0 13.809 -1.7953)
(0 13.809 -1.7953)
(9.19746e-14 13.5322 -1.79216)
(1.58508e-13 13.5322 -1.79216)
(7.95034e-14 13.2611 -1.78906)
(-1.59007e-13 13.2611 -1.78906)
(0 12.9957 -1.786)
(-2.09952e-13 12.9957 -1.786)
(8.95229e-14 12.7359 -1.78298)
(-4.95223e-14 12.7359 -1.78298)
(-4.86148e-14 12.4814 -1.77999)
(-1.60499e-13 12.4814 -1.77999)
(0 12.2322 -1.77702)
(-3.69713e-13 12.2322 -1.77702)
(0 11.9881 -1.77408)
(-4.68495e-14 11.9881 -1.77408)
(8.09918e-14 11.749 -1.77116)
(1.61984e-13 11.749 -1.77116)
(4.06192e-14 11.5147 -1.76825)
(0 11.5147 -1.76825)
(0 11.2852 -1.76536)
(1.62969e-13 11.2852 -1.76536)
(4.08652e-14 11.0603 -1.76247)
(-1.63461e-13 11.0603 -1.76247)
(0 10.8399 -1.75959)
(-2.06663e-13 10.8399 -1.75959)
(0 10.6238 -1.75671)
(0 10.6238 -1.75671)
(4.12327e-14 10.412 -1.75382)
(-1.64931e-13 10.412 -1.75382)
(8.27095e-14 10.2044 -1.75093)
(-1.65419e-13 10.2044 -1.75093)
(8.11424e-14 10.0009 -1.74803)
(1.26241e-13 10.0009 -1.74803)
(4.42579e-14 9.80124 -1.7451)
(1.66393e-13 9.80124 -1.7451)
(4.17199e-14 9.60548 -1.74216)
(0 9.60548 -1.74216)
(-4.31631e-15 9.41347 -1.73919)
(-3.75249e-14 9.41347 -1.73919)
(4.19623e-14 9.22512 -1.73619)
(-1.67849e-13 9.22512 -1.73619)
(4.20832e-14 9.04034 -1.73315)
(1.3217e-13 9.04034 -1.73315)
(8.44077e-14 8.85903 -1.73007)
(-3.54995e-14 8.85903 -1.73007)
(0 8.68111 -1.72694)
(2.04146e-13 8.68111 -1.72694)
(-8.23418e-15 8.50648 -1.72376)
(-2.03989e-13 8.50648 -1.72376)
(8.51293e-14 8.33508 -1.72053)
(-1.70259e-13 8.33508 -1.72053)
(-4.26845e-14 8.1668 -1.71722)
(-3.41476e-13 8.1668 -1.71722)
(4.28041e-14 8.00158 -1.71385)
(-1.71216e-13 8.00158 -1.71385)
(-6.35418e-14 7.83933 -1.7104)
(1.71694e-13 7.83933 -1.7104)
(2.37079e-14 7.67998 -1.70686)
(1.72171e-13 7.67998 -1.70686)
(1.04396e-13 7.52345 -1.70324)
(-1.72647e-13 7.52345 -1.70324)
(-1.6832e-14 7.36966 -1.69951)
(0 7.36966 -1.69951)
(0 7.21855 -1.69568)
(-2.32606e-13 7.21855 -1.69568)
(0 7.07003 -1.69173)
(-1.74068e-13 7.07003 -1.69173)
(5.68679e-14 6.92405 -1.68766)
(-2.31408e-13 6.92405 -1.68766)
(0 6.78053 -1.68346)
(0 6.78053 -1.68346)
(4.38701e-14 6.63941 -1.67911)
(0 6.63941 -1.67911)
(4.39872e-14 6.50062 -1.67462)
(1.75949e-13 6.50062 -1.67462)
(4.4104e-14 6.36409 -1.66996)
(0 6.36409 -1.66996)
(0 6.22975 -1.66514)
(1.76882e-13 6.22975 -1.66514)
(0 6.09755 -1.66012)
(-5.08949e-14 6.09755 -1.66012)
(0 5.96743 -1.65492)
(-1.77811e-13 5.96743 -1.65492)
(-4.90467e-14 5.83931 -1.6495)
(-9.80935e-14 5.83931 -1.6495)
(-4.46836e-14 5.71314 -1.64387)
(-4.8148e-14 5.71314 -1.64387)
(-4.47985e-14 5.58886 -1.63799)
(-1.79194e-13 5.58886 -1.63799)
(-4.4913e-14 5.4664 -1.63187)
(-1.79652e-13 5.4664 -1.63187)
(9.10986e-14 5.34571 -1.62549)
(-9.10986e-14 5.34571 -1.62549)
(4.47146e-14 5.22672 -1.61882)
(-3.61126e-13 5.22672 -1.61882)
(4.38952e-14 5.10938 -1.61185)
(-2.24912e-13 5.10938 -1.61185)
(0 4.99363 -1.60457)
(0 4.99363 -1.60457)
(8.46025e-14 4.87941 -1.59694)
(-2.6652e-13 4.87941 -1.59694)
(-4.06519e-15 4.76665 -1.58896)
(-8.30522e-14 4.76665 -1.58896)
(5.06402e-14 4.6553 -1.5806)
(1.0128e-13 4.6553 -1.5806)
(9.16272e-14 4.5453 -1.57183)
(0 4.5453 -1.57183)
(9.18478e-14 4.43658 -1.56263)
(-2.62265e-13 4.43658 -1.56263)
(8.45986e-14 4.32909 -1.55297)
(0 4.32909 -1.55297)
(-4.61429e-14 4.22276 -1.54283)
(-7.57164e-14 4.22276 -1.54283)
(0 4.11753 -1.53217)
(1.85006e-13 4.11753 -1.53217)
(-4.63593e-14 4.01333 -1.52095)
(1.1247e-13 4.01333 -1.52095)
(0 3.9101 -1.50915)
(-2.57496e-13 3.9101 -1.50915)
(0 3.80776 -1.49673)
(-1.86292e-13 3.80776 -1.49673)
(-1.15707e-13 3.70626 -1.48363)
(-1.86714e-13 3.70626 -1.48363)
(9.35668e-14 3.60551 -1.46983)
(-1.87134e-13 3.60551 -1.46983)
(-1.96346e-14 3.50545 -1.45526)
(6.6522e-14 3.50545 -1.45526)
(-6.5303e-14 3.40599 -1.43988)
(5.73561e-14 3.40599 -1.43988)
(0 3.30705 -1.42362)
(0 3.30705 -1.42362)
(0 3.20855 -1.40644)
(-1.88776e-13 3.20855 -1.40644)
(0 3.1104 -1.38825)
(-6.17784e-14 3.1104 -1.38825)
(-1.32534e-14 3.01251 -1.36899)
(6.82793e-14 3.01251 -1.36899)
(4.74908e-14 2.91477 -1.34858)
(-3.79927e-13 2.91477 -1.34858)
(0 2.81708 -1.32693)
(0 2.81708 -1.32693)
(4.76827e-14 2.71932 -1.30393)
(-5.73731e-14 2.71932 -1.30393)
(4.77765e-14 2.62139 -1.2795)
(-1.91106e-13 2.62139 -1.2795)
(-1.03159e-13 2.52314 -1.25351)
(1.91476e-13 2.52314 -1.25351)
(9.59195e-14 2.42445 -1.22584)
(1.37562e-13 2.42445 -1.22584)
(9.60978e-14 2.32517 -1.19634)
(-5.32819e-14 2.32517 -1.19634)
(-4.16926e-15 2.22514 -1.16488)
(-5.23055e-14 2.22514 -1.16488)
(4.82218e-14 2.12419 -1.13127)
(-1.02694e-13 2.12419 -1.13127)
(-2.10088e-15 2.02215 -1.09535)
(-2.43627e-13 2.02215 -1.09535)
(4.83866e-14 1.91882 -1.0569)
(1.93546e-13 1.91882 -1.0569)
(0 1.814 -1.01572)
(-2.42438e-13 1.814 -1.01572)
(4.85423e-14 1.70747 -0.97156)
(-1.94169e-13 1.70747 -0.97156)
(9.5428e-14 1.59902 -0.924178)
(0 1.59902 -0.924178)
(-4.59539e-14 1.4884 -0.8733)
(2.86658e-13 1.4884 -0.8733)
(0 1.37538 -0.818636)
(-3.90045e-13 1.37538 -0.818636)
(0 1.25973 -0.759889)
(-1.95282e-13 1.25973 -0.759889)
(4.88821e-14 1.14122 -0.696747)
(-1.95528e-13 1.14122 -0.696747)
(4.89398e-14 1.01964 -0.628901)
(1.95759e-13 1.01964 -0.628901)
(9.08886e-14 0.894801 -0.556044)
(-4.33844e-13 0.894801 -0.556044)
(9.8086e-14 0.766557 -0.477887)
(-1.96172e-13 0.766557 -0.477887)
(8.07473e-14 0.634815 -0.394169)
(-8.07473e-14 0.634815 -0.394169)
(-8.87614e-14 0.499545 -0.304667)
(1.9651e-13 0.499545 -0.304667)
(0 0.360791 -0.209207)
(-2.74463e-13 0.360791 -0.209207)
(2.71986e-14 0.218674 -0.107671)
(1.20373e-13 0.218674 -0.107671)
(4.9213e-14 3.40584e-07 -1.26059e-07)
(1.97072e-13 3.41021e-07 -1.26221e-07)
(1.24257e-13 -2.41678e-07 8.94539e-08)
(1.96852e-13 -1.55699e-07 5.76284e-08)
(-7.63891e-14 -0.218674 0.107671)
(3.17135e-13 -0.218674 0.107671)
(-4.91619e-14 -0.36079 0.209207)
(-7.78151e-14 -0.36079 0.209207)
(0 -0.499545 0.304667)
(1.9651e-13 -0.499545 0.304667)
(0 -0.634815 0.394169)
(3.92702e-13 -0.634815 0.394169)
(-4.9043e-14 -0.766557 0.477887)
(-1.96172e-13 -0.766557 0.477887)
(0 -0.894801 0.556044)
(0 -0.894801 0.556044)
(-4.89398e-14 -1.01964 0.628901)
(-1.95759e-13 -1.01964 0.628901)
(0 -1.14122 0.696747)
(0 -1.14122 0.696747)
(4.88206e-14 -1.25974 0.759889)
(0 -1.25974 0.759889)
(-9.02237e-14 -1.37538 0.818636)
(2.85246e-13 -1.37538 0.818636)
(9.19079e-14 -1.4884 0.8733)
(1.9475e-13 -1.4884 0.8733)
(0 -1.59902 0.924178)
(0 -1.59902 0.924178)
(-4.85423e-14 -1.70747 0.97156)
(-2.8954e-13 -1.70747 0.97156)
(9.69313e-14 -1.814 1.01572)
(-9.71514e-14 -1.814 1.01572)
(0 -1.91882 1.0569)
(0 -1.91882 1.0569)
(9.66105e-14 -2.02215 1.09535)
(1.93221e-13 -2.02215 1.09535)
(-4.82218e-14 -2.1242 1.13127)
(-2.95581e-13 -2.1242 1.13127)