/*--------------------------------*- C++ -*----------------------------------*\
| =========                 |                                                 |
| \\      /  F ield         | OpenFOAM: The Open Source CFD Toolbox           |
|  \\    /   O peration     | Version:  2106                                  |
|   \\  /    A nd           | Website:  www.openfoam.com                      |
|    \\/     M anipulation  |                                                 |
\*---------------------------------------------------------------------------*/
FoamFile
{
    version     2.0;
    format      ascii;
    arch        "LSB;label=32;scalar=64";
    class       volScalarField;
    location    "10090";
    object      p;
}
// * * * * * * * * * * * * * * * * * * * * * * * * * * * * * * * * * * * * * //

dimensions      [0 2 -2 0 0 0 0];

internalField   nonuniform List<scalar> 
2000
(
7.28307e-16
1.5901e-14
1.50691e-15
1.59002e-14
1.58889e-15
1.58992e-14
1.47494e-15
1.58976e-14
1.38169e-15
1.58954e-14
1.30408e-15
1.58926e-14
1.22792e-15
1.58891e-14
1.15241e-15
1.58849e-14
1.07888e-15
1.58801e-14
1.00769e-15
1.58746e-14
9.38856e-16
1.58684e-14
8.72478e-16
1.58615e-14
8.08419e-16
1.5854e-14
7.46641e-16
1.58457e-14
6.86971e-16
1.58366e-14
6.2922e-16
1.58268e-14
5.73384e-16
1.58161e-14
5.19174e-16
1.58046e-14
4.66453e-16
1.57922e-14
4.14915e-16
1.57789e-14
3.64471e-16
1.57644e-14
3.14827e-16
1.5749e-14
2.65815e-16
1.57324e-14
2.17487e-16
1.57146e-14
1.69508e-16
1.56955e-14
1.2178e-16
1.5675e-14
7.4244e-17
1.56531e-14
2.69866e-17
1.56297e-14
-2.0171e-17
1.56047e-14
-6.72104e-17
1.5578e-14
-1.14422e-16
1.55495e-14
-1.61355e-16
1.55192e-14
-2.08068e-16
1.54871e-14
-2.54698e-16
1.5453e-14
-3.01161e-16
1.5417e-14
-3.47368e-16
1.53791e-14
-3.93303e-16
1.53393e-14
-4.39039e-16
1.52976e-14
-4.8431e-16
1.52536e-14
-5.29197e-16
1.52076e-14
-5.7342e-16
1.51598e-14
-6.17456e-16
1.511e-14
-6.60443e-16
1.50582e-14
-7.01659e-16
1.50039e-14
-7.4243e-16
1.49473e-14
-7.82699e-16
1.48882e-14
-8.21525e-16
1.48263e-14
-8.59268e-16
1.47623e-14
-8.96092e-16
1.46971e-14
-9.3147e-16
1.46299e-14
-9.66308e-16
1.45601e-14
-9.99595e-16
1.44881e-14
-1.03356e-15
1.44148e-14
-1.06566e-15
1.43393e-14
-1.09638e-15
1.42623e-14
-1.12677e-15
1.41828e-14
-1.15603e-15
1.41015e-14
-1.18277e-15
1.40189e-14
-1.20808e-15
1.39345e-14
-1.23256e-15
1.38471e-14
-1.25505e-15
1.37561e-14
-1.27618e-15
1.36622e-14
-1.29596e-15
1.35685e-14
-1.31506e-15
1.34739e-14
-1.33166e-15
1.33771e-14
-1.34896e-15
1.32797e-14
-1.36581e-15
1.31809e-14
-1.38164e-15
1.30803e-14
-1.39718e-15
1.29787e-14
-1.4119e-15
1.28767e-14
-1.42656e-15
1.2774e-14
-1.44131e-15
1.26725e-14
-1.45278e-15
1.25692e-14
-1.46388e-15
1.24625e-14
-1.47188e-15
1.2352e-14
-1.47976e-15
1.22413e-14
-1.48548e-15
1.21297e-14
-1.4877e-15
1.20168e-14
-1.49248e-15
1.19034e-14
-1.49326e-15
1.17874e-14
-1.49093e-15
1.16696e-14
-1.48867e-15
1.1551e-14
-1.48513e-15
1.1434e-14
-1.48128e-15
1.1311e-14
-1.47494e-15
1.11853e-14
-1.47186e-15
1.10634e-14
-1.46749e-15
1.0939e-14
-1.45558e-15
1.08091e-14
-1.44113e-15
1.06771e-14
-1.42594e-15
1.05447e-14
-1.4086e-15
1.04071e-14
-1.38764e-15
1.02679e-14
-1.36324e-15
1.01254e-14
-1.33895e-15
9.97973e-15
-1.30991e-15
9.83112e-15
-1.27799e-15
9.68477e-15
-1.24512e-15
9.53745e-15
-1.20977e-15
9.38759e-15
-1.17563e-15
9.23704e-15
-1.13944e-15
9.08597e-15
-1.10492e-15
8.93629e-15
-1.06879e-15
8.79171e-15
-1.03305e-15
8.64713e-15
-9.97943e-16
8.49914e-15
-9.65505e-16
8.35147e-15
-9.28804e-16
8.20608e-15
-8.93459e-16
8.06135e-15
-8.56093e-16
7.91563e-15
-8.2239e-16
7.76726e-15
-7.81627e-16
7.62185e-15
-7.46838e-16
7.47774e-15
-7.12775e-16
7.33325e-15
-6.79676e-16
7.19409e-15
-6.51512e-16
7.06046e-15
-6.24845e-16
6.92326e-15
-5.99943e-16
6.78075e-15
-5.77067e-16
6.64432e-15
-5.60256e-16
6.50666e-15
-5.57374e-16
6.36792e-15
-5.49866e-16
6.22073e-15
-5.49371e-16
6.0842e-15
-5.4863e-16
5.94719e-15
-5.51771e-16
5.80988e-15
-5.51479e-16
5.67246e-15
-5.55722e-16
5.53131e-15
-5.60984e-16
5.39046e-15
-5.67579e-16
5.25397e-15
-5.79704e-16
5.11434e-15
-5.93852e-16
4.9679e-15
-6.02596e-16
4.82642e-15
-6.17855e-16
4.69787e-15
-6.36124e-16
4.5709e-15
-6.61679e-16
4.43412e-15
-6.91008e-16
4.29943e-15
-7.28431e-16
4.18274e-15
-7.62757e-16
4.05713e-15
-7.94464e-16
3.91903e-15
-8.27891e-16
3.78825e-15
-8.59572e-16
3.65729e-15
-8.93841e-16
3.51858e-15
-9.27184e-16
3.3645e-15
-9.59933e-16
3.23056e-15
-9.92502e-16
3.10911e-15
-1.01358e-15
2.97685e-15
-1.03133e-15
2.83788e-15
-1.05779e-15
2.70806e-15
-1.08147e-15
2.58362e-15
-1.10266e-15
2.45689e-15
-1.12559e-15
2.33587e-15
-1.15058e-15
2.21284e-15
-1.18579e-15
2.08008e-15
-1.22369e-15
1.94563e-15
-1.2646e-15
1.80178e-15
-1.27728e-15
1.65638e-15
-1.30097e-15
1.52487e-15
-1.33573e-15
1.39926e-15
-1.37387e-15
1.27181e-15
-1.40772e-15
1.14263e-15
-1.43737e-15
9.88062e-16
-1.47828e-15
8.38995e-16
-1.51465e-15
7.02894e-16
-1.54647e-15
5.63668e-16
-1.58135e-15
4.20827e-16
-1.63469e-15
2.89579e-16
-1.67531e-15
1.7762e-16
-1.7268e-15
4.5774e-17
-1.7736e-15
-9.06829e-17
-1.81561e-15
-2.16876e-16
-1.86045e-15
-3.3347e-16
-1.90804e-15
-4.56275e-16
-1.95822e-15
-5.93523e-16
-2.0029e-15
-7.30432e-16
-2.06475e-15
-8.67834e-16
-2.10505e-15
-9.83388e-16
-2.16183e-15
-1.10112e-15
-2.21181e-15
-1.23716e-15
-2.285e-15
-1.37743e-15
-2.3428e-15
-1.50765e-15
-2.39995e-15
-1.62142e-15
-2.43328e-15
-1.74249e-15
-2.46446e-15
-1.85752e-15
-2.52243e-15
-1.99869e-15
-2.60581e-15
-2.13777e-15
-2.684e-15
-2.27584e-15
-2.75645e-15
-2.42913e-15
-2.82153e-15
-2.53998e-15
-2.90799e-15
-2.61023e-15
-2.97274e-15
-2.71398e-15
-3.0302e-15
-2.85229e-15
-3.09326e-15
-2.99836e-15
-3.15976e-15
-3.14055e-15
-3.24236e-15
-3.25239e-15
-3.32563e-15
-3.33568e-15
-3.40983e-15
-3.43477e-15
-3.49478e-15
-3.53631e-15
-3.56577e-15
-3.59825e-15
-3.65207e-15
-3.60694e-15
-3.72821e-15
-3.67452e-15
-3.79533e-15
-3.71425e-15
-3.85438e-15
-3.78245e-15
-3.91945e-15
-3.87971e-15
-3.98959e-15
-3.92303e-15
-4.03835e-15
-3.9817e-15
-4.07968e-15
-4.04285e-15
-4.16934e-15
-4.13536e-15
-4.22457e-15
-4.16197e-15
-4.30357e-15
-4.23266e-15
-4.35223e-15
-4.31925e-15
-4.38347e-15
-4.35596e-15
-4.42411e-15
-4.38584e-15
-4.44821e-15
-4.42331e-15
-4.48214e-15
-4.456e-15
-4.5541e-15
-4.48292e-15
-4.54732e-15
-4.50015e-15
-4.59514e-15
-4.5099e-15
-4.62252e-15
-4.53705e-15
-4.60518e-15
-4.55548e-15
-4.61994e-15
-4.54092e-15
-4.64122e-15
-4.59438e-15
-4.66602e-15
-4.64086e-15
-4.6193e-15
-4.65723e-15
-4.67195e-15
-4.67678e-15
-4.69981e-15
-4.7247e-15
-4.70306e-15
-4.70302e-15
-4.68544e-15
-4.68445e-15
-4.69498e-15
-4.74138e-15
-4.75142e-15
-4.77817e-15
-4.81062e-15
-4.79235e-15
-4.85454e-15
-4.82793e-15
-4.86186e-15
-4.88209e-15
-4.89655e-15
-4.91184e-15
-4.93452e-15
-4.92024e-15
-5.00324e-15
-4.93044e-15
-5.04168e-15
-4.95591e-15
-5.05493e-15
-4.9463e-15
-5.13703e-15
-4.8946e-15
-5.19815e-15
-4.87073e-15
-5.21172e-15
-4.87928e-15
-5.24528e-15
-4.93112e-15
-5.22896e-15
-4.98032e-15
-5.20132e-15
-5.10838e-15
-5.19655e-15
-5.14969e-15
-5.11279e-15
-5.15401e-15
-5.14297e-15
-5.13738e-15
-5.16396e-15
-5.17497e-15
-5.21481e-15
-5.2025e-15
-5.30453e-15
-5.20993e-15
-5.24514e-15
-5.22252e-15
-5.25288e-15
-5.24043e-15
-5.27541e-15
-5.2665e-15
1.2844e-14
1.34995e-14
1.28436e-14
1.34993e-14
1.28432e-14
1.3499e-14
1.28425e-14
1.34986e-14
1.28416e-14
1.3498e-14
1.28403e-14
1.34973e-14
1.28388e-14
1.34963e-14
1.28369e-14
1.34951e-14
1.28348e-14
1.34938e-14
1.28324e-14
1.34922e-14
1.28297e-14
1.34904e-14
1.28267e-14
1.34884e-14
1.28234e-14
1.34861e-14
1.28198e-14
1.34836e-14
1.28159e-14
1.34809e-14
1.28116e-14
1.34779e-14
1.28069e-14
1.34746e-14
1.28019e-14
1.3471e-14
1.27964e-14
1.34671e-14
1.27905e-14
1.34629e-14
1.27843e-14
1.34582e-14
1.27775e-14
1.3453e-14
1.27703e-14
1.34473e-14
1.27624e-14
1.3441e-14
1.2754e-14
1.3434e-14
1.27449e-14
1.34265e-14
1.27351e-14
1.34183e-14
1.27246e-14
1.34091e-14
1.27132e-14
1.33992e-14
1.27011e-14
1.33885e-14
1.2688e-14
1.3377e-14
1.26739e-14
1.33646e-14
1.26587e-14
1.33512e-14
1.26427e-14
1.33368e-14
1.26256e-14
1.3321e-14
1.26073e-14
1.33042e-14
1.25879e-14
1.32865e-14
1.25667e-14
1.32679e-14
1.25443e-14
1.32482e-14
1.25205e-14
1.3227e-14
1.24951e-14
1.32045e-14
1.24684e-14
1.3181e-14
1.24402e-14
1.31557e-14
1.24101e-14
1.31292e-14
1.23785e-14
1.31013e-14
1.23454e-14
1.30722e-14
1.23111e-14
1.30414e-14
1.22751e-14
1.30087e-14
1.22371e-14
1.29758e-14
1.21974e-14
1.29424e-14
1.2156e-14
1.2906e-14
1.21131e-14
1.28678e-14
1.20685e-14
1.28288e-14
1.2022e-14
1.27876e-14
1.1974e-14
1.27448e-14
1.19245e-14
1.27012e-14
1.18738e-14
1.26548e-14
1.18206e-14
1.26073e-14
1.17655e-14
1.25578e-14
1.1709e-14
1.25063e-14
1.16512e-14
1.24528e-14
1.15909e-14
1.23984e-14
1.15292e-14
1.2342e-14
1.14663e-14
1.22835e-14
1.14028e-14
1.22224e-14
1.13367e-14
1.21597e-14
1.12682e-14
1.20963e-14
1.11978e-14
1.20307e-14
1.11263e-14
1.19604e-14
1.1053e-14
1.18886e-14
1.0976e-14
1.18187e-14
1.08971e-14
1.17474e-14
1.08173e-14
1.16719e-14
1.07351e-14
1.15929e-14
1.06541e-14
1.1511e-14
1.05708e-14
1.14248e-14
1.04838e-14
1.13429e-14
1.03938e-14
1.12626e-14
1.03068e-14
1.11728e-14
1.02184e-14
1.10801e-14
1.01279e-14
1.09898e-14
1.00353e-14
1.09013e-14
9.94076e-15
1.08091e-14
9.84501e-15
1.0711e-14
9.7497e-15
1.06108e-14
9.65334e-15
1.05133e-14
9.55759e-15
1.04185e-14
9.45933e-15
1.0317e-14
9.35697e-15
1.02135e-14
9.2538e-15
1.01113e-14
9.1499e-15
1.00071e-14
9.04367e-15
9.89943e-15
8.93349e-15
9.79321e-15
8.82612e-15
9.68517e-15
8.71829e-15
9.57195e-15
8.61006e-15
9.46378e-15
8.49979e-15
9.35048e-15
8.38754e-15
9.23378e-15
8.27683e-15
9.11369e-15
8.16427e-15
8.98849e-15
8.04993e-15
8.86344e-15
7.93386e-15
8.74741e-15
7.81966e-15
8.62638e-15
7.70566e-15
8.49678e-15
7.58478e-15
8.37112e-15
7.46422e-15
8.2495e-15
7.34404e-15
8.12298e-15
7.22252e-15
7.9952e-15
7.09971e-15
7.86623e-15
6.97565e-15
7.74527e-15
6.86511e-15
7.61592e-15
6.74429e-15
7.48738e-15
6.62613e-15
7.35974e-15
6.50516e-15
7.23491e-15
6.38515e-15
7.11111e-15
6.26804e-15
6.98467e-15
6.14453e-15
6.86317e-15
6.02216e-15
6.73918e-15
5.901e-15
6.60521e-15
5.77357e-15
6.47264e-15
5.6551e-15
6.34155e-15
5.5305e-15
6.21962e-15
5.40743e-15
6.09937e-15
5.28595e-15
5.96178e-15
5.16233e-15
5.82215e-15
5.03667e-15
5.68439e-15
4.91675e-15
5.54855e-15
4.79885e-15
5.41856e-15
4.67533e-15
5.29065e-15
4.54239e-15
5.1533e-15
4.41557e-15
5.00268e-15
4.28337e-15
4.86598e-15
4.14972e-15
4.73551e-15
4.02246e-15
4.59582e-15
3.89782e-15
4.45474e-15
3.77988e-15
4.31227e-15
3.66491e-15
4.17232e-15
3.54528e-15
4.03487e-15
3.41331e-15
3.89996e-15
3.2926e-15
3.75982e-15
3.17549e-15
3.62233e-15
3.05823e-15
3.5072e-15
2.9527e-15
3.3871e-15
2.82762e-15
3.25419e-15
2.70665e-15
3.12035e-15
2.58597e-15
2.99353e-15
2.45775e-15
2.8699e-15
2.34564e-15
2.74961e-15
2.23395e-15
2.63278e-15
2.11485e-15
2.51163e-15
2.01203e-15
2.37054e-15
1.90218e-15
2.23301e-15
1.79347e-15
2.11475e-15
1.67031e-15
2.00014e-15
1.55618e-15
1.88164e-15
1.43535e-15
1.74368e-15
1.31584e-15
1.602e-15
1.19784e-15
1.48796e-15
1.08129e-15
1.37821e-15
9.66082e-16
1.2575e-15
8.60102e-16
1.1575e-15
7.47604e-16
1.04725e-15
6.44172e-16
9.11514e-16
5.34475e-16
7.7372e-16
4.34522e-16
6.65001e-16
3.3662e-16
5.5421e-16
2.41024e-16
4.6493e-16
1.39951e-16
3.74368e-16
3.32855e-17
2.5207e-16
-7.1012e-17
1.4472e-16
-1.72909e-16
2.16314e-17
-2.72083e-16
-1.09319e-16
-3.60339e-16
-2.25082e-16
-4.67884e-16
-3.17975e-16
-5.71908e-16
-4.02747e-16
-6.65036e-16
-5.09201e-16
-7.70008e-16
-6.21543e-16
-8.71198e-16
-7.31607e-16
-9.68414e-16
-8.38986e-16
-1.06141e-15
-9.20591e-16
-1.15816e-15
-1.00585e-15
-1.25915e-15
-1.10887e-15
-1.34923e-15
-1.25889e-15
-1.4418e-15
-1.41143e-15
-1.56514e-15
-1.53752e-15
-1.70408e-15
-1.62158e-15
-1.75569e-15
-1.72141e-15
-1.85233e-15
-1.82311e-15
-1.94889e-15
-1.92626e-15
-2.04511e-15
-2.0448e-15
-2.14024e-15
-2.17832e-15
-2.24759e-15
-2.28303e-15
-2.3522e-15
-2.38769e-15
-2.45374e-15
-2.47742e-15
-2.55221e-15
-2.56574e-15
-2.66204e-15
-2.62235e-15
-2.75617e-15
-2.70259e-15
-2.83477e-15
-2.79188e-15
-2.95438e-15
-2.86149e-15
-3.04565e-15
-2.93791e-15
-3.1238e-15
-3.01973e-15
-3.20271e-15
-3.11996e-15
-3.28104e-15
-3.16908e-15
-3.33216e-15
-3.26346e-15
-3.39587e-15
-3.36261e-15
-3.45497e-15
-3.42565e-15
-3.5364e-15
-3.50876e-15
-3.58379e-15
-3.58361e-15
-3.66384e-15
-3.6093e-15
-3.71149e-15
-3.62291e-15
-3.76951e-15
-3.67537e-15
-3.79785e-15
-3.7652e-15
-3.85931e-15
-3.84274e-15
-3.87059e-15
-3.86961e-15
-3.88419e-15
-3.87351e-15
-3.89849e-15
-3.90595e-15
-3.91046e-15
-3.96718e-15
-3.995e-15
-4.00892e-15
-4.05176e-15
-4.05551e-15
-4.00426e-15
-4.10478e-15
-4.07334e-15
-4.11282e-15
-4.11281e-15
-4.09906e-15
-4.12627e-15
-4.1327e-15
-4.13554e-15
-4.16239e-15
-4.18805e-15
-4.21697e-15
-4.21016e-15
-4.29917e-15
-4.21978e-15
-4.36601e-15
-4.28033e-15
-4.40067e-15
-4.31843e-15
-4.47515e-15
-4.40065e-15
-4.54667e-15
-4.45751e-15
-4.54207e-15
-4.52107e-15
-4.52394e-15
-4.57871e-15
-4.57428e-15
-4.60569e-15
-4.62146e-15
-4.69157e-15
-4.66902e-15
-4.72846e-15
-4.64412e-15
-4.76885e-15
-4.6551e-15
-4.86124e-15
-4.76723e-15
-4.91582e-15
-4.82936e-15
-4.88743e-15
-4.84331e-15
-4.92587e-15
-4.88118e-15
-4.96833e-15
-4.97776e-15
-5.00777e-15
-5.01349e-15
-5.0347e-15
-5.0354e-15
-5.07156e-15
-5.09036e-15
-5.09346e-15
-5.16169e-15
-5.10674e-15
-5.15645e-15
-5.10539e-15
-5.13506e-15
-5.16564e-15
-5.15362e-15
-5.21747e-15
-5.2009e-15
-5.30833e-15
-5.29911e-15
-5.26874e-15
-5.30058e-15
-5.26999e-15
-5.31781e-15
-5.30966e-15
-5.3935e-15
-5.37819e-15
-5.42764e-15
-5.4116e-15
-5.43356e-15
-5.4646e-15
-5.44617e-15
-5.50167e-15
-5.50144e-15
-5.57856e-15
-5.55792e-15
-5.65524e-15
-5.61168e-15
-5.69551e-15
-5.6804e-15
-5.73861e-15
-5.72419e-15
-5.74651e-15
-5.74283e-15
-5.78209e-15
-5.75966e-15
-5.82545e-15
-5.8156e-15
-5.87421e-15
-5.86819e-15
-5.90354e-15
-5.873e-15
-5.91711e-15
-5.9187e-15
-5.9591e-15
-5.98739e-15
-6.00324e-15
-6.01027e-15
-6.04738e-15
-6.0788e-15
-6.08737e-15
-6.12695e-15
-6.12291e-15
-6.18147e-15
-6.1756e-15
-6.22149e-15
-6.19621e-15
-6.26932e-15
-6.25752e-15
-6.30301e-15
-6.33972e-15
-6.31844e-15
-6.42618e-15
-6.35747e-15
-6.49759e-15
-6.41421e-15
-6.52876e-15
-6.4871e-15
-6.56571e-15
-6.50427e-15
-6.58826e-15
-6.54005e-15
-6.61811e-15
-6.57e-15
-6.67939e-15
-6.62007e-15
-6.69546e-15
-6.66351e-15
-6.68802e-15
-6.67771e-15
-6.70572e-15
-6.69134e-15
-6.77688e-15
-6.73166e-15
-6.76971e-15
-6.74364e-15
-6.77643e-15
-6.75567e-15
-6.81045e-15
-6.80909e-15
-6.84313e-15
-6.83691e-15
-6.83377e-15
-6.83794e-15
-6.86485e-15
-6.86785e-15
-6.89584e-15
-6.87178e-15
-6.91483e-15
-6.90223e-15
-6.92092e-15
-6.90468e-15
-6.96999e-15
-6.92229e-15
-6.99406e-15
-6.9393e-15
-7.0071e-15
-6.94113e-15
-7.02441e-15
-6.92757e-15
-7.06132e-15
-6.93933e-15
-7.09027e-15
-6.94685e-15
-7.06851e-15
-6.99227e-15
-7.07852e-15
-7.03542e-15
-7.0904e-15
-7.02055e-15
-7.07614e-15
-6.96063e-15
-7.09468e-15
-6.92602e-15
-7.08985e-15
-6.97335e-15
-7.1037e-15
-7.00237e-15
-7.12115e-15
-6.99912e-15
-7.11348e-15
-6.97777e-15
-7.09544e-15
-6.98219e-15
-7.06601e-15
-6.99846e-15
-7.05373e-15
-7.01328e-15
-7.0578e-15
-6.99769e-15
-7.04879e-15
-6.98116e-15
-7.0417e-15
-6.96363e-15
-7.02152e-15
-6.95993e-15
-7.00247e-15
-6.9705e-15
-7.02933e-15
-6.98104e-15
-7.04211e-15
-6.97584e-15
-7.01835e-15
-6.93912e-15
-7.00384e-15
-6.93151e-15
-7.00597e-15
-6.93822e-15
-6.994e-15
-6.93659e-15
-6.98293e-15
-6.91911e-15
-6.97271e-15
-6.92403e-15
-6.96301e-15
-6.95179e-15
-6.9532e-15
-6.93357e-15
-6.95895e-15
-6.90011e-15
-6.93442e-15
-6.88187e-15
-6.93369e-15
-6.88664e-15
-6.92569e-15
-6.89117e-15
-6.91022e-15
-6.9034e-15
-6.90243e-15
-6.9081e-15
-6.89435e-15
-6.90551e-15
-6.88597e-15
-6.90362e-15
-6.8929e-15
-6.90252e-15
-6.89176e-15
-6.89443e-15
-6.89833e-15
-6.87926e-15
-6.90502e-15
-6.84893e-15
-6.90436e-15
-6.84226e-15
-6.89643e-15
-6.86707e-15
-6.89667e-15
-6.86872e-15
-6.89717e-15
-6.87075e-15
-6.89788e-15
-6.87322e-15
-6.8909e-15
-6.87609e-15
-6.88407e-15
-6.87152e-15
-6.8852e-15
-6.88315e-15
-6.9021e-15
-6.8874e-15
-6.91127e-15
-6.89203e-15
-6.91271e-15
-6.8891e-15
-6.9222e-15
-6.8864e-15
-6.92798e-15
-6.87986e-15
-6.92618e-15
-6.88121e-15
-6.92461e-15
-6.89443e-15
-6.93895e-15
-6.89596e-15
-6.94567e-15
-6.89754e-15
-6.95656e-15
-6.89127e-15
-6.95599e-15
-6.89274e-15
-6.96355e-15
-6.8823e-15
-6.97147e-15
-6.87947e-15
-6.97979e-15
-6.88028e-15
-6.98854e-15
-6.87687e-15
-6.99383e-15
-6.88876e-15
-6.99175e-15
-6.89645e-15
-6.99393e-15
-6.90002e-15
-6.9926e-15
-6.8956e-15
-6.99941e-15
-6.88708e-15
-7.00275e-15
-6.88997e-15
-7.00649e-15
-6.88872e-15
-7.01838e-15
-6.89108e-15
-7.01139e-15
-6.88929e-15
-7.00867e-15
-6.88342e-15
-7.01404e-15
-6.88885e-15
-7.02363e-15
-6.9017e-15
-7.02209e-15
-6.90665e-15
-7.02089e-15
-6.89996e-15
-7.02766e-15
-6.90071e-15
-7.03097e-15
-6.90505e-15
-7.03462e-15
-6.90918e-15
-7.03481e-15
-6.90555e-15
-7.03909e-15
-6.90926e-15
-7.04744e-15
-6.91277e-15
-7.04484e-15
-6.91607e-15
-7.04254e-15
-6.91173e-15
-7.04611e-15
-6.90351e-15
-7.04255e-15
-6.90624e-15
-7.04296e-15
-6.91248e-15
-7.0436e-15
-6.91669e-15
-7.04814e-15
-6.91343e-15
-7.05107e-15
-6.91369e-15
-7.05422e-15
-6.91562e-15
-7.05758e-15
-6.9192e-15
-7.05754e-15
-6.92264e-15
-7.05772e-15
-6.92413e-15
-7.05987e-15
-6.9255e-15
-7.06042e-15
-6.92675e-15
-7.05939e-15
-6.92611e-15
-7.05502e-15
-6.92186e-15
-7.05607e-15
-6.92452e-15
-7.05727e-15
-6.9288e-15
-7.05688e-15
-6.93123e-15
-7.05663e-15
-6.93013e-15
-7.05651e-15
-6.92553e-15
-7.05652e-15
-6.92087e-15
-7.05666e-15
-6.92288e-15
-7.05525e-15
-6.92478e-15
-7.05562e-15
-6.92326e-15
-7.05776e-15
-6.92167e-15
-7.05998e-15
-6.92e-15
-7.06392e-15
-6.91825e-15
-7.06633e-15
-6.91643e-15
-7.06722e-15
-6.91453e-15
-7.06821e-15
-6.91256e-15
-7.07086e-15
-6.91366e-15
-7.07438e-15
-6.91154e-15
-7.07873e-15
-6.90703e-15
-7.08008e-15
-6.904e-15
-7.08227e-15
-6.90242e-15
-7.08755e-15
-6.90152e-15
-7.09064e-15
-6.89979e-15
-7.09305e-15
-6.89724e-15
-7.09553e-15
-6.89317e-15
-7.09735e-15
-6.88904e-15
-7.09925e-15
-6.88773e-15
-7.10121e-15
-6.88845e-15
-7.10463e-15
-6.88839e-15
-7.10534e-15
-6.88892e-15
-7.10612e-15
-6.888e-15
-7.10764e-15
-6.88903e-15
-7.10922e-15
-6.89196e-15
-7.11019e-15
-6.89215e-15
-7.11187e-15
-6.89097e-15
-7.11231e-15
-6.89229e-15
-7.11345e-15
-6.89352e-15
-7.11338e-15
-6.8922e-15
-7.11399e-15
-6.89082e-15
-7.11345e-15
-6.89241e-15
-7.11356e-15
-6.89391e-15
-7.11431e-15
-6.89359e-15
-7.11395e-15
-6.89322e-15
-7.11309e-15
-6.89393e-15
-7.11229e-15
-6.89485e-15
-7.11262e-15
-6.89543e-15
-7.113e-15
-6.89595e-15
-7.11237e-15
-6.89642e-15
-7.11204e-15
-6.89709e-15
-7.11077e-15
-6.89746e-15
-7.11004e-15
-6.89754e-15
-7.10961e-15
-6.89924e-15
-7.10991e-15
-6.89971e-15
-7.11001e-15
-6.89854e-15
-7.10991e-15
-6.89781e-15
-7.11028e-15
-6.89793e-15
-7.11067e-15
-6.89801e-15
-7.11107e-15
-6.89807e-15
-7.11129e-15
-6.89749e-15
-7.11172e-15
-6.89768e-15
-7.11216e-15
-6.8984e-15
-7.11243e-15
-6.8987e-15
-7.11254e-15
-6.89845e-15
-7.11249e-15
-6.89851e-15
-7.1128e-15
-6.89872e-15
-7.11312e-15
-6.89874e-15
-7.11345e-15
-6.89889e-15
-7.11348e-15
-6.89916e-15
-7.11354e-15
-6.89933e-15
-7.11374e-15
-6.89948e-15
-7.11383e-15
-6.89947e-15
-7.11399e-15
-6.89957e-15
-7.11404e-15
-6.89977e-15
-7.1141e-15
-6.89971e-15
-7.11417e-15
-6.89958e-15
-7.11425e-15
-6.89955e-15
-7.11429e-15
-6.89966e-15
-7.11435e-15
-6.89976e-15
-7.11441e-15
-6.89985e-15
-7.11454e-15
-6.89987e-15
-7.11455e-15
-6.89992e-15
-7.11454e-15
-6.89999e-15
-7.11457e-15
-6.9e-15
-7.11457e-15
-6.89996e-15
-7.11462e-15
-6.9e-15
-7.11468e-15
-6.90002e-15
-7.11473e-15
-6.89998e-15
-7.11476e-15
-6.89998e-15
-7.11481e-15
-6.90001e-15
-7.11483e-15
-6.90004e-15
-7.11484e-15
-6.90004e-15
-7.11485e-15
-6.90004e-15
-7.11485e-15
-6.90003e-15
-7.11484e-15
-6.90003e-15
-7.11486e-15
-6.90004e-15
-7.11485e-15
-6.90006e-15
-7.11485e-15
-6.90006e-15
-7.11485e-15
-6.90005e-15
-7.11486e-15
-6.90005e-15
-7.11486e-15
-6.90005e-15
-5.22252e-15
-5.19127e-15
-5.22437e-15
-5.24509e-15
-5.21487e-15
-5.29712e-15
-5.26452e-15
-5.36765e-15
-5.39285e-15
-5.395e-15
-5.39114e-15
-5.41911e-15
-5.44696e-15
-5.42599e-15
-5.5502e-15
-5.49271e-15
-5.6267e-15
-5.5467e-15
-5.65752e-15
-5.60601e-15
-5.6989e-15
-5.67765e-15
-5.65378e-15
-5.72268e-15
-5.70269e-15
-5.75755e-15
-5.73841e-15
-5.80364e-15
-5.78285e-15
-5.84161e-15
-5.83792e-15
-5.86817e-15
-5.86213e-15
-5.89971e-15
-5.85389e-15
-5.93921e-15
-5.87631e-15
-6.01694e-15
-5.99368e-15
-6.06896e-15
-6.05242e-15
-6.08705e-15
-6.08291e-15
-6.11035e-15
-6.13446e-15
-6.13622e-15
-6.2116e-15
-6.18448e-15
-6.21977e-15
-6.2277e-15
-6.25352e-15
-6.26975e-15
-6.31073e-15
-6.31201e-15
-6.36664e-15
-6.37973e-15
-6.44411e-15
-6.45032e-15
-6.49312e-15
-6.498e-15
-6.43684e-15
-6.54692e-15
-6.52049e-15
-6.58202e-15
-6.59629e-15
-6.62453e-15
-6.6166e-15
-6.67194e-15
-6.6829e-15
-6.67331e-15
-6.7498e-15
-6.67432e-15
-6.74488e-15
-6.66953e-15
-6.80056e-15
-6.68532e-15
-6.81139e-15
-6.69152e-15
-6.81818e-15
-6.70149e-15
-6.86121e-15
-6.75672e-15
-6.88516e-15
-6.80404e-15
-6.86031e-15
-6.80441e-15
-6.86703e-15
-6.81439e-15
-6.87679e-15
-6.87554e-15
-6.9001e-15
-6.88118e-15
-6.92411e-15
-6.82925e-15
-6.93897e-15
-6.85492e-15
-6.97135e-15
-6.87501e-15
-6.95103e-15
-6.86081e-15
-6.97618e-15
-6.88347e-15
-7.00438e-15
-6.90126e-15
-7.0358e-15
-6.92839e-15
-7.07055e-15
-6.96537e-15
-7.06614e-15
-6.95449e-15
-7.06563e-15
-6.95242e-15
-7.09789e-15
-6.94507e-15
-7.07743e-15
-6.94675e-15
-7.07564e-15
-6.97377e-15
-7.07688e-15
-6.9829e-15
-7.06586e-15
-6.97408e-15
-7.07153e-15
-6.97693e-15
-7.06448e-15
-6.97706e-15
-7.02959e-15
-6.9747e-15
-7.02547e-15
-6.97055e-15
-7.02239e-15
-6.94944e-15
-7.02067e-15
-6.92587e-15
-7.02088e-15
-6.91438e-15
-7.0384e-15
-6.91494e-15
-7.0286e-15
-6.91227e-15
-7.02155e-15
-6.93686e-15
-7.01614e-15
-6.94408e-15
-7.00426e-15
-6.92669e-15
-7.00136e-15
-6.89237e-15
-7.00043e-15
-6.87859e-15
-7.00161e-15
-6.87745e-15
-7.00499e-15
-6.87366e-15
-7.00301e-15
-6.86733e-15
-6.99571e-15
-6.88154e-15
-6.98266e-15
-6.85482e-15
-6.97169e-15
-6.81784e-15
-6.96299e-15
-6.81683e-15
-6.94869e-15
-6.82891e-15
-6.94384e-15
-6.83904e-15
-6.94044e-15
-6.84752e-15
-6.93836e-15
-6.83111e-15
-6.92212e-15
-6.80515e-15
-6.91518e-15
-6.7929e-15
-6.91757e-15
-6.76302e-15
-6.91389e-15
-6.74642e-15
-6.91202e-15
-6.72735e-15
-6.91203e-15
-6.71355e-15
-6.89824e-15
-6.71293e-15
-6.8861e-15
-6.71004e-15
-6.89119e-15
-6.72064e-15
-6.89771e-15
-6.71343e-15
-6.89786e-15
-6.71983e-15
-6.88365e-15
-6.7321e-15
-6.88633e-15
-6.72692e-15
-6.89017e-15
-6.73581e-15
-6.88724e-15
-6.7431e-15
-6.90101e-15
-6.75681e-15
-6.9078e-15
-6.76913e-15
-6.91544e-15
-6.7802e-15
-6.92389e-15
-6.7783e-15
-6.93318e-15
-6.77525e-15
-6.92761e-15
-6.78677e-15
-6.92676e-15
-6.78935e-15
-6.94234e-15
-6.79487e-15
-6.95471e-15
-6.81117e-15
-6.95991e-15
-6.82265e-15
-6.96575e-15
-6.82545e-15
-6.96831e-15
-6.82749e-15
-6.97146e-15
-6.82488e-15
-6.97913e-15
-6.82546e-15
-6.97957e-15
-6.8214e-15
-6.98451e-15
-6.8166e-15
-6.97444e-15
-6.82273e-15
-6.9766e-15
-6.82037e-15
-6.97537e-15
-6.81734e-15
-6.97464e-15
-6.82532e-15
-6.97435e-15
-6.82106e-15
-6.97449e-15
-6.81623e-15
-6.97503e-15
-6.81082e-15
-6.976e-15
-6.81254e-15
-6.97738e-15
-6.81755e-15
-6.9753e-15
-6.82202e-15
-6.97738e-15
-6.81832e-15
-6.97598e-15
-6.81413e-15
-6.97493e-15
-6.82088e-15
-6.97417e-15
-6.83477e-15
-6.97745e-15
-6.84064e-15
-6.97717e-15
-6.83858e-15
-6.98089e-15
-6.8437e-15
-6.98482e-15
-6.84095e-15
-6.99269e-15
-6.84535e-15
-6.99144e-15
-6.8438e-15
-6.99041e-15
-6.84379e-15
-6.99885e-15
-6.84903e-15
-7.00378e-15
-6.84289e-15
-6.99972e-15
-6.83645e-15
-6.99956e-15
-6.83888e-15
-6.9996e-15
-6.84283e-15
-7.00528e-15
-6.84286e-15
-7.00571e-15
-6.84623e-15
-7.0045e-15
-6.85112e-15
-7.00705e-15
-6.85216e-15
-7.01153e-15
-6.85296e-15
-7.01615e-15
-6.85353e-15
-7.01914e-15
-6.85034e-15
-7.02052e-15
-6.84869e-15
-7.02032e-15
-6.85381e-15
-7.02374e-15
-6.85869e-15
-7.02383e-15
-6.86508e-15
-7.02406e-15
-6.87124e-15
-7.02612e-15
-6.8755e-15
-7.02659e-15
-6.87788e-15
-7.02549e-15
-6.88178e-15
-7.02617e-15
-6.88384e-15
-7.03194e-15
-6.88244e-15
-7.03612e-15
-6.88258e-15
-7.04037e-15
-6.88585e-15
-7.0382e-15
-6.89061e-15
-7.04258e-15
-6.89361e-15
-7.04542e-15
-6.89648e-15
-7.04833e-15
-6.89764e-15
-7.04972e-15
-6.90184e-15
-7.05508e-15
-6.90279e-15
-7.05816e-15
-6.90288e-15
-7.06129e-15
-6.9067e-15
-7.06446e-15
-6.91042e-15
-7.06768e-15
-6.91402e-15
-7.06945e-15
-6.91602e-15
-7.07421e-15
-6.91499e-15
-7.07754e-15
-6.91608e-15
-7.08018e-15
-6.91783e-15
-7.08285e-15
-6.91949e-15
-7.08555e-15
-6.92107e-15
-7.08898e-15
-6.92258e-15
-7.09244e-15
-6.92194e-15
-7.09522e-15
-6.92057e-15
-7.09736e-15
-6.92185e-15
-7.09887e-15
-6.92373e-15
-7.09975e-15
-6.92423e-15
-7.10197e-15
-6.92337e-15
-7.10676e-15
-6.92247e-15
-7.10902e-15
-6.92217e-15
-7.1113e-15
-6.92244e-15
-7.11237e-15
-6.92266e-15
-7.11348e-15
-6.92344e-15
-7.11461e-15
-6.92297e-15
-7.11578e-15
-6.92247e-15
-7.11811e-15
-6.92251e-15
-7.11932e-15
-6.92363e-15
-7.12028e-15
-6.92414e-15
-7.12153e-15
-6.92379e-15
-7.1228e-15
-6.92367e-15
-7.12408e-15
-6.92405e-15
-7.12486e-15
-6.92412e-15
-7.12592e-15
-6.92341e-15
-7.12772e-15
-6.9222e-15
-7.12856e-15
-6.92242e-15
-7.12941e-15
-6.92352e-15
-7.1296e-15
-6.92457e-15
-7.13004e-15
-6.9249e-15
-7.13114e-15
-6.92498e-15
-7.13099e-15
-6.92482e-15
-7.13168e-15
-6.92525e-15
-7.13219e-15
-6.92585e-15
-7.13232e-15
-6.92582e-15
-7.13228e-15
-6.92559e-15
-7.13246e-15
-6.9257e-15
-7.13283e-15
-6.92597e-15
-7.13303e-15
-6.9262e-15
-7.13293e-15
-6.92641e-15
-7.13301e-15
-6.92644e-15
-7.13303e-15
-6.92636e-15
-7.13277e-15
-6.92657e-15
-7.13261e-15
-6.92676e-15
-7.13282e-15
-6.92692e-15
-7.13284e-15
-6.92699e-15
-7.13275e-15
-6.92699e-15
-7.13268e-15
-6.92696e-15
-7.13262e-15
-6.92693e-15
-7.13264e-15
-6.92688e-15
-7.13274e-15
-6.92688e-15
-7.13267e-15
-6.92702e-15
-7.13268e-15
-6.92705e-15
-7.13265e-15
-6.92701e-15
-7.13268e-15
-6.92696e-15
-7.13265e-15
-6.92705e-15
-7.13261e-15
-6.92706e-15
-7.13265e-15
-6.927e-15
-7.13263e-15
-6.92709e-15
-7.13254e-15
-6.92716e-15
-7.13247e-15
-6.92715e-15
-7.1324e-15
-6.92716e-15
-7.13235e-15
-6.92721e-15
-7.1323e-15
-6.92727e-15
-7.1323e-15
-6.92732e-15
-7.13225e-15
-6.92736e-15
-7.13223e-15
-6.92737e-15
-7.13223e-15
-6.92738e-15
-7.13222e-15
-6.92739e-15
-7.13224e-15
-6.92739e-15
-7.13226e-15
-6.92739e-15
-7.13226e-15
-6.92738e-15
-7.13226e-15
-6.92739e-15
-7.13226e-15
-6.92739e-15
-7.13227e-15
-6.92738e-15
)
;

boundaryField
{
    walls
    {
        type            zeroGradient;
    }
    inlet
    {
        type            cyclic;
    }
    outlet
    {
        type            cyclic;
    }
    sides
    {
        type            empty;
    }
}


// ************************************************************************* //
