/*--------------------------------*- C++ -*----------------------------------*\
| =========                 |                                                 |
| \\      /  F ield         | OpenFOAM: The Open Source CFD Toolbox           |
|  \\    /   O peration     | Version:  2106                                  |
|   \\  /    A nd           | Website:  www.openfoam.com                      |
|    \\/     M anipulation  |                                                 |
\*---------------------------------------------------------------------------*/
FoamFile
{
    version     2.0;
    format      ascii;
    arch        "LSB;label=32;scalar=64";
    class       volSymmTensorField;
    location    "10090";
    object      turbulenceProperties:R;
}
// * * * * * * * * * * * * * * * * * * * * * * * * * * * * * * * * * * * * * //

dimensions      [0 2 -2 0 0 0 0];

internalField   nonuniform List<symmTensor> 
2000
(
(7.06615e-07 -1.74669e-10 -3.23279e-13 7.06615e-07 2.85363e-26 7.06615e-07)
(7.06615e-07 -1.74669e-10 -3.23279e-13 7.06615e-07 -4.43376e-25 7.06615e-07)
(1.483e-07 -2.11173e-10 -1.1799e-12 1.483e-07 -1.0509e-25 1.483e-07)
(1.483e-07 -2.11173e-10 -1.1799e-12 1.483e-07 -4.71062e-25 1.483e-07)
(3.55954e-07 -1.5007e-09 -1.1634e-11 3.55954e-07 -4.72354e-25 3.55954e-07)
(3.55954e-07 -1.5007e-09 -1.1634e-11 3.55954e-07 -2.58858e-25 3.55954e-07)
(1.22044e-06 -1.09543e-08 -8.65075e-11 1.22044e-06 -2.56377e-24 1.22044e-06)
(1.22044e-06 -1.09543e-08 -8.65075e-11 1.22044e-06 -1.91305e-24 1.22044e-06)
(3.19166e-06 -5.07371e-08 -4.0815e-10 3.19166e-06 -1.80558e-23 3.19166e-06)
(3.19166e-06 -5.07371e-08 -4.0815e-10 3.19166e-06 -8.99183e-24 3.19166e-06)
(6.86893e-06 -1.72528e-07 -1.41375e-09 6.86893e-06 -6.61834e-23 6.86893e-06)
(6.86893e-06 -1.72528e-07 -1.41375e-09 6.86893e-06 -3.10152e-23 6.86893e-06)
(1.2969e-05 -4.76588e-07 -3.978e-09 1.2969e-05 -1.88663e-22 1.2969e-05)
(1.2969e-05 -4.76588e-07 -3.978e-09 1.2969e-05 -8.67756e-23 1.2969e-05)
(2.23223e-05 -1.13565e-06 -9.65505e-09 2.23223e-05 -4.60136e-22 2.23223e-05)
(2.23223e-05 -1.13565e-06 -9.65505e-09 2.23223e-05 -2.08941e-22 2.23223e-05)
(3.58716e-05 -2.42298e-06 -2.09806e-08 3.58716e-05 -1.00028e-21 3.58716e-05)
(3.58716e-05 -2.42298e-06 -2.09806e-08 3.58716e-05 -4.48766e-22 3.58716e-05)
(5.46664e-05 -4.74258e-06 -4.18213e-08 5.46664e-05 -1.98677e-21 5.46664e-05)
(5.46664e-05 -4.74258e-06 -4.18213e-08 5.46664e-05 -8.78675e-22 5.46664e-05)
(7.98498e-05 -8.65769e-06 -7.77395e-08 7.98498e-05 -3.66125e-21 7.98498e-05)
(7.98498e-05 -8.65769e-06 -7.77395e-08 7.98498e-05 -1.59067e-21 7.98498e-05)
(0.000112634 -1.49109e-05 -1.36309e-07 0.000112634 -6.32336e-21 0.000112634)
(0.000112634 -1.49109e-05 -1.36309e-07 0.000112634 -2.6886e-21 0.000112634)
(0.000154259 -2.44271e-05 -2.2729e-07 0.000154259 -1.02956e-20 0.000154259)
(0.000154259 -2.44271e-05 -2.2729e-07 0.000154259 -4.25634e-21 0.000154259)
(0.000205936 -3.82887e-05 -3.62541e-07 0.000205936 -1.58688e-20 0.000205936)
(0.000205936 -3.82887e-05 -3.62541e-07 0.000205936 -6.31021e-21 0.000205936)
(0.000268769 -5.76738e-05 -5.55554e-07 0.000268769 -2.31948e-20 0.000268769)
(0.000268769 -5.76738e-05 -5.55554e-07 0.000268769 -8.76145e-21 0.000268769)
(0.000343658 -8.37546e-05 -8.20535e-07 0.000343658 -3.21679e-20 0.000343658)
(0.000343658 -8.37546e-05 -8.20535e-07 0.000343658 -1.13376e-20 0.000343658)
(0.000431202 -0.000117562 -1.17107e-06 0.000431202 -4.23545e-20 0.000431202)
(0.000431202 -0.000117562 -1.17107e-06 0.000431202 -1.35324e-20 0.000431202)
(0.000531603 -0.000159836 -1.61856e-06 0.000531603 -5.29045e-20 0.000531603)
(0.000531603 -0.000159836 -1.61856e-06 0.000531603 -1.46604e-20 0.000531603)
(0.000644595 -0.000210894 -2.17065e-06 0.000644595 -6.26672e-20 0.000644595)
(0.000644595 -0.000210894 -2.17065e-06 0.000644595 -1.38645e-20 0.000644595)
(0.000769419 -0.000270544 -2.83015e-06 0.000769419 -7.03641e-20 0.000769419)
(0.000769419 -0.000270544 -2.83015e-06 0.000769419 -1.02764e-20 0.000769419)
(0.000904837 -0.000338079 -3.59458e-06 0.000904837 -7.48061e-20 0.000904837)
(0.000904837 -0.000338079 -3.59458e-06 0.000904837 -3.35381e-21 0.000904837)
(0.00104922 -0.000412338 -4.4565e-06 0.00104922 -7.52512e-20 0.00104922)
(0.00104922 -0.000412338 -4.4565e-06 0.00104922 7.35694e-21 0.00104922)
(0.00120064 -0.000491841 -5.4045e-06 0.00120064 -7.16017e-20 0.00120064)
(0.00120064 -0.000491841 -5.4045e-06 0.00120064 2.19105e-20 0.00120064)
(0.00135704 -0.000574943 -6.42465e-06 0.00135704 -6.42659e-20 0.00135704)
(0.00135704 -0.000574943 -6.42465e-06 0.00135704 3.97259e-20 0.00135704)
(0.00151633 -0.000659995 -7.50197e-06 0.00151633 -5.42877e-20 0.00151633)
(0.00151633 -0.000659995 -7.50197e-06 0.00151633 6.01742e-20 0.00151633)
(0.00167655 -0.000745471 -8.62173e-06 0.00167655 -4.28376e-20 0.00167655)
(0.00167655 -0.000745471 -8.62173e-06 0.00167655 8.20824e-20 0.00167655)
(0.00183592 -0.000830053 -9.77044e-06 0.00183592 -3.13917e-20 0.00183592)
(0.00183592 -0.000830053 -9.77044e-06 0.00183592 1.05067e-19 0.00183592)
(0.0019929 -0.000912675 -1.09364e-05 0.0019929 -2.1603e-20 0.0019929)
(0.0019929 -0.000912675 -1.09364e-05 0.0019929 1.28172e-19 0.0019929)
(0.00214626 -0.000992525 -1.21101e-05 0.00214626 -1.4208e-20 0.00214626)
(0.00214626 -0.000992525 -1.21101e-05 0.00214626 1.49879e-19 0.00214626)
(0.00229501 -0.00106903 -1.32839e-05 0.00229501 -1.02996e-20 0.00229501)
(0.00229501 -0.00106903 -1.32839e-05 0.00229501 1.70549e-19 0.00229501)
(0.00243843 -0.00114184 -1.44522e-05 0.00243843 -1.05943e-20 0.00243843)
(0.00243843 -0.00114184 -1.44522e-05 0.00243843 1.89797e-19 0.00243843)
(0.00257601 -0.00121074 -1.56111e-05 0.00257601 -1.58947e-20 0.00257601)
(0.00257601 -0.00121074 -1.56111e-05 0.00257601 2.07044e-19 0.00257601)
(0.00270747 -0.00127568 -1.6758e-05 0.00270747 -2.57622e-20 0.00270747)
(0.00270747 -0.00127568 -1.6758e-05 0.00270747 2.22797e-19 0.00270747)
(0.00283265 -0.00133669 -1.78914e-05 0.00283265 -3.99563e-20 0.00283265)
(0.00283265 -0.00133669 -1.78914e-05 0.00283265 2.37395e-19 0.00283265)
(0.00295154 -0.00139387 -1.90108e-05 0.00295154 -5.9274e-20 0.00295154)
(0.00295154 -0.00139387 -1.90108e-05 0.00295154 2.49013e-19 0.00295154)
(0.0030642 -0.00144739 -2.01161e-05 0.0030642 -8.34305e-20 0.0030642)
(0.0030642 -0.00144739 -2.01161e-05 0.0030642 2.58578e-19 0.0030642)
(0.00317078 -0.00149741 -2.12079e-05 0.00317078 -1.11752e-19 0.00317078)
(0.00317078 -0.00149741 -2.12079e-05 0.00317078 2.67076e-19 0.00317078)
(0.0032715 -0.00154414 -2.22869e-05 0.0032715 -1.45993e-19 0.0032715)
(0.0032715 -0.00154414 -2.22869e-05 0.0032715 2.75389e-19 0.0032715)
(0.00336657 -0.00158778 -2.33544e-05 0.00336657 -1.84796e-19 0.00336657)
(0.00336657 -0.00158778 -2.33544e-05 0.00336657 2.86405e-19 0.00336657)
(0.00345627 -0.00162853 -2.44114e-05 0.00345627 -2.26755e-19 0.00345627)
(0.00345627 -0.00162853 -2.44114e-05 0.00345627 2.95714e-19 0.00345627)
(0.00354085 -0.0016666 -2.54594e-05 0.00354085 -2.72028e-19 0.00354085)
(0.00354085 -0.0016666 -2.54594e-05 0.00354085 3.02287e-19 0.00354085)
(0.0036206 -0.00170217 -2.64996e-05 0.0036206 -3.21755e-19 0.0036206)
(0.0036206 -0.00170217 -2.64996e-05 0.0036206 3.12875e-19 0.0036206)
(0.00369577 -0.00173543 -2.75334e-05 0.00369577 -3.75512e-19 0.00369577)
(0.00369577 -0.00173543 -2.75334e-05 0.00369577 3.23718e-19 0.00369577)
(0.00376665 -0.00176653 -2.85621e-05 0.00376665 -4.29406e-19 0.00376665)
(0.00376665 -0.00176653 -2.85621e-05 0.00376665 3.3041e-19 0.00376665)
(0.00383347 -0.00179565 -2.95871e-05 0.00383347 -4.83738e-19 0.00383347)
(0.00383347 -0.00179565 -2.95871e-05 0.00383347 3.35885e-19 0.00383347)
(0.0038965 -0.00182293 -3.06096e-05 0.0038965 -5.43476e-19 0.0038965)
(0.0038965 -0.00182293 -3.06096e-05 0.0038965 3.46103e-19 0.0038965)
(0.00395595 -0.0018485 -3.16307e-05 0.00395595 -6.09342e-19 0.00395595)
(0.00395595 -0.0018485 -3.16307e-05 0.00395595 3.59967e-19 0.00395595)
(0.00401206 -0.00187249 -3.26518e-05 0.00401206 -6.78024e-19 0.00401206)
(0.00401206 -0.00187249 -3.26518e-05 0.00401206 3.6426e-19 0.00401206)
(0.00406503 -0.00189501 -3.36738e-05 0.00406503 -7.46866e-19 0.00406503)
(0.00406503 -0.00189501 -3.36738e-05 0.00406503 3.69756e-19 0.00406503)
(0.00411506 -0.00191617 -3.46979e-05 0.00411506 -8.20455e-19 0.00411506)
(0.00411506 -0.00191617 -3.46979e-05 0.00411506 3.98953e-19 0.00411506)
(0.00416233 -0.00193606 -3.5725e-05 0.00416233 -8.92209e-19 0.00416233)
(0.00416233 -0.00193606 -3.5725e-05 0.00416233 4.24128e-19 0.00416233)
(0.00420701 -0.00195479 -3.67562e-05 0.00420701 -9.69062e-19 0.00420701)
(0.00420701 -0.00195479 -3.67562e-05 0.00420701 4.21684e-19 0.00420701)
(0.00424925 -0.00197241 -3.77923e-05 0.00424925 -1.05726e-18 0.00424925)
(0.00424925 -0.00197241 -3.77923e-05 0.00424925 4.30843e-19 0.00424925)
(0.00428922 -0.00198902 -3.88341e-05 0.00428922 -1.1461e-18 0.00428922)
(0.00428922 -0.00198902 -3.88341e-05 0.00428922 4.46653e-19 0.00428922)
(0.00432705 -0.00200469 -3.98826e-05 0.00432705 -1.2334e-18 0.00432705)
(0.00432705 -0.00200469 -3.98826e-05 0.00432705 4.47853e-19 0.00432705)
(0.00436286 -0.00201946 -4.09385e-05 0.00436286 -1.32198e-18 0.00436286)
(0.00436286 -0.00201946 -4.09385e-05 0.00436286 4.5581e-19 0.00436286)
(0.00439678 -0.00203341 -4.20026e-05 0.00439678 -1.42125e-18 0.00439678)
(0.00439678 -0.00203341 -4.20026e-05 0.00439678 4.64961e-19 0.00439678)
(0.00442891 -0.00204658 -4.30756e-05 0.00442891 -1.52194e-18 0.00442891)
(0.00442891 -0.00204658 -4.30756e-05 0.00442891 4.8937e-19 0.00442891)
(0.00445937 -0.00205903 -4.41582e-05 0.00445937 -1.61523e-18 0.00445937)
(0.00445937 -0.00205903 -4.41582e-05 0.00445937 5.42196e-19 0.00445937)
(0.00448824 -0.0020708 -4.52512e-05 0.00448824 -1.69931e-18 0.00448824)
(0.00448824 -0.0020708 -4.52512e-05 0.00448824 5.97755e-19 0.00448824)
(0.00451563 -0.00208193 -4.6355e-05 0.00451563 -1.80401e-18 0.00451563)
(0.00451563 -0.00208193 -4.6355e-05 0.00451563 6.24615e-19 0.00451563)
(0.0045416 -0.00209246 -4.74704e-05 0.0045416 -1.91955e-18 0.0045416)
(0.0045416 -0.00209246 -4.74704e-05 0.0045416 6.16595e-19 0.0045416)
(0.00456624 -0.00210243 -4.8598e-05 0.00456624 -2.01742e-18 0.00456624)
(0.00456624 -0.00210243 -4.8598e-05 0.00456624 6.39979e-19 0.00456624)
(0.00458961 -0.00211187 -4.97383e-05 0.00458961 -2.125e-18 0.00458961)
(0.00458961 -0.00211187 -4.97383e-05 0.00458961 6.96121e-19 0.00458961)
(0.0046118 -0.0021208 -5.08919e-05 0.0046118 -2.24469e-18 0.0046118)
(0.0046118 -0.0021208 -5.08919e-05 0.0046118 7.22807e-19 0.0046118)
(0.00463286 -0.00212926 -5.20595e-05 0.00463286 -2.36725e-18 0.00463286)
(0.00463286 -0.00212926 -5.20595e-05 0.00463286 7.39287e-19 0.00463286)
(0.00465284 -0.00213727 -5.32414e-05 0.00465284 -2.5047e-18 0.00465284)
(0.00465284 -0.00213727 -5.32414e-05 0.00465284 7.74331e-19 0.00465284)
(0.0046718 -0.00214486 -5.44383e-05 0.0046718 -2.64705e-18 0.0046718)
(0.0046718 -0.00214486 -5.44383e-05 0.0046718 8.28498e-19 0.0046718)
(0.0046898 -0.00215205 -5.56507e-05 0.0046898 -2.78246e-18 0.0046898)
(0.0046898 -0.00215205 -5.56507e-05 0.0046898 8.62711e-19 0.0046898)
(0.00470687 -0.00215886 -5.68791e-05 0.00470687 -2.92653e-18 0.00470687)
(0.00470687 -0.00215886 -5.68791e-05 0.00470687 8.61196e-19 0.00470687)
(0.00472307 -0.0021653 -5.81239e-05 0.00472307 -3.08152e-18 0.00472307)
(0.00472307 -0.0021653 -5.81239e-05 0.00472307 8.50606e-19 0.00472307)
(0.00473843 -0.0021714 -5.93857e-05 0.00473843 -3.25675e-18 0.00473843)
(0.00473843 -0.0021714 -5.93857e-05 0.00473843 9.10967e-19 0.00473843)
(0.00475299 -0.00217718 -6.0665e-05 0.00475299 -3.42051e-18 0.00475299)
(0.00475299 -0.00217718 -6.0665e-05 0.00475299 1.00324e-18 0.00475299)
(0.0047668 -0.00218264 -6.19622e-05 0.0047668 -3.55336e-18 0.0047668)
(0.0047668 -0.00218264 -6.19622e-05 0.0047668 1.03779e-18 0.0047668)
(0.00477987 -0.0021878 -6.32778e-05 0.00477987 -3.71309e-18 0.00477987)
(0.00477987 -0.0021878 -6.32778e-05 0.00477987 1.04403e-18 0.00477987)
(0.00479225 -0.00219268 -6.46123e-05 0.00479225 -3.89788e-18 0.00479225)
(0.00479225 -0.00219268 -6.46123e-05 0.00479225 1.01878e-18 0.00479225)
(0.00480396 -0.00219728 -6.59661e-05 0.00480396 -4.05312e-18 0.00480396)
(0.00480396 -0.00219728 -6.59661e-05 0.00480396 9.72886e-19 0.00480396)
(0.00481503 -0.00220163 -6.73397e-05 0.00481503 -4.19373e-18 0.00481503)
(0.00481503 -0.00220163 -6.73397e-05 0.00481503 1.07434e-18 0.00481503)
(0.00482548 -0.00220572 -6.87336e-05 0.00482548 -4.3959e-18 0.00482548)
(0.00482548 -0.00220572 -6.87336e-05 0.00482548 1.24391e-18 0.00482548)
(0.00483535 -0.00220958 -7.01481e-05 0.00483535 -4.46043e-18 0.00483535)
(0.00483535 -0.00220958 -7.01481e-05 0.00483535 1.23271e-18 0.00483535)
(0.00484464 -0.0022132 -7.15838e-05 0.00484464 -4.30416e-18 0.00484464)
(0.00484464 -0.0022132 -7.15838e-05 0.00484464 1.16399e-18 0.00484464)
(0.00485339 -0.0022166 -7.30411e-05 0.00485339 1.08345e-19 0.00485339)
(0.00485339 -0.0022166 -7.30411e-05 0.00485339 1.18916e-18 0.00485339)
(0.00486162 -0.00221979 -7.45204e-05 0.00486162 1.29001e-18 0.00486162)
(0.00486162 -0.00221979 -7.45204e-05 0.00486162 1.42491e-18 0.00486162)
(0.00486933 -0.00222277 -7.60222e-05 0.00486933 1.41963e-18 0.00486933)
(0.00486933 -0.00222277 -7.60222e-05 0.00486933 1.56836e-18 0.00486933)
(0.00487655 -0.00222555 -7.75469e-05 0.00487655 1.3585e-18 0.00487655)
(0.00487655 -0.00222555 -7.75469e-05 0.00487655 1.4073e-18 0.00487655)
(0.0048833 -0.00222814 -7.90949e-05 0.0048833 1.21986e-18 0.0048833)
(0.0048833 -0.00222814 -7.90949e-05 0.0048833 1.38614e-18 0.0048833)
(0.00488958 -0.00223054 -8.06667e-05 0.00488958 1.18827e-18 0.00488958)
(0.00488958 -0.00223054 -8.06667e-05 0.00488958 1.57813e-18 0.00488958)
(0.00489543 -0.00223276 -8.22628e-05 0.00489543 1.224e-18 0.00489543)
(0.00489543 -0.00223276 -8.22628e-05 0.00489543 1.66195e-18 0.00489543)
(0.00490084 -0.0022348 -8.38834e-05 0.00490084 1.21584e-18 0.00490084)
(0.00490084 -0.0022348 -8.38834e-05 0.00490084 1.6669e-18 0.00490084)
(0.00490583 -0.00223667 -8.55292e-05 0.00490583 1.24134e-18 0.00490583)
(0.00490583 -0.00223667 -8.55292e-05 0.00490583 1.7922e-18 0.00490583)
(0.00491041 -0.00223838 -8.72005e-05 0.00491041 1.19968e-18 0.00491041)
(0.00491041 -0.00223838 -8.72005e-05 0.00491041 1.86579e-18 0.00491041)
(0.00491459 -0.00223993 -8.88978e-05 0.00491459 1.15294e-18 0.00491459)
(0.00491459 -0.00223993 -8.88978e-05 0.00491459 1.84632e-18 0.00491459)
(0.00491839 -0.00224132 -9.06214e-05 0.00491839 1.06305e-18 0.00491839)
(0.00491839 -0.00224132 -9.06214e-05 0.00491839 1.90817e-18 0.00491839)
(0.00492182 -0.00224255 -9.23719e-05 0.00492182 1.04693e-18 0.00492182)
(0.00492182 -0.00224255 -9.23719e-05 0.00492182 2.05145e-18 0.00492182)
(0.00492487 -0.00224363 -9.41496e-05 0.00492487 1.0817e-18 0.00492487)
(0.00492487 -0.00224363 -9.41496e-05 0.00492487 2.03986e-18 0.00492487)
(0.00492757 -0.00224457 -9.5955e-05 0.00492757 9.33068e-19 0.00492757)
(0.00492757 -0.00224457 -9.5955e-05 0.00492757 2.04021e-18 0.00492757)
(0.00492991 -0.00224536 -9.77884e-05 0.00492991 1.13691e-18 0.00492991)
(0.00492991 -0.00224536 -9.77884e-05 0.00492991 2.06419e-18 0.00492991)
(0.00493191 -0.00224601 -9.96504e-05 0.00493191 1.34364e-18 0.00493191)
(0.00493191 -0.00224601 -9.96504e-05 0.00493191 1.63416e-18 0.00493191)
(0.00493358 -0.00224652 -0.000101541 0.00493358 1.40221e-18 0.00493358)
(0.00493358 -0.00224652 -0.000101541 0.00493358 1.55821e-18 0.00493358)
(0.00493491 -0.00224689 -0.000103462 0.00493491 1.44962e-18 0.00493491)
(0.00493491 -0.00224689 -0.000103462 0.00493491 1.63559e-18 0.00493491)
(0.00493592 -0.00224713 -0.000105412 0.00493592 1.37185e-18 0.00493592)
(0.00493592 -0.00224713 -0.000105412 0.00493592 1.52639e-18 0.00493592)
(0.00493661 -0.00224724 -0.000107392 0.00493661 1.31398e-18 0.00493661)
(0.00493661 -0.00224724 -0.000107392 0.00493661 1.76469e-18 0.00493661)
(0.00493699 -0.00224722 -0.000109403 0.00493699 1.42234e-18 0.00493699)
(0.00493699 -0.00224722 -0.000109403 0.00493699 2.16309e-18 0.00493699)
(0.00493705 -0.00224706 -0.000111445 0.00493705 1.43057e-18 0.00493705)
(0.00493705 -0.00224706 -0.000111445 0.00493705 2.09239e-18 0.00493705)
(0.00493682 -0.00224678 -0.000113519 0.00493682 1.32289e-18 0.00493682)
(0.00493682 -0.00224678 -0.000113519 0.00493682 2.13334e-18 0.00493682)
(0.00493628 -0.00224638 -0.000115624 0.00493628 1.3737e-18 0.00493628)
(0.00493628 -0.00224638 -0.000115624 0.00493628 2.34153e-18 0.00493628)
(0.00493545 -0.00224585 -0.000117762 0.00493545 1.31747e-18 0.00493545)
(0.00493545 -0.00224585 -0.000117762 0.00493545 2.68118e-18 0.00493545)
(0.00493432 -0.00224519 -0.000119932 0.00493432 1.49909e-18 0.00493432)
(0.00493432 -0.00224519 -0.000119932 0.00493432 2.70301e-18 0.00493432)
(0.00493291 -0.00224441 -0.000122136 0.00493291 1.74574e-18 0.00493291)
(0.00493291 -0.00224441 -0.000122136 0.00493291 2.82119e-18 0.00493291)
(0.00493121 -0.00224351 -0.000124373 0.00493121 1.78727e-18 0.00493121)
(0.00493121 -0.00224351 -0.000124373 0.00493121 2.90227e-18 0.00493121)
(0.00492922 -0.00224249 -0.000126644 0.00492922 1.91071e-18 0.00492922)
(0.00492922 -0.00224249 -0.000126644 0.00492922 3.34777e-18 0.00492922)
(0.00492695 -0.00224135 -0.000128949 0.00492695 1.77286e-18 0.00492695)
(0.00492695 -0.00224135 -0.000128949 0.00492695 3.89266e-18 0.00492695)
(0.00492441 -0.00224009 -0.000131289 0.00492441 1.7254e-18 0.00492441)
(0.00492441 -0.00224009 -0.000131289 0.00492441 4.3293e-18 0.00492441)
(0.00492158 -0.0022387 -0.000133664 0.00492158 1.96082e-18 0.00492158)
(0.00492158 -0.0022387 -0.000133664 0.00492158 4.80893e-18 0.00492158)
(0.00491848 -0.0022372 -0.000136074 0.00491848 2.06721e-18 0.00491848)
(0.00491848 -0.0022372 -0.000136074 0.00491848 5.07131e-18 0.00491848)
(0.00491511 -0.00223558 -0.00013852 0.00491511 1.99193e-18 0.00491511)
(0.00491511 -0.00223558 -0.00013852 0.00491511 5.30754e-18 0.00491511)
(0.00491146 -0.00223384 -0.000141003 0.00491146 2.1317e-18 0.00491146)
(0.00491146 -0.00223384 -0.000141003 0.00491146 5.65841e-18 0.00491146)
(0.00490754 -0.00223198 -0.000143522 0.00490754 2.22192e-18 0.00490754)
(0.00490754 -0.00223198 -0.000143522 0.00490754 5.71303e-18 0.00490754)
(0.00490335 -0.00223 -0.000146078 0.00490335 2.28354e-18 0.00490335)
(0.00490335 -0.00223 -0.000146078 0.00490335 5.77363e-18 0.00490335)
(0.00489888 -0.0022279 -0.000148671 0.00489888 2.25849e-18 0.00489888)
(0.00489888 -0.0022279 -0.000148671 0.00489888 5.86883e-18 0.00489888)
(0.00489415 -0.00222568 -0.000151302 0.00489415 1.60252e-18 0.00489415)
(0.00489415 -0.00222568 -0.000151302 0.00489415 6.54762e-18 0.00489415)
(0.00488915 -0.00222334 -0.00015397 0.00488915 1.68655e-18 0.00488915)
(0.00488915 -0.00222334 -0.00015397 0.00488915 7.44882e-18 0.00488915)
(0.00488388 -0.00222088 -0.000156677 0.00488388 1.98435e-18 0.00488388)
(0.00488388 -0.00222088 -0.000156677 0.00488388 6.66962e-18 0.00488388)
(0.00487834 -0.00221829 -0.000159422 0.00487834 2.23745e-18 0.00487834)
(0.00487834 -0.00221829 -0.000159422 0.00487834 6.74999e-18 0.00487834)
(0.00487253 -0.00221559 -0.000162207 0.00487253 2.10465e-18 0.00487253)
(0.00487253 -0.00221559 -0.000162207 0.00487253 7.1053e-18 0.00487253)
(0.00486645 -0.00221277 -0.00016503 0.00486645 2.11838e-18 0.00486645)
(0.00486645 -0.00221277 -0.00016503 0.00486645 7.37789e-18 0.00486645)
(0.00486009 -0.00220982 -0.000167892 0.00486009 2.11163e-18 0.00486009)
(0.00486009 -0.00220982 -0.000167892 0.00486009 8.16454e-18 0.00486009)
(0.00485347 -0.00220675 -0.000170795 0.00485347 1.89416e-18 0.00485347)
(0.00485347 -0.00220675 -0.000170795 0.00485347 8.94332e-18 0.00485347)
(0.00484658 -0.00220355 -0.000173737 0.00484658 1.41078e-18 0.00484658)
(0.00484658 -0.00220355 -0.000173737 0.00484658 8.32015e-18 0.00484658)
(0.00483941 -0.00220023 -0.000176719 0.00483941 1.13945e-18 0.00483941)
(0.00483941 -0.00220023 -0.000176719 0.00483941 8.36634e-18 0.00483941)
(0.00483197 -0.00219678 -0.000179741 0.00483197 9.67707e-19 0.00483197)
(0.00483197 -0.00219678 -0.000179741 0.00483197 7.75007e-18 0.00483197)
(0.00482426 -0.0021932 -0.000182804 0.00482426 3.91297e-19 0.00482426)
(0.00482426 -0.0021932 -0.000182804 0.00482426 9.48815e-18 0.00482426)
(0.00481627 -0.0021895 -0.000185907 0.00481627 1.00192e-20 0.00481627)
(0.00481627 -0.0021895 -0.000185907 0.00481627 9.51476e-18 0.00481627)
(0.004808 -0.00218566 -0.000189052 0.004808 -1.99831e-18 0.004808)
(0.004808 -0.00218566 -0.000189052 0.004808 8.13046e-18 0.004808)
(0.00479946 -0.0021817 -0.000192237 0.00479946 -3.23893e-18 0.00479946)
(0.00479946 -0.0021817 -0.000192237 0.00479946 9.0489e-18 0.00479946)
(0.00479063 -0.0021776 -0.000195463 0.00479063 -2.10056e-18 0.00479063)
(0.00479063 -0.0021776 -0.000195463 0.00479063 9.92774e-18 0.00479063)
(0.00478152 -0.00217337 -0.00019873 0.00478152 -1.71919e-18 0.00478152)
(0.00478152 -0.00217337 -0.00019873 0.00478152 1.04151e-17 0.00478152)
(0.00477213 -0.00216901 -0.000202038 0.00477213 -1.92247e-18 0.00477213)
(0.00477213 -0.00216901 -0.000202038 0.00477213 1.11936e-17 0.00477213)
(0.00476245 -0.00216451 -0.000205387 0.00476245 -1.59613e-18 0.00476245)
(0.00476245 -0.00216451 -0.000205387 0.00476245 1.23217e-17 0.00476245)
(0.00475249 -0.00215987 -0.000208778 0.00475249 2.82997e-19 0.00475249)
(0.00475249 -0.00215987 -0.000208778 0.00475249 1.30882e-17 0.00475249)
(0.00474223 -0.00215509 -0.000212209 0.00474223 -1.3265e-19 0.00474223)
(0.00474223 -0.00215509 -0.000212209 0.00474223 1.34598e-17 0.00474223)
(0.00473168 -0.00215017 -0.000215682 0.00473168 -1.30602e-18 0.00473168)
(0.00473168 -0.00215017 -0.000215682 0.00473168 1.40042e-17 0.00473168)
(0.00472084 -0.00214511 -0.000219195 0.00472084 -1.4315e-18 0.00472084)
(0.00472084 -0.00214511 -0.000219195 0.00472084 1.41519e-17 0.00472084)
(0.0047097 -0.0021399 -0.000222749 0.0047097 1.18381e-19 0.0047097)
(0.0047097 -0.0021399 -0.000222749 0.0047097 1.40986e-17 0.0047097)
(0.00469826 -0.00213455 -0.000226344 0.00469826 2.01531e-19 0.00469826)
(0.00469826 -0.00213455 -0.000226344 0.00469826 1.43423e-17 0.00469826)
(0.00468652 -0.00212905 -0.000229979 0.00468652 -5.23248e-19 0.00468652)
(0.00468652 -0.00212905 -0.000229979 0.00468652 1.49611e-17 0.00468652)
(0.00467447 -0.00212339 -0.000233654 0.00467447 -1.71764e-19 0.00467447)
(0.00467447 -0.00212339 -0.000233654 0.00467447 1.5727e-17 0.00467447)
(0.00466212 -0.00211759 -0.00023737 0.00466212 1.22049e-19 0.00466212)
(0.00466212 -0.00211759 -0.00023737 0.00466212 1.66335e-17 0.00466212)
(0.00464945 -0.00211164 -0.000241124 0.00464945 -3.73455e-19 0.00464945)
(0.00464945 -0.00211164 -0.000241124 0.00464945 1.75374e-17 0.00464945)
(0.00463647 -0.00210552 -0.000244918 0.00463647 -2.98683e-19 0.00463647)
(0.00463647 -0.00210552 -0.000244918 0.00463647 1.69007e-17 0.00463647)
(0.00462318 -0.00209925 -0.00024875 0.00462318 2.13252e-19 0.00462318)
(0.00462318 -0.00209925 -0.00024875 0.00462318 1.79321e-17 0.00462318)
(0.00460956 -0.00209282 -0.000252621 0.00460956 -8.31988e-19 0.00460956)
(0.00460956 -0.00209282 -0.000252621 0.00460956 2.03547e-17 0.00460956)
(0.00459561 -0.00208623 -0.000256529 0.00459561 5.67809e-19 0.00459561)
(0.00459561 -0.00208623 -0.000256529 0.00459561 2.21964e-17 0.00459561)
(0.00458134 -0.00207947 -0.000260473 0.00458134 1.93793e-18 0.00458134)
(0.00458134 -0.00207947 -0.000260473 0.00458134 2.20688e-17 0.00458134)
(0.00456674 -0.00207254 -0.000264455 0.00456674 -3.35306e-19 0.00456674)
(0.00456674 -0.00207254 -0.000264455 0.00456674 1.94849e-17 0.00456674)
(0.00455181 -0.00206545 -0.000268472 0.00455181 -1.11299e-18 0.00455181)
(0.00455181 -0.00206545 -0.000268472 0.00455181 1.87287e-17 0.00455181)
(0.00453653 -0.00205818 -0.000272523 0.00453653 1.46875e-18 0.00453653)
(0.00453653 -0.00205818 -0.000272523 0.00453653 1.94152e-17 0.00453653)
(0.00452092 -0.00205074 -0.000276609 0.00452092 2.4313e-18 0.00452092)
(0.00452092 -0.00205074 -0.000276609 0.00452092 2.15094e-17 0.00452092)
(0.00450495 -0.00204312 -0.000280727 0.00450495 6.64054e-18 0.00450495)
(0.00450495 -0.00204312 -0.000280727 0.00450495 2.37708e-17 0.00450495)
(0.00448864 -0.00203532 -0.000284877 0.00448864 6.6556e-18 0.00448864)
(0.00448864 -0.00203532 -0.000284877 0.00448864 2.58e-17 0.00448864)
(0.00447197 -0.00202733 -0.000289058 0.00447197 7.33019e-18 0.00447197)
(0.00447197 -0.00202733 -0.000289058 0.00447197 2.31494e-17 0.00447197)
(0.00445494 -0.00201917 -0.000293269 0.00445494 4.26301e-18 0.00445494)
(0.00445494 -0.00201917 -0.000293269 0.00445494 1.42974e-17 0.00445494)
(0.00443755 -0.00201081 -0.000297508 0.00443755 2.19825e-18 0.00443755)
(0.00443755 -0.00201081 -0.000297508 0.00443755 1.49174e-17 0.00443755)
(0.00441979 -0.00200226 -0.000301773 0.00441979 4.24101e-18 0.00441979)
(0.00441979 -0.00200226 -0.000301773 0.00441979 1.52829e-17 0.00441979)
(0.00440166 -0.00199352 -0.000306065 0.00440166 1.98437e-18 0.00440166)
(0.00440166 -0.00199352 -0.000306065 0.00440166 1.42429e-17 0.00440166)
(0.00438315 -0.00198458 -0.00031038 0.00438315 3.58503e-18 0.00438315)
(0.00438315 -0.00198458 -0.00031038 0.00438315 1.13102e-17 0.00438315)
(0.00436426 -0.00197544 -0.000314717 0.00436426 4.10709e-18 0.00436426)
(0.00436426 -0.00197544 -0.000314717 0.00436426 1.0494e-17 0.00436426)
(0.00434498 -0.0019661 -0.000319074 0.00434498 4.40677e-18 0.00434498)
(0.00434498 -0.0019661 -0.000319074 0.00434498 1.43681e-17 0.00434498)
(0.00432531 -0.00195655 -0.000323451 0.00432531 3.13149e-18 0.00432531)
(0.00432531 -0.00195655 -0.000323451 0.00432531 1.58428e-17 0.00432531)
(0.00430525 -0.00194679 -0.000327843 0.00430525 3.09086e-18 0.00430525)
(0.00430525 -0.00194679 -0.000327843 0.00430525 1.37954e-17 0.00430525)
(0.00428478 -0.00193681 -0.00033225 0.00428478 1.608e-18 0.00428478)
(0.00428478 -0.00193681 -0.00033225 0.00428478 1.38685e-17 0.00428478)
(0.0042639 -0.00192662 -0.000336668 0.0042639 2.70109e-18 0.0042639)
(0.0042639 -0.00192662 -0.000336668 0.0042639 1.40979e-17 0.0042639)
(0.00424261 -0.00191621 -0.000341096 0.00424261 3.43426e-18 0.00424261)
(0.00424261 -0.00191621 -0.000341096 0.00424261 1.38702e-17 0.00424261)
(0.0042209 -0.00190557 -0.000345532 0.0042209 2.77891e-18 0.0042209)
(0.0042209 -0.00190557 -0.000345532 0.0042209 1.40792e-17 0.0042209)
(0.00419877 -0.00189471 -0.000349971 0.00419877 3.68999e-18 0.00419877)
(0.00419877 -0.00189471 -0.000349971 0.00419877 1.24838e-17 0.00419877)
(0.00417621 -0.00188361 -0.000354411 0.00417621 2.63779e-18 0.00417621)
(0.00417621 -0.00188361 -0.000354411 0.00417621 1.14231e-17 0.00417621)
(0.00415321 -0.00187228 -0.00035885 0.00415321 5.63673e-18 0.00415321)
(0.00415321 -0.00187228 -0.00035885 0.00415321 1.27053e-17 0.00415321)
(0.00412977 -0.00186071 -0.000363284 0.00412977 7.00217e-18 0.00412977)
(0.00412977 -0.00186071 -0.000363284 0.00412977 1.50108e-17 0.00412977)
(0.00410589 -0.0018489 -0.000367709 0.00410589 9.33738e-18 0.00410589)
(0.00410589 -0.0018489 -0.000367709 0.00410589 1.39726e-17 0.00410589)
(0.00408155 -0.00183684 -0.000372122 0.00408155 6.02833e-18 0.00408155)
(0.00408155 -0.00183684 -0.000372122 0.00408155 3.3188e-17 0.00408155)
(0.00405675 -0.00182453 -0.00037652 0.00405675 2.76335e-18 0.00405675)
(0.00405675 -0.00182453 -0.00037652 0.00405675 3.57541e-17 0.00405675)
(0.00403148 -0.00181196 -0.000380897 0.00403148 2.42221e-18 0.00403148)
(0.00403148 -0.00181196 -0.000380897 0.00403148 4.24564e-17 0.00403148)
(0.00400574 -0.00179913 -0.000385251 0.00400574 1.37151e-18 0.00400574)
(0.00400574 -0.00179913 -0.000385251 0.00400574 4.49371e-17 0.00400574)
(0.00397952 -0.00178604 -0.000389576 0.00397952 3.78036e-18 0.00397952)
(0.00397952 -0.00178604 -0.000389576 0.00397952 4.04265e-17 0.00397952)
(0.00395282 -0.00177268 -0.000393868 0.00395282 4.07052e-18 0.00395282)
(0.00395282 -0.00177268 -0.000393868 0.00395282 3.26141e-17 0.00395282)
(0.00392563 -0.00175904 -0.000398121 0.00392563 -8.93635e-19 0.00392563)
(0.00392563 -0.00175904 -0.000398121 0.00392563 2.29039e-17 0.00392563)
(0.00389794 -0.00174513 -0.000402332 0.00389794 -8.99062e-19 0.00389794)
(0.00389794 -0.00174513 -0.000402332 0.00389794 2.60698e-17 0.00389794)
(0.00386974 -0.00173093 -0.000406493 0.00386974 -1.08701e-18 0.00386974)
(0.00386974 -0.00173093 -0.000406493 0.00386974 3.51886e-17 0.00386974)
(0.00384103 -0.00171645 -0.000410601 0.00384103 -3.08967e-18 0.00384103)
(0.00384103 -0.00171645 -0.000410601 0.00384103 3.03514e-17 0.00384103)
(0.0038118 -0.00170167 -0.000414647 0.0038118 -5.86511e-18 0.0038118)
(0.0038118 -0.00170167 -0.000414647 0.0038118 2.43552e-17 0.0038118)
(0.00378205 -0.0016866 -0.000418627 0.00378205 -4.16623e-18 0.00378205)
(0.00378205 -0.0016866 -0.000418627 0.00378205 2.12065e-17 0.00378205)
(0.00375177 -0.00167122 -0.000422534 0.00375177 1.04284e-18 0.00375177)
(0.00375177 -0.00167122 -0.000422534 0.00375177 1.16668e-17 0.00375177)
(0.00372095 -0.00165554 -0.00042636 0.00372095 -1.92023e-20 0.00372095)
(0.00372095 -0.00165554 -0.00042636 0.00372095 4.64237e-18 0.00372095)
(0.00368958 -0.00163954 -0.000430098 0.00368958 -2.22383e-18 0.00368958)
(0.00368958 -0.00163954 -0.000430098 0.00368958 6.73778e-18 0.00368958)
(0.00365766 -0.00162323 -0.000433742 0.00365766 -1.74634e-19 0.00365766)
(0.00365766 -0.00162323 -0.000433742 0.00365766 9.03091e-18 0.00365766)
(0.00362519 -0.00160659 -0.000437282 0.00362519 9.39566e-19 0.00362519)
(0.00362519 -0.00160659 -0.000437282 0.00362519 -3.63952e-19 0.00362519)
(0.00359215 -0.00158961 -0.00044071 0.00359215 -1.68448e-18 0.00359215)
(0.00359215 -0.00158961 -0.00044071 0.00359215 3.21051e-18 0.00359215)
(0.00355854 -0.00157231 -0.000444018 0.00355854 6.68854e-18 0.00355854)
(0.00355854 -0.00157231 -0.000444018 0.00355854 -4.47614e-18 0.00355854)
(0.00352435 -0.00155466 -0.000447196 0.00352435 6.56421e-18 0.00352435)
(0.00352435 -0.00155466 -0.000447196 0.00352435 -9.08283e-18 0.00352435)
(0.00348958 -0.00153667 -0.000450235 0.00348958 -1.16681e-18 0.00348958)
(0.00348958 -0.00153667 -0.000450235 0.00348958 1.43269e-18 0.00348958)
(0.00345423 -0.00151832 -0.000453124 0.00345423 1.72563e-18 0.00345423)
(0.00345423 -0.00151832 -0.000453124 0.00345423 2.80717e-18 0.00345423)
(0.00341828 -0.00149961 -0.000455854 0.00341828 3.68257e-18 0.00341828)