/*--------------------------------*- C++ -*----------------------------------*\
| =========                 |                                                 |
| \\      /  F ield         | OpenFOAM: The Open Source CFD Toolbox           |
|  \\    /   O peration     | Version:  2106                                  |
|   \\  /    A nd           | Website:  www.openfoam.com                      |
|    \\/     M anipulation  |                                                 |
\*---------------------------------------------------------------------------*/
FoamFile
{
    version     2.0;
    format      ascii;
    arch        "LSB;label=32;scalar=64";
    class       volVectorField;
    location    "10090";
    object      U;
}
// * * * * * * * * * * * * * * * * * * * * * * * * * * * * * * * * * * * * * //

dimensions      [0 1 -1 0 0 0 0];

internalField   nonuniform List<vector> 
2000
(
(0.00569956 -1.00584e-15 -1.91838e-17)
(0.00569956 -1.3442e-18 4.49244e-18)
(0.0172029 -2.66511e-15 5.27855e-17)
(0.0172029 4.66146e-19 5.38345e-17)
(0.0289188 -2.73957e-15 5.59547e-17)
(0.0289188 -2.19675e-19 5.58448e-17)
(0.040851 -2.53788e-15 6.02385e-17)
(0.040851 -1.55707e-19 5.7912e-17)
(0.0530034 -2.50788e-15 6.47495e-17)
(0.0530034 -8.97238e-20 6.00474e-17)
(0.0653799 -2.51871e-15 6.94468e-17)
(0.0653799 -6.59454e-20 6.22534e-17)
(0.0779837 -2.52106e-15 7.43718e-17)
(0.0779837 -8.79342e-20 6.45301e-17)
(0.0908178 -2.52096e-15 7.9518e-17)
(0.0908178 -1.19164e-19 6.68747e-17)
(0.103884 -2.52118e-15 8.48703e-17)
(0.103884 -2.09661e-19 6.92825e-17)
(0.117181 -2.52175e-15 9.04121e-17)
(0.117181 -3.67515e-19 7.17422e-17)
(0.130706 -2.52244e-15 9.61195e-17)
(0.130706 -5.29364e-19 7.42338e-17)
(0.144452 -2.52312e-15 1.01957e-16)
(0.144452 -7.61407e-19 7.67319e-17)
(0.158407 -2.52364e-15 1.07876e-16)
(0.158407 -1.11136e-18 7.92049e-17)
(0.172551 -2.52417e-15 1.1381e-16)
(0.172551 -1.50625e-18 8.16018e-17)
(0.186857 -2.52461e-15 1.19674e-16)
(0.186857 -1.93723e-18 8.38656e-17)
(0.201289 -2.52504e-15 1.25373e-16)
(0.201289 -2.45476e-18 8.59376e-17)
(0.215802 -2.5256e-15 1.30799e-16)
(0.215802 -3.02699e-18 8.77517e-17)
(0.230342 -2.52608e-15 1.35847e-16)
(0.230342 -3.57547e-18 8.92485e-17)
(0.244852 -2.52657e-15 1.4042e-16)
(0.244852 -4.23521e-18 9.03811e-17)
(0.259267 -2.52707e-15 1.44447e-16)
(0.259267 -4.95738e-18 9.11127e-17)
(0.273524 -2.52749e-15 1.47881e-16)
(0.273524 -5.55457e-18 9.14309e-17)
(0.287563 -2.52797e-15 1.50713e-16)
(0.287563 -6.21459e-18 9.135e-17)
(0.301329 -2.52859e-15 1.52964e-16)
(0.301329 -7.04734e-18 9.08855e-17)
(0.314778 -2.52916e-15 1.54683e-16)
(0.314778 -7.96614e-18 9.00844e-17)
(0.327871 -2.52966e-15 1.55939e-16)
(0.327871 -9.0135e-18 8.89959e-17)
(0.340584 -2.53003e-15 1.56811e-16)
(0.340584 -9.95406e-18 8.76749e-17)
(0.352899 -2.53047e-15 1.57385e-16)
(0.352899 -1.09507e-17 8.61821e-17)
(0.364808 -2.53085e-15 1.57735e-16)
(0.364808 -1.22216e-17 8.45475e-17)
(0.37631 -2.53085e-15 1.57938e-16)
(0.37631 -1.339e-17 8.28329e-17)
(0.387409 -2.53073e-15 1.58057e-16)
(0.387409 -1.48623e-17 8.10718e-17)
(0.398115 -2.53047e-15 1.5815e-16)
(0.398115 -1.59373e-17 7.92934e-17)
(0.408439 -2.53041e-15 1.58259e-16)
(0.408439 -1.67446e-17 7.75166e-17)
(0.418398 -2.53037e-15 1.58419e-16)
(0.418398 -1.80404e-17 7.5763e-17)
(0.428005 -2.52993e-15 1.58657e-16)
(0.428005 -1.96192e-17 7.40375e-17)
(0.437278 -2.52924e-15 1.58996e-16)
(0.437278 -2.10952e-17 7.2351e-17)
(0.446234 -2.52834e-15 1.59452e-16)
(0.446234 -2.27735e-17 7.07225e-17)
(0.454889 -2.52681e-15 1.60038e-16)
(0.454889 -2.46632e-17 6.9153e-17)
(0.46326 -2.5253e-15 1.60768e-16)
(0.46326 -2.57488e-17 6.76456e-17)
(0.471363 -2.52404e-15 1.61642e-16)
(0.471363 -2.74899e-17 6.61758e-17)
(0.479211 -2.52274e-15 1.62664e-16)
(0.479211 -2.96057e-17 6.47404e-17)
(0.486821 -2.52121e-15 1.63835e-16)
(0.486821 -3.10899e-17 6.33514e-17)
(0.494205 -2.51985e-15 1.6516e-16)
(0.494205 -3.29754e-17 6.20026e-17)
(0.501375 -2.51916e-15 1.66631e-16)
(0.501375 -3.46969e-17 6.06682e-17)
(0.508345 -2.51834e-15 1.68244e-16)
(0.508345 -3.66833e-17 5.93644e-17)
(0.515125 -2.51656e-15 1.70002e-16)
(0.515125 -3.76798e-17 5.81076e-17)
(0.521725 -2.51449e-15 1.7191e-16)
(0.521725 -3.88745e-17 5.68751e-17)
(0.528156 -2.51267e-15 1.7396e-16)
(0.528156 -4.15153e-17 5.56481e-17)
(0.534426 -2.51086e-15 1.76161e-16)
(0.534426 -4.33031e-17 5.44424e-17)
(0.540545 -2.50874e-15 1.78512e-16)
(0.540545 -4.49826e-17 5.3294e-17)
(0.54652 -2.50664e-15 1.81006e-16)
(0.54652 -4.76264e-17 5.21444e-17)
(0.552359 -2.50365e-15 1.83649e-16)
(0.552359 -5.02863e-17 5.09186e-17)
(0.558068 -2.49992e-15 1.86441e-16)
(0.558068 -5.26509e-17 4.9726e-17)
(0.563655 -2.49667e-15 1.89393e-16)
(0.563655 -5.50036e-17 4.86044e-17)
(0.569125 -2.49376e-15 1.92495e-16)
(0.569125 -5.78818e-17 4.74553e-17)
(0.574484 -2.49064e-15 1.95749e-16)
(0.574484 -6.07758e-17 4.63502e-17)
(0.579738 -2.48706e-15 1.99153e-16)
(0.579738 -6.35678e-17 4.52817e-17)
(0.584891 -2.48407e-15 2.0271e-16)
(0.584891 -6.62686e-17 4.42274e-17)
(0.589948 -2.48164e-15 2.06416e-16)
(0.589948 -6.88228e-17 4.31966e-17)
(0.594914 -2.47859e-15 2.1027e-16)
(0.594914 -7.16851e-17 4.2103e-17)
(0.599794 -2.47392e-15 2.14273e-16)
(0.599794 -7.49165e-17 4.09108e-17)
(0.604589 -2.46966e-15 2.18417e-16)
(0.604589 -7.84697e-17 3.96635e-17)
(0.609306 -2.46651e-15 2.22709e-16)
(0.609306 -8.14411e-17 3.84596e-17)
(0.613946 -2.46217e-15 2.27146e-16)
(0.613946 -8.47235e-17 3.73363e-17)
(0.618514 -2.45711e-15 2.31749e-16)
(0.618514 -8.98134e-17 3.61174e-17)
(0.623012 -2.45184e-15 2.3651e-16)
(0.623012 -9.41715e-17 3.48635e-17)
(0.627443 -2.44586e-15 2.41457e-16)
(0.627443 -9.72984e-17 3.36552e-17)
(0.63181 -2.44019e-15 2.46589e-16)
(0.63181 -1.01927e-16 3.24388e-17)
(0.636116 -2.4347e-15 2.51909e-16)
(0.636116 -1.06821e-16 3.12104e-17)
(0.640363 -2.42876e-15 2.57427e-16)
(0.640363 -1.10715e-16 2.99139e-17)
(0.644553 -2.4225e-15 2.63129e-16)
(0.644553 -1.15439e-16 2.86687e-17)
(0.648689 -2.41609e-15 2.69049e-16)
(0.648689 -1.21142e-16 2.75041e-17)
(0.652773 -2.41159e-15 2.75177e-16)
(0.652773 -1.24082e-16 2.64387e-17)
(0.656807 -2.4082e-15 2.81474e-16)
(0.656807 -1.25847e-16 2.51472e-17)
(0.660792 -2.4033e-15 2.87968e-16)
(0.660792 -1.29656e-16 2.38101e-17)
(0.664731 -2.39825e-15 2.94657e-16)
(0.664731 -1.3263e-16 2.25164e-17)
(0.668625 -2.39421e-15 3.01558e-16)
(0.668625 -1.35418e-16 2.12801e-17)
(0.672476 -2.38967e-15 3.08667e-16)
(0.672476 -1.38477e-16 2.02012e-17)
(0.676285 -2.38386e-15 3.15964e-16)
(0.676285 -1.42512e-16 1.92252e-17)
(0.680054 -2.38001e-15 3.23462e-16)
(0.680054 -1.47086e-16 1.79356e-17)
(0.683784 -2.37056e-15 3.31154e-16)
(0.683784 -1.51385e-16 1.65641e-17)
(0.687477 -2.36621e-15 3.39052e-16)
(0.687477 -1.56045e-16 1.54316e-17)
(0.691134 -2.36084e-15 3.4572e-16)
(0.691134 -1.58944e-16 1.4452e-17)
(0.694756 -2.35338e-15 3.43964e-16)
(0.694756 -1.64786e-16 1.33707e-17)
(0.698345 -2.34474e-15 3.42031e-16)
(0.698345 -1.71117e-16 1.18044e-17)
(0.7019 -2.33587e-15 3.39993e-16)
(0.7019 -1.76547e-16 1.0483e-17)
(0.705425 -2.32711e-15 3.38334e-16)
(0.705425 -1.80487e-16 9.60774e-18)
(0.708918 -2.32375e-15 3.36776e-16)
(0.708918 -1.83377e-16 8.48448e-18)
(0.712383 -2.32288e-15 3.34868e-16)
(0.712383 -1.88077e-16 7.15288e-18)
(0.715819 -2.31742e-15 3.33059e-16)
(0.715819 -1.90093e-16 5.93315e-18)
(0.719227 -2.30913e-15 3.31559e-16)
(0.719227 -1.9388e-16 4.72362e-18)
(0.722609 -2.30347e-15 3.29925e-16)
(0.722609 -1.99599e-16 3.32062e-18)
(0.725964 -2.29792e-15 3.28391e-16)
(0.725964 -2.02337e-16 2.09391e-18)
(0.729295 -2.29198e-15 3.26926e-16)
(0.729295 -2.07638e-16 8.73712e-19)
(0.732601 -2.28533e-15 3.25728e-16)
(0.732601 -2.13113e-16 -3.13033e-19)
(0.735884 -2.27764e-15 3.24399e-16)
(0.735884 -2.17828e-16 -1.70878e-18)
(0.739144 -2.27276e-15 3.23222e-16)
(0.739144 -2.22617e-16 -2.65889e-18)
(0.742382 -2.26566e-15 3.22117e-16)
(0.742382 -2.2808e-16 -3.90056e-18)
(0.745598 -2.25748e-15 3.20571e-16)
(0.745598 -2.33511e-16 -4.66588e-18)
(0.748793 -2.24995e-15 3.19009e-16)
(0.748793 -2.38283e-16 -4.80305e-18)
(0.751968 -2.24143e-15 3.17276e-16)
(0.751968 -2.4481e-16 -4.83903e-18)
(0.755123 -2.2324e-15 3.15713e-16)
(0.755123 -2.51967e-16 -4.64002e-18)
(0.75826 -2.22266e-15 3.14286e-16)
(0.75826 -2.57474e-16 -4.24609e-18)
(0.761377 -2.21167e-15 3.12991e-16)
(0.761377 -2.65093e-16 -4.49112e-18)
(0.764477 -2.19983e-15 3.11422e-16)
(0.764477 -2.72998e-16 -4.80453e-18)
(0.767559 -2.18981e-15 3.10238e-16)
(0.767559 -2.79376e-16 -4.7375e-18)
(0.770624 -2.18039e-15 3.08815e-16)
(0.770624 -2.85965e-16 -4.60523e-18)
(0.773673 -2.17226e-15 3.07472e-16)
(0.773673 -2.91528e-16 -4.68793e-18)
(0.776705 -2.16199e-15 3.06102e-16)
(0.776705 -3.01393e-16 -5.09994e-18)
(0.779722 -2.15062e-15 3.04532e-16)
(0.779722 -3.09308e-16 -5.13388e-18)
(0.782723 -2.14054e-15 3.02658e-16)
(0.782723 -3.16187e-16 -4.90768e-18)
(0.78571 -2.12726e-15 3.00883e-16)
(0.78571 -3.25107e-16 -4.91128e-18)
(0.788682 -2.11534e-15 2.99084e-16)
(0.788682 -3.33831e-16 -5.42465e-18)
(0.79164 -2.10079e-15 2.9757e-16)
(0.79164 -3.43521e-16 -6.40223e-18)
(0.794585 -2.0831e-15 2.96249e-16)
(0.794585 -3.56634e-16 -7.50206e-18)
(0.797516 -2.06929e-15 2.94538e-16)
(0.797516 -3.66104e-16 -9.03355e-18)
(0.800434 -2.05667e-15 2.92524e-16)
(0.800434 -3.72943e-16 -1.0253e-17)
(0.80334 -2.03919e-15 2.90919e-16)
(0.80334 -3.82116e-16 -1.18714e-17)
(0.806233 -2.01668e-15 2.89202e-16)
(0.806233 -3.94321e-16 -1.34143e-17)
(0.809114 -1.99559e-15 2.88076e-16)
(0.809114 -4.0545e-16 -1.44053e-17)
(0.811984 -1.97604e-15 2.86073e-16)
(0.811984 -4.14161e-16 -1.53426e-17)
(0.814842 -1.96103e-15 2.84891e-16)
(0.814842 -4.22016e-16 -1.5918e-17)
(0.817689 -1.94455e-15 2.84014e-16)
(0.817689 -4.33743e-16 -1.79769e-17)
(0.820526 -1.92815e-15 2.82864e-16)
(0.820526 -4.46143e-16 -2.00204e-17)
(0.823351 -1.90978e-15 2.81269e-16)
(0.823351 -4.56261e-16 -2.03611e-17)
(0.826167 -1.89254e-15 2.7982e-16)
(0.826167 -4.62283e-16 -2.08745e-17)
(0.828972 -1.87534e-15 2.7846e-16)
(0.828972 -4.73859e-16 -2.15545e-17)
(0.831767 -1.8561e-15 2.77027e-16)
(0.831767 -4.85121e-16 -2.19826e-17)
(0.834553 -1.83751e-15 2.7606e-16)
(0.834553 -4.91884e-16 -2.36808e-17)
(0.83733 -1.82306e-15 2.75136e-16)
(0.83733 -5.07918e-16 -2.55052e-17)
(0.840097 -1.80414e-15 2.74799e-16)
(0.840097 -5.22636e-16 -2.57526e-17)
(0.842855 -1.77951e-15 2.75326e-16)
(0.842855 -5.37061e-16 -2.32991e-17)
(0.845605 -1.75676e-15 2.76414e-16)
(0.845605 -5.47167e-16 -2.31207e-17)
(0.848346 -1.73389e-15 2.78152e-16)
(0.848346 -5.59864e-16 -2.41669e-17)
(0.851079 -1.71675e-15 2.80282e-16)
(0.851079 -5.66627e-16 -2.18876e-17)
(0.853803 -1.70294e-15 2.86145e-16)
(0.853803 -5.63401e-16 -1.97865e-17)
(0.85652 -1.69012e-15 2.90787e-16)
(0.85652 -5.63185e-16 -1.91919e-17)
(0.859229 -1.67817e-15 2.93665e-16)
(0.859229 -5.65382e-16 -1.87078e-17)
(0.86193 -1.6658e-15 2.97262e-16)
(0.86193 -5.67953e-16 -1.86077e-17)
(0.864623 -1.65539e-15 3.00754e-16)
(0.864623 -5.66198e-16 -1.9187e-17)
(0.867309 -1.64303e-15 3.03196e-16)
(0.867309 -5.72814e-16 -2.11955e-17)
(0.869988 -1.63295e-15 3.03619e-16)
(0.869988 -5.78522e-16 -2.23396e-17)
(0.87266 -1.62402e-15 3.05528e-16)
(0.87266 -5.79844e-16 -2.41873e-17)
(0.875325 -1.61779e-15 3.08665e-16)
(0.875325 -5.8557e-16 -2.59305e-17)
(0.877983 -1.60802e-15 3.10343e-16)
(0.877983 -5.87008e-16 -2.7026e-17)
(0.880635 -1.59322e-15 3.10778e-16)
(0.880635 -5.91981e-16 -2.77745e-17)
(0.88328 -1.57801e-15 3.13002e-16)
(0.88328 -5.98329e-16 -2.8205e-17)
(0.885918 -1.56347e-15 3.15369e-16)
(0.885918 -6.07511e-16 -2.91244e-17)
(0.88855 -1.54862e-15 3.16622e-16)
(0.88855 -6.19954e-16 -3.00741e-17)
(0.891176 -1.53298e-15 3.18404e-16)
(0.891176 -6.26149e-16 -3.15446e-17)
(0.893796 -1.5147e-15 3.21134e-16)
(0.893796 -6.33614e-16 -3.35539e-17)
(0.896409 -1.49233e-15 3.234e-16)
(0.896409 -6.40638e-16 -3.30361e-17)
(0.899017 -1.48009e-15 3.25914e-16)
(0.899017 -6.42186e-16 -3.42528e-17)
(0.901619 -1.47434e-15 3.28429e-16)
(0.901619 -6.49749e-16 -3.94161e-17)
(0.904215 -1.45927e-15 3.26524e-16)
(0.904215 -6.59426e-16 -4.37849e-17)
(0.906805 -1.44525e-15 3.27402e-16)
(0.906805 -6.67534e-16 -4.71232e-17)
(0.909389 -1.42788e-15 3.30968e-16)
(0.909389 -6.79174e-16 -4.56383e-17)
(0.911968 -1.41401e-15 3.34706e-16)
(0.911968 -6.79151e-16 -4.3433e-17)
(0.914542 -1.40089e-15 3.34068e-16)
(0.914542 -6.85562e-16 -4.29405e-17)
(0.91711 -1.38483e-15 3.27491e-16)
(0.91711 -6.94568e-16 -4.42736e-17)
(0.919672 -1.36647e-15 3.21818e-16)
(0.919672 -6.89347e-16 -4.69688e-17)
(0.922229 -1.34646e-15 3.15893e-16)
(0.922229 -7.02567e-16 -5.25677e-17)
(0.924781 -1.33339e-15 3.09051e-16)
(0.924781 -7.11231e-16 -4.08379e-17)
(0.927327 -1.31536e-15 3.08995e-16)
(0.927327 -7.20134e-16 -2.84675e-17)
(0.929868 -1.29513e-15 3.04602e-16)
(0.929868 -7.3861e-16 -1.62409e-17)
(0.932404 -1.28151e-15 3.04387e-16)
(0.932404 -7.4473e-16 -2.78329e-18)
(0.934934 -1.26679e-15 3.02494e-16)
(0.934934 -7.53775e-16 1.46486e-17)
(0.937459 -1.25146e-15 2.99858e-16)
(0.937459 -7.59867e-16 3.78452e-17)
(0.939979 -1.23411e-15 2.96891e-16)
(0.939979 -7.54665e-16 5.92004e-17)
(0.942493 -1.22126e-15 2.94213e-16)
(0.942493 -7.53407e-16 7.43622e-17)
(0.945003 -1.20861e-15 2.9312e-16)
(0.945003 -7.56893e-16 9.2717e-17)
(0.947507 -1.19464e-15 2.90502e-16)
(0.947507 -7.62841e-16 1.14292e-16)
(0.950005 -1.17464e-15 2.9382e-16)
(0.950005 -7.63848e-16 1.35368e-16)
(0.952499 -1.15697e-15 2.92167e-16)
(0.952499 -7.59081e-16 1.58674e-16)
(0.954987 -1.14772e-15 2.91194e-16)
(0.954987 -7.52137e-16 1.8114e-16)
(0.957469 -1.12722e-15 2.87465e-16)
(0.957469 -7.47757e-16 2.05532e-16)
(0.959946 -1.10882e-15 2.89167e-16)
(0.959946 -7.49346e-16 2.33913e-16)
(0.962418 -1.10038e-15 2.8216e-16)
(0.962418 -7.51817e-16 2.6345e-16)
(0.964884 -1.09375e-15 2.77565e-16)
(0.964884 -7.41734e-16 2.90083e-16)
(0.967345 -1.08642e-15 2.66147e-16)
(0.967345 -7.45389e-16 3.13496e-16)
(0.969799 -1.07658e-15 2.55672e-16)
(0.969799 -7.48636e-16 3.44592e-16)
(0.972248 -1.05135e-15 2.54128e-16)
(0.972248 -7.53044e-16 3.45714e-16)
(0.974691 -1.0129e-15 2.58743e-16)
(0.974691 -7.61928e-16 3.38255e-16)
(0.977128 -9.80189e-16 2.63794e-16)
(0.977128 -7.54126e-16 3.28633e-16)
(0.979559 -9.54836e-16 2.6906e-16)
(0.979559 -7.59459e-16 3.13547e-16)
(0.981984 -9.44428e-16 2.645e-16)
(0.981984 -7.61136e-16 3.04114e-16)
(0.984403 -9.37197e-16 2.62594e-16)
(0.984403 -7.71668e-16 3.061e-16)
(0.986815 -9.37785e-16 2.7032e-16)
(0.986815 -7.81916e-16 3.1632e-16)
(0.98922 -9.47265e-16 2.69372e-16)
(0.98922 -7.8948e-16 3.09385e-16)
(0.991619 -9.4115e-16 2.73383e-16)
(0.991619 -8.047e-16 2.92776e-16)
(0.994011 -9.32371e-16 2.80959e-16)
(0.994011 -8.08824e-16 2.90179e-16)
(0.996396 -9.18571e-16 2.94184e-16)
(0.996396 -8.20895e-16 2.84683e-16)
(0.998773 -8.95768e-16 2.9951e-16)
(0.998773 -8.37069e-16 2.7886e-16)
(1.00114 -8.79312e-16 3.02751e-16)
(1.00114 -8.39797e-16 2.81346e-16)
(1.00351 -8.77277e-16 3.08074e-16)
(1.00351 -8.49888e-16 2.85996e-16)
(1.00586 -8.68161e-16 3.10189e-16)
(1.00586 -8.79821e-16 2.77572e-16)
(1.00821 -8.70346e-16 3.14845e-16)
(1.00821 -9.01118e-16 2.71265e-16)
(1.01054 -8.69954e-16 3.24276e-16)
(1.01054 -8.74291e-16 2.78761e-16)
(1.01287 -8.50912e-16 3.26114e-16)
(1.01287 -8.85862e-16 2.76654e-16)
(1.01519 -8.45864e-16 3.15954e-16)
(1.01519 -8.62623e-16 2.9216e-16)
(1.0175 -8.39856e-16 3.16319e-16)
(1.0175 -8.48937e-16 3.17195e-16)
(1.01981 -8.3113e-16 3.24864e-16)
(1.01981 -8.18387e-16 3.18129e-16)
(1.0221 -8.2424e-16 3.20539e-16)
(1.0221 -7.96739e-16 3.27052e-16)
(1.02438 -8.10192e-16 3.1785e-16)
(1.02438 -7.98081e-16 3.36561e-16)
(1.02665 -7.93793e-16 3.51538e-16)
(1.02665 -7.82373e-16 3.50999e-16)
(1.02891 -7.71995e-16 3.56197e-16)
(1.02891 -7.36447e-16 3.17018e-16)
(1.03115 -7.47556e-16 3.84556e-16)
(1.03115 -7.29257e-16 3.19439e-16)
(1.03339 -7.36539e-16 3.77486e-16)
(1.03339 -7.53558e-16 3.23282e-16)
(1.03561 -7.27125e-16 3.70059e-16)
(1.03561 -7.33039e-16 2.98479e-16)
(1.03782 -7.05866e-16 3.49366e-16)
(1.03782 -7.09928e-16 3.02775e-16)
(1.04002 -6.87764e-16 3.24999e-16)
(1.04002 -7.00364e-16 3.19997e-16)
(1.0422 -6.67382e-16 3.07863e-16)
(1.0422 -6.78861e-16 3.31625e-16)
(1.04437 -6.54025e-16 3.23915e-16)
(1.04437 -6.73721e-16 3.1561e-16)
(1.04652 -7.12386e-16 2.86937e-16)
(1.04652 -6.82978e-16 3.27944e-16)
(1.04866 -6.6581e-16 3.19177e-16)
(1.04866 -6.79631e-16 3.18991e-16)
(1.05077 -6.76681e-16 3.31228e-16)
(1.05077 -6.89696e-16 3.58231e-16)
(1.05288 -7.10116e-16 3.27883e-16)
(1.05288 -6.50636e-16 3.73344e-16)
(1.05496 -6.95396e-16 3.43894e-16)
(1.05496 -6.13063e-16 3.28519e-16)
(1.05702 -6.68087e-16 3.07136e-16)
(1.05702 -6.4248e-16 3.22035e-16)
(1.05906 -6.57804e-16 2.95558e-16)
(1.05906 -6.48324e-16 3.06225e-16)
(1.06109 -6.51939e-16 3.14307e-16)
(1.06109 -6.43206e-16 2.95007e-16)
(1.06308 -6.72638e-16 3.0385e-16)
(1.06308 -6.65005e-16 2.90595e-16)
(1.06506 -6.57304e-16 3.13382e-16)
(1.06506 -6.5678e-16 3.25287e-16)
(1.06701 -6.50099e-16 3.28121e-16)
(1.06701 -6.70682e-16 2.90599e-16)
(1.06893 -6.37598e-16 3.04237e-16)
(1.06893 -6.45232e-16 2.80926e-16)
(1.07083 -6.41489e-16 2.93305e-16)
(1.07083 -6.26074e-16 2.91467e-16)
(1.07269 -6.0805e-16 3.34052e-16)
(1.07269 -6.31938e-16 2.6604e-16)
(1.07453 -5.86511e-16 3.55883e-16)
(1.07453 -6.15481e-16 2.4366e-16)
(1.07633 -5.81569e-16 3.48361e-16)
(1.07633 -5.71927e-16 2.62e-16)
(1.0781 -5.9994e-16 3.23828e-16)
(1.0781 -5.96402e-16 2.66961e-16)
(1.07983 -5.6704e-16 3.16187e-16)
(1.07983 -6.05643e-16 2.32935e-16)
(1.08152 -5.40947e-16 3.02577e-16)
(1.08152 -5.60979e-16 2.32866e-16)
(1.08317 -5.46499e-16 3.25132e-16)
(1.08317 -5.79324e-16 2.51686e-16)
(1.08478 -5.48341e-16 3.12705e-16)
(1.08478 -5.88469e-16 3.04801e-16)
(1.08634 -5.34258e-16 3.18248e-16)
(1.08634 -5.81819e-16 3.26505e-16)
(1.08785 -5.24781e-16 3.41577e-16)
(1.08785 -5.93599e-16 3.35246e-16)
(1.0893 -5.3431e-16 3.69908e-16)
(1.0893 -5.96521e-16 4.75146e-16)
(1.0907 -5.42856e-16 3.47032e-16)
(1.0907 -6.13695e-16 5.37594e-16)
(1.09204 -5.44664e-16 3.01098e-16)
(1.09204 -5.50227e-16 5.01049e-16)
(1.09331 -6.1391e-16 2.63136e-16)
(1.09331 -4.90095e-16 4.72001e-16)
(1.09451 -6.05329e-16 3.02668e-16)
(1.09451 -5.00593e-16 4.15914e-16)
(1.09563 -5.84496e-16 2.5177e-16)
(1.09563 -5.07689e-16 2.98193e-16)
(1.09668 -5.3363e-16 1.87207e-16)
(1.09668 -5.13927e-16 1.84491e-16)
(1.09763 -5.74783e-16 1.98549e-16)
(1.09763 -5.27058e-16 9.90643e-17)
(1.09849 -4.92157e-16 1.26173e-16)
(1.09849 -5.0421e-16 1.61991e-16)
(1.09926 -4.32434e-16 1.51041e-16)
(1.09926 -4.49253e-16 1.51987e-16)
(1.09991 -4.01356e-16 2.22178e-16)
(1.09991 -4.75171e-16 1.05822e-16)
(1.10045 -4.98354e-16 1.86911e-16)
(1.10045 -4.42459e-16 2.33258e-16)
(1.10087 -4.09448e-16 2.12701e-16)
(1.10087 -4.0976e-16 1.29198e-16)
(1.10116 -3.86543e-16 9.69098e-17)
(1.10116 -4.06334e-16 1.47088e-16)
(1.10131 -3.9068e-16 9.61616e-17)
(1.10131 -3.59696e-16 1.21324e-16)
(0.00569956 -3.72687e-19 2.11927e-18)
(0.00569956 -1.3762e-19 2.5062e-17)
(0.0172029 4.646e-19 -2.94293e-17)
(0.0172029 4.94588e-19 9.95266e-17)
(0.0289188 4.22396e-19 -3.05243e-17)
(0.0289188 6.75302e-19 1.03227e-16)
(0.040851 7.46671e-19 -3.16531e-17)
(0.040851 1.11886e-18 1.07047e-16)
(0.0530034 1.05529e-18 -3.28159e-17)
(0.0530034 1.59177e-18 1.10984e-16)
(0.0653799 1.40092e-18 -3.40122e-17)
(0.0653799 2.1006e-18 1.15039e-16)
(0.0779837 1.79177e-18 -3.52412e-17)
(0.0779837 2.65161e-18 1.19207e-16)
(0.0908178 2.19662e-18 -3.65001e-17)
(0.0908178 3.18311e-18 1.23481e-16)
(0.103884 2.53023e-18 -3.77861e-17)
(0.103884 3.79153e-18 1.27847e-16)
(0.117181 2.81551e-18 -3.90933e-17)
(0.117181 4.50175e-18 1.32281e-16)
(0.130706 3.15922e-18 -4.04139e-17)
(0.130706 5.15536e-18 1.3675e-16)
(0.144452 3.54562e-18 -4.17319e-17)
(0.144452 5.86085e-18 1.41199e-16)
(0.158407 3.86454e-18 -4.30263e-17)
(0.158407 6.55973e-18 1.45562e-16)
(0.172551 4.28055e-18 -4.42709e-17)
(0.172551 7.14938e-18 1.49754e-16)
(0.186857 4.75692e-18 -4.5434e-17)
(0.186857 7.75312e-18 1.5367e-16)
(0.201289 5.14403e-18 -4.64826e-17)
(0.201289 8.50254e-18 1.57196e-16)
(0.215802 5.57397e-18 -4.73809e-17)
(0.215802 9.15551e-18 1.60215e-16)
(0.230342 6.03975e-18 -4.80962e-17)
(0.230342 9.85315e-18 1.62614e-16)
(0.244852 6.40301e-18 -4.86017e-17)
(0.244852 1.07487e-17 1.64308e-16)
(0.259267 6.46615e-18 -4.88846e-17)
(0.259267 1.16977e-17 1.65244e-16)
(0.273524 6.41002e-18 -4.89481e-17)
(0.273524 1.29703e-17 1.65403e-16)
(0.287563 6.42683e-18 -4.87968e-17)
(0.287563 1.45872e-17 1.64814e-16)
(0.301329 6.31003e-18 -4.84506e-17)
(0.301329 1.60567e-17 1.63531e-16)
(0.314778 6.17743e-18 -4.79259e-17)
(0.314778 1.72947e-17 1.61636e-16)
(0.327871 6.17429e-18 -4.72582e-17)
(0.327871 1.83972e-17 1.59226e-16)
(0.340584 6.26542e-18 -4.64633e-17)
(0.340584 1.94937e-17 1.56394e-16)
(0.352899 5.91519e-18 -4.55768e-17)
(0.352899 2.08693e-17 1.53267e-16)
(0.364808 5.50142e-18 -4.46363e-17)
(0.364808 2.21006e-17 1.49922e-16)
(0.37631 5.42098e-18 -4.3656e-17)
(0.37631 2.33323e-17 1.46436e-16)
(0.387409 5.38205e-18 -4.26486e-17)
(0.387409 2.43514e-17 1.42873e-16)
(0.398115 5.49686e-18 -4.1628e-17)
(0.398115 2.50787e-17 1.39286e-16)
(0.408439 5.43819e-18 -4.06046e-17)
(0.408439 2.61147e-17 1.35716e-16)
(0.418398 4.94046e-18 -3.9596e-17)
(0.418398 2.7263e-17 1.32203e-16)
(0.428005 4.36195e-18 -3.86159e-17)
(0.428005 2.82301e-17 1.28776e-16)
(0.437278 3.97919e-18 -3.76666e-17)
(0.437278 2.95067e-17 1.25439e-16)
(0.446234 4.09881e-18 -3.67489e-17)
(0.446234 3.0089e-17 1.22204e-16)
(0.454889 5.1822e-18 -3.5846e-17)
(0.454889 3.02516e-17 1.19059e-16)
(0.46326 5.86329e-18 -3.49391e-17)
(0.46326 3.10853e-17 1.16016e-16)
(0.471363 5.90847e-18 -3.4049e-17)
(0.471363 3.12019e-17 1.1309e-16)
(0.479211 6.2779e-18 -3.31663e-17)
(0.479211 3.19132e-17 1.10258e-16)
(0.486821 6.32056e-18 -3.22942e-17)
(0.486821 3.34588e-17 1.07526e-16)
(0.494205 6.05705e-18 -3.14277e-17)
(0.494205 3.39516e-17 1.04897e-16)
(0.501375 6.2505e-18 -3.05955e-17)
(0.501375 3.47599e-17 1.02366e-16)
(0.508345 6.4351e-18 -2.97841e-17)
(0.508345 3.53481e-17 9.98973e-17)
(0.515125 6.33548e-18 -2.89861e-17)
(0.515125 3.60425e-17 9.74834e-17)
(0.521725 5.9577e-18 -2.81883e-17)
(0.521725 3.71237e-17 9.51307e-17)
(0.528156 5.17696e-18 -2.74102e-17)
(0.528156 3.68153e-17 9.28421e-17)
(0.534426 5.18611e-18 -2.66186e-17)
(0.534426 3.69921e-17 9.05704e-17)
(0.540545 5.35287e-18 -2.57952e-17)
(0.540545 3.80855e-17 8.83422e-17)
(0.54652 4.99172e-18 -2.49604e-17)
(0.54652 3.83176e-17 8.62201e-17)
(0.552359 4.89997e-18 -2.41318e-17)
(0.552359 3.83608e-17 8.41391e-17)
(0.558068 4.85207e-18 -2.33067e-17)
(0.558068 3.98028e-17 8.20651e-17)
(0.563655 4.78766e-18 -2.24772e-17)
(0.563655 4.00255e-17 8.00727e-17)
(0.569125 4.81004e-18 -2.16575e-17)
(0.569125 3.99018e-17 7.81121e-17)
(0.574484 4.59283e-18 -2.08562e-17)
(0.574484 4.11533e-17 7.61803e-17)
(0.579738 4.2552e-18 -2.00755e-17)
(0.579738 4.14635e-17 7.42766e-17)
(0.584891 4.12771e-18 -1.93236e-17)
(0.584891 4.23265e-17 7.24105e-17)
(0.589948 4.6971e-18 -1.85638e-17)
(0.589948 4.31017e-17 7.06107e-17)
(0.594914 4.85139e-18 -1.77966e-17)
(0.594914 4.3229e-17 6.88515e-17)
(0.599794 3.98901e-18 -1.70301e-17)
(0.599794 4.28009e-17 6.70951e-17)
(0.604589 3.67632e-18 -1.62637e-17)
(0.604589 4.26258e-17 6.52249e-17)
(0.609306 2.70977e-18 -1.54603e-17)
(0.609306 4.38938e-17 6.32913e-17)
(0.613946 1.59188e-18 -1.46994e-17)
(0.613946 4.50918e-17 6.14889e-17)
(0.618514 6.81425e-19 -1.39605e-17)
(0.618514 4.63397e-17 5.97818e-17)
(0.623012 -2.01178e-19 -1.32865e-17)
(0.623012 4.61264e-17 5.80962e-17)
(0.627443 -6.46961e-19 -1.25842e-17)
(0.627443 4.61039e-17 5.64336e-17)
(0.63181 -7.76038e-19 -1.18425e-17)
(0.63181 4.63044e-17 5.48244e-17)
(0.636116 -6.69853e-19 -1.10428e-17)
(0.636116 4.58117e-17 5.33076e-17)
(0.640363 -1.24629e-18 -1.026e-17)
(0.640363 4.61557e-17 5.1842e-17)
(0.644553 -1.01915e-18 -9.5059e-18)
(0.644553 4.67219e-17 5.03632e-17)
(0.648689 -5.29122e-19 -8.59309e-18)
(0.648689 4.72368e-17 4.88093e-17)
(0.652773 -1.60681e-18 -7.68185e-18)
(0.652773 4.77166e-17 4.75036e-17)
(0.656807 -3.90324e-18 -6.85593e-18)
(0.656807 4.97124e-17 4.62637e-17)
(0.660792 -6.21628e-18 -6.11214e-18)
(0.660792 5.00481e-17 4.5062e-17)
(0.664731 -8.26191e-18 -5.39228e-18)
(0.664731 4.96206e-17 4.38543e-17)
(0.668625 -9.12492e-18 -4.66244e-18)
(0.668625 4.88915e-17 4.25291e-17)
(0.672476 -1.04903e-17 -3.7807e-18)
(0.672476 4.9965e-17 4.10141e-17)
(0.676285 -1.39514e-17 -2.83215e-18)
(0.676285 4.91556e-17 3.97534e-17)
(0.680054 -1.63025e-17 -2.10601e-18)
(0.680054 4.69038e-17 3.87277e-17)
(0.683784 -1.75311e-17 -1.42008e-18)
(0.683784 4.88793e-17 3.74952e-17)
(0.687477 -1.86556e-17 -6.72187e-19)
(0.687477 4.8238e-17 3.60976e-17)
(0.691134 -1.95886e-17 1.886e-19)
(0.691134 4.74935e-17 3.47806e-17)
(0.694756 -2.08349e-17 1.10287e-18)
(0.694756 4.70572e-17 3.38516e-17)
(0.698345 -2.17788e-17 2.01651e-18)
(0.698345 4.59116e-17 3.26516e-17)
(0.7019 -2.22829e-17 2.87177e-18)
(0.7019 4.64704e-17 3.11924e-17)
(0.705425 -2.43519e-17 3.78022e-18)
(0.705425 4.75407e-17 2.97671e-17)
(0.708918 -2.58644e-17 4.64522e-18)
(0.708918 4.73457e-17 2.83391e-17)
(0.712383 -2.49833e-17 5.34362e-18)
(0.712383 4.83889e-17 2.68954e-17)
(0.715819 -2.37063e-17 6.20187e-18)
(0.715819 4.80968e-17 2.52695e-17)
(0.719227 -2.33639e-17 7.15426e-18)
(0.719227 4.64497e-17 2.35746e-17)
(0.722609 -2.39202e-17 8.14134e-18)
(0.722609 4.69627e-17 2.16365e-17)
(0.725964 -2.43528e-17 9.01362e-18)
(0.725964 4.84871e-17 1.96216e-17)
(0.729295 -2.7607e-17 9.97315e-18)
(0.729295 4.77977e-17 1.74043e-17)
(0.732601 -3.24986e-17 1.08231e-17)
(0.732601 4.63396e-17 1.52059e-17)
(0.735884 -3.47538e-17 1.16374e-17)
(0.735884 4.69203e-17 1.27037e-17)
(0.739144 -3.62205e-17 1.27044e-17)
(0.739144 4.93157e-17 1.02742e-17)
(0.742382 -3.80723e-17 1.36123e-17)
(0.742382 4.85808e-17 8.07108e-18)
(0.745598 -4.11878e-17 1.4474e-17)
(0.745598 4.85655e-17 5.78771e-18)
(0.748793 -4.38198e-17 1.50428e-17)
(0.748793 4.9741e-17 3.80935e-18)
(0.751968 -4.47257e-17 1.55161e-17)
(0.751968 4.52821e-17 3.82776e-18)
(0.755123 -4.58139e-17 1.60036e-17)
(0.755123 4.51865e-17 3.16443e-18)
(0.75826 -4.69274e-17 1.67006e-17)
(0.75826 4.60941e-17 2.6445e-18)
(0.761377 -4.85721e-17 1.7315e-17)
(0.761377 4.28006e-17 3.34247e-18)
(0.764477 -4.79199e-17 1.77087e-17)
(0.764477 4.1531e-17 3.66968e-18)
(0.767559 -4.71415e-17 1.83229e-17)
(0.767559 4.11275e-17 3.04675e-18)
(0.770624 -4.89308e-17 1.89049e-17)
(0.770624 3.70233e-17 2.88535e-18)
(0.773673 -5.07684e-17 1.9241e-17)
(0.773673 3.40664e-17 3.32323e-18)
(0.776705 -5.20277e-17 1.95507e-17)
(0.776705 3.44996e-17 3.38029e-18)
(0.779722 -5.36196e-17 1.98336e-17)
(0.779722 3.19836e-17 3.22623e-18)
(0.782723 -5.91201e-17 2.05252e-17)
(0.782723 2.93212e-17 2.94136e-18)
(0.78571 -6.42909e-17 2.04396e-17)
(0.78571 2.89246e-17 3.80229e-18)
(0.788682 -6.46709e-17 2.08151e-17)
(0.788682 2.81864e-17 3.69151e-18)
(0.79164 -6.3691e-17 2.12328e-17)
(0.79164 2.58213e-17 3.57115e-18)
(0.794585 -6.35208e-17 2.20043e-17)
(0.794585 2.26093e-17 3.27857e-18)
(0.797516 -6.60826e-17 2.28876e-17)
(0.797516 2.14188e-17 3.36549e-18)
(0.800434 -6.5885e-17 2.35054e-17)
(0.800434 1.89017e-17 3.31266e-18)
(0.80334 -6.39096e-17 2.44286e-17)
(0.80334 1.7663e-17 3.04646e-18)
(0.806233 -6.5589e-17 2.52589e-17)
(0.806233 1.43568e-17 3.70292e-18)
(0.809114 -6.6965e-17 2.57817e-17)
(0.809114 1.05401e-17 4.33911e-18)
(0.811984 -6.68987e-17 2.62714e-17)
(0.811984 8.19404e-18 3.90583e-18)
(0.814842 -6.9907e-17 2.62857e-17)
(0.814842 6.13148e-18 3.1884e-18)
(0.817689 -7.48003e-17 2.64739e-17)
(0.817689 3.14415e-18 2.20929e-18)
(0.820526 -7.76877e-17 2.66545e-17)
(0.820526 3.56709e-18 3.01703e-18)
(0.823351 -8.00657e-17 2.62418e-17)
(0.823351 3.13214e-18 5.24414e-18)
(0.826167 -8.48034e-17 2.63517e-17)
(0.826167 3.25345e-18 5.1257e-18)
(0.828972 -9.06189e-17 2.62842e-17)
(0.828972 3.6848e-18 4.87427e-18)
(0.831767 -9.46946e-17 2.63576e-17)
(0.831767 -1.2114e-18 4.31682e-18)
(0.834553 -9.63164e-17 2.65365e-17)
(0.834553 1.18829e-18 3.31071e-18)
(0.83733 -9.54038e-17 2.6955e-17)
(0.83733 2.87758e-18 3.88138e-18)
(0.840097 -9.31977e-17 2.76723e-17)
(0.840097 2.80496e-19 6.07108e-18)
(0.842855 -9.12639e-17 2.80453e-17)
(0.842855 -1.91788e-18 6.29258e-18)
(0.845605 -9.13373e-17 2.87801e-17)
(0.845605 -1.39884e-18 3.99065e-18)
(0.848346 -9.56341e-17 2.94871e-17)
(0.848346 4.1985e-19 3.80001e-18)
(0.851079 -1.06223e-16 2.89975e-17)
(0.851079 -3.2364e-18 5.13105e-18)
(0.853803 -1.13403e-16 2.76711e-17)
(0.853803 -9.49956e-18 5.88362e-18)
(0.85652 -1.19911e-16 2.63271e-17)
(0.85652 -1.11509e-17 5.98459e-18)
(0.859229 -1.26084e-16 2.49044e-17)
(0.859229 -1.36856e-17 5.94449e-18)
(0.86193 -1.25058e-16 2.43981e-17)
(0.86193 -1.88345e-17 5.55122e-18)
(0.864623 -1.25588e-16 2.48045e-17)
(0.864623 -2.42143e-17 5.85998e-18)
(0.867309 -1.3146e-16 2.45543e-17)
(0.867309 -3.36536e-17 6.48669e-18)
(0.869988 -1.35871e-16 2.42504e-17)
(0.869988 -3.88054e-17 4.56866e-18)
(0.87266 -1.38451e-16 2.52501e-17)
(0.87266 -4.07748e-17 1.7468e-18)
(0.875325 -1.40234e-16 2.48109e-17)
(0.875325 -4.52955e-17 3.84097e-18)
(0.877983 -1.39509e-16 2.46544e-17)
(0.877983 -4.88238e-17 5.55081e-18)
(0.880635 -1.40294e-16 2.38788e-17)
(0.880635 -5.61254e-17 4.77535e-18)
(0.88328 -1.41067e-16 1.95868e-17)
(0.88328 -6.33529e-17 3.18697e-18)
(0.885918 -1.48745e-16 1.30479e-17)
(0.885918 -6.72114e-17 2.51982e-18)
(0.88855 -1.59227e-16 8.36234e-18)
(0.88855 -7.3016e-17 1.78915e-18)
(0.891176 -1.61619e-16 3.114e-18)
(0.891176 -7.51981e-17 1.86686e-18)
(0.893796 -1.67294e-16 -3.06356e-18)
(0.893796 -8.78027e-17 5.82471e-18)
(0.896409 -1.75668e-16 -4.20168e-18)
(0.896409 -9.97793e-17 8.90302e-18)
(0.899017 -1.76246e-16 -7.02006e-18)
(0.899017 -9.13714e-17 6.36988e-18)
(0.901619 -1.73171e-16 -1.21653e-17)
(0.901619 -9.37356e-17 2.93893e-18)
(0.904215 -1.69973e-16 -1.90788e-17)
(0.904215 -9.53323e-17 2.0384e-18)
(0.906805 -1.6964e-16 -2.56852e-17)
(0.906805 -9.41776e-17 4.34639e-18)
(0.909389 -1.72835e-16 -3.26951e-17)
(0.909389 -9.70728e-17 8.53087e-18)
(0.911968 -1.73294e-16 -3.94168e-17)
(0.911968 -9.51277e-17 5.97195e-18)
(0.914542 -1.71976e-16 -4.95566e-17)
(0.914542 -1.00962e-16 4.9342e-19)
(0.91711 -1.76419e-16 -6.02508e-17)
(0.91711 -1.14943e-16 2.28353e-18)