/*--------------------------------*- C++ -*----------------------------------*\
| =========                 |                                                 |
| \\      /  F ield         | OpenFOAM: The Open Source CFD Toolbox           |
|  \\    /   O peration     | Version:  2106                                  |
|   \\  /    A nd           | Website:  www.openfoam.com                      |
|    \\/     M anipulation  |                                                 |
\*---------------------------------------------------------------------------*/
FoamFile
{
    version     2.0;
    format      ascii;
    arch        "LSB;label=32;scalar=64";
    class       volVectorField;
    location    "10100";
    object      grad(T);
}
// * * * * * * * * * * * * * * * * * * * * * * * * * * * * * * * * * * * * * //

dimensions      [0 -1 0 1 0 0 0];

internalField   nonuniform List<vector> 
2000
(
(0 127.822 0.236551)
(0 127.822 0.236551)
(1.12328e-16 127.821 0.714069)
(-1.12328e-16 127.821 0.714069)
(-2.9071e-17 127.821 0.991021)
(0 127.821 0.991021)
(-9.52699e-17 127.821 1.00952)
(3.8108e-16 127.821 1.00952)
(4.25061e-16 127.821 1.02836)
(-4.25061e-16 127.821 1.02836)
(0 127.821 1.04755)
(-9.25591e-16 127.821 1.04755)
(0 127.82 1.0671)
(1.20549e-15 127.82 1.0671)
(0 127.82 1.08702)
(2.98124e-15 127.82 1.08702)
(-4.45267e-16 127.819 1.10731)
(0 127.819 1.10731)
(0 127.819 1.12797)
(0 127.819 1.12797)
(1.52166e-15 127.818 1.14902)
(0 127.818 1.14902)
(6.71335e-16 127.817 1.17046)
(1.19156e-15 127.817 1.17046)
(0 127.816 1.1923)
(0 127.816 1.1923)
(-8.29166e-16 127.815 1.21454)
(-1.43953e-15 127.815 1.21454)
(-2.32345e-15 127.814 1.2372)
(-1.41315e-15 127.814 1.2372)
(3.76746e-15 127.812 1.26028)
(-3.97177e-15 127.812 1.26028)
(0 127.811 1.28379)
(0 127.811 1.28379)
(2.32577e-15 127.809 1.30774)
(5.98843e-15 127.809 1.30774)
(-1.25024e-15 127.807 1.33213)
(0 127.807 1.33213)
(1.33923e-15 127.805 1.35697)
(5.35693e-15 127.805 1.35697)
(-1.42988e-15 127.803 1.38228)
(1.1439e-14 127.803 1.38228)
(0 127.8 1.40805)
(3.60577e-15 127.8 1.40805)
(2.4376e-15 127.798 1.4343)
(6.46511e-15 127.798 1.4343)
(0 127.794 1.46103)
(4.45543e-15 127.794 1.46103)
(-1.80969e-15 127.791 1.48826)
(0 127.791 1.48826)
(0 127.787 1.51599)
(7.63645e-15 127.787 1.51599)
(-2.01039e-15 127.782 1.54423)
(0 127.782 1.54423)
(-2.11355e-15 127.777 1.57299)
(0 127.777 1.57299)
(0 127.771 1.60228)
(-2.18157e-15 127.771 1.60228)
(-6.60887e-15 127.765 1.6321)
(-9.3027e-15 127.765 1.6321)
(2.43471e-15 127.757 1.66246)
(9.73884e-15 127.757 1.66246)
(0 127.748 1.69337)
(-4.12766e-15 127.748 1.69337)
(-2.65891e-15 127.738 1.72483)
(0 127.738 1.72483)
(-6.75192e-15 127.727 1.75686)
(3.97777e-15 127.727 1.75686)
(0 127.714 1.78946)
(1.15661e-14 127.714 1.78946)
(0 127.699 1.82264)
(-3.83332e-15 127.699 1.82264)
(3.13289e-15 127.682 1.85639)
(1.25315e-14 127.682 1.85639)
(-6.95105e-15 127.662 1.89073)
(1.67218e-14 127.662 1.89073)
(-3.38328e-15 127.639 1.92565)
(0 127.639 1.92565)
(0 127.612 1.96116)
(1.40479e-14 127.612 1.96116)
(-7.28609e-15 127.582 1.99726)
(1.45722e-14 127.582 1.99726)
(6.86139e-15 127.547 2.03394)
(0 127.547 2.03394)
(0 127.506 2.07121)
(3.36783e-15 127.506 2.07121)
(-4.05097e-15 127.46 2.10904)
(-2.28161e-14 127.46 2.10904)
(4.19199e-15 127.406 2.14745)
(1.67679e-14 127.406 2.14745)
(4.33559e-15 127.345 2.1864)
(-1.73424e-14 127.345 2.1864)
(-4.48182e-15 127.274 2.2259)
(1.79273e-14 127.274 2.2259)
(-6.14072e-15 127.193 2.2659)
(3.70458e-14 127.193 2.2659)
(4.78233e-15 127.1 2.30641)
(2.51575e-14 127.1 2.30641)
(-4.93668e-15 126.994 2.34737)
(-1.97467e-14 126.994 2.34737)
(0 126.874 2.38876)
(0 126.874 2.38876)
(-1.09566e-14 126.736 2.43054)
(-5.70284e-15 126.736 2.43054)
(0 126.579 2.47265)
(0 126.579 2.47265)
(0 126.402 2.51505)
(-2.23291e-14 126.402 2.51505)
(-5.0392e-15 126.2 2.55767)
(-5.39504e-15 126.2 2.55767)
(-5.92242e-15 125.973 2.60043)
(0 125.973 2.60043)
(-6.9947e-15 125.717 2.64327)
(2.43877e-14 125.717 2.64327)
(-6.27438e-15 125.43 2.68609)
(0 125.43 2.68609)
(-1.29097e-14 125.108 2.7288)
(-2.58194e-14 125.108 2.7288)
(6.6383e-15 124.747 2.77128)
(-2.65532e-14 124.747 2.77128)
(0 124.346 2.81343)
(-9.65677e-15 124.346 2.81343)
(-2.35082e-14 123.9 2.85511)
(5.61134e-14 123.9 2.85511)
(-7.20659e-15 123.406 2.89621)
(2.88264e-14 123.406 2.89621)
(9.13556e-15 122.861 2.93657)
(0 122.861 2.93657)
(-1.65684e-14 122.261 2.97606)
(3.0401e-14 122.261 2.97606)
(8.80382e-15 121.603 3.01452)
(-8.80382e-15 121.603 3.01452)
(6.37085e-16 120.884 3.0518)
(-8.64249e-15 120.884 3.0518)
(0 120.102 3.08775)
(-8.48412e-15 120.102 3.08775)
(0 119.254 3.12222)
(3.36866e-14 119.254 3.12222)
(0 118.338 3.15506)
(0 118.338 3.15506)
(-8.84836e-15 117.352 3.18612)
(3.53934e-14 117.352 3.18612)
(-7.87913e-15 116.296 3.21527)
(4.41407e-14 116.296 3.21527)
(-9.28473e-15 115.168 3.24237)
(-3.71389e-14 115.168 3.24237)
(0 113.97 3.26733)
(-3.8025e-14 113.97 3.26733)
(-1.94596e-14 112.701 3.29004)
(3.89193e-14 112.701 3.29004)
(-1.99106e-14 111.363 3.31042)
(0 111.363 3.31042)
(0 109.958 3.3284)
(4.073e-14 109.958 3.3284)
(-2.45144e-14 108.488 3.34393)
(-4.16452e-14 108.488 3.34393)
(-3.20318e-15 106.957 3.357)
(1.38447e-14 106.957 3.357)
(1.0873e-14 105.368 3.36759)
(-4.34919e-14 105.368 3.36759)
(-2.22111e-14 103.726 3.37571)
(-1.33419e-14 103.726 3.37571)
(0 102.034 3.3814)
(0 102.034 3.3814)
(1.15731e-14 100.298 3.38471)
(-1.183e-13 100.298 3.38471)
(1.18079e-14 98.5225 3.38568)
(0 98.5225 3.38568)
(0 96.7133 3.38441)
(4.81719e-14 96.7133 3.38441)
(2.44418e-14 94.8755 3.38099)
(4.91132e-14 94.8755 3.38099)
(-1.30867e-14 93.0146 3.37551)
(0 93.0146 3.37551)
(-2.54978e-14 91.1359 3.36808)
(6.27175e-14 91.1359 3.36808)
(1.29839e-14 89.2447 3.35882)
(1.03871e-13 89.2447 3.35882)
(-1.32185e-14 87.3462 3.34786)
(0 87.3462 3.34786)
(-2.69051e-14 85.4451 3.3353)
(5.38102e-14 85.4451 3.3353)
(-1.36859e-14 83.5461 3.32129)
(5.47437e-14 83.5461 3.32129)
(0 81.6535 3.30594)
(-2.13729e-14 81.6535 3.30594)
(1.41502e-14 79.7715 3.28938)
(5.66008e-14 79.7715 3.28938)
(1.43809e-14 77.9036 3.27173)
(5.75236e-14 77.9036 3.27173)
(-1.46105e-14 76.0533 3.2531)
(5.8442e-14 76.0533 3.2531)
(1.48389e-14 74.2236 3.23362)
(0 74.2236 3.23362)
(-1.50661e-14 72.4173 3.21337)
(4.07794e-14 72.4173 3.21337)
(1.5292e-14 70.6367 3.19248)
(0 70.6367 3.19248)
(3.26104e-15 68.884 3.17103)
(4.32885e-14 68.884 3.17103)
(1.57396e-14 67.1609 3.14911)
(4.45248e-14 67.1609 3.14911)
(0 65.469 3.12681)
(4.57491e-14 65.469 3.12681)
(0 63.8096 3.10421)
(-8.24892e-14 63.8096 3.10421)
(0 62.1836 3.08138)
(6.55994e-14 62.1836 3.08138)
(5.0213e-16 60.5918 3.05838)
(0 60.5918 3.05838)
(-1.68323e-14 59.0349 3.03528)
(6.73291e-14 59.0349 3.03528)
(0 57.5133 3.01213)
(1.64973e-14 57.5133 3.01213)
(0 56.0272 2.98899)
(-1.6195e-14 56.0272 2.98899)
(3.33672e-14 54.5768 2.96589)
(6.98757e-14 54.5768 2.96589)
(2.071e-15 53.1619 2.94288)
(5.51048e-14 53.1619 2.94288)
(0 51.7824 2.92)
(7.15412e-14 51.7824 2.92)
(-3.61822e-14 50.4381 2.89728)
(7.23643e-14 50.4381 2.89728)
(1.82952e-14 49.1286 2.87474)
(7.3181e-14 49.1286 2.87474)
(0 47.8535 2.85242)
(-7.39913e-14 47.8535 2.85242)
(0 46.6123 2.83033)
(0 46.6123 2.83033)
(-9.86108e-15 45.4045 2.8085)
(-2.79354e-14 45.4045 2.8085)
(-1.90961e-14 44.2295 2.78694)
(-2.74235e-14 44.2295 2.78694)
(-2.69209e-14 43.0866 2.76567)
(-7.71697e-14 43.0866 2.76567)
(3.89745e-14 41.9752 2.74469)
(0 41.9752 2.74469)
(1.34178e-14 40.8946 2.72402)
(7.87223e-14 40.8946 2.72402)
(-1.98724e-14 39.8441 2.70367)
(7.94897e-14 39.8441 2.70367)
(4.01256e-14 38.823 2.68365)
(-2.50013e-14 38.823 2.68365)
(2.02517e-14 37.8306 2.66395)
(8.1007e-14 37.8306 2.66395)
(-2.04393e-14 36.8661 2.64459)
(0 36.8661 2.64459)
(-2.36519e-14 35.9288 2.62556)
(1.65003e-13 35.9288 2.62556)
(-4.40287e-14 35.018 2.60687)
(2.32185e-14 35.018 2.60687)
(0 34.1329 2.58851)
(1.67949e-13 34.1329 2.58851)
(1.19955e-15 33.2728 2.5705)
(-2.23753e-14 33.2728 2.5705)
(2.19653e-14 32.4371 2.55282)
(8.54263e-14 32.4371 2.55282)
(-2.66608e-17 31.625 2.53547)
(1.93852e-13 31.625 2.53547)
(-2.17144e-14 30.8358 2.51846)
(8.68577e-14 30.8358 2.51846)
(1.11172e-15 30.0689 2.50177)
(6.67862e-14 30.0689 2.50177)
(-4.41347e-14 29.3235 2.48541)
(4.74714e-14 29.3235 2.48541)
(-6.00755e-14 28.5992 2.46937)
(2.17987e-13 28.5992 2.46937)
(0 27.8951 2.45365)
(8.96623e-14 27.8951 2.45365)
(-2.2588e-14 27.2108 2.43824)
(-1.9298e-14 27.2108 2.43824)
(6.0648e-14 26.5456 2.42314)
(-3.78887e-14 26.5456 2.42314)
(0 25.8988 2.40834)
(-3.71944e-14 25.8988 2.40834)
(-2.30986e-14 25.2701 2.39384)
(-3.65128e-14 25.2701 2.39384)
(-2.32666e-14 24.6587 2.37964)
(-1.2891e-13 24.6587 2.37964)
(-5.86206e-14 24.0642 2.36571)
(2.22656e-13 24.0642 2.36571)
(0 23.486 2.35207)
(9.4399e-14 23.486 2.35207)
(1.01444e-14 22.9236 2.33871)
(6.115e-14 22.9236 2.33871)
(0 22.3766 2.32561)
(6.24278e-14 22.3766 2.32561)
(-5.67699e-14 21.8445 2.31278)
(1.29046e-13 21.8445 2.31278)
(0 21.3267 2.3002)
(9.70171e-14 21.3267 2.3002)
(-2.44156e-14 20.8228 2.28788)
(0 20.8228 2.28788)
(-2.4576e-14 20.3325 2.2758)
(0 20.3325 2.2758)
(-2.47356e-14 19.8553 2.26395)
(0 19.8553 2.26395)
(2.48943e-14 19.3908 2.25234)
(-1.29369e-13 19.3908 2.25234)
(5.84911e-14 18.9385 2.24096)
(-5.84911e-14 18.9385 2.24096)
(0 18.4981 2.22979)
(0 18.4981 2.22979)
(8.17326e-14 18.0693 2.21884)
(0 18.0693 2.21884)
(-5.3188e-14 17.6517 2.2081)
(1.29751e-13 17.6517 2.2081)
(-2.56756e-14 17.2449 2.19755)
(1.02702e-13 17.2449 2.19755)
(2.74953e-14 16.8486 2.18721)
(-5.33248e-14 16.8486 2.18721)
(0 16.4625 2.17705)
(1.03931e-13 16.4625 2.17705)
(-2.61351e-14 16.0863 2.16707)
(-1.30235e-13 16.0863 2.16707)
(2.62869e-14 15.7196 2.15727)
(1.05147e-13 15.7196 2.15727)
(2.64379e-14 15.3622 2.14764)
(1.05752e-13 15.3622 2.14764)
(2.65882e-14 15.0138 2.13817)
(0 15.0138 2.13817)
(0 14.6741 2.12886)
(1.06952e-13 14.6741 2.12886)
(-7.37363e-14 14.3428 2.1197)
(4.68495e-14 14.3428 2.1197)
(4.5991e-14 14.0197 2.11068)
(1.08141e-13 14.0197 2.11068)
(-2.71829e-14 13.7046 2.1018)
(-4.51482e-14 13.7046 2.1018)
(0 13.3972 2.09305)
(2.21604e-14 13.3972 2.09305)
(0 13.0972 2.08443)
(1.09906e-13 13.0972 2.08443)
(0 12.8045 2.07593)
(1.10489e-13 12.8045 2.07593)
(-2.77674e-14 12.5188 2.06754)
(0 12.5188 2.06754)
(-2.7912e-14 12.24 2.05926)
(0 12.24 2.05926)
(-2.80561e-14 11.9677 2.05107)
(0 11.9677 2.05107)
(5.6399e-14 11.7019 2.04298)
(7.31323e-14 11.7019 2.04298)
(-8.50271e-14 11.4423 2.03497)
(1.13369e-13 11.4423 2.03497)
(0 11.1887 2.02704)
(1.13939e-13 11.1887 2.02704)
(8.89844e-15 10.941 2.01918)
(-3.75249e-14 10.941 2.01918)
(-6.56048e-14 10.6989 2.01139)
(0 10.6989 2.01139)
(0 10.4624 2.00365)
(0 10.4624 2.00365)
(0 10.2312 1.99596)
(1.16193e-13 10.2312 1.99596)
(-2.91879e-14 10.0052 1.98832)
(-1.16752e-13 10.0052 1.98832)
(0 9.7843 1.98071)
(0 9.7843 1.98071)
(-2.94654e-14 9.56823 1.97312)
(-3.0289e-13 9.56823 1.97312)
(-6.25715e-14 9.35691 1.96556)
(0 9.35691 1.96556)
(0 9.15018 1.958)
(0 9.15018 1.958)
(0 8.94791 1.95045)
(8.774e-14 8.94791 1.95045)
(-6.00282e-14 8.74997 1.94289)
(2.40113e-13 8.74997 1.94289)
(0 8.55623 1.93531)
(1.206e-13 8.55623 1.93531)
(-3.02853e-14 8.36656 1.9277)
(0 8.36656 1.9277)
(0 8.18084 1.92006)
(-9.21752e-14 8.18084 1.92006)
(-1.58974e-15 7.99895 1.91238)
(-2.89647e-14 7.99895 1.91238)
(0 7.82077 1.90464)
(1.22753e-13 7.82077 1.90464)
(0 7.64618 1.89683)
(1.23286e-13 7.64618 1.89683)
(3.09542e-14 7.47509 1.88895)
(2.47633e-13 7.47509 1.88895)
(3.10864e-14 7.30737 1.88097)
(1.24345e-13 7.30737 1.88097)
(0 7.14293 1.8729)
(1.24872e-13 7.14293 1.8729)
(5.72716e-14 6.98165 1.86471)
(1.25396e-13 6.98165 1.86471)
(-5.69271e-14 6.82345 1.85639)
(2.51837e-13 6.82345 1.85639)
(-3.16096e-14 6.66821 1.84793)
(-1.26438e-13 6.66821 1.84793)
(0 6.51585 1.83932)
(0 6.51585 1.83932)
(-3.18679e-14 6.36627 1.83053)
(-4.8148e-14 6.36627 1.83053)
(-6.39923e-14 6.21937 1.82156)
(-4.72657e-14 6.21937 1.82156)
(-7.85234e-14 6.07507 1.81238)
(1.28495e-13 6.07507 1.81238)
(0 5.93326 1.80298)
(-4.55493e-14 5.93326 1.80298)
(-3.23773e-14 5.79388 1.79335)
(0 5.79388 1.79335)
(-4.38952e-14 5.65681 1.78345)
(-4.38952e-14 5.65681 1.78345)
(3.26283e-14 5.52199 1.77327)
(2.61026e-13 5.52199 1.77327)
(6.55056e-14 5.38932 1.76279)
(-1.73312e-13 5.38932 1.76279)
(2.42272e-14 5.25872 1.75198)
(4.15261e-14 5.25872 1.75198)
(6.59995e-14 5.13011 1.74083)
(2.63998e-13 5.13011 1.74083)
(3.31221e-14 5.00339 1.72929)
(9.24704e-14 5.00339 1.72929)
(3.32438e-14 4.87849 1.71736)
(9.36904e-14 4.87849 1.71736)
(-3.33647e-14 4.75532 1.70499)
(1.33459e-13 4.75532 1.70499)
(-3.34848e-14 4.6338 1.69215)
(0 4.6338 1.69215)
(0 4.51385 1.67881)
(1.71581e-13 4.51385 1.67881)
(-6.74449e-14 4.39537 1.66493)
(9.84063e-14 4.39537 1.66493)
(-6.96549e-14 4.27828 1.65048)
(3.58149e-14 4.27828 1.65048)
(0 4.1625 1.63542)
(2.71653e-13 4.1625 1.63542)
(0 4.04793 1.61968)
(0 4.04793 1.61968)
(3.41869e-14 3.93449 1.60324)
(-1.7063e-13 3.93449 1.60324)
(3.43006e-14 3.82208 1.58604)
(0 3.82208 1.58604)
(-3.61747e-14 3.7106 1.56801)
(0 3.7106 1.56801)
(3.69959e-14 3.59997 1.54911)
(-3.20532e-14 3.59997 1.54911)
(0 3.49006 1.52925)
(1.38539e-13 3.49006 1.52925)
(0 3.38079 1.50837)
(1.38975e-13 3.38079 1.50837)
(3.48515e-14 3.27204 1.4864)
(1.39406e-13 3.27204 1.4864)
(2.97675e-14 3.16368 1.46324)
(-1.69599e-13 3.16368 1.46324)
(-3.50628e-14 3.05561 1.4388)
(0 3.05561 1.4388)
(-3.51662e-14 2.94769 1.41298)
(8.32917e-14 2.94769 1.41298)
(0 2.83978 1.38567)
(1.41072e-13 2.83978 1.38567)
(1.99215e-14 2.73174 1.35674)
(-1.41473e-13 2.73174 1.35674)
(3.54666e-14 2.62341 1.32606)
(2.83733e-13 2.62341 1.32606)
(0 2.51463 1.29348)
(8.89707e-14 2.51463 1.29348)
(-3.56577e-14 2.40523 1.25884)
(0 2.40523 1.25884)
(3.57502e-14 2.29502 1.22196)
(1.43001e-13 2.29502 1.22196)
(1.45657e-14 2.18379 1.18264)
(1.93768e-13 2.18379 1.18264)
(-3.59283e-14 2.07134 1.14067)
(1.43713e-13 2.07134 1.14067)
(0 1.95743 1.09582)
(0 1.95743 1.09582)
(3.60964e-14 1.84183 1.04783)
(0 1.84183 1.04783)
(-7.23524e-14 1.72429 0.996426)
(1.44705e-13 1.72429 0.996426)
(4.59539e-14 1.60455 0.941319)
(0 1.60455 0.941319)
(0 1.48235 0.882194)
(4.51119e-14 1.48235 0.882194)
(-7.88863e-15 1.35741 0.818724)
(1.89871e-13 1.35741 0.818724)
(-3.64628e-14 1.22949 0.750571)
(1.45851e-13 1.22949 0.750571)
(-7.92021e-14 1.09834 0.677394)
(0 1.09834 0.677394)
(0 0.963753 0.598859)
(0 0.963753 0.598859)
(0 0.825554 0.514646)
(-1.46545e-13 0.825554 0.514646)
(-3.66844e-14 0.68363 0.424467)
(0 0.68363 0.424467)
(2.90654e-15 0.537936 0.328075)
(1.46909e-13 0.537936 0.328075)
(0 0.388507 0.225276)
(1.47057e-13 0.388507 0.225276)
(1.39946e-15 0.235469 0.11594)
(-3.81946e-14 0.235469 0.11594)
(-7.43139e-14 1.48389e-06 5.4923e-07)
(2.94672e-13 9.53114e-07 3.52773e-07)
(0 127.822 -0.236551)
(0 127.822 -0.236551)
(-1.12328e-16 127.821 -0.714069)
(0 127.821 -0.714069)
(-5.8142e-17 127.821 -0.991021)
(0 127.821 -0.991021)
(9.52699e-17 127.821 -1.00952)
(-4.32995e-16 127.821 -1.00952)
(9.96518e-17 127.821 -1.02836)
(-4.25061e-16 127.821 -1.02836)
(6.48669e-16 127.821 -1.04755)
(-4.17272e-16 127.821 -1.04755)
(-4.09625e-16 127.82 -1.0671)
(-4.09625e-16 127.82 -1.0671)
(7.45309e-16 127.82 -1.08702)
(0 127.82 -1.08702)
(-1.23477e-15 127.819 -1.10731)
(2.57057e-15 127.819 -1.10731)
(5.19234e-16 127.819 -1.12797)
(-2.85197e-15 127.819 -1.12797)
(4.28332e-16 127.818 -1.14902)
(-2.37832e-15 127.818 -1.14902)
(2.16511e-15 127.817 -1.17046)
(-1.49378e-15 127.817 -1.17046)
(-7.49521e-16 127.816 -1.1923)
(-2.99808e-15 127.816 -1.1923)
(1.43953e-15 127.815 -1.21454)
(-4.7562e-15 127.815 -1.21454)
(9.10297e-16 127.814 -1.2372)
(-3.64119e-15 127.814 -1.2372)
(-1.38726e-15 127.812 -1.26028)
(0 127.812 -1.26028)
(2.43897e-15 127.811 -1.28379)
(-5.67035e-15 127.811 -1.28379)
(1.16289e-15 127.809 -1.30774)
(4.65155e-15 127.809 -1.30774)
(1.25024e-15 127.807 -1.33213)
(0 127.807 -1.33213)
(2.67846e-15 127.805 -1.35697)
(-2.57667e-15 127.805 -1.35697)
(1.42988e-15 127.803 -1.38228)
(5.71952e-15 127.803 -1.38228)
(1.52222e-15 127.8 -1.40805)
(3.60577e-15 127.8 -1.40805)
(-1.61628e-15 127.798 -1.4343)
(0 127.798 -1.4343)
(3.42418e-15 127.794 -1.46103)
(0 127.794 -1.46103)
(1.80969e-15 127.791 -1.48826)
(0 127.791 -1.48826)
(0 127.787 -1.51599)
(0 127.787 -1.51599)
(-2.26378e-15 127.782 -1.54423)
(0 127.782 -1.54423)
(4.2271e-15 127.777 -1.57299)
(0 127.777 -1.57299)
(2.21863e-15 127.771 -1.60228)
(8.87453e-15 127.771 -1.60228)
(4.65135e-15 127.765 -1.6321)
(0 127.765 -1.6321)
(2.43471e-15 127.757 -1.66246)
(0 127.757 -1.66246)
(2.54578e-15 127.748 -1.69337)
(0 127.748 -1.69337)
(2.65891e-15 127.738 -1.72483)
(-1.06356e-14 127.738 -1.72483)
(3.97777e-15 127.727 -1.75686)
(-1.50744e-14 127.727 -1.75686)
(0 127.714 -1.78946)
(7.80975e-15 127.714 -1.78946)
(3.0111e-15 127.699 -1.82264)
(-1.20444e-14 127.699 -1.82264)
(6.26577e-15 127.682 -1.85639)
(-7.52615e-15 127.682 -1.85639)
(-3.25693e-15 127.662 -1.89073)
(-1.30277e-14 127.662 -1.89073)
(-3.38328e-15 127.639 -1.92565)
(-3.06927e-14 127.639 -1.92565)
(4.79978e-17 127.612 -1.96116)
(-3.55997e-15 127.612 -1.96116)
(-3.64305e-15 127.582 -1.99726)
(0 127.582 -1.99726)
(-3.77654e-15 127.547 -2.03394)
(-3.02123e-14 127.547 -2.03394)
(7.82501e-15 127.506 -2.07121)
(0 127.506 -2.07121)
(4.05097e-15 127.46 -2.10904)
(-1.62039e-14 127.46 -2.10904)
(8.38397e-15 127.406 -2.14745)
(1.67679e-14 127.406 -2.14745)
(1.07077e-14 127.345 -2.1864)
(-1.73424e-14 127.345 -2.1864)
(-2.7083e-15 127.274 -2.2259)
(-2.41826e-14 127.274 -2.2259)
(3.12072e-15 127.193 -2.2659)
(2.46636e-14 127.193 -2.2659)
(0 127.1 -2.30641)
(0 127.1 -2.30641)
(-4.93668e-15 126.994 -2.34737)
(-3.94935e-14 126.994 -2.34737)
(5.09382e-15 126.874 -2.38876)
(-2.03753e-14 126.874 -2.38876)
(5.25378e-15 126.736 -2.43054)
(0 126.736 -2.43054)
(1.11967e-14 126.579 -2.47265)
(-5.45293e-14 126.579 -2.47265)
(5.58228e-15 126.402 -2.51505)
(0 126.402 -2.51505)
(1.15018e-14 126.2 -2.55767)
(0 126.2 -2.55767)
(0 125.973 -2.60043)
(-3.4282e-14 125.973 -2.60043)
(8.97789e-16 125.717 -2.64327)
(0 125.717 -2.64327)
(6.27438e-15 125.43 -2.68609)
(-2.50975e-14 125.43 -2.68609)
(0 125.108 -2.7288)
(-2.58194e-14 125.108 -2.7288)
(0 124.747 -2.77128)
(-2.65532e-14 124.747 -2.77128)
(6.82474e-15 124.346 -2.81343)
(0 124.346 -2.81343)
(0 123.9 -2.85511)
(-9.47981e-15 123.9 -2.85511)
(2.58188e-14 123.406 -2.89621)
(-9.30609e-15 123.406 -2.89621)
(1.65375e-14 122.861 -2.93657)
(-9.13556e-15 122.861 -2.93657)
(8.96816e-15 122.261 -2.97606)
(-3.93691e-14 122.261 -2.97606)
(0 121.603 -3.01452)
(0 121.603 -3.01452)
(8.00541e-15 120.884 -3.0518)
(-3.20216e-14 120.884 -3.0518)
(8.48412e-15 120.102 -3.08775)
(-4.13328e-14 120.102 -3.08775)
(0 119.254 -3.12222)
(0 119.254 -3.12222)
(-8.63374e-15 118.338 -3.15506)
(6.90699e-14 118.338 -3.15506)
(0 117.352 -3.18612)
(0 117.352 -3.18612)
(1.69445e-14 116.296 -3.21527)
(-4.41407e-14 116.296 -3.21527)
(9.28473e-15 115.168 -3.24237)
(-3.71389e-14 115.168 -3.24237)
(1.5186e-14 113.97 -3.26733)
(-7.605e-14 113.97 -3.26733)
(-9.72982e-15 112.701 -3.29004)
(-1.49077e-14 112.701 -3.29004)
(0 111.363 -3.31042)
(0 111.363 -3.31042)
(0 109.958 -3.3284)
(4.073e-14 109.958 -3.3284)
(3.69183e-15 108.488 -3.34393)
(-1.66581e-13 108.488 -3.34393)
(2.1283e-14 106.957 -3.357)
(-4.25661e-14 106.957 -3.357)
(-1.0873e-14 105.368 -3.36759)
(0 105.368 -3.36759)
(-1.11055e-14 103.726 -3.37571)
(-4.44221e-14 103.726 -3.37571)
(-2.2678e-14 102.034 -3.3814)
(-5.84534e-14 102.034 -3.3814)
(-1.15731e-14 100.298 -3.38471)
(-1.05443e-13 100.298 -3.38471)
(2.36157e-14 98.5225 -3.38568)
(-4.72315e-14 98.5225 -3.38568)
(1.2043e-14 96.7133 -3.38441)
(4.81719e-14 96.7133 -3.38441)
(0 94.8755 -3.38099)
(4.91132e-14 94.8755 -3.38099)
(2.44543e-14 93.0146 -3.37551)
(-7.39358e-14 93.0146 -3.37551)
(-3.72196e-14 91.1359 -3.36808)
(5.09957e-14 91.1359 -3.36808)
(2.44909e-14 89.2447 -3.35882)
(-1.1507e-14 89.2447 -3.35882)
(9.37378e-15 87.3462 -3.34786)
(0 87.3462 -3.34786)
(0 85.4451 -3.3353)
(0 85.4451 -3.3353)
(1.36859e-14 83.5461 -3.32129)
(5.47437e-14 83.5461 -3.32129)
(2.13729e-14 81.6535 -3.30594)
(-5.5674e-14 81.6535 -3.30594)
(2.09813e-14 79.7715 -3.28938)
(-2.09813e-14 79.7715 -3.28938)
(1.43809e-14 77.9036 -3.27173)
(5.75236e-14 77.9036 -3.27173)
(0 76.0533 -3.2531)
(0 76.0533 -3.2531)
(0 74.2236 -3.23362)
(-1.18712e-13 74.2236 -3.23362)
(0 72.4173 -3.21337)
(0 72.4173 -3.21337)
(1.5292e-14 70.6367 -3.19248)
(-6.1168e-14 70.6367 -3.19248)
(3.4294e-14 68.884 -3.17103)
(-1.87775e-14 68.884 -3.17103)
(1.57396e-14 67.1609 -3.14911)
(1.4435e-13 67.1609 -3.14911)
(1.59612e-14 65.469 -3.12681)
(0 65.469 -3.12681)
(1.61813e-14 63.8096 -3.10421)
(-6.47251e-14 63.8096 -3.10421)
(1.63999e-14 62.1836 -3.08138)
(4.81609e-14 62.1836 -3.08138)
(0 60.5918 -3.05838)
(1.7119e-14 60.5918 -3.05838)
(-1.68323e-14 59.0349 -3.03528)
(-6.73291e-14 59.0349 -3.03528)
(0 57.5133 -3.01213)
(0 57.5133 -3.01213)
(0 56.0272 -2.98899)
(-1.6195e-14 56.0272 -2.98899)
(0 54.5768 -2.96589)
(0 54.5768 -2.96589)
(1.56069e-14 53.1619 -2.94288)
(-7.07117e-14 53.1619 -2.94288)
(-1.53209e-14 51.7824 -2.92)
(-1.53209e-14 51.7824 -2.92)
(1.50402e-14 50.4381 -2.89728)
(-1.50402e-14 50.4381 -2.89728)
(-1.12339e-14 49.1286 -2.87474)
(0 49.1286 -2.87474)
(-1.84978e-14 47.8535 -2.85242)
(0 47.8535 -2.85242)
(-1.86988e-14 46.6123 -2.83033)
(0 46.6123 -2.83033)
(-9.03715e-15 45.4045 -2.8085)
(0 45.4045 -2.8085)
(0 44.2295 -2.78694)
(0 44.2295 -2.78694)
(-3.85849e-14 43.0866 -2.76567)
(-1.54339e-13 43.0866 -2.76567)
(0 41.9752 -2.74469)
(0 41.9752 -2.74469)
(1.96806e-14 40.8946 -2.72402)
(0 40.8946 -2.72402)
(-2.54679e-14 39.8441 -2.70367)
(7.94897e-14 39.8441 -2.70367)
(0 38.823 -2.68365)
(-1.05252e-13 38.823 -2.68365)
(0 37.8306 -2.66395)
(-8.1007e-14 37.8306 -2.66395)
(3.65409e-15 36.8661 -2.64459)
(-1.05851e-13 36.8661 -2.64459)
(0 35.9288 -2.62556)
(8.25017e-14 35.9288 -2.62556)
(2.08102e-14 35.018 -2.60687)
(2.32185e-14 35.018 -2.60687)
(4.19873e-14 34.1329 -2.58851)
(8.39746e-14 34.1329 -2.58851)
(-2.11758e-14 33.2728 -2.5705)
(8.4703e-14 33.2728 -2.5705)
(0 32.4371 -2.55282)
(-2.19653e-14 32.4371 -2.55282)
(4.30989e-14 31.625 -2.53547)
(-2.15628e-14 31.625 -2.53547)
(2.17144e-14 30.8358 -2.51846)
(8.68577e-14 30.8358 -2.51846)
(2.18915e-14 30.0689 -2.50177)
(8.75659e-14 30.0689 -2.50177)
(2.20674e-14 29.3235 -2.48541)
(0 29.3235 -2.48541)
(2.00252e-14 28.5992 -2.46937)
(-8.89681e-14 28.5992 -2.46937)
(4.20738e-14 27.8951 -2.45365)
(0 27.8951 -2.45365)
(-3.28997e-15 27.2108 -2.43824)
(-3.8596e-14 27.2108 -2.43824)
(0 26.5456 -2.42314)
(0 26.5456 -2.42314)
(2.29294e-14 25.8988 -2.40834)
(0 25.8988 -2.40834)
(4.61971e-14 25.2701 -2.39384)
(0 25.2701 -2.39384)
(3.58438e-14 24.6587 -2.37964)
(0 24.6587 -2.37964)
(2.34337e-14 24.0642 -2.36571)
(1.8747e-13 24.0642 -2.36571)
(0 23.486 -2.35207)
(0 23.486 -2.35207)
(-5.7674e-14 22.9236 -2.33871)
(0 22.9236 -2.33871)
(-2.39289e-14 22.3766 -2.32561)
(0 22.3766 -2.32561)
(0 21.8445 -2.31278)
(0 21.8445 -2.31278)
(2.42543e-14 21.3267 -2.3002)
(0 21.3267 -2.3002)
(0 20.8228 -2.28788)
(3.14912e-14 20.8228 -2.28788)
(4.91521e-14 20.3325 -2.2758)
(-9.83041e-14 20.3325 -2.2758)
(4.94712e-14 19.8553 -2.26395)
(-9.89423e-14 19.8553 -2.26395)
(4.8972e-15 19.3908 -2.25234)
(-2.98731e-13 19.3908 -2.25234)
(-2.50522e-14 18.9385 -2.24096)
(-2.92456e-14 18.9385 -2.24096)
(0 18.4981 -2.22979)
(7.21272e-14 18.4981 -2.22979)
(-2.81836e-14 18.0693 -2.21884)
(-2.81836e-14 18.0693 -2.21884)
(2.55209e-14 17.6517 -2.2081)
(0 17.6517 -2.2081)
(-2.56756e-14 17.2449 -2.19755)
(-1.02702e-13 17.2449 -2.19755)
(0 16.8486 -2.18721)
(0 16.8486 -2.18721)
(2.59827e-14 16.4625 -2.17705)
(1.03931e-13 16.4625 -2.17705)
(5.22703e-14 16.0863 -2.16707)
(-1.04541e-13 16.0863 -2.16707)
(5.04467e-14 15.7196 -2.15727)
(-1.55594e-13 15.7196 -2.15727)
(5.1199e-14 15.3622 -2.14764)
(-2.47612e-14 15.3622 -2.14764)
(-2.43074e-14 15.0138 -2.13817)
(-1.06353e-13 15.0138 -2.13817)
(4.7724e-14 14.6741 -2.12886)
(-2.61627e-13 14.6741 -2.12886)
(-2.34247e-14 14.3428 -2.1197)
(0 14.3428 -2.1197)
(5.40704e-14 14.0197 -2.11068)
(1.08141e-13 14.0197 -2.11068)
(7.23311e-14 13.7046 -2.1018)
(-4.51482e-14 13.7046 -2.1018)
(0 13.3972 -2.09305)
(1.0932e-13 13.3972 -2.09305)
(2.74764e-14 13.0972 -2.08443)
(-1.09906e-13 13.0972 -2.08443)
(4.27114e-14 12.8045 -2.07593)
(-1.532e-13 12.8045 -2.07593)
(0 12.5188 -2.06754)
(4.19287e-14 12.5188 -2.06754)
(2.7912e-14 12.24 -2.05926)
(-1.52809e-13 12.24 -2.05926)
(5.61121e-14 11.9677 -2.05107)
(-1.12224e-13 11.9677 -2.05107)
(2.81995e-14 11.7019 -2.04298)
(1.12798e-13 11.7019 -2.04298)
(5.66847e-14 11.4423 -2.03497)
(1.13369e-13 11.4423 -2.03497)
(2.84847e-14 11.1887 -2.02704)
(0 11.1887 -2.02704)
(8.89844e-15 10.941 -2.01918)
(-3.75249e-14 10.941 -2.01918)
(2.87676e-14 10.6989 -2.01139)
(-1.1507e-13 10.6989 -2.01139)
(2.89082e-14 10.4624 -2.00365)
(1.15633e-13 10.4624 -2.00365)
(5.80967e-14 10.2312 -1.99596)
(-3.54995e-14 10.2312 -1.99596)
(0 10.0052 -1.98832)
(1.51601e-13 10.0052 -1.98832)
(-2.93269e-14 9.7843 -1.98071)
(-1.85729e-13 9.7843 -1.98071)
(5.89308e-14 9.56823 -1.97312)
(-1.85029e-13 9.56823 -1.97312)
(3.36473e-15 9.35691 -1.96556)
(-2.69795e-13 9.35691 -1.96556)
(2.97408e-14 9.15018 -1.958)
(-1.51327e-13 9.15018 -1.958)
(0 8.94791 -1.95045)
(8.774e-14 8.94791 -1.95045)
(-2.34922e-15 8.74997 -1.94289)
(1.20056e-13 8.74997 -1.94289)
(6.07672e-14 8.55623 -1.93531)
(-1.51217e-13 8.55623 -1.93531)
(2.29173e-16 8.36656 -1.9277)
(0 8.36656 -1.9277)
(0 8.18084 -1.92006)
(-1.51186e-13 8.18084 -1.92006)
(0 7.99895 -1.91238)
(-1.22218e-13 7.99895 -1.91238)
(0 7.82077 -1.90464)
(-1.22753e-13 7.82077 -1.90464)
(0 7.64618 -1.89683)
(0 7.64618 -1.89683)
(5.83556e-14 7.47509 -1.88895)
(-2.74014e-14 7.47509 -1.88895)
(3.10864e-14 7.30737 -1.88097)
(1.24345e-13 7.30737 -1.88097)
(3.1218e-14 7.14293 -1.8729)
(-2.64064e-14 7.14293 -1.8729)
(0 6.98165 -1.86471)
(1.25396e-13 6.98165 -1.86471)
(0 6.82345 -1.85639)
(-2.54475e-14 6.82345 -1.85639)
(0 6.66821 -1.84793)
(-1.26438e-13 6.66821 -1.84793)
(0 6.51585 -1.83932)
(-4.90467e-14 6.51585 -1.83932)
(-3.18679e-14 6.36627 -1.83053)
(0 6.36627 -1.83053)
(1.52695e-14 6.21937 -1.82156)
(-1.7525e-13 6.21937 -1.82156)
(-3.21238e-14 6.07507 -1.81238)
(-1.28495e-13 6.07507 -1.81238)
(0 5.93326 -1.80298)
(0 5.93326 -1.80298)
(0 5.79388 -1.79335)
(-2.59019e-13 5.79388 -1.79335)
(0 5.65681 -1.78345)
(-1.30013e-13 5.65681 -1.78345)
(-4.30909e-14 5.52199 -1.77327)
(4.30909e-14 5.52199 -1.77327)
(0 5.38932 -1.76279)
(-1.73312e-13 5.38932 -1.76279)
(8.64945e-15 5.25872 -1.75198)
(-4.15261e-14 5.25872 -1.75198)
(1.06765e-13 5.13011 -1.74083)
(9.12339e-14 5.13011 -1.74083)
(6.62443e-14 5.00339 -1.72929)
(0 5.00339 -1.72929)
(6.64876e-14 4.87849 -1.71736)
(-1.7226e-13 4.87849 -1.71736)
(3.33647e-14 4.75532 -1.70499)
(0 4.75532 -1.70499)
(-3.34848e-14 4.6338 -1.69215)
(-3.78582e-14 4.6338 -1.69215)
(0 4.51385 -1.67881)
(1.34416e-13 4.51385 -1.67881)
(-3.37224e-14 4.39537 -1.66493)
(9.84063e-14 4.39537 -1.66493)
(3.58149e-14 4.27828 -1.65048)
(-1.71175e-13 4.27828 -1.65048)
(3.51586e-14 4.1625 -1.63542)
(-1.70985e-13 4.1625 -1.63542)
(-3.40723e-14 4.04793 -1.61968)
(-1.70803e-13 4.04793 -1.61968)
(6.83739e-14 3.93449 -1.60324)
(-1.36748e-13 3.93449 -1.60324)
(3.43006e-14 3.82208 -1.58604)
(0 3.82208 -1.58604)
(-6.5303e-14 3.7106 -1.56801)
(1.05001e-13 3.7106 -1.56801)
(0 3.59997 -1.54911)
(0 3.59997 -1.54911)
(0 3.49006 -1.52925)
(-1.38539e-13 3.49006 -1.52925)
(3.08892e-14 3.38079 -1.50837)
(-3.08892e-14 3.38079 -1.50837)
(-2.57948e-14 3.27204 -1.4864)
(1.09083e-13 3.27204 -1.4864)
(3.49579e-14 3.16368 -1.46324)
(-2.79663e-13 3.16368 -1.46324)
(0 3.05561 -1.4388)
(0 3.05561 -1.4388)
(-2.22069e-14 2.94769 -1.41298)
(0 2.94769 -1.41298)
(9.15898e-14 2.83978 -1.38567)
(-1.97394e-13 2.83978 -1.38567)
(-9.06579e-14 2.73174 -1.35674)
(1.41473e-13 2.73174 -1.35674)
(7.09332e-14 2.62341 -1.32606)
(1.41866e-13 2.62341 -1.32606)
(1.78444e-14 2.51463 -1.29348)
(0 2.51463 -1.29348)
(-1.66478e-14 2.40523 -1.25884)
(0 2.40523 -1.25884)
(3.57502e-14 2.29502 -1.22196)
(0 2.29502 -1.22196)
(3.58404e-14 2.18379 -1.18264)
(-1.93768e-13 2.18379 -1.18264)
(3.59283e-14 2.07134 -1.14067)
(1.43713e-13 2.07134 -1.14067)
(0 1.95743 -1.09582)
(-1.9263e-13 1.95743 -1.09582)
(3.60964e-14 1.84183 -1.04783)
(-1.44386e-13 1.84183 -1.04783)
(8.2988e-14 1.72429 -0.996426)
(0 1.72429 -0.996426)
(4.59539e-14 1.60455 -0.941319)
(1.45012e-13 1.60455 -0.941319)
(0 1.48235 -0.882194)
(-2.90612e-13 1.48235 -0.882194)
(0 1.35741 -0.818724)
(-1.45586e-13 1.35741 -0.818724)
(3.64628e-14 1.22949 -0.750571)
(-1.45851e-13 1.22949 -0.750571)
(3.65251e-14 1.09834 -0.677394)
(1.461e-13 1.09834 -0.677394)
(7.8478e-14 0.963753 -0.598859)
(-3.34559e-13 0.963753 -0.598859)
(1.144e-13 0.825554 -0.514646)
(-1.87672e-13 0.825554 -0.514646)
(0 0.68363 -0.424467)
(0 0.68363 -0.424467)
(-7.63611e-14 0.537936 -0.328075)
(1.07275e-13 0.537936 -0.328075)
(0 0.388507 -0.225276)
(-1.85965e-13 0.388507 -0.225276)
(-3.67951e-14 0.235469 -0.11594)
(1.08986e-13 0.235469 -0.11594)
(3.68192e-14 1.53252e-06 -5.67226e-07)
(1.85009e-13 7.32977e-07 -2.71295e-07)
(3.68785e-14 -1.48539e-06 5.49785e-07)
(1.47277e-13 -9.5181e-07 3.52291e-07)
(0 -0.235469 0.115939)
(2.56166e-13 -0.235469 0.115939)
(-3.67643e-14 -0.388506 0.225275)
(-3.89075e-14 -0.388506 0.225275)
(3.96338e-14 -0.537935 0.328074)
(1.07275e-13 -0.537935 0.328074)
(0 -0.68363 0.424467)
(2.93475e-13 -0.68363 0.424467)
(-3.66362e-14 -0.825554 0.514646)
(-1.46545e-13 -0.825554 0.514646)
(0 -0.963752 0.598858)
(4.1895e-14 -0.963752 0.598858)
(-3.65251e-14 -1.09834 0.677394)
(-1.461e-13 -1.09834 0.677394)
(0 -1.22949 0.75057)
(0 -1.22949 0.75057)
(3.63966e-14 -1.35741 0.818724)
(0 -1.35741 0.818724)
(0 -1.48235 0.882194)
(1.45306e-13 -1.48235 0.882194)
(0 -1.60455 0.941319)
(1.45012e-13 -1.60455 0.941319)
(0 -1.72429 0.996426)
(0 -1.72429 0.996426)
(1.15892e-14 -1.84183 1.04783)
(-1.92071e-13 -1.84183 1.04783)
(1.20603e-13 -1.95743 1.09582)
(-4.85757e-14 -1.95743 1.09582)
(-4.94825e-14 -2.07134 1.14067)
(0 -2.07134 1.14067)
(7.16808e-14 -2.18379 1.18264)
(9.29556e-14 -2.18379 1.18264)
(-3.57502e-14 -2.29502 1.22196)
(-1.43001e-13 -2.29502 1.22196)
(-7.13154e-14 -2.40523 1.25884)