/*--------------------------------*- C++ -*----------------------------------*\
| =========                 |                                                 |
| \\      /  F ield         | OpenFOAM: The Open Source CFD Toolbox           |
|  \\    /   O peration     | Version:  2106                                  |
|   \\  /    A nd           | Website:  www.openfoam.com                      |
|    \\/     M anipulation  |                                                 |
\*---------------------------------------------------------------------------*/
FoamFile
{
    version     2.0;
    format      ascii;
    arch        "LSB;label=32;scalar=64";
    class       volTensorField;
    location    "10100";
    object      grad(U);
}
// * * * * * * * * * * * * * * * * * * * * * * * * * * * * * * * * * * * * * //

dimensions      [0 0 -1 0 0 0 0];

internalField   nonuniform List<tensor> 
2000
(
(-3.57577e-18 -1.5927e-25 -1.79764e-27 12.9858 -4.55894e-12 -2.7212e-13 0.0240342 -4.21938e-15 -2.00493e-16)
(3.57577e-18 -7.25769e-29 -1.5328e-27 12.9858 -1.96245e-15 -4.32689e-14 0.0240342 -2.04014e-18 -4.53741e-17)
(0 0 9.491e-31 12.9834 0 -9.52976e-14 0.0725422 0 -3.59307e-16)
(0 -2.23478e-29 -7.98137e-31 12.9834 -4.23534e-15 -3.34061e-14 0.0725422 -7.62307e-18 -2.23051e-16)
(-2.95783e-18 -9.26939e-30 -8.06366e-32 12.9808 1.65697e-12 -3.5731e-14 0.100633 -2.21249e-14 -1.88044e-16)
(0 1.25362e-29 3.91756e-31 12.9808 -5.50464e-15 -3.11772e-15 0.100633 -1.91779e-17 -2.31397e-16)
(-9.68284e-18 -4.20116e-31 -2.67464e-31 12.9782 2.49734e-13 -2.56024e-14 0.102491 -3.15577e-15 -2.12856e-16)
(3.87314e-17 6.15323e-30 3.84577e-31 12.9782 -5.42604e-15 -3.14171e-15 0.102491 -3.05039e-17 -2.40011e-16)
(0 6.04048e-30 3.7753e-31 12.9756 3.1758e-14 -2.89794e-14 0.104382 -7.30077e-16 -2.49469e-16)
(-5.31326e-17 -3.02024e-30 -1.88765e-31 12.9756 -5.50152e-15 -3.16624e-15 0.104382 -4.20772e-17 -2.48904e-16)
(0 -1.0962e-29 7.41223e-31 12.9728 -1.82202e-14 -3.16762e-14 0.106307 -7.39717e-17 -2.6508e-16)
(-9.40312e-17 -1.48245e-29 -7.41223e-31 12.9728 -5.62452e-15 -3.19044e-15 0.106307 -5.41865e-17 -2.58088e-16)
(0 -4.697e-29 -5.4573e-31 12.97 -1.49055e-27 -3.26958e-14 0.108268 -3.15544e-30 -2.75893e-16)
(1.22449e-16 8.73169e-30 3.6382e-31 12.97 -5.67885e-15 -3.21153e-15 0.108268 -6.67498e-17 -2.67573e-16)
(0 0 0 12.967 9.07418e-15 -3.34408e-14 0.110263 -6.52005e-17 -2.87741e-16)
(3.02783e-16 2.85723e-30 3.57153e-31 12.967 -5.70269e-15 -3.23126e-15 0.110263 -7.95555e-17 -2.77355e-16)
(-4.5217e-17 3.06633e-30 1.48386e-31 12.964 9.93991e-15 -3.42449e-14 0.112295 -8.79223e-17 -3.0022e-16)
(0 2.80487e-30 0 12.964 -5.76137e-15 -3.25354e-15 0.112295 -9.27906e-17 -2.87451e-16)
(9.68791e-17 -8.26041e-30 -3.44184e-31 12.9609 9.54917e-15 -3.50592e-14 0.114364 -8.2657e-17 -3.12956e-16)
(-9.68791e-17 8.26041e-30 3.44184e-31 12.9609 -5.84816e-15 -3.2742e-15 0.114364 -1.06448e-16 -2.97887e-16)
(9.51039e-17 -2.70301e-29 -2.36514e-30 12.9577 9.61967e-15 -3.58653e-14 0.116469 -8.43389e-17 -3.26027e-16)
(0 2.97332e-29 2.02726e-30 12.9577 -5.92078e-15 -3.29138e-15 0.116469 -1.20821e-16 -3.08647e-16)
(6.81495e-17 4.90012e-30 4.88065e-31 12.9545 9.73695e-15 -3.66709e-14 0.118613 -8.70393e-17 -3.39502e-16)
(1.79237e-16 -2.65348e-30 -3.31685e-31 12.9545 -5.95889e-15 -3.30775e-15 0.118613 -1.35533e-16 -3.19748e-16)
(0 5.20972e-30 3.25607e-31 12.9511 9.88697e-15 -3.74846e-14 0.120795 -8.96649e-17 -3.53492e-16)
(0 -5.20972e-30 -3.25607e-31 12.9511 -6.05609e-15 -3.32179e-15 0.120795 -1.50395e-16 -3.31203e-16)
(-2.64092e-16 2.60693e-29 2.43275e-30 12.9476 1.00097e-14 -3.83065e-14 0.123017 -9.3118e-17 -3.67917e-16)
(8.99708e-17 -2.0457e-29 -1.91784e-30 12.9476 -6.12748e-15 -3.33308e-15 0.123017 -1.66053e-16 -3.43014e-16)
(-3.57339e-16 1.30936e-29 1.46102e-30 12.9441 1.00059e-14 -3.91357e-14 0.125279 -9.53763e-17 -3.82864e-16)
(0 -5.02053e-30 -6.27567e-31 12.9441 -6.08121e-15 -3.34505e-15 0.125279 -1.82095e-16 -3.55193e-16)
(2.74154e-16 -1.29071e-29 -8.32985e-31 12.9405 9.93866e-15 -3.99834e-14 0.127581 -9.65537e-17 -3.98499e-16)
(-4.02985e-16 7.3928e-30 9.241e-31 12.9405 -6.05095e-15 -3.3579e-15 0.127581 -1.98111e-16 -3.67753e-16)
(1.7023e-16 -9.67644e-30 -9.07166e-31 12.9368 9.98333e-15 -4.08485e-14 0.129925 -9.76436e-17 -4.14671e-16)
(0 9.67644e-30 9.07166e-31 12.9368 -6.06033e-15 -3.36713e-15 0.129925 -2.15084e-16 -3.80699e-16)
(4.03026e-16 -2.50875e-29 -3.15241e-30 12.9329 1.01859e-14 -4.17224e-14 0.13231 -1.01089e-16 -4.31398e-16)
(4.71832e-16 1.42487e-29 2.07793e-30 12.9329 -6.18549e-15 -3.37754e-15 0.13231 -2.32546e-16 -3.94025e-16)
(-1.26802e-16 1.23666e-29 5.44261e-31 12.929 1.04009e-14 -4.2608e-14 0.134739 -1.05469e-16 -4.48757e-16)
(-1.64048e-16 -4.66253e-30 5.82816e-31 12.929 -6.4173e-15 -3.38687e-15 0.134739 -2.50717e-16 -4.07778e-16)
(1.35808e-16 -7.61545e-30 -8.37958e-31 12.925 1.05963e-14 -4.3506e-14 0.137211 -1.0938e-16 -4.66725e-16)
(5.43233e-16 9.15417e-30 1.14427e-30 12.925 -6.44108e-15 -3.38588e-15 0.137211 -2.69926e-16 -4.21948e-16)
(-1.4498e-16 3.03506e-30 8.40972e-31 12.9209 1.0676e-14 -4.44149e-14 0.139727 -1.13592e-16 -4.85327e-16)
(1.15984e-15 0 -5.61652e-31 12.9209 -6.40897e-15 -3.38393e-15 0.139727 -2.88651e-16 -4.36508e-16)
(0 8.82175e-30 5.5136e-31 12.9167 1.06593e-14 -4.53375e-14 0.142288 -1.15226e-16 -5.04642e-16)
(4.62086e-16 -4.41088e-30 -5.5136e-31 12.9167 -6.54812e-15 -3.38514e-15 0.142288 -3.07889e-16 -4.51512e-16)
(3.047e-16 -8.6601e-30 -5.41256e-31 12.9123 1.07633e-14 -4.62821e-14 0.144895 -1.17505e-16 -5.24818e-16)
(6.55326e-16 8.6601e-30 5.41256e-31 12.9123 -6.53929e-15 -3.38422e-15 0.144895 -3.28525e-16 -4.66953e-16)
(0 8.5014e-30 5.31338e-31 12.9079 1.0993e-14 -4.7242e-14 0.147548 -1.21902e-16 -5.45607e-16)
(6.94069e-16 -4.2507e-30 0 12.9079 -6.48273e-15 -3.37688e-15 0.147548 -3.48531e-16 -4.82873e-16)
(-1.83381e-16 -5.32374e-30 3.38908e-31 12.9033 1.12523e-14 -4.82091e-14 0.150248 -1.27186e-16 -5.67119e-16)
(0 1.25184e-29 5.21601e-31 12.9033 -6.57116e-15 -3.36664e-15 0.150248 -3.69224e-16 -4.99209e-16)
(0 -1.2289e-29 -3.07226e-30 12.8986 1.13648e-14 -4.9189e-14 0.152996 -1.32534e-16 -5.89419e-16)
(7.737e-16 1.2289e-29 3.07226e-30 12.8986 -6.61804e-15 -3.36265e-15 0.152996 -3.91399e-16 -5.15999e-16)
(7.93193e-17 -5.02808e-30 -1.30289e-31 12.8937 1.13323e-14 -5.01904e-14 0.155793 -1.34648e-16 -6.12693e-16)
(-2.82972e-16 8.04256e-30 1.00532e-30 12.8937 -6.71049e-15 -3.34943e-15 0.155793 -4.13884e-16 -5.3334e-16)
(-2.14068e-16 3.01086e-30 3.90117e-31 12.8887 1.14599e-14 -5.12079e-14 0.158638 -1.36742e-16 -6.3668e-16)
(0 3.94759e-30 9.86898e-31 12.8887 -6.78119e-15 -3.33246e-15 0.158638 -4.3764e-16 -5.51106e-16)
(0 3.87525e-30 1.45322e-30 12.8836 1.17943e-14 -5.22369e-14 0.161534 -1.42865e-16 -6.61589e-16)
(0 0 -4.84407e-31 12.8836 -6.86803e-15 -3.32298e-15 0.161534 -4.61842e-16 -5.69374e-16)
(-5.03174e-16 2.58272e-29 4.29472e-30 12.8783 1.20214e-14 -3.55793e-14 0.16448 -1.50282e-16 -2.35083e-16)
(-9.41897e-16 -1.90212e-29 -2.85318e-30 12.8783 -6.84404e-15 -3.308e-15 0.16448 -4.87151e-16 -5.88166e-16)
(2.46471e-16 -2.99748e-30 4.21365e-31 12.8728 1.19792e-14 -1.43944e-14 0.167478 -1.54049e-16 -1.35159e-16)
(9.85885e-16 0 -9.33632e-31 12.8728 -6.71982e-15 -3.28699e-15 0.167478 -5.11837e-16 -6.07493e-16)
(0 7.33219e-30 1.83305e-30 12.867 1.18966e-14 -1.022e-14 0.170527 -1.54847e-16 -1.3327e-16)
(0 -3.66609e-30 -9.16524e-31 12.867 -6.91012e-15 -3.25871e-15 0.170527 -5.36261e-16 -6.27341e-16)
(-2.69072e-16 6.58852e-30 2.32109e-30 12.8611 1.19782e-14 -9.88239e-15 0.173628 -1.57664e-16 -1.31135e-16)
(0 -3.59891e-30 -1.79946e-30 12.8611 -7.17112e-15 -3.23221e-15 0.173628 -5.63973e-16 -6.47636e-16)
(-2.80682e-16 -5.48066e-31 -3.57013e-31 12.8549 1.20838e-14 -9.53652e-15 0.176782 -1.62886e-16 -1.28776e-16)
(0 7.06593e-30 1.76648e-30 12.8549 -7.18959e-15 -3.19489e-15 0.176782 -5.93486e-16 -6.68564e-16)
(0 -1.73411e-29 -4.33528e-30 12.8485 1.21897e-14 -9.18712e-15 0.179989 -1.66511e-16 -1.26284e-16)
(1.17001e-15 1.73411e-29 4.33528e-30 12.8485 -7.03998e-15 -3.15613e-15 0.179989 -6.22117e-16 -6.89886e-16)
(0 6.80934e-30 2.5535e-30 12.8417 1.24513e-14 -8.83804e-15 0.18325 -1.71991e-16 -1.23663e-16)
(-4.79165e-16 -3.40467e-30 -8.51168e-31 12.8417 -7.01086e-15 -3.1254e-15 0.18325 -6.52281e-16 -7.11814e-16)
(3.16796e-16 3.72446e-31 1.13158e-30 12.8346 1.27029e-14 -8.47373e-15 0.186565 -1.80253e-16 -1.20449e-16)
(7.96798e-16 -3.34228e-30 -1.67114e-30 12.8346 -6.98637e-15 -3.08598e-15 0.186565 -6.83042e-16 -7.34287e-16)
(-3.29274e-16 -6.87863e-30 -1.91701e-30 12.827 1.2786e-14 -8.10856e-15 0.189933 -1.85789e-16 -1.17506e-16)
(1.31709e-15 9.8431e-30 2.46078e-30 12.827 -7.1399e-15 -3.04693e-15 0.189933 -7.11861e-16 -7.57382e-16)
(-3.41978e-16 -1.6366e-29 -2.67303e-30 12.8191 1.28726e-14 -7.75601e-15 0.193355 -1.89508e-16 -1.14349e-16)
(0 1.93255e-29 3.22091e-30 12.8191 -7.3896e-15 -2.98079e-15 0.193355 -7.43541e-16 -7.81193e-16)
(0 1.58094e-29 3.95236e-30 12.8106 1.31489e-14 -7.39553e-15 0.19683 -1.95403e-16 -1.10853e-16)
(1.41965e-15 -1.58094e-29 -3.95236e-30 12.8106 -7.20071e-15 -2.89834e-15 0.19683 -7.74953e-16 -8.05319e-16)
(-1.173e-15 1.83104e-29 1.88771e-30 12.8016 1.3214e-14 -7.02681e-15 0.200359 -2.05144e-16 -1.07112e-16)
(1.47232e-15 -9.31184e-30 -7.75987e-31 12.8016 -7.28103e-15 -2.83763e-15 0.200359 -8.05066e-16 -8.29901e-16)
(4.28837e-16 -9.14121e-30 -2.2853e-30 12.792 1.28438e-14 -6.64839e-15 0.20394 -2.04802e-16 -1.02959e-16)
(-4.28837e-16 9.14121e-30 3.04707e-30 12.792 -7.47709e-15 -2.77238e-15 0.20394 -8.41779e-16 -8.55192e-16)
(0 -5.98247e-30 -2.24342e-30 12.7817 1.2841e-14 -6.26357e-15 0.207573 -2.01067e-16 -9.86437e-17)
(0 5.98247e-30 2.24342e-30 12.7817 -7.48496e-15 -2.70654e-15 0.207573 -8.78144e-16 -8.80933e-16)
(-4.09025e-16 1.46766e-29 2.76913e-30 12.7705 1.34012e-14 -5.89097e-15 0.211256 -2.12428e-16 -9.45055e-17)
(-1.6361e-15 -5.87284e-30 -7.34105e-31 12.7705 -7.49293e-15 -2.64351e-15 0.211256 -9.14975e-16 -9.07285e-16)
(4.23166e-16 2.84175e-30 1.59178e-30 12.7585 1.36445e-14 -5.52073e-15 0.214988 -2.27187e-16 -8.98772e-17)
(1.69267e-15 -5.76522e-30 -1.44131e-30 12.7585 -7.54087e-15 -2.56955e-15 0.214988 -9.50692e-16 -9.34092e-16)
(4.3756e-16 1.1231e-29 2.25642e-30 12.7454 1.35625e-14 -5.13998e-15 0.218768 -2.28635e-16 -8.49889e-17)
(-1.75024e-15 -1.41489e-29 -2.82979e-30 12.7454 -7.92984e-15 -2.47062e-15 0.218768 -9.86523e-16 -9.61625e-16)
(-4.52209e-16 2.91177e-30 5.76501e-31 12.7312 1.36633e-14 -4.73661e-15 0.222592 -2.32933e-16 -7.91508e-17)
(1.80884e-15 0 6.94483e-31 12.7312 -7.75356e-15 -2.34196e-15 0.222592 -1.02986e-15 -9.89527e-16)
(0 -1.63622e-29 -2.04527e-30 12.7157 1.36083e-14 -4.30766e-15 0.226458 -2.40776e-16 -7.29031e-17)
(3.73694e-15 1.63622e-29 2.72703e-30 12.7157 -7.19084e-15 -2.24151e-15 0.226458 -1.07015e-15 -1.01752e-15)
(4.8229e-16 -1.89611e-29 -4.5977e-30 12.6987 1.33229e-14 -3.88295e-15 0.230363 -2.39747e-16 -6.67136e-17)
(1.92916e-15 1.33853e-29 2.67706e-30 12.6987 -7.45144e-15 -2.17497e-15 0.230363 -1.10865e-15 -1.04615e-15)
(-1.23744e-15 8.14917e-30 2.5555e-30 12.68 1.34782e-14 -3.47573e-15 0.234302 -2.3949e-16 -6.05892e-17)
(-1.99091e-15 0 -6.57e-31 12.68 -7.85962e-15 -2.04751e-15 0.234302 -1.15259e-15 -1.07574e-15)
(0 -7.73953e-30 -1.28992e-30 12.6596 1.37105e-14 -3.06174e-15 0.238272 -2.54523e-16 -5.36307e-17)
(0 7.73953e-30 1.93488e-30 12.6596 -7.66889e-15 -1.88943e-15 0.238272 -1.19801e-15 -1.10515e-15)
(-1.95512e-15 1.80733e-29 4.38775e-30 12.637 1.38375e-14 -2.62488e-15 0.242267 -2.57269e-16 -4.61063e-17)
(0 -7.5977e-30 -1.89943e-30 12.637 -7.59869e-15 -1.76701e-15 0.242267 -1.24174e-15 -1.13472e-15)
(6.99792e-16 -7.45848e-30 -1.86462e-30 12.6122 1.43927e-14 -2.18364e-15 0.246281 -2.68988e-16 -3.84015e-17)
(0 7.45848e-30 6.2154e-31 12.6122 -7.75025e-15 -1.61926e-15 0.246281 -1.29011e-15 -1.16488e-15)
(-6.86968e-16 1.2203e-29 2.4406e-30 12.5849 1.47717e-14 -1.73729e-15 0.250306 -2.88666e-16 -3.0068e-17)
(-1.56182e-15 -1.70842e-29 -3.6609e-30 12.5849 -7.8352e-15 -1.47525e-15 0.250306 -1.34023e-15 -1.195e-15)
(-9.53728e-17 1.39192e-29 2.40127e-30 12.5547 1.47559e-14 -1.28856e-15 0.254337 -2.94218e-16 -2.16448e-17)
(0 -9.58351e-30 -1.19794e-30 12.5547 -7.93053e-15 -1.35458e-15 0.254337 -1.38844e-15 -1.22533e-15)
(-5.96096e-16 -1.86015e-30 -1.16929e-30 12.5214 1.47469e-14 -8.19742e-16 0.258362 -2.98901e-16 -1.1827e-17)
(0 9.4079e-30 1.76398e-30 12.5214 -7.85875e-15 -1.18925e-15 0.258362 -1.44133e-15 -1.25593e-15)
(-5.77043e-16 -3.56538e-30 9.97134e-31 12.4847 1.44783e-14 -5.39305e-17 0.262374 -3.04934e-16 -5.62322e-19)
(2.45387e-15 4.61775e-30 1.73166e-30 12.4847 -7.52331e-15 -9.94718e-16 0.262374 -1.49323e-15 -1.28627e-15)
(-6.31119e-16 2.82832e-30 -1.58522e-44 12.4442 1.39465e-14 1.11374e-28 0.266362 -2.98859e-16 7.88861e-31)
(0 0 0 12.4442 -7.34395e-15 -8.23328e-16 0.266362 -1.54135e-15 -1.31665e-15)
(-1.29811e-15 2.78942e-29 4.52054e-30 12.3996 1.42272e-14 7.89611e-16 0.270313 -2.9362e-16 -1.13693e-17)
(-2.59621e-15 -2.22503e-29 -3.33755e-30 12.3996 -7.64595e-15 -6.67672e-16 0.270313 -1.59413e-15 -1.34719e-15)
(6.67269e-16 1.46642e-29 2.6885e-30 12.3506 1.48109e-14 1.33298e-15 0.274216 -3.2238e-16 -2.29107e-17)
(-2.66908e-15 -1.74741e-29 -4.36852e-30 12.3506 -7.9414e-15 -5.25818e-16 0.274216 -1.65218e-15 -1.37749e-15)
(-1.81064e-15 4.28847e-30 3.21635e-30 12.2967 1.4573e-14 1.90063e-15 0.278057 -3.30658e-16 -3.59765e-17)
(0 0 -1.07212e-30 12.2967 -7.66994e-15 -3.69495e-16 0.278057 -1.71334e-15 -1.40744e-15)
(-1.40907e-15 -7.0449e-30 -2.00039e-30 12.2376 1.43951e-14 2.53429e-15 0.281822 -3.23744e-16 -4.95048e-17)
(5.63628e-15 8.41976e-30 2.10494e-30 12.2376 -7.25733e-15 -1.29625e-16 0.281822 -1.76632e-15 -1.43712e-15)
(-7.23581e-16 1.51803e-29 3.67185e-30 12.173 1.45503e-14 3.19336e-15 0.285495 -3.34902e-16 -6.65914e-17)
(2.89432e-15 -1.23982e-29 -3.09955e-30 12.173 -7.87513e-15 1.24337e-16 0.285495 -1.81513e-15 -1.46618e-15)
(1.14195e-15 -1.2171e-29 -2.0285e-30 12.1024 1.41374e-14 3.81613e-15 0.289061 -3.43244e-16 -8.2371e-17)
(0 1.2171e-29 2.0285e-30 12.1024 -8.17201e-15 3.36519e-16 0.289061 -1.87516e-15 -1.49487e-15)
(-1.8835e-15 2.76598e-30 2.54954e-30 12.0256 1.34254e-14 4.44601e-15 0.292504 -3.27741e-16 -9.89407e-17)
(3.0499e-15 3.98266e-30 0 12.0256 -6.90377e-15 5.70578e-16 0.292504 -1.9362e-15 -1.52305e-15)
(0 7.81936e-30 9.7742e-31 11.9422 1.30394e-14 5.07928e-15 0.295807 -3.21424e-16 -1.16219e-16)
(0 -3.90968e-30 -9.7742e-31 11.9422 -6.1468e-15 7.64716e-16 0.295807 -1.98888e-15 -1.54958e-15)
(-8.02403e-16 1.0428e-29 1.50043e-30 11.8519 1.26101e-14 5.04046e-15 0.298953 -3.20898e-16 -1.34155e-16)
(0 -3.83804e-30 0 11.8519 -6.42338e-15 9.44632e-16 0.298953 -2.04442e-15 -1.57591e-15)
(-1.06051e-15 3.76771e-30 1.88385e-30 11.7545 1.24192e-14 4.36926e-15 0.301927 -3.11793e-16 -1.18632e-16)
(0 0 -9.41926e-31 11.7545 -6.1185e-15 1.21607e-15 0.301927 -2.10765e-15 -1.60132e-15)
(0 -1.47947e-29 -2.774e-30 11.6497 1.2645e-14 4.31134e-15 0.304712 -3.23143e-16 -1.04581e-16)
(3.37319e-15 1.47947e-29 2.774e-30 11.6497 -5.81103e-15 1.47903e-15 0.304712 -2.16872e-15 -1.62438e-15)
(0 1.45235e-29 3.63089e-30 11.5375 1.27043e-14 4.82048e-15 0.307293 -3.35406e-16 -1.20058e-16)
(0 -1.45235e-29 -3.63089e-30 11.5375 -6.29043e-15 1.64442e-15 0.307293 -2.22464e-15 -1.64523e-15)
(-8.85079e-16 2.71877e-30 5.15958e-31 11.4176 1.28872e-14 5.31379e-15 0.309656 -3.38495e-16 -1.3578e-16)
(3.54031e-15 3.56435e-30 1.78218e-30 11.4176 -6.08042e-15 1.80487e-15 0.309656 -2.28656e-15 -1.66513e-15)
(0 -1.74952e-29 -3.49904e-30 11.29 1.29342e-14 5.77084e-15 0.311787 -3.58022e-16 -1.51486e-16)
(3.62508e-15 1.74952e-29 3.49904e-30 11.29 -6.03455e-15 2.05021e-15 0.311787 -2.35281e-15 -1.68414e-15)
(-9.27642e-16 1.64382e-29 3.07226e-30 11.1549 1.25991e-14 6.21603e-15 0.313675 -3.53858e-16 -1.66288e-16)
(-3.71057e-15 -1.37397e-29 -2.57619e-30 11.1549 -6.83261e-15 2.28037e-15 0.313675 -2.41987e-15 -1.70138e-15)
(0 -6.74395e-30 -8.42994e-31 11.0122 1.27479e-14 6.67857e-15 0.315311 -3.52553e-16 -1.82389e-16)
(-3.79672e-15 3.37197e-30 8.42994e-31 11.0122 -6.40848e-15 2.48648e-15 0.315311 -2.49739e-15 -1.71667e-15)
(-1.94174e-15 5.35907e-30 2.60235e-30 10.8622 1.2776e-14 7.083e-15 0.316686 -3.7577e-16 -1.99219e-16)
(3.88348e-15 0 -1.65509e-30 10.8622 -6.20095e-15 2.82992e-15 0.316686 -2.55631e-15 -1.72949e-15)
(-1.98538e-15 5.34358e-30 9.24119e-31 10.7051 1.25739e-14 7.4031e-15 0.317795 -3.67485e-16 -2.13012e-16)
(0 0 0 10.7051 -6.57975e-15 3.08473e-15 0.317795 -2.62205e-15 -1.73648e-15)
(0 -3.18998e-30 -2.39248e-30 10.5413 1.27774e-14 7.71809e-15 0.318635 -3.77844e-16 -2.25875e-16)
(4.0585e-15 3.18998e-30 2.39248e-30 10.5413 -6.12554e-15 3.18218e-15 0.318635 -2.6856e-15 -1.74206e-15)
(-2.79955e-15 2.1439e-29 3.56839e-30 10.371 1.24619e-14 7.99575e-15 0.319204 -3.93729e-16 -2.40233e-16)
(-4.14662e-15 -1.56576e-29 -2.34864e-30 10.371 -5.56102e-15 3.48377e-15 0.319204 -2.75669e-15 -1.74778e-15)
(1.05876e-15 -1.18669e-29 -2.72965e-30 10.1949 1.12426e-14 8.28989e-15 0.319503 -3.72499e-16 -2.51622e-16)
(0 9.22242e-30 2.3056e-30 10.1949 -4.17886e-15 3.8032e-15 0.319503 -2.83154e-15 -1.74866e-15)
(1.08093e-15 -1.16958e-29 -1.9189e-30 10.0133 1.02955e-14 8.68188e-15 0.319536 -3.31466e-16 -2.67885e-16)
(-4.32371e-15 9.05342e-30 1.5089e-30 10.0133 -3.30332e-15 3.82544e-15 0.319536 -2.87141e-15 -1.74478e-15)
(-2.20626e-15 1.712e-29 2.2708e-30 9.82689 1.0361e-14 8.99519e-15 0.319309 -3.25527e-16 -2.86353e-16)
(0 -8.88752e-30 -7.40627e-31 9.82689 -3.42031e-15 3.83462e-15 0.319309 -2.92944e-15 -1.74029e-15)
(0 5.81644e-30 1.45411e-30 9.63617 1.04513e-14 9.20368e-15 0.318829 -3.48257e-16 -2.98538e-16)
(0 -8.72466e-30 -1.45411e-30 9.63617 -3.63783e-15 3.9893e-15 0.318829 -2.97394e-15 -1.73461e-15)
(1.14758e-15 -2.61814e-30 -3.64291e-31 9.44177 1.05944e-14 9.48916e-15 0.318105 -3.43825e-16 -3.11079e-16)
(-9.18063e-15 0 0 9.44177 -4.04182e-15 4.11465e-15 0.318105 -3.02765e-15 -1.72735e-15)
(1.16978e-15 -1.1013e-29 -1.74885e-30 9.24431 1.09209e-14 9.73375e-15 0.317147 -3.71121e-16 -3.29226e-16)
(0 8.40784e-30 1.40131e-30 9.24431 -4.12332e-15 4.2544e-15 0.317147 -3.103e-15 -1.71706e-15)
(0 -1.37563e-29 -2.75125e-30 9.04444 1.08294e-14 9.82079e-15 0.315969 -3.79432e-16 -3.39766e-16)
(4.76782e-15 1.37563e-29 2.75125e-30 9.04444 -4.22403e-15 4.36269e-15 0.315969 -3.16307e-15 -1.70175e-15)
(1.21407e-15 -2.58282e-30 -1.66589e-30 8.84278 9.9444e-15 9.84806e-15 0.314584 -3.78637e-16 -3.47781e-16)
(4.85629e-15 2.70084e-30 6.7521e-31 8.84278 -4.60411e-15 4.32731e-15 0.314584 -3.21646e-15 -1.68433e-15)
(5.12913e-16 -1.33989e-29 -3.379e-30 8.63995 8.61588e-15 9.90166e-15 0.313005 -3.30034e-16 -3.54532e-16)
(0 1.06054e-29 2.65135e-30 8.63995 -4.99669e-15 4.3625e-15 0.313005 -3.29205e-15 -1.66845e-15)
(-1.05094e-15 -7.85665e-30 -2.0344e-30 8.43656 8.82927e-15 9.86454e-15 0.311247 -2.95501e-16 -3.64816e-16)
(5.03233e-15 1.56166e-29 2.60276e-30 8.43656 -3.79331e-15 4.52771e-15 0.311247 -3.3549e-15 -1.64892e-15)
(2.71832e-15 -1.2782e-29 -3.46676e-30 8.23317 9.36432e-15 9.69735e-15 0.309326 -3.58408e-16 -3.65119e-16)
(8.80119e-15 1.02203e-29 3.19383e-30 8.23317 -3.02311e-15 3.52624e-15 0.309326 -3.38381e-15 -1.62579e-15)
(-1.3017e-15 4.78308e-32 -3.65154e-31 8.03033 9.18392e-15 9.51041e-15 0.307255 -3.47343e-16 -3.65843e-16)
(0 2.50825e-30 -2.25178e-31 8.03033 -4.22034e-15 -1.16357e-29 0.307255 -3.43752e-15 -1.62258e-15)
(-2.64665e-15 5.09571e-30 5.02696e-31 7.82855 9.71106e-15 9.23283e-15 0.305052 -3.57932e-16 -3.6439e-16)
(5.29329e-15 0 0 7.82855 -4.45066e-15 -3.45861e-16 0.305052 -3.51195e-15 -1.6435e-15)
(-1.34481e-15 4.94772e-30 2.41765e-31 7.6283 1.03794e-14 8.86096e-15 0.302729 -4.02048e-16 -3.57715e-16)
(5.37925e-15 0 0 7.6283 -4.86102e-15 -3.2999e-16 0.302729 -3.57769e-15 -1.66276e-15)
(-1.33581e-15 1.18643e-29 2.37287e-30 7.43001 1.04176e-14 8.46736e-15 0.300302 -4.25165e-16 -3.48214e-16)
(0 -4.74574e-30 -1.18643e-30 7.43001 -5.01103e-15 -2.67173e-16 0.300302 -3.68514e-15 -1.64477e-15)
(4.01e-15 -1.18229e-29 -1.68021e-30 7.23406 9.97972e-15 8.1335e-15 0.297785 -4.20331e-16 -3.3895e-16)
(2.92671e-15 9.31755e-30 1.45587e-30 7.23406 -4.18738e-15 -3.29502e-16 0.297785 -3.7818e-15 -1.61508e-15)
(1.40837e-15 -9.35711e-30 -2.21652e-30 7.04081 8.79144e-15 7.75083e-15 0.29519 -4.04644e-16 -3.33475e-16)
(5.63346e-15 6.86011e-30 2.00086e-30 7.04081 -3.82385e-15 -3.0246e-16 0.29519 -3.82709e-15 -1.58489e-15)
(-1.42922e-15 2.496e-30 7.6975e-31 6.85056 7.68169e-15 7.41096e-15 0.292531 -3.35155e-16 -3.19192e-16)
(5.71687e-15 4.4896e-30 0 6.85056 -3.12086e-15 -1.84328e-16 0.292531 -3.87005e-15 -1.54955e-15)
(1.44989e-15 -1.13029e-29 -1.02621e-30 6.66357 7.1466e-15 7.24178e-15 0.289818 -3.23792e-16 -3.16609e-16)
(0 8.81465e-30 8.26374e-31 6.66357 -2.18887e-15 -1.46274e-16 0.289818 -3.94005e-15 -1.51321e-15)
(-1.47038e-15 8.97272e-30 1.00223e-30 6.48006 6.8415e-15 7.13825e-15 0.287064 -3.00582e-16 -3.16296e-16)
(3.4459e-15 -4.32656e-30 -5.40821e-31 6.48006 -1.67213e-15 -1.43046e-16 0.287064 -3.9949e-15 -1.47562e-15)
(1.49069e-15 -1.09668e-29 -1.24346e-30 6.30024 7.00949e-15 6.91529e-15 0.284279 -3.08578e-16 -3.19237e-16)
(0 8.49456e-30 1.06182e-30 6.30024 -2.16455e-15 -1.5884e-16 0.284279 -4.03488e-15 -1.43938e-15)
(-1.51081e-15 6.62858e-30 1.478e-30 6.12424 6.78956e-15 5.07219e-15 0.281471 -3.27286e-16 -3.07805e-16)
(6.04322e-15 0 -7.81772e-31 6.12424 -2.43527e-15 -1.88549e-16 0.281471 -4.1124e-15 -1.40204e-15)
(1.53073e-15 1.63789e-30 3.19177e-31 5.9522 7.13821e-15 3.2762e-15 0.278649 -2.99698e-16 -1.59406e-16)
(6.12291e-15 0 0 5.9522 -2.00554e-15 -2.24189e-16 0.278649 -4.15979e-15 -1.36633e-15)
(-2.26196e-15 8.03609e-30 5.02255e-31 5.7842 7.592e-15 3.0033e-15 0.275822 -3.72736e-16 -1.48811e-16)
(6.20182e-15 -4.01804e-30 0 5.7842 -2.46815e-15 -1.78099e-16 0.275822 -4.19308e-15 -1.33101e-15)
(-2.22051e-15 3.94441e-30 7.39578e-31 5.62031 7.04325e-15 2.95774e-15 0.272996 -3.54899e-16 -1.39007e-16)
(-6.27995e-15 0 -4.93052e-31 5.62031 -2.33795e-15 -1.53179e-16 0.272996 -4.29469e-15 -1.29341e-15)
(0 1.16164e-29 1.45205e-30 5.46058 6.6808e-15 2.74179e-15 0.270178 -3.32694e-16 -1.49928e-16)
(6.35728e-15 -1.16164e-29 -1.45205e-30 5.46058 -1.38475e-15 -2.15718e-16 0.270178 -4.35195e-15 -1.25593e-15)
(5.31415e-16 -1.27875e-29 -1.23795e-30 5.30503 6.24119e-15 2.31161e-15 0.267373 -3.3188e-16 -1.22563e-16)
(0 1.90059e-29 1.66302e-30 5.30503 -1.60182e-15 -3.29002e-16 0.267373 -4.38013e-15 -1.21976e-15)
(-1.6274e-15 2.41552e-30 -4.56244e-32 5.15365 6.28095e-15 1.89168e-15 0.264587 -3.00268e-16 -1.11579e-16)
(6.50959e-15 3.73152e-30 4.6644e-31 5.15365 -1.80309e-15 -4.11856e-16 0.264587 -4.45198e-15 -1.18519e-15)
(2.06217e-15 0 -6.86839e-31 5.00644 6.74597e-15 1.56119e-15 0.261823 -3.48528e-16 -8.34297e-17)
(0 3.66314e-30 1.14473e-30 5.00644 -3.34036e-15 -4.20111e-16 0.261823 -4.49627e-15 -1.14767e-15)
(0 7.19204e-30 4.49502e-31 4.86335 7.04284e-15 1.31996e-15 0.259087 -3.60937e-16 -8.07069e-17)
(-2.02438e-15 -3.59602e-30 0 4.86335 -2.63362e-15 -4.03576e-16 0.259087 -4.5852e-15 -1.10725e-15)
(1.68304e-15 -1.29612e-29 -1.96011e-30 4.72436 8.8871e-15 1.02369e-15 0.256381 -3.93757e-16 -6.04931e-17)
(6.73216e-15 1.05904e-29 1.54443e-30 4.72436 -1.89971e-15 -3.24255e-16 0.256381 -4.60581e-15 -1.06522e-15)
(-2.20053e-15 4.60548e-30 1.31899e-30 4.58939 9.94243e-15 3.88697e-16 0.253709 -5.77651e-16 -5.11191e-17)
(6.80481e-15 0 -6.49769e-31 4.58939 -3.22378e-15 -2.05988e-16 0.253709 -4.68159e-15 -1.0179e-15)
(0 0 0 4.4584 6.42545e-15 -3.69319e-16 0.251072 -5.2699e-16 -3.35827e-17)
(6.87669e-15 3.40193e-30 8.50483e-31 4.4584 -2.1454e-15 -1.6294e-16 0.251072 -4.7557e-15 -9.65315e-16)
(-3.47391e-15 -1.97487e-30 4.07048e-31 4.33131 1.55597e-15 -6.78949e-16 0.248473 -1.97489e-16 -4.48308e-17)
(6.94782e-15 6.67918e-30 0 4.33131 5.41269e-16 -1.01067e-17 0.248473 -4.78536e-15 -9.1124e-16)
(3.60012e-15 -4.75404e-30 -3.76572e-30 4.20804 4.93038e-32 -2.42584e-16 0.245914 0 -7.12542e-18)
(5.17263e-15 6.55679e-30 1.6392e-30 4.20804 1.88212e-15 2.21799e-16 0.245914 -4.76643e-15 -8.50109e-16)
(0 6.57883e-30 -7.35682e-45 4.0885 1.78991e-15 1.35006e-29 0.243397 -5.35566e-17 -1.97215e-31)
(-7.08786e-15 -9.65496e-30 -1.20687e-30 4.0885 8.61647e-17 4.25111e-16 0.243397 -4.77463e-15 -7.89412e-16)
(0 6.31869e-30 3.42184e-31 3.97262 3.05828e-15 4.58467e-16 0.240921 -2.0173e-16 -1.3974e-17)
(-1.77855e-15 -6.31869e-30 -1.44897e-32 3.97262 -4.55462e-16 0 0.240921 -4.79468e-15 -7.25753e-16)
(-3.6125e-15 1.39882e-29 1.97126e-30 3.86031 2.40119e-15 3.71867e-16 0.238489 -1.70849e-16 -4.2658e-17)
(0 -9.30435e-30 -1.55073e-30 3.86031 3.92683e-17 -1.87895e-16 0.238489 -4.78573e-15 -6.7525e-16)
(-1.82313e-15 8.4312e-30 -1.02824e-30 3.75146 2.68375e-15 9.99422e-17 0.236101 -1.26961e-16 -3.16101e-18)
(-1.71397e-15 -3.04462e-30 -3.80577e-31 3.75146 -6.60725e-16 1.8527e-16 0.236101 -4.77851e-15 -6.2247e-16)
(-5.04768e-15 1.49441e-29 1.49441e-30 3.646 3.87912e-15 6.7821e-16 0.233757 -2.13369e-16 -3.87423e-17)
(-3.99424e-15 -1.19553e-29 -1.12081e-30 3.646 -1.97615e-15 4.52209e-16 0.233757 -4.8121e-15 -5.61701e-16)
(3.71276e-15 -4.63103e-30 -5.919e-32 3.54381 5.48409e-15 1.05057e-15 0.231458 -2.87237e-16 -4.87549e-17)
(0 0 -8.77866e-31 3.54381 -2.42101e-15 2.1139e-30 0.231458 -4.86569e-15 -5.00388e-16)
(2.12404e-15 9.84677e-30 1.02508e-30 3.44482 6.14301e-15 9.65909e-16 0.229203 -4.34077e-16 -8.95416e-17)
(7.49101e-15 -1.15212e-29 -1.44015e-30 3.44482 -1.99817e-15 -2.55047e-16 0.229203 -4.93441e-15 -4.51935e-16)
(-1.88896e-15 2.26704e-30 -1.37922e-31 3.34892 4.71653e-15 5.05455e-16 0.226993 -3.87001e-16 -3.91652e-17)
(7.55585e-15 2.82751e-30 7.06878e-31 3.34892 -2.31357e-15 6.18667e-17 0.226993 -4.98855e-15 -4.03932e-16)
(3.81003e-15 9.94121e-31 -4.35317e-31 3.25603 3.82781e-15 6.84406e-16 0.224828 -2.54294e-16 -2.96035e-17)
(-3.12516e-15 -5.55139e-30 -2.07587e-30 3.25603 -2.84108e-15 4.47685e-17 0.224828 -5.02312e-15 -3.51177e-16)
(1.92091e-15 -4.98818e-30 -5.53483e-31 3.16604 2.58528e-15 1.07663e-15 0.222708 -2.77105e-16 -6.5706e-17)
(7.68364e-15 2.72483e-30 6.81208e-31 3.16604 -3.43144e-15 7.75607e-17 0.222708 -5.0612e-15 -3.03989e-16)
(-1.93665e-15 4.96044e-30 8.78183e-31 3.07887 1.89283e-15 1.40727e-15 0.220631 -8.65909e-17 -8.66823e-17)
(0 0 -5.37119e-46 3.07887 -3.5376e-15 -9.67587e-31 0.220631 -5.12656e-15 -2.52073e-16)
(-2.95648e-15 -2.62588e-30 -3.28236e-31 2.99443 3.74378e-15 1.55819e-15 0.218598 -1.86905e-16 -1.16237e-16)
(1.56179e-14 7.87765e-30 3.28236e-31 2.99443 -3.75895e-15 2.9069e-22 0.218598 -5.1695e-15 -2.05802e-16)
(-4.86999e-15 -3.49739e-31 -7.6652e-31 2.91263 4.80538e-15 1.49554e-15 0.216607 -3.63899e-16 -1.12293e-16)
(0 2.57777e-30 1.28888e-30 2.91263 -4.25242e-15 1.09555e-17 0.216607 -5.23821e-15 -1.57514e-16)
(0 -7.59159e-30 -1.26526e-30 2.83338 4.25893e-15 1.54276e-15 0.214659 -3.5406e-16 -1.1117e-16)
(1.58639e-14 7.59159e-30 1.58158e-30 2.83338 -3.93306e-15 -1.14578e-17 0.214659 -5.32448e-15 -1.12696e-16)
(-1.99815e-15 9.67557e-30 1.42993e-30 2.7566 4.21029e-15 1.49548e-15 0.212753 -2.93656e-16 -1.2378e-16)
(0 -7.45248e-30 -1.24208e-30 2.7566 -5.33767e-15 -9.58109e-19 0.212753 -5.37259e-15 -7.38298e-17)
(2.74566e-15 -2.43864e-30 -3.0483e-31 2.68221 2.28397e-15 1.80652e-15 0.210889 -3.5979e-16 -1.07959e-16)
(8.05267e-15 7.31591e-30 3.0483e-31 2.68221 -5.33445e-15 -5.64456e-17 0.210889 -5.49315e-15 -3.8434e-17)
(2.02805e-15 -4.49142e-30 -1.36908e-30 2.61013 5.60091e-29 2.25044e-15 0.209064 0 -1.78032e-16)
(1.62244e-14 7.18185e-30 1.19697e-30 2.61013 -3.93344e-15 -1.88126e-16 0.209064 -5.57304e-15 -7.39793e-18)
(-2.04281e-15 2.16203e-30 1.63521e-31 2.54028 6.04594e-15 2.41462e-15 0.207279 -4.68799e-16 -1.8412e-16)
(8.17124e-15 4.70016e-30 0 2.54028 -4.89911e-15 -6.82733e-17 0.207279 -5.67052e-15 2.41915e-17)
(-3.13751e-15 4.78386e-30 7.12537e-31 2.47258 6.78344e-15 2.36122e-15 0.205534 -5.22648e-16 -2.119e-16)
(8.22974e-15 0 -2.88377e-31 2.47258 -5.97968e-15 6.42367e-17 0.205534 -5.78414e-15 5.61343e-17)
(-4.14387e-15 8.74293e-30 8.68562e-31 2.40696 6.57959e-15 2.21497e-15 0.203826 -6.10748e-16 -1.8206e-16)
(8.28773e-15 0 -2.83093e-31 2.40696 -5.18081e-15 -1.72196e-16 0.203826 -5.90991e-15 8.26709e-17)
(-2.50315e-15 2.22324e-30 -5.5581e-31 2.34336 5.09965e-15 1.95986e-15 0.202155 -5.07348e-16 -1.94778e-16)
(1.66905e-14 4.44648e-30 5.5581e-31 2.34336 -3.9511e-15 -5.33316e-16 0.202155 -6.02966e-15 9.67153e-17)
(0 6.5475e-30 5.45625e-31 2.28169 5.42485e-15 8.71981e-16 0.200522 -3.74963e-16 -1.44309e-16)
(8.40225e-15 -2.1825e-30 -2.72813e-31 2.28169 -5.41001e-15 -3.11922e-16 0.200522 -6.11986e-15 1.03476e-16)
(-2.1147e-15 6.34574e-30 6.97471e-31 2.2219 6.26543e-15 -3.16693e-17 0.198923 -5.84396e-16 -1.42305e-17)
(0 0 -2.67813e-31 2.2219 -6.28321e-15 7.53402e-17 0.198923 -6.26967e-15 1.26117e-16)
(-2.39327e-16 2.15736e-30 -3.28166e-31 2.16392 6.23197e-15 4.23086e-30 0.19736 -5.41625e-16 0)
(2.36804e-15 -8.41298e-30 -7.88717e-31 2.16392 -5.27958e-15 -1.29886e-16 0.19736 -6.39671e-15 1.41856e-16)
(-2.32465e-15 4.12941e-30 5.16176e-31 2.10769 6.80518e-15 3.97874e-16 0.195831 -6.00232e-16 -4.0473e-17)
(0 0 -2.58088e-31 2.10769 -4.11595e-15 1.0134e-16 0.195831 -6.53279e-15 1.40579e-16)
(-2.15642e-15 1.00897e-29 1.42542e-30 2.05315 6.41718e-15 6.09341e-16 0.194335 -6.69969e-16 -3.36907e-17)
(0 -8.10748e-30 -1.26679e-30 2.05315 -4.81873e-15 3.15199e-16 0.194335 -6.64844e-15 1.5231e-16)
(-2.17011e-15 5.96866e-30 6.43647e-31 2.00023 5.3207e-15 8.64693e-16 0.192871 -5.48427e-16 -8.25602e-17)
(-8.68044e-15 0 -2.48716e-31 2.00023 -5.42289e-15 -1.66711e-16 0.192871 -6.87059e-15 1.41703e-16)
(-2.18369e-15 -1.92118e-30 -3.49081e-31 1.94889 4.25122e-15 8.83837e-16 0.191439 -4.80969e-16 -8.48545e-17)
(1.74695e-14 3.90653e-30 4.88317e-31 1.94889 -2.97102e-15 -7.12233e-16 0.191439 -6.97115e-15 1.15427e-16)
(0 -7.6699e-30 -9.58737e-31 1.89908 3.9602e-15 4.78984e-16 0.190038 -3.56223e-16 -8.94818e-17)
(8.78868e-15 7.6699e-30 9.58737e-31 1.89908 -3.04964e-15 -5.26719e-16 0.190038 -6.98457e-15 6.92834e-17)
(-2.21055e-15 5.72073e-30 3.81459e-31 1.85073 3.62936e-15 -6.63049e-17 0.188667 -4.40086e-16 -1.97713e-17)
(6.72286e-15 0 0 1.85073 -3.40601e-15 7.74947e-17 0.188667 -7.1427e-15 6.16773e-17)