/*--------------------------------*- C++ -*----------------------------------*\
| =========                 |                                                 |
| \\      /  F ield         | OpenFOAM: The Open Source CFD Toolbox           |
|  \\    /   O peration     | Version:  2106                                  |
|   \\  /    A nd           | Website:  www.openfoam.com                      |
|    \\/     M anipulation  |                                                 |
\*---------------------------------------------------------------------------*/
FoamFile
{
    version     2.0;
    format      ascii;
    arch        "LSB;label=32;scalar=64";
    class       volScalarField;
    location    "10100";
    object      p;
}
// * * * * * * * * * * * * * * * * * * * * * * * * * * * * * * * * * * * * * //

dimensions      [0 2 -2 0 0 0 0];

internalField   nonuniform List<scalar> 
2000
(
5.6428e-15
7.1302e-14
1.19239e-14
7.13021e-14
1.4018e-14
7.13034e-14
1.5167e-14
7.1306e-14
1.64087e-14
7.13099e-14
1.77655e-14
7.13151e-14
1.91171e-14
7.13214e-14
2.04363e-14
7.13289e-14
2.1727e-14
7.13377e-14
2.29915e-14
7.13477e-14
2.42301e-14
7.13589e-14
2.54432e-14
7.13712e-14
2.66315e-14
7.13847e-14
2.77955e-14
7.13994e-14
2.89355e-14
7.14154e-14
3.00521e-14
7.14326e-14
3.11459e-14
7.14507e-14
3.22173e-14
7.14699e-14
3.32667e-14
7.14904e-14
3.42942e-14
7.15119e-14
3.53004e-14
7.15345e-14
3.62855e-14
7.15585e-14
3.725e-14
7.15836e-14
3.81943e-14
7.16098e-14
3.91187e-14
7.1637e-14
4.00232e-14
7.16653e-14
4.09083e-14
7.16947e-14
4.17745e-14
7.17252e-14
4.26221e-14
7.17567e-14
4.34513e-14
7.17893e-14
4.4262e-14
7.18229e-14
4.50552e-14
7.18576e-14
4.58311e-14
7.18933e-14
4.65897e-14
7.193e-14
4.73315e-14
7.19679e-14
4.80568e-14
7.20069e-14
4.87659e-14
7.20466e-14
4.94587e-14
7.20876e-14
5.01358e-14
7.21296e-14
5.07975e-14
7.21725e-14
5.14438e-14
7.22164e-14
5.20746e-14
7.22617e-14
5.2691e-14
7.2308e-14
5.32934e-14
7.2355e-14
5.38813e-14
7.24028e-14
5.44552e-14
7.24516e-14
5.50155e-14
7.25013e-14
5.55624e-14
7.25522e-14
5.6096e-14
7.26045e-14
5.66169e-14
7.2658e-14
5.71253e-14
7.27121e-14
5.76212e-14
7.27672e-14
5.81046e-14
7.28235e-14
5.85764e-14
7.28809e-14
5.90364e-14
7.29391e-14
5.94845e-14
7.29981e-14
5.99217e-14
7.30582e-14
6.03479e-14
7.31197e-14
6.07637e-14
7.31824e-14
6.11693e-14
7.32455e-14
6.1565e-14
7.33092e-14
6.1951e-14
7.33732e-14
6.23275e-14
7.34395e-14
6.26944e-14
7.35073e-14
6.30532e-14
7.35764e-14
6.34032e-14
7.36463e-14
6.37448e-14
7.37173e-14
6.40787e-14
7.37891e-14
6.44053e-14
7.38616e-14
6.4725e-14
7.39351e-14
6.50373e-14
7.40099e-14
6.53428e-14
7.40862e-14
6.56421e-14
7.41643e-14
6.59348e-14
7.42434e-14
6.62223e-14
7.43223e-14
6.65034e-14
7.44034e-14
6.67784e-14
7.44878e-14
6.70495e-14
7.45732e-14
6.73135e-14
7.46609e-14
6.75736e-14
7.47492e-14
6.78313e-14
7.48378e-14
6.80842e-14
7.49281e-14
6.8333e-14
7.50207e-14
6.85786e-14
7.5112e-14
6.8821e-14
7.5204e-14
6.90597e-14
7.52995e-14
6.92947e-14
7.53972e-14
6.95268e-14
7.54961e-14
6.97561e-14
7.55969e-14
6.99819e-14
7.57003e-14
7.02049e-14
7.58052e-14
7.04231e-14
7.59125e-14
7.0638e-14
7.60235e-14
7.08466e-14
7.61357e-14
7.10531e-14
7.625e-14
7.12573e-14
7.63679e-14
7.14587e-14
7.64874e-14
7.16583e-14
7.66074e-14
7.18549e-14
7.67279e-14
7.20504e-14
7.68491e-14
7.22433e-14
7.6971e-14
7.2435e-14
7.70968e-14
7.26239e-14
7.72236e-14
7.28113e-14
7.73473e-14
7.29942e-14
7.74737e-14
7.31753e-14
7.76031e-14
7.33515e-14
7.77356e-14
7.35257e-14
7.78685e-14
7.36945e-14
7.80018e-14
7.38623e-14
7.81388e-14
7.4018e-14
7.82797e-14
7.41707e-14
7.84234e-14
7.43231e-14
7.85699e-14
7.44814e-14
7.87132e-14
7.46406e-14
7.88535e-14
7.48005e-14
7.89877e-14
7.49592e-14
7.91289e-14
7.51214e-14
7.9266e-14
7.52802e-14
7.93974e-14
7.54453e-14
7.95267e-14
7.56047e-14
7.96624e-14
7.57631e-14
7.9798e-14
7.59236e-14
7.99287e-14
7.60894e-14
8.00616e-14
7.62568e-14
8.01898e-14
7.64254e-14
8.03206e-14
7.65915e-14
8.04508e-14
7.67582e-14
8.05804e-14
7.69215e-14
8.07099e-14
7.70956e-14
8.08357e-14
7.72729e-14
8.09653e-14
7.74532e-14
8.10953e-14
7.7625e-14
8.12223e-14
7.7799e-14
8.13501e-14
7.79674e-14
8.14827e-14
7.81486e-14
8.16203e-14
7.83232e-14
8.1752e-14
7.85061e-14
8.18855e-14
7.86892e-14
8.20171e-14
7.88722e-14
8.21394e-14
7.90508e-14
8.22602e-14
7.92286e-14
8.23912e-14
7.94127e-14
8.25288e-14
7.95989e-14
8.26694e-14
7.97828e-14
8.28052e-14
7.99638e-14
8.29483e-14
8.01493e-14
8.30952e-14
8.03349e-14
8.32461e-14
8.05239e-14
8.33892e-14
8.07198e-14
8.35327e-14
8.08978e-14
8.36768e-14
8.10815e-14
8.38177e-14
8.1262e-14
8.39639e-14
8.14714e-14
8.40992e-14
8.16766e-14
8.42482e-14
8.18854e-14
8.43945e-14
8.20891e-14
8.45465e-14
8.22954e-14
8.4696e-14
8.2504e-14
8.4818e-14
8.27063e-14
8.49454e-14
8.29187e-14
8.50863e-14
8.31325e-14
8.52239e-14
8.33306e-14
8.53662e-14
8.35295e-14
8.54963e-14
8.37372e-14
8.56394e-14
8.39368e-14
8.57784e-14
8.41364e-14
8.5896e-14
8.43527e-14
8.60255e-14
8.45522e-14
8.61745e-14
8.47514e-14
8.63174e-14
8.49501e-14
8.64452e-14
8.51483e-14
8.65658e-14
8.53292e-14
8.6687e-14
8.55436e-14
8.68339e-14
8.5749e-14
8.69803e-14
8.59628e-14
8.71082e-14
8.61514e-14
8.72338e-14
8.6349e-14
8.73646e-14
8.65476e-14
8.75083e-14
8.67556e-14
8.76556e-14
8.69993e-14
8.77965e-14
8.71779e-14
8.78946e-14
8.73436e-14
8.79988e-14
8.75308e-14
8.81249e-14
8.77055e-14
8.82206e-14
8.7886e-14
8.8352e-14
8.80565e-14
8.85342e-14
8.8232e-14
8.86827e-14
8.84129e-14
8.87969e-14
8.85833e-14
8.8841e-14
8.87467e-14
8.89293e-14
8.89049e-14
8.90593e-14
8.90587e-14
8.92126e-14
8.92078e-14
8.93553e-14
8.93522e-14
8.94698e-14
8.95261e-14
8.96219e-14
8.96468e-14
8.98094e-14
8.97777e-14
8.99511e-14
8.99335e-14
9.01142e-14
9.0097e-14
9.02486e-14
9.02356e-14
9.03532e-14
9.03667e-14
9.05253e-14
9.05208e-14
9.06513e-14
9.06657e-14
9.07627e-14
9.07854e-14
9.08575e-14
9.08797e-14
9.10651e-14
9.10231e-14
9.11465e-14
9.11368e-14
9.12607e-14
9.12514e-14
9.14392e-14
9.14103e-14
9.15733e-14
9.15658e-14
9.16928e-14
9.16716e-14
9.1827e-14
9.18027e-14
9.19458e-14
9.19575e-14
9.21126e-14
9.21653e-14
9.21993e-14
9.23096e-14
9.2349e-14
9.24815e-14
9.25587e-14
9.26739e-14
9.27398e-14
9.28583e-14
9.28624e-14
9.29776e-14
9.3044e-14
9.32063e-14
9.3228e-14
9.33369e-14
9.33509e-14
9.34617e-14
9.34995e-14
9.36361e-14
9.37071e-14
9.37938e-14
9.39789e-14
9.39832e-14
9.41228e-14
9.41798e-14
9.42248e-14
9.4364e-14
9.43887e-14
9.4482e-14
9.458e-14
9.46378e-14
9.47521e-14
9.48285e-14
9.49096e-14
9.50288e-14
9.50764e-14
9.51867e-14
9.52173e-14
9.53344e-14
9.53564e-14
9.55283e-14
9.55192e-14
9.56935e-14
9.56768e-14
9.58602e-14
9.58525e-14
9.60563e-14
9.60194e-14
9.62135e-14
9.62086e-14
9.63272e-14
9.63753e-14
9.64879e-14
9.65242e-14
9.66424e-14
9.66824e-14
9.68468e-14
9.69328e-14
9.69131e-14
9.71605e-14
9.70592e-14
9.72797e-14
9.72651e-14
9.73106e-14
9.7398e-14
9.73409e-14
9.75358e-14
9.74354e-14
9.75912e-14
9.7578e-14
9.76968e-14
9.75961e-14
7.24098e-14
7.46591e-14
7.24098e-14
7.46591e-14
7.24105e-14
7.46592e-14
7.24119e-14
7.46594e-14
7.2414e-14
7.46596e-14
7.24167e-14
7.466e-14
7.24201e-14
7.46605e-14
7.2424e-14
7.46611e-14
7.24287e-14
7.46618e-14
7.24338e-14
7.46627e-14
7.24396e-14
7.46636e-14
7.2446e-14
7.46647e-14
7.2453e-14
7.4666e-14
7.24606e-14
7.46673e-14
7.24689e-14
7.46688e-14
7.24778e-14
7.46703e-14
7.24871e-14
7.4672e-14
7.2497e-14
7.46739e-14
7.25075e-14
7.4676e-14
7.25186e-14
7.46783e-14
7.25303e-14
7.46807e-14
7.25427e-14
7.46833e-14
7.25557e-14
7.46861e-14
7.25691e-14
7.46892e-14
7.25834e-14
7.46921e-14
7.25983e-14
7.46954e-14
7.26139e-14
7.4699e-14
7.26299e-14
7.47025e-14
7.26466e-14
7.47063e-14
7.26639e-14
7.47106e-14
7.26817e-14
7.47151e-14
7.27003e-14
7.47197e-14
7.27194e-14
7.47244e-14
7.27392e-14
7.47296e-14
7.27594e-14
7.47346e-14
7.27804e-14
7.47403e-14
7.28021e-14
7.47462e-14
7.28241e-14
7.47526e-14
7.28469e-14
7.47592e-14
7.28703e-14
7.47653e-14
7.28944e-14
7.47717e-14
7.29189e-14
7.47787e-14
7.2944e-14
7.47856e-14
7.29695e-14
7.47929e-14
7.29956e-14
7.48005e-14
7.30225e-14
7.48087e-14
7.30505e-14
7.48165e-14
7.30786e-14
7.48244e-14
7.31072e-14
7.48335e-14
7.31366e-14
7.48433e-14
7.31665e-14
7.48524e-14
7.3197e-14
7.48617e-14
7.32281e-14
7.48721e-14
7.326e-14
7.48823e-14
7.32927e-14
7.48931e-14
7.33261e-14
7.49048e-14
7.33604e-14
7.49167e-14
7.33948e-14
7.49293e-14
7.34302e-14
7.49423e-14
7.34663e-14
7.49556e-14
7.35029e-14
7.49697e-14
7.35397e-14
7.49852e-14
7.35767e-14
7.50012e-14
7.36147e-14
7.50175e-14
7.36534e-14
7.50345e-14
7.36924e-14
7.5052e-14
7.37321e-14
7.50709e-14
7.37728e-14
7.50903e-14
7.3815e-14
7.51094e-14
7.38579e-14
7.51297e-14
7.39012e-14
7.51524e-14
7.39453e-14
7.51766e-14
7.39905e-14
7.52009e-14
7.40367e-14
7.52255e-14
7.4085e-14
7.52509e-14
7.41339e-14
7.52759e-14
7.41838e-14
7.53041e-14
7.42341e-14
7.53348e-14
7.42873e-14
7.53632e-14
7.43417e-14
7.53923e-14
7.43965e-14
7.54253e-14
7.44525e-14
7.54602e-14
7.45104e-14
7.54953e-14
7.45696e-14
7.55297e-14
7.46314e-14
7.55656e-14
7.46952e-14
7.56049e-14
7.47599e-14
7.56476e-14
7.48266e-14
7.56898e-14
7.48937e-14
7.57335e-14
7.49642e-14
7.57788e-14
7.50384e-14
7.58249e-14
7.51136e-14
7.58733e-14
7.51886e-14
7.59253e-14
7.52681e-14
7.59802e-14
7.53495e-14
7.60361e-14
7.54335e-14
7.60949e-14
7.55181e-14
7.61561e-14
7.56048e-14
7.6219e-14
7.56928e-14
7.62849e-14
7.57844e-14
7.63489e-14
7.58753e-14
7.64181e-14
7.59728e-14
7.64925e-14
7.60726e-14
7.65708e-14
7.61762e-14
7.6647e-14
7.62793e-14
7.673e-14
7.63895e-14
7.68168e-14
7.65006e-14
7.69045e-14
7.6613e-14
7.69945e-14
7.67265e-14
7.70899e-14
7.68443e-14
7.7189e-14
7.69666e-14
7.72889e-14
7.70855e-14
7.7391e-14
7.72074e-14
7.74984e-14
7.73276e-14
7.76095e-14
7.74542e-14
7.77244e-14
7.75839e-14
7.78381e-14
7.77105e-14
7.79604e-14
7.7842e-14
7.8083e-14
7.79804e-14
7.8201e-14
7.81223e-14
7.83191e-14
7.82662e-14
7.84491e-14
7.84072e-14
7.85912e-14
7.85537e-14
7.87283e-14
7.87008e-14
7.88584e-14
7.88484e-14
7.89918e-14
7.89897e-14
7.91321e-14
7.91423e-14
7.92721e-14
7.92994e-14
7.9419e-14
7.94611e-14
7.95692e-14
7.9613e-14
7.97189e-14
7.9766e-14
7.98645e-14
7.99275e-14
8.00207e-14
8.00867e-14
8.01837e-14
8.02473e-14
8.03499e-14
8.04094e-14
8.05119e-14
8.0573e-14
8.06734e-14
8.07421e-14
8.08381e-14
8.09053e-14
8.10061e-14
8.10551e-14
8.11813e-14
8.12221e-14
8.13483e-14
8.13948e-14
8.15188e-14
8.15736e-14
8.17007e-14
8.17546e-14
8.18864e-14
8.19183e-14
8.20641e-14
8.20844e-14
8.22417e-14
8.22568e-14
8.24195e-14
8.24277e-14
8.25974e-14
8.26173e-14
8.27877e-14
8.27977e-14
8.29864e-14
8.29729e-14
8.31778e-14
8.31672e-14
8.33457e-14
8.33608e-14
8.35143e-14
8.35541e-14
8.37081e-14
8.37228e-14
8.39027e-14
8.39077e-14
8.40987e-14
8.40842e-14
8.42713e-14
8.42524e-14
8.44539e-14
8.44288e-14
8.4655e-14
8.46134e-14
8.48501e-14
8.47979e-14
8.50231e-14
8.49909e-14
8.52075e-14
8.51675e-14
8.53952e-14
8.53528e-14
8.55613e-14
8.55052e-14
8.57143e-14
8.56752e-14
8.58881e-14
8.5846e-14
8.60662e-14
8.6026e-14
8.6249e-14
8.61901e-14
8.64457e-14
8.63461e-14
8.66149e-14
8.6511e-14
8.67994e-14
8.66759e-14
8.69576e-14
8.68411e-14
8.71069e-14
8.70153e-14
8.72559e-14
8.71735e-14
8.7422e-14
8.73241e-14
8.75971e-14
8.74922e-14
8.7748e-14
8.76522e-14
8.79006e-14
8.78129e-14
8.80469e-14
8.79832e-14
8.82041e-14
8.81462e-14
8.84069e-14
8.82924e-14
8.85971e-14
8.84459e-14
8.87681e-14
8.86234e-14
8.88873e-14
8.88094e-14
8.89886e-14
8.89551e-14
8.91215e-14
8.90607e-14
8.93037e-14
8.92604e-14
8.9453e-14
8.94026e-14
8.95854e-14
8.95387e-14
8.97012e-14
8.96692e-14
8.98005e-14
8.97947e-14
8.98838e-14
8.99165e-14
9.00184e-14
9.00342e-14
9.01376e-14
9.01475e-14
9.02923e-14
9.02718e-14
9.04172e-14
9.03735e-14
9.05978e-14
9.0516e-14
9.0754e-14
9.06824e-14
9.08869e-14
9.07915e-14
9.10297e-14
9.0925e-14
9.11509e-14
9.10662e-14
9.12678e-14
9.11833e-14
9.13805e-14
9.13099e-14
9.15053e-14
9.14622e-14
9.16102e-14
9.16101e-14
9.16939e-14
9.1709e-14
9.18526e-14
9.1822e-14
9.19579e-14
9.19657e-14
9.20767e-14
9.20777e-14
9.21927e-14
9.22072e-14
9.2354e-14
9.23357e-14
9.24675e-14
9.24961e-14
9.25822e-14
9.26458e-14
9.26635e-14
9.27911e-14
9.28661e-14
9.29288e-14
9.31003e-14
9.31132e-14
9.32856e-14
9.33458e-14
9.33944e-14
9.34522e-14
9.35091e-14
9.36169e-14
9.36291e-14
9.38126e-14
9.37828e-14
9.39248e-14
9.39048e-14
9.40412e-14
9.40865e-14
9.41867e-14
9.41858e-14
9.43679e-14
9.43189e-14
9.44714e-14
9.4478e-14
9.46102e-14
9.46043e-14
9.4784e-14
9.47561e-14
9.49069e-14
9.49347e-14
9.50584e-14
9.50608e-14
9.51867e-14
9.51874e-14
9.53497e-14
9.53417e-14
9.55193e-14
9.55229e-14
9.56363e-14
9.56778e-14
9.5779e-14
9.58146e-14
9.58929e-14
9.59064e-14
9.60324e-14
9.60855e-14
9.61621e-14
9.62499e-14
9.62468e-14
9.6297e-14
9.6393e-14
9.64313e-14
9.65745e-14
9.66457e-14
9.67377e-14
9.67635e-14
9.68393e-14
9.68823e-14
9.69779e-14
9.70557e-14
9.7113e-14
9.72048e-14
9.7223e-14
9.73519e-14
9.73474e-14
9.74062e-14
9.7467e-14
9.75367e-14
9.75774e-14
9.76564e-14
9.76216e-14
9.77217e-14
9.76941e-14
9.77305e-14
9.77286e-14
9.77207e-14
9.78606e-14
9.78737e-14
9.79409e-14
9.80193e-14
9.80009e-14
9.80808e-14
9.80897e-14
9.81094e-14
9.81734e-14
9.82461e-14
9.82621e-14
9.83429e-14
9.83091e-14
9.83891e-14
9.83696e-14
9.84109e-14
9.83928e-14
9.83803e-14
9.84418e-14
9.83869e-14
9.84204e-14
9.84263e-14
9.84665e-14
9.85094e-14
9.84978e-14
9.86223e-14
9.84761e-14
9.86212e-14
9.85062e-14
9.85597e-14
9.85216e-14
9.86137e-14
9.85729e-14
9.86799e-14
9.86069e-14
9.86774e-14
9.86285e-14
9.86901e-14
9.86701e-14
9.8692e-14
9.8682e-14
9.87327e-14
9.86893e-14
9.86963e-14
9.86975e-14
9.87178e-14
9.87057e-14
9.87691e-14
9.87367e-14
9.88225e-14
9.87592e-14
9.88511e-14
9.87719e-14
9.88563e-14
9.88059e-14
9.88358e-14
9.88366e-14
9.88446e-14
9.88647e-14
9.88804e-14
9.88885e-14
9.89413e-14
9.88742e-14
9.90032e-14
9.88751e-14
9.9015e-14
9.89519e-14
9.89769e-14
9.89921e-14
9.90341e-14
9.89956e-14
9.90938e-14
9.90204e-14
9.90647e-14
9.90714e-14
9.91007e-14
9.90873e-14
9.91372e-14
9.90992e-14
9.90952e-14
9.91434e-14
9.90679e-14
9.91608e-14
9.9132e-14
9.91477e-14
9.91615e-14
9.91338e-14
9.92238e-14
9.91635e-14
9.92275e-14
9.91903e-14
9.92521e-14
9.91819e-14
9.92794e-14
9.91857e-14
9.9295e-14
9.92018e-14
9.9333e-14
9.91954e-14
9.93769e-14
9.91804e-14
9.94133e-14
9.91891e-14
9.94267e-14
9.92058e-14
9.93996e-14
9.92165e-14
9.93634e-14
9.92224e-14
9.93984e-14
9.92553e-14
9.94892e-14
9.92636e-14
9.95202e-14
9.9297e-14
9.9526e-14
9.93226e-14
9.95048e-14
9.93757e-14
9.95225e-14
9.94067e-14
9.9561e-14
9.9433e-14
9.95866e-14
9.94717e-14
9.95992e-14
9.95069e-14
9.95808e-14
9.95401e-14
9.96147e-14
9.95544e-14
9.96498e-14
9.95834e-14
9.9669e-14
9.96275e-14
9.96721e-14
9.96708e-14
9.9675e-14
9.9663e-14
9.96767e-14
9.96549e-14
9.97033e-14
9.96882e-14
9.97641e-14
9.97111e-14
9.98087e-14
9.97232e-14
9.98289e-14
9.97415e-14
9.98588e-14
9.97658e-14
9.98989e-14
9.97959e-14
9.9907e-14
9.98068e-14
9.99082e-14
9.98327e-14
9.99451e-14
9.98479e-14
9.9992e-14
9.98861e-14
1.00024e-13
9.99049e-14
1.00041e-13
9.99214e-14
1.0006e-13
9.99442e-14
1.00073e-13
9.99652e-14
1.00088e-13
1.00002e-13
1.00105e-13
1.0002e-13
1.00115e-13
1.0002e-13
1.00118e-13
1.00036e-13
1.00122e-13
1.00052e-13
1.00136e-13
1.00058e-13
1.00159e-13
1.00063e-13
1.00174e-13
1.00075e-13
1.00158e-13
1.00095e-13
1.00151e-13
1.00106e-13
1.00152e-13
1.001e-13
1.00154e-13
1.0011e-13
1.00157e-13
1.0012e-13
1.0016e-13
1.00113e-13
1.00163e-13
1.00114e-13
1.0015e-13
1.00118e-13
1.00146e-13
1.00119e-13
1.00146e-13
1.00127e-13
1.00146e-13
1.0013e-13
1.00155e-13
1.00146e-13
1.00159e-13
1.00154e-13
1.00148e-13
1.00149e-13
1.00145e-13
1.00145e-13
1.00149e-13
1.00145e-13
1.00146e-13
1.00144e-13
1.00146e-13
1.00148e-13
1.00151e-13
1.00143e-13
1.00155e-13
1.00135e-13
1.00164e-13
1.00135e-13
1.00161e-13
1.00126e-13
1.00154e-13
1.00122e-13
1.00155e-13
1.00124e-13
1.00156e-13
1.00119e-13
1.00165e-13
1.00118e-13
1.00177e-13
1.00113e-13
1.00183e-13
1.00115e-13
1.00181e-13
1.00113e-13
1.00183e-13
1.00118e-13
1.00193e-13
1.00126e-13
1.00202e-13
1.0013e-13
1.00202e-13
1.00127e-13
1.00194e-13
1.00135e-13
1.0019e-13
1.00142e-13
1.00197e-13
1.00139e-13
1.00203e-13
1.00137e-13
1.00201e-13
1.00134e-13
1.00203e-13
1.00138e-13
1.00204e-13
1.0014e-13
1.00201e-13
1.00138e-13
1.00197e-13
1.00135e-13
1.002e-13
1.00135e-13
1.00204e-13
1.00132e-13
1.00212e-13
1.00133e-13
1.00212e-13
1.0013e-13
1.0021e-13
1.00124e-13
1.00215e-13
1.00121e-13
1.00219e-13
1.0012e-13
1.00221e-13
1.00117e-13
1.00225e-13
1.00115e-13
1.00228e-13
1.00112e-13
1.00232e-13
1.00112e-13
1.00235e-13
1.00112e-13
1.00238e-13
1.00108e-13
1.00243e-13
1.00107e-13
1.00248e-13
1.00109e-13
1.00253e-13
1.00107e-13
1.00254e-13
1.00107e-13
1.00255e-13
1.00108e-13
1.00257e-13
1.00108e-13
1.00261e-13
1.00111e-13
1.00264e-13
1.00113e-13
1.00267e-13
1.00113e-13
1.00266e-13
1.00116e-13
1.00264e-13
1.00117e-13
1.00264e-13
1.00116e-13
1.00263e-13
1.00116e-13
1.00263e-13
1.00115e-13
1.00262e-13
1.00116e-13
1.0026e-13
1.00116e-13
1.00259e-13
1.00117e-13
1.00258e-13
1.00117e-13
1.00256e-13
1.00117e-13
1.00255e-13
1.00117e-13
1.00254e-13
1.00119e-13
1.00254e-13
1.0012e-13
1.00252e-13
1.00119e-13
1.00251e-13
1.00119e-13
1.0025e-13
1.0012e-13
1.00249e-13
1.0012e-13
1.0025e-13
1.0012e-13
1.00251e-13
1.0012e-13
1.00251e-13
1.0012e-13
1.0025e-13
1.0012e-13
1.0025e-13
1.0012e-13
1.00249e-13
1.00121e-13
1.00249e-13
1.00121e-13
1.00248e-13
1.00122e-13
1.00246e-13
1.00122e-13
1.00245e-13
1.00122e-13
1.00246e-13
1.00122e-13
1.00245e-13
1.00122e-13
1.00244e-13
1.00122e-13
1.00244e-13
1.00121e-13
1.00245e-13
1.00122e-13
1.00244e-13
1.00122e-13
1.00242e-13
1.00121e-13
1.00241e-13
1.00122e-13
1.0024e-13
1.00122e-13
1.00239e-13
1.00123e-13
1.00238e-13
1.00122e-13
1.00237e-13
1.00122e-13
1.00236e-13
1.00122e-13
1.00235e-13
1.00122e-13
1.00235e-13
1.00122e-13
1.00234e-13
1.00122e-13
1.00233e-13
1.00122e-13
1.00232e-13
1.00123e-13
1.00231e-13
1.00123e-13
1.00231e-13
1.00123e-13
1.0023e-13
1.00123e-13
1.00229e-13
1.00123e-13
1.00228e-13
1.00123e-13
1.00227e-13
1.00123e-13
1.00226e-13
1.00123e-13
1.00225e-13
1.00122e-13
1.00224e-13
1.00122e-13
1.00224e-13
1.00122e-13
1.00223e-13
1.00122e-13
1.00223e-13
1.00122e-13
1.00223e-13
1.00122e-13
1.00223e-13
1.00122e-13
1.00222e-13
1.00122e-13
1.00222e-13
1.00122e-13
1.00222e-13
1.00123e-13
1.00222e-13
1.00123e-13
1.00222e-13
1.00123e-13
1.00221e-13
1.00123e-13
1.00221e-13
1.00123e-13
1.00221e-13
1.00123e-13
1.00221e-13
1.00124e-13
1.00221e-13
1.00124e-13
1.0022e-13
1.00124e-13
1.0022e-13
1.00124e-13
1.0022e-13
1.00124e-13
1.0022e-13
1.00124e-13
1.0022e-13
1.00124e-13
1.0022e-13
1.00124e-13
1.0022e-13
1.00124e-13
1.0022e-13
1.00124e-13
1.0022e-13
1.00124e-13
1.0022e-13
1.00124e-13
1.0022e-13
1.00124e-13
1.0022e-13
1.00124e-13
1.0022e-13
1.00124e-13
1.0022e-13
1.00124e-13
1.0022e-13
1.00124e-13
1.0022e-13
1.00124e-13
1.0022e-13
1.00124e-13
1.0022e-13
1.00124e-13
1.0022e-13
1.00124e-13
1.0022e-13
1.00124e-13
1.0022e-13
1.00124e-13
1.0022e-13
1.00124e-13
1.0022e-13
1.00124e-13
1.0022e-13
9.77563e-14
9.78694e-14
9.78421e-14
9.79579e-14
9.79461e-14
9.80375e-14
9.80278e-14
9.80919e-14
9.80975e-14
9.81122e-14
9.82167e-14
9.82916e-14
9.82465e-14
9.84945e-14
9.82725e-14
9.85342e-14
9.83976e-14
9.84868e-14
9.84284e-14
9.85181e-14
9.84454e-14
9.85007e-14
9.85602e-14
9.85584e-14
9.8553e-14
9.8574e-14
9.85497e-14
9.85992e-14
9.85701e-14
9.86309e-14
9.85883e-14
9.8618e-14
9.86084e-14
9.86424e-14
9.86018e-14
9.86743e-14
9.86436e-14
9.86028e-14
9.86368e-14
9.85485e-14
9.86425e-14
9.85875e-14
9.86536e-14
9.86709e-14
9.86609e-14
9.87238e-14
9.86588e-14
9.8757e-14
9.87021e-14
9.88634e-14
9.87273e-14
9.89047e-14
9.87629e-14
9.891e-14
9.87833e-14
9.89339e-14
9.88196e-14
9.89164e-14
9.88779e-14
9.89427e-14
9.89323e-14
9.90412e-14
9.89494e-14
9.90339e-14
9.89928e-14
9.89759e-14
9.90429e-14
9.89775e-14
9.90426e-14
9.90036e-14
9.90489e-14
9.90593e-14
9.90883e-14
9.9117e-14
9.90973e-14
9.91143e-14
9.91079e-14
9.91465e-14
9.91171e-14
9.91829e-14
9.9107e-14
9.91286e-14
9.91118e-14
9.91089e-14
9.91484e-14
9.9155e-14
9.91518e-14
9.9186e-14
9.91534e-14
9.91544e-14
9.91555e-14
9.91864e-14
9.91557e-14
9.92685e-14
9.9166e-14
9.92743e-14
9.91542e-14
9.92688e-14
9.92026e-14
9.93343e-14
9.92286e-14
9.93227e-14
9.91846e-14
9.93807e-14
9.91492e-14
9.94128e-14
9.91359e-14
9.93883e-14
9.91786e-14
9.94405e-14
9.92446e-14
9.94703e-14
9.92356e-14
9.95095e-14
9.92844e-14
9.95248e-14
9.93256e-14
9.95482e-14
9.93772e-14
9.95452e-14
9.94245e-14
9.9565e-14
9.94343e-14
9.95897e-14
9.94572e-14
9.96023e-14
9.94934e-14
9.96191e-14
9.95096e-14
9.96395e-14
9.95395e-14
9.96811e-14
9.95659e-14
9.97271e-14
9.95887e-14
9.97608e-14
9.96075e-14
9.97824e-14
9.96394e-14
9.9792e-14
9.96677e-14
9.9789e-14
9.97021e-14
9.97896e-14
9.97267e-14
9.98271e-14
9.97583e-14
9.9867e-14
9.97798e-14
9.9901e-14
9.97996e-14
9.99035e-14
9.98267e-14
9.99081e-14
9.98529e-14
9.99057e-14
9.98617e-14
9.99125e-14
9.98956e-14
9.99544e-14
9.99291e-14
9.99885e-14
9.99453e-14
9.9998e-14
9.99697e-14
9.99824e-14
9.99858e-14
9.99752e-14
9.9977e-14
9.99842e-14
9.99768e-14
1.0001e-13
1.00002e-13
1.00035e-13
1.00009e-13
1.00052e-13
1.00025e-13
1.00069e-13
1.00031e-13
1.00094e-13
1.00045e-13
1.00112e-13
1.0005e-13
1.00122e-13
1.00063e-13
1.00132e-13
1.00092e-13
1.00134e-13
1.00104e-13
1.00129e-13
1.00107e-13
1.0014e-13
1.00102e-13
1.00142e-13
1.00129e-13
1.00137e-13
1.00132e-13
1.0014e-13
1.00134e-13
1.00144e-13
1.00145e-13
1.00139e-13
1.0014e-13
1.00137e-13
1.00135e-13
1.00136e-13
1.00138e-13
1.00131e-13
1.00136e-13
1.00138e-13
1.00139e-13
1.00153e-13
1.00146e-13
1.00148e-13
1.00161e-13
1.00146e-13
1.00156e-13
1.00153e-13
1.00147e-13
1.00156e-13
1.00146e-13
1.00155e-13
1.00149e-13
1.00154e-13
1.00152e-13
1.00149e-13
1.00151e-13
1.00155e-13
1.00142e-13
1.00154e-13
1.00141e-13
1.00149e-13
1.00136e-13
1.00152e-13
1.00135e-13
1.00147e-13
1.00131e-13
1.0015e-13
1.00133e-13
1.00153e-13
1.00132e-13
1.00149e-13
1.00135e-13
1.00148e-13
1.00134e-13
1.00158e-13
1.00132e-13
1.00168e-13
1.00131e-13
1.00174e-13
1.0013e-13
1.0017e-13
1.00135e-13
1.00169e-13
1.00134e-13
1.00176e-13
1.00136e-13
1.00179e-13
1.00136e-13
1.00179e-13
1.00139e-13
1.00173e-13
1.00136e-13
1.00176e-13
1.0014e-13
1.00183e-13
1.00142e-13
1.00188e-13
1.00143e-13
1.00188e-13
1.00136e-13
1.00191e-13
1.00139e-13
1.00196e-13
1.00141e-13
1.00201e-13
1.00134e-13
1.00205e-13
1.00133e-13
1.00211e-13
1.00135e-13
1.00218e-13
1.00136e-13
1.00219e-13
1.00133e-13
1.00221e-13
1.00127e-13
1.00225e-13
1.00127e-13
1.00225e-13
1.00127e-13
1.00226e-13
1.00127e-13
1.00229e-13
1.00127e-13
1.0023e-13
1.00125e-13
1.00233e-13
1.00127e-13
1.00236e-13
1.00128e-13
1.00239e-13
1.00129e-13
1.00239e-13
1.00127e-13
1.0024e-13
1.00128e-13
1.0024e-13
1.00127e-13
1.00241e-13
1.00129e-13
1.00241e-13
1.00129e-13
1.00241e-13
1.00128e-13
1.00243e-13
1.00131e-13
1.00243e-13
1.00129e-13
1.00245e-13
1.00128e-13
1.00247e-13
1.00127e-13
1.00247e-13
1.00128e-13
1.00249e-13
1.00127e-13
1.00249e-13
1.00125e-13
1.0025e-13
1.00124e-13
1.00252e-13
1.00125e-13
1.00252e-13
1.00125e-13
1.00252e-13
1.00124e-13
1.00255e-13
1.00124e-13
1.00255e-13
1.00124e-13
1.00256e-13
1.00123e-13
1.00257e-13
1.00124e-13
1.00257e-13
1.00122e-13
1.00259e-13
1.00122e-13
1.0026e-13
1.00121e-13
1.00262e-13
1.00121e-13
1.00263e-13
1.00121e-13
1.00262e-13
1.00121e-13
1.00262e-13
1.0012e-13
1.00263e-13
1.0012e-13
1.00264e-13
1.00121e-13
1.00264e-13
1.00122e-13
1.00263e-13
1.00123e-13
1.00263e-13
1.00123e-13
1.00264e-13
1.00122e-13
1.00265e-13
1.00122e-13
1.00266e-13
1.00122e-13
1.00266e-13
1.00123e-13
1.00266e-13
1.00124e-13
1.00266e-13
1.00124e-13
1.00266e-13
1.00125e-13
1.00265e-13
1.00125e-13
1.00264e-13
1.00125e-13
1.00263e-13
1.00126e-13
1.00262e-13
1.00127e-13
1.00262e-13
1.00127e-13
1.00262e-13
1.00128e-13
1.00261e-13
1.00129e-13
1.00261e-13
1.0013e-13
1.00261e-13
1.0013e-13
1.00261e-13
1.0013e-13
1.00261e-13
1.00131e-13
1.00261e-13
1.00132e-13
1.0026e-13
1.00133e-13
1.0026e-13
1.00133e-13
1.00261e-13
1.00133e-13
1.00261e-13
1.00133e-13
1.00261e-13
1.00133e-13
1.0026e-13
1.00134e-13
1.0026e-13
1.00134e-13
1.00261e-13
1.00134e-13
1.0026e-13
1.00134e-13
1.0026e-13
1.00134e-13
1.0026e-13
1.00134e-13
1.00259e-13
1.00134e-13
1.00259e-13
1.00134e-13
1.0026e-13
1.00134e-13
1.0026e-13
1.00135e-13
1.0026e-13
1.00134e-13
1.00259e-13
1.00134e-13
1.00259e-13
1.00134e-13
1.0026e-13
1.00134e-13
1.0026e-13
1.00134e-13
1.0026e-13
1.00134e-13
1.0026e-13
1.00133e-13
1.0026e-13
1.00133e-13
1.0026e-13
1.00133e-13
1.0026e-13
1.00133e-13
1.0026e-13
1.00133e-13
1.0026e-13
1.00133e-13
1.0026e-13
1.00132e-13
1.0026e-13
1.00132e-13
1.00261e-13
1.00132e-13
1.0026e-13
1.00132e-13
1.0026e-13
1.00132e-13
1.00261e-13
1.00132e-13
1.00261e-13
1.00132e-13
1.00261e-13
1.00132e-13
1.00261e-13
1.00132e-13
1.00261e-13
1.00132e-13
1.00261e-13
1.00132e-13
1.00261e-13
1.00132e-13
1.00261e-13
1.00132e-13
1.00261e-13
1.00132e-13
1.00261e-13
1.00132e-13
1.00261e-13
1.00132e-13
1.00261e-13
1.00132e-13
1.00261e-13
1.00132e-13
1.00261e-13
1.00132e-13
1.00261e-13
)
;

boundaryField
{
    walls
    {
        type            zeroGradient;
    }
    inlet
    {
        type            cyclic;
    }
    outlet
    {
        type            cyclic;
    }
    sides
    {
        type            empty;
    }
}


// ************************************************************************* //
