/*--------------------------------*- C++ -*----------------------------------*\
| =========                 |                                                 |
| \\      /  F ield         | OpenFOAM: The Open Source CFD Toolbox           |
|  \\    /   O peration     | Version:  2106                                  |
|   \\  /    A nd           | Website:  www.openfoam.com                      |
|    \\/     M anipulation  |                                                 |
\*---------------------------------------------------------------------------*/
FoamFile
{
    version     2.0;
    format      ascii;
    arch        "LSB;label=32;scalar=64";
    class       volSymmTensorField;
    location    "10100";
    object      turbulenceProperties:R;
}
// * * * * * * * * * * * * * * * * * * * * * * * * * * * * * * * * * * * * * //

dimensions      [0 2 -2 0 0 0 0];

internalField   nonuniform List<symmTensor> 
2000
(
(3.12903e-08 -1.86377e-13 -3.44948e-16 3.12903e-08 3.96614e-27 3.12903e-08)
(3.12903e-08 -1.86377e-13 -3.44948e-16 3.12903e-08 6.21043e-28 3.12903e-08)
(4.73959e-09 -1.62627e-13 -9.08648e-16 4.73959e-09 1.19368e-27 4.73959e-09)
(4.73959e-09 -1.62627e-13 -9.08648e-16 4.73959e-09 4.18534e-28 4.73959e-09)
(2.50635e-09 -2.54628e-13 -1.97398e-15 2.50635e-09 1.13488e-27 2.50635e-09)
(2.50635e-09 -2.54628e-13 -1.97398e-15 2.50635e-09 6.15324e-29 2.50635e-09)
(4.82917e-09 -1.04463e-12 -8.24953e-15 4.82917e-09 2.31476e-27 4.82917e-09)
(4.82917e-09 -1.04463e-12 -8.24953e-15 4.82917e-09 2.55334e-28 4.82917e-09)
(1.15117e-08 -4.41173e-12 -3.54901e-14 1.15117e-08 1.01013e-26 1.15117e-08)
(1.15117e-08 -4.41173e-12 -3.54901e-14 1.15117e-08 1.09084e-27 1.15117e-08)
(2.43443e-08 -1.47517e-11 -1.20885e-13 2.43443e-08 3.6104e-26 2.43443e-08)
(2.43443e-08 -1.47517e-11 -1.20885e-13 2.43443e-08 3.68955e-27 2.43443e-08)
(4.57764e-08 -4.06406e-11 -3.3925e-13 4.57764e-08 1.0245e-25 4.57764e-08)
(4.57764e-08 -4.06406e-11 -3.3925e-13 4.57764e-08 1.02723e-26 4.57764e-08)
(7.87397e-08 -9.70117e-11 -8.24926e-13 7.87397e-08 2.50672e-25 7.87397e-08)
(7.87397e-08 -9.70117e-11 -8.24926e-13 7.87397e-08 2.47696e-26 7.87397e-08)
(1.26631e-07 -2.07937e-10 -1.80116e-12 1.26631e-07 5.50683e-25 1.26631e-07)
(1.26631e-07 -2.07937e-10 -1.80116e-12 1.26631e-07 5.36736e-26 1.26631e-07)
(1.93334e-07 -4.1012e-10 -3.61879e-12 1.93334e-07 1.11199e-24 1.93334e-07)
(1.93334e-07 -4.1012e-10 -3.61879e-12 1.93334e-07 1.06973e-25 1.93334e-07)
(2.83247e-07 -7.57225e-10 -6.80624e-12 2.83247e-07 2.10083e-24 2.83247e-07)
(2.83247e-07 -7.57225e-10 -6.80624e-12 2.83247e-07 1.99402e-25 2.83247e-07)
(4.01329e-07 -1.32518e-09 -1.21336e-11 4.01329e-07 3.76018e-24 4.01329e-07)
(4.01329e-07 -1.32518e-09 -1.21336e-11 4.01329e-07 3.52232e-25 4.01329e-07)
(5.53139e-07 -2.21866e-09 -2.06936e-11 5.53139e-07 6.43687e-24 5.53139e-07)
(5.53139e-07 -2.21866e-09 -2.06936e-11 5.53139e-07 5.94822e-25 5.53139e-07)
(7.44885e-07 -3.57884e-09 -3.4003e-11 7.44885e-07 1.0614e-23 7.44885e-07)
(7.44885e-07 -3.57884e-09 -3.4003e-11 7.44885e-07 9.67191e-25 7.44885e-07)
(9.83477e-07 -5.59278e-09 -5.41293e-11 9.83477e-07 1.69506e-23 9.83477e-07)
(9.83477e-07 -5.59278e-09 -5.41293e-11 9.83477e-07 1.52398e-24 9.83477e-07)
(1.27659e-06 -8.50455e-09 -8.38469e-11 1.27659e-06 2.63408e-23 1.27659e-06)
(1.27659e-06 -8.50455e-09 -8.38469e-11 1.27659e-06 2.33703e-24 1.27659e-06)
(1.63271e-06 -1.26285e-08 -1.26829e-10 1.63271e-06 3.99705e-23 1.63271e-06)
(1.63271e-06 -1.26285e-08 -1.26829e-10 1.63271e-06 3.49686e-24 1.63271e-06)
(2.06123e-06 -1.83649e-08 -1.87882e-10 2.06123e-06 5.93898e-23 2.06123e-06)
(2.06123e-06 -1.83649e-08 -1.87882e-10 2.06123e-06 5.12636e-24 2.06123e-06)
(2.57248e-06 -2.62182e-08 -2.73232e-10 2.57248e-06 8.66169e-23 2.57248e-06)
(2.57248e-06 -2.62182e-08 -2.73232e-10 2.57248e-06 7.37653e-24 2.57248e-06)
(3.17784e-06 -3.6819e-08 -3.90868e-10 3.17784e-06 1.24246e-22 3.17784e-06)
(3.17784e-06 -3.6819e-08 -3.90868e-10 3.17784e-06 1.04142e-23 3.17784e-06)
(3.88981e-06 -5.09487e-08 -5.50961e-10 3.88981e-06 1.75581e-22 3.88981e-06)
(3.88981e-06 -5.09487e-08 -5.50961e-10 3.88981e-06 1.44815e-23 3.88981e-06)
(4.72209e-06 -6.95692e-08 -7.66364e-10 4.72209e-06 2.44809e-22 4.72209e-06)
(4.72209e-06 -6.95692e-08 -7.66364e-10 4.72209e-06 1.98907e-23 4.72209e-06)
(5.6897e-06 -9.3857e-08 -1.05321e-09 5.6897e-06 3.37269e-22 5.6897e-06)
(5.6897e-06 -9.3857e-08 -1.05321e-09 5.6897e-06 2.69872e-23 5.6897e-06)
(6.80903e-06 -1.25242e-07 -1.43163e-09 6.80903e-06 4.59563e-22 6.80903e-06)
(6.80903e-06 -1.25242e-07 -1.43163e-09 6.80903e-06 3.61469e-23 6.80903e-06)
(8.09801e-06 -1.65455e-07 -1.92659e-09 8.09801e-06 6.19802e-22 8.09801e-06)
(8.09801e-06 -1.65455e-07 -1.92659e-09 8.09801e-06 4.79039e-23 8.09801e-06)
(9.57618e-06 -2.16577e-07 -2.56892e-09 9.57618e-06 8.28145e-22 9.57618e-06)
(9.57618e-06 -2.16577e-07 -2.56892e-09 9.57618e-06 6.30332e-23 9.57618e-06)
(1.12648e-05 -2.811e-07 -3.39648e-09 1.12648e-05 1.09715e-21 1.12648e-05)
(1.12648e-05 -2.811e-07 -3.39648e-09 1.12648e-05 8.20451e-23 1.12648e-05)
(1.31871e-05 -3.61999e-07 -4.45558e-09 1.31871e-05 1.44209e-21 1.31871e-05)
(1.31871e-05 -3.61999e-07 -4.45558e-09 1.31871e-05 1.05889e-22 1.31871e-05)
(1.53682e-05 -4.62805e-07 -5.80263e-09 1.53682e-05 1.88159e-21 1.53682e-05)
(1.53682e-05 -4.62805e-07 -5.80263e-09 1.53682e-05 1.35959e-22 1.53682e-05)
(1.78355e-05 -5.877e-07 -7.50605e-09 1.78355e-05 1.63052e-21 1.78355e-05)
(1.78355e-05 -5.877e-07 -7.50605e-09 1.78355e-05 1.73192e-22 1.78355e-05)
(2.06185e-05 -7.41612e-07 -9.64854e-09 2.06185e-05 8.3815e-22 2.06185e-05)
(2.06185e-05 -7.41612e-07 -9.64854e-09 2.06185e-05 2.18854e-22 2.06185e-05)
(2.37495e-05 -9.30334e-07 -1.23297e-08 2.37495e-05 7.50138e-22 2.37495e-05)
(2.37495e-05 -9.30334e-07 -1.23297e-08 2.37495e-05 2.7439e-22 2.37495e-05)
(2.72632e-05 -1.16065e-06 -1.56691e-08 2.72632e-05 9.06066e-22 2.72632e-05)
(2.72632e-05 -1.16065e-06 -1.56691e-08 2.72632e-05 3.42587e-22 2.72632e-05)
(3.11972e-05 -1.44049e-06 -1.98097e-08 3.11972e-05 1.08689e-21 3.11972e-05)
(3.11972e-05 -1.44049e-06 -1.98097e-08 3.11972e-05 4.24515e-22 3.11972e-05)
(3.5592e-05 -1.77907e-06 -2.49223e-08 3.5592e-05 1.29515e-21 3.5592e-05)
(3.5592e-05 -1.77907e-06 -2.49223e-08 3.5592e-05 5.23156e-22 3.5592e-05)
(4.04914e-05 -2.18708e-06 -3.12096e-08 4.04914e-05 1.53451e-21 4.04914e-05)
(4.04914e-05 -2.18708e-06 -3.12096e-08 4.04914e-05 6.43382e-22 4.04914e-05)
(4.59427e-05 -2.67693e-06 -3.89122e-08 4.59427e-05 1.80498e-21 4.59427e-05)
(4.59427e-05 -2.67693e-06 -3.89122e-08 4.59427e-05 7.86113e-22 4.59427e-05)
(5.19966e-05 -3.26289e-06 -4.83143e-08 5.19966e-05 2.10988e-21 5.19966e-05)
(5.19966e-05 -3.26289e-06 -4.83143e-08 5.19966e-05 9.56145e-22 5.19966e-05)
(5.87077e-05 -3.96139e-06 -5.97511e-08 5.87077e-05 2.45535e-21 5.87077e-05)
(5.87077e-05 -3.96139e-06 -5.97511e-08 5.87077e-05 1.1509e-21 5.87077e-05)
(6.61346e-05 -4.79129e-06 -7.36163e-08 6.61346e-05 2.83908e-21 6.61346e-05)
(6.61346e-05 -4.79129e-06 -7.36163e-08 6.61346e-05 1.37384e-21 6.61346e-05)
(7.43402e-05 -5.77415e-06 -9.03713e-08 7.43402e-05 3.26195e-21 7.43402e-05)
(7.43402e-05 -5.77415e-06 -9.03713e-08 7.43402e-05 1.64303e-21 7.43402e-05)
(8.33917e-05 -6.93452e-06 -1.10555e-07 8.33917e-05 3.7151e-21 8.33917e-05)
(8.33917e-05 -6.93452e-06 -1.10555e-07 8.33917e-05 1.95923e-21 8.33917e-05)
(9.3361e-05 -8.30035e-06 -1.34797e-07 9.3361e-05 4.1981e-21 9.3361e-05)
(9.3361e-05 -8.30035e-06 -1.34797e-07 9.3361e-05 2.32787e-21 9.3361e-05)
(0.000104325 -9.90326e-06 -1.63824e-07 0.000104325 4.73305e-21 0.000104325)
(0.000104325 -9.90326e-06 -1.63824e-07 0.000104325 2.75953e-21 0.000104325)
(0.000116365 -1.1779e-05 -1.98483e-07 0.000116365 5.30664e-21 0.000116365)
(0.000116365 -1.1779e-05 -1.98483e-07 0.000116365 3.24999e-21 0.000116365)
(0.000129568 -1.39677e-05 -2.39748e-07 0.000129568 5.88348e-21 0.000129568)
(0.000129568 -1.39677e-05 -2.39748e-07 0.000129568 3.7887e-21 0.000129568)
(0.000144027 -1.65146e-05 -2.8874e-07 0.000144027 6.44637e-21 0.000144027)
(0.000144027 -1.65146e-05 -2.8874e-07 0.000144027 4.37384e-21 0.000144027)
(0.000159838 -1.94698e-05 -3.46745e-07 0.000159838 6.96442e-21 0.000159838)
(0.000159838 -1.94698e-05 -3.46745e-07 0.000159838 5.07071e-21 0.000159838)
(0.000177105 -2.28895e-05 -4.15231e-07 0.000177105 7.4312e-21 0.000177105)
(0.000177105 -2.28895e-05 -4.15231e-07 0.000177105 5.91876e-21 0.000177105)
(0.000195936 -2.68355e-05 -4.95868e-07 0.000195936 7.86273e-21 0.000195936)
(0.000195936 -2.68355e-05 -4.95868e-07 0.000195936 6.77256e-21 0.000195936)
(0.000216445 -3.13763e-05 -5.9055e-07 0.000216445 8.21926e-21 0.000216445)
(0.000216445 -3.13763e-05 -5.9055e-07 0.000216445 7.65213e-21 0.000216445)
(0.000238751 -3.65869e-05 -7.01414e-07 0.000238751 8.34444e-21 0.000238751)
(0.000238751 -3.65869e-05 -7.01414e-07 0.000238751 8.71098e-21 0.000238751)
(0.000262977 -4.25491e-05 -8.30862e-07 0.000262977 8.27428e-21 0.000262977)
(0.000262977 -4.25491e-05 -8.30862e-07 0.000262977 9.81517e-21 0.000262977)
(0.000289251 -4.93517e-05 -9.81579e-07 0.000289251 7.9448e-21 0.000289251)
(0.000289251 -4.93517e-05 -9.81579e-07 0.000289251 1.10409e-20 0.000289251)
(0.000317707 -5.70904e-05 -1.15655e-06 0.000317707 7.19744e-21 0.000317707)
(0.000317707 -5.70904e-05 -1.15655e-06 0.000317707 1.24734e-20 0.000317707)
(0.00034848 -6.58678e-05 -1.35909e-06 0.00034848 5.88453e-21 0.00034848)
(0.00034848 -6.58678e-05 -1.35909e-06 0.00034848 1.38379e-20 0.00034848)
(0.000381708 -7.57927e-05 -1.59284e-06 0.000381708 2.17862e-21 0.000381708)
(0.000381708 -7.57927e-05 -1.59284e-06 0.000381708 1.5104e-20 0.000381708)
(0.000417533 -8.69803e-05 -1.86177e-06 0.000417533 2.08891e-21 0.000417533)
(0.000417533 -8.69803e-05 -1.86177e-06 0.000417533 1.65282e-20 0.000417533)
(0.000456096 -9.95505e-05 -2.17022e-06 0.000456096 -3.98207e-21 0.000456096)
(0.000456096 -9.95505e-05 -2.17022e-06 0.000456096 1.81589e-20 0.000456096)
(0.000497538 -0.000113628 -2.52285e-06 0.000497538 -9.29771e-21 0.000497538)
(0.000497538 -0.000113628 -2.52285e-06 0.000497538 2.0038e-20 0.000497538)
(0.000541996 -0.000129339 -2.92466e-06 0.000541996 -1.65132e-20 0.000541996)
(0.000541996 -0.000129339 -2.92466e-06 0.000541996 2.19076e-20 0.000541996)
(0.000589608 -0.000146812 -3.38097e-06 0.000589608 -2.65195e-20 0.000589608)
(0.000589608 -0.000146812 -3.38097e-06 0.000589608 2.27453e-20 0.000589608)
(0.000640501 -0.000166177 -3.89737e-06 0.000640501 -3.90216e-20 0.000640501)
(0.000640501 -0.000166177 -3.89737e-06 0.000640501 2.30815e-20 0.000640501)
(0.0006948 -0.000187557 -4.47971e-06 0.0006948 -5.38209e-20 0.0006948)
(0.0006948 -0.000187557 -4.47971e-06 0.0006948 2.3845e-20 0.0006948)
(0.000752617 -0.000211073 -5.13401e-06 0.000752617 -7.22837e-20 0.000752617)
(0.000752617 -0.000211073 -5.13401e-06 0.000752617 2.39694e-20 0.000752617)
(0.000814054 -0.000236838 -5.86645e-06 0.000814054 -9.4358e-20 0.000814054)
(0.000814054 -0.000236838 -5.86645e-06 0.000814054 2.42777e-20 0.000814054)
(0.000879197 -0.000264956 -6.68324e-06 0.000879197 -1.05508e-19 0.000879197)
(0.000879197 -0.000264956 -6.68324e-06 0.000879197 2.45862e-20 0.000879197)
(0.000948119 -0.000295514 -7.59059e-06 0.000948119 -1.02007e-19 0.000948119)
(0.000948119 -0.000295514 -7.59059e-06 0.000948119 2.24147e-20 0.000948119)
(0.00102087 -0.000328588 -8.59459e-06 0.00102087 -1.1249e-19 0.00102087)
(0.00102087 -0.000328588 -8.59459e-06 0.00102087 1.94532e-20 0.00102087)
(0.00109749 -0.000364233 -9.70112e-06 0.00109749 -1.41592e-19 0.00109749)
(0.00109749 -0.000364233 -9.70112e-06 0.00109749 1.83174e-20 0.00109749)
(0.00117798 -0.000402485 -1.09158e-05 0.00117798 -1.75386e-19 0.00117798)
(0.00117798 -0.000402485 -1.09158e-05 0.00117798 1.69802e-20 0.00117798)
(0.00126233 -0.000443355 -1.22438e-05 0.00126233 -2.1256e-19 0.00126233)
(0.00126233 -0.000443355 -1.22438e-05 0.00126233 1.18833e-20 0.00126233)
(0.0013505 -0.000486832 -1.36897e-05 0.0013505 -2.55843e-19 0.0013505)
(0.0013505 -0.000486832 -1.36897e-05 0.0013505 6.08808e-21 0.0013505)
(0.00144242 -0.000532879 -1.52579e-05 0.00144242 -3.06116e-19 0.00144242)
(0.00144242 -0.000532879 -1.52579e-05 0.00144242 5.27917e-22 0.00144242)
(0.001538 -0.000581433 -1.69516e-05 0.001538 -3.59026e-19 0.001538)
(0.001538 -0.000581433 -1.69516e-05 0.001538 -1.46456e-20 0.001538)
(0.00163712 -0.000632404 -1.87737e-05 0.00163712 -4.15629e-19 0.00163712)
(0.00163712 -0.000632404 -1.87737e-05 0.00163712 -2.73327e-20 0.00163712)
(0.00173964 -0.000685679 -2.07263e-05 0.00173964 -4.77463e-19 0.00173964)
(0.00173964 -0.000685679 -2.07263e-05 0.00173964 -3.23011e-20 0.00173964)
(0.00184538 -0.000741122 -2.28105e-05 0.00184538 -5.43246e-19 0.00184538)
(0.00184538 -0.000741122 -2.28105e-05 0.00184538 -5.19581e-20 0.00184538)
(0.00195414 -0.000798573 -2.50269e-05 0.00195414 -6.20175e-19 0.00195414)
(0.00195414 -0.000798573 -2.50269e-05 0.00195414 -7.61106e-20 0.00195414)
(0.00206571 -0.000857856 -2.73751e-05 0.00206571 -7.15391e-19 0.00206571)
(0.00206571 -0.000857856 -2.73751e-05 0.00206571 -8.17332e-20 0.00206571)
(0.00217985 -0.000918777 -2.98542e-05 0.00217985 -8.1058e-19 0.00217985)
(0.00217985 -0.000918777 -2.98542e-05 0.00217985 -8.46313e-20 0.00217985)
(0.0022963 -0.00098113 -3.24623e-05 0.0022963 -9.01636e-19 0.0022963)
(0.0022963 -0.00098113 -3.24623e-05 0.0022963 -1.03381e-19 0.0022963)
(0.00241479 -0.0010447 -3.51972e-05 0.00241479 -1.0119e-18 0.00241479)
(0.00241479 -0.0010447 -3.51972e-05 0.00241479 -1.20273e-19 0.00241479)
(0.00253505 -0.00110927 -3.80559e-05 0.00253505 -1.12346e-18 0.00253505)
(0.00253505 -0.00110927 -3.80559e-05 0.00253505 -1.38162e-19 0.00253505)
(0.00265677 -0.00117461 -4.10351e-05 0.00265677 -1.22615e-18 0.00265677)
(0.00265677 -0.00117461 -4.10351e-05 0.00265677 -1.55796e-19 0.00265677)
(0.00277967 -0.0012405 -4.41309e-05 0.00277967 -1.3284e-18 0.00277967)
(0.00277967 -0.0012405 -4.41309e-05 0.00277967 -1.55834e-19 0.00277967)
(0.00290346 -0.00130672 -4.73393e-05 0.00290346 -1.44762e-18 0.00290346)
(0.00290346 -0.00130672 -4.73393e-05 0.00290346 -1.61896e-19 0.00290346)
(0.00302783 -0.00137306 -5.06559e-05 0.00302783 -1.55737e-18 0.00302783)
(0.00302783 -0.00137306 -5.06559e-05 0.00302783 -1.90875e-19 0.00302783)
(0.00315251 -0.00143932 -5.40763e-05 0.00315251 -1.63263e-18 0.00315251)
(0.00315251 -0.00143932 -5.40763e-05 0.00315251 -2.48995e-20 0.00315251)
(0.00327719 -0.00150531 -5.75959e-05 0.00327719 -1.71764e-18 0.00327719)
(0.00327719 -0.00150531 -5.75959e-05 0.00327719 6.44372e-19 0.00327719)
(0.00340163 -0.00157084 -6.12102e-05 0.00340163 -1.7808e-18 0.00340163)
(0.00340163 -0.00157084 -6.12102e-05 0.00340163 7.7409e-19 0.00340163)
(0.00352554 -0.00163575 -6.49149e-05 0.00352554 -1.81386e-18 0.00352554)
(0.00352554 -0.00163575 -6.49149e-05 0.00352554 8.37933e-19 0.00352554)
(0.00364869 -0.00169989 -6.87054e-05 0.00364869 -1.83995e-18 0.00364869)
(0.00364869 -0.00169989 -6.87054e-05 0.00364869 9.04241e-19 0.00364869)
(0.00377084 -0.00176313 -7.25777e-05 0.00377084 -1.87989e-18 0.00377084)
(0.00377084 -0.00176313 -7.25777e-05 0.00377084 1.00203e-18 0.00377084)
(0.00389176 -0.00182533 -7.65278e-05 0.00389176 -1.90449e-18 0.00389176)
(0.00389176 -0.00182533 -7.65278e-05 0.00389176 1.07058e-18 0.00389176)
(0.00401127 -0.00188639 -8.0552e-05 0.00401127 -1.94841e-18 0.00401127)
(0.00401127 -0.00188639 -8.0552e-05 0.00401127 1.11642e-18 0.00401127)
(0.00412916 -0.00194622 -8.46467e-05 0.00412916 -2.02052e-18 0.00412916)
(0.00412916 -0.00194622 -8.46467e-05 0.00412916 1.19348e-18 0.00412916)
(0.00424528 -0.00200473 -8.88088e-05 0.00424528 -2.11536e-18 0.00424528)
(0.00424528 -0.00200473 -8.88088e-05 0.00424528 1.28015e-18 0.00424528)
(0.00435947 -0.00206187 -9.30353e-05 0.00435947 -2.16217e-18 0.00435947)
(0.00435947 -0.00206187 -9.30353e-05 0.00435947 1.37247e-18 0.00435947)
(0.00447159 -0.00211756 -9.73234e-05 0.00447159 -1.64063e-18 0.00447159)
(0.00447159 -0.00211756 -9.73234e-05 0.00447159 1.48713e-18 0.00447159)
(0.00458151 -0.00217178 -0.000101671 0.00458151 -1.08604e-18 0.00458151)
(0.00458151 -0.00217178 -0.000101671 0.00458151 1.59958e-18 0.00458151)
(0.00468915 -0.00222449 -0.000106075 0.00468915 -1.01166e-18 0.00468915)
(0.00468915 -0.00222449 -0.000106075 0.00468915 1.68107e-18 0.00468915)
(0.0047944 -0.00227565 -0.000110535 0.0047944 -1.05388e-18 0.0047944)
(0.0047944 -0.00227565 -0.000110535 0.0047944 1.80093e-18 0.0047944)
(0.00489719 -0.00232526 -0.000115049 0.00489719 -1.02586e-18 0.00489719)
(0.00489719 -0.00232526 -0.000115049 0.00489719 1.94504e-18 0.00489719)
(0.00499746 -0.00237331 -0.000119614 0.00499746 -8.8567e-19 0.00499746)
(0.00499746 -0.00237331 -0.000119614 0.00499746 2.10672e-18 0.00499746)
(0.00509515 -0.00241979 -0.000124231 0.00509515 -7.47215e-19 0.00509515)
(0.00509515 -0.00241979 -0.000124231 0.00509515 2.28371e-18 0.00509515)
(0.00519023 -0.00246471 -0.000128898 0.00519023 -5.97004e-19 0.00519023)
(0.00519023 -0.00246471 -0.000128898 0.00519023 2.42038e-18 0.00519023)
(0.00528266 -0.00250808 -0.000133614 0.00528266 -4.94578e-19 0.00528266)
(0.00528266 -0.00250808 -0.000133614 0.00528266 2.57276e-18 0.00528266)
(0.00537243 -0.00254991 -0.000138379 0.00537243 -3.39998e-19 0.00537243)
(0.00537243 -0.00254991 -0.000138379 0.00537243 2.66095e-18 0.00537243)
(0.00545953 -0.00259022 -0.000143192 0.00545953 1.06644e-19 0.00545953)
(0.00545953 -0.00259022 -0.000143192 0.00545953 2.75852e-18 0.00545953)
(0.00554394 -0.00262904 -0.000148053 0.00554394 5.28537e-19 0.00554394)
(0.00554394 -0.00262904 -0.000148053 0.00554394 2.90043e-18 0.00554394)
(0.00562569 -0.00266637 -0.000152961 0.00562569 5.39539e-19 0.00562569)
(0.00562569 -0.00266637 -0.000152961 0.00562569 2.95211e-18 0.00562569)
(0.00570477 -0.00270225 -0.000157918 0.00570477 1.55779e-19 0.00570477)
(0.00570477 -0.00270225 -0.000157918 0.00570477 2.9184e-18 0.00570477)
(0.0057812 -0.00273671 -0.000162922 0.0057812 3.5849e-20 0.0057812)
(0.0057812 -0.00273671 -0.000162922 0.0057812 2.91143e-18 0.0057812)
(0.005855 -0.00276977 -0.000167974 0.005855 -1.79001e-19 0.005855)
(0.005855 -0.00276977 -0.000167974 0.005855 3.34292e-18 0.005855)
(0.00592621 -0.00280147 -0.000173074 0.00592621 -1.45881e-19 0.00592621)
(0.00592621 -0.00280147 -0.000173074 0.00592621 3.60942e-18 0.00592621)
(0.00599484 -0.00283183 -0.000178223 0.00599484 2.03956e-20 0.00599484)
(0.00599484 -0.00283183 -0.000178223 0.00599484 3.46725e-18 0.00599484)
(0.00606094 -0.00286089 -0.000183421 0.00606094 -3.64745e-19 0.00606094)
(0.00606094 -0.00286089 -0.000183421 0.00606094 3.42106e-18 0.00606094)
(0.00612453 -0.00288867 -0.000188668 0.00612453 -6.22211e-19 0.00612453)
(0.00612453 -0.00288867 -0.000188668 0.00612453 3.96616e-18 0.00612453)
(0.00618565 -0.00291521 -0.000193965 0.00618565 -4.50067e-19 0.00618565)
(0.00618565 -0.00291521 -0.000193965 0.00618565 4.39162e-18 0.00618565)
(0.00624434 -0.00294053 -0.000199312 0.00624434 -1.04008e-19 0.00624434)
(0.00624434 -0.00294053 -0.000199312 0.00624434 4.32589e-18 0.00624434)
(0.00630065 -0.00296468 -0.000204711 0.00630065 -3.91625e-19 0.00630065)
(0.00630065 -0.00296468 -0.000204711 0.00630065 4.53289e-18 0.00630065)
(0.0063546 -0.00298767 -0.000210161 0.0063546 -7.54484e-19 0.0063546)
(0.0063546 -0.00298767 -0.000210161 0.0063546 4.70287e-18 0.0063546)
(0.00640626 -0.00300954 -0.000215663 0.00640626 -1.29094e-18 0.00640626)
(0.00640626 -0.00300954 -0.000215663 0.00640626 5.01113e-18 0.00640626)
(0.00645565 -0.00303032 -0.000221218 0.00645565 -1.38772e-18 0.00645565)
(0.00645565 -0.00303032 -0.000221218 0.00645565 5.23146e-18 0.00645565)
(0.00650283 -0.00305004 -0.000226826 0.00650283 -1.18503e-18 0.00650283)
(0.00650283 -0.00305004 -0.000226826 0.00650283 5.47386e-18 0.00650283)
(0.00654783 -0.00306872 -0.000232489 0.00654783 -1.28744e-18 0.00654783)
(0.00654783 -0.00306872 -0.000232489 0.00654783 5.77914e-18 0.00654783)
(0.00659069 -0.00308639 -0.000238206 0.00659069 -1.34561e-18 0.00659069)
(0.00659069 -0.00308639 -0.000238206 0.00659069 6.01641e-18 0.00659069)
(0.00663147 -0.00310307 -0.000243979 0.00663147 -1.67374e-18 0.00663147)
(0.00663147 -0.00310307 -0.000243979 0.00663147 6.42037e-18 0.00663147)
(0.00667021 -0.0031188 -0.000249807 0.00667021 -2.68901e-18 0.00667021)
(0.00667021 -0.0031188 -0.000249807 0.00667021 6.88392e-18 0.00667021)
(0.00670694 -0.00313359 -0.000255692 0.00670694 -2.40029e-18 0.00670694)
(0.00670694 -0.00313359 -0.000255692 0.00670694 7.07916e-18 0.00670694)
(0.0067417 -0.00314748 -0.000261634 0.0067417 -2.34041e-18 0.0067417)
(0.0067417 -0.00314748 -0.000261634 0.0067417 7.28116e-18 0.0067417)
(0.00677454 -0.00316047 -0.000267634 0.00677454 -2.10643e-18 0.00677454)
(0.00677454 -0.00316047 -0.000267634 0.00677454 7.98613e-18 0.00677454)
(0.0068055 -0.00317261 -0.000273693 0.0068055 -1.96651e-18 0.0068055)
(0.0068055 -0.00317261 -0.000273693 0.0068055 8.88543e-18 0.0068055)
(0.00683462 -0.00318389 -0.000279809 0.00683462 -6.93543e-19 0.00683462)
(0.00683462 -0.00318389 -0.000279809 0.00683462 8.97496e-18 0.00683462)
(0.00686193 -0.00319435 -0.000285986 0.00686193 8.85697e-19 0.00686193)
(0.00686193 -0.00319435 -0.000285986 0.00686193 8.90539e-18 0.00686193)
(0.00688747 -0.00320401 -0.000292221 0.00688747 8.01956e-19 0.00688747)
(0.00688747 -0.00320401 -0.000292221 0.00688747 9.66361e-18 0.00688747)
(0.00691127 -0.00321288 -0.000298517 0.00691127 3.08466e-19 0.00691127)
(0.00691127 -0.00321288 -0.000298517 0.00691127 9.80385e-18 0.00691127)
(0.00693338 -0.00322098 -0.000304873 0.00693338 9.51136e-20 0.00693338)
(0.00693338 -0.00322098 -0.000304873 0.00693338 9.9356e-18 0.00693338)
(0.00695382 -0.00322833 -0.00031129 0.00695382 -5.10445e-19 0.00695382)
(0.00695382 -0.00322833 -0.00031129 0.00695382 1.1358e-17 0.00695382)
(0.00697263 -0.00323494 -0.000317767 0.00697263 -6.68715e-19 0.00697263)
(0.00697263 -0.00323494 -0.000317767 0.00697263 1.27535e-17 0.00697263)
(0.00698983 -0.00324083 -0.000324306 0.00698983 -2.09496e-19 0.00698983)
(0.00698983 -0.00324083 -0.000324306 0.00698983 1.28182e-17 0.00698983)
(0.00700546 -0.00324602 -0.000330906 0.00700546 8.88167e-19 0.00700546)
(0.00700546 -0.00324602 -0.000330906 0.00700546 1.23918e-17 0.00700546)
(0.00701955 -0.00325051 -0.000337567 0.00701955 1.20774e-18 0.00701955)
(0.00701955 -0.00325051 -0.000337567 0.00701955 1.28738e-17 0.00701955)
(0.00703213 -0.00325432 -0.000344289 0.00703213 1.64879e-18 0.00703213)
(0.00703213 -0.00325432 -0.000344289 0.00703213 1.39871e-17 0.00703213)
(0.00704321 -0.00325747 -0.000351072 0.00704321 1.71857e-18 0.00704321)
(0.00704321 -0.00325747 -0.000351072 0.00704321 1.47056e-17 0.00704321)
(0.00705284 -0.00325996 -0.000357916 0.00705284 2.11841e-18 0.00705284)
(0.00705284 -0.00325996 -0.000357916 0.00705284 1.44906e-17 0.00705284)
(0.00706102 -0.0032618 -0.000364822 0.00706102 2.08519e-18 0.00706102)
(0.00706102 -0.0032618 -0.000364822 0.00706102 1.44063e-17 0.00706102)
(0.0070678 -0.00326301 -0.000371787 0.0070678 2.31388e-18 0.0070678)
(0.0070678 -0.00326301 -0.000371787 0.0070678 1.49272e-17 0.0070678)
(0.00707318 -0.0032636 -0.000378813 0.00707318 2.7896e-18 0.00707318)
(0.00707318 -0.0032636 -0.000378813 0.00707318 1.58111e-17 0.00707318)
(0.00707719 -0.00326357 -0.000385898 0.00707719 2.21447e-18 0.00707719)
(0.00707719 -0.00326357 -0.000385898 0.00707719 1.68128e-17 0.00707719)
(0.00707985 -0.00326293 -0.000393042 0.00707985 1.42418e-18 0.00707985)
(0.00707985 -0.00326293 -0.000393042 0.00707985 1.68391e-17 0.00707985)
(0.00708118 -0.00326169 -0.000400245 0.00708118 5.28216e-19 0.00708118)
(0.00708118 -0.00326169 -0.000400245 0.00708118 1.75505e-17 0.00708118)
(0.0070812 -0.00325986 -0.000407505 0.0070812 5.13844e-19 0.0070812)
(0.0070812 -0.00325986 -0.000407505 0.0070812 1.89934e-17 0.0070812)
(0.00707992 -0.00325745 -0.000414821 0.00707992 -6.6016e-33 0.00707992)
(0.00707992 -0.00325745 -0.000414821 0.00707992 1.97584e-17 0.00707992)
(0.00707737 -0.00325446 -0.000422194 0.00707737 -8.76686e-19 0.00707737)
(0.00707737 -0.00325446 -0.000422194 0.00707737 2.04382e-17 0.00707737)
(0.00707355 -0.00325089 -0.00042962 0.00707355 -4.32458e-19 0.00707355)
(0.00707355 -0.00325089 -0.00042962 0.00707355 1.8268e-17 0.00707355)
(0.00706848 -0.00324676 -0.0004371 0.00706848 -1.85344e-18 0.00706848)
(0.00706848 -0.00324676 -0.0004371 0.00706848 1.67325e-17 0.00706848)
(0.00706218 -0.00324207 -0.000444632 0.00706218 -2.26861e-18 0.00706218)
(0.00706218 -0.00324207 -0.000444632 0.00706218 1.88779e-17 0.00706218)
(0.00705466 -0.00323681 -0.000452214 0.00705466 -1.45687e-18 0.00705466)
(0.00705466 -0.00323681 -0.000452214 0.00705466 1.90299e-17 0.00705466)
(0.00704592 -0.00323101 -0.000459844 0.00704592 -2.0131e-18 0.00704592)
(0.00704592 -0.00323101 -0.000459844 0.00704592 2.08914e-17 0.00704592)
(0.00703599 -0.00322465 -0.000467522 0.00703599 -3.03236e-19 0.00703599)
(0.00703599 -0.00322465 -0.000467522 0.00703599 2.45998e-17 0.00703599)
(0.00702487 -0.00321774 -0.000475244 0.00702487 -3.13083e-19 0.00702487)
(0.00702487 -0.00321774 -0.000475244 0.00702487 2.58912e-17 0.00702487)
(0.00701257 -0.00321029 -0.000483008 0.00701257 1.20474e-19 0.00701257)
(0.00701257 -0.00321029 -0.000483008 0.00701257 2.6406e-17 0.00701257)
(0.0069991 -0.00320229 -0.000490813 0.0069991 1.49413e-18 0.0069991)
(0.0069991 -0.00320229 -0.000490813 0.0069991 2.62471e-17 0.0069991)
(0.00698446 -0.00319375 -0.000498656 0.00698446 1.88691e-18 0.00698446)
(0.00698446 -0.00319375 -0.000498656 0.00698446 2.71148e-17 0.00698446)
(0.00696867 -0.00318467 -0.000506534 0.00696867 1.54401e-18 0.00696867)
(0.00696867 -0.00318467 -0.000506534 0.00696867 2.94059e-17 0.00696867)
(0.00695173 -0.00317506 -0.000514443 0.00695173 1.095e-18 0.00695173)
(0.00695173 -0.00317506 -0.000514443 0.00695173 3.00485e-17 0.00695173)
(0.00693365 -0.0031649 -0.000522382 0.00693365 1.83021e-18 0.00693365)
(0.00693365 -0.0031649 -0.000522382 0.00693365 2.99584e-17 0.00693365)
(0.00691443 -0.00315421 -0.000530347 0.00691443 2.37176e-18 0.00691443)
(0.00691443 -0.00315421 -0.000530347 0.00691443 3.12932e-17 0.00691443)
(0.00689407 -0.00314297 -0.000538333 0.00689407 2.56492e-18 0.00689407)
(0.00689407 -0.00314297 -0.000538333 0.00689407 3.13914e-17 0.00689407)
(0.00687258 -0.0031312 -0.000546338 0.00687258 4.85783e-18 0.00687258)
(0.00687258 -0.0031312 -0.000546338 0.00687258 3.09088e-17 0.00687258)
(0.00684996 -0.00311888 -0.000554358 0.00684996 1.49168e-18 0.00684996)
(0.00684996 -0.00311888 -0.000554358 0.00684996 3.04737e-17 0.00684996)
(0.00682622 -0.00310603 -0.000562387 0.00682622 -1.61611e-18 0.00682622)
(0.00682622 -0.00310603 -0.000562387 0.00682622 3.11194e-17 0.00682622)
(0.00680135 -0.00309263 -0.000570422 0.00680135 4.19612e-19 0.00680135)
(0.00680135 -0.00309263 -0.000570422 0.00680135 3.11952e-17 0.00680135)
(0.00677536 -0.00307869 -0.000578457 0.00677536 5.41161e-19 0.00677536)
(0.00677536 -0.00307869 -0.000578457 0.00677536 3.18122e-17 0.00677536)
(0.00674825 -0.0030642 -0.000586488 0.00674825 1.98313e-19 0.00674825)
(0.00674825 -0.0030642 -0.000586488 0.00674825 3.26634e-17 0.00674825)
(0.00672001 -0.00304916 -0.000594508 0.00672001 5.59164e-19 0.00672001)
(0.00672001 -0.00304916 -0.000594508 0.00672001 3.25457e-17 0.00672001)
(0.00669065 -0.00303357 -0.000602514 0.00669065 -1.00232e-18 0.00669065)
(0.00669065 -0.00303357 -0.000602514 0.00669065 3.48611e-17 0.00669065)
(0.00666017 -0.00301743 -0.000610497 0.00666017 -1.65742e-18 0.00666017)
(0.00666017 -0.00301743 -0.000610497 0.00666017 3.73244e-17 0.00666017)
(0.00662855 -0.00300073 -0.000618452 0.00662855 2.08736e-18 0.00662855)
(0.00662855 -0.00300073 -0.000618452 0.00662855 3.86951e-17 0.00662855)
(0.00659582 -0.00298346 -0.000626371 0.00659582 5.30428e-18 0.00659582)
(0.00659582 -0.00298346 -0.000626371 0.00659582 3.85551e-17 0.00659582)
(0.00656195 -0.00296563 -0.000634249 0.00656195 6.648e-18 0.00656195)
(0.00656195 -0.00296563 -0.000634249 0.00656195 3.45784e-17 0.00656195)
(0.00652694 -0.00294723 -0.000642077 0.00652694 6.48238e-18 0.00652694)
(0.00652694 -0.00294723 -0.000642077 0.00652694 3.48156e-17 0.00652694)
(0.0064908 -0.00292825 -0.000649847 0.0064908 2.0275e-18 0.0064908)
(0.0064908 -0.00292825 -0.000649847 0.0064908 4.23942e-17 0.0064908)
(0.00645351 -0.0029087 -0.00065755 0.00645351 2.92713e-18 0.00645351)
(0.00645351 -0.0029087 -0.00065755 0.00645351 3.74095e-17 0.00645351)
(0.00641508 -0.00288856 -0.000665179 0.00641508 2.21532e-18 0.00641508)
(0.00641508 -0.00288856 -0.000665179 0.00641508 2.93805e-17 0.00641508)
(0.0063755 -0.00286783 -0.000672723 0.0063755 1.65024e-18 0.0063755)
(0.0063755 -0.00286783 -0.000672723 0.0063755 2.74826e-17 0.0063755)
(0.00633477 -0.0028465 -0.000680173 0.00633477 1.87478e-18 0.00633477)
(0.00633477 -0.0028465 -0.000680173 0.00633477 3.16278e-17 0.00633477)
(0.00629287 -0.00282458 -0.000687518 0.00629287 -6.73256e-19 0.00629287)
(0.00629287 -0.00282458 -0.000687518 0.00629287 3.27658e-17 0.00629287)
(0.0062498 -0.00280204 -0.000694748 0.0062498 -1.4093e-18 0.0062498)
(0.0062498 -0.00280204 -0.000694748 0.0062498 2.10399e-17 0.0062498)
(0.00620556 -0.00277889 -0.000701851 0.00620556 -1.08013e-18 0.00620556)
(0.00620556 -0.00277889 -0.000701851 0.00620556 1.2139e-17 0.00620556)
(0.00616014 -0.00275512 -0.000708816 0.00616014 1.6543e-18 0.00616014)
(0.00616014 -0.00275512 -0.000708816 0.00616014 1.16972e-17 0.00616014)
(0.00611354 -0.00273073 -0.000715629 0.00611354 -1.17611e-18 0.00611354)
(0.00611354 -0.00273073 -0.000715629 0.00611354 1.07139e-17 0.00611354)
(0.00606575 -0.0027057 -0.000722278 0.00606575 -7.91608e-18 0.00606575)
(0.00606575 -0.0027057 -0.000722278 0.00606575 1.04652e-17 0.00606575)
(0.00601675 -0.00268002 -0.000728748 0.00601675 -2.23769e-18 0.00601675)
(0.00601675 -0.00268002 -0.000728748 0.00601675 1.05046e-17 0.00601675)
(0.00596656 -0.0026537 -0.000735026 0.00596656 8.95029e-18 0.00596656)
(0.00596656 -0.0026537 -0.000735026 0.00596656 6.42121e-18 0.00596656)
(0.00591515 -0.00262672 -0.000741096 0.00591515 5.55772e-18 0.00591515)
(0.00591515 -0.00262672 -0.000741096 0.00591515 -4.52645e-18 0.00591515)
(0.00586252 -0.00259907 -0.000746942 0.00586252 1.25092e-18 0.00586252)