/*--------------------------------*- C++ -*----------------------------------*\
| =========                 |                                                 |
| \\      /  F ield         | OpenFOAM: The Open Source CFD Toolbox           |
|  \\    /   O peration     | Version:  2106                                  |
|   \\  /    A nd           | Website:  www.openfoam.com                      |
|    \\/     M anipulation  |                                                 |
\*---------------------------------------------------------------------------*/
FoamFile
{
    version     2.0;
    format      ascii;
    arch        "LSB;label=32;scalar=64";
    class       volVectorField;
    location    "10100";
    object      U;
}
// * * * * * * * * * * * * * * * * * * * * * * * * * * * * * * * * * * * * * //

dimensions      [0 1 -1 0 0 0 0];

internalField   nonuniform List<vector> 
2000
(
(0.00120171 -4.21847e-16 -2.26145e-17)
(0.00120171 -1.81589e-19 -4.00375e-18)
(0.00362711 -2.86036e-15 -9.65354e-17)
(0.00362711 -7.18812e-19 -1.59035e-17)
(0.00609732 -2.30724e-15 -1.05518e-16)
(0.00609732 -1.78334e-18 -1.64945e-17)
(0.00861314 -2.22834e-15 -1.10219e-16)
(0.00861314 -2.83286e-18 -1.71011e-17)
(0.0111754 -2.21009e-15 -1.15541e-16)
(0.0111754 -3.90647e-18 -1.77238e-17)
(0.0137849 -2.21591e-15 -1.21777e-16)
(0.0137849 -5.0259e-18 -1.83632e-17)
(0.0164426 -2.21776e-15 -1.28404e-16)
(0.0164426 -6.19036e-18 -1.90192e-17)
(0.0191493 -2.21613e-15 -1.35302e-16)
(0.0191493 -7.37466e-18 -1.96915e-17)
(0.0219059 -2.21393e-15 -1.42495e-16)
(0.0219059 -8.59314e-18 -2.03807e-17)
(0.0247133 -2.21186e-15 -1.50001e-16)
(0.0247133 -9.84748e-18 -2.10879e-17)
(0.0275724 -2.20976e-15 -1.57825e-16)
(0.0275724 -1.11502e-17 -2.18122e-17)
(0.0304841 -2.20758e-15 -1.65975e-16)
(0.0304841 -1.24844e-17 -2.25538e-17)
(0.0334494 -2.20534e-15 -1.74463e-16)
(0.0334494 -1.38536e-17 -2.33129e-17)
(0.0364693 -2.20301e-15 -1.833e-16)
(0.0364693 -1.52835e-17 -2.40889e-17)
(0.0395448 -2.20063e-15 -1.92498e-16)
(0.0395448 -1.67382e-17 -2.4882e-17)
(0.0426767 -2.19821e-15 -2.0207e-16)
(0.0426767 -1.81996e-17 -2.56931e-17)
(0.0458662 -2.19577e-15 -2.12032e-16)
(0.0458662 -1.96942e-17 -2.65224e-17)
(0.0491144 -2.19324e-15 -2.22399e-16)
(0.0491144 -2.12153e-17 -2.73687e-17)
(0.0524221 -2.19061e-15 -2.33184e-16)
(0.0524221 -2.28303e-17 -2.82345e-17)
(0.0557906 -2.18787e-15 -2.44403e-16)
(0.0557906 -2.45296e-17 -2.91176e-17)
(0.0592209 -2.18503e-15 -2.56071e-16)
(0.0592209 -2.6218e-17 -3.00155e-17)
(0.062714 -2.18215e-15 -2.68204e-16)
(0.062714 -2.7964e-17 -3.09308e-17)
(0.0662712 -2.17921e-15 -2.8082e-16)
(0.0662712 -2.97927e-17 -3.18633e-17)
(0.0698936 -2.17617e-15 -2.9394e-16)
(0.0698936 -3.15995e-17 -3.28125e-17)
(0.0735823 -2.17299e-15 -3.07581e-16)
(0.0735823 -3.34648e-17 -3.37759e-17)
(0.0773385 -2.16967e-15 -3.21759e-16)
(0.0773385 -3.53911e-17 -3.4755e-17)
(0.0811634 -2.16631e-15 -3.36494e-16)
(0.0811634 -3.73545e-17 -3.57523e-17)
(0.0850582 -2.16289e-15 -3.51811e-16)
(0.0850582 -3.94093e-17 -3.67603e-17)
(0.0890242 -2.15932e-15 -3.67728e-16)
(0.0890242 -4.14902e-17 -3.77847e-17)
(0.0930625 -2.15556e-15 -3.84268e-16)
(0.0930625 -4.36769e-17 -3.88248e-17)
(0.0971745 -2.15171e-15 -3.90145e-16)
(0.0971745 -4.58209e-17 -3.98782e-17)
(0.101361 -2.14784e-15 -3.93524e-16)
(0.101361 -4.80091e-17 -4.09438e-17)
(0.105625 -2.1439e-15 -3.96856e-16)
(0.105625 -5.03601e-17 -4.20182e-17)
(0.109965 -2.13982e-15 -4.00134e-16)
(0.109965 -5.2807e-17 -4.3106e-17)
(0.114385 -2.13566e-15 -4.03354e-16)
(0.114385 -5.52592e-17 -4.41953e-17)
(0.118885 -2.13136e-15 -4.06511e-16)
(0.118885 -5.76935e-17 -4.52969e-17)
(0.123466 -2.12686e-15 -4.09602e-16)
(0.123466 -6.02174e-17 -4.64053e-17)
(0.12813 -2.12221e-15 -4.12614e-16)
(0.12813 -6.27256e-17 -4.75198e-17)
(0.132878 -2.11747e-15 -4.15551e-16)
(0.132878 -6.54582e-17 -4.8641e-17)
(0.137712 -2.11259e-15 -4.1841e-16)
(0.137712 -6.82493e-17 -4.97476e-17)
(0.142633 -2.10746e-15 -4.21181e-16)
(0.142633 -7.09398e-17 -5.08477e-17)
(0.147642 -2.10234e-15 -4.23859e-16)
(0.147642 -7.3899e-17 -5.19485e-17)
(0.15274 -2.09731e-15 -4.26433e-16)
(0.15274 -7.68472e-17 -5.3038e-17)
(0.15793 -2.092e-15 -4.28899e-16)
(0.15793 -7.99242e-17 -5.41267e-17)
(0.163211 -2.08632e-15 -4.31262e-16)
(0.163211 -8.29901e-17 -5.52051e-17)
(0.168586 -2.08061e-15 -4.33509e-16)
(0.168586 -8.62235e-17 -5.62726e-17)
(0.174055 -2.07478e-15 -4.35633e-16)
(0.174055 -8.9739e-17 -5.73067e-17)
(0.17962 -2.06876e-15 -4.37612e-16)
(0.17962 -9.294e-17 -5.83018e-17)
(0.185281 -2.06277e-15 -4.39435e-16)
(0.185281 -9.60865e-17 -5.92854e-17)
(0.19104 -2.05678e-15 -4.41103e-16)
(0.19104 -9.96447e-17 -6.02576e-17)
(0.196898 -2.05042e-15 -4.42617e-16)
(0.196898 -1.03287e-16 -6.11604e-17)
(0.202855 -2.04399e-15 -4.43958e-16)
(0.202855 -1.068e-16 -6.20204e-17)
(0.208911 -2.03726e-15 -4.45111e-16)
(0.208911 -1.10512e-16 -6.28397e-17)
(0.215068 -2.03005e-15 -4.46071e-16)
(0.215068 -1.14305e-16 -6.35877e-17)
(0.221326 -2.02269e-15 -4.46823e-16)
(0.221326 -1.18242e-16 -6.42945e-17)
(0.227684 -2.01522e-15 -4.47364e-16)
(0.227684 -1.22275e-16 -6.49483e-17)
(0.234143 -2.0076e-15 -4.47659e-16)
(0.234143 -1.26286e-16 -6.55109e-17)
(0.240703 -2.00012e-15 -4.47673e-16)
(0.240703 -1.30118e-16 -6.59846e-17)
(0.247362 -1.99278e-15 -4.47389e-16)
(0.247362 -1.34088e-16 -6.63848e-17)
(0.25412 -1.98472e-15 -4.46816e-16)
(0.25412 -1.38393e-16 -6.67063e-17)
(0.260975 -1.97646e-15 -4.45917e-16)
(0.260975 -1.42842e-16 -6.69637e-17)
(0.267927 -1.96836e-15 -4.44679e-16)
(0.267927 -1.47002e-16 -6.71202e-17)
(0.274972 -1.95999e-15 -4.43015e-16)
(0.274972 -1.51142e-16 -6.71104e-17)
(0.282109 -1.95141e-15 -4.40955e-16)
(0.282109 -1.56185e-16 -6.69742e-17)
(0.289336 -1.94322e-15 -4.38482e-16)
(0.289336 -1.60836e-16 -6.67098e-17)
(0.296649 -1.93518e-15 -4.35576e-16)
(0.296649 -1.64523e-16 -6.62829e-17)
(0.304044 -1.92716e-15 -4.32222e-16)
(0.304044 -1.68408e-16 -6.57673e-17)
(0.311518 -1.91936e-15 -4.29257e-16)
(0.311518 -1.72584e-16 -6.50964e-17)
(0.319066 -1.91129e-15 -4.26642e-16)
(0.319066 -1.76222e-16 -6.42112e-17)
(0.326684 -1.9029e-15 -4.23641e-16)
(0.326684 -1.80151e-16 -6.31696e-17)
(0.334366 -1.89444e-15 -4.20246e-16)
(0.334366 -1.84568e-16 -6.20297e-17)
(0.342107 -1.88549e-15 -4.16459e-16)
(0.342107 -1.88359e-16 -6.073e-17)
(0.349902 -1.87664e-15 -4.12302e-16)
(0.349902 -1.92879e-16 -5.92065e-17)
(0.357744 -1.86783e-15 -4.07742e-16)
(0.357744 -1.97941e-16 -5.75322e-17)
(0.365627 -1.85843e-15 -4.02762e-16)
(0.365627 -2.0202e-16 -5.56542e-17)
(0.373544 -1.84925e-15 -3.97436e-16)
(0.373544 -2.06969e-16 -5.34126e-17)
(0.381489 -1.8398e-15 -3.91789e-16)
(0.381489 -2.11768e-16 -5.10827e-17)
(0.389455 -1.82996e-15 -3.85784e-16)
(0.389455 -2.16211e-16 -4.86082e-17)
(0.397435 -1.82064e-15 -3.79493e-16)
(0.397435 -2.20315e-16 -4.57225e-17)
(0.405422 -1.81236e-15 -3.72796e-16)
(0.405422 -2.22741e-16 -4.26498e-17)
(0.413411 -1.80422e-15 -3.65637e-16)
(0.413411 -2.2559e-16 -3.96195e-17)
(0.421393 -1.79551e-15 -3.58174e-16)
(0.421393 -2.28298e-16 -3.64159e-17)
(0.429364 -1.78692e-15 -3.50397e-16)
(0.429364 -2.31618e-16 -3.3013e-17)
(0.437317 -1.77764e-15 -3.42166e-16)
(0.437317 -2.35116e-16 -2.94753e-17)
(0.445245 -1.76815e-15 -3.33672e-16)
(0.445245 -2.38703e-16 -2.57018e-17)
(0.453145 -1.75869e-15 -3.24977e-16)
(0.453145 -2.42511e-16 -2.18396e-17)
(0.461009 -1.75044e-15 -3.16114e-16)
(0.461009 -2.46916e-16 -1.79876e-17)
(0.468834 -1.74305e-15 -3.06994e-16)
(0.468834 -2.51587e-16 -1.39153e-17)
(0.476615 -1.73409e-15 -2.97866e-16)
(0.476615 -2.53911e-16 -9.60967e-18)
(0.484349 -1.72541e-15 -2.8872e-16)
(0.484349 -2.57294e-16 -7.28873e-18)
(0.49203 -1.71646e-15 -2.7961e-16)
(0.49203 -2.62025e-16 -7.58932e-18)
(0.499656 -1.70641e-15 -2.70667e-16)
(0.499656 -2.6599e-16 -7.96574e-18)
(0.507225 -1.69578e-15 -2.61962e-16)
(0.507225 -2.71724e-16 -8.24574e-18)
(0.514732 -1.68527e-15 -2.53488e-16)
(0.514732 -2.76145e-16 -8.50769e-18)
(0.522177 -1.67515e-15 -2.45151e-16)
(0.522177 -2.80378e-16 -8.92829e-18)
(0.529556 -1.66677e-15 -2.37171e-16)
(0.529556 -2.84193e-16 -9.14264e-18)
(0.53687 -1.65868e-15 -2.29256e-16)
(0.53687 -2.87063e-16 -9.32334e-18)
(0.544115 -1.65116e-15 -2.21349e-16)
(0.544115 -2.88967e-16 -9.46185e-18)
(0.551292 -1.64345e-15 -2.13368e-16)
(0.551292 -2.90784e-16 -9.64211e-18)
(0.558399 -1.63527e-15 -2.05672e-16)
(0.558399 -2.93886e-16 -9.82197e-18)
(0.565436 -1.62777e-15 -2.01687e-16)
(0.565436 -2.96403e-16 -1.00783e-17)
(0.572402 -1.61846e-15 -1.97967e-16)
(0.572402 -2.98601e-16 -1.03496e-17)
(0.579297 -1.60958e-15 -1.94492e-16)
(0.579297 -3.02332e-16 -1.0504e-17)
(0.586122 -1.60127e-15 -1.90744e-16)
(0.586122 -3.04293e-16 -1.07241e-17)
(0.592877 -1.59297e-15 -1.8768e-16)
(0.592877 -3.05772e-16 -1.10414e-17)
(0.599561 -1.58546e-15 -1.8489e-16)
(0.599561 -3.08361e-16 -1.15595e-17)
(0.606176 -1.57675e-15 -1.82804e-16)
(0.606176 -3.1042e-16 -1.21045e-17)
(0.612721 -1.56773e-15 -1.80787e-16)
(0.612721 -3.17186e-16 -1.2664e-17)
(0.619198 -1.55788e-15 -1.79274e-16)
(0.619198 -3.17412e-16 -1.31849e-17)
(0.625608 -1.54344e-15 -1.77996e-16)
(0.625608 -3.22412e-16 -1.3547e-17)
(0.631951 -1.53027e-15 -1.78208e-16)
(0.631951 -3.2636e-16 -1.37558e-17)
(0.638227 -1.52533e-15 -1.79048e-16)
(0.638227 -3.28468e-16 -1.40087e-17)
(0.644439 -1.52583e-15 -1.80168e-16)
(0.644439 -3.24746e-16 -1.37805e-17)
(0.650587 -1.52449e-15 -1.80347e-16)
(0.650587 -3.22957e-16 -1.33553e-17)
(0.656672 -1.51945e-15 -1.79997e-16)
(0.656672 -3.24519e-16 -1.25046e-17)
(0.662695 -1.51518e-15 -1.78931e-16)
(0.662695 -3.24329e-16 -1.28933e-17)
(0.668657 -1.512e-15 -1.78852e-16)
(0.668657 -3.24399e-16 -1.30862e-17)
(0.67456 -1.50667e-15 -1.77883e-16)
(0.67456 -3.26437e-16 -1.22983e-17)
(0.680404 -1.49949e-15 -1.76664e-16)
(0.680404 -3.30788e-16 -1.16303e-17)
(0.68619 -1.48864e-15 -1.74426e-16)
(0.68619 -3.34376e-16 -1.21388e-17)
(0.69192 -1.47896e-15 -1.73447e-16)
(0.69192 -3.37463e-16 -1.24815e-17)
(0.697595 -1.4726e-15 -1.72707e-16)
(0.697595 -3.42271e-16 -1.19198e-17)
(0.703216 -1.46568e-15 -1.71064e-16)
(0.703216 -3.47322e-16 -1.18809e-17)
(0.708783 -1.46351e-15 -1.68897e-16)
(0.708783 -3.54417e-16 -1.16438e-17)
(0.714299 -1.45884e-15 -1.65991e-16)
(0.714299 -3.60044e-16 -1.16839e-17)
(0.719764 -1.44974e-15 -1.63184e-16)
(0.719764 -3.68225e-16 -1.16431e-17)
(0.725179 -1.44089e-15 -1.60404e-16)
(0.725179 -3.75925e-16 -1.16433e-17)
(0.730546 -1.43355e-15 -1.5731e-16)
(0.730546 -3.83188e-16 -1.16871e-17)
(0.735865 -1.42455e-15 -1.54611e-16)
(0.735865 -3.96674e-16 -1.16463e-17)
(0.741137 -1.42461e-15 -1.5016e-16)
(0.741137 -4.04198e-16 -1.19128e-17)
(0.746364 -1.41289e-15 -1.45557e-16)
(0.746364 -4.12503e-16 -1.24051e-17)
(0.751546 -1.39983e-15 -1.4026e-16)
(0.751546 -4.24305e-16 -1.2186e-17)
(0.756684 -1.38456e-15 -1.35708e-16)
(0.756684 -4.37475e-16 -1.21385e-17)
(0.761779 -1.37187e-15 -1.30839e-16)
(0.761779 -4.46293e-16 -1.29259e-17)
(0.766833 -1.3625e-15 -1.27231e-16)
(0.766833 -4.54584e-16 -1.44554e-17)
(0.771846 -1.34789e-15 -1.27023e-16)
(0.771846 -4.70231e-16 -1.42865e-17)
(0.77682 -1.33435e-15 -1.27378e-16)
(0.77682 -4.82796e-16 -1.41167e-17)
(0.781754 -1.31934e-15 -1.26367e-16)
(0.781754 -4.94395e-16 -1.48898e-17)
(0.786649 -1.30259e-15 -1.25524e-16)
(0.786649 -5.01955e-16 -1.36253e-17)
(0.791508 -1.28888e-15 -1.2346e-16)
(0.791508 -5.17361e-16 -1.3402e-17)
(0.796329 -1.27686e-15 -1.21339e-16)
(0.796329 -5.28158e-16 -1.44438e-17)
(0.801115 -1.26795e-15 -1.19102e-16)
(0.801115 -5.31943e-16 -1.69266e-17)
(0.805866 -1.25695e-15 -1.18953e-16)
(0.805866 -5.43545e-16 -1.70673e-17)
(0.810583 -1.24942e-15 -1.19447e-16)
(0.810583 -5.49314e-16 -1.65238e-17)
(0.815266 -1.24228e-15 -1.20884e-16)
(0.815266 -5.53974e-16 -1.69316e-17)
(0.819916 -1.23751e-15 -1.22663e-16)
(0.819916 -5.55402e-16 -1.84506e-17)
(0.824535 -1.2299e-15 -1.24745e-16)
(0.824535 -5.60308e-16 -1.96653e-17)
(0.829121 -1.22329e-15 -1.26969e-16)
(0.829121 -5.65054e-16 -1.91523e-17)
(0.833677 -1.21457e-15 -1.29107e-16)
(0.833677 -5.66462e-16 -1.86019e-17)
(0.838203 -1.20155e-15 -1.31415e-16)
(0.838203 -5.73837e-16 -1.84918e-17)
(0.842699 -1.19082e-15 -1.33788e-16)
(0.842699 -5.82635e-16 -1.86778e-17)
(0.847166 -1.18638e-15 -1.3494e-16)
(0.847166 -5.89581e-16 -1.93336e-17)
(0.851604 -1.18056e-15 -1.36605e-16)
(0.851604 -5.98208e-16 -1.8337e-17)
(0.856015 -1.17967e-15 -1.36437e-16)
(0.856015 -6.06483e-16 -1.94917e-17)
(0.860398 -1.18256e-15 -1.37277e-16)
(0.860398 -6.07281e-16 -2.08025e-17)
(0.864755 -1.18046e-15 -1.36002e-16)
(0.864755 -6.11363e-16 -2.25931e-17)
(0.869086 -1.17186e-15 -1.34388e-16)
(0.869086 -6.13365e-16 -2.40502e-17)
(0.87339 -1.16703e-15 -1.32571e-16)
(0.87339 -6.18031e-16 -1.91431e-17)
(0.877669 -1.15864e-15 -1.28159e-16)
(0.877669 -6.22393e-16 -1.51673e-17)
(0.881924 -1.14497e-15 -1.24295e-16)
(0.881924 -6.18753e-16 -1.41153e-17)
(0.886154 -1.13541e-15 -1.20511e-16)
(0.886154 -6.28887e-16 -1.01947e-17)
(0.89036 -1.12007e-15 -1.16306e-16)
(0.89036 -6.37619e-16 -1.22816e-17)
(0.894542 -1.11124e-15 -1.15291e-16)
(0.894542 -6.3937e-16 -1.50186e-17)
(0.898702 -1.105e-15 -1.12867e-16)
(0.898702 -6.37499e-16 -1.90277e-17)
(0.902838 -1.09731e-15 -1.1375e-16)
(0.902838 -6.40839e-16 -2.26348e-17)
(0.906952 -1.09099e-15 -1.1435e-16)
(0.906952 -6.49257e-16 -2.46955e-17)
(0.911044 -1.0816e-15 -1.16633e-16)
(0.911044 -6.51248e-16 -2.86072e-17)
(0.915114 -1.07298e-15 -1.16873e-16)
(0.915114 -6.50026e-16 -3.41738e-17)
(0.919163 -1.06116e-15 -1.16374e-16)
(0.919163 -6.52641e-16 -3.71318e-17)
(0.92319 -1.05089e-15 -1.17648e-16)
(0.92319 -6.57481e-16 -4.17952e-17)
(0.927197 -1.03968e-15 -1.18954e-16)
(0.927197 -6.60415e-16 -4.61278e-17)
(0.931183 -1.01745e-15 -1.2032e-16)
(0.931183 -6.58606e-16 -4.94506e-17)
(0.935148 -1.00684e-15 -1.23532e-16)
(0.935148 -6.57213e-16 -5.17793e-17)
(0.939094 -1.00807e-15 -1.22124e-16)
(0.939094 -6.5007e-16 -5.38602e-17)
(0.943019 -9.92181e-16 -1.19424e-16)
(0.943019 -6.42571e-16 -5.69679e-17)
(0.946925 -9.76688e-16 -1.17316e-16)
(0.946925 -6.42311e-16 -5.86541e-17)
(0.950812 -9.61116e-16 -1.14955e-16)
(0.950812 -6.41832e-16 -6.10146e-17)
(0.954679 -9.46362e-16 -1.11834e-16)
(0.954679 -6.2799e-16 -6.2947e-17)
(0.958527 -9.42809e-16 -1.1062e-16)
(0.958527 -6.26875e-16 -6.52119e-17)
(0.962355 -9.32442e-16 -1.07868e-16)
(0.962355 -6.30746e-16 -7.12465e-17)
(0.966165 -9.04779e-16 -1.02191e-16)
(0.966165 -6.24242e-16 -7.75467e-17)
(0.969957 -8.76967e-16 -1.01773e-16)
(0.969957 -6.23425e-16 -8.65883e-17)
(0.973729 -8.52021e-16 -1.03956e-16)
(0.973729 -6.33233e-16 -9.19853e-17)
(0.977483 -8.26847e-16 -1.07966e-16)
(0.977483 -6.37194e-16 -8.85447e-17)
(0.981218 -8.1525e-16 -1.09408e-16)
(0.981218 -6.17693e-16 -9.77322e-17)
(0.984935 -8.04994e-16 -1.0656e-16)
(0.984935 -6.16916e-16 -1.0942e-16)
(0.988633 -7.92738e-16 -1.12301e-16)
(0.988633 -6.27163e-16 -1.1195e-16)
(0.992313 -7.82156e-16 -1.12113e-16)
(0.992313 -6.24194e-16 -1.06867e-16)
(0.995975 -7.65546e-16 -1.1052e-16)
(0.995975 -6.06486e-16 -1.08064e-16)
(0.999617 -7.54848e-16 -1.08966e-16)
(0.999617 -5.96151e-16 -1.1184e-16)
(1.00324 -7.39038e-16 -1.03531e-16)
(1.00324 -6.29846e-16 -1.14902e-16)
(1.00685 -7.26435e-16 -9.74628e-17)
(1.00685 -6.50481e-16 -1.12692e-16)
(1.01043 -7.12245e-16 -9.438e-17)
(1.01043 -6.45281e-16 -1.07829e-16)
(1.014 -7.05084e-16 -9.44676e-17)
(1.014 -6.56355e-16 -1.08573e-16)
(1.01755 -7.10507e-16 -8.74859e-17)
(1.01755 -6.71016e-16 -1.10151e-16)
(1.02108 -6.92728e-16 -7.3694e-17)
(1.02108 -6.58303e-16 -1.1484e-16)
(1.02459 -6.76443e-16 -7.20241e-17)
(1.02459 -6.65083e-16 -1.18967e-16)
(1.02808 -6.95965e-16 -8.66133e-17)
(1.02808 -6.95579e-16 -1.15012e-16)
(1.03155 -6.91726e-16 -8.66197e-17)
(1.03155 -6.86118e-16 -1.06711e-16)
(1.035 -6.85712e-16 -8.75096e-17)
(1.035 -6.69561e-16 -9.95956e-17)
(1.03843 -6.77079e-16 -9.17284e-17)
(1.03843 -6.51556e-16 -9.05818e-17)
(1.04184 -6.69878e-16 -9.43769e-17)
(1.04184 -6.3249e-16 -7.13655e-17)
(1.04523 -6.53441e-16 -9.18817e-17)
(1.04523 -6.14624e-16 -6.98154e-17)
(1.0486 -6.28464e-16 -9.48593e-17)
(1.0486 -6.25558e-16 -6.91564e-17)
(1.05195 -6.08994e-16 -1.06879e-16)
(1.05195 -5.96535e-16 -6.4372e-17)
(1.05527 -5.83658e-16 -9.87634e-17)
(1.05527 -5.7447e-16 -6.4807e-17)
(1.05857 -5.6711e-16 -1.01931e-16)
(1.05857 -6.05877e-16 -6.62099e-17)
(1.06185 -5.50553e-16 -1.10088e-16)
(1.06185 -5.89011e-16 -6.05154e-17)
(1.0651 -5.46324e-16 -1.11421e-16)
(1.0651 -5.52265e-16 -4.46674e-17)
(1.06833 -5.44165e-16 -1.06827e-16)
(1.06833 -5.32394e-16 -4.44455e-17)
(1.07153 -5.22966e-16 -1.00278e-16)
(1.07153 -5.05839e-16 -4.77517e-17)
(1.07471 -5.03637e-16 -1.13882e-16)
(1.07471 -5.20489e-16 -4.68848e-17)
(1.07785 -5.24381e-16 -1.25826e-16)
(1.07785 -5.36733e-16 -4.62121e-17)
(1.08098 -5.71205e-16 -1.26408e-16)
(1.08098 -5.12371e-16 -5.96545e-17)
(1.08407 -6.08047e-16 -1.09243e-16)
(1.08407 -5.08531e-16 -1.06813e-16)
(1.08713 -5.65156e-16 -1.22186e-16)
(1.08713 -5.4403e-16 -1.33061e-16)
(1.09017 -5.75184e-16 -1.51494e-16)
(1.09017 -5.00603e-16 -1.3513e-16)
(1.09317 -5.7869e-16 -1.46007e-16)
(1.09317 -5.32076e-16 -1.41712e-16)
(1.09614 -5.33893e-16 -1.53119e-16)
(1.09614 -5.59045e-16 -1.47608e-16)
(1.09907 -5.22974e-16 -1.80141e-16)
(1.09907 -5.64611e-16 -1.36777e-16)
(1.10197 -5.30677e-16 -1.64884e-16)
(1.10197 -5.51514e-16 -1.1711e-16)
(1.10483 -4.95403e-16 -1.75033e-16)
(1.10483 -5.2906e-16 -1.2813e-16)
(1.10765 -4.89584e-16 -1.74405e-16)
(1.10765 -5.07556e-16 -1.2617e-16)
(1.11043 -4.92931e-16 -1.78739e-16)
(1.11043 -5.0678e-16 -1.14207e-16)
(1.11317 -4.99652e-16 -1.64624e-16)
(1.11317 -4.98843e-16 -8.87463e-17)
(1.11586 -5.18186e-16 -1.43488e-16)
(1.11586 -4.94043e-16 -9.04256e-17)
(1.11851 -4.99602e-16 -1.31397e-16)
(1.11851 -5.01425e-16 -1.02772e-16)
(1.1211 -4.79464e-16 -1.27145e-16)
(1.1211 -4.60202e-16 -9.01939e-17)
(1.12365 -4.92277e-16 -1.19e-16)
(1.12365 -5.14688e-16 -9.67441e-17)
(1.12614 -4.89733e-16 -1.10844e-16)
(1.12614 -5.3007e-16 -1.06475e-16)
(1.12857 -5.01601e-16 -1.29023e-16)
(1.12857 -4.67237e-16 -1.14384e-16)
(1.13094 -5.08879e-16 -1.30951e-16)
(1.13094 -4.82716e-16 -1.29519e-16)
(1.13324 -4.96358e-16 -1.47272e-16)
(1.13324 -4.92692e-16 -1.33141e-16)
(1.13548 -4.99752e-16 -1.47639e-16)
(1.13548 -4.70969e-16 -1.33085e-16)
(1.13764 -5.10124e-16 -1.19388e-16)
(1.13764 -4.53071e-16 -1.31816e-16)
(1.13972 -5.26061e-16 -1.07008e-16)
(1.13972 -4.91718e-16 -1.43689e-16)
(1.14173 -5.28196e-16 -9.05527e-17)
(1.14173 -5.51586e-16 -1.20264e-16)
(1.14364 -5.28131e-16 -5.28673e-17)
(1.14364 -5.45762e-16 -8.55567e-17)
(1.14546 -5.02192e-16 -4.07273e-17)
(1.14546 -5.25231e-16 -7.04767e-17)
(1.14717 -5.0696e-16 -8.36311e-17)
(1.14717 -5.5572e-16 -8.94358e-17)
(1.14878 -5.20524e-16 -7.25609e-17)
(1.14878 -5.62413e-16 -8.67117e-17)
(1.15027 -5.32561e-16 -6.66188e-17)
(1.15027 -5.7719e-16 -1.20741e-16)
(1.15164 -5.1428e-16 -3.76801e-17)
(1.15164 -5.49009e-16 -1.51216e-16)
(1.15287 -5.05999e-16 -1.10284e-16)
(1.15287 -4.73454e-16 -9.07399e-17)
(1.15396 -5.18385e-16 -6.52121e-17)
(1.15396 -4.33551e-16 -5.25241e-17)
(1.1549 -4.8707e-16 -6.60352e-17)
(1.1549 -4.39987e-16 -2.08783e-17)
(1.15567 -4.49449e-16 -8.31363e-17)
(1.15567 -4.09746e-16 -1.01047e-16)
(1.15627 -3.87266e-16 -3.13605e-17)
(1.15627 -3.91436e-16 -9.96721e-17)
(1.15668 -3.57649e-16 -1.09644e-16)
(1.15668 -3.78638e-16 -7.02999e-17)
(1.15689 -3.337e-16 -2.24986e-17)
(1.15689 -3.33336e-16 -6.95597e-17)
(0.00120171 -9.08597e-20 2.56525e-18)
(0.00120171 -2.24251e-20 -5.33653e-19)
(0.00362711 -3.62284e-19 6.21444e-18)
(0.00362711 -4.34952e-20 -6.40157e-18)
(0.00609732 -9.04691e-19 3.67356e-18)
(0.00609732 -1.3445e-19 -6.64519e-18)
(0.00861314 -1.44287e-18 4.54505e-18)
(0.00861314 -2.17523e-19 -6.90002e-18)
(0.0111754 -2.00159e-18 5.18043e-18)
(0.0111754 -3.01255e-19 -7.16659e-18)
(0.0137849 -2.57967e-18 5.34131e-18)
(0.0137849 -3.92746e-19 -7.44563e-18)
(0.0164426 -3.17163e-18 5.41188e-18)
(0.0164426 -4.8462e-19 -7.73802e-18)
(0.0191493 -3.77474e-18 5.48506e-18)
(0.0191493 -5.80894e-19 -8.04399e-18)
(0.0219059 -4.38564e-18 5.54992e-18)
(0.0219059 -6.85927e-19 -8.36441e-18)
(0.0247133 -5.01147e-18 5.60529e-18)
(0.0247133 -7.97298e-19 -8.70082e-18)
(0.0275724 -5.66051e-18 5.65523e-18)
(0.0275724 -9.3195e-19 -9.0525e-18)
(0.0304841 -6.32132e-18 5.70389e-18)
(0.0304841 -1.06886e-18 -9.42099e-18)
(0.0334494 -7.0309e-18 5.75322e-18)
(0.0334494 -1.18583e-18 -9.80745e-18)
(0.0364693 -7.77478e-18 5.80337e-18)
(0.0364693 -1.32181e-18 -1.02124e-17)
(0.0395448 -8.50426e-18 5.85633e-18)
(0.0395448 -1.47125e-18 -1.06373e-17)
(0.0426767 -9.2363e-18 5.9134e-18)
(0.0426767 -1.6115e-18 -1.10822e-17)
(0.0458662 -9.98767e-18 5.97413e-18)
(0.0458662 -1.81418e-18 -1.15476e-17)
(0.0491144 -1.07559e-17 6.03803e-18)
(0.0491144 -2.03924e-18 -1.20339e-17)
(0.0524221 -1.15765e-17 6.10846e-18)
(0.0524221 -2.24142e-18 -1.25433e-17)
(0.0557906 -1.24335e-17 6.18491e-18)
(0.0557906 -2.46303e-18 -1.30772e-17)
(0.0592209 -1.33166e-17 6.26634e-18)
(0.0592209 -2.64702e-18 -1.36352e-17)
(0.062714 -1.42551e-17 6.35501e-18)
(0.062714 -2.82496e-18 -1.42204e-17)
(0.0662712 -1.52118e-17 6.45059e-18)
(0.0662712 -3.05985e-18 -1.4832e-17)
(0.0698936 -1.61958e-17 6.55284e-18)
(0.0698936 -3.25363e-18 -1.54747e-17)
(0.0735823 -1.72209e-17 6.65981e-18)
(0.0735823 -3.45764e-18 -1.6145e-17)
(0.0773385 -1.8289e-17 6.77651e-18)
(0.0773385 -3.74884e-18 -1.68449e-17)
(0.0811634 -1.9321e-17 6.9033e-18)
(0.0811634 -4.03384e-18 -1.75817e-17)
(0.0850582 -2.03374e-17 7.0345e-18)
(0.0850582 -4.35471e-18 -1.83503e-17)
(0.0890242 -2.14091e-17 7.17566e-18)
(0.0890242 -4.69393e-18 -1.91527e-17)
(0.0930625 -2.24744e-17 7.33109e-18)
(0.0930625 -5.03818e-18 -1.99918e-17)
(0.0971745 -2.36086e-17 7.50166e-18)
(0.0971745 -5.36278e-18 -2.0871e-17)
(0.101361 -2.48704e-17 7.67992e-18)
(0.101361 -5.61692e-18 -2.17903e-17)
(0.105625 -2.61044e-17 7.86607e-18)
(0.105625 -6.03717e-18 -2.27454e-17)
(0.109965 -2.73108e-17 8.06927e-18)
(0.109965 -6.5416e-18 -2.37503e-17)
(0.114385 -2.86335e-17 8.28112e-18)
(0.114385 -6.95246e-18 -2.47933e-17)
(0.118885 -2.99577e-17 8.51292e-18)
(0.118885 -7.53455e-18 -2.58844e-17)
(0.123466 -3.11617e-17 8.76229e-18)
(0.123466 -8.0868e-18 -2.70234e-17)
(0.12813 -3.25007e-17 9.03666e-18)
(0.12813 -8.46051e-18 -2.82184e-17)
(0.132878 -3.39777e-17 9.32717e-18)
(0.132878 -8.89588e-18 -2.94783e-17)
(0.137712 -3.54146e-17 9.61845e-18)
(0.137712 -9.24596e-18 -3.07844e-17)
(0.142633 -3.68185e-17 9.93063e-18)
(0.142633 -9.56681e-18 -3.21425e-17)
(0.147642 -3.82138e-17 1.02764e-17)
(0.147642 -1.0279e-17 -3.35708e-17)
(0.15274 -3.96617e-17 1.06371e-17)
(0.15274 -1.09673e-17 -3.50554e-17)
(0.15793 -4.12035e-17 1.10154e-17)
(0.15793 -1.15733e-17 -3.66018e-17)
(0.163211 -4.29767e-17 1.14203e-17)
(0.163211 -1.20791e-17 -3.82041e-17)
(0.168586 -4.48414e-17 1.18557e-17)
(0.168586 -1.24288e-17 -3.98899e-17)
(0.174055 -4.66584e-17 1.23059e-17)
(0.174055 -1.32469e-17 -4.16461e-17)
(0.17962 -4.83168e-17 1.27801e-17)
(0.17962 -1.40746e-17 -4.34505e-17)
(0.185281 -4.9999e-17 1.33068e-17)
(0.185281 -1.47784e-17 -4.53297e-17)
(0.19104 -5.19167e-17 1.38683e-17)
(0.19104 -1.56141e-17 -4.73168e-17)
(0.196898 -5.37292e-17 1.44232e-17)
(0.196898 -1.65143e-17 -4.93544e-17)
(0.202855 -5.54649e-17 1.50025e-17)
(0.202855 -1.73744e-17 -5.14517e-17)
(0.208911 -5.75006e-17 1.56404e-17)
(0.208911 -1.84991e-17 -5.36481e-17)
(0.215068 -5.96454e-17 1.62713e-17)
(0.215068 -1.97173e-17 -5.59125e-17)
(0.221326 -6.17428e-17 1.69381e-17)
(0.221326 -2.06021e-17 -5.82389e-17)
(0.227684 -6.38461e-17 1.76607e-17)
(0.227684 -2.18577e-17 -6.06446e-17)
(0.234143 -6.57727e-17 1.84036e-17)
(0.234143 -2.30367e-17 -6.31164e-17)
(0.240703 -6.77814e-17 1.91998e-17)
(0.240703 -2.40168e-17 -6.56805e-17)
(0.247362 -7.00071e-17 2.00333e-17)
(0.247362 -2.53255e-17 -6.83343e-17)
(0.25412 -7.22039e-17 2.09072e-17)
(0.25412 -2.68241e-17 -7.10431e-17)
(0.260975 -7.41037e-17 2.18372e-17)
(0.260975 -2.84921e-17 -7.37801e-17)
(0.267927 -7.6126e-17 2.287e-17)
(0.267927 -2.96298e-17 -7.65916e-17)
(0.274972 -7.82379e-17 2.39688e-17)
(0.274972 -3.03716e-17 -7.95074e-17)
(0.282109 -8.04799e-17 2.51377e-17)
(0.282109 -3.13305e-17 -8.25131e-17)
(0.289336 -8.2657e-17 2.63545e-17)
(0.289336 -3.27838e-17 -8.55954e-17)
(0.296649 -8.49973e-17 2.76438e-17)
(0.296649 -3.43655e-17 -8.86751e-17)
(0.304044 -8.7892e-17 2.90305e-17)
(0.304044 -3.60337e-17 -9.18241e-17)
(0.311518 -9.07468e-17 3.04491e-17)
(0.311518 -3.81813e-17 -9.50353e-17)
(0.319066 -9.33803e-17 3.18462e-17)
(0.319066 -4.06496e-17 -9.82265e-17)
(0.326684 -9.60945e-17 3.32884e-17)
(0.326684 -4.2313e-17 -1.01353e-16)
(0.334366 -9.84928e-17 3.48815e-17)
(0.334366 -4.40882e-17 -1.04484e-16)
(0.342107 -1.00657e-16 3.65585e-17)
(0.342107 -4.69227e-17 -1.07684e-16)
(0.349902 -1.03262e-16 3.82141e-17)
(0.349902 -4.9108e-17 -1.10932e-16)
(0.357744 -1.06424e-16 3.99054e-17)
(0.357744 -5.17982e-17 -1.14134e-16)
(0.365627 -1.09951e-16 4.15526e-17)
(0.365627 -5.36106e-17 -1.17295e-16)
(0.373544 -1.1273e-16 4.31861e-17)
(0.373544 -5.52358e-17 -1.20236e-16)
(0.381489 -1.15311e-16 4.50387e-17)
(0.381489 -5.67915e-17 -1.23124e-16)
(0.389455 -1.18863e-16 4.69627e-17)
(0.389455 -5.94575e-17 -1.26169e-16)
(0.397435 -1.22145e-16 4.87716e-17)
(0.397435 -6.28389e-17 -1.29144e-16)
(0.405422 -1.24815e-16 5.0572e-17)
(0.405422 -6.44e-17 -1.31828e-16)
(0.413411 -1.27056e-16 5.2537e-17)
(0.413411 -6.73542e-17 -1.34409e-16)
(0.421393 -1.30129e-16 5.46873e-17)
(0.421393 -6.90961e-17 -1.37046e-16)
(0.429364 -1.34032e-16 5.67891e-17)
(0.429364 -7.11468e-17 -1.39722e-16)
(0.437317 -1.36692e-16 5.88104e-17)
(0.437317 -7.51833e-17 -1.42231e-16)
(0.445245 -1.38785e-16 6.07651e-17)
(0.445245 -7.76041e-17 -1.44474e-16)
(0.453145 -1.40294e-16 6.28812e-17)
(0.453145 -7.91348e-17 -1.46593e-16)
(0.461009 -1.41856e-16 6.52021e-17)
(0.461009 -8.22894e-17 -1.48857e-16)
(0.468834 -1.44563e-16 6.57375e-17)
(0.468834 -8.3903e-17 -1.50977e-16)
(0.476615 -1.47656e-16 6.46924e-17)
(0.476615 -8.44695e-17 -1.5297e-16)
(0.484349 -1.51177e-16 6.34108e-17)
(0.484349 -8.64579e-17 -1.54969e-16)
(0.49203 -1.55259e-16 6.20554e-17)
(0.49203 -8.91695e-17 -1.5676e-16)
(0.499656 -1.57255e-16 6.06858e-17)
(0.499656 -9.17797e-17 -1.5831e-16)
(0.507225 -1.58642e-16 5.9292e-17)
(0.507225 -9.679e-17 -1.56231e-16)
(0.514732 -1.62041e-16 5.79392e-17)
(0.514732 -1.02034e-16 -1.53e-16)
(0.522177 -1.64593e-16 5.64096e-17)
(0.522177 -1.02331e-16 -1.49561e-16)
(0.529556 -1.65296e-16 5.49756e-17)
(0.529556 -1.02812e-16 -1.45812e-16)
(0.53687 -1.6669e-16 5.35954e-17)
(0.53687 -1.06942e-16 -1.41997e-16)
(0.544115 -1.67994e-16 5.20918e-17)
(0.544115 -1.10524e-16 -1.381e-16)
(0.551292 -1.68822e-16 5.05555e-17)
(0.551292 -1.12704e-16 -1.34296e-16)
(0.558399 -1.6945e-16 4.8756e-17)
(0.558399 -1.17354e-16 -1.30382e-16)
(0.565436 -1.71321e-16 4.70693e-17)
(0.565436 -1.19576e-16 -1.26555e-16)
(0.572402 -1.74644e-16 4.54889e-17)
(0.572402 -1.20707e-16 -1.22751e-16)
(0.579297 -1.76861e-16 4.39112e-17)
(0.579297 -1.27137e-16 -1.18837e-16)
(0.586122 -1.78878e-16 4.20402e-17)
(0.586122 -1.30903e-16 -1.14869e-16)
(0.592877 -1.82008e-16 4.0318e-17)
(0.592877 -1.32241e-16 -1.10935e-16)
(0.599561 -1.85128e-16 3.85553e-17)
(0.599561 -1.36836e-16 -1.06959e-16)
(0.606176 -1.85957e-16 3.66295e-17)
(0.606176 -1.39207e-16 -1.02662e-16)
(0.612721 -1.87315e-16 3.46234e-17)
(0.612721 -1.41334e-16 -9.80614e-17)
(0.619198 -1.8985e-16 3.26773e-17)
(0.619198 -1.4317e-16 -9.33367e-17)
(0.625608 -1.8994e-16 3.08358e-17)
(0.625608 -1.45747e-16 -8.82426e-17)
(0.631951 -1.89374e-16 2.92235e-17)
(0.631951 -1.4921e-16 -8.27757e-17)
(0.638227 -1.89327e-16 2.791e-17)
(0.638227 -1.50068e-16 -7.71153e-17)
(0.644439 -1.86993e-16 2.6589e-17)
(0.644439 -1.51898e-16 -7.12304e-17)
(0.650587 -1.85983e-16 2.55792e-17)
(0.650587 -1.54506e-16 -6.55859e-17)
(0.656672 -1.89064e-16 2.45305e-17)
(0.656672 -1.54949e-16 -6.00706e-17)
(0.662695 -1.89442e-16 2.31526e-17)
(0.662695 -1.54244e-16 -5.46316e-17)
(0.668657 -1.88256e-16 2.19373e-17)
(0.668657 -1.53451e-16 -4.91608e-17)
(0.67456 -1.9246e-16 2.04875e-17)
(0.67456 -1.54773e-16 -4.38718e-17)
(0.680404 -1.97742e-16 1.83252e-17)
(0.680404 -1.55781e-16 -3.84084e-17)
(0.68619 -1.95768e-16 1.59297e-17)
(0.68619 -1.59065e-16 -3.30547e-17)
(0.69192 -1.93313e-16 1.42341e-17)
(0.69192 -1.61392e-16 -2.79117e-17)
(0.697595 -1.94757e-16 1.29068e-17)
(0.697595 -1.6004e-16 -2.3198e-17)
(0.703216 -1.92949e-16 1.10983e-17)
(0.703216 -1.58798e-16 -1.85179e-17)
(0.708783 -1.92052e-16 9.2982e-18)
(0.708783 -1.58239e-16 -1.35634e-17)
(0.714299 -1.91803e-16 7.57403e-18)
(0.714299 -1.56906e-16 -8.89638e-18)
(0.719764 -1.92112e-16 7.73644e-18)
(0.719764 -1.55595e-16 -4.10834e-18)
(0.725179 -1.94348e-16 8.58269e-18)
(0.725179 -1.56523e-16 3.73725e-19)
(0.730546 -1.97724e-16 9.57257e-18)
(0.730546 -1.54071e-16 4.30411e-18)
(0.735865 -1.98193e-16 8.70821e-18)
(0.735865 -1.52642e-16 7.80285e-18)
(0.741137 -1.93591e-16 8.34513e-18)
(0.741137 -1.53107e-16 1.1173e-17)
(0.746364 -1.91895e-16 9.31597e-18)
(0.746364 -1.54549e-16 1.48242e-17)
(0.751546 -1.92448e-16 9.11357e-18)
(0.751546 -1.54109e-16 1.77994e-17)
(0.756684 -1.94571e-16 8.55946e-18)
(0.756684 -1.53515e-16 2.04056e-17)
(0.761779 -1.95535e-16 7.82259e-18)
(0.761779 -1.56673e-16 2.25974e-17)
(0.766833 -1.9471e-16 7.89715e-18)
(0.766833 -1.57402e-16 2.48029e-17)
(0.771846 -1.95456e-16 8.97848e-18)
(0.771846 -1.56736e-16 2.68982e-17)
(0.77682 -1.9637e-16 9.14408e-18)
(0.77682 -1.56875e-16 2.83023e-17)
(0.781754 -1.93974e-16 7.08918e-18)
(0.781754 -1.58884e-16 2.89477e-17)
(0.786649 -1.92732e-16 7.85014e-18)
(0.786649 -1.62889e-16 2.88562e-17)
(0.791508 -1.99332e-16 9.84539e-18)
(0.791508 -1.69698e-16 2.75722e-17)
(0.796329 -2.01833e-16 1.25236e-17)
(0.796329 -1.68957e-16 2.59865e-17)
(0.801115 -1.98915e-16 1.42621e-17)
(0.801115 -1.66514e-16 2.3855e-17)
(0.805866 -1.96544e-16 1.1651e-17)
(0.805866 -1.70724e-16 2.32351e-17)
(0.810583 -1.94337e-16 1.01086e-17)
(0.810583 -1.67861e-16 2.33673e-17)
(0.815266 -1.93967e-16 8.58641e-18)
(0.815266 -1.65614e-16 2.40201e-17)
(0.819916 -1.94511e-16 6.53096e-18)
(0.819916 -1.67762e-16 2.49588e-17)
(0.824535 -2.02333e-16 7.65615e-18)
(0.824535 -1.69446e-16 2.56391e-17)
(0.829121 -2.08685e-16 5.24089e-18)
(0.829121 -1.73498e-16 2.55379e-17)
(0.833677 -2.08255e-16 3.93327e-18)