/*--------------------------------*- C++ -*----------------------------------*\
| =========                 |                                                 |
| \\      /  F ield         | OpenFOAM: The Open Source CFD Toolbox           |
|  \\    /   O peration     | Version:  2106                                  |
|   \\  /    A nd           | Website:  www.openfoam.com                      |
|    \\/     M anipulation  |                                                 |
\*---------------------------------------------------------------------------*/
FoamFile
{
    version     2.0;
    format      ascii;
    arch        "LSB;label=32;scalar=64";
    class       volVectorField;
    location    "10070";
    object      grad(T);
}
// * * * * * * * * * * * * * * * * * * * * * * * * * * * * * * * * * * * * * //

dimensions      [0 -1 0 1 0 0 0];

internalField   nonuniform List<vector> 
2000
(
(0 127.821 0.23655)
(0 127.821 0.23655)
(0 127.821 0.714064)
(0 127.821 0.714064)
(-2.4961e-16 127.821 0.991015)
(2.20539e-16 127.821 0.991015)
(-9.52693e-17 127.82 1.00951)
(3.81077e-16 127.82 1.00951)
(0 127.82 1.02835)
(0 127.82 1.02835)
(0 127.82 1.04755)
(-9.25585e-16 127.82 1.04755)
(4.09625e-16 127.819 1.0671)
(1.20549e-15 127.819 1.0671)
(0 127.819 1.08701)
(2.98122e-15 127.819 1.08701)
(-4.45264e-16 127.818 1.1073)
(0 127.818 1.1073)
(0 127.818 1.12796)
(7.75033e-16 127.818 1.12796)
(7.60831e-16 127.817 1.14901)
(1.52166e-15 127.817 1.14901)
(6.71331e-16 127.816 1.17045)
(2.68532e-15 127.816 1.17045)
(0 127.815 1.19229)
(0 127.815 1.19229)
(-8.29161e-16 127.814 1.21453)
(0 127.814 1.21453)
(-2.32345e-15 127.813 1.23719)
(0 127.813 1.23719)
(2.38019e-15 127.812 1.26027)
(-2.58449e-15 127.812 1.26027)
(0 127.81 1.28378)
(1.36184e-15 127.81 1.28378)
(2.32576e-15 127.808 1.30773)
(4.65152e-15 127.808 1.30773)
(-1.25024e-15 127.807 1.33212)
(0 127.807 1.33212)
(1.33922e-15 127.804 1.35696)
(5.3569e-15 127.804 1.35696)
(-1.42987e-15 127.802 1.38227)
(1.1439e-14 127.802 1.38227)
(0 127.8 1.40804)
(6.08883e-15 127.8 1.40804)
(0 127.797 1.43429)
(6.46507e-15 127.797 1.43429)
(0 127.794 1.46102)
(6.84832e-15 127.794 1.46102)
(-1.80968e-15 127.79 1.48825)
(0 127.79 1.48825)
(0 127.786 1.51598)
(7.63641e-15 127.786 1.51598)
(2.53404e-16 127.781 1.54422)
(0 127.781 1.54422)
(-2.11354e-15 127.776 1.57298)
(0 127.776 1.57298)
(0 127.77 1.60227)
(-2.18157e-15 127.77 1.60227)
(-4.46726e-15 127.764 1.63208)
(-1.14442e-14 127.764 1.63208)
(2.4347e-15 127.756 1.66244)
(5.53408e-15 127.756 1.66244)
(0 127.747 1.69335)
(-4.12766e-15 127.747 1.69335)
(-2.65889e-15 127.737 1.72482)
(0 127.737 1.72482)
(-2.77413e-15 127.726 1.75685)
(0 127.726 1.75685)
(-7.80975e-15 127.713 1.78945)
(1.93758e-14 127.713 1.78945)
(0 127.698 1.82262)
(0 127.698 1.82262)
(6.89594e-15 127.68 1.85637)
(8.76839e-15 127.68 1.85637)
(-3.25691e-15 127.66 1.89071)
(1.30276e-14 127.66 1.89071)
(-7.00968e-15 127.637 1.92563)
(0 127.637 1.92563)
(7.11994e-15 127.611 1.96113)
(6.92785e-15 127.611 1.96113)
(-7.28604e-15 127.58 1.99723)
(1.10773e-14 127.58 1.99723)
(3.4307e-15 127.545 2.0339)
(0 127.545 2.0339)
(0 127.504 2.07116)
(3.36783e-15 127.504 2.07116)
(-4.05094e-15 127.457 2.10899)
(-2.2816e-14 127.457 2.10899)
(1.0683e-14 127.403 2.14739)
(1.02768e-14 127.403 2.14739)
(1.07077e-14 127.341 2.18634)
(-2.37143e-14 127.341 2.18634)
(-4.48178e-15 127.27 2.22582)
(1.79271e-14 127.27 2.22582)
(-6.14072e-15 127.188 2.26581)
(3.70454e-14 127.188 2.26581)
(4.78228e-15 127.095 2.3063)
(2.51573e-14 127.095 2.3063)
(-4.93663e-15 126.988 2.34724)
(-1.97465e-14 126.988 2.34724)
(0 126.866 2.38861)
(5.80929e-15 126.866 2.38861)
(-1.09565e-14 126.728 2.43037)
(0 126.728 2.43037)
(0 126.57 2.47245)
(5.59833e-15 126.57 2.47245)
(0 126.391 2.51482)
(-2.23288e-14 126.391 2.51482)
(3.55748e-16 126.188 2.5574)
(-1.07901e-14 126.188 2.5574)
(-5.92231e-15 125.959 2.60013)
(0 125.959 2.60013)
(-1.79534e-15 125.702 2.64292)
(2.43872e-14 125.702 2.64292)
(-6.27425e-15 125.412 2.68569)
(0 125.412 2.68569)
(-1.29094e-14 125.087 2.72833)
(-2.58187e-14 125.087 2.72833)
(1.64751e-14 124.725 2.77075)
(-3.63895e-14 124.725 2.77075)
(-9.65677e-15 124.32 2.81282)
(-9.65677e-15 124.32 2.81282)
(-1.40279e-14 123.871 2.85442)
(5.61115e-14 123.871 2.85442)
(2.09978e-15 123.374 2.89542)
(1.95192e-14 123.374 2.89542)
(0 122.825 2.93567)
(9.13556e-15 122.825 2.93567)
(-1.6568e-14 122.221 2.97505)
(3.03995e-14 122.221 2.97505)
(8.80382e-15 121.559 3.01338)
(-8.80382e-15 121.559 3.01338)
(-8.00494e-15 120.836 3.05053)
(-8.64249e-15 120.836 3.05053)
(0 120.049 3.08633)
(-8.48412e-15 120.049 3.08633)
(0 119.196 3.12064)
(3.36841e-14 119.196 3.12064)
(0 118.275 3.15331)
(0 118.275 3.15331)
(-8.84756e-15 117.284 3.18419)
(3.53902e-14 117.284 3.18419)
(0 116.222 3.21314)
(3.6258e-14 116.222 3.21314)
(-9.28371e-15 115.089 3.24005)
(-3.71348e-14 115.089 3.24005)
(0 113.885 3.26479)
(-3.80204e-14 113.885 3.26479)
(-1.9457e-14 112.61 3.28728)
(3.89141e-14 112.61 3.28728)
(-1.99077e-14 111.266 3.30743)
(0 111.266 3.30743)
(0 109.855 3.32517)
(4.07234e-14 109.855 3.32517)
(-1.04095e-14 108.38 3.34047)
(-5.5741e-14 108.38 3.34047)
(1.06395e-14 106.843 3.35329)
(0 106.843 3.35329)
(-1.63113e-14 105.248 3.36363)
(-1.63009e-14 105.248 3.36363)
(-2.22061e-14 103.6 3.37151)
(0 103.6 3.37151)
(0 101.903 3.37694)
(0 101.903 3.37694)
(3.7285e-14 100.162 3.38)
(-1.18276e-13 100.162 3.38)
(1.18046e-14 98.3819 3.38073)
(0 98.3819 3.38073)
(0 96.5682 3.37922)
(4.81574e-14 96.5682 3.37922)
(1.22743e-14 94.7263 3.37555)
(4.90974e-14 94.7263 3.37555)
(-1.30781e-14 92.8616 3.36983)
(2.38812e-14 92.8616 3.36983)
(-2.0449e-15 90.9794 3.36218)
(5.0977e-14 90.9794 3.36218)
(1.29789e-14 89.0851 3.35269)
(1.03831e-13 89.0851 3.35269)
(-1.32131e-14 87.1837 3.34151)
(0 87.1837 3.34151)
(-2.68934e-14 85.2802 3.32875)
(5.37868e-14 85.2802 3.32875)
(-1.36796e-14 83.379 3.31453)
(5.47186e-14 83.379 3.31453)
(0 81.4846 3.29899)
(-2.13729e-14 81.4846 3.29899)
(1.4143e-14 79.6011 3.28224)
(5.65721e-14 79.6011 3.28224)
(-6.22352e-15 77.7319 3.26441)
(7.80898e-14 77.7319 3.26441)
(-1.46024e-14 75.8807 3.24561)
(5.84095e-14 75.8807 3.24561)
(1.48303e-14 74.0503 3.22596)
(0 74.0503 3.22596)
(-1.5057e-14 72.2436 3.20556)
(4.07429e-14 72.2436 3.20556)
(1.52823e-14 70.4628 3.18452)
(0 70.4628 3.18452)
(-1.55063e-14 68.7101 3.16292)
(6.20252e-14 68.7101 3.16292)
(1.57288e-14 66.9872 3.14087)
(4.44819e-14 66.9872 3.14087)
(0 65.2957 3.11844)
(6.37996e-14 65.2957 3.11844)
(1.77641e-14 63.6368 3.09571)
(-8.24418e-14 63.6368 3.09571)
(0 62.0115 3.07276)
(6.55497e-14 62.0115 3.07276)
(-1.66039e-14 60.4206 3.04965)
(0 60.4206 3.04965)
(-1.68187e-14 58.8647 3.02644)
(6.72747e-14 58.8647 3.02644)
(1.64973e-14 57.3442 3.00319)
(0 57.3442 3.00319)
(1.6195e-14 55.8593 2.97994)
(-1.6195e-14 55.8593 2.97994)
(1.74535e-14 54.4101 2.95675)
(6.98141e-14 54.4101 2.95675)
(2.05497e-15 52.9966 2.93365)
(5.50406e-14 52.9966 2.93365)
(0 51.6185 2.91068)
(7.14746e-14 51.6185 2.91068)
(-3.61476e-14 50.2757 2.88787)
(7.22951e-14 50.2757 2.88787)
(1.82773e-14 48.9678 2.86525)
(7.31092e-14 48.9678 2.86525)
(0 47.6943 2.84285)
(-7.39169e-14 47.6943 2.84285)
(2.84568e-14 46.4547 2.82069)
(-2.84568e-14 46.4547 2.82069)
(-3.77567e-14 45.2486 2.79878)
(0 45.2486 2.79878)
(-1.90755e-14 44.0753 2.77715)
(-2.74235e-14 44.0753 2.77715)
(-2.69209e-14 42.9341 2.7558)
(-7.70848e-14 42.9341 2.7558)
(3.89307e-14 41.8245 2.73476)
(0 41.8245 2.73476)
(1.33726e-14 40.7456 2.71403)
(7.86319e-14 40.7456 2.71403)
(-1.98491e-14 39.6969 2.69362)
(7.93966e-14 39.6969 2.69362)
(4.00777e-14 38.6776 2.67353)
(-2.50013e-14 38.6776 2.67353)
(2.02271e-14 37.687 2.65377)
(8.09084e-14 37.687 2.65377)
(-2.04139e-14 36.7243 2.63435)
(-2.40934e-14 36.7243 2.63435)
(0 35.7887 2.61526)
(1.64795e-13 35.7887 2.61526)
(-4.40019e-14 34.8797 2.59651)
(0 34.8797 2.59651)
(0 33.9964 2.5781)
(1.67729e-13 33.9964 2.5781)
(-2.11476e-14 33.1381 2.56003)
(0 33.1381 2.56003)
(0 32.3042 2.5423)
(1.07276e-13 32.3042 2.5423)
(2.15065e-14 31.4939 2.5249)
(1.72052e-13 31.4939 2.5249)
(-2.16841e-14 30.7065 2.50783)
(8.67362e-14 30.7065 2.50783)
(1.08063e-15 29.9413 2.4911)
(6.66618e-14 29.9413 2.4911)
(-4.40711e-14 29.1977 2.47469)
(4.73441e-14 29.1977 2.47469)
(-2.00252e-14 28.4751 2.4586)
(1.77676e-13 28.4751 2.4586)
(0 27.7728 2.44283)
(5.02126e-14 27.7728 2.44283)
(-2.25539e-14 27.0902 2.42738)
(-3.8596e-14 27.0902 2.42738)
(2.27244e-14 26.4267 2.41223)
(0 26.4267 2.41223)
(0 25.7817 2.39739)
(-3.71944e-14 25.7817 2.39739)
(1.34506e-14 25.1546 2.38285)
(-3.65128e-14 25.1546 2.38285)
(1.26142e-14 24.5449 2.3686)
(-1.28762e-13 24.5449 2.3686)
(-2.33959e-14 23.9521 2.35464)
(1.87167e-13 23.9521 2.35464)
(0 23.3755 2.34096)
(9.42446e-14 23.3755 2.34096)
(-2.37255e-14 22.8148 2.32755)
(9.49018e-14 22.8148 2.32755)
(0 22.2694 2.31442)
(6.22673e-14 22.2694 2.31442)
(-5.6729e-14 21.7389 2.30155)
(1.28882e-13 21.7389 2.30155)
(0 21.2227 2.28894)
(9.68505e-14 21.2227 2.28894)
(-2.43732e-14 20.7204 2.27658)
(0 20.7204 2.27658)
(-2.45328e-14 20.2317 2.26446)
(0 20.2317 2.26446)
(-2.46916e-14 19.756 2.25259)
(0 19.756 2.25259)
(-4.94198e-15 19.293 2.24095)
(-9.9398e-14 19.293 2.24095)
(0 18.8423 2.22953)
(-2.92456e-14 18.8423 2.22953)
(0 18.4035 2.21834)
(0 18.4035 2.21834)
(5.35019e-14 17.9762 2.20736)
(0 17.9762 2.20736)
(-2.5473e-14 17.56 2.19659)
(1.01892e-13 17.56 2.19659)
(-2.56268e-14 17.1547 2.18602)
(1.02507e-13 17.1547 2.18602)
(8.82443e-16 16.7599 2.17564)
(-2.66624e-14 16.7599 2.17564)
(0 16.3752 2.16546)
(1.03729e-13 16.3752 2.16546)
(-2.6084e-14 16.0004 2.15546)
(-1.3003e-13 16.0004 2.15546)
(2.62349e-14 15.6351 2.14564)
(1.0494e-13 15.6351 2.14564)
(5.11463e-14 15.2791 2.13599)
(1.05541e-13 15.2791 2.13599)
(2.65347e-14 14.9321 2.1265)
(0 14.9321 2.1265)
(0 14.5937 2.11717)
(1.06734e-13 14.5937 2.11717)
(-2.68317e-14 14.2638 2.10799)
(0 14.2638 2.10799)
(0 13.9421 2.09896)
(1.07917e-13 13.9421 2.09896)
(-4.55202e-15 13.6283 2.09007)
(-2.25741e-14 13.6283 2.09007)
(0 13.3222 2.08131)
(4.43209e-14 13.3222 2.08131)
(0 13.0236 2.07268)
(1.09672e-13 13.0236 2.07268)
(0 12.7321 2.06417)
(1.10252e-13 12.7321 2.06417)
(-6.96361e-14 12.4477 2.05577)
(4.19287e-14 12.4477 2.05577)
(-2.78512e-14 12.1701 2.04748)
(0 12.1701 2.04748)
(-2.79944e-14 11.8991 2.03929)
(0 11.8991 2.03929)
(1.66083e-14 11.6345 2.03119)
(1.12548e-13 11.6345 2.03119)
(-8.48372e-14 11.3761 2.02318)
(1.13116e-13 11.3761 2.02318)
(-3.82253e-14 11.1237 2.01525)
(1.13682e-13 11.1237 2.01525)
(-2.85615e-14 10.8772 2.00739)
(0 10.8772 2.00739)
(-1.02376e-13 10.6363 1.99959)
(3.68372e-14 10.6363 1.99959)
(3.61622e-14 10.401 1.99186)
(-3.61622e-14 10.401 1.99186)
(0 10.1709 1.98418)
(1.15924e-13 10.1709 1.98418)
(5.72933e-15 9.94608 1.97654)
(-1.51328e-13 9.94608 1.97654)
(0 9.72624 1.96894)
(0 9.72624 1.96894)
(-6.29791e-14 9.51128 1.96136)
(-2.68748e-13 9.51128 1.96136)
(-6.25008e-14 9.30104 1.9538)
(0 9.30104 1.9538)
(0 9.09539 1.94626)
(0 9.09539 1.94626)
(0 8.89419 1.93872)
(8.74508e-14 8.89419 1.93872)
(-5.9882e-14 8.6973 1.93117)
(2.39528e-13 8.6973 1.93117)
(0 8.50459 1.92361)
(1.20304e-13 8.50459 1.92361)
(-3.02106e-14 8.31594 1.91603)
(0 8.31594 1.91603)
(0 8.13123 1.90841)
(-1.21378e-13 8.13123 1.90841)
(-3.04781e-14 7.95033 1.90074)
(0 7.95033 1.90074)
(0 7.77313 1.89303)
(1.22444e-13 7.77313 1.89303)
(0 7.59951 1.88524)
(1.22974e-13 7.59951 1.88524)
(3.08754e-14 7.42937 1.87738)
(2.47003e-13 7.42937 1.87738)
(3.10068e-14 7.2626 1.86944)
(1.24027e-13 7.2626 1.86944)
(0 7.09909 1.86139)
(1.2455e-13 7.09909 1.86139)
(3.12679e-14 6.93873 1.85323)
(1.76916e-13 6.93873 1.85323)
(-3.13976e-14 6.78143 1.84495)
(2.51181e-13 6.78143 1.84495)
(-3.15268e-14 6.62709 1.83653)
(-1.26107e-13 6.62709 1.83653)
(0 6.47561 1.82795)
(0 6.47561 1.82795)
(-3.17835e-14 6.3269 1.8192)
(0 6.3269 1.8192)
(-6.38219e-14 6.18086 1.81027)
(-4.72657e-14 6.18086 1.81027)
(-3.20378e-14 6.0374 1.80114)
(1.28151e-13 6.0374 1.80114)
(0 5.89643 1.79178)
(0 5.89643 1.79178)
(-3.22898e-14 5.75787 1.78219)
(0 5.75787 1.78219)
(-4.38952e-14 5.62162 1.77235)
(-4.38952e-14 5.62162 1.77235)
(3.25392e-14 5.4876 1.76222)
(2.60314e-13 5.4876 1.76222)
(1.07627e-13 5.35573 1.75179)
(-1.72953e-13 5.35573 1.75179)
(2.40459e-14 5.22591 1.74105)
(4.15261e-14 5.22591 1.74105)
(2.50515e-14 5.09806 1.72995)
(3.04032e-13 5.09806 1.72995)
(3.30299e-14 4.97211 1.71848)
(9.21017e-14 4.97211 1.71848)
(3.31508e-14 4.84796 1.7066)
(1.32603e-13 4.84796 1.7066)
(-3.3271e-14 4.72553 1.6943)
(1.33084e-13 4.72553 1.6943)
(-3.33903e-14 4.60475 1.68153)
(0 4.60475 1.68153)
(3.71645e-14 4.48551 1.66827)
(1.34035e-13 4.48551 1.66827)
(-6.7253e-14 4.36775 1.65447)
(9.80225e-14 4.36775 1.65447)
(-3.37433e-14 4.25137 1.6401)
(0 4.25137 1.6401)
(0 4.13629 1.62511)
(2.70873e-13 4.13629 1.62511)
(0 4.02241 1.60947)
(0 4.02241 1.60947)
(3.40881e-14 3.90965 1.59312)
(-1.70234e-13 3.90965 1.59312)
(9.39979e-16 3.79792 1.57601)
(3.3261e-14 3.79792 1.57601)
(-3.32264e-15 3.68712 1.55808)
(0 3.68712 1.55808)
(3.67939e-14 3.57715 1.53928)
(0 3.57715 1.53928)
(0 3.46791 1.51953)
(1.38132e-13 3.46791 1.51953)
(0 3.35929 1.49877)
(1.69455e-13 3.35929 1.49877)
(3.47485e-14 3.25119 1.47692)
(1.38994e-13 3.25119 1.47692)
(5.9535e-14 3.14348 1.45389)
(-1.98952e-13 3.14348 1.45389)
(-5.73635e-15 3.03606 1.42958)
(-2.9222e-14 3.03606 1.42958)
(-6.3746e-15 2.92878 1.40391)
(1.11558e-13 2.92878 1.40391)
(0 2.82151 1.37675)
(1.40649e-13 2.82151 1.37675)
(2.00278e-14 2.71412 1.34798)
(-1.41047e-13 2.71412 1.34798)
(8.96361e-14 2.60644 1.31747)
(2.286e-13 2.60644 1.31747)
(0 2.49831 1.28507)
(8.85402e-14 2.49831 1.28507)
(-3.55495e-14 2.38956 1.25062)
(0 2.38956 1.25062)
(3.56414e-14 2.28 1.21394)
(1.42565e-13 2.28 1.21394)
(1.46751e-14 2.16944 1.17485)
(1.42924e-13 2.16944 1.17485)
(-3.58183e-14 2.05766 1.13312)
(1.43273e-13 2.05766 1.13312)
(0 1.94444 1.08853)
(0 1.94444 1.08853)
(3.59853e-14 1.82954 1.04082)
(4.76856e-14 1.82954 1.04082)
(-7.21292e-14 1.71272 0.989721)
(1.44258e-13 1.71272 0.989721)
(0 1.59372 0.934946)
(0 1.59372 0.934946)
(0 1.47228 0.876183)
(4.51119e-14 1.47228 0.876183)
(-8.00172e-15 1.34813 0.813109)
(1.89419e-13 1.34813 0.813109)
(-3.63493e-14 1.22103 0.74539)
(1.45397e-13 1.22103 0.74539)
(-3.64111e-14 1.09074 0.672688)
(-4.2677e-14 1.09074 0.672688)
(0 0.957038 0.594672)
(-4.1895e-14 0.957038 0.594672)
(0 0.819768 0.511028)
(-1.46086e-13 0.819768 0.511028)
(-3.65694e-14 0.678812 0.421467)
(0 0.678812 0.421467)
(-3.66119e-14 0.534126 0.325746)
(1.46448e-13 0.534126 0.325746)
(0 0.385745 0.223671)
(1.46595e-13 0.385745 0.223671)
(-3.66792e-14 0.233791 0.115112)
(0 0.233791 0.115112)
(-7.41979e-14 1.8846e-06 6.97541e-07)
(2.93743e-13 1.20953e-06 4.47678e-07)
(0 127.821 -0.23655)
(-5.72123e-17 127.821 -0.23655)
(-1.12328e-16 127.821 -0.714064)
(0 127.821 -0.714064)
(-5.81417e-17 127.821 -0.991015)
(0 127.821 -0.991015)
(9.52693e-17 127.82 -1.00951)
(-2.16498e-16 127.82 -1.00951)
(9.96537e-17 127.82 -1.02835)
(-4.25061e-16 127.82 -1.02835)
(2.31396e-16 127.82 -1.04755)
(-4.17272e-16 127.82 -1.04755)
(0 127.819 -1.0671)
(-8.1925e-16 127.819 -1.0671)
(7.45305e-16 127.819 -1.08701)
(0 127.819 -1.08701)
(-4.45264e-16 127.818 -1.1073)
(1.78106e-15 127.818 -1.1073)
(5.19231e-16 127.818 -1.12796)
(-2.07692e-15 127.818 -1.12796)
(-3.32507e-16 127.817 -1.14901)
(-2.37831e-15 127.817 -1.14901)
(6.71331e-16 127.816 -1.17045)
(0 127.816 -1.17045)
(-7.49516e-16 127.815 -1.19229)
(-2.99807e-15 127.815 -1.19229)
(1.43953e-15 127.814 -1.21453)
(-4.75618e-15 127.814 -1.21453)
(9.10292e-16 127.813 -1.23719)
(-3.64117e-15 127.813 -1.23719)
(-1.38726e-15 127.812 -1.26027)
(0 127.812 -1.26027)
(1.07712e-15 127.81 -1.28378)
(-5.67033e-15 127.81 -1.28378)
(-1.74003e-16 127.808 -1.30773)
(5.9884e-15 127.808 -1.30773)
(1.25024e-15 127.807 -1.33212)
(0 127.807 -1.33212)
(2.67845e-15 127.804 -1.35696)
(0 127.804 -1.35696)
(1.42987e-15 127.802 -1.38227)
(3.19003e-15 127.802 -1.38227)
(1.52221e-15 127.8 -1.40804)
(3.60573e-15 127.8 -1.40804)
(-1.61627e-15 127.797 -1.43429)
(0 127.797 -1.43429)
(3.42416e-15 127.794 -1.46102)
(0 127.794 -1.46102)
(1.80968e-15 127.79 -1.48825)
(0 127.79 -1.48825)
(0 127.786 -1.51598)
(0 127.786 -1.51598)
(0 127.781 -1.54422)
(-2.26378e-15 127.781 -1.54422)
(4.22707e-15 127.776 -1.57298)
(0 127.776 -1.57298)
(2.21862e-15 127.77 -1.60227)
(8.87448e-15 127.77 -1.60227)
(4.65132e-15 127.764 -1.63208)
(0 127.764 -1.63208)
(2.4347e-15 127.756 -1.66244)
(0 127.756 -1.66244)
(2.54576e-15 127.747 -1.69335)
(-4.12766e-15 127.747 -1.69335)
(2.65889e-15 127.737 -1.72482)
(-1.06356e-14 127.737 -1.72482)
(0 127.726 -1.75685)
(-1.50743e-14 127.726 -1.75685)
(0 127.713 -1.78945)
(0 127.713 -1.78945)
(3.01108e-15 127.698 -1.82262)
(-1.20443e-14 127.698 -1.82262)
(2.50266e-15 127.68 -1.85637)
(0 127.68 -1.85637)
(-3.25691e-15 127.66 -1.89071)
(-1.30276e-14 127.66 -1.89071)
(-3.38326e-15 127.637 -1.92563)
(-3.06925e-14 127.637 -1.92563)
(-3.51195e-15 127.611 -1.96113)
(-3.55997e-15 127.611 -1.96113)
(-3.64302e-15 127.58 -1.99723)
(0 127.58 -1.99723)
(-3.77652e-15 127.545 -2.0339)
(-3.02121e-14 127.545 -2.0339)
(7.82495e-15 127.504 -2.07116)
(0 127.504 -2.07116)
(4.05094e-15 127.457 -2.10899)
(-1.62038e-14 127.457 -2.10899)
(8.38391e-15 127.403 -2.14739)
(1.67678e-14 127.403 -2.14739)
(4.33555e-15 127.341 -2.18634)
(-1.73422e-14 127.341 -2.18634)
(-8.96357e-15 127.27 -2.22582)
(-1.79271e-14 127.27 -2.22582)
(9.26136e-15 127.188 -2.26581)
(1.85227e-14 127.188 -2.26581)
(0 127.095 -2.3063)
(0 127.095 -2.3063)
(-4.93663e-15 126.988 -2.34724)
(-4.54108e-14 126.988 -2.34724)
(5.09376e-15 126.866 -2.38861)
(-2.03751e-14 126.866 -2.38861)
(5.25371e-15 126.728 -2.43037)
(0 126.728 -2.43037)
(0 126.57 -2.47245)
(-4.33321e-14 126.57 -2.47245)
(5.58219e-15 126.391 -2.51482)
(0 126.391 -2.51482)
(1.15016e-14 126.188 -2.5574)
(0 126.188 -2.5574)
(0 125.959 -2.60013)
(-2.36892e-14 125.959 -2.60013)
(6.09679e-15 125.702 -2.64292)
(-5.19912e-15 125.702 -2.64292)
(6.27425e-15 125.412 -2.68569)
(-2.5097e-14 125.412 -2.68569)
(0 125.087 -2.72833)
(-2.58187e-14 125.087 -2.72833)
(0 124.725 -2.77075)
(-2.65525e-14 124.725 -2.77075)
(6.82454e-15 124.32 -2.81282)
(0 124.32 -2.81282)
(0 123.871 -2.85442)
(-9.47981e-15 123.871 -2.85442)
(1.65124e-14 123.374 -2.89542)
(0 123.374 -2.89542)
(7.40164e-15 122.825 -2.93567)
(-9.13556e-15 122.825 -2.93567)
(0 122.221 -2.97505)
(-3.03995e-14 122.221 -2.97505)
(0 121.559 -3.01338)
(0 121.559 -3.01338)
(1.66474e-14 120.836 -3.05053)
(-4.06622e-14 120.836 -3.05053)
(0 120.049 -3.08633)
(-3.28466e-14 120.049 -3.08633)
(0 119.196 -3.12064)
(0 119.196 -3.12064)
(-8.63304e-15 118.275 -3.15331)
(6.90643e-14 118.275 -3.15331)
(0 117.284 -3.18419)
(8.02621e-15 117.284 -3.18419)
(9.06449e-15 116.222 -3.21314)
(-3.6258e-14 116.222 -3.21314)
(9.28371e-15 115.089 -3.24005)
(-3.71348e-14 115.089 -3.24005)
(3.0372e-14 113.885 -3.26479)
(-7.60408e-14 113.885 -3.26479)
(-9.72852e-15 112.61 -3.28728)
(0 112.61 -3.28728)
(0 111.266 -3.30743)
(0 111.266 -3.30743)
(0 109.855 -3.32517)
(4.07234e-14 109.855 -3.32517)
(3.69366e-15 108.38 -3.34047)
(-1.66552e-13 108.38 -3.34047)
(2.1279e-14 106.843 -3.35329)
(-4.25579e-14 106.843 -3.35329)
(-1.08707e-14 105.248 -3.36363)
(0 105.248 -3.36363)
(-1.1103e-14 103.6 -3.37151)
(-4.44121e-14 103.6 -3.37151)
(-2.26724e-14 101.903 -3.37694)
(-4.53449e-14 101.903 -3.37694)
(-1.15701e-14 100.162 -3.38)
(-1.05418e-13 100.162 -3.38)
(2.36091e-14 98.3819 -3.38073)
(-4.72182e-14 98.3819 -3.38073)
(1.20393e-14 96.5682 -3.37922)
(4.81574e-14 96.5682 -3.37922)
(0 94.7263 -3.37555)
(4.90974e-14 94.7263 -3.37555)
(5.68753e-16 92.8616 -3.36983)
(-7.39186e-14 92.8616 -3.36983)
(-1.37667e-14 90.9794 -3.36218)
(2.75334e-14 90.9794 -3.36218)
(1.29789e-14 89.0851 -3.35269)
(-1.1507e-14 89.0851 -3.35269)
(-1.91692e-15 87.1837 -3.34151)
(0 87.1837 -3.34151)
(0 85.2802 -3.32875)
(-2.21783e-14 85.2802 -3.32875)
(1.36796e-14 83.379 -3.31453)
(5.47186e-14 83.379 -3.31453)
(2.13729e-14 81.4846 -3.29899)
(-5.56472e-14 81.4846 -3.29899)
(0 79.6011 -3.28224)
(-2.09813e-14 79.6011 -3.28224)
(1.43733e-14 77.7319 -3.26441)
(3.68962e-14 77.7319 -3.26441)
(0 75.8807 -3.24561)
(0 75.8807 -3.24561)
(0 74.0503 -3.22596)
(-1.18643e-13 74.0503 -3.22596)
(0 72.2436 -3.20556)
(0 72.2436 -3.20556)
(1.52823e-14 70.4628 -3.18452)
(-8.02574e-14 70.4628 -3.18452)
(1.55063e-14 68.7101 -3.16292)
(0 68.7101 -3.16292)
(3.41623e-14 66.9872 -3.14087)
(1.25831e-13 66.9872 -3.14087)
(1.59499e-14 65.2957 -3.11844)
(0 65.2957 -3.11844)
(1.61694e-14 63.6368 -3.09571)
(-6.46777e-14 63.6368 -3.09571)
(-1.05111e-15 62.0115 -3.07276)
(6.55497e-14 62.0115 -3.07276)
(1.7119e-14 60.4206 -3.04965)
(0 60.4206 -3.04965)
(-1.33984e-17 58.8647 -3.02644)
(-8.408e-14 58.8647 -3.02644)
(0 57.3442 -3.00319)
(0 57.3442 -3.00319)
(0 55.8593 -2.97994)
(-1.6195e-14 55.8593 -2.97994)
(0 54.4101 -2.95675)
(1.58983e-14 54.4101 -2.95675)
(3.12139e-14 52.9966 -2.93365)
(-7.06476e-14 52.9966 -2.93365)
(0 51.6185 -2.91068)
(-1.53209e-14 51.6185 -2.91068)
(3.00804e-14 50.2757 -2.88787)
(-3.00804e-14 50.2757 -2.88787)
(-1.12519e-14 48.9678 -2.86525)
(0 48.9678 -2.86525)
(-1.84792e-14 47.6943 -2.84285)
(0 47.6943 -2.84285)
(-1.86796e-14 46.4547 -2.82069)
(0 46.4547 -2.82069)
(-9.05705e-15 45.2486 -2.79878)
(0 45.2486 -2.79878)
(0 44.0753 -2.77715)
(0 44.0753 -2.77715)
(-3.85424e-14 42.9341 -2.7558)
(-1.5417e-13 42.9341 -2.7558)
(-2.64276e-14 41.8245 -2.73476)
(2.64276e-14 41.8245 -2.73476)
(4.56013e-14 40.7456 -2.71403)
(-2.59434e-14 40.7456 -2.71403)
(0 39.6969 -2.69362)
(5.39286e-14 39.6969 -2.69362)
(0 38.6776 -2.67353)
(-1.05157e-13 38.6776 -2.67353)
(2.45431e-14 37.687 -2.65377)
(-1.05451e-13 37.687 -2.65377)
(3.67944e-15 36.7243 -2.63435)
(-1.05749e-13 36.7243 -2.63435)
(0 35.7887 -2.61526)
(5.87456e-14 35.7887 -2.61526)
(2.07834e-14 34.8797 -2.59651)
(0 34.8797 -2.59651)
(4.19323e-14 33.9964 -2.5781)
(8.38647e-14 33.9964 -2.5781)
(-2.11476e-14 33.1381 -2.56003)
(6.2215e-14 33.1381 -2.56003)
(-2.19653e-14 32.3042 -2.5423)
(0 32.3042 -2.5423)
(2.15065e-14 31.4939 -2.5249)
(0 31.4939 -2.5249)
(5.16405e-16 30.7065 -2.50783)
(1.07904e-13 30.7065 -2.50783)
(2.18604e-14 29.9413 -2.4911)
(8.74416e-14 29.9413 -2.4911)
(2.20355e-14 29.1977 -2.47469)
(0 29.1977 -2.47469)
(2.00252e-14 28.4751 -2.4586)
(-8.88379e-14 28.4751 -2.4586)
(4.20405e-14 27.7728 -2.44283)
(-3.93164e-14 27.7728 -2.44283)
(-3.25592e-15 27.0902 -2.42738)
(0 27.0902 -2.42738)
(3.78887e-14 26.4267 -2.41223)
(-3.78887e-14 26.4267 -2.41223)
(4.29668e-15 25.7817 -2.39739)
(0 25.7817 -2.39739)
(9.61168e-15 25.1546 -2.38285)
(3.65128e-14 25.1546 -2.38285)
(0 24.5449 -2.3686)
(0 24.5449 -2.3686)
(2.33959e-14 23.9521 -2.35464)
(2.22354e-13 23.9521 -2.35464)
(0 23.3755 -2.34096)
(0 23.3755 -2.34096)
(-2.37255e-14 22.8148 -2.32755)
(-6.78183e-14 22.8148 -2.32755)
(9.39901e-15 22.2694 -2.31442)
(-3.32878e-14 22.2694 -2.31442)
(0 21.7389 -2.30155)
(0 21.7389 -2.30155)
(2.42126e-14 21.2227 -2.28894)
(0 21.2227 -2.28894)
(3.14912e-14 20.7204 -2.27658)
(0 20.7204 -2.27658)
(4.90656e-14 20.2317 -2.26446)
(-9.81312e-14 20.2317 -2.26446)
(4.93832e-14 19.756 -2.25259)
(-9.87663e-14 19.756 -2.25259)
(-2.48495e-14 19.293 -2.24095)
(-2.68403e-13 19.293 -2.24095)
(-2.50066e-14 18.8423 -2.22953)
(-2.92456e-14 18.8423 -2.22953)
(0 18.4035 -2.21834)
(7.19417e-14 18.4035 -2.21834)
(-2.81836e-14 17.9762 -2.20736)
(-2.81836e-14 17.9762 -2.20736)
(2.5473e-14 17.56 -2.19659)
(0 17.56 -2.19659)
(-2.56268e-14 17.1547 -2.18602)
(-1.02507e-13 17.1547 -2.18602)
(2.66624e-14 16.7599 -2.17564)
(-2.66624e-14 16.7599 -2.17564)
(2.59323e-14 16.3752 -2.16546)
(1.03729e-13 16.3752 -2.16546)
(5.2168e-14 16.0004 -2.15546)
(-1.04336e-13 16.0004 -2.15546)
(0 15.6351 -2.14564)
(-1.30163e-13 15.6351 -2.14564)
(2.63851e-14 15.2791 -2.13599)
(-2.47612e-14 15.2791 -2.13599)
(-2.43074e-14 14.9321 -2.1265)
(-1.06139e-13 14.9321 -2.1265)
(0 14.5937 -2.11717)
(-2.13468e-13 14.5937 -2.11717)
(-2.34247e-14 14.2638 -2.10799)
(0 14.2638 -2.10799)
(5.39585e-14 13.9421 -2.09896)
(1.07917e-13 13.9421 -2.09896)
(2.71261e-14 13.6283 -2.09007)
(0 13.6283 -2.09007)
(0 13.3222 -2.08131)
(1.3125e-13 13.3222 -2.08131)
(7.09267e-14 13.0236 -2.07268)
(-1.53181e-13 13.0236 -2.07268)
(0 12.7321 -2.06417)
(-1.52963e-13 12.7321 -2.06417)
(0 12.4477 -2.05577)
(4.19287e-14 12.4477 -2.05577)
(2.78512e-14 12.1701 -2.04748)
(-1.11405e-13 12.1701 -2.04748)
(5.59888e-14 11.8991 -2.03929)
(-1.11978e-13 11.8991 -2.03929)
(2.8137e-14 11.6345 -2.03119)
(7.28823e-14 11.6345 -2.03119)
(5.65581e-14 11.3761 -2.02318)
(7.41774e-14 11.3761 -2.02318)
(6.66459e-14 11.1237 -2.01525)
(-3.82253e-14 11.1237 -2.01525)
(8.96338e-15 10.8772 -2.00739)
(-3.75249e-14 10.8772 -2.00739)
(2.87018e-14 10.6363 -1.99959)
(-1.14807e-13 10.6363 -1.99959)
(2.88417e-14 10.401 -1.99186)
(7.92045e-14 10.401 -1.99186)
(5.79619e-14 10.1709 -1.98418)
(-3.54995e-14 10.1709 -1.98418)
(0 9.94608 -1.97654)
(1.16479e-13 9.94608 -1.97654)
(-2.92579e-14 9.72624 -1.96894)
(-1.51242e-13 9.72624 -1.96894)
(5.87911e-14 9.51128 -1.96136)
(-1.17582e-13 9.51128 -1.96136)
(-2.95327e-14 9.30104 -1.9538)
(-2.6923e-13 9.30104 -1.9538)
(2.96693e-14 9.09539 -1.94626)
(-1.18677e-13 9.09539 -1.94626)
(-6.35418e-14 8.89419 -1.93872)
(1.19222e-13 8.89419 -1.93872)
(2.86933e-14 8.6973 -1.93117)
(1.19764e-13 8.6973 -1.93117)
(6.06933e-14 8.50459 -1.92361)
(-1.50921e-13 8.50459 -1.92361)
(3.02106e-14 8.31594 -1.91603)
(-3.00562e-14 8.31594 -1.91603)
(0 8.13123 -1.90841)
(-1.50884e-13 8.13123 -1.90841)
(0 7.95033 -1.90074)
(-1.21912e-13 7.95033 -1.90074)
(0 7.77313 -1.89303)
(-1.22444e-13 7.77313 -1.89303)
(0 7.59951 -1.88524)
(0 7.59951 -1.88524)
(3.08754e-14 7.42937 -1.87738)
(0 7.42937 -1.87738)
(3.10068e-14 7.2626 -1.86944)
(1.24027e-13 7.2626 -1.86944)
(3.11376e-14 7.09909 -1.86139)
(0 7.09909 -1.86139)
(0 6.93873 -1.85323)
(1.25072e-13 6.93873 -1.85323)
(5.08949e-14 6.78143 -1.84495)
(-5.08949e-14 6.78143 -1.84495)
(0 6.62709 -1.83653)
(-1.26107e-13 6.62709 -1.83653)
(-4.90467e-14 6.47561 -1.82795)
(0 6.47561 -1.82795)
(-3.17835e-14 6.3269 -1.8192)
(-4.8148e-14 6.3269 -1.8192)
(-3.1911e-14 6.18086 -1.81027)
(-1.27644e-13 6.18086 -1.81027)
(-3.20378e-14 6.0374 -1.80114)
(-1.28151e-13 6.0374 -1.80114)
(0 5.89643 -1.79178)
(0 5.89643 -1.79178)
(4.47146e-14 5.75787 -1.78219)
(-3.03033e-13 5.75787 -1.78219)
(0 5.62162 -1.77235)
(-1.73554e-13 5.62162 -1.77235)
(-4.30909e-14 5.4876 -1.76222)
(4.30909e-14 5.4876 -1.76222)
(0 5.35573 -1.75179)
(-1.72953e-13 5.35573 -1.75179)
(5.02662e-14 5.22591 -1.74105)
(-4.15261e-14 5.22591 -1.74105)
(6.58166e-14 5.09806 -1.72995)
(9.08681e-14 5.09806 -1.72995)
(1.06078e-13 4.97211 -1.71848)
(-4.00181e-14 4.97211 -1.71848)
(6.63017e-14 4.84796 -1.7066)
(-1.71888e-13 4.84796 -1.7066)
(7.18359e-14 4.72553 -1.6943)
(-3.85649e-14 4.72553 -1.6943)
(4.46792e-15 4.60475 -1.68153)
(-3.78582e-14 4.60475 -1.68153)
(0 4.48551 -1.66827)
(1.34035e-13 4.48551 -1.66827)
(-3.36265e-14 4.36775 -1.65447)
(9.80225e-14 4.36775 -1.65447)
(0 4.25137 -1.6401)
(-1.34973e-13 4.25137 -1.6401)
(0 4.13629 -1.62511)
(-1.70595e-13 4.13629 -1.62511)
(-1.03003e-13 4.02241 -1.60947)
(-1.35896e-13 4.02241 -1.60947)
(6.81761e-14 3.90965 -1.59312)
(-1.36352e-13 3.90965 -1.59312)
(3.4201e-14 3.79792 -1.57601)
(0 3.79792 -1.57601)
(-3.26515e-14 3.68712 -1.55808)
(1.37251e-13 3.68712 -1.55808)
(0 3.57715 -1.53928)
(0 3.57715 -1.53928)
(0 3.46791 -1.51953)
(-1.38132e-13 3.46791 -1.51953)
(0 3.35929 -1.49877)
(0 3.35929 -1.49877)
(-2.58979e-14 3.25119 -1.47692)
(1.38994e-13 3.25119 -1.47692)
(3.48541e-14 3.14348 -1.45389)
(-2.78833e-13 3.14348 -1.45389)
(0 3.03606 -1.42958)
(0 3.03606 -1.42958)
(6.3746e-15 2.92878 -1.40391)
(-2.86865e-14 2.92878 -1.40391)
(3.51623e-14 2.82151 -1.37675)
(-1.40649e-13 2.82151 -1.37675)
(-3.52619e-14 2.71412 -1.34798)
(8.57577e-14 2.71412 -1.34798)
(1.64427e-14 2.60644 -1.31747)
(1.41438e-13 2.60644 -1.31747)
(1.76292e-14 2.49831 -1.28507)
(0 2.49831 -1.28507)
(3.55495e-14 2.38956 -1.25062)
(-5.23055e-14 2.38956 -1.25062)
(3.56414e-14 2.28 -1.21395)
(-5.13471e-14 2.28 -1.21395)
(-1.46751e-14 2.16944 -1.17485)
(-1.42924e-13 2.16944 -1.17485)
(3.58183e-14 2.05766 -1.13312)
(1.43273e-13 2.05766 -1.13312)
(0 1.94444 -1.08853)
(-1.43613e-13 1.94444 -1.08853)
(3.59853e-14 1.82954 -1.04082)
(-1.43941e-13 1.82954 -1.04082)
(8.28764e-14 1.71272 -0.989721)
(0 1.71272 -0.989721)
(4.59539e-14 1.59372 -0.934946)
(1.44564e-13 1.59372 -0.934946)
(0 1.47228 -0.876183)
(-2.89711e-13 1.47228 -0.876183)
(-4.42852e-14 1.34813 -0.813109)
(-1.00849e-13 1.34813 -0.813109)
(7.9823e-14 1.22103 -0.74539)
(-1.88871e-13 1.22103 -0.74539)
(3.64111e-14 1.09074 -0.672688)
(1.45644e-13 1.09074 -0.672688)
(3.64686e-14 0.957038 -0.594672)
(-2.91749e-13 0.957038 -0.594672)
(7.30429e-14 0.819768 -0.511028)
(-1.46086e-13 0.819768 -0.511028)
(4.03736e-14 0.678812 -0.421467)
(-4.03736e-14 0.678812 -0.421467)
(-7.62457e-14 0.534126 -0.325746)
(1.06814e-13 0.534126 -0.325746)
(0 0.385745 -0.223671)
(-1.85502e-13 0.385745 -0.223671)
(-3.66792e-14 0.233791 -0.115112)
(1.08522e-13 0.233791 -0.115112)
(3.67032e-14 1.94669e-06 -7.20524e-07)
(1.47048e-13 7.94105e-07 -2.9392e-07)
(3.6762e-14 -1.88649e-06 6.98243e-07)
(1.46813e-13 -1.20789e-06 4.47073e-07)
(-3.81946e-14 -0.23379 0.115112)
(2.93434e-13 -0.23379 0.115112)
(-3.66487e-14 -0.385745 0.22367)
(0 -0.385745 0.22367)
(0 -0.534126 0.325745)
(1.46448e-13 -0.534126 0.325745)
(0 -0.678811 0.421467)
(2.92555e-13 -0.678811 0.421467)
(4.60581e-15 -0.819767 0.511027)
(-1.87213e-13 -0.819767 0.511027)
(0 -0.957037 0.594672)
(4.1895e-14 -0.957037 0.594672)
(-3.64111e-14 -1.09074 0.672688)
(-1.45644e-13 -1.09074 0.672688)
(0 -1.22103 0.745389)
(0 -1.22103 0.745389)
(3.62835e-14 -1.34813 0.813109)
(4.42852e-14 -1.34813 0.813109)
(0 -1.47228 0.876183)
(1.44856e-13 -1.47228 0.876183)
(4.59539e-14 -1.59372 0.934946)
(1.44564e-13 -1.59372 0.934946)
(0 -1.71272 0.989721)
(0 -1.71272 0.989721)
(-3.59853e-14 -1.82954 1.04082)
(-1.43941e-13 -1.82954 1.04082)
(7.18063e-14 -1.94444 1.08853)
(0 -1.94444 1.08853)
(-4.94825e-14 -2.05766 1.13312)
(0 -2.05766 1.13312)
(7.1462e-14 -2.16944 1.17485)
(1.42924e-13 -2.16944 1.17485)
(-3.56414e-14 -2.28 1.21394)
(-1.93912e-13 -2.28 1.21394)