/*--------------------------------*- C++ -*----------------------------------*\
| =========                 |                                                 |
| \\      /  F ield         | OpenFOAM: The Open Source CFD Toolbox           |
|  \\    /   O peration     | Version:  2106                                  |
|   \\  /    A nd           | Website:  www.openfoam.com                      |
|    \\/     M anipulation  |                                                 |
\*---------------------------------------------------------------------------*/
FoamFile
{
    version     2.0;
    format      ascii;
    arch        "LSB;label=32;scalar=64";
    class       volTensorField;
    location    "10070";
    object      grad(U);
}
// * * * * * * * * * * * * * * * * * * * * * * * * * * * * * * * * * * * * * //

dimensions      [0 0 -1 0 0 0 0];

internalField   nonuniform List<tensor> 
2000
(
(-7.15154e-18 -1.46044e-25 5.61695e-27 12.998 -1.56839e-12 1.89462e-14 0.0240567 -5.80505e-15 4.01224e-18)
(7.15154e-18 -8.13036e-30 9.19953e-28 12.998 2.80897e-16 8.63592e-15 0.0240567 -7.90148e-18 5.91292e-17)
(0 1.11739e-29 -6.29451e-31 12.9955 -4.2e-12 7.6632e-14 0.0726102 -1.0839e-14 2.8893e-16)
(0 -6.03917e-28 4.98836e-31 12.9955 3.22679e-16 3.51077e-15 0.0726102 1.21662e-18 2.50152e-16)
(-2.96059e-18 -1.16411e-25 5.48886e-28 12.993 8.07794e-28 -2.8399e-29 0.100727 -3.15544e-30 0)
(0 9.40214e-30 0 12.993 1.50099e-15 6.37114e-49 0.100727 1.06106e-17 2.31323e-16)
(-9.69188e-18 -7.29915e-30 -8.99471e-32 12.9905 7.08313e-13 7.28732e-15 0.102587 -9.14264e-15 1.74875e-16)
(3.87675e-17 1.23065e-29 -9.61442e-32 12.9905 2.84675e-15 2.18345e-14 0.102587 1.71774e-17 2.87946e-16)
(0 1.2081e-29 -9.43824e-32 12.9878 7.96151e-14 2.2216e-14 0.10448 -1.87507e-15 1.79331e-16)
(0 -6.04048e-30 0 12.9878 2.81584e-15 1.01146e-14 0.10448 2.23685e-17 3.32563e-16)
(-5.21589e-17 2.37191e-29 7.43275e-29 12.9851 -5.36314e-14 1.19097e-14 0.106408 -2.38319e-16 4.83517e-17)
(-4.19602e-17 -2.37236e-29 3.70612e-31 12.9851 2.77034e-15 1.7198e-15 0.106408 2.26227e-17 3.444e-16)
(5.12031e-17 -2.46679e-28 3.6382e-31 12.9823 -1.46714e-14 5.89228e-15 0.108371 -6.06759e-17 4.91292e-17)
(7.13607e-17 1.16502e-29 -3.6382e-31 12.9823 2.78706e-15 1.6974e-15 0.108371 2.34905e-17 3.56526e-16)
(0 2.85723e-30 0 12.9794 -5.8612e-15 5.95689e-15 0.110369 -3.78827e-17 5.12726e-17)
(3.03067e-16 2.38807e-32 0 12.9794 2.79249e-15 1.67397e-15 0.110369 2.35676e-17 3.6894e-16)
(-4.52595e-17 -2.45026e-30 -1.05965e-31 12.9765 -4.81944e-15 6.12995e-15 0.112403 -4.49126e-17 5.39789e-17)
(0 8.41461e-30 0 12.9765 2.74968e-15 1.64933e-15 0.112403 2.3634e-17 3.81653e-16)
(0 -1.37674e-29 1.72092e-31 12.9734 -5.12174e-15 6.31851e-15 0.114474 -4.46456e-17 5.65327e-17)
(0 1.37674e-29 -1.72092e-31 12.9734 2.69676e-15 1.62146e-15 0.114474 2.35216e-17 3.9467e-16)
(0 -2.97332e-29 1.01363e-30 12.9703 -4.92559e-15 6.49077e-15 0.116583 -4.30784e-17 5.91099e-17)
(0 2.97332e-29 -8.44692e-31 12.9703 2.66967e-15 1.5921e-15 0.116583 2.40374e-17 4.07984e-16)
(6.82139e-17 2.14405e-30 -4.14952e-31 12.9672 -4.74476e-15 1.2926e-14 0.11873 -4.30162e-17 1.76522e-16)
(1.79494e-16 2.81516e-32 3.31685e-31 12.9672 2.65969e-15 1.56087e-15 0.11873 2.42251e-17 4.21602e-16)
(0 0 0 12.9639 -4.66592e-15 2.1237e-14 0.120915 -4.32307e-17 2.16392e-16)
(0 0 0 12.9639 2.56596e-15 1.52736e-15 0.120915 2.31945e-17 4.35525e-16)
(-2.64172e-16 2.87362e-29 -1.04173e-30 12.9605 -4.60888e-15 2.34733e-14 0.12314 -4.3553e-17 2.25674e-16)
(0 -2.30141e-29 7.99102e-31 12.9605 2.45294e-15 1.49056e-15 0.12314 2.29902e-17 4.49765e-16)
(-1.80783e-16 1.82275e-29 -7.16342e-31 12.9571 -4.53155e-15 2.40295e-14 0.125405 -4.33627e-17 2.35313e-16)
(0 -1.00411e-29 0 12.9571 2.32085e-15 1.45155e-15 0.125405 2.15112e-17 4.643e-16)
(4.47657e-16 -1.79523e-29 5.57066e-31 12.9536 -4.54398e-15 2.45938e-14 0.127711 -4.54395e-17 2.45307e-16)
(-4.0337e-16 9.81068e-30 -4.6205e-31 12.9536 2.22676e-15 1.41052e-15 0.127711 2.2001e-17 4.79156e-16)
(1.7023e-16 -9.67644e-30 4.53583e-31 12.95 -4.64334e-15 2.51658e-14 0.130059 -4.69927e-17 2.55672e-16)
(0 9.67644e-30 -4.53583e-31 12.95 2.28427e-15 1.36471e-15 0.130059 2.34772e-17 4.94318e-16)
(4.03253e-16 -3.48354e-29 1.70096e-30 12.9463 -4.54475e-15 2.57467e-14 0.132448 -4.5134e-17 2.66437e-16)
(4.72286e-16 2.8553e-29 -1.03897e-30 12.9463 2.22214e-15 1.31987e-15 0.132448 2.15585e-17 5.0977e-16)
(-1.26924e-16 7.83269e-30 -4.06897e-31 12.9426 -4.34904e-15 2.63371e-14 0.134881 -4.46838e-17 2.77614e-16)
(0 0 0 12.9426 2.05638e-15 1.27103e-15 0.134881 2.09065e-17 5.25555e-16)
(1.3594e-16 -3.17114e-30 1.2294e-31 12.9387 -4.28815e-15 2.69358e-14 0.137357 -4.55416e-17 2.89191e-16)
(5.43759e-16 4.64055e-30 -2.86068e-31 12.9387 2.06639e-15 1.21534e-15 0.137357 2.25834e-17 5.41642e-16)
(-1.45121e-16 3.17248e-30 -4.1155e-31 12.9347 -4.18407e-15 2.75429e-14 0.139877 -4.41163e-17 3.01207e-16)
(1.16097e-15 1.38367e-31 2.80826e-31 12.9347 2.03465e-15 1.16035e-15 0.139877 2.10078e-17 5.58014e-16)
(-3.10388e-16 1.32326e-29 -2.7568e-31 12.9306 -4.10686e-15 2.81599e-14 0.142443 -4.55564e-17 3.13684e-16)
(6.17884e-16 -8.74705e-30 0 12.9306 1.86739e-15 1.10203e-15 0.142443 1.97488e-17 5.73718e-16)
(3.047e-16 -1.29901e-29 8.11884e-31 12.9265 -4.12429e-15 2.87858e-14 0.145054 -4.61699e-17 3.26607e-16)
(6.5597e-16 1.30687e-29 -8.11884e-31 12.9265 1.81988e-15 1.04051e-15 0.145054 2.07329e-17 5.88266e-16)
(-2.99117e-16 8.5014e-30 -5.31338e-31 12.9222 -4.17337e-15 2.94205e-14 0.147712 -4.83953e-17 3.40016e-16)
(6.94755e-16 -4.16724e-30 5.31338e-31 12.9222 1.79916e-15 9.74799e-16 0.147712 2.00191e-17 6.02876e-16)
(1.10072e-16 3.17663e-30 7.18022e-32 12.9178 -4.13434e-15 2.27805e-14 0.150418 -4.70005e-17 1.84253e-16)
(-2.93635e-16 4.17281e-30 -7.82402e-31 12.9178 1.74996e-15 9.03191e-16 0.150418 2.03683e-17 6.17515e-16)
(2.88255e-16 -2.45781e-29 1.28011e-30 12.9132 -3.86419e-15 1.12402e-14 0.153171 -4.38091e-17 7.90081e-17)
(4.86219e-16 2.46721e-29 -1.28011e-30 12.9132 1.6112e-15 8.35536e-16 0.153171 1.7481e-17 6.32126e-16)
(-2.03858e-16 -8.41491e-31 2.91354e-31 12.9086 -3.62763e-15 6.6505e-15 0.155973 -4.30539e-17 8.02611e-17)
(0 4.02128e-30 -1.00532e-30 12.9086 1.25494e-15 7.6434e-16 0.155973 1.25248e-17 6.4679e-16)
(-2.14285e-16 -7.66471e-31 -2.13249e-31 12.9038 -3.46408e-15 6.64036e-15 0.158824 -4.1433e-17 8.17359e-17)
(0 7.89518e-30 -4.93449e-31 12.9038 1.1929e-15 6.87857e-16 0.158824 1.66124e-17 6.61463e-16)
(0 1.16258e-29 -4.84407e-31 12.8988 -3.34867e-15 6.9992e-15 0.161726 -4.17815e-17 9.22855e-17)
(0 -7.75051e-30 0 12.8988 1.28303e-15 6.12307e-16 0.161726 1.52572e-17 6.76122e-16)
(-5.03415e-16 2.98131e-29 -2.35578e-30 12.8936 -3.20265e-15 7.46912e-15 0.164678 -3.92638e-17 9.68218e-17)
(-9.42861e-16 -2.29376e-29 1.66435e-30 12.8936 1.24461e-15 5.40298e-16 0.164678 1.62568e-17 6.90689e-16)
(2.46725e-16 5.49735e-31 2.18231e-31 12.8883 -2.93476e-15 7.61046e-15 0.167681 -3.63837e-17 9.94414e-17)
(9.86901e-16 -3.61744e-30 0 12.8883 1.22563e-15 4.63433e-16 0.167681 1.53381e-17 7.05251e-16)
(0 1.46644e-29 -4.58262e-31 12.8828 -2.84324e-15 7.68688e-15 0.170737 -3.83168e-17 1.02496e-16)
(0 -1.09983e-29 0 12.8828 9.45279e-16 3.82146e-16 0.170737 9.43675e-18 7.19708e-16)
(-2.69352e-16 1.39827e-29 -6.72889e-31 12.877 -2.98957e-15 7.7819e-15 0.173844 -4.17068e-17 1.05755e-16)
(0 -1.07967e-29 4.49864e-31 12.877 7.41729e-16 2.95189e-16 0.173844 1.04188e-17 7.3412e-16)
(-2.80977e-16 -3.87926e-30 2.16074e-31 12.871 -3.14214e-15 7.8839e-15 0.177005 -4.39579e-17 1.09165e-16)
(0 1.41319e-29 -8.83241e-31 12.871 1.04338e-15 1.98399e-16 0.177005 1.80911e-17 7.48372e-16)
(0 -2.77458e-29 1.73411e-30 12.8648 -3.15662e-15 7.98694e-15 0.180219 -4.36842e-17 1.12627e-16)
(1.17125e-15 2.7877e-29 -1.73411e-30 12.8648 1.34591e-15 9.89349e-17 0.180219 1.92895e-17 7.62463e-16)
(0 1.0214e-29 -8.51168e-31 12.8582 -2.84216e-15 8.09511e-15 0.183487 -3.66372e-17 1.16366e-16)
(0 -6.80934e-30 4.25584e-31 12.8582 9.70894e-16 6.19722e-19 0.183487 8.06714e-18 7.76268e-16)
(3.17135e-16 1.52993e-31 2.33678e-31 12.8512 -2.791e-15 8.21713e-15 0.186808 -4.38425e-17 1.2042e-16)
(1.26854e-15 -3.20145e-30 0 12.8512 8.26935e-16 -8.31492e-17 0.186808 1.583e-17 7.89785e-16)
(5.939e-16 -1.64954e-29 1.40388e-30 12.8439 -2.88177e-15 8.33596e-15 0.190184 -4.07068e-17 1.24271e-16)
(3.94989e-16 2.63983e-29 -2.05065e-30 12.8439 8.71905e-16 -1.84997e-16 0.190184 9.70329e-18 8.03165e-16)
(-3.4235e-16 -2.2572e-29 1.37079e-30 12.8361 -2.01026e-15 8.45218e-15 0.193613 -1.91957e-17 1.28465e-16)
(0 0 -1.61046e-30 12.8361 1.07729e-29 -3.03315e-16 0.193613 4.93038e-32 8.16189e-16)
(-4.44996e-16 2.21332e-29 -1.97618e-30 12.8278 -1.34898e-15 8.59676e-15 0.197096 -2.1913e-17 1.33398e-16)
(1.8662e-15 -2.19722e-29 1.97618e-30 12.8278 1.57087e-16 -4.079e-16 0.197096 8.20766e-18 8.28971e-16)
(-7.36974e-16 1.25973e-29 -1.65592e-30 12.819 -1.84274e-15 8.76159e-15 0.200632 -3.53803e-17 1.38467e-16)
(1.03711e-15 -2.93582e-30 7.75987e-31 12.819 4.83571e-16 -5.22665e-16 0.200632 6.78139e-18 8.4148e-16)
(4.28837e-16 -1.21883e-29 3.80884e-31 12.8095 -2.15366e-15 8.9135e-15 0.204221 -3.26567e-17 1.43271e-16)
(0 1.21883e-29 -7.61767e-31 12.8095 2.96441e-16 -6.44826e-16 0.204221 2.54788e-18 8.53577e-16)
(4.20979e-16 -1.19649e-29 1.12171e-30 12.7993 -1.83721e-15 9.04882e-15 0.207861 -2.64308e-17 1.48081e-16)
(0 0 -1.12171e-30 12.7993 0 -7.55948e-16 0.207861 4.93038e-32 8.6526e-16)
(-8.22751e-16 9.07245e-30 -9.91054e-31 12.7883 -1.37568e-15 9.19026e-15 0.211552 -1.86108e-17 1.53351e-16)
(-1.63795e-15 -1.76368e-31 7.34105e-31 12.7883 -5.28665e-16 -8.53031e-16 0.211552 8.15599e-18 8.76444e-16)
(4.23647e-16 2.11389e-30 -4.59398e-31 12.7764 -6.14116e-16 9.35527e-15 0.215292 -5.12879e-18 1.59225e-16)
(1.69459e-15 -5.58585e-30 3.60326e-31 12.7764 -6.25689e-16 -9.45972e-16 0.215292 9.19053e-18 8.87279e-16)
(-3.58454e-16 1.66073e-29 -1.50278e-30 12.7635 -5.20416e-16 9.51917e-15 0.219079 -1.26503e-17 1.6476e-16)
(-9.55728e-16 -1.99905e-29 1.76862e-30 12.7635 -8.82502e-16 -1.06253e-15 0.219079 1.17348e-17 8.97834e-16)
(-4.52731e-16 4.24351e-31 7.66719e-32 12.7493 -6.45157e-16 9.67493e-15 0.22291 -9.68656e-18 1.70674e-16)
(1.81092e-15 2.95683e-30 -3.47242e-31 12.7493 -6.8892e-16 -1.192e-15 0.22291 1.83577e-17 9.07885e-16)
(0 -1.63622e-29 2.38615e-30 12.7339 -4.37587e-16 9.8524e-15 0.226784 -5.72886e-18 1.77294e-16)
(3.74128e-15 1.94637e-29 -2.38615e-30 12.7339 -4.21423e-16 -1.29455e-15 0.226784 5.40383e-18 9.17317e-16)
(4.82854e-16 -2.7294e-29 3.2923e-30 12.717 -6.23977e-16 1.00391e-14 0.230696 -1.68188e-17 1.83885e-16)
(1.93142e-15 2.42791e-29 -2.34242e-30 12.717 -8.2242e-16 -1.38673e-15 0.230696 9.51542e-18 9.26095e-16)
(-4.98314e-16 4.64106e-30 -6.14671e-31 12.6984 -2.80772e-16 1.01979e-14 0.234643 -2.57204e-18 1.89847e-16)
(-1.99326e-15 -1.6455e-31 0 12.6984 -1.19027e-15 -1.54613e-15 0.234643 4.71705e-17 9.34562e-16)
(7.26161e-16 -3.20345e-30 9.67441e-31 12.678 3.41725e-28 1.03423e-14 0.23862 0 1.96254e-16)
(-7.26161e-16 2.57984e-30 -9.67441e-31 12.678 -1.25505e-15 -1.70351e-15 0.23862 8.91421e-17 9.41861e-16)
(-1.2429e-15 1.33315e-29 -1.56398e-30 12.6555 6.35898e-16 1.05249e-14 0.242621 -1.04341e-17 2.04008e-16)
(0 -5.06514e-30 6.33142e-31 12.6555 -1.43943e-15 -1.79763e-15 0.242621 1.41068e-16 9.48376e-16)
(0 -9.94464e-30 6.2154e-31 12.6307 7.77585e-16 1.06974e-14 0.246641 -1.37757e-17 2.10392e-16)
(0 9.94464e-30 -6.2154e-31 12.6307 -1.88394e-15 -1.91801e-15 0.246641 1.82916e-16 9.5434e-16)
(-6.86968e-16 1.46436e-29 -1.2203e-30 12.6033 1.49732e-15 1.08258e-14 0.250673 -1.63665e-17 2.16812e-16)
(-1.56454e-15 -1.95782e-29 1.83045e-30 12.6033 -2.35098e-15 -2.04869e-15 0.250673 2.34141e-16 9.59288e-16)
(-9.46679e-17 6.39021e-30 -2.81603e-31 12.5731 2.15759e-15 1.09656e-14 0.254708 -4.29578e-17 2.23989e-16)
(0 -4.79176e-30 0 12.5731 -2.49636e-15 -2.13808e-15 0.254708 3.18717e-16 9.63264e-16)
(-5.96826e-16 3.19142e-30 2.63452e-31 12.5397 1.61807e-15 1.10962e-14 0.258739 -4.37688e-17 2.30382e-16)
(0 4.70395e-30 -5.87994e-31 12.5397 -2.03877e-15 -2.25387e-15 0.258739 3.18087e-16 9.66733e-16)
(-5.78555e-16 -7.4657e-30 1.64473e-30 12.5028 1.23977e-15 1.11871e-14 0.262755 -2.22808e-17 2.36255e-16)
(2.45689e-15 4.61775e-30 -1.73166e-30 12.5028 -1.82746e-15 -2.38515e-15 0.262755 3.18388e-16 9.68951e-16)
(-6.31901e-16 3.1922e-30 2.26904e-31 12.4622 1.55339e-15 1.12785e-14 0.266746 -2.9493e-17 2.42982e-16)
(0 0 -5.66641e-31 12.4622 -2.62689e-15 -2.49928e-15 0.266746 3.21309e-16 9.70412e-16)
(-1.92601e-15 2.41818e-29 -4.58931e-30 12.4174 2.21522e-15 1.13667e-14 0.2707 -3.65691e-17 2.49012e-16)
(-1.97316e-15 -1.78003e-29 3.89381e-30 12.4174 -3.42066e-15 -2.62546e-15 0.2707 3.14907e-16 9.70997e-16)
(6.68103e-16 5.55063e-30 -1.28204e-30 12.3681 2.82253e-15 1.14047e-14 0.274604 -5.9515e-17 2.53827e-16)
(-2.67241e-15 -1.74741e-29 2.18426e-30 12.3681 -3.40188e-15 -2.74916e-15 0.274604 3.06005e-16 9.7067e-16)
(-1.81064e-15 1.28654e-29 -1.60817e-30 12.314 1.92049e-15 1.14161e-14 0.278446 -6.49712e-17 2.58912e-16)
(0 -4.28847e-30 5.36058e-31 12.314 -2.52698e-15 -2.82099e-15 0.278446 3.00523e-16 9.68844e-16)
(-1.41085e-15 -6.24885e-30 8.31593e-31 12.2546 9.45994e-16 1.14089e-14 0.28221 -2.08694e-17 2.63058e-16)
(5.64339e-15 8.41976e-30 -1.05247e-30 12.2546 -2.00366e-15 -2.22559e-15 0.28221 2.97602e-16 9.66369e-16)
(-7.24496e-16 1.55875e-29 -1.93231e-30 12.1896 1.62159e-15 1.13924e-14 0.285881 -2.24222e-17 2.67893e-16)
(2.89798e-15 -1.23982e-29 1.75162e-46 12.1896 -3.25482e-15 -1.16357e-29 0.285881 2.86552e-16 9.7014e-16)
(1.14195e-15 -4.057e-30 1.52138e-30 12.1186 2.93312e-15 1.12958e-14 0.289444 -5.34338e-17 2.68341e-16)
(0 4.057e-30 -1.52138e-30 12.1186 -4.17394e-15 -2.54252e-17 0.289444 2.7254e-16 9.83204e-16)
(-1.88447e-15 3.17585e-30 -4.0169e-31 12.0413 4.77648e-15 1.11887e-14 0.292882 -8.61088e-17 2.72761e-16)
(3.05378e-15 7.96532e-30 1.75162e-45 12.0413 -3.97354e-15 1.13769e-29 0.292882 2.55306e-16 9.91087e-16)
(0 7.81936e-30 -1.46613e-30 11.9574 5.72404e-15 1.1166e-14 0.296179 -1.4542e-16 2.77323e-16)
(0 -3.90968e-30 4.8871e-31 11.9574 -4.43701e-15 2.25348e-17 0.296179 2.34084e-16 9.86058e-16)
(-1.88374e-15 1.08358e-29 -1.86047e-30 11.8666 4.63135e-15 1.10973e-14 0.299318 -1.36467e-16 2.7956e-16)
(0 -3.83804e-30 4.79755e-31 11.8666 -4.84609e-15 -3.19773e-18 0.299318 2.1252e-16 9.79488e-16)
(0 1.13031e-29 -1.88385e-30 11.7686 3.94887e-15 1.09725e-14 0.302283 -9.55563e-17 2.81334e-16)
(0 -7.53541e-30 9.41926e-31 11.7686 -4.00016e-15 -1.93122e-17 0.302283 1.87578e-16 9.71808e-16)
(0 -1.84933e-29 2.774e-30 11.6632 4.42033e-15 1.07767e-14 0.305057 -1.06397e-16 2.79807e-16)
(3.3775e-15 1.84933e-29 -2.774e-30 11.6632 -3.83229e-15 -2.56223e-17 0.305057 1.66416e-16 9.62856e-16)
(-2.04401e-15 2.54162e-29 -3.63089e-30 11.5502 4.85001e-15 1.05765e-14 0.307626 -1.23935e-16 2.81212e-16)
(2.04401e-15 -2.54162e-29 1.32169e-31 11.5502 -4.93739e-15 9.96691e-30 0.307626 1.41633e-16 9.52376e-16)
(-8.86206e-16 3.14742e-30 -1.35312e-30 11.4296 4.92125e-15 1.03805e-14 0.309975 -1.33411e-16 2.79664e-16)
(3.54482e-15 3.56435e-30 -4.45544e-31 11.4296 -4.48615e-15 4.51418e-17 0.309975 1.0913e-16 9.41198e-16)
(9.84891e-16 -2.44933e-29 2.62428e-30 11.3014 4.69666e-15 1.01097e-14 0.312091 -1.32491e-16 2.76763e-16)
(2.64479e-15 2.44933e-29 -2.62428e-30 11.3014 -4.34418e-15 -5.19033e-18 0.312091 8.28773e-17 9.28418e-16)
(-1.89566e-15 2.71856e-29 -5.63232e-30 11.1654 4.9464e-15 9.84032e-15 0.313962 -1.25961e-16 2.74959e-16)
(-2.74842e-15 -2.40444e-29 5.15238e-30 11.1654 -5.92787e-15 -3.39559e-17 0.313962 5.35348e-17 9.14073e-16)
(9.49126e-16 -3.37197e-30 1.68599e-30 11.022 5.34273e-15 9.50832e-15 0.31558 -1.51617e-16 2.68053e-16)
(-3.80151e-15 3.37197e-30 -1.68599e-30 11.022 -5.54716e-15 -6.16621e-17 0.31558 1.00182e-17 8.98886e-16)
(-1.94417e-15 6.26025e-30 -9.96599e-31 10.8711 4.93599e-15 9.16551e-15 0.316936 -1.53555e-16 2.65188e-16)
(3.88835e-15 0 1.22428e-31 10.8711 -4.42628e-15 -3.08149e-33 0.316936 -2.2808e-17 8.82184e-16)
(-1.98786e-15 6.25887e-30 -1.01469e-30 10.7132 4.81692e-15 8.87332e-15 0.318025 -1.33445e-16 2.60675e-16)
(0 0 0 10.7132 -4.38242e-15 3.56173e-17 0.318025 -5.63154e-17 8.6522e-16)
(0 -9.56994e-30 2.39248e-30 10.5485 5.34936e-15 8.51714e-15 0.318844 -1.52219e-16 2.53475e-16)
(4.06353e-15 9.56994e-30 -2.39248e-30 10.5485 -4.60961e-15 4.63926e-18 0.318844 -7.61515e-17 8.46917e-16)
(-2.80082e-15 2.50361e-29 -5.22197e-30 10.3775 5.76898e-15 8.20715e-15 0.319391 -1.70919e-16 2.51255e-16)
(-4.15172e-15 -1.87891e-29 3.9144e-30 10.3775 -5.28986e-15 -3.08809e-17 0.319391 -1.17452e-16 8.27128e-16)
(1.06005e-15 -1.54052e-29 2.07103e-30 10.2005 5.75294e-15 7.87573e-15 0.319668 -1.84003e-16 2.4207e-16)
(0 1.22966e-29 -1.53707e-30 10.2005 -5.14043e-15 -4.76243e-17 0.319668 -1.76898e-16 8.06804e-16)
(1.08223e-15 -6.12207e-30 2.80603e-30 10.0182 5.25712e-15 7.47831e-15 0.319679 -1.76345e-16 2.35123e-16)
(-4.32894e-15 3.01781e-30 -2.26336e-30 10.0182 -4.643e-15 -4.53542e-17 0.319679 -2.10016e-16 7.85416e-16)
(-2.2089e-15 1.50905e-29 -4.06402e-30 9.83092 5.49884e-15 7.15396e-15 0.319428 -1.58998e-16 2.29909e-16)
(0 -5.92501e-30 1.05809e-31 9.83092 -4.61873e-15 0 0.319428 -2.52311e-16 7.62436e-16)
(0 8.72466e-30 -1.45411e-30 9.63942 6.77707e-15 6.9264e-15 0.318925 -1.98851e-16 2.28772e-16)
(0 -1.74493e-29 2.90822e-30 9.63942 -4.92332e-15 -9.57096e-18 0.318925 -2.90341e-16 7.3921e-16)
(1.14892e-15 2.63548e-30 -8.60767e-31 9.44426 7.3757e-15 6.60738e-15 0.318177 -2.50429e-16 2.16851e-16)
(-1.07985e-14 -5.70985e-30 1.42746e-30 9.44426 -5.30281e-15 -1.78692e-16 0.318177 -3.40802e-16 7.15004e-16)
(1.17113e-15 -1.14746e-29 3.37726e-30 9.24609 6.92384e-15 6.17725e-15 0.317197 -2.47104e-16 2.07558e-16)
(0 8.40784e-30 9.54652e-32 9.24609 -5.66408e-15 5.54668e-30 0.317197 -4.01543e-16 6.879e-16)
(0 -1.65075e-29 2.75125e-30 9.04553 6.72664e-15 5.82749e-15 0.315996 -2.28524e-16 2.0031e-16)
(4.77324e-15 1.65075e-29 -4.68732e-30 9.04553 -6.0485e-15 4.56041e-17 0.315996 -4.58025e-16 6.6357e-16)
(2.73587e-15 -8.45593e-30 1.93941e-30 8.84321 6.10125e-15 5.52424e-15 0.314588 -2.42483e-16 1.93554e-16)
(4.86173e-15 5.40168e-30 -1.35042e-30 8.84321 -6.11492e-15 6.52878e-17 0.314588 -4.99798e-16 6.41764e-16)
(-9.8239e-16 -1.24495e-29 4.10972e-30 8.63977 4.87286e-15 5.15485e-15 0.312987 -1.92123e-16 1.80774e-16)
(0 1.06054e-29 -3.97702e-30 8.63977 -6.55384e-15 -7.20056e-17 0.312987 -5.56571e-16 6.18827e-16)
(-1.05367e-15 -1.21136e-29 3.34989e-30 8.43579 6.02051e-15 4.81607e-15 0.311208 -1.61558e-16 1.75546e-16)
(5.03779e-15 1.56166e-29 1.65678e-31 8.43579 -6.6369e-15 4.47806e-30 0.311208 -6.20584e-16 5.96919e-16)
(1.28131e-15 -1.83548e-29 5.71758e-30 8.23186 7.21071e-15 4.63565e-15 0.309266 -2.85076e-16 1.7386e-16)
(1.02505e-14 1.53304e-29 -5.11013e-30 8.23186 -6.131e-15 1.52779e-16 0.309266 -6.79543e-16 5.78206e-16)
(-1.30306e-15 3.02046e-30 -6.13223e-31 8.02852 5.70993e-15 4.41946e-15 0.307176 -2.58197e-16 1.65405e-16)
(0 5.01649e-30 -6.27062e-31 8.02852 -5.68805e-15 6.43962e-18 0.307176 -7.46928e-16 5.61299e-16)
(-2.64937e-15 6.05523e-30 -1.23608e-30 7.82628 5.43426e-15 4.2038e-15 0.304953 -1.79506e-16 1.63386e-16)
(5.29874e-15 0 0 7.82628 -4.96728e-15 0 0.304953 -8.0772e-16 5.41081e-16)
(-1.34617e-15 -1.82319e-30 -1.83098e-30 7.6256 7.4616e-15 4.07967e-15 0.302613 -2.46163e-16 1.61655e-16)
(5.38468e-15 9.66865e-30 0 7.6256 -5.07598e-15 -3.87678e-17 0.302613 -8.50631e-16 5.23381e-16)
(-1.33581e-15 1.42372e-29 -3.5593e-30 7.42692 8.874e-15 3.67344e-15 0.300168 -3.49311e-16 1.36263e-16)
(0 -4.74574e-30 1.77965e-30 7.42692 -5.75871e-15 -1.996e-16 0.300168 -9.12095e-16 5.03489e-16)
(1.38869e-15 -1.22957e-29 3.5524e-30 7.23063 7.66933e-15 2.66797e-15 0.297634 -3.71145e-16 8.38396e-17)
(5.55475e-15 9.31755e-30 6.70779e-32 7.23063 -5.29085e-15 3.25405e-30 0.297634 -9.93466e-16 4.83347e-16)
(3.9843e-15 -1.6705e-29 2.3571e-30 7.03706 6.14039e-15 2.01694e-15 0.295024 -2.61943e-16 8.60533e-17)
(3.06421e-15 1.37202e-29 -1.71503e-30 7.03706 -4.42068e-15 2.84614e-17 0.295024 -1.04155e-15 4.66728e-16)
(-1.43054e-15 -1.51431e-30 -1.7668e-30 6.84653 7.12934e-15 1.93819e-15 0.29235 -2.55157e-16 8.01796e-17)
(5.72218e-15 8.97919e-30 0 6.84653 -4.73627e-15 -2.30556e-17 0.29235 -1.07248e-15 4.50646e-16)
(3.93231e-15 -7.35709e-30 2.84996e-30 6.65928 8.37779e-15 1.78452e-15 0.289624 -3.57452e-16 7.57404e-17)
(-2.4811e-15 4.40733e-30 -2.20366e-30 6.65928 -5.35173e-15 -1.36941e-16 0.289624 -1.1415e-15 4.33326e-16)
(-1.47169e-15 1.59152e-29 -2.81287e-30 6.47556 8.21749e-15 1.53418e-15 0.286857 -3.74902e-16 6.07058e-17)
(5.88676e-15 -8.65313e-30 1.08164e-30 6.47556 -5.96833e-15 -1.48592e-16 0.286857 -1.2177e-15 4.16806e-16)
(1.49198e-15 -7.1725e-30 2.77388e-30 6.29554 7.71553e-15 1.31324e-15 0.284059 -3.56516e-16 5.83707e-17)
(0 4.24728e-30 -2.12364e-30 6.29554 -7.09204e-15 -3.11744e-17 0.284059 -1.30916e-15 4.00172e-16)
(-1.51208e-15 1.95935e-29 -3.77886e-30 6.11937 8.00469e-15 1.20344e-15 0.28124 -3.43081e-16 5.27548e-17)
(6.04834e-15 -1.25084e-29 1.07436e-31 6.11937 -6.41298e-15 4.65179e-30 0.28124 -1.41479e-15 3.8708e-16)
(1.53199e-15 5.28843e-30 -3.71066e-31 5.94719 8.63068e-15 1.10036e-15 0.278408 -3.96913e-16 5.0779e-17)
(6.12797e-15 -4.09305e-30 0 5.94719 -5.22527e-15 4.75797e-17 0.278408 -1.45586e-15 3.75537e-16)
(0 8.03609e-30 -3.01353e-30 5.77907 8.48735e-15 1.09076e-15 0.275571 -4.1547e-16 5.38136e-17)
(3.94486e-15 -4.01804e-30 2.00902e-30 5.77907 -6.81125e-15 -4.02386e-17 0.275571 -1.50077e-15 3.64855e-16)
(0 1.18332e-29 -1.97221e-30 5.61509 8.68316e-15 9.84392e-16 0.272736 -3.98e-16 4.22084e-17)
(-6.28488e-15 -7.88883e-30 9.86104e-31 5.61509 -7.93662e-15 -1.9326e-16 0.272736 -1.61584e-15 3.51596e-16)
(-2.17982e-15 1.54885e-29 -3.87213e-30 5.45528 8.9045e-15 7.33697e-16 0.269909 -4.50426e-16 3.06704e-17)
(8.54196e-15 -1.54885e-29 1.24004e-30 5.45528 -7.31863e-15 0 0.269909 -1.70894e-15 3.4001e-16)
(5.30218e-16 -1.2368e-29 5.04954e-30 5.29966 8.2214e-15 6.81087e-16 0.267097 -4.35221e-16 3.8418e-17)
(0 1.52047e-29 -6.65206e-30 5.29966 -8.03372e-15 5.88543e-17 0.267097 -1.7955e-15 3.29667e-16)
(-1.62858e-15 6.56407e-30 -1.58622e-30 5.14824 7.41623e-15 6.2635e-16 0.264304 -3.97533e-16 2.61231e-17)
(6.51431e-15 0 0 5.14824 -7.32134e-15 4.92927e-17 0.264304 -1.92126e-15 3.19591e-16)
(2.06217e-15 -3.66314e-30 1.83157e-30 5.001 6.49281e-15 5.89906e-16 0.261534 -3.67731e-16 3.59978e-17)
(0 3.66314e-30 -1.83157e-30 5.001 -5.16854e-15 -1.23253e-16 0.261534 -1.99066e-15 3.12851e-16)
(0 7.19204e-30 -3.27615e-30 4.8579 5.12676e-15 4.09823e-16 0.258792 -3.14507e-16 1.09745e-17)
(0 -3.59602e-30 2.69701e-30 4.8579 -3.4655e-15 -3.37202e-16 0.258792 -2.04036e-15 3.00993e-16)
(3.67144e-15 -2.04821e-29 5.06276e-30 4.7189 5.67453e-15 2.35486e-16 0.256081 -2.33898e-16 1.47553e-17)
(6.73665e-15 1.41205e-29 -3.53012e-30 4.7189 -2.38344e-15 -4.08334e-16 0.256081 -2.07296e-15 2.87333e-16)
(-2.48563e-16 1.10606e-29 -1.57646e-45 4.58394 7.38121e-15 2.60741e-30 0.253403 -3.86685e-16 7.88861e-31)
(4.85835e-15 -6.93087e-30 -2.61546e-30 4.58394 -3.58887e-15 -1.26712e-16 0.253403 -2.11724e-15 2.7137e-16)
(0 0 8.50483e-31 4.45297 7.12308e-15 -9.18093e-17 0.250762 -4.34182e-16 1.05636e-17)
(6.88101e-15 3.40193e-30 3.66867e-32 4.45297 -4.55062e-15 1.29605e-30 0.250762 -2.17238e-15 2.64355e-16)
(-3.47603e-15 8.89333e-30 0 4.3259 7.19536e-15 2.23427e-29 0.24816 -3.71757e-16 1.78814e-46)
(6.95206e-15 -3.33959e-30 0 4.3259 -4.63693e-15 6.46629e-17 0.24816 -2.22112e-15 2.64017e-16)
(1.75559e-15 -1.58587e-29 5.93876e-30 4.20267 8.45612e-15 -2.30662e-18 0.245597 -4.58957e-16 6.77524e-20)
(7.02236e-15 1.31136e-29 -4.09799e-30 4.20267 -6.54679e-15 -3.80708e-17 0.245597 -2.32916e-15 2.62025e-16)
(0 1.28733e-29 -4.0229e-30 4.08318 8.87046e-15 -3.78045e-16 0.243077 -5.35278e-16 1.52608e-17)
(-7.09192e-15 -1.28733e-29 4.0229e-30 4.08318 -7.97098e-15 -6.62413e-17 0.243077 -2.47711e-15 2.58406e-16)
(0 0 -7.89836e-31 3.96735 8.29629e-15 -4.56312e-16 0.240598 -5.26305e-16 3.01231e-17)
(0 0 1.68202e-32 3.96735 -6.70415e-15 0 0.240598 -2.60544e-15 2.56568e-16)
(-3.61445e-15 2.39903e-29 -4.3502e-30 3.85509 8.6694e-15 -2.95988e-16 0.238164 -4.84792e-16 2.54671e-17)
(0 -1.86087e-29 6.01636e-30 3.85509 -5.51123e-15 1.60412e-17 0.238164 -2.70868e-15 2.54921e-16)
(-3.53805e-15 8.74303e-30 -3.66546e-30 3.74631 9.23185e-15 -1.03306e-16 0.235774 -5.92908e-16 1.11609e-17)
(0 0 1.52231e-30 3.74631 -5.77737e-15 3.43223e-17 0.235774 -2.7868e-15 2.58283e-16)
(-3.36512e-15 1.49441e-29 -1.87158e-30 3.64091 7.16951e-15 -5.65601e-17 0.233428 -5.74881e-16 1.8223e-18)
(-5.68051e-15 -1.19553e-29 3.73603e-30 3.64091 -6.47557e-15 -3.39908e-16 0.233428 -2.91925e-15 2.48776e-16)
(3.71457e-15 5.3853e-31 1.21296e-30 3.5388 8.06902e-15 -5.44876e-16 0.231128 -3.46984e-16 4.49358e-17)
(0 -2.93406e-30 2.65729e-30 3.5388 -6.10943e-15 -1.01073e-30 0.231128 -3.05916e-15 2.36291e-16)
(2.12581e-15 1.21002e-29 -2.38885e-30 3.43988 9.33391e-15 -2.69392e-16 0.228873 -7.15736e-16 2.6425e-17)
(7.49454e-15 -1.15212e-29 3.60036e-30 3.43988 -5.47864e-15 1.66813e-16 0.228873 -3.157e-15 2.29448e-16)
(-1.88982e-15 2.59933e-30 8.0886e-31 3.34407 6.82478e-15 -2.06212e-16 0.226662 -5.30794e-16 9.44427e-18)
(7.55929e-15 2.82751e-30 -2.12063e-30 3.34407 -6.4745e-15 2.40416e-16 0.226662 -3.23976e-15 2.293e-16)
(6.86545e-16 -2.43239e-30 5.02324e-31 3.25125 7.56843e-15 -3.25346e-16 0.224497 -3.97701e-16 1.87335e-17)
(0 -2.7757e-30 6.93924e-31 3.25125 -5.96578e-15 -5.21337e-17 0.224497 -3.35406e-15 2.17753e-16)
(1.92172e-15 -7.99136e-30 5.92681e-31 3.16135 7.89182e-15 -2.9156e-16 0.222376 -6.54956e-16 2.64867e-17)
(7.68689e-15 5.44967e-30 0 3.16135 -4.07066e-15 -1.86863e-16 0.222376 -3.45926e-15 2.06519e-16)
(-1.93744e-15 7.90255e-30 -2.59748e-30 3.07427 6.34818e-15 -3.60379e-16 0.2203 -4.58829e-16 1.46189e-17)
(0 -2.6749e-30 6.68725e-31 3.07427 -3.79089e-15 -3.14823e-16 0.2203 -3.55448e-15 1.86431e-16)
(0 -2.62588e-30 1.96941e-30 2.98992 6.39994e-15 -5.454e-16 0.218267 -4.55277e-16 3.74872e-17)
(1.56241e-14 7.87765e-30 -3.47275e-30 2.98992 -4.52331e-15 -1.27235e-16 0.218267 -3.63166e-15 1.6856e-16)
(-1.96843e-15 -7.7902e-30 3.29058e-30 2.90821 6.79035e-15 -7.34651e-16 0.216277 -4.83782e-16 4.25634e-17)
(0 1.03111e-29 -3.86665e-30 2.90821 -4.86507e-15 -1.27298e-16 0.216277 -3.73899e-15 1.57071e-16)
(0 -1.26526e-29 3.79579e-30 2.82905 6.81055e-15 -1.20008e-15 0.214331 -5.31314e-16 6.74429e-17)
(1.58697e-14 1.26526e-29 -3.79579e-30 2.82905 -3.88864e-15 -2.1322e-16 0.214331 -3.85425e-15 1.46555e-16)
(-1.99885e-15 1.24195e-29 -3.03649e-30 2.75237 5.64752e-15 -1.50888e-15 0.212426 -5.05115e-16 1.15674e-16)
(0 -9.93663e-30 2.48416e-30 2.75237 -4.63868e-15 -3.02279e-16 0.212426 -3.88789e-15 1.37528e-16)
(2.74566e-15 -9.75455e-30 1.82898e-30 2.67807 2.81926e-15 -1.43648e-15 0.210562 -3.69317e-16 1.18313e-16)
(8.05538e-15 7.31591e-30 -1.82898e-30 2.67807 -5.01646e-15 -9.83907e-17 0.210562 -3.96627e-15 1.2838e-16)
(2.02871e-15 -2.87686e-29 4.72724e-30 2.60609 1.82102e-15 -1.6628e-15 0.208739 -7.32505e-17 1.0849e-16)
(1.62297e-14 1.43637e-29 1.85911e-32 2.60609 -3.6742e-15 4.6218e-31 0.208739 -4.04208e-15 1.33963e-16)
(-2.04344e-15 2.45502e-30 6.54324e-31 2.53633 6.38076e-15 -2.12061e-15 0.206957 -5.00673e-16 1.59527e-16)
(8.17376e-15 4.70016e-30 -1.76256e-30 2.53633 -3.43995e-15 -3.36847e-17 0.206957 -4.13841e-15 1.52836e-16)
(-5.39428e-16 6.79542e-30 -1.79969e-30 2.46873 6.02864e-15 -2.56814e-15 0.205213 -5.4557e-16 1.88314e-16)
(5.6347e-15 0 5.76754e-31 2.46873 -3.6143e-15 -4.23333e-16 0.205213 -4.22382e-15 1.56066e-16)
(-4.14504e-15 9.38618e-30 -2.67321e-30 2.4032 6.31502e-15 -2.75659e-15 0.203507 -4.60199e-16 2.40957e-16)
(8.29007e-15 0 1.13237e-30 2.4032 -3.75787e-15 -1.39217e-16 0.203507 -4.30775e-15 1.4795e-16)
(-2.50315e-15 0 2.22324e-30 2.33969 7.77611e-15 -2.9226e-15 0.201839 -6.15291e-16 2.2776e-16)
(1.6695e-14 8.89296e-30 -2.06166e-32 2.33969 -3.39114e-15 4.93038e-31 0.201839 -4.40659e-15 1.48558e-16)
(0 4.365e-30 -3.27375e-30 2.27812 6.96075e-15 -2.89623e-15 0.200208 -7.33043e-16 2.79068e-16)
(8.40441e-15 -4.365e-30 2.1825e-30 2.27812 -3.43826e-15 1.86269e-16 0.200208 -4.48719e-15 1.77421e-16)
(-2.11522e-15 6.66858e-30 -2.59668e-30 2.21843 5.47571e-15 -3.02431e-15 0.198613 -4.93231e-16 2.31644e-16)
(0 0 1.07125e-30 2.21843 -4.23881e-15 -2.70411e-16 0.198613 -4.56841e-15 1.48215e-16)
(2.12921e-15 6.04582e-30 -1.14808e-30 2.16054 6.06639e-15 -3.24232e-15 0.197052 -4.91189e-16 3.12826e-16)
(0 -1.26195e-29 0 2.16054 -4.53138e-15 1.91972e-45 0.197052 -4.70147e-15 9.55912e-17)
(-2.32465e-15 4.12941e-30 -1.03235e-30 2.10441 6.79091e-15 -3.12015e-15 0.195526 -6.21002e-16 2.80672e-16)
(0 0 0 2.10441 -3.26708e-15 9.17398e-17 0.195526 -4.84891e-15 5.79396e-17)
(-2.15687e-15 1.44478e-29 -5.46655e-30 2.04996 6.32316e-15 -3.40704e-15 0.194033 -6.46125e-16 3.0161e-16)
(-2.28205e-15 -1.21612e-29 0 2.04996 -3.14131e-15 4.93038e-32 0.194033 -4.94307e-15 1.85152e-17)
(-2.17054e-15 6.26874e-30 -1.37155e-30 1.99714 6.38061e-15 -3.66401e-15 0.192573 -5.54682e-16 3.46277e-16)
(-8.68216e-15 0 1.03824e-30 1.99714 -4.13658e-15 8.66815e-16 0.192573 -5.06675e-15 -2.13858e-17)
(-2.1841e-15 -5.54904e-30 2.57123e-30 1.94589 6.82247e-15 -3.65302e-15 0.191145 -6.81697e-16 3.63185e-16)
(1.74728e-14 7.81307e-30 -3.41822e-30 1.94589 -3.30622e-15 1.96595e-15 0.191145 -5.13764e-15 -3.27972e-17)
(0 -7.6699e-30 3.35558e-30 1.89616 6.04348e-15 -3.16703e-15 0.189747 -6.63532e-16 3.57137e-16)
(8.79023e-15 7.6699e-30 -3.35558e-30 1.89616 -3.24011e-15 2.1519e-15 0.189747 -5.22957e-15 1.057e-17)
(-2.21091e-15 5.99615e-30 -2.22605e-30 1.8479 6.00054e-15 -2.86171e-15 0.18838 -5.4944e-16 2.78333e-16)
(8.84366e-15 0 9.41168e-31 1.8479 -3.30847e-15 1.51267e-15 0.18838 -5.43082e-15 5.93464e-17)
(0 7.39137e-30 -1.84784e-30 1.80106 6.20803e-15 -3.02926e-15 0.187042 -6.79666e-16 3.07534e-16)
(8.89669e-15 0 9.23922e-31 1.80106 -2.57997e-15 1.10085e-15 0.187042 -5.54662e-15 8.74205e-17)
(-4.27969e-15 -5.0858e-30 2.41883e-30 1.75559 5.50328e-15 -2.82776e-15 0.185732 -6.13799e-16 3.24072e-16)
(8.94933e-15 1.08839e-29 -2.72097e-30 1.75559 -2.66637e-15 7.99268e-16 0.185732 -5.65093e-15 1.17165e-16)