/*--------------------------------*- C++ -*----------------------------------*\
| =========                 |                                                 |
| \\      /  F ield         | OpenFOAM: The Open Source CFD Toolbox           |
|  \\    /   O peration     | Version:  2106                                  |
|   \\  /    A nd           | Website:  www.openfoam.com                      |
|    \\/     M anipulation  |                                                 |
\*---------------------------------------------------------------------------*/
FoamFile
{
    version     2.0;
    format      ascii;
    arch        "LSB;label=32;scalar=64";
    class       volScalarField;
    location    "10070";
    object      p;
}
// * * * * * * * * * * * * * * * * * * * * * * * * * * * * * * * * * * * * * //

dimensions      [0 2 -2 0 0 0 0];

internalField   nonuniform List<scalar> 
2000
(
5.76641e-15
1.08506e-14
1.18758e-14
1.08475e-14
1.24426e-14
1.08434e-14
1.14915e-14
1.08371e-14
1.07126e-14
1.08285e-14
1.0162e-14
1.08175e-14
9.65683e-15
1.08043e-14
9.16071e-15
1.07886e-14
8.67774e-15
1.07707e-14
8.20904e-15
1.07505e-14
7.75329e-15
1.0728e-14
7.30994e-15
1.07033e-14
6.87887e-15
1.06764e-14
6.46003e-15
1.06475e-14
6.05317e-15
1.06165e-14
5.65795e-15
1.05835e-14
5.27455e-15
1.05486e-14
4.90265e-15
1.05117e-14
4.54204e-15
1.0473e-14
4.19235e-15
1.04324e-14
3.85355e-15
1.03901e-14
3.52529e-15
1.03462e-14
3.2073e-15
1.03006e-14
2.8998e-15
1.02533e-14
2.60225e-15
1.02045e-14
2.31466e-15
1.01541e-14
2.03654e-15
1.01022e-14
1.76808e-15
1.00491e-14
1.5087e-15
9.99485e-15
1.2585e-15
9.93911e-15
1.01669e-15
9.88221e-15
7.83808e-16
9.82403e-15
5.59239e-16
9.76492e-15
3.42896e-16
9.70471e-15
1.34617e-16
9.64344e-15
-6.54011e-17
9.58103e-15
-2.5791e-16
9.51733e-15
-4.42794e-16
9.45302e-15
-6.19952e-16
9.38741e-15
-7.89979e-16
9.32091e-15
-9.53448e-16
9.25405e-15
-1.11039e-15
9.1863e-15
-1.26034e-15
9.11792e-15
-1.40349e-15
9.04866e-15
-1.54041e-15
8.9788e-15
-1.67153e-15
8.90858e-15
-1.79679e-15
8.83777e-15
-1.91591e-15
8.76664e-15
-2.0299e-15
8.69541e-15
-2.13792e-15
8.62423e-15
-2.24053e-15
8.55209e-15
-2.33782e-15
8.47959e-15
-2.43075e-15
8.40709e-15
-2.51855e-15
8.33449e-15
-2.60177e-15
8.26172e-15
-2.68151e-15
8.18912e-15
-2.75685e-15
8.11641e-15
-2.82772e-15
8.04391e-15
-2.89481e-15
7.97176e-15
-2.95844e-15
7.89968e-15
-3.01852e-15
7.82724e-15
-3.07535e-15
7.75457e-15
-3.12795e-15
7.68237e-15
-3.17773e-15
7.61111e-15
-3.22319e-15
7.53945e-15
-3.26679e-15
7.46825e-15
-3.30843e-15
7.39762e-15
-3.34772e-15
7.32698e-15
-3.38426e-15
7.25644e-15
-3.418e-15
7.18547e-15
-3.44991e-15
7.11552e-15
-3.47993e-15
7.04603e-15
-3.50735e-15
6.97645e-15
-3.53343e-15
6.90724e-15
-3.55715e-15
6.8372e-15
-3.57943e-15
6.76743e-15
-3.59988e-15
6.69837e-15
-3.61782e-15
6.62916e-15
-3.63573e-15
6.55994e-15
-3.651e-15
6.48984e-15
-3.66389e-15
6.419e-15
-3.67527e-15
6.34818e-15
-3.68667e-15
6.27812e-15
-3.69707e-15
6.20512e-15
-3.70668e-15
6.13186e-15
-3.71577e-15
6.06102e-15
-3.72456e-15
5.99082e-15
-3.73135e-15
5.91945e-15
-3.73702e-15
5.849e-15
-3.74312e-15
5.78092e-15
-3.74726e-15
5.71078e-15
-3.75033e-15
5.64069e-15
-3.75254e-15
5.57148e-15
-3.75752e-15
5.49996e-15
-3.76079e-15
5.42828e-15
-3.76192e-15
5.3573e-15
-3.76386e-15
5.28582e-15
-3.76621e-15
5.21331e-15
-3.76992e-15
5.13925e-15
-3.77246e-15
5.0659e-15
-3.7755e-15
4.99063e-15
-3.77933e-15
4.91647e-15
-3.78278e-15
4.84219e-15
-3.7876e-15
4.76361e-15
-3.79411e-15
4.68529e-15
-3.79816e-15
4.60746e-15
-3.80451e-15
4.53036e-15
-3.80898e-15
4.44967e-15
-3.81489e-15
4.36555e-15
-3.81021e-15
4.27664e-15
-3.81066e-15
4.18619e-15
-3.81193e-15
4.09597e-15
-3.81275e-15
4.00782e-15
-3.81024e-15
3.91881e-15
-3.81113e-15
3.83078e-15
-3.81257e-15
3.7391e-15
-3.81492e-15
3.6522e-15
-3.81856e-15
3.56379e-15
-3.82557e-15
3.47076e-15
-3.82623e-15
3.3733e-15
-3.83105e-15
3.28183e-15
-3.83534e-15
3.19157e-15
-3.83605e-15
3.09764e-15
-3.83351e-15
3.00024e-15
-3.8351e-15
2.8996e-15
-3.83421e-15
2.79948e-15
-3.83117e-15
2.70016e-15
-3.82997e-15
2.5983e-15
-3.82742e-15
2.49415e-15
-3.81295e-15
2.38789e-15
-3.79409e-15
2.28708e-15
-3.77111e-15
2.18461e-15
-3.75172e-15
2.07691e-15
-3.72503e-15
1.96408e-15
-3.70628e-15
1.86123e-15
-3.68072e-15
1.75729e-15
-3.6562e-15
1.64476e-15
-3.62914e-15
1.53514e-15
-3.6036e-15
1.42856e-15
-3.57981e-15
1.30959e-15
-3.55794e-15
1.18201e-15
-3.54206e-15
1.0653e-15
-3.52064e-15
9.55612e-16
-3.50175e-15
8.45105e-16
-3.48554e-15
7.29768e-16
-3.47215e-15
6.21483e-16
-3.4537e-15
5.16279e-16
-3.43831e-15
4.14123e-16
-3.42212e-15
3.10957e-16
-3.39711e-15
2.02608e-16
-3.39987e-15
9.69844e-17
-3.40629e-15
-1.8169e-17
-3.40836e-15
-1.42962e-16
-3.38135e-15
-2.69527e-16
-3.36609e-15
-3.8192e-16
-3.3708e-15
-4.88743e-16
-3.37069e-15
-5.90045e-16
-3.36571e-15
-6.859e-16
-3.36428e-15
-8.18378e-16
-3.38285e-15
-9.21202e-16
-3.38806e-15
-1.01118e-15
-3.38837e-15
-1.11373e-15
-3.40894e-15
-1.22086e-15
-3.43293e-15
-1.32427e-15
-3.45186e-15
-1.42402e-15
-3.47415e-15
-1.5374e-15
-3.50817e-15
-1.65645e-15
-3.51977e-15
-1.76478e-15
-3.53412e-15
-1.85457e-15
-3.55958e-15
-1.96034e-15
-3.58739e-15
-2.0828e-15
-3.60858e-15
-2.20568e-15
-3.64828e-15
-2.32995e-15
-3.66328e-15
-2.43081e-15
-3.69582e-15
-2.52645e-15
-3.71126e-15
-2.64348e-15
-3.76886e-15
-2.75772e-15
-3.80843e-15
-2.87846e-15
-3.83796e-15
-2.98131e-15
-3.86553e-15
-3.09333e-15
-3.86438e-15
-3.22521e-15
-3.92665e-15
-3.37179e-15
-4.01703e-15
-3.50125e-15
-4.08419e-15
-3.63181e-15
-4.14492e-15
-3.78191e-15
-4.21472e-15
-3.90286e-15
-4.29235e-15
-3.99689e-15
-4.37856e-15
-4.11586e-15
-4.45589e-15
-4.24386e-15
-4.52333e-15
-4.40001e-15
-4.61285e-15
-4.55383e-15
-4.70571e-15
-4.67407e-15
-4.81836e-15
-4.76251e-15
-4.91808e-15
-4.86907e-15
-5.02202e-15
-4.9942e-15
-5.11291e-15
-5.07158e-15
-5.20805e-15
-5.13538e-15
-5.32566e-15
-5.23503e-15
-5.41716e-15
-5.30288e-15
-5.50121e-15
-5.43855e-15
-5.59265e-15
-5.61113e-15
-5.72116e-15
-5.69279e-15
-5.83934e-15
-5.79807e-15
-5.94787e-15
-5.92752e-15
-6.09623e-15
-6.08244e-15
-6.23614e-15
-6.16358e-15
-6.3388e-15
-6.33266e-15
-6.46585e-15
-6.496e-15
-6.61652e-15
-6.57484e-15
-6.7299e-15
-6.6785e-15
-6.83932e-15
-6.82416e-15
-6.99075e-15
-6.98247e-15
-7.13744e-15
-7.10573e-15
-7.24976e-15
-7.19169e-15
-7.36211e-15
-7.36723e-15
-7.5343e-15
-7.48259e-15
-7.64687e-15
-7.53505e-15
-7.76825e-15
-7.64247e-15
-7.89729e-15
-7.83198e-15
-8.05964e-15
-7.95293e-15
-8.10761e-15
-8.06476e-15
-8.24792e-15
-8.23425e-15
-8.38615e-15
-8.3764e-15
-8.4642e-15
-8.46162e-15
-8.5736e-15
-8.45917e-15
-8.66542e-15
-8.59312e-15
-8.76667e-15
-8.71649e-15
-8.84726e-15
-8.83225e-15
-8.98928e-15
-8.91856e-15
-9.08504e-15
-8.99476e-15
-9.13861e-15
-9.08285e-15
-9.20251e-15
-9.16132e-15
-9.27429e-15
-9.26529e-15
-9.37737e-15
-9.34554e-15
-9.3795e-15
-9.37186e-15
-9.41227e-15
-9.39814e-15
-9.44906e-15
-9.45335e-15
-9.43218e-15
-9.54343e-15
-9.52543e-15
-9.54596e-15
-9.58641e-15
-9.52352e-15
-9.63804e-15
-9.544e-15
-9.63537e-15
-9.60169e-15
-9.53482e-15
-9.59967e-15
-9.53947e-15
-9.55729e-15
-9.55143e-15
-9.58782e-15
-9.53995e-15
-9.64146e-15
-9.61712e-15
-9.62725e-15
-9.60976e-15
-9.62788e-15
-9.61367e-15
-9.59534e-15
-9.68159e-15
-9.62006e-15
6.78976e-15
6.30032e-15
6.78822e-15
6.29995e-15
6.78612e-15
6.29942e-15
6.7829e-15
6.29859e-15
6.7785e-15
6.29742e-15
6.77289e-15
6.29592e-15
6.76609e-15
6.29403e-15
6.75806e-15
6.2917e-15
6.74888e-15
6.289e-15
6.73848e-15
6.28598e-15
6.72697e-15
6.28247e-15
6.7143e-15
6.27854e-15
6.70055e-15
6.27423e-15
6.68569e-15
6.2695e-15
6.66985e-15
6.26427e-15
6.65289e-15
6.25868e-15
6.63483e-15
6.2526e-15
6.61589e-15
6.246e-15
6.59592e-15
6.2391e-15
6.57503e-15
6.2318e-15
6.55326e-15
6.22393e-15
6.53066e-15
6.2156e-15
6.50712e-15
6.20681e-15
6.48267e-15
6.19759e-15
6.45755e-15
6.18768e-15
6.43165e-15
6.17736e-15
6.40517e-15
6.16665e-15
6.37792e-15
6.15505e-15
6.35004e-15
6.14285e-15
6.32132e-15
6.13046e-15
6.29191e-15
6.11757e-15
6.26194e-15
6.10412e-15
6.23131e-15
6.09013e-15
6.20006e-15
6.0757e-15
6.16812e-15
6.0606e-15
6.13545e-15
6.04517e-15
6.10227e-15
6.0294e-15
6.06821e-15
6.01332e-15
6.03388e-15
5.99664e-15
5.99947e-15
5.9786e-15
5.96474e-15
5.95989e-15
5.92962e-15
5.94093e-15
5.89429e-15
5.92096e-15
5.85816e-15
5.90077e-15
5.82181e-15
5.87999e-15
5.78515e-15
5.85853e-15
5.74859e-15
5.83606e-15
5.71159e-15
5.8126e-15
5.67374e-15
5.7898e-15
5.63535e-15
5.76718e-15
5.59692e-15
5.74296e-15
5.55827e-15
5.71807e-15
5.51903e-15
5.69338e-15
5.47947e-15
5.66784e-15
5.43985e-15
5.64208e-15
5.40001e-15
5.61631e-15
5.36e-15
5.58973e-15
5.31968e-15
5.56257e-15
5.27967e-15
5.53443e-15
5.24001e-15
5.50534e-15
5.20035e-15
5.47514e-15
5.16055e-15
5.44478e-15
5.12046e-15
5.41424e-15
5.0805e-15
5.38352e-15
5.04034e-15
5.35155e-15
5.00002e-15
5.31903e-15
4.95888e-15
5.28666e-15
4.91801e-15
5.25305e-15
4.87744e-15
5.21751e-15
4.83718e-15
5.18175e-15
4.79594e-15
5.14708e-15
4.75408e-15
5.11247e-15
4.71198e-15
5.07623e-15
4.66966e-15
5.0387e-15
4.62812e-15
5.00017e-15
4.58512e-15
4.96031e-15
4.54231e-15
4.922e-15
4.49811e-15
4.88389e-15
4.45415e-15
4.84244e-15
4.41013e-15
4.79955e-15
4.36544e-15
4.75838e-15
4.31947e-15
4.71697e-15
4.27287e-15
4.67402e-15
4.22504e-15
4.62886e-15
4.17727e-15
4.58271e-15
4.13024e-15
4.5375e-15
4.08333e-15
4.49189e-15
4.0353e-15
4.44391e-15
3.98419e-15
4.39548e-15
3.93265e-15
4.34656e-15
3.88333e-15
4.29647e-15
3.831e-15
4.2465e-15
3.77766e-15
4.1973e-15
3.72872e-15
4.14618e-15
3.67752e-15
4.09378e-15
3.62476e-15
4.04416e-15
3.57046e-15
3.99323e-15
3.51604e-15
3.93958e-15
3.45945e-15
3.88806e-15
3.40282e-15
3.83164e-15
3.3448e-15
3.77595e-15
3.2883e-15
3.72244e-15
3.23196e-15
3.66824e-15
3.17731e-15
3.60751e-15
3.11411e-15
3.55195e-15
3.05571e-15
3.49422e-15
2.99625e-15
3.43428e-15
2.93578e-15
3.37211e-15
2.87285e-15
3.31075e-15
2.81367e-15
3.24869e-15
2.75686e-15
3.18437e-15
2.69465e-15
3.11619e-15
2.63502e-15
3.04886e-15
2.56848e-15
2.98564e-15
2.50633e-15
2.92176e-15
2.44712e-15
2.85562e-15
2.37947e-15
2.79707e-15
2.31329e-15
2.73634e-15
2.24871e-15
2.67176e-15
2.18586e-15
2.6033e-15
2.12489e-15
2.54118e-15
2.05736e-15
2.48553e-15
1.99191e-15
2.42269e-15
1.92518e-15
2.35261e-15
1.85729e-15
2.28225e-15
1.78477e-15
2.21522e-15
1.71481e-15
2.14808e-15
1.65114e-15
2.08091e-15
1.58674e-15
2.01378e-15
1.51077e-15
1.93946e-15
1.43419e-15
1.86163e-15
1.36816e-15
1.78769e-15
1.29805e-15
1.7215e-15
1.22387e-15
1.65577e-15
1.15691e-15
1.57937e-15
1.0974e-15
1.4998e-15
1.03413e-15
1.42088e-15
9.67218e-16
1.34649e-15
8.81281e-16
1.27292e-15
8.03252e-16
1.19261e-15
7.33272e-16
1.10563e-15
6.71572e-16
1.03158e-15
6.10511e-16
9.58903e-16
5.18553e-16
8.87705e-16
4.27134e-16
8.14315e-16
3.40162e-16
7.43014e-16
2.45552e-16
6.74114e-16
1.75312e-16
6.03971e-16
9.7277e-17
5.40891e-16
1.12835e-17
4.69017e-16
-6.24917e-17
3.84554e-16
-1.36123e-16
2.87553e-16
-2.0938e-16
2.19092e-16
-2.90504e-16
1.46771e-16
-3.71447e-16
7.10141e-17
-4.5233e-16
-3.27358e-17
-5.41304e-16
-1.31308e-16
-6.04986e-16
-2.07832e-16
-6.84999e-16
-2.87135e-16
-7.563e-16
-3.77159e-16
-8.27016e-16
-4.52586e-16
-9.13976e-16
-5.38401e-16
-9.92011e-16
-6.51222e-16
-1.09458e-15
-7.65883e-16
-1.18778e-15
-8.48364e-16
-1.27178e-15
-9.40595e-16
-1.35499e-15
-1.00821e-15
-1.43758e-15
-1.08447e-15
-1.52829e-15
-1.17732e-15
-1.61019e-15
-1.25228e-15
-1.68341e-15
-1.36005e-15
-1.75601e-15
-1.47498e-15
-1.82739e-15
-1.57153e-15
-1.91419e-15
-1.64948e-15
-1.9996e-15
-1.71668e-15
-2.06679e-15
-1.79796e-15
-2.14139e-15
-1.90141e-15
-2.21405e-15
-1.99259e-15
-2.27573e-15
-2.0797e-15
-2.34302e-15
-2.12817e-15
-2.4249e-15
-2.17949e-15
-2.49663e-15
-2.24883e-15
-2.57519e-15
-2.36905e-15
-2.64188e-15
-2.52306e-15
-2.74574e-15
-2.62654e-15
-2.88668e-15
-2.69554e-15
-2.94673e-15
-2.81271e-15
-3.06093e-15
-2.92757e-15
-3.17761e-15
-3.03931e-15
-3.27979e-15
-3.14679e-15
-3.40144e-15
-3.28276e-15
-3.52493e-15
-3.39523e-15
-3.65049e-15
-3.551e-15
-3.77672e-15
-3.68306e-15
-3.90324e-15
-3.80815e-15
-4.04676e-15
-3.89143e-15
-4.17594e-15
-3.99755e-15
-4.27497e-15
-4.10836e-15
-4.37624e-15
-4.22335e-15
-4.49557e-15
-4.35967e-15
-4.63226e-15
-4.46656e-15
-4.77122e-15
-4.60695e-15
-4.92866e-15
-4.69751e-15
-5.04167e-15
-4.84978e-15
-5.15783e-15
-5.06435e-15
-5.30362e-15
-5.18108e-15
-5.46331e-15
-5.33016e-15
-5.57271e-15
-5.50884e-15
-5.75746e-15
-5.65462e-15
-5.90564e-15
-5.73356e-15
-6.05448e-15
-5.88536e-15
-6.17217e-15
-6.07589e-15
-6.33259e-15
-6.26089e-15
-6.4693e-15
-6.34676e-15
-6.58607e-15
-6.42474e-15
-6.717e-15
-6.55e-15
-6.86005e-15
-6.72002e-15
-7.07608e-15
-6.9078e-15
-7.24492e-15
-7.11222e-15
-7.36503e-15
-7.24176e-15
-7.52608e-15
-7.38923e-15
-7.67184e-15
-7.49151e-15
-7.7758e-15
-7.66185e-15
-7.8599e-15
-7.81413e-15
-8.00726e-15
-7.92691e-15
-8.10174e-15
-8.09142e-15
-8.19489e-15
-8.22553e-15
-8.33934e-15
-8.30411e-15
-8.45636e-15
-8.46357e-15
-8.56742e-15
-8.6235e-15
-8.66569e-15
-8.67843e-15
-8.75838e-15
-8.70734e-15
-8.85499e-15
-8.78282e-15
-8.9025e-15
-8.86889e-15
-9.00339e-15
-8.99777e-15
-9.04697e-15
-9.0116e-15
-9.09401e-15
-9.04364e-15
-9.20184e-15
-9.19759e-15
-9.23476e-15
-9.26468e-15
-9.2356e-15
-9.22979e-15
-9.28518e-15
-9.24711e-15
-9.36076e-15
-9.33466e-15
-9.4132e-15
-9.36264e-15
-9.43678e-15
-9.40747e-15
-9.45539e-15
-9.45536e-15
-9.46298e-15
-9.53994e-15
-9.44333e-15
-9.52677e-15
-9.48502e-15
-9.52179e-15
-9.55259e-15
-9.5127e-15
-9.62248e-15
-9.58442e-15
-9.67224e-15
-9.6328e-15
-9.63351e-15
-9.58952e-15
-9.61707e-15
-9.58589e-15
-9.61797e-15
-9.63096e-15
-9.62096e-15
-9.63153e-15
-9.61832e-15
-9.57952e-15
-9.65082e-15
-9.54023e-15
-9.63306e-15
-9.57732e-15
-9.65025e-15
-9.62493e-15
-9.67017e-15
-9.6648e-15
-9.66202e-15
-9.67753e-15
-9.64771e-15
-9.66545e-15
-9.6301e-15
-9.60526e-15
-9.61442e-15
-9.51143e-15
-9.63873e-15
-9.5325e-15
-9.623e-15
-9.58839e-15
-9.64015e-15
-9.55376e-15
-9.64249e-15
-9.50515e-15
-9.63568e-15
-9.52348e-15
-9.64863e-15
-9.49351e-15
-9.62684e-15
-9.4898e-15
-9.62318e-15
-9.49099e-15
-9.60631e-15
-9.4751e-15
-9.60764e-15
-9.47246e-15
-9.59879e-15
-9.45345e-15
-9.57896e-15
-9.45171e-15
-9.57295e-15
-9.43962e-15
-9.57984e-15
-9.47656e-15
-9.56409e-15
-9.53875e-15
-9.5487e-15
-9.54155e-15
-9.50363e-15
-9.5157e-15
-9.48841e-15
-9.46331e-15
-9.50592e-15
-9.40785e-15
-9.53306e-15
-9.40073e-15
-9.48151e-15
-9.43918e-15
-9.46834e-15
-9.40584e-15
-9.46312e-15
-9.33201e-15
-9.47113e-15
-9.34099e-15
-9.42894e-15
-9.30764e-15
-9.39928e-15
-9.23401e-15
-9.35158e-15
-9.23163e-15
-9.28153e-15
-9.23929e-15
-9.21506e-15
-9.16455e-15
-9.16899e-15
-9.17019e-15
-9.14054e-15
-9.09745e-15
-9.08324e-15
-9.07302e-15
-9.02745e-15
-9.01723e-15
-9.0061e-15
-8.96496e-15
-8.95474e-15
-8.93147e-15
-8.90524e-15
-8.88404e-15
-8.85809e-15
-8.82308e-15
-8.83045e-15
-8.78031e-15
-8.80528e-15
-8.72175e-15
-8.76638e-15
-8.696e-15
-8.74619e-15
-8.70312e-15
-8.74451e-15
-8.62722e-15
-8.69679e-15
-8.51564e-15
-8.689e-15
-8.43319e-15
-8.67323e-15
-8.41041e-15
-8.66662e-15
-8.44686e-15
-8.63366e-15
-8.42482e-15
-8.62507e-15
-8.37841e-15
-8.60716e-15
-8.3575e-15
-8.5795e-15
-8.34503e-15
-8.55866e-15
-8.35855e-15
-8.54325e-15
-8.33084e-15
-8.53319e-15
-8.31324e-15
-8.51114e-15
-8.32328e-15
-8.49307e-15
-8.34513e-15
-8.47769e-15
-8.38015e-15
-8.49815e-15
-8.41283e-15
-8.51997e-15
-8.42634e-15
-8.50054e-15
-8.41191e-15
-8.49976e-15
-8.41263e-15
-8.50898e-15
-8.43744e-15
-8.5194e-15
-8.45251e-15
-8.52239e-15
-8.44945e-15
-8.52665e-15
-8.46249e-15
-8.54061e-15
-8.50044e-15
-8.55536e-15
-8.49515e-15
-8.57132e-15
-8.47232e-15
-8.56341e-15
-8.46582e-15
-8.55717e-15
-8.47564e-15
-8.56084e-15
-8.50187e-15
-8.54857e-15
-8.52773e-15
-8.53686e-15
-8.53675e-15
-8.52534e-15
-8.52935e-15
-8.53941e-15
-8.51408e-15
-8.55399e-15
-8.50759e-15
-8.55243e-15
-8.50123e-15
-8.55164e-15
-8.48657e-15
-8.56011e-15
-8.44671e-15
-8.56154e-15
-8.43983e-15
-8.56436e-15
-8.449e-15
-8.56852e-15
-8.441e-15
-8.55745e-15
-8.43239e-15
-8.54766e-15
-8.4315e-15
-8.53893e-15
-8.43016e-15
-8.5312e-15
-8.42019e-15
-8.52443e-15
-8.41805e-15
-8.51849e-15
-8.42374e-15
-8.50516e-15
-8.42106e-15
-8.4965e-15
-8.41419e-15
-8.48031e-15
-8.41123e-15
-8.47661e-15
-8.39212e-15
-8.46139e-15
-8.3849e-15
-8.45054e-15
-8.39351e-15
-8.45183e-15
-8.39418e-15
-8.45731e-15
-8.38696e-15
-8.45523e-15
-8.3797e-15
-8.45348e-15
-8.37627e-15
-8.45207e-15
-8.36496e-15
-8.4549e-15
-8.35352e-15
-8.46201e-15
-8.34188e-15
-8.46197e-15
-8.34141e-15
-8.46626e-15
-8.34438e-15
-8.46729e-15
-8.34323e-15
-8.46512e-15
-8.34549e-15
-8.46348e-15
-8.3437e-15
-8.46236e-15
-8.33791e-15
-8.45809e-15
-8.33917e-15
-8.45797e-15
-8.34011e-15
-8.46195e-15
-8.34435e-15
-8.45196e-15
-8.34107e-15
-8.44603e-15
-8.33397e-15
-8.44409e-15
-8.33376e-15
-8.44253e-15
-8.34386e-15
-8.43434e-15
-8.34669e-15
-8.4265e-15
-8.33895e-15
-8.43102e-15
-8.33284e-15
-8.43068e-15
-8.33343e-15
-8.43232e-15
-8.33045e-15
-8.42584e-15
-8.32733e-15
-8.42301e-15
-8.32573e-15
-8.4221e-15
-8.32894e-15
-8.42145e-15
-8.32709e-15
-8.42103e-15
-8.32026e-15
-8.42085e-15
-8.31334e-15
-8.41773e-15
-8.31111e-15
-8.41644e-15
-8.3119e-15
-8.41851e-15
-8.30785e-15
-8.41612e-15
-8.30525e-15
-8.4155e-15
-8.30407e-15
-8.41509e-15
-8.30123e-15
-8.41336e-15
-8.2998e-15
-8.41183e-15
-8.29824e-15
-8.40458e-15
-8.29953e-15
-8.40048e-15
-8.29922e-15
-8.39802e-15
-8.29881e-15
-8.39427e-15
-8.2983e-15
-8.38639e-15
-8.29772e-15
-8.38576e-15
-8.30129e-15
-8.38663e-15
-8.30337e-15
-8.38481e-15
-8.30397e-15
-8.38378e-15
-8.30382e-15
-8.38079e-15
-8.30156e-15
-8.38129e-15
-8.2979e-15
-8.38321e-15
-8.29824e-15
-8.38119e-15
-8.29986e-15
-8.38058e-15
-8.29809e-15
-8.3807e-15
-8.29628e-15
-8.38024e-15
-8.29573e-15
-8.37984e-15
-8.29513e-15
-8.37886e-15
-8.29449e-15
-8.37859e-15
-8.29379e-15
-8.37774e-15
-8.2937e-15
-8.37694e-15
-8.29419e-15
-8.37747e-15
-8.29272e-15
-8.37742e-15
-8.29121e-15
-8.37614e-15
-8.29029e-15
-8.37618e-15
-8.28869e-15
-8.37692e-15
-8.28833e-15
-8.37769e-15
-8.28792e-15
-8.3782e-15
-8.28683e-15
-8.37778e-15
-8.28505e-15
-8.3774e-15
-8.2829e-15
-8.37738e-15
-8.28168e-15
-8.37741e-15
-8.28139e-15
-8.37747e-15
-8.28073e-15
-8.37658e-15
-8.28004e-15
-8.37538e-15
-8.27897e-15
-8.37455e-15
-8.27886e-15
-8.37339e-15
-8.27975e-15
-8.37191e-15
-8.27959e-15
-8.37114e-15
-8.278e-15
-8.37004e-15
-8.27742e-15
-8.36894e-15
-8.27753e-15
-8.36786e-15
-8.27652e-15
-8.36716e-15
-8.27511e-15
-8.36609e-15
-8.27515e-15
-8.36579e-15
-8.27554e-15
-8.36569e-15
-8.27496e-15
-8.36502e-15
-8.27435e-15
-8.36417e-15
-8.2739e-15
-8.36353e-15
-8.27343e-15
-8.3637e-15
-8.27294e-15
-8.3639e-15
-8.27221e-15
-8.36348e-15
-8.27166e-15
-8.36329e-15
-8.27131e-15
-8.36289e-15
-8.27071e-15
-8.3625e-15
-8.2703e-15
-8.36234e-15
-8.27101e-15
-8.36219e-15
-8.27125e-15
-8.36182e-15
-8.27032e-15
-8.36145e-15
-8.26983e-15
-8.36146e-15
-8.26968e-15
-8.36123e-15
-8.26964e-15
-8.361e-15
-8.26946e-15
-8.36078e-15
-8.26902e-15
-8.36057e-15
-8.26881e-15
-8.3605e-15
-8.26912e-15
-8.3603e-15
-8.26915e-15
-8.35997e-15
-8.26877e-15
-8.35964e-15
-8.26879e-15
-8.3596e-15
-8.2688e-15
-8.35956e-15
-8.2688e-15
-8.35954e-15
-8.26909e-15
-8.35921e-15
-8.26952e-15
-8.35874e-15
-8.26996e-15
-8.35866e-15
-8.27024e-15
-8.3585e-15
-8.27036e-15
-8.35826e-15
-8.27072e-15
-8.35802e-15
-8.27108e-15
-8.35796e-15
-8.27111e-15
-8.35781e-15
-8.27104e-15
-8.35766e-15
-8.27106e-15
-8.35752e-15
-8.27124e-15
-8.35738e-15
-8.27134e-15
-8.35733e-15
-8.27138e-15
-8.35734e-15
-8.27138e-15
-8.35725e-15
-8.27142e-15
-8.35707e-15
-8.2715e-15
-8.35699e-15
-8.27143e-15
-8.35685e-15
-8.27136e-15
-8.35678e-15
-8.27138e-15
-8.3567e-15
-8.2714e-15
-8.35665e-15
-8.27137e-15
-8.35655e-15
-8.27135e-15
-8.35651e-15
-8.27145e-15
-8.35653e-15
-8.27148e-15
-8.35652e-15
-8.27146e-15
-8.35651e-15
-8.27146e-15
-8.35648e-15
-8.27147e-15
-8.35643e-15
-8.27149e-15
-8.35647e-15
-8.27149e-15
-8.35648e-15
-8.2715e-15
-8.3565e-15
-8.27149e-15
-8.35651e-15
-8.2715e-15
-8.35651e-15
-8.27151e-15
-8.35651e-15
-8.27151e-15
-9.59247e-15
-9.58972e-15
-9.55227e-15
-9.58835e-15
-9.54293e-15
-9.54513e-15
-9.57499e-15
-9.60001e-15
-9.6475e-15
-9.65752e-15
-9.61716e-15
-9.61677e-15
-9.61276e-15
-9.57994e-15
-9.66404e-15
-9.61904e-15
-9.67547e-15
-9.65329e-15
-9.6941e-15
-9.65943e-15
-9.69515e-15
-9.68516e-15
-9.64702e-15
-9.62857e-15
-9.65648e-15
-9.61943e-15
-9.67489e-15
-9.57741e-15
-9.65966e-15
-9.57958e-15
-9.63119e-15
-9.60047e-15
-9.63617e-15
-9.56128e-15
-9.65228e-15
-9.48258e-15
-9.57974e-15
-9.57692e-15
-9.61833e-15
-9.64652e-15
-9.62228e-15
-9.58584e-15
-9.63073e-15
-9.49705e-15
-9.5684e-15
-9.47936e-15
-9.5438e-15
-9.48057e-15
-9.55251e-15
-9.38544e-15
-9.57756e-15
-9.38691e-15
-9.5933e-15
-9.39426e-15
-9.63111e-15
-9.37835e-15
-9.60572e-15
-9.45393e-15
-9.53561e-15
-9.48029e-15
-9.50056e-15
-9.43696e-15
-9.502e-15
-9.47721e-15
-9.47499e-15
-9.54733e-15
-9.40909e-15
-9.56702e-15
-9.38809e-15
-9.57481e-15
-9.38043e-15
-9.50748e-15
-9.35988e-15
-9.4214e-15
-9.33102e-15
-9.3746e-15
-9.2941e-15
-9.29971e-15
-9.28435e-15
-9.19238e-15
-9.26062e-15
-9.19059e-15
-9.23832e-15
-9.18314e-15
-9.16902e-15
-9.1054e-15
-9.1182e-15
-9.03833e-15
-9.07025e-15
-9.04502e-15
-9.03808e-15
-8.98301e-15
-8.99096e-15
-8.84944e-15
-8.94986e-15
-8.78713e-15
-8.91514e-15
-8.76242e-15
-8.83642e-15
-8.69323e-15
-8.79583e-15
-8.68011e-15
-8.80912e-15
-8.62531e-15
-8.81282e-15
-8.59315e-15
-8.80863e-15
-8.60012e-15
-8.74571e-15
-8.5296e-15
-8.70762e-15
-8.48154e-15
-8.71083e-15
-8.42265e-15
-8.65626e-15
-8.42009e-15
-8.62595e-15
-8.4435e-15
-8.60068e-15
-8.47867e-15
-8.56104e-15
-8.49353e-15
-8.5736e-15
-8.49033e-15
-8.57069e-15
-8.48633e-15
-8.53533e-15
-8.49892e-15
-8.53463e-15
-8.49545e-15
-8.53463e-15
-8.47555e-15
-8.53598e-15
-8.43878e-15
-8.53969e-15
-8.41836e-15
-8.54652e-15
-8.41344e-15
-8.53968e-15
-8.40633e-15
-8.53635e-15
-8.43108e-15
-8.52696e-15
-8.45385e-15
-8.52771e-15
-8.44962e-15
-8.52159e-15
-8.42705e-15
-8.51742e-15
-8.42008e-15
-8.51505e-15
-8.42844e-15
-8.51413e-15
-8.43512e-15
-8.51444e-15
-8.44036e-15
-8.51583e-15
-8.46143e-15
-8.50928e-15
-8.42988e-15
-8.51213e-15
-8.38814e-15
-8.51633e-15
-8.38689e-15
-8.51342e-15
-8.40896e-15
-8.50306e-15
-8.43773e-15
-8.50171e-15
-8.44817e-15
-8.50924e-15
-8.44044e-15
-8.49192e-15
-8.43134e-15
-8.49209e-15
-8.41253e-15
-8.50132e-15
-8.39234e-15
-8.50297e-15
-8.37887e-15
-8.50563e-15
-8.36355e-15
-8.50104e-15
-8.35467e-15
-8.49757e-15
-8.344e-15
-8.48686e-15
-8.33153e-15
-8.49387e-15
-8.33387e-15
-8.50189e-15
-8.3261e-15
-8.51937e-15
-8.31649e-15
-8.49701e-15
-8.32136e-15
-8.50057e-15
-8.30804e-15
-8.5054e-15
-8.30115e-15
-8.49526e-15
-8.3006e-15
-8.4986e-15
-8.29832e-15
-8.5032e-15
-8.2984e-15
-8.49296e-15
-8.30489e-15
-8.49197e-15
-8.28981e-15
-8.49621e-15
-8.27333e-15
-8.48984e-15
-8.27525e-15
-8.46892e-15
-8.27964e-15
-8.47279e-15
-8.27484e-15
-8.47375e-15
-8.27663e-15
-8.4679e-15
-8.27721e-15
-8.45912e-15
-8.27666e-15
-8.45123e-15
-8.2751e-15
-8.44414e-15
-8.26877e-15
-8.4416e-15
-8.27304e-15
-8.42833e-15
-8.27648e-15
-8.4232e-15
-8.2754e-15
-8.41482e-15
-8.28114e-15
-8.41061e-15
-8.28625e-15
-8.40307e-15
-8.2908e-15
-8.39953e-15
-8.29853e-15
-8.39259e-15
-8.30583e-15
-8.38949e-15
-8.3055e-15
-8.38656e-15
-8.30126e-15
-8.38379e-15
-8.30033e-15
-8.38474e-15
-8.30267e-15
-8.37879e-15
-8.30474e-15
-8.37997e-15
-8.29606e-15
-8.37782e-15
-8.28719e-15
-8.37584e-15
-8.2867e-15
-8.37061e-15
-8.29449e-15
-8.3706e-15
-8.29184e-15
-8.36398e-15
-8.28734e-15
-8.36084e-15
-8.28434e-15
-8.35781e-15
-8.28446e-15
-8.36143e-15
-8.28114e-15
-8.35539e-15
-8.27927e-15
-8.35108e-15
-8.28046e-15
-8.35801e-15
-8.28149e-15
-8.36023e-15
-8.27763e-15
-8.35626e-15
-8.27364e-15
-8.3555e-15
-8.27419e-15
-8.3579e-15
-8.27459e-15
-8.36339e-15
-8.27332e-15
-8.36289e-15
-8.27493e-15
-8.36099e-15
-8.2764e-15
-8.36066e-15
-8.27626e-15
-8.36187e-15
-8.27453e-15
-8.36606e-15
-8.2727e-15
-8.36598e-15
-8.26932e-15
-8.36314e-15
-8.27014e-15
-8.36323e-15
-8.27083e-15
-8.36481e-15
-8.2714e-15
-8.36438e-15
-8.27117e-15
-8.36402e-15
-8.2736e-15
-8.36238e-15
-8.27659e-15
-8.36081e-15
-8.27811e-15
-8.36134e-15
-8.2782e-15
-8.36059e-15
-8.27955e-15
-8.36255e-15
-8.27949e-15
-8.3639e-15
-8.2787e-15
-8.36464e-15
-8.27916e-15
-8.36347e-15
-8.2802e-15
-8.36431e-15
-8.28118e-15
-8.36519e-15
-8.2808e-15
-8.36612e-15
-8.281e-15
-8.36517e-15
-8.2818e-15
-8.36619e-15
-8.28253e-15
-8.36661e-15
-8.28194e-15
-8.36708e-15
-8.28194e-15
-8.36822e-15
-8.28189e-15
-8.36941e-15
-8.2818e-15
-8.36936e-15
-8.28166e-15
-8.37032e-15
-8.28052e-15
-8.37131e-15
-8.27933e-15
-8.37138e-15
-8.27874e-15
-8.37181e-15
-8.27745e-15
-8.37195e-15
-8.2771e-15
-8.37246e-15
-8.27737e-15
-8.37301e-15
-8.27562e-15
-8.37327e-15
-8.27414e-15
-8.37356e-15
-8.27363e-15
-8.37354e-15
-8.27343e-15
-8.37322e-15
-8.27249e-15
-8.37431e-15
-8.27117e-15
-8.37616e-15
-8.2698e-15
-8.37663e-15
-8.26873e-15
-8.37715e-15
-8.26835e-15
-8.37696e-15
-8.26829e-15
-8.37718e-15
-8.2682e-15
-8.37724e-15
-8.26752e-15
-8.37733e-15
-8.26699e-15
-8.37803e-15
-8.26662e-15
-8.37817e-15
-8.26681e-15
-8.37814e-15
-8.26637e-15
-8.37835e-15
-8.2655e-15
-8.37858e-15
-8.2648e-15
-8.37862e-15
-8.26448e-15
-8.37848e-15
-8.26414e-15
-8.37836e-15
-8.26311e-15
-8.37892e-15
-8.2616e-15
-8.37883e-15
-8.26095e-15
-8.37853e-15
-8.26095e-15
-8.37825e-15
-8.26094e-15
-8.37799e-15
-8.26055e-15
-8.37834e-15
-8.25989e-15
-8.37834e-15
-8.25908e-15
-8.37874e-15
-8.25887e-15
-8.37891e-15
-8.25889e-15
-8.37871e-15
-8.25864e-15
-8.37838e-15
-8.2581e-15
-8.37848e-15
-8.2578e-15
-8.37886e-15
-8.25763e-15
-8.37912e-15
-8.25758e-15
-8.37926e-15
-8.25751e-15
-8.37941e-15
-8.25728e-15
-8.37973e-15
-8.25704e-15
-8.37962e-15
-8.25693e-15
-8.37959e-15
-8.25696e-15
-8.37996e-15
-8.25706e-15
-8.38003e-15
-8.25715e-15
-8.38004e-15
-8.25723e-15
-8.37997e-15
-8.25722e-15
-8.37991e-15
-8.25729e-15
-8.37995e-15
-8.25726e-15
-8.37999e-15
-8.25731e-15
-8.37987e-15
-8.25743e-15
-8.37975e-15
-8.25756e-15
-8.37955e-15
-8.25758e-15
-8.37949e-15
-8.25751e-15
-8.37939e-15
-8.25766e-15
-8.3792e-15
-8.25767e-15
-8.37916e-15
-8.25751e-15
-8.37913e-15
-8.25761e-15
-8.37895e-15
-8.25764e-15
-8.37882e-15
-8.25762e-15
-8.37878e-15
-8.25756e-15
-8.37871e-15
-8.25758e-15
-8.37863e-15
-8.2576e-15
-8.37863e-15
-8.25764e-15
-8.37855e-15
-8.25764e-15
-8.3785e-15
-8.25758e-15
-8.37845e-15
-8.25759e-15
-8.37839e-15
-8.25758e-15
-8.37844e-15
-8.25755e-15
-8.37845e-15
-8.25755e-15
-8.37843e-15
-8.25755e-15
-8.3784e-15
-8.25755e-15
-8.3784e-15
-8.25755e-15
-8.3784e-15
-8.25756e-15
)
;

boundaryField
{
    walls
    {
        type            zeroGradient;
    }
    inlet
    {
        type            cyclic;
    }
    outlet
    {
        type            cyclic;
    }
    sides
    {
        type            empty;
    }
}


// ************************************************************************* //
