/*--------------------------------*- C++ -*----------------------------------*\
| =========                 |                                                 |
| \\      /  F ield         | OpenFOAM: The Open Source CFD Toolbox           |
|  \\    /   O peration     | Version:  2106                                  |
|   \\  /    A nd           | Website:  www.openfoam.com                      |
|    \\/     M anipulation  |                                                 |
\*---------------------------------------------------------------------------*/
FoamFile
{
    version     2.0;
    format      ascii;
    arch        "LSB;label=32;scalar=64";
    class       surfaceScalarField;
    location    "10070";
    object      phi;
}
// * * * * * * * * * * * * * * * * * * * * * * * * * * * * * * * * * * * * * //

dimensions      [0 3 -1 0 0 0 0];

oriented        oriented;

internalField   nonuniform List<scalar> 
3996
(
1.113e-08
-5.69042e-18
6.64613e-23
5.76389e-23
2.88056e-23
3.42208e-08
-5.69283e-18
8.66083e-22
1.45092e-21
1.46688e-22
5.86005e-08
-5.69529e-18
8.88617e-22
2.86744e-21
1.54917e-22
8.43249e-08
-5.69779e-18
9.00517e-22
4.28867e-21
1.63523e-22
1.11453e-07
-5.70031e-18
9.13501e-22
5.72893e-21
1.72514e-22
1.40044e-07
-5.70286e-18
9.28531e-22
7.14029e-21
1.81898e-22
1.70162e-07
-5.70544e-18
9.43772e-22
8.60503e-21
1.91688e-22
2.01873e-07
-5.70803e-18
9.5875e-22
1.00669e-20
2.01894e-22
2.35244e-07
-5.71067e-18
9.73398e-22
1.15375e-20
2.12527e-22
2.70347e-07
-5.71345e-18
9.87682e-22
1.30393e-20
2.23599e-22
3.07255e-07
-5.71617e-18
1.00156e-21
1.45019e-20
2.35122e-22
3.46044e-07
-5.71893e-18
1.015e-21
1.60411e-20
2.47109e-22
3.86794e-07
-5.72167e-18
1.02795e-21
1.75072e-20
2.59567e-22
4.29588e-07
-5.72443e-18
1.04039e-21
1.89808e-20
2.7251e-22
4.74511e-07
-5.72709e-18
1.05225e-21
2.03448e-20
2.85951e-22
5.21654e-07
-5.72991e-18
1.06349e-21
2.16534e-20
2.99898e-22
5.71108e-07
-5.7328e-18
1.07406e-21
2.31635e-20
3.14366e-22
6.22971e-07
-5.73577e-18
1.0839e-21
2.44977e-20
3.2936e-22
6.77342e-07
-5.73841e-18
1.09295e-21
2.58492e-20
3.44888e-22
7.34325e-07
-5.74137e-18
1.10115e-21
2.72605e-20
3.60955e-22
7.94029e-07
-5.74415e-18
1.10844e-21
2.8579e-20
3.77573e-22
8.56565e-07
-5.74683e-18
1.11474e-21
2.98381e-20
3.94754e-22
9.22052e-07
-5.74989e-18
1.11999e-21
3.11058e-20
4.12506e-22
9.90609e-07
-5.7526e-18
1.12412e-21
3.23757e-20
4.30828e-22
1.06236e-06
-5.7559e-18
1.12704e-21
3.37233e-20
4.49729e-22
1.13744e-06
-5.7585e-18
1.12872e-21
3.49242e-20
4.69197e-22
1.21599e-06
-5.76147e-18
1.12901e-21
3.58608e-20
4.89249e-22
1.29814e-06
-5.76384e-18
1.12787e-21
3.65803e-20
5.09914e-22
1.38403e-06
-5.76665e-18
1.12519e-21
3.77648e-20
5.312e-22
1.47383e-06
-5.76896e-18
1.12089e-21
3.85955e-20
5.53068e-22
1.56769e-06
-5.7716e-18
1.11487e-21
3.97901e-20
5.75547e-22
1.66578e-06
-5.77364e-18
1.10705e-21
4.03062e-20
5.98621e-22
1.76825e-06
-5.77631e-18
1.09732e-21
4.10899e-20
6.22305e-22
1.8753e-06
-5.77884e-18
1.0856e-21
4.18012e-20
6.46562e-22
1.98709e-06
-5.78189e-18
1.07177e-21
4.31799e-20
6.71398e-22
2.10383e-06
-5.78421e-18
1.05578e-21
4.41471e-20
6.9674e-22
2.22571e-06
-5.78651e-18
1.03746e-21
4.44308e-20
7.22588e-22
2.35292e-06
-5.78969e-18
1.01674e-21
4.57085e-20
7.48951e-22
2.48568e-06
-5.79141e-18
9.93493e-22
4.58622e-20
7.75782e-22
2.62422e-06
-5.79235e-18
9.67495e-22
4.56108e-20
8.0315e-22
2.76874e-06
-5.79409e-18
9.38608e-22
4.65692e-20
8.31007e-22
2.9195e-06
-5.79661e-18
9.06786e-22
4.65794e-20
8.59246e-22
3.07672e-06
-5.7984e-18
8.71952e-22
4.66069e-20
8.87928e-22
3.24066e-06
-5.79978e-18
8.34004e-22
4.5982e-20
9.16944e-22
3.41158e-06
-5.80055e-18
7.92734e-22
4.513e-20
9.46351e-22
3.58974e-06
-5.80068e-18
7.47998e-22
4.43185e-20
9.76151e-22
3.77541e-06
-5.80232e-18
6.99627e-22
4.3789e-20
1.00629e-21
3.96887e-06
-5.80141e-18
6.47636e-22
4.29882e-20
1.0367e-21
4.17042e-06
-5.8034e-18
5.91849e-22
4.17604e-20
1.06714e-21
4.38035e-06
-5.80343e-18
5.32387e-22
4.1136e-20
1.09761e-21
4.59897e-06
-5.80359e-18
4.68847e-22
3.94481e-20
1.12804e-21
4.82658e-06
-5.80233e-18
4.01162e-22
3.77463e-20
1.15837e-21
5.06352e-06
-5.80192e-18
3.29213e-22
3.53138e-20
1.18841e-21
5.31009e-06
-5.80039e-18
2.52947e-22
3.28212e-20
1.21822e-21
5.56664e-06
-5.79631e-18
1.72118e-22
2.89004e-20
1.24765e-21
5.83349e-06
-5.79511e-18
8.63737e-23
2.69223e-20
1.27671e-21
6.111e-06
-5.7933e-18
-4.02631e-24
2.43189e-20
1.30515e-21
6.3995e-06
-5.79156e-18
-9.93079e-23
2.08403e-20
1.33302e-21
6.69934e-06
-5.78843e-18
-1.99593e-22
1.60021e-20
1.36033e-21
7.01086e-06
-5.78437e-18
-3.05134e-22
1.14982e-20
1.38706e-21
7.33443e-06
-5.7811e-18
-4.15908e-22
8.13243e-21
1.41302e-21
7.67037e-06
-5.78146e-18
-5.32043e-22
5.47173e-21
1.43807e-21
8.01904e-06
-5.77718e-18
-6.5292e-22
-2.0248e-22
1.4617e-21
8.38078e-06
-5.77482e-18
-7.78793e-22
-5.63953e-21
1.48412e-21
8.75593e-06
-5.76638e-18
-9.09357e-22
-1.21984e-20
1.50547e-21
9.1448e-06
-5.75687e-18
-1.04517e-21
-1.86978e-20
1.52545e-21
9.54773e-06
-5.74993e-18
-1.18595e-21
-2.66344e-20
1.54358e-21
9.96502e-06
-5.74492e-18
-1.33129e-21
-3.29841e-20
1.56023e-21
1.0397e-05
-5.73718e-18
-1.48067e-21
-3.78883e-20
1.57508e-21
1.08439e-05
-5.72933e-18
-1.63437e-21
-4.74607e-20
1.58737e-21
1.1306e-05
-5.71928e-18
-1.79156e-21
-5.53152e-20
1.59733e-21
1.17837e-05
-5.71316e-18
-1.95263e-21
-6.15332e-20
1.60493e-21
1.2277e-05
-5.70328e-18
-2.1164e-21
-7.34427e-20
1.61013e-21
1.27864e-05
-5.6945e-18
-2.28352e-21
-8.18698e-20
1.61355e-21
1.3312e-05
-5.685e-18
-2.45284e-21
-9.04829e-20
1.61442e-21
1.3854e-05
-5.67595e-18
-2.62286e-21
-9.91121e-20
1.61263e-21
1.44126e-05
-5.66709e-18
-2.79421e-21
-1.07416e-19
1.60773e-21
1.4988e-05
-5.65367e-18
-2.96547e-21
-1.18255e-19
1.60006e-21
1.55804e-05
-5.64385e-18
-3.13729e-21
-1.28206e-19
1.59071e-21
1.619e-05
-5.63418e-18
-3.30857e-21
-1.3604e-19
1.57865e-21
1.6817e-05
-5.62261e-18
-3.47788e-21
-1.45448e-19
1.56198e-21
1.74614e-05
-5.60872e-18
-3.64527e-21
-1.58584e-19
1.54229e-21
1.81235e-05
-5.59246e-18
-3.81107e-21
-1.65436e-19
1.5212e-21
1.88035e-05
-5.57816e-18
-3.97532e-21
-1.77678e-19
1.49673e-21
1.95014e-05
-5.56224e-18
-4.13899e-21
-1.94466e-19
1.47101e-21
2.02175e-05
-5.54791e-18
-4.30294e-21
-2.07463e-19
1.44613e-21
2.0952e-05
-5.53903e-18
-4.46594e-21
-2.20801e-19
1.42228e-21
2.1705e-05
-5.52532e-18
-4.62531e-21
-2.35839e-19
1.39996e-21
2.24767e-05
-5.50386e-18
-4.78072e-21
-2.55468e-19
1.37889e-21
2.32673e-05
-5.49501e-18
-4.93489e-21
-2.62989e-19
1.36033e-21
2.4077e-05
-5.48082e-18
-5.08502e-21
-2.76848e-19
1.33987e-21
2.49061e-05
-5.46522e-18
-5.22892e-21
-2.89246e-19
1.31899e-21
2.57548e-05
-5.43667e-18
-5.36825e-21
-3.04185e-19
1.29702e-21
2.66233e-05
-5.41784e-18
-5.51339e-21
-3.18362e-19
1.27574e-21
2.7512e-05
-5.40529e-18
-5.6554e-21
-3.30727e-19
1.25542e-21
2.8421e-05
-5.38369e-18
-5.7909e-21
-3.41976e-19
1.23414e-21
2.93508e-05
-5.3613e-18
-5.92358e-21
-3.57174e-19
1.2129e-21
3.03015e-05
-5.33718e-18
-6.05624e-21
-3.72188e-19
1.19484e-21
3.12737e-05
-5.31683e-18
-6.18562e-21
-3.9582e-19
1.174e-21
3.22675e-05
-5.29437e-18
-6.31238e-21
-4.12271e-19
1.15863e-21
3.32833e-05
-5.26611e-18
-6.43649e-21
-4.26788e-19
1.14549e-21
3.43217e-05
-5.24407e-18
-6.5657e-21
-4.49387e-19
1.13078e-21
3.53828e-05
-5.21584e-18
-6.69278e-21
-4.71718e-19
1.11864e-21
3.64672e-05
-5.18666e-18
-6.82615e-21
-4.93648e-19
1.11083e-21
3.75753e-05
-5.1625e-18
-6.95159e-21
-5.19112e-19
1.09552e-21
3.87075e-05
-5.13556e-18
-7.08293e-21
-5.48943e-19
1.08202e-21
3.98643e-05
-5.11796e-18
-7.21642e-21
-5.59606e-19
1.07735e-21
4.10461e-05
-5.09547e-18
-7.34486e-21
-5.7292e-19
1.07154e-21
4.22536e-05
-5.084e-18
-7.466e-21
-5.77196e-19
1.06175e-21
4.3487e-05
-5.05436e-18
-7.58407e-21
-5.93764e-19
1.04776e-21
4.47471e-05
-5.029e-18
-7.70987e-21
-6.08667e-19
1.04561e-21
4.60343e-05
-5.0055e-18
-7.83896e-21
-6.24562e-19
1.05625e-21
4.73492e-05
-4.97631e-18
-7.97496e-21
-6.50633e-19
1.06969e-21
4.86923e-05
-4.9348e-18
-8.10453e-21
-6.82426e-19
1.07927e-21
5.00643e-05
-4.91015e-18
-8.25241e-21
-7.02716e-19
1.09677e-21
5.14658e-05
-4.87411e-18
-8.40153e-21
-7.29856e-19
1.11037e-21
5.28973e-05
-4.83693e-18
-8.54771e-21
-7.49266e-19
1.1227e-21
5.43595e-05
-4.80069e-18
-8.69882e-21
-7.76694e-19
1.12346e-21
5.5853e-05
-4.77357e-18
-8.84783e-21
-7.97559e-19
1.11979e-21
5.73785e-05
-4.73628e-18
-8.98144e-21
-8.25054e-19
1.10627e-21
5.89368e-05
-4.70324e-18
-9.11798e-21
-8.51403e-19
1.08766e-21
6.05284e-05
-4.67552e-18
-9.25013e-21
-8.81617e-19
1.06213e-21
6.21541e-05
-4.64366e-18
-9.37365e-21
-8.9013e-19
1.036e-21
6.38147e-05
-4.60857e-18
-9.48284e-21
-9.08665e-19
9.91128e-22
6.55108e-05
-4.58392e-18
-9.61285e-21
-9.32828e-19
9.52973e-22
6.72433e-05
-4.55153e-18
-9.73631e-21
-9.56536e-19
9.2256e-22
6.90129e-05
-4.51447e-18
-9.86474e-21
-9.76319e-19
9.06936e-22
7.08204e-05
-4.48904e-18
-1.00115e-20
-9.94056e-19
9.01984e-22
7.26667e-05
-4.48978e-18
-1.01456e-20
-1.01923e-18
9.09361e-22
7.45525e-05
-4.45881e-18
-1.02117e-20
-1.04409e-18
9.59296e-22
7.64787e-05
-4.42813e-18
-1.02848e-20
-1.05825e-18
1.04781e-21
7.84463e-05
-4.38927e-18
-1.03712e-20
-1.07609e-18
1.11853e-21
8.04559e-05
-4.36985e-18
-1.04588e-20
-1.08974e-18
1.15547e-21
8.25087e-05
-4.31252e-18
-1.049e-20
-1.12226e-18
1.18834e-21
8.46055e-05
-4.28499e-18
-1.05882e-20
-1.13533e-18
1.29068e-21
8.67472e-05
-4.24409e-18
-1.07102e-20
-1.15409e-18
1.37276e-21
8.89348e-05
-4.22086e-18
-1.08513e-20
-1.18314e-18
1.44747e-21
9.11693e-05
-4.17309e-18
-1.09651e-20
-1.20618e-18
1.51209e-21
9.34518e-05
-4.13792e-18
-1.10438e-20
-1.22207e-18
1.57557e-21
9.57831e-05
-4.10264e-18
-1.11288e-20
-1.23608e-18
1.5974e-21
9.81644e-05
-4.04954e-18
-1.12449e-20
-1.26974e-18
1.60641e-21
0.000100597
-4.02149e-18
-1.14308e-20
-1.28866e-18
1.57798e-21
0.000103081
-3.98334e-18
-1.15685e-20
-1.30878e-18
1.53001e-21
0.000105619
-3.93815e-18
-1.15875e-20
-1.32157e-18
1.41301e-21
0.000108211
-3.90437e-18
-1.16193e-20
-1.34104e-18
1.27189e-21
0.000110859
-3.86953e-18
-1.16492e-20
-1.36635e-18
1.09908e-21
0.000113563
-3.83037e-18
-1.1644e-20
-1.39806e-18
9.34927e-22
0.000116326
-3.79286e-18
-1.17565e-20
-1.41544e-18
7.9172e-22
0.000119147
-3.75461e-18
-1.18502e-20
-1.44104e-18
6.00543e-22
0.000122029
-3.68558e-18
-1.18635e-20
-1.46508e-18
3.9603e-22
0.000124973
-3.63303e-18
-1.2053e-20
-1.47529e-18
1.84202e-22
0.000127979
-3.60829e-18
-1.23407e-20
-1.48512e-18
-8.11351e-23
0.00013105
-3.60837e-18
-1.25651e-20
-1.5026e-18
-6.32407e-22
0.000134187
-3.57573e-18
-1.25903e-20
-1.53894e-18
-1.27285e-21
0.000137391
-3.50025e-18
-1.25879e-20
-1.56228e-18
-1.79962e-21
0.000140663
-3.48258e-18
-1.28258e-20
-1.6027e-18
-2.05784e-21
0.000144006
-3.44341e-18
-1.29403e-20
-1.62605e-18
-2.24435e-21
0.000147419
-3.39503e-18
-1.31523e-20
-1.62199e-18
-2.5131e-21
0.000150906
-3.32581e-18
-1.32309e-20
-1.68469e-18
-2.86281e-21
0.000154467
-3.29983e-18
-1.34513e-20
-1.69347e-18
-3.04184e-21
0.000158104
-3.24933e-18
-1.35289e-20
-1.71171e-18
-3.33483e-21
0.000161819
-3.18751e-18
-1.36033e-20
-1.70992e-18
-3.55888e-21
0.000165613
-3.1474e-18
-1.38371e-20
-1.72546e-18
-3.88764e-21
0.000169488
-3.11757e-18
-1.38644e-20
-1.73453e-18
-4.32141e-21
0.000173446
-3.0701e-18
-1.39133e-20
-1.73969e-18
-4.84867e-21
0.000177488
-3.03607e-18
-1.41475e-20
-1.77186e-18
-5.45746e-21
0.000181616
-3.03011e-18
-1.4345e-20
-1.77565e-18
-6.20192e-21
0.000185832
-2.99715e-18
-1.44074e-20
-1.78459e-18
-6.9155e-21
0.000190137
-2.95492e-18
-1.44226e-20
-1.77692e-18
-7.36963e-21
0.000194534
-2.92301e-18
-1.46876e-20
-1.77394e-18
-8.00736e-21
0.000199025
-2.89428e-18
-1.50298e-20
-1.77785e-18
-8.64296e-21
0.000203611
-2.81982e-18
-1.53335e-20
-1.78183e-18
-9.20528e-21
0.000208294
-2.81678e-18
-1.57881e-20
-1.77159e-18
-9.89056e-21
0.000213077
-2.77228e-18
-1.57887e-20
-1.76541e-18
-1.06812e-20
0.000217961
-2.73716e-18
-1.60802e-20
-1.754e-18
-1.1359e-20
0.000222949
-2.66642e-18
-1.6382e-20
-1.75313e-18
-1.22639e-20
0.000228042
-2.6475e-18
-1.69884e-20
-1.72066e-18
-1.2973e-20
0.000233243
-2.627e-18
-1.74771e-20
-1.70386e-18
-1.3865e-20
0.000238554
-2.59909e-18
-1.78079e-20
-1.68135e-18
-1.48497e-20
0.000243977
-2.57064e-18
-1.80664e-20
-1.68517e-18
-1.63584e-20
0.000249515
-2.44447e-18
-1.80782e-20
-1.69435e-18
-1.8159e-20
0.00025517
-2.35051e-18
-1.92468e-20
-1.75403e-18
-1.98783e-20
0.000260943
-2.36208e-18
-2.07215e-20
-1.74424e-18
-2.03687e-20
0.000266839
-2.28686e-18
-2.08457e-20
-1.74659e-18
-2.07659e-20
0.000272858
-2.25664e-18
-2.09335e-20
-1.73417e-18
-2.13431e-20
0.000279004
-2.23112e-18
-2.06921e-20
-1.71418e-18
-2.22869e-20
0.000285279
-2.20454e-18
-2.15642e-20
-1.74183e-18
-2.26105e-20
0.000291686
-2.20687e-18
-2.19183e-20
-1.82971e-18
-2.30588e-20
0.000298226
-2.18118e-18
-2.2167e-20
-1.85578e-18
-2.34279e-20
0.000304904
-2.16006e-18
-2.25437e-20
-1.85204e-18
-2.45301e-20
0.000311722
-2.11382e-18
-2.24658e-20
-1.91522e-18
-2.4913e-20
0.000318682
-2.04302e-18
-2.1863e-20
-1.92934e-18
-2.47787e-20
0.000325787
-2.03853e-18
-2.15436e-20
-1.91417e-18
-2.29953e-20
0.00033304
-2.01277e-18
-2.10212e-20
-1.94481e-18
-2.18853e-20
0.000340444
-1.99737e-18
-2.05687e-20
-1.98348e-18
-2.11823e-20
0.000348002
-1.98131e-18
-1.95846e-20
-1.94974e-18
-1.9592e-20
0.000355717
-1.95011e-18
-1.96706e-20
-1.94162e-18
-1.77688e-20
0.000363592
-1.99426e-18
-2.0927e-20
-1.94691e-18
-1.76077e-20
0.00037163
-1.95519e-18
-2.03314e-20
-1.81664e-18
-1.78912e-20
0.000379834
-1.90802e-18
-1.92395e-20
-1.76167e-18
-1.96584e-20
0.000388207
-1.81749e-18
-1.86341e-20
-1.84061e-18
-2.28024e-20
0.000396752
-1.75637e-18
-1.8627e-20
-1.78002e-18
-2.14976e-20
0.000405473
-1.73663e-18
-1.86996e-20
-1.7523e-18
-2.25414e-20
0.000414373
-1.67303e-18
-1.85458e-20
-1.62059e-18
-2.25157e-20
0.000423455
-1.67849e-18
-1.91108e-20
-1.56407e-18
-2.12978e-20
0.000432723
-1.59359e-18
-1.84148e-20
-1.53763e-18
-2.13643e-20
0.000442179
-1.45676e-18
-1.78957e-20
-1.62054e-18
-2.27662e-20
0.000451828
-1.42402e-18
-2.23143e-20
-1.57536e-18
-2.19192e-20
0.000461673
-1.43321e-18
-2.32005e-20
-1.42594e-18
-2.11267e-20
0.000471716
-1.37709e-18
-2.41803e-20
-1.30592e-18
-2.60067e-20
0.000481963
-1.31622e-18
-2.50727e-20
-1.25791e-18
-2.98855e-20
0.000492416
-1.33339e-18
-2.84607e-20
-1.3716e-18
-3.30877e-20
0.000503079
-1.30743e-18
-2.7688e-20
-1.39244e-18
-3.57291e-20
0.000513955
-1.33533e-18
-2.86305e-20
-1.30793e-18
-3.89563e-20
0.000525047
-1.31377e-18
-2.97622e-20
-1.36487e-18
-4.44674e-20
0.000536361
-1.38917e-18
-3.21191e-20
-1.34487e-18
-4.7366e-20
0.000547898
-1.30436e-18
-2.76429e-20
-1.26353e-18
-4.45247e-20
0.000559663
-1.29924e-18
-2.4576e-20
-1.211e-18
-4.19904e-20
0.000571659
-1.20245e-18
-2.18459e-20
-1.33081e-18
-4.43709e-20
0.000583889
-1.39137e-18
-2.71441e-20
-1.30782e-18
-4.31216e-20
0.000596357
-1.2595e-18
-2.319e-20
-1.28729e-18
-4.2675e-20
0.000609067
-1.227e-18
-2.61097e-20
-1.26935e-18
-4.60764e-20
0.000622022
-1.3484e-18
-3.36961e-20
-1.1878e-18
-4.65001e-20
0.000635224
-1.23067e-18
-3.49464e-20
-1.30837e-18
-4.62864e-20
0.000648678
-1.23031e-18
-3.76405e-20
-1.26981e-18
-4.10399e-20
0.000662386
-1.19321e-18
-3.82441e-20
-1.2816e-18
-3.78682e-20
0.000676352
-1.26139e-18
-3.95563e-20
-1.20484e-18
-3.68667e-20
0.000690577
-1.21212e-18
-3.15356e-20
-1.14722e-18
-3.98897e-20
0.000705065
-1.23834e-18
-2.77806e-20
-1.27529e-18
-3.68687e-20
0.000719819
-1.21039e-18
-2.75431e-20
-1.16375e-18
-3.03204e-20
0.000734839
-1.20374e-18
-2.6925e-20
-1.20579e-18
-3.94906e-20
0.000750129
-1.14353e-18
-2.3646e-20
-1.2386e-18
-4.37072e-20
0.000765689
-1.15848e-18
-3.2503e-20
-1.16347e-18
-4.48441e-20
0.000781522
-1.33272e-18
-4.18271e-20
-1.25033e-18
-4.48094e-20
0.000797627
-1.30995e-18
-3.14717e-20
-1.2316e-18
-3.68381e-20
0.000814005
-1.2731e-18
-3.33469e-20
-1.22745e-18
-4.03758e-20
0.000830657
-1.26443e-18
-4.0724e-20
-1.24488e-18
-4.66776e-20
0.00084758
-1.22415e-18
-3.75768e-20
-1.15781e-18
-3.21125e-20
0.000864775
-1.28431e-18
-4.59478e-20
-1.42704e-18
-3.30451e-20
0.000882238
-1.21449e-18
-4.55302e-20
-1.40232e-18
-3.37051e-20
0.000899966
-1.34847e-18
-4.77523e-20
-1.24626e-18
-3.22607e-20
0.000917956
-1.46259e-18
-2.75238e-20
-1.25733e-18
-3.18461e-20
0.000936203
-1.32524e-18
-1.25128e-21
-1.29939e-18
-3.21078e-20
0.0009547
-1.20751e-18
7.49451e-21
-1.13305e-18
-1.99296e-20
0.000973441
-1.22108e-18
7.59635e-21
-1.07006e-18
-2.12225e-20
0.000992416
-9.37793e-19
2.01762e-20
-1.18963e-18
-1.77349e-20
0.00101162
-9.90865e-19
-5.28186e-21
-1.00784e-18
-8.93964e-21
0.00103103
-8.38631e-19
-5.07162e-23
-1.10699e-18
-2.19729e-20
0.00105065
-7.77235e-19
-8.16891e-23
-8.91199e-19
-1.89444e-20
0.00107046
-2.46843e-20
-9.7248e-19
-1.70283e-20
-8.37707e-19
1.113e-08
5.59708e-23
4.21118e-23
3.42208e-08
8.31941e-22
2.94547e-22
5.86005e-08
1.62101e-21
5.54959e-22
8.43249e-08
2.4175e-21
8.36433e-22
1.11453e-07
3.22807e-21
1.11824e-21
1.40044e-07
4.02355e-21
1.43855e-21
1.70162e-07
4.85939e-21
1.81728e-21
2.01873e-07
5.65212e-21
2.17707e-21
2.35244e-07
6.54271e-21
2.50576e-21
2.70347e-07
7.37703e-21
2.94945e-21
3.07255e-07
8.2398e-21
3.34731e-21
3.46044e-07
9.07443e-21
3.73976e-21
3.86794e-07
9.90702e-21
4.21642e-21
4.29588e-07
1.07818e-20
4.72024e-21
4.74511e-07
1.17293e-20
5.1336e-21
5.21654e-07
1.25581e-20
5.75133e-21
5.71108e-07
1.32632e-20
6.38773e-21
6.22971e-07
1.42139e-20
6.92605e-21
6.77342e-07
1.50542e-20
7.44719e-21
7.34325e-07
1.58539e-20
8.16094e-21
7.94029e-07
1.66018e-20
8.97881e-21
8.56565e-07
1.75169e-20
9.80768e-21
9.22052e-07
1.83985e-20
1.04443e-20
9.90609e-07
1.9102e-20
1.13828e-20
1.06236e-06
1.99563e-20
1.20232e-20
1.13744e-06
2.02117e-20
1.29192e-20
1.21599e-06
2.08723e-20
1.42038e-20
1.29814e-06
2.15865e-20
1.52998e-20
1.38403e-06
2.24899e-20
1.59442e-20
1.47383e-06
2.32508e-20
1.69827e-20
1.56769e-06
2.37151e-20
1.80332e-20
1.66578e-06
2.44498e-20
1.91072e-20
1.76825e-06
2.51426e-20
1.99439e-20
1.8753e-06
2.59077e-20
2.11046e-20
1.98709e-06
2.68962e-20
2.18089e-20
2.10383e-06
2.78257e-20
2.27762e-20
2.22571e-06
2.92902e-20
2.38577e-20
2.35292e-06
2.93981e-20
2.56105e-20
2.48568e-06
2.8879e-20
2.81973e-20
2.62422e-06
2.86549e-20
3.02506e-20
2.76874e-06
2.88986e-20
3.1938e-20
2.9195e-06
2.89616e-20
3.36581e-20
3.07672e-06
2.99836e-20
3.44834e-20
3.24066e-06
3.00884e-20
3.63722e-20
3.41158e-06
3.01783e-20
3.87605e-20
3.58974e-06
2.98249e-20
4.0843e-20
3.77541e-06
2.97024e-20
4.27577e-20
3.96887e-06
3.13843e-20
4.23771e-20
4.17042e-06
3.27421e-20
4.33547e-20
4.38035e-06
3.23027e-20
4.53031e-20
4.59897e-06
3.24049e-20
4.67531e-20
4.82658e-06
3.35963e-20
4.74068e-20
5.06352e-06
3.41808e-20
4.83958e-20
5.31009e-06
3.43663e-20
4.97502e-20
5.56664e-06
3.46757e-20
5.11793e-20
5.83349e-06
3.51512e-20
5.27198e-20
6.111e-06
3.4556e-20
5.54668e-20
6.3995e-06
3.33718e-20
5.8668e-20
6.69934e-06
3.14091e-20
6.14671e-20
7.01086e-06
3.04173e-20
6.44368e-20
7.33443e-06
2.8227e-20
6.77672e-20
7.67037e-06
2.76458e-20
6.76937e-20
8.01904e-06
2.87671e-20
6.86509e-20
8.38078e-06
2.80615e-20
7.24755e-20
8.75593e-06
2.73199e-20
7.33522e-20
9.1448e-06
2.73535e-20
7.37887e-20
9.54773e-06
2.55648e-20
7.64337e-20
9.96502e-06
2.32129e-20
7.76321e-20
1.0397e-05
2.00953e-20
7.79658e-20
1.08439e-05
2.11075e-20
7.81073e-20
1.1306e-05
2.07962e-20
7.80902e-20
1.17837e-05
1.97324e-20
7.9101e-20
1.2277e-05
1.50992e-20
8.0683e-20
1.27864e-05
1.11348e-20
8.16467e-20
1.3312e-05
1.21748e-20
8.11566e-20
1.3854e-05
7.82636e-21
8.12443e-20
1.44126e-05
6.65734e-21
8.20579e-20
1.4988e-05
4.7489e-21
8.12351e-20
1.55804e-05
1.21641e-21
8.04609e-20
1.619e-05
9.55753e-22
7.82691e-20
1.6817e-05
6.51706e-22
7.78785e-20
1.74614e-05
-9.18954e-22
7.72943e-20
1.81235e-05
-6.21111e-22
7.53363e-20
1.88035e-05
-3.31382e-21
7.30814e-20
1.95014e-05
-6.65497e-21
7.21501e-20
2.02175e-05
-8.72297e-21
7.38527e-20
2.0952e-05
-8.66042e-21
7.5741e-20
2.1705e-05
-4.91589e-21
7.49262e-20
2.24767e-05
-4.20431e-21
7.21441e-20
2.32673e-05
-1.17993e-20
7.17164e-20
2.4077e-05
-1.1796e-20
7.05884e-20
2.49061e-05
-1.51752e-20
6.89376e-20
2.57548e-05
-2.93375e-20
6.63889e-20
2.66233e-05
-3.14101e-20
6.45112e-20
2.7512e-05
-3.01877e-20
6.38023e-20
2.8421e-05
-2.80185e-20
6.4525e-20
2.93508e-05
-3.36904e-20
6.50312e-20
3.03015e-05
-3.10227e-20
5.51984e-20
3.12737e-05
-3.29517e-20
5.29157e-20
3.22675e-05
-3.3584e-20
5.50408e-20
3.32833e-05
-4.38918e-20
5.69399e-20
3.43217e-05
-4.64266e-20
5.64621e-20
3.53828e-05
-5.48616e-20
6.18653e-20
3.64672e-05
-3.90489e-20
5.43402e-20
3.75753e-05
-5.06067e-20
5.46851e-20
3.87075e-05
-5.59778e-20
5.3878e-20
3.98643e-05
-6.24821e-20
5.93179e-20
4.10461e-05
-6.02101e-20
5.78862e-20
4.22536e-05
-7.25535e-20
5.5252e-20
4.3487e-05
-7.76383e-20
5.65166e-20
4.47471e-05
-7.64388e-20
6.39705e-20
4.60343e-05
-7.84815e-20
6.05483e-20
4.73492e-05
-6.52928e-20
4.53638e-20
4.86923e-05
-7.33791e-20
4.52382e-20
5.00643e-05
-7.98832e-20
4.29508e-20
5.14658e-05
-7.29328e-20
3.90979e-20
5.28973e-05
-7.81487e-20
3.47003e-20
5.43595e-05
-8.49103e-20
2.84698e-20
5.5853e-05
-9.00748e-20
2.5604e-20
5.73785e-05
-9.55871e-20
2.2858e-20
5.89368e-05
-9.41109e-20
2.53621e-20
6.05284e-05
-9.41848e-20
2.43369e-20
6.21541e-05
-8.34922e-20
1.81262e-20
6.38147e-05
-9.3954e-20
1.72855e-20
6.55108e-05
-9.46219e-20
1.05508e-20
6.72433e-05
-9.49093e-20
6.48752e-21
6.90129e-05
-9.87689e-20
3.93595e-21
7.08204e-05
-9.69201e-20
1.28667e-20
7.26667e-05
-9.0715e-20
2.37348e-20
7.45525e-05
-1.0019e-19
2.15944e-20
7.64787e-05
-1.11434e-19
1.30152e-20
7.84463e-05
-1.12025e-19
5.36297e-21
8.04559e-05
-1.077e-19
3.98586e-21
8.25087e-05
-1.31805e-19
7.28356e-21
8.46055e-05
-1.52568e-19
-2.13243e-21
8.67472e-05
-1.52476e-19
2.07363e-21
8.89348e-05
-1.52417e-19
-1.14755e-20
9.11693e-05
-1.25296e-19
-2.12934e-20
9.34518e-05
-1.3156e-19
-3.48371e-20
9.57831e-05
-1.5664e-19
-1.74013e-20
9.81644e-05
-1.77563e-19
-3.50508e-20
0.000100597
-1.73288e-19
-4.33662e-20
0.000103081
-1.36843e-19
-6.99237e-20
0.000105619
-1.3963e-19
-7.14569e-20
0.000108211
-1.48994e-19
-8.80294e-20
0.000110859
-1.54171e-19
-9.20546e-20
0.000113563
-2.02856e-19
-9.14216e-20
0.000116326
-2.05114e-19
-1.00955e-19
0.000119147
-1.94992e-19
-1.15897e-19
0.000122029
-2.32923e-19
-1.28713e-19
0.000124973
-2.51704e-19
-1.1339e-19
0.000127979
-2.48136e-19
-1.39892e-19
0.00013105
-2.40892e-19
-1.31166e-19
0.000134187
-2.43041e-19
-1.21917e-19
0.000137391
-2.70356e-19
-8.95196e-20
0.000140663
-2.78865e-19
-1.12616e-19
0.000144006
-3.18764e-19
-1.35921e-19
0.000147419
-2.99112e-19
-1.42013e-19
0.000150906
-3.16294e-19
-1.74897e-19
0.000154467
-3.11609e-19
-1.77391e-19
0.000158104
-3.0378e-19
-1.45043e-19
0.000161819
-3.05529e-19
-1.54969e-19
0.000165613
-2.64466e-19
-1.65932e-19
0.000169488
-2.77046e-19
-1.68637e-19
0.000173446
-2.96987e-19
-1.68576e-19
0.000177488
-2.99077e-19
-2.02995e-19
0.000181616
-3.1943e-19
-2.3121e-19
0.000185832
-3.30976e-19
-2.30729e-19
0.000190137
-3.75534e-19
-2.37512e-19
0.000194534
-3.96434e-19
-2.39642e-19
0.000199025
-4.0569e-19
-2.50251e-19
0.000203611
-3.97215e-19
-2.64564e-19
0.000208294
-3.75929e-19
-2.75331e-19
0.000213077
-4.16433e-19
-2.81162e-19
0.000217961
-4.44122e-19
-3.21279e-19
0.000222949
-4.64453e-19
-3.16913e-19
0.000228042
-4.82892e-19
-3.28554e-19
0.000233243
-4.80344e-19
-3.43563e-19
0.000238554
-4.91353e-19
-3.71291e-19
0.000243977
-4.99973e-19
-3.96648e-19
0.000249515
-5.27931e-19
-3.88268e-19
0.00025517
-5.1245e-19
-3.69356e-19
0.000260943
-4.73027e-19
-3.78426e-19
0.000266839
-4.4914e-19
-3.53892e-19
0.000272858
-4.02713e-19
-3.65694e-19
0.000279004
-4.5046e-19
-3.19151e-19
0.000285279
-3.89355e-19
-3.17982e-19
0.000291686
-4.02585e-19
-3.56108e-19
0.000298226
-4.17908e-19
-4.43919e-19
0.000304904
-4.18229e-19
-4.10264e-19
0.000311722
-3.93945e-19
-4.51447e-19
0.000318682
-3.88688e-19
-3.81955e-19
0.000325787
-4.01033e-19
-4.00593e-19
0.00033304
-4.03447e-19
-4.28526e-19
0.000340444
-3.84854e-19
-4.27067e-19
0.000348002
-4.27126e-19
-4.17769e-19
0.000355717
-4.60296e-19
-4.76998e-19
0.000363592
-4.41115e-19
-4.48172e-19
0.00037163
-4.04194e-19
-3.59457e-19
0.000379834
-4.07664e-19
-4.16705e-19
0.000388207
-3.97603e-19
-3.70731e-19
0.000396752
-4.07833e-19
-4.253e-19
0.000405473
-4.29361e-19
-4.03669e-19
0.000414373
-4.3639e-19
-3.31188e-19
0.000423455
-4.50948e-19
-3.97215e-19
0.000432723
-4.24343e-19
-4.09556e-19
0.000442179
-4.86521e-19
-3.9759e-19
0.000451828
-3.50079e-19
-3.79519e-19
0.000461673
-3.98916e-19
-4.54976e-19
0.000471716
-3.81624e-19
-3.89596e-19
0.000481963
-4.41576e-19
-3.89547e-19
0.000492416
-3.99151e-19
-4.99432e-19
0.000503079
-4.9128e-19
-5.2345e-19
0.000513955
-5.57184e-19
-4.62423e-19
0.000525047
-5.50406e-19
-4.96504e-19
0.000536361
-4.47178e-19
-4.60429e-19
0.000547898
-4.21488e-19
-4.39647e-19
0.000559663
-4.15966e-19
-4.88858e-19
0.000571659
-4.85433e-19
-4.98756e-19
0.000583889
-4.74633e-19
-4.28345e-19
0.000596357
-5.11783e-19
-4.76232e-19
0.000609067
-5.92123e-19
-4.72104e-19
0.000622022
-5.99694e-19
-3.97093e-19
0.000635224
-5.35704e-19
-4.15049e-19
0.000648678
-5.36759e-19
-4.66506e-19
0.000662386
-5.60165e-19
-5.411e-19
0.000676352
-5.03861e-19
-6.09175e-19
0.000690577
-5.1687e-19
-5.23598e-19
0.000705065
-5.8031e-19
-4.98839e-19
0.000719819
-5.47226e-19
-5.96378e-19
0.000734839
-4.83234e-19
-6.07495e-19
0.000750129
-5.44635e-19
-5.38659e-19
0.000765689
-5.34683e-19
-4.35161e-19
0.000781522
-4.36124e-19
-4.44055e-19
0.000797627
-5.32221e-19
-5.1289e-19
0.000814005
-5.87214e-19
-5.33586e-19
0.000830657
-5.18083e-19
-4.22832e-19
0.00084758
-6.0754e-19
-5.27791e-19
0.000864775
-6.10975e-19
-6.99874e-19
0.000882238
-6.6438e-19
-7.08173e-19
0.000899966
-6.33483e-19
-7.0617e-19
0.000917956
-6.66765e-19
-7.21281e-19
0.000936203
-6.66644e-19
-6.17058e-19
0.0009547
-7.23743e-19
-7.08015e-19
0.000973441
-7.16617e-19
-6.86297e-19
0.000992416
-7.65052e-19
-7.01009e-19
0.00101162
-5.84681e-19
-6.9449e-19
0.00103103
-5.10198e-19
-7.17238e-19
0.00105065
-6.44512e-19
-4.89289e-19
0.00107046
-6.6149e-19
-5.7853e-19
0.00107046
-7.91936e-19
-1.65461e-20
-8.79491e-19
-2.58668e-20
0.00105065
-6.86749e-19
-2.14512e-20
-6.71674e-19
-1.4096e-20
0.00103103
-7.47078e-19
-2.49515e-20
-7.01551e-19
-2.13561e-20
0.00101162
-6.58379e-19
-8.59307e-21
-5.48436e-19
-5.84286e-21
0.000992416
-5.96862e-19
-6.35507e-21
-5.65859e-19
1.5441e-20
0.00097344
-5.282e-19
-8.20474e-21
-6.26736e-19
1.89008e-20
0.0009547
-6.37486e-19
-9.31863e-21
-5.24403e-19
2.02619e-20
0.000936203
-6.05418e-19
6.61054e-21
-5.32381e-19
1.2559e-20
0.000917956
-6.12232e-19
3.80783e-21
-6.2769e-19
5.88744e-21
0.000899966
-7.12584e-19
1.55505e-21
-6.49645e-19
5.52865e-21
0.000882238
-6.51783e-19
6.17576e-21
-6.73853e-19
5.95753e-21
0.000864775
-6.26839e-19
5.67576e-21
-6.21538e-19
-5.42065e-21
0.00084758
-6.10214e-19
7.19306e-21
-6.91303e-19
5.89133e-21
0.000830657
-5.53804e-19
1.00135e-20
-5.21026e-19
1.70815e-20
0.000814005
-5.17845e-19
5.14181e-21
-5.10363e-19
1.71894e-20
0.000797627
-4.62125e-19
2.11049e-21
-5.53736e-19
7.40088e-21
0.000781522
-4.2371e-19
-1.16695e-21
-4.99783e-19
2.74096e-21
0.000765689
-4.84894e-19
-2.55779e-21
-4.65951e-19
-8.48189e-21
0.000750129
-3.90911e-19
-1.02083e-20
-5.86211e-19
-6.38726e-21
0.000734839
-5.49757e-19
-1.03491e-20
-4.29869e-19
3.36922e-22
0.000719819
-4.51567e-19
-1.19665e-21
-5.00773e-19
-6.8599e-21
0.000705065
-4.52585e-19
3.04132e-21
-5.36959e-19
-1.4379e-20
0.000690577
-3.82516e-19
-3.69947e-21
-3.25342e-19
-5.45991e-21
0.000676352
-3.43323e-19
-1.26685e-20
-2.78125e-19
-2.49269e-21
0.000662386
-3.80594e-19
-1.13062e-20
-2.7076e-19
-1.29041e-20
0.000648678
-3.11061e-19
-5.21188e-21
-2.99754e-19
-1.46681e-20
0.000635224
-3.36754e-19
-8.34717e-22
-2.51026e-19
-1.31345e-20
0.000622022
-4.10049e-19
4.36081e-21
-3.63859e-19
-2.13522e-20
0.000609067
-3.87694e-19
5.23353e-21
-3.79918e-19
-1.77017e-20
0.000596357
-4.08346e-19
2.07805e-21
-4.06766e-19
-1.65849e-20
0.000583889
-3.74251e-19
3.95939e-21
-3.94315e-19
-1.33342e-20
0.000571659
-3.43014e-19
9.47695e-22
-3.92491e-19
-4.03026e-21
0.000559663
-3.09914e-19
-4.06152e-21
-3.62699e-19
5.17744e-21
0.000547898
-3.71486e-19
-1.10684e-20
-2.66453e-19
9.59505e-21
0.000536361
-3.39507e-19
-1.36754e-20
-4.11986e-19
6.32598e-21
0.000525047
-3.33848e-19
-1.57466e-20
-5.19106e-19
4.04993e-21
0.000513955
-3.623e-19
-1.47272e-20
-3.62914e-19
3.66197e-21
0.000503079
-4.33993e-19
-1.34289e-20
-3.89138e-19
-2.7104e-21
0.000492416
-4.55807e-19
-1.16489e-20
-4.38685e-19
-5.51769e-21
0.000481963
-4.48646e-19
-1.00853e-20
-4.94096e-19
-8.06686e-21
0.000471717
-5.05558e-19
-1.00548e-20
-3.99788e-19
-7.41456e-21
0.000461673
-4.25531e-19
-7.52154e-21
-4.7458e-19
-8.71473e-21
0.000451828
-4.52882e-19
-8.04252e-21
-3.44183e-19
-8.91136e-21
0.000442179
-3.72041e-19
-6.79842e-21
-4.66963e-19
-1.24977e-20
0.000432723
-3.92153e-19
-7.1535e-21
-3.84778e-19
-1.03705e-20
0.000423455
-3.92216e-19
-6.41354e-21
-3.79545e-19
-1.10563e-20
0.000414373
-3.48879e-19
-6.21433e-21
-3.75334e-19
-1.32716e-20
0.000405473
-3.51207e-19
-6.76339e-21
-3.68188e-19
-1.34152e-20
0.000396752
-3.24251e-19
-6.51441e-21
-3.65884e-19
-1.19482e-20
0.000388207
-3.29386e-19
-6.56577e-21
-3.80846e-19
-1.08663e-20
0.000379834
-3.18153e-19
-5.18546e-21
-3.46439e-19
-8.75302e-21
0.00037163
-3.11896e-19
-3.29266e-21
-3.71731e-19
-8.30753e-21
0.000363592
-2.73827e-19
-1.79123e-21
-3.74035e-19
-5.92413e-21
0.000355717
-2.39007e-19
-3.0761e-22
-3.60989e-19
-3.78253e-21
0.000348002
-2.12723e-19
-3.24727e-22
-3.51815e-19
-3.87466e-21
0.000340444
-2.90718e-19
-9.03864e-22
-3.61305e-19
-2.18364e-21
0.00033304
-2.47793e-19
6.30384e-22
-3.2026e-19
-1.72034e-22
0.000325787
-2.04723e-19
4.77551e-22
-2.61633e-19
1.57035e-21
0.000318682
-1.87253e-19
2.28665e-22
-1.51383e-19
3.35593e-21
0.000311722
-2.08042e-19
-9.18924e-23
-1.91689e-19
3.86843e-21
0.000304904
-1.79437e-19
-2.67658e-22
-2.11308e-19
5.05575e-21
0.000298226
-2.18866e-19
-1.24293e-22
-1.85696e-19
6.44829e-21
0.000291686
-2.21011e-19
3.48172e-22
-2.1316e-19
6.59348e-21
0.000285279
-1.82304e-19
9.17775e-22
-1.53579e-19
7.062e-21
0.000279004
-2.24517e-19
1.24132e-21
-1.67469e-19
6.22659e-21
0.000272858
-2.13173e-19
1.91683e-21
-1.06742e-19
5.92233e-21
0.000266839
-1.78648e-19
2.49156e-21
-8.7966e-20
5.02927e-21
0.000260943
-1.83041e-19
3.20773e-21
-6.91182e-20
4.18129e-21
0.00025517
-1.51279e-19