/*--------------------------------*- C++ -*----------------------------------*\
| =========                 |                                                 |
| \\      /  F ield         | OpenFOAM: The Open Source CFD Toolbox           |
|  \\    /   O peration     | Version:  2106                                  |
|   \\  /    A nd           | Website:  www.openfoam.com                      |
|    \\/     M anipulation  |                                                 |
\*---------------------------------------------------------------------------*/
FoamFile
{
    version     2.0;
    format      ascii;
    arch        "LSB;label=32;scalar=64";
    class       volSymmTensorField;
    location    "10070";
    object      turbulenceProperties:R;
}
// * * * * * * * * * * * * * * * * * * * * * * * * * * * * * * * * * * * * * //

dimensions      [0 2 -2 0 0 0 0];

internalField   nonuniform List<symmTensor> 
2000
(
(3.1349e-08 -1.86902e-13 -3.45919e-16 3.1349e-08 -1.88961e-28 3.1349e-08)
(3.1349e-08 -1.86902e-13 -3.45919e-16 3.1349e-08 -1.24065e-28 3.1349e-08)
(4.74965e-09 -1.63125e-13 -9.11431e-16 4.74965e-09 -8.25858e-28 4.74965e-09)
(4.74965e-09 -1.63125e-13 -9.11431e-16 4.74965e-09 -4.40838e-29 4.74965e-09)
(2.51959e-09 -2.56214e-13 -1.98628e-15 2.51959e-09 6.22232e-43 2.51959e-09)
(2.51959e-09 -2.56214e-13 -1.98628e-15 2.51959e-09 -2.09233e-31 2.51959e-09)
(4.86994e-09 -1.05444e-12 -8.327e-15 4.86994e-09 1.50597e-28 4.86994e-09)
(4.86994e-09 -1.05444e-12 -8.327e-15 4.86994e-09 -1.7737e-27 4.86994e-09)
(1.16169e-08 -4.45625e-12 -3.58483e-14 1.16169e-08 -6.97919e-27 1.16169e-08)
(1.16169e-08 -4.45625e-12 -3.58483e-14 1.16169e-08 -3.4781e-27 1.16169e-08)
(2.45701e-08 -1.49027e-11 -1.22122e-13 2.45701e-08 -1.3395e-26 2.45701e-08)
(2.45701e-08 -1.49027e-11 -1.22122e-13 2.45701e-08 -1.99973e-27 2.45701e-08)
(4.62026e-08 -4.1058e-11 -3.42735e-13 4.62026e-08 -1.84431e-26 4.62026e-08)
(4.62026e-08 -4.1058e-11 -3.42735e-13 4.62026e-08 -5.44252e-27 4.62026e-08)
(7.94734e-08 -9.80091e-11 -8.33409e-13 7.94734e-08 -4.46952e-26 7.94734e-08)
(7.94734e-08 -9.80091e-11 -8.33409e-13 7.94734e-08 -1.28183e-26 7.94734e-08)
(1.27811e-07 -2.10076e-10 -1.8197e-12 1.27811e-07 -9.85107e-26 1.27811e-07)
(1.27811e-07 -2.10076e-10 -1.8197e-12 1.27811e-07 -2.70835e-26 1.27811e-07)
(1.95134e-07 -4.1434e-10 -3.65603e-12 1.95134e-07 -2.00372e-25 1.95134e-07)
(1.95134e-07 -4.1434e-10 -3.65603e-12 1.95134e-07 -5.25367e-26 1.95134e-07)
(2.85884e-07 -7.65017e-10 -6.87631e-12 2.85884e-07 -3.80298e-25 2.85884e-07)
(2.85884e-07 -7.65017e-10 -6.87631e-12 2.85884e-07 -9.53231e-26 2.85884e-07)
(4.05063e-07 -1.33882e-09 -1.22585e-11 4.05063e-07 -1.33013e-24 4.05063e-07)
(4.05063e-07 -1.33882e-09 -1.22585e-11 4.05063e-07 -1.63657e-25 4.05063e-07)
(5.58282e-07 -2.2415e-09 -2.09067e-11 5.58282e-07 -3.66448e-24 5.58282e-07)
(5.58282e-07 -2.2415e-09 -2.09067e-11 5.58282e-07 -2.68096e-25 5.58282e-07)
(7.51804e-07 -3.61569e-09 -3.43532e-11 7.51804e-07 -6.53635e-24 7.51804e-07)
(7.51804e-07 -3.61569e-09 -3.43532e-11 7.51804e-07 -4.22244e-25 7.51804e-07)
(9.92606e-07 -5.65036e-09 -5.46869e-11 9.92606e-07 -1.04599e-23 9.92606e-07)
(9.92606e-07 -5.65036e-09 -5.46869e-11 9.92606e-07 -6.42374e-25 9.92606e-07)
(1.28843e-06 -8.59213e-09 -8.47108e-11 1.28843e-06 -1.62829e-23 1.28843e-06)
(1.28843e-06 -8.59213e-09 -8.47108e-11 1.28843e-06 -9.5019e-25 1.28843e-06)
(1.64784e-06 -1.27586e-08 -1.28136e-10 1.64784e-06 -2.47475e-23 1.64784e-06)
(1.64784e-06 -1.27586e-08 -1.28136e-10 1.64784e-06 -1.36767e-24 1.64784e-06)
(2.08031e-06 -1.85541e-08 -1.89818e-10 2.08031e-06 -3.68342e-23 2.08031e-06)
(2.08031e-06 -1.85541e-08 -1.89818e-10 2.08031e-06 -1.92248e-24 2.08031e-06)
(2.59626e-06 -2.64884e-08 -2.76048e-10 2.59626e-06 -5.38103e-23 2.59626e-06)
(2.59626e-06 -2.64884e-08 -2.76048e-10 2.59626e-06 -2.64409e-24 2.59626e-06)
(3.20719e-06 -3.71984e-08 -3.94897e-10 3.20719e-06 -7.73089e-23 3.20719e-06)
(3.20719e-06 -3.71984e-08 -3.94897e-10 3.20719e-06 -3.559e-24 3.20719e-06)
(3.92569e-06 -5.14737e-08 -5.56642e-10 3.92569e-06 -1.09432e-22 3.92569e-06)
(3.92569e-06 -5.14737e-08 -5.56642e-10 3.92569e-06 -4.70123e-24 3.92569e-06)
(4.7656e-06 -7.02862e-08 -7.74268e-10 4.7656e-06 -1.52819e-22 4.7656e-06)
(4.7656e-06 -7.02862e-08 -7.74268e-10 4.7656e-06 -6.09756e-24 4.7656e-06)
(5.74206e-06 -9.48245e-08 -1.06407e-09 5.74206e-06 -2.10825e-22 5.74206e-06)
(5.74206e-06 -9.48245e-08 -1.06407e-09 5.74206e-06 -7.78495e-24 5.74206e-06)
(6.87161e-06 -1.26533e-07 -1.4464e-09 6.87161e-06 -2.8761e-22 6.87161e-06)
(6.87161e-06 -1.26533e-07 -1.4464e-09 6.87161e-06 -9.74122e-24 6.87161e-06)
(8.17233e-06 -1.67161e-07 -1.94646e-09 8.17233e-06 -2.94181e-22 8.17233e-06)
(8.17233e-06 -1.67161e-07 -1.94646e-09 8.17233e-06 -1.19512e-23 8.17233e-06)
(9.66394e-06 -2.18809e-07 -2.59542e-09 9.66394e-06 -1.89719e-22 9.66394e-06)
(9.66394e-06 -2.18809e-07 -2.59542e-09 9.66394e-06 -1.4454e-23 9.66394e-06)
(1.13679e-05 -2.83998e-07 -3.43152e-09 1.13679e-05 -1.45369e-22 1.13679e-05)
(1.13679e-05 -2.83998e-07 -3.43152e-09 1.13679e-05 -1.70916e-23 1.13679e-05)
(1.33076e-05 -3.6573e-07 -4.50155e-09 1.33076e-05 -1.87033e-22 1.33076e-05)
(1.33076e-05 -3.6573e-07 -4.50155e-09 1.33076e-05 -1.99667e-23 1.33076e-05)
(1.55084e-05 -4.67576e-07 -5.86249e-09 1.55084e-05 -2.52204e-22 1.55084e-05)
(1.55084e-05 -4.67576e-07 -5.86249e-09 1.55084e-05 -2.27489e-23 1.55084e-05)
(1.79979e-05 -5.93757e-07 -7.58347e-09 1.79979e-05 -3.42148e-22 1.79979e-05)
(1.79979e-05 -5.93757e-07 -7.58347e-09 1.79979e-05 -2.56296e-23 1.79979e-05)
(2.0806e-05 -7.49255e-07 -9.74804e-09 2.0806e-05 -4.40314e-22 2.0806e-05)
(2.0806e-05 -7.49255e-07 -9.74804e-09 2.0806e-05 -2.7833e-23 2.0806e-05)
(2.39651e-05 -9.3992e-07 -1.24568e-08 2.39651e-05 -5.58034e-22 2.39651e-05)
(2.39651e-05 -9.3992e-07 -1.24568e-08 2.39651e-05 -2.85696e-23 2.39651e-05)
(2.75102e-05 -1.17261e-06 -1.58306e-08 2.75102e-05 -7.04837e-22 2.75102e-05)
(2.75102e-05 -1.17261e-06 -1.58306e-08 2.75102e-05 -2.78292e-23 2.75102e-05)
(3.14792e-05 -1.45532e-06 -2.00139e-08 3.14792e-05 -8.86459e-22 3.14792e-05)
(3.14792e-05 -1.45532e-06 -2.00139e-08 3.14792e-05 -2.44784e-23 3.14792e-05)
(3.59131e-05 -1.79738e-06 -2.5179e-08 3.59131e-05 -1.10978e-21 3.59131e-05)
(3.59131e-05 -1.79738e-06 -2.5179e-08 3.59131e-05 -1.65175e-23 3.59131e-05)
(4.08561e-05 -2.20959e-06 -3.15309e-08 4.08561e-05 -1.38479e-21 4.08561e-05)
(4.08561e-05 -2.20959e-06 -3.15309e-08 4.08561e-05 -1.49278e-24 4.08561e-05)
(4.63556e-05 -2.70445e-06 -3.93126e-08 4.63556e-05 -1.72002e-21 4.63556e-05)
(4.63556e-05 -2.70445e-06 -3.93126e-08 4.63556e-05 1.41669e-23 4.63556e-05)
(5.24629e-05 -3.29642e-06 -4.88111e-08 5.24629e-05 -2.129e-21 5.24629e-05)
(5.24629e-05 -3.29642e-06 -4.88111e-08 5.24629e-05 4.49896e-23 5.24629e-05)
(5.9233e-05 -4.00207e-06 -6.0365e-08 5.9233e-05 -2.62925e-21 5.9233e-05)
(5.9233e-05 -4.00207e-06 -6.0365e-08 5.9233e-05 9.45681e-23 5.9233e-05)
(6.6725e-05 -4.84045e-06 -7.4372e-08 6.6725e-05 -3.23563e-21 6.6725e-05)
(6.6725e-05 -4.84045e-06 -7.4372e-08 6.6725e-05 1.5082e-22 6.6725e-05)
(7.50022e-05 -5.83332e-06 -9.12981e-08 7.50022e-05 -3.97089e-21 7.50022e-05)
(7.50022e-05 -5.83332e-06 -9.12981e-08 7.50022e-05 2.34754e-22 7.50022e-05)
(8.41325e-05 -7.0055e-06 -1.11688e-07 8.41325e-05 -4.85692e-21 8.41325e-05)
(8.41325e-05 -7.0055e-06 -1.11688e-07 8.41325e-05 3.51261e-22 8.41325e-05)
(9.41883e-05 -8.3852e-06 -1.36176e-07 9.41883e-05 -5.91082e-21 9.41883e-05)
(9.41883e-05 -8.3852e-06 -1.36176e-07 9.41883e-05 4.95243e-22 9.41883e-05)
(0.000105247 -1.00044e-05 -1.65498e-07 0.000105247 -7.17501e-21 0.000105247)
(0.000105247 -1.00044e-05 -1.65498e-07 0.000105247 6.60949e-22 0.000105247)
(0.000117391 -1.1899e-05 -2.00507e-07 0.000117391 -8.70805e-21 0.000117391)
(0.000117391 -1.1899e-05 -2.00507e-07 0.000117391 8.72451e-22 0.000117391)
(0.000130707 -1.41098e-05 -2.42188e-07 0.000130707 -1.05093e-20 0.000130707)
(0.000130707 -1.41098e-05 -2.42188e-07 0.000130707 1.16164e-21 0.000130707)
(0.000145289 -1.66822e-05 -2.91673e-07 0.000145289 -1.26467e-20 0.000145289)
(0.000145289 -1.66822e-05 -2.91673e-07 0.000145289 1.53568e-21 0.000145289)
(0.000161234 -1.9667e-05 -3.50258e-07 0.000161234 -1.52078e-20 0.000161234)
(0.000161234 -1.9667e-05 -3.50258e-07 0.000161234 1.99103e-21 0.000161234)
(0.000178648 -2.31206e-05 -4.19426e-07 0.000178648 -1.82215e-20 0.000178648)
(0.000178648 -2.31206e-05 -4.19426e-07 0.000178648 2.5039e-21 0.000178648)
(0.000197637 -2.71058e-05 -5.00863e-07 0.000197637 -2.17628e-20 0.000197637)
(0.000197637 -2.71058e-05 -5.00863e-07 0.000197637 3.19965e-21 0.000197637)
(0.000218317 -3.16913e-05 -5.9648e-07 0.000218317 -2.58528e-20 0.000218317)
(0.000218317 -3.16913e-05 -5.9648e-07 0.000218317 4.03545e-21 0.000218317)
(0.000240808 -3.6953e-05 -7.08432e-07 0.000240808 -3.07013e-20 0.000240808)
(0.000240808 -3.6953e-05 -7.08432e-07 0.000240808 4.837e-21 0.000240808)
(0.000265234 -4.29732e-05 -8.39142e-07 0.000265234 -3.63486e-20 0.000265234)
(0.000265234 -4.29732e-05 -8.39142e-07 0.000265234 5.90327e-21 0.000265234)
(0.000291725 -4.98414e-05 -9.91319e-07 0.000291725 -4.27475e-20 0.000291725)
(0.000291725 -4.98414e-05 -9.91319e-07 0.000291725 7.17587e-21 0.000291725)
(0.000320412 -5.76543e-05 -1.16798e-06 0.000320412 -5.00861e-20 0.000320412)
(0.000320412 -5.76543e-05 -1.16798e-06 0.000320412 8.34275e-21 0.000320412)
(0.000351434 -6.6515e-05 -1.37245e-06 0.000351434 -5.86263e-20 0.000351434)
(0.000351434 -6.6515e-05 -1.37245e-06 0.000351434 1.02681e-20 0.000351434)
(0.000384929 -7.65333e-05 -1.6084e-06 0.000384929 -6.83431e-20 0.000384929)
(0.000384929 -7.65333e-05 -1.6084e-06 0.000384929 1.26512e-20 0.000384929)
(0.000421039 -8.7825e-05 -1.87984e-06 0.000421039 -7.92755e-20 0.000421039)
(0.000421039 -8.7825e-05 -1.87984e-06 0.000421039 1.53489e-20 0.000421039)
(0.000459906 -0.000100511 -2.19114e-06 0.000459906 -9.17105e-20 0.000459906)
(0.000459906 -0.000100511 -2.19114e-06 0.000459906 1.87024e-20 0.000459906)
(0.000501671 -0.000114716 -2.54699e-06 0.000501671 -1.05228e-19 0.000501671)
(0.000501671 -0.000114716 -2.54699e-06 0.000501671 2.26606e-20 0.000501671)
(0.000546474 -0.000130568 -2.95243e-06 0.000546474 -1.20359e-19 0.000546474)
(0.000546474 -0.000130568 -2.95243e-06 0.000546474 2.67252e-20 0.000546474)
(0.000594449 -0.000148196 -3.41279e-06 0.000594449 -1.37717e-19 0.000594449)
(0.000594449 -0.000148196 -3.41279e-06 0.000594449 2.33154e-20 0.000594449)
(0.000645727 -0.000167729 -3.93372e-06 0.000645727 -1.56451e-19 0.000645727)
(0.000645727 -0.000167729 -3.93372e-06 0.000645727 -3.94295e-21 0.000645727)
(0.00070043 -0.000189291 -4.52107e-06 0.00070043 -1.75604e-19 0.00070043)
(0.00070043 -0.000189291 -4.52107e-06 0.00070043 -3.85991e-21 0.00070043)
(0.000758672 -0.000213005 -5.18092e-06 0.000758672 -1.96398e-19 0.000758672)
(0.000758672 -0.000213005 -5.18092e-06 0.000758672 -4.51622e-21 0.000758672)
(0.000820554 -0.000238982 -5.91944e-06 0.000820554 -2.20257e-19 0.000820554)
(0.000820554 -0.000238982 -5.91944e-06 0.000820554 -5.12879e-21 0.000820554)
(0.000886162 -0.000267325 -6.74287e-06 0.000886162 -2.46919e-19 0.000886162)
(0.000886162 -0.000267325 -6.74287e-06 0.000886162 -4.7155e-21 0.000886162)
(0.000955567 -0.000298123 -7.65745e-06 0.000955567 -2.75535e-19 0.000955567)
(0.000955567 -0.000298123 -7.65745e-06 0.000955567 -4.26251e-21 0.000955567)
(0.00102882 -0.000331451 -8.66926e-06 0.00102882 -3.03235e-19 0.00102882)
(0.00102882 -0.000331451 -8.66926e-06 0.00102882 -4.00116e-21 0.00102882)
(0.00110595 -0.000367361 -9.7842e-06 0.00110595 -3.32448e-19 0.00110595)
(0.00110595 -0.000367361 -9.7842e-06 0.00110595 -4.50471e-21 0.00110595)
(0.00118698 -0.00040589 -1.10078e-05 0.00118698 -3.63895e-19 0.00118698)
(0.00118698 -0.00040589 -1.10078e-05 0.00118698 -5.47851e-21 0.00118698)
(0.00127187 -0.000447048 -1.23454e-05 0.00127187 -3.94668e-19 0.00127187)
(0.00127187 -0.000447048 -1.23454e-05 0.00127187 -3.07306e-21 0.00127187)
(0.0013606 -0.000490821 -1.38015e-05 0.0013606 -4.27034e-19 0.0013606)
(0.0013606 -0.000490821 -1.38015e-05 0.0013606 -8.60671e-22 0.0013606)
(0.00145309 -0.00053717 -1.53802e-05 0.00145309 -4.56012e-19 0.00145309)
(0.00145309 -0.00053717 -1.53802e-05 0.00145309 2.51694e-21 0.00145309)
(0.00154925 -0.000586031 -1.70851e-05 0.00154925 -4.85808e-19 0.00154925)
(0.00154925 -0.000586031 -1.70851e-05 0.00154925 1.22951e-21 0.00154925)
(0.00164896 -0.000637314 -1.89189e-05 0.00164896 -5.19922e-19 0.00164896)
(0.00164896 -0.000637314 -1.89189e-05 0.00164896 1.2313e-21 0.00164896)
(0.00175206 -0.000690902 -2.08834e-05 0.00175206 -5.4788e-19 0.00175206)
(0.00175206 -0.000690902 -2.08834e-05 0.00175206 4.68386e-21 0.00175206)
(0.00185839 -0.000746657 -2.29801e-05 0.00185839 -5.78203e-19 0.00185839)
(0.00185839 -0.000746657 -2.29801e-05 0.00185839 1.06725e-20 0.00185839)
(0.00196774 -0.000804418 -2.52092e-05 0.00196774 -6.06573e-19 0.00196774)
(0.00196774 -0.000804418 -2.52092e-05 0.00196774 1.77059e-20 0.00196774)
(0.0020799 -0.000864007 -2.75704e-05 0.0020799 -6.29751e-19 0.0020799)
(0.0020799 -0.000864007 -2.75704e-05 0.0020799 2.20242e-20 0.0020799)
(0.00219462 -0.000925227 -3.00627e-05 0.00219462 -6.58325e-19 0.00219462)
(0.00219462 -0.000925227 -3.00627e-05 0.00219462 2.3746e-20 0.00219462)
(0.00231164 -0.000987873 -3.26842e-05 0.00231164 -6.89457e-19 0.00231164)
(0.00231164 -0.000987873 -3.26842e-05 0.00231164 3.07357e-20 0.00231164)
(0.0024307 -0.00105173 -3.54327e-05 0.0024307 -7.0792e-19 0.0024307)
(0.0024307 -0.00105173 -3.54327e-05 0.0024307 5.78515e-20 0.0024307)
(0.00255151 -0.00111657 -3.8305e-05 0.00255151 -7.1613e-19 0.00255151)
(0.00255151 -0.00111657 -3.8305e-05 0.00255151 4.84908e-20 0.00255151)
(0.00267378 -0.00118217 -4.12978e-05 0.00267378 -7.31735e-19 0.00267378)
(0.00267378 -0.00118217 -4.12978e-05 0.00267378 5.38997e-20 0.00267378)
(0.00279721 -0.00124831 -4.44073e-05 0.00279721 -7.45575e-19 0.00279721)
(0.00279721 -0.00124831 -4.44073e-05 0.00279721 6.13356e-20 0.00279721)
(0.00292152 -0.00131477 -4.76294e-05 0.00292152 -7.55211e-19 0.00292152)
(0.00292152 -0.00131477 -4.76294e-05 0.00292152 9.56548e-20 0.00292152)
(0.00304639 -0.00138134 -5.09596e-05 0.00304639 -7.62166e-19 0.00304639)
(0.00304639 -0.00138134 -5.09596e-05 0.00304639 1.01619e-19 0.00304639)
(0.00317155 -0.00144782 -5.43936e-05 0.00317155 -7.65178e-19 0.00317155)
(0.00317155 -0.00144782 -5.43936e-05 0.00317155 9.26471e-20 0.00317155)
(0.00329671 -0.001514 -5.79267e-05 0.00329671 -7.84724e-19 0.00329671)
(0.00329671 -0.001514 -5.79267e-05 0.00329671 1.3964e-19 0.00329671)
(0.0034216 -0.00157973 -6.15545e-05 0.0034216 -8.12301e-19 0.0034216)
(0.0034216 -0.00157973 -6.15545e-05 0.0034216 1.63038e-19 0.0034216)
(0.00354596 -0.00164482 -6.52725e-05 0.00354596 -8.26875e-19 0.00354596)
(0.00354596 -0.00164482 -6.52725e-05 0.00354596 1.9184e-19 0.00354596)
(0.00366953 -0.00170912 -6.90764e-05 0.00366953 -7.64966e-19 0.00366953)
(0.00366953 -0.00170912 -6.90764e-05 0.00366953 2.55829e-19 0.00366953)
(0.00379209 -0.00177251 -7.29619e-05 0.00379209 -5.63043e-19 0.00379209)
(0.00379209 -0.00177251 -7.29619e-05 0.00379209 2.43538e-19 0.00379209)
(0.00391341 -0.00183486 -7.69252e-05 0.00391341 -4.576e-19 0.00391341)
(0.00391341 -0.00183486 -7.69252e-05 0.00391341 2.64156e-19 0.00391341)
(0.00403329 -0.00189605 -8.09625e-05 0.00403329 -4.66093e-19 0.00403329)
(0.00403329 -0.00189605 -8.09625e-05 0.00403329 3.03394e-19 0.00403329)
(0.00415156 -0.00195601 -8.50704e-05 0.00415156 -4.19168e-19 0.00415156)
(0.00415156 -0.00195601 -8.50704e-05 0.00415156 3.75513e-19 0.00415156)
(0.00426803 -0.00201464 -8.92455e-05 0.00426803 -3.60669e-19 0.00426803)
(0.00426803 -0.00201464 -8.92455e-05 0.00426803 4.25073e-19 0.00426803)
(0.00438256 -0.00207189 -9.34851e-05 0.00438256 -3.14863e-19 0.00438256)
(0.00438256 -0.00207189 -9.34851e-05 0.00438256 4.4111e-19 0.00438256)
(0.00449501 -0.00212769 -9.77864e-05 0.00449501 -2.99145e-19 0.00449501)
(0.00449501 -0.00212769 -9.77864e-05 0.00449501 4.91918e-19 0.00449501)
(0.00460526 -0.00218201 -0.000102147 0.00460526 -2.58093e-19 0.00460526)
(0.00460526 -0.00218201 -0.000102147 0.00460526 5.16693e-19 0.00460526)
(0.00471321 -0.0022348 -0.000106565 0.00471321 -2.61139e-19 0.00471321)
(0.00471321 -0.0022348 -0.000106565 0.00471321 5.95918e-19 0.00471321)
(0.00481877 -0.00228606 -0.000111038 0.00481877 -2.38736e-19 0.00481877)
(0.00481877 -0.00228606 -0.000111038 0.00481877 7.36534e-19 0.00481877)
(0.00492186 -0.00233575 -0.000115565 0.00492186 -1.21286e-19 0.00492186)
(0.00492186 -0.00233575 -0.000115565 0.00492186 7.31706e-19 0.00492186)
(0.00502242 -0.00238388 -0.000120145 0.00502242 -1.10595e-19 0.00502242)
(0.00502242 -0.00238388 -0.000120145 0.00502242 7.81173e-19 0.00502242)
(0.00512039 -0.00243044 -0.000124776 0.00512039 -1.08023e-19 0.00512039)
(0.00512039 -0.00243044 -0.000124776 0.00512039 8.83741e-19 0.00512039)
(0.00521575 -0.00247544 -0.000129457 0.00521575 -1.09974e-19 0.00521575)
(0.00521575 -0.00247544 -0.000129457 0.00521575 1.04636e-18 0.00521575)
(0.00530847 -0.00251888 -0.000134187 0.00530847 -4.94228e-20 0.00530847)
(0.00530847 -0.00251888 -0.000134187 0.00530847 1.2328e-18 0.00530847)
(0.00539851 -0.00256079 -0.000138966 0.00539851 -8.61854e-22 0.00539851)
(0.00539851 -0.00256079 -0.000138966 0.00539851 1.34652e-18 0.00539851)
(0.00548588 -0.00260117 -0.000143794 0.00548588 2.19426e-19 0.00548588)
(0.00548588 -0.00260117 -0.000143794 0.00548588 1.27334e-18 0.00548588)
(0.00557057 -0.00264005 -0.000148671 0.00557057 3.11847e-19 0.00557057)
(0.00557057 -0.00264005 -0.000148671 0.00557057 1.28795e-18 0.00557057)
(0.00565258 -0.00267746 -0.000153595 0.00565258 2.30094e-19 0.00565258)
(0.00565258 -0.00267746 -0.000153595 0.00565258 1.33471e-18 0.00565258)
(0.00573193 -0.00271341 -0.000158568 0.00573193 2.97811e-19 0.00573193)
(0.00573193 -0.00271341 -0.000158568 0.00573193 1.52838e-18 0.00573193)
(0.00580863 -0.00274794 -0.000163588 0.00580863 6.14658e-19 0.00580863)
(0.00580863 -0.00274794 -0.000163588 0.00580863 1.71165e-18 0.00580863)
(0.00588271 -0.00278108 -0.000168658 0.00588271 6.88806e-19 0.00588271)
(0.00588271 -0.00278108 -0.000168658 0.00588271 1.82639e-18 0.00588271)
(0.00595419 -0.00281285 -0.000173775 0.00595419 5.69692e-19 0.00595419)
(0.00595419 -0.00281285 -0.000173775 0.00595419 1.96467e-18 0.00595419)
(0.0060231 -0.00284329 -0.000178942 0.0060231 5.28396e-19 0.0060231)
(0.0060231 -0.00284329 -0.000178942 0.0060231 2.08901e-18 0.0060231)
(0.00608947 -0.00287242 -0.000184159 0.00608947 4.98163e-19 0.00608947)
(0.00608947 -0.00287242 -0.000184159 0.00608947 2.57124e-18 0.00608947)
(0.00615334 -0.00290028 -0.000189425 0.00615334 7.30939e-19 0.00615334)
(0.00615334 -0.00290028 -0.000189425 0.00615334 2.50719e-18 0.00615334)
(0.00621474 -0.0029269 -0.000194741 0.00621474 8.38219e-19 0.00621474)
(0.00621474 -0.0029269 -0.000194741 0.00621474 2.54427e-18 0.00621474)
(0.00627372 -0.00295231 -0.000200109 0.00627372 6.50667e-19 0.00627372)
(0.00627372 -0.00295231 -0.000200109 0.00627372 2.64798e-18 0.00627372)
(0.00633031 -0.00297655 -0.000205529 0.00633031 6.61955e-19 0.00633031)
(0.00633031 -0.00297655 -0.000205529 0.00633031 3.11839e-18 0.00633031)
(0.00638456 -0.00299963 -0.000211 0.00638456 8.98095e-19 0.00638456)
(0.00638456 -0.00299963 -0.000211 0.00638456 3.4596e-18 0.00638456)
(0.00643651 -0.00302159 -0.000216525 0.00643651 8.0517e-19 0.00643651)
(0.00643651 -0.00302159 -0.000216525 0.00643651 3.803e-18 0.00643651)
(0.0064862 -0.00304246 -0.000222103 0.0064862 1.01826e-18 0.0064862)
(0.0064862 -0.00304246 -0.000222103 0.0064862 3.82495e-18 0.0064862)
(0.00653367 -0.00306227 -0.000227735 0.00653367 1.28298e-18 0.00653367)
(0.00653367 -0.00306227 -0.000227735 0.00653367 4.07111e-18 0.00653367)
(0.00657898 -0.00308105 -0.000233422 0.00657898 1.88562e-18 0.00657898)
(0.00657898 -0.00308105 -0.000233422 0.00657898 4.42978e-18 0.00657898)
(0.00662215 -0.00309881 -0.000239164 0.00662215 2.2675e-18 0.00662215)
(0.00662215 -0.00309881 -0.000239164 0.00662215 4.7176e-18 0.00662215)
(0.00666324 -0.0031156 -0.000244963 0.00666324 2.10081e-18 0.00666324)
(0.00666324 -0.0031156 -0.000244963 0.00666324 4.72872e-18 0.00666324)
(0.00670229 -0.00313143 -0.000250818 0.00670229 2.08602e-18 0.00670229)
(0.00670229 -0.00313143 -0.000250818 0.00670229 4.8569e-18 0.00670229)
(0.00673934 -0.00314633 -0.000256731 0.00673934 3.25172e-18 0.00673934)
(0.00673934 -0.00314633 -0.000256731 0.00673934 5.17552e-18 0.00673934)
(0.00677442 -0.00316033 -0.000262702 0.00677442 3.986e-18 0.00677442)
(0.00677442 -0.00316033 -0.000262702 0.00677442 5.94902e-18 0.00677442)
(0.00680759 -0.00317343 -0.000268731 0.00680759 4.24777e-18 0.00680759)
(0.00680759 -0.00317343 -0.000268731 0.00680759 5.87222e-18 0.00680759)
(0.00683888 -0.00318568 -0.00027482 0.00683888 4.81712e-18 0.00683888)
(0.00683888 -0.00318568 -0.00027482 0.00683888 5.99992e-18 0.00683888)
(0.00686832 -0.00319708 -0.000280968 0.00686832 5.09325e-18 0.00686832)
(0.00686832 -0.00319708 -0.000280968 0.00686832 6.03584e-18 0.00686832)
(0.00689596 -0.00320765 -0.000287177 0.00689596 5.08606e-18 0.00689596)
(0.00689596 -0.00320765 -0.000287177 0.00689596 6.99651e-18 0.00689596)
(0.00692183 -0.00321743 -0.000293446 0.00692183 5.55985e-18 0.00692183)
(0.00692183 -0.00321743 -0.000293446 0.00692183 7.00132e-18 0.00692183)
(0.00694598 -0.00322642 -0.000299775 0.00694598 5.73584e-18 0.00694598)
(0.00694598 -0.00322642 -0.000299775 0.00694598 7.29358e-18 0.00694598)
(0.00696842 -0.00323464 -0.000306167 0.00696842 6.39552e-18 0.00696842)
(0.00696842 -0.00323464 -0.000306167 0.00696842 7.79971e-18 0.00696842)
(0.0069892 -0.00324211 -0.00031262 0.0069892 6.84855e-18 0.0069892)
(0.0069892 -0.00324211 -0.00031262 0.0069892 6.81809e-18 0.0069892)
(0.00700835 -0.00324885 -0.000319135 0.00700835 7.23723e-18 0.00700835)
(0.00700835 -0.00324885 -0.000319135 0.00700835 5.29544e-18 0.00700835)
(0.00702589 -0.00325487 -0.000325712 0.00702589 6.57538e-18 0.00702589)
(0.00702589 -0.00325487 -0.000325712 0.00702589 5.28299e-18 0.00702589)
(0.00704187 -0.00326018 -0.000332351 0.00704187 6.01816e-18 0.00704187)
(0.00704187 -0.00326018 -0.000332351 0.00704187 6.91263e-18 0.00704187)
(0.0070563 -0.0032648 -0.000339052 0.0070563 6.7232e-18 0.0070563)
(0.0070563 -0.0032648 -0.000339052 0.0070563 8.05889e-18 0.0070563)
(0.00706922 -0.00326874 -0.000345816 0.00706922 6.40787e-18 0.00706922)
(0.00706922 -0.00326874 -0.000345816 0.00706922 9.03334e-18 0.00706922)
(0.00708065 -0.00327202 -0.000352642 0.00708065 5.80505e-18 0.00708065)
(0.00708065 -0.00327202 -0.000352642 0.00708065 1.14323e-17 0.00708065)
(0.00709062 -0.00327464 -0.000359531 0.00709062 6.26387e-18 0.00709062)
(0.00709062 -0.00327464 -0.000359531 0.00709062 1.33242e-17 0.00709062)
(0.00709914 -0.00327661 -0.000366481 0.00709914 6.54799e-18 0.00709914)
(0.00709914 -0.00327661 -0.000366481 0.00709914 1.30591e-17 0.00709914)
(0.00710626 -0.00327795 -0.000373493 0.00710626 6.27873e-18 0.00710626)
(0.00710626 -0.00327795 -0.000373493 0.00710626 9.25168e-18 0.00710626)
(0.00711198 -0.00327867 -0.000380566 0.00711198 6.23715e-18 0.00711198)
(0.00711198 -0.00327867 -0.000380566 0.00711198 6.8766e-18 0.00711198)
(0.00711633 -0.00327877 -0.000387699 0.00711633 5.89693e-18 0.00711633)
(0.00711633 -0.00327877 -0.000387699 0.00711633 8.00917e-18 0.00711633)
(0.00711932 -0.00327826 -0.000394893 0.00711932 4.35175e-18 0.00711932)
(0.00711932 -0.00327826 -0.000394893 0.00711932 7.41228e-18 0.00711932)
(0.00712099 -0.00327716 -0.000402147 0.00712099 4.49486e-18 0.00712099)
(0.00712099 -0.00327716 -0.000402147 0.00712099 7.33376e-18 0.00712099)
(0.00712133 -0.00327546 -0.000409459 0.00712133 3.69226e-18 0.00712133)
(0.00712133 -0.00327546 -0.000409459 0.00712133 8.41654e-18 0.00712133)
(0.00712038 -0.00327317 -0.000416828 0.00712038 7.49662e-18 0.00712038)
(0.00712038 -0.00327317 -0.000416828 0.00712038 9.46781e-18 0.00712038)
(0.00711815 -0.00327031 -0.000424255 0.00711815 6.77169e-18 0.00711815)
(0.00711815 -0.00327031 -0.000424255 0.00711815 1.03003e-17 0.00711815)
(0.00711465 -0.00326687 -0.000431737 0.00711465 5.24575e-18 0.00711465)
(0.00711465 -0.00326687 -0.000431737 0.00711465 1.0236e-17 0.00711465)
(0.0071099 -0.00326287 -0.000439274 0.0071099 3.60923e-18 0.0071099)
(0.0071099 -0.00326287 -0.000439274 0.0071099 7.66071e-18 0.0071099)
(0.00710391 -0.00325829 -0.000446863 0.00710391 4.78702e-18 0.00710391)
(0.00710391 -0.00325829 -0.000446863 0.00710391 8.08645e-18 0.00710391)
(0.0070967 -0.00325316 -0.000454504 0.0070967 4.64917e-18 0.0070967)
(0.0070967 -0.00325316 -0.000454504 0.0070967 1.15592e-17 0.0070967)
(0.00708826 -0.00324748 -0.000462195 0.00708826 4.09665e-18 0.00708826)
(0.00708826 -0.00324748 -0.000462195 0.00708826 1.15302e-17 0.00708826)
(0.00707862 -0.00324123 -0.000469933 0.00707862 4.84281e-18 0.00707862)
(0.00707862 -0.00324123 -0.000469933 0.00707862 1.22665e-17 0.00707862)
(0.00706779 -0.00323444 -0.000477717 0.00706779 5.35251e-18 0.00706779)
(0.00706779 -0.00323444 -0.000477717 0.00706779 1.50092e-17 0.00706779)
(0.00705577 -0.0032271 -0.000485545 0.00705577 5.72211e-18 0.00705577)
(0.00705577 -0.0032271 -0.000485545 0.00705577 1.48238e-17 0.00705577)
(0.00704257 -0.00321922 -0.000493415 0.00704257 4.3169e-18 0.00704257)
(0.00704257 -0.00321922 -0.000493415 0.00704257 1.33866e-17 0.00704257)
(0.00702821 -0.00321078 -0.000501323 0.00702821 5.0791e-18 0.00702821)
(0.00702821 -0.00321078 -0.000501323 0.00702821 1.19414e-17 0.00702821)
(0.00701268 -0.00320181 -0.000509267 0.00701268 5.27644e-18 0.00701268)
(0.00701268 -0.00320181 -0.000509267 0.00701268 1.21324e-17 0.00701268)
(0.00699599 -0.00319229 -0.000517244 0.00699599 4.26317e-18 0.00699599)
(0.00699599 -0.00319229 -0.000517244 0.00699599 1.57472e-17 0.00699599)
(0.00697815 -0.00318223 -0.000525251 0.00697815 5.08607e-18 0.00697815)
(0.00697815 -0.00318223 -0.000525251 0.00697815 1.54342e-17 0.00697815)
(0.00695916 -0.00317163 -0.000533285 0.00695916 5.43511e-18 0.00695916)
(0.00695916 -0.00317163 -0.000533285 0.00695916 1.34317e-17 0.00695916)
(0.00693903 -0.00316048 -0.000541342 0.00693903 3.2298e-18 0.00693903)
(0.00693903 -0.00316048 -0.000541342 0.00693903 1.41537e-17 0.00693903)
(0.00691775 -0.0031488 -0.000549418 0.00691775 5.87627e-18 0.00691775)
(0.00691775 -0.0031488 -0.000549418 0.00691775 1.34508e-17 0.00691775)
(0.00689534 -0.00313656 -0.000557509 0.00689534 5.93131e-18 0.00689534)
(0.00689534 -0.00313656 -0.000557509 0.00689534 1.39238e-17 0.00689534)
(0.0068718 -0.00312378 -0.000565611 0.0068718 5.37723e-18 0.0068718)
(0.0068718 -0.00312378 -0.000565611 0.0068718 1.48644e-17 0.0068718)
(0.00684712 -0.00311046 -0.000573719 0.00684712 4.36229e-18 0.00684712)
(0.00684712 -0.00311046 -0.000573719 0.00684712 1.75224e-17 0.00684712)
(0.0068213 -0.00309658 -0.000581829 0.0068213 2.34516e-18 0.0068213)
(0.0068213 -0.00309658 -0.000581829 0.0068213 3.11758e-17 0.0068213)
(0.00679435 -0.00308215 -0.000589934 0.00679435 6.02537e-18 0.00679435)
(0.00679435 -0.00308215 -0.000589934 0.00679435 3.81552e-17 0.00679435)
(0.00676627 -0.00306717 -0.00059803 0.00676627 3.8293e-18 0.00676627)
(0.00676627 -0.00306717 -0.00059803 0.00676627 4.03885e-17 0.00676627)
(0.00673705 -0.00305163 -0.000606111 0.00673705 5.08511e-18 0.00673705)
(0.00673705 -0.00305163 -0.000606111 0.00673705 3.98704e-17 0.00673705)
(0.00670669 -0.00303553 -0.00061417 0.00670669 1.91964e-18 0.00670669)
(0.00670669 -0.00303553 -0.00061417 0.00670669 4.25115e-17 0.00670669)
(0.0066752 -0.00301887 -0.000622201 0.0066752 3.85268e-18 0.0066752)
(0.0066752 -0.00301887 -0.000622201 0.0066752 4.24607e-17 0.0066752)
(0.00664256 -0.00300163 -0.000630198 0.00664256 5.89253e-18 0.00664256)
(0.00664256 -0.00300163 -0.000630198 0.00664256 3.70293e-17 0.00664256)
(0.00660879 -0.00298383 -0.000638152 0.00660879 1.10935e-18 0.00660879)
(0.00660879 -0.00298383 -0.000638152 0.00660879 3.71145e-17 0.00660879)
(0.00657386 -0.00296545 -0.000646057 0.00657386 -5.38831e-19 0.00657386)
(0.00657386 -0.00296545 -0.000646057 0.00657386 4.51546e-17 0.00657386)
(0.00653778 -0.00294648 -0.000653904 0.00653778 5.52735e-18 0.00653778)
(0.00653778 -0.00294648 -0.000653904 0.00653778 3.67567e-17 0.00653778)
(0.00650055 -0.00292693 -0.000661685 0.00650055 -1.03895e-18 0.00650055)
(0.00650055 -0.00292693 -0.000661685 0.00650055 3.65751e-17 0.00650055)
(0.00646216 -0.00290679 -0.00066939 0.00646216 -1.65732e-18 0.00646216)
(0.00646216 -0.00290679 -0.00066939 0.00646216 3.73178e-17 0.00646216)
(0.0064226 -0.00288605 -0.00067701 0.0064226 4.14428e-18 0.0064226)
(0.0064226 -0.00288605 -0.00067701 0.0064226 3.05495e-17 0.0064226)
(0.00638187 -0.00286471 -0.000684536 0.00638187 1.1304e-18 0.00638187)
(0.00638187 -0.00286471 -0.000684536 0.00638187 2.53923e-17 0.00638187)
(0.00633997 -0.00284276 -0.000691957 0.00633997 -1.09417e-18 0.00633997)
(0.00633997 -0.00284276 -0.000691957 0.00633997 2.24582e-17 0.00633997)
(0.00629688 -0.0028202 -0.000699262 0.00629688 -2.65615e-18 0.00629688)
(0.00629688 -0.0028202 -0.000699262 0.00629688 1.58614e-17 0.00629688)
(0.00625261 -0.00279701 -0.00070644 0.00625261 -1.73243e-18 0.00625261)
(0.00625261 -0.00279701 -0.00070644 0.00625261 7.95122e-18 0.00625261)
(0.00620714 -0.0027732 -0.000713478 0.00620714 -8.5289e-19 0.00620714)
(0.00620714 -0.0027732 -0.000713478 0.00620714 1.32139e-18 0.00620714)
(0.00616047 -0.00274875 -0.000720363 0.00616047 -2.50794e-18 0.00616047)
(0.00616047 -0.00274875 -0.000720363 0.00616047 7.67541e-18 0.00616047)
(0.0061126 -0.00272365 -0.000727083 0.0061126 1.79915e-18 0.0061126)
(0.0061126 -0.00272365 -0.000727083 0.0061126 -3.66894e-18 0.0061126)
(0.00606351 -0.00269791 -0.000733624 0.00606351 -4.51124e-19 0.00606351)
(0.00606351 -0.00269791 -0.000733624 0.00606351 -9.31174e-18 0.00606351)
(0.0060132 -0.00267151 -0.000739971 0.0060132 -1.58934e-18 0.0060132)
(0.0060132 -0.00267151 -0.000739971 0.0060132 -3.86781e-18 0.0060132)
(0.00596166 -0.00264444 -0.000746108 0.00596166 -3.20128e-18 0.00596166)
(0.00596166 -0.00264444 -0.000746108 0.00596166 -4.78921e-18 0.00596166)
(0.0059089 -0.0026167 -0.000752019 0.0059089 -5.36668e-18 0.0059089)