/*--------------------------------*- C++ -*----------------------------------*\
| =========                 |                                                 |
| \\      /  F ield         | OpenFOAM: The Open Source CFD Toolbox           |
|  \\    /   O peration     | Version:  2106                                  |
|   \\  /    A nd           | Website:  www.openfoam.com                      |
|    \\/     M anipulation  |                                                 |
\*---------------------------------------------------------------------------*/
FoamFile
{
    version     2.0;
    format      ascii;
    arch        "LSB;label=32;scalar=64";
    class       volVectorField;
    location    "10070";
    object      U;
}
// * * * * * * * * * * * * * * * * * * * * * * * * * * * * * * * * * * * * * //

dimensions      [0 1 -1 0 0 0 0];

internalField   nonuniform List<vector> 
2000
(
(0.00120284 -9.39235e-16 1.07717e-18)
(0.00120284 -7.37999e-19 7.99097e-19)
(0.00363051 -1.08436e-15 6.19457e-17)
(0.00363051 8.56713e-19 4.70372e-18)
(0.00610303 -2.53486e-15 6.9169e-17)
(0.00610303 8.87128e-19 2.06225e-18)
(0.00862122 -2.30629e-15 6.77022e-17)
(0.00862122 1.43802e-18 6.94098e-18)
(0.0111859 -2.25942e-15 7.20741e-17)
(0.0111859 2.00101e-18 1.05935e-17)
(0.0137979 -2.27514e-15 7.65573e-17)
(0.0137979 2.56023e-18 1.09416e-17)
(0.0164581 -2.2811e-15 7.77661e-17)
(0.0164581 3.12579e-18 1.12918e-17)
(0.0191674 -2.28262e-15 7.89944e-17)
(0.0191674 3.71306e-18 1.16436e-17)
(0.0219266 -2.28356e-15 8.02762e-17)
(0.0219266 4.30224e-18 1.1997e-17)
(0.0247367 -2.28469e-15 8.16256e-17)
(0.0247367 4.8931e-18 1.23514e-17)
(0.0275985 -2.2858e-15 8.3039e-17)
(0.0275985 5.48113e-18 1.27058e-17)
(0.0305131 -2.28688e-15 8.45167e-17)
(0.0305131 6.08207e-18 1.30604e-17)
(0.0334814 -2.28795e-15 8.89298e-17)
(0.0334814 6.6877e-18 1.34139e-17)
(0.0365042 -2.28903e-15 9.43396e-17)
(0.0365042 7.26756e-18 1.37662e-17)
(0.0395827 -2.29012e-15 9.99814e-17)
(0.0395827 7.84232e-18 1.41155e-17)
(0.0427179 -2.29121e-15 1.05864e-16)
(0.0427179 8.3801e-18 1.44622e-17)
(0.0459107 -2.29234e-15 1.11997e-16)
(0.0459107 8.93012e-18 1.48045e-17)
(0.0491621 -2.29352e-15 1.18389e-16)
(0.0491621 9.51705e-18 1.51412e-17)
(0.0524733 -2.29465e-15 1.2505e-16)
(0.0524733 1.0056e-17 1.54734e-17)
(0.0558453 -2.29576e-15 1.3199e-16)
(0.0558453 1.05787e-17 1.57974e-17)
(0.0592793 -2.2969e-15 1.3922e-16)
(0.0592793 1.11433e-17 1.61126e-17)
(0.0627762 -2.29801e-15 1.4675e-16)
(0.0627762 1.16685e-17 1.6419e-17)
(0.0663373 -2.29914e-15 1.54592e-16)
(0.0663373 1.21622e-17 1.67139e-17)
(0.0699636 -2.3003e-15 1.62757e-16)
(0.0699636 1.26805e-17 1.69974e-17)
(0.0736564 -2.30151e-15 1.71258e-16)
(0.0736564 1.3181e-17 1.72659e-17)
(0.0774169 -2.30268e-15 1.75864e-16)
(0.0774169 1.36902e-17 1.75183e-17)
(0.0812462 -2.30378e-15 1.77839e-16)
(0.0812462 1.41272e-17 1.77568e-17)
(0.0851455 -2.30486e-15 1.79846e-16)
(0.0851455 1.44403e-17 1.79757e-17)
(0.0891161 -2.30589e-15 1.81889e-16)
(0.0891161 1.48556e-17 1.81761e-17)
(0.0931592 -2.30694e-15 1.84196e-16)
(0.0931592 1.52371e-17 1.83559e-17)
(0.0972762 -2.30792e-15 1.86617e-16)
(0.0972762 1.56435e-17 1.85179e-17)
(0.101468 -2.30883e-15 1.89103e-16)
(0.101468 1.60269e-17 1.86544e-17)
(0.105737 -2.30978e-15 1.91665e-16)
(0.105737 1.62629e-17 1.87686e-17)
(0.110083 -2.31083e-15 1.94309e-16)
(0.110083 1.65233e-17 1.88516e-17)
(0.114508 -2.31193e-15 1.97038e-16)
(0.114508 1.69756e-17 1.89035e-17)
(0.119013 -2.31302e-15 1.99854e-16)
(0.119013 1.74579e-17 1.89199e-17)
(0.1236 -2.31393e-15 2.02763e-16)
(0.1236 1.76595e-17 1.89036e-17)
(0.128271 -2.31503e-15 2.05774e-16)
(0.128271 1.80553e-17 1.88598e-17)
(0.133025 -2.31605e-15 2.0888e-16)
(0.133025 1.82979e-17 1.87674e-17)
(0.137866 -2.31653e-15 2.12092e-16)
(0.137866 1.82149e-17 1.86327e-17)
(0.142793 -2.31708e-15 2.15427e-16)
(0.142793 1.84201e-17 1.84565e-17)
(0.147809 -2.31796e-15 2.18889e-16)
(0.147809 1.85897e-17 1.82268e-17)
(0.152914 -2.31878e-15 2.2247e-16)
(0.152914 1.86534e-17 1.79466e-17)
(0.158111 -2.31944e-15 2.26172e-16)
(0.158111 1.84495e-17 1.7618e-17)
(0.1634 -2.3199e-15 2.30006e-16)
(0.1634 1.82197e-17 1.72468e-17)
(0.168782 -2.32003e-15 2.33987e-16)
(0.168782 1.79263e-17 1.68275e-17)
(0.174259 -2.32035e-15 2.38106e-16)
(0.174259 1.74674e-17 1.63423e-17)
(0.179832 -2.32059e-15 2.42373e-16)
(0.179832 1.73323e-17 1.57939e-17)
(0.185501 -2.32073e-15 2.46805e-16)
(0.185501 1.70944e-17 1.5199e-17)
(0.191269 -2.32115e-15 2.51402e-16)
(0.191269 1.65902e-17 1.45463e-17)
(0.197135 -2.32122e-15 2.56148e-16)
(0.197135 1.60033e-17 1.37816e-17)
(0.2031 -2.32096e-15 2.61055e-16)
(0.2031 1.54191e-17 1.29561e-17)
(0.209166 -2.32061e-15 2.66155e-16)
(0.209166 1.46331e-17 1.20723e-17)
(0.215332 -2.3202e-15 2.71415e-16)
(0.215332 1.35925e-17 1.1098e-17)
(0.221599 -2.31913e-15 2.76835e-16)
(0.221599 1.23119e-17 1.00508e-17)
(0.227966 -2.31803e-15 2.82435e-16)
(0.227966 1.10846e-17 8.94914e-18)
(0.234435 -2.31748e-15 2.88194e-16)
(0.234435 1.02285e-17 7.74283e-18)
(0.241004 -2.31674e-15 2.94101e-16)
(0.241004 9.17734e-18 6.4615e-18)
(0.247672 -2.31583e-15 3.00175e-16)
(0.247672 7.43195e-18 5.08738e-18)
(0.25444 -2.31434e-15 3.064e-16)
(0.25444 5.47434e-18 3.61998e-18)
(0.261305 -2.31271e-15 3.12746e-16)
(0.261305 3.68406e-18 2.05646e-18)
(0.268266 -2.31219e-15 3.19219e-16)
(0.268266 2.64414e-18 4.52367e-19)
(0.275321 -2.31163e-15 3.25795e-16)
(0.275321 1.39051e-18 -4.82752e-19)
(0.282468 -2.3103e-15 3.32493e-16)
(0.282468 -1.15987e-18 -4.8212e-19)
(0.289704 -2.30814e-15 3.39201e-16)
(0.289704 -3.56172e-18 -5.1322e-19)
(0.297026 -2.30451e-15 3.4602e-16)
(0.297026 -5.96366e-18 -4.88459e-19)
(0.304431 -2.3011e-15 3.52953e-16)
(0.304431 -9.03212e-18 -4.85671e-19)
(0.311914 -2.29871e-15 3.59942e-16)
(0.311914 -1.20426e-17 -4.9256e-19)
(0.319471 -2.29605e-15 3.66976e-16)
(0.319471 -1.41355e-17 -5.10452e-19)
(0.327097 -2.29295e-15 3.73971e-16)
(0.327097 -1.70388e-17 -5.25892e-19)
(0.334788 -2.28961e-15 3.81001e-16)
(0.334788 -2.06898e-17 -4.78857e-19)
(0.342537 -2.2863e-15 3.87993e-16)
(0.342537 -2.30873e-17 -4.65222e-19)
(0.35034 -2.28315e-15 3.94912e-16)
(0.35034 -2.66786e-17 -4.86321e-19)
(0.358189 -2.27936e-15 4.01786e-16)
(0.358189 -3.1407e-17 -5.12869e-19)
(0.366078 -2.27552e-15 4.08487e-16)
(0.366078 -3.4585e-17 -5.74694e-19)
(0.374002 -2.27219e-15 4.15117e-16)
(0.374002 -3.7846e-17 -5.4684e-19)
(0.381952 -2.26838e-15 4.21634e-16)
(0.381952 -4.10782e-17 -5.21947e-19)
(0.389923 -2.26411e-15 4.27971e-16)
(0.389923 -4.48082e-17 -5.40237e-19)
(0.397908 -2.25951e-15 4.34252e-16)
(0.397908 -4.92178e-17 -5.69529e-19)
(0.4059 -2.2551e-15 4.40304e-16)
(0.4059 -5.28522e-17 -6.14978e-19)
(0.413892 -2.25112e-15 4.46182e-16)
(0.413892 -5.66269e-17 -6.41718e-19)
(0.421878 -2.24615e-15 4.51929e-16)
(0.421878 -6.03584e-17 -6.04172e-19)
(0.429851 -2.23989e-15 4.57649e-16)
(0.429851 -6.47843e-17 -6.58412e-19)
(0.437805 -2.23372e-15 4.6307e-16)
(0.437805 -6.93024e-17 -9.07336e-19)
(0.445735 -2.228e-15 4.68259e-16)
(0.445735 -7.45216e-17 -8.87383e-19)
(0.453635 -2.22194e-15 4.73267e-16)
(0.453635 -7.98889e-17 -7.1934e-19)
(0.4615 -2.21714e-15 4.78106e-16)
(0.4615 -8.54243e-17 -7.73044e-19)
(0.469324 -2.2131e-15 4.82625e-16)
(0.469324 -9.17984e-17 -8.5032e-19)
(0.477104 -2.20597e-15 4.87014e-16)
(0.477104 -9.76974e-17 -7.1785e-19)
(0.484836 -2.19952e-15 4.9136e-16)
(0.484836 -1.0335e-16 -5.62206e-19)
(0.492516 -2.19503e-15 4.95495e-16)
(0.492516 -1.08613e-16 -7.08279e-19)
(0.500139 -2.18887e-15 4.9958e-16)
(0.500139 -1.13055e-16 -6.35245e-19)
(0.507705 -2.18014e-15 5.03621e-16)
(0.507705 -1.18735e-16 -7.87586e-19)
(0.515209 -2.17086e-15 5.07028e-16)
(0.515209 -1.24743e-16 -1.04119e-18)
(0.52265 -2.16431e-15 5.09124e-16)
(0.52265 -1.29661e-16 -1.02621e-18)
(0.530025 -2.15794e-15 5.11275e-16)
(0.530025 -1.34046e-16 -9.66358e-19)
(0.537334 -2.149e-15 5.1328e-16)
(0.537334 -1.39833e-16 -1.07724e-18)
(0.544575 -2.13963e-15 5.15173e-16)
(0.544575 -1.45741e-16 -1.26629e-18)
(0.551746 -2.13071e-15 5.16691e-16)
(0.551746 -1.5313e-16 -1.40752e-18)
(0.558848 -2.12214e-15 5.1815e-16)
(0.558848 -1.61832e-16 -1.42519e-18)
(0.565879 -2.11221e-15 5.19469e-16)
(0.565879 -1.67917e-16 -1.39721e-18)
(0.572839 -2.10183e-15 5.20738e-16)
(0.572839 -1.74127e-16 -1.26071e-18)
(0.579728 -2.09188e-15 5.22084e-16)
(0.579728 -1.84278e-16 -1.49709e-18)
(0.586546 -2.08062e-15 5.23139e-16)
(0.586546 -1.93494e-16 -1.73252e-18)
(0.593294 -2.06974e-15 5.23906e-16)
(0.593294 -2.02476e-16 -1.62853e-18)
(0.599972 -2.0598e-15 5.24866e-16)
(0.599972 -2.13868e-16 -1.58397e-18)
(0.606579 -2.0506e-15 5.25519e-16)
(0.606579 -2.21333e-16 -1.50096e-18)
(0.613118 -2.04274e-15 5.26419e-16)
(0.613118 -2.27443e-16 -1.91255e-18)
(0.619587 -2.03689e-15 5.26694e-16)
(0.619587 -2.30586e-16 -2.40469e-18)
(0.625989 -2.02723e-15 5.27062e-16)
(0.625989 -2.33947e-16 -3.02763e-18)
(0.632324 -2.01637e-15 5.26798e-16)
(0.632324 -2.40589e-16 -3.11566e-18)
(0.638594 -2.00708e-15 5.26805e-16)
(0.638594 -2.46824e-16 -2.90315e-18)
(0.644798 -1.9956e-15 5.26803e-16)
(0.644798 -2.53968e-16 -2.93143e-18)
(0.650937 -1.98222e-15 5.26422e-16)
(0.650937 -2.661e-16 -3.01549e-18)
(0.657014 -1.96907e-15 5.25669e-16)
(0.657014 -2.77814e-16 -3.12991e-18)
(0.663029 -1.95695e-15 5.25032e-16)
(0.663029 -2.86506e-16 -3.11746e-18)
(0.668983 -1.94212e-15 5.24753e-16)
(0.668983 -2.94924e-16 -2.56894e-18)
(0.674878 -1.92775e-15 5.24708e-16)
(0.674878 -3.04793e-16 -3.01813e-18)
(0.680713 -1.91908e-15 5.23584e-16)
(0.680713 -3.15798e-16 -3.66592e-18)
(0.686492 -1.90118e-15 5.22924e-16)
(0.686492 -3.24826e-16 -3.52649e-18)
(0.692214 -1.88791e-15 5.22687e-16)
(0.692214 -3.34117e-16 -2.61928e-18)
(0.69788 -1.87797e-15 5.22219e-16)
(0.69788 -3.46908e-16 -2.717e-18)
(0.703492 -1.8616e-15 5.21557e-16)
(0.703492 -3.54768e-16 -2.80001e-18)
(0.709052 -1.85013e-15 5.21191e-16)
(0.709052 -3.61282e-16 -3.38199e-18)
(0.714559 -1.83874e-15 5.20254e-16)
(0.714559 -3.68421e-16 -3.93309e-18)
(0.720016 -1.82665e-15 5.1919e-16)
(0.720016 -3.77891e-16 -4.04974e-18)
(0.725423 -1.81337e-15 5.17504e-16)
(0.725423 -3.86588e-16 -4.41089e-18)
(0.730781 -1.80074e-15 5.14612e-16)
(0.730781 -3.92665e-16 -4.86195e-18)
(0.736092 -1.79151e-15 5.11654e-16)
(0.736092 -4.04624e-16 -5.58517e-18)
(0.741356 -1.78967e-15 5.08942e-16)
(0.741356 -4.12435e-16 -5.6823e-18)
(0.746574 -1.77716e-15 5.04954e-16)
(0.746574 -4.19396e-16 -5.17362e-18)
(0.751748 -1.76352e-15 5.00246e-16)
(0.751748 -4.26532e-16 -5.83111e-18)
(0.756879 -1.75201e-15 4.94222e-16)
(0.756879 -4.3449e-16 -6.94486e-18)
(0.761966 -1.73663e-15 4.88528e-16)
(0.761966 -4.42511e-16 -7.09284e-18)
(0.767012 -1.7183e-15 4.81552e-16)
(0.767012 -4.49165e-16 -5.65987e-18)
(0.772018 -1.70597e-15 4.7576e-16)
(0.772018 -4.57699e-16 -6.29006e-18)
(0.776983 -1.69369e-15 4.6794e-16)
(0.776983 -4.68235e-16 -6.87483e-18)
(0.781909 -1.67817e-15 4.60923e-16)
(0.781909 -4.78443e-16 -5.9631e-18)
(0.786797 -1.66202e-15 4.53383e-16)
(0.786797 -4.83424e-16 -6.45998e-18)
(0.791648 -1.64815e-15 4.44726e-16)
(0.791648 -4.93413e-16 -5.41121e-18)
(0.796462 -1.63111e-15 4.35646e-16)
(0.796462 -5.03445e-16 -1.80314e-18)
(0.801241 -1.61452e-15 4.26718e-16)
(0.801241 -5.09678e-16 4.30409e-18)
(0.805985 -1.60078e-15 4.19759e-16)
(0.805985 -5.19752e-16 8.99069e-18)
(0.810694 -1.58379e-15 4.12071e-16)
(0.810694 -5.26573e-16 1.20274e-17)
(0.81537 -1.56845e-15 4.03969e-16)
(0.81537 -5.33195e-16 1.47244e-17)
(0.820014 -1.55459e-15 3.97071e-16)
(0.820014 -5.40737e-16 1.62596e-17)
(0.824625 -1.53924e-15 3.9055e-16)
(0.824625 -5.52384e-16 1.35777e-17)
(0.829205 -1.5257e-15 3.82861e-16)
(0.829205 -5.63452e-16 1.12872e-17)
(0.833754 -1.50999e-15 3.75347e-16)
(0.833754 -5.70053e-16 1.09969e-17)
(0.838273 -1.48808e-15 3.69094e-16)
(0.838273 -5.80721e-16 2.07064e-17)
(0.842763 -1.46313e-15 3.63316e-16)
(0.842763 -5.89082e-16 2.87774e-17)
(0.847223 -1.44861e-15 3.58929e-16)
(0.847223 -5.91275e-16 3.69757e-17)
(0.851656 -1.42655e-15 3.55023e-16)
(0.851656 -5.98465e-16 4.73607e-17)
(0.856061 -1.43568e-15 3.5225e-16)
(0.856061 -6.10468e-16 5.72896e-17)
(0.860438 -1.41576e-15 3.45083e-16)
(0.860438 -6.18782e-16 6.60967e-17)
(0.864789 -1.39984e-15 3.37344e-16)
(0.864789 -6.34726e-16 7.41616e-17)
(0.869114 -1.38232e-15 3.31277e-16)
(0.869114 -6.43476e-16 8.30109e-17)
(0.873413 -1.36766e-15 3.28165e-16)
(0.873413 -6.49237e-16 9.29878e-17)
(0.877687 -1.3451e-15 3.25761e-16)
(0.877687 -6.65032e-16 1.1029e-16)
(0.881936 -1.32757e-15 3.21836e-16)
(0.881936 -6.71732e-16 1.22187e-16)
(0.886161 -1.3114e-15 3.18567e-16)
(0.886161 -6.81957e-16 1.32346e-16)
(0.890362 -1.28588e-15 3.15827e-16)
(0.890362 -6.85208e-16 1.45251e-16)
(0.89454 -1.26737e-15 3.13472e-16)
(0.89454 -6.88023e-16 1.54808e-16)
(0.898694 -1.25215e-15 3.07489e-16)
(0.898694 -6.92131e-16 1.6259e-16)
(0.902826 -1.23652e-15 3.03389e-16)
(0.902826 -6.92013e-16 1.7375e-16)
(0.906936 -1.22178e-15 3.01259e-16)
(0.906936 -7.05012e-16 1.86707e-16)
(0.911023 -1.2135e-15 2.94998e-16)
(0.911023 -7.11663e-16 2.04278e-16)
(0.915089 -1.20568e-15 2.90479e-16)
(0.915089 -7.10083e-16 2.19093e-16)
(0.919134 -1.19041e-15 2.86716e-16)
(0.919134 -7.10886e-16 2.29854e-16)
(0.923158 -1.17513e-15 2.82634e-16)
(0.923158 -7.10489e-16 2.46573e-16)
(0.927161 -1.16493e-15 2.78108e-16)
(0.927161 -7.11646e-16 2.63397e-16)
(0.931143 -1.14191e-15 2.78018e-16)
(0.931143 -7.14004e-16 2.80708e-16)
(0.935105 -1.12582e-15 2.71272e-16)
(0.935105 -7.12102e-16 3.01253e-16)
(0.939048 -1.11958e-15 2.68847e-16)
(0.939048 -7.05133e-16 3.18393e-16)
(0.94297 -1.1009e-15 2.59936e-16)
(0.94297 -7.01961e-16 3.37833e-16)
(0.946873 -1.08131e-15 2.64909e-16)
(0.946873 -7.01978e-16 3.50034e-16)
(0.950757 -1.06307e-15 2.61339e-16)
(0.950757 -6.98683e-16 3.43268e-16)
(0.954621 -1.05323e-15 2.56753e-16)
(0.954621 -6.82149e-16 3.33573e-16)
(0.958467 -1.04683e-15 2.55592e-16)
(0.958467 -6.75528e-16 3.2161e-16)
(0.962293 -1.0505e-15 2.46443e-16)
(0.962293 -6.71042e-16 3.14806e-16)
(0.966101 -1.00169e-15 2.5089e-16)
(0.966101 -6.74138e-16 2.9793e-16)
(0.96989 -9.60675e-16 2.56931e-16)
(0.96989 -6.9487e-16 2.9388e-16)
(0.973661 -9.4412e-16 2.53224e-16)
(0.973661 -6.9739e-16 2.93421e-16)
(0.977413 -9.27083e-16 2.61342e-16)
(0.977413 -7.02011e-16 2.77933e-16)
(0.981147 -9.06818e-16 2.61957e-16)
(0.981147 -6.96991e-16 2.72883e-16)
(0.984862 -8.98586e-16 2.56328e-16)
(0.984862 -6.82337e-16 2.77565e-16)
(0.98856 -8.86275e-16 2.68484e-16)
(0.98856 -6.86789e-16 2.75188e-16)
(0.992238 -8.80886e-16 2.66082e-16)
(0.992238 -7.17311e-16 2.75001e-16)
(0.995899 -8.77456e-16 2.6045e-16)
(0.995899 -7.42795e-16 2.73537e-16)
(0.99954 -8.69004e-16 2.64937e-16)
(0.99954 -7.40075e-16 2.74819e-16)
(1.00316 -8.55281e-16 2.67353e-16)
(1.00316 -7.55009e-16 2.79092e-16)
(1.00677 -8.32755e-16 2.7865e-16)
(1.00677 -7.69414e-16 2.84023e-16)
(1.01036 -8.15366e-16 2.83153e-16)
(1.01036 -7.6502e-16 2.90745e-16)
(1.01392 -8.12115e-16 2.89842e-16)
(1.01392 -7.74304e-16 3.06674e-16)
(1.01747 -8.01159e-16 2.91306e-16)
(1.01747 -7.94579e-16 3.06048e-16)
(1.021 -7.93043e-16 2.91015e-16)
(1.021 -7.78367e-16 3.19865e-16)
(1.02451 -7.88218e-16 2.96967e-16)
(1.02451 -7.72548e-16 3.3924e-16)
(1.028 -7.88399e-16 2.97814e-16)
(1.028 -7.86809e-16 3.4395e-16)
(1.03147 -7.8878e-16 3.05676e-16)
(1.03147 -7.50941e-16 3.52787e-16)
(1.03493 -7.73456e-16 3.11998e-16)
(1.03493 -7.22771e-16 3.68367e-16)
(1.03836 -7.47628e-16 3.22898e-16)
(1.03836 -7.17914e-16 3.53896e-16)
(1.04177 -7.1517e-16 3.25621e-16)
(1.04177 -7.17258e-16 3.59308e-16)
(1.04516 -6.96473e-16 3.16398e-16)
(1.04516 -7.07451e-16 3.81969e-16)
(1.04852 -6.82619e-16 3.42566e-16)
(1.04852 -6.87309e-16 3.9618e-16)
(1.05187 -6.72787e-16 3.61092e-16)
(1.05187 -6.28479e-16 3.59071e-16)
(1.05519 -6.53761e-16 3.57644e-16)
(1.05519 -6.05007e-16 3.9357e-16)
(1.0585 -6.08786e-16 3.57284e-16)
(1.0585 -6.51616e-16 4.06117e-16)
(1.06177 -5.77222e-16 3.66621e-16)
(1.06177 -6.3902e-16 3.78502e-16)
(1.06503 -5.72652e-16 3.42086e-16)
(1.06503 -5.92471e-16 3.75412e-16)
(1.06826 -5.59364e-16 3.31457e-16)
(1.06826 -5.51678e-16 3.97302e-16)
(1.07146 -5.33516e-16 3.40783e-16)
(1.07146 -5.04991e-16 3.97075e-16)
(1.07464 -5.29647e-16 3.52725e-16)
(1.07464 -5.24341e-16 3.64425e-16)
(1.07779 -5.28487e-16 3.44987e-16)
(1.07779 -5.57065e-16 3.17421e-16)
(1.08091 -5.25098e-16 3.41347e-16)
(1.08091 -5.31155e-16 3.63934e-16)
(1.08401 -5.30903e-16 3.78986e-16)
(1.08401 -5.46195e-16 3.76289e-16)
(1.08707 -5.4492e-16 3.73521e-16)
(1.08707 -5.45452e-16 3.41615e-16)
(1.09011 -5.3852e-16 3.93609e-16)
(1.09011 -5.05208e-16 3.36773e-16)
(1.09311 -5.20368e-16 3.702e-16)
(1.09311 -5.00739e-16 3.60636e-16)
(1.09608 -4.99452e-16 3.89819e-16)
(1.09608 -5.13834e-16 3.1855e-16)
(1.09901 -5.35307e-16 3.39877e-16)
(1.09901 -5.24778e-16 3.27609e-16)
(1.10191 -5.3244e-16 3.54441e-16)
(1.10191 -5.22315e-16 3.57548e-16)
(1.10478 -4.93789e-16 3.51462e-16)
(1.10478 -5.11184e-16 3.8558e-16)
(1.1076 -5.13441e-16 3.20567e-16)
(1.1076 -4.95925e-16 3.46245e-16)
(1.11038 -5.17668e-16 3.45884e-16)
(1.11038 -5.40377e-16 2.64513e-16)
(1.11312 -4.91967e-16 3.13209e-16)
(1.11312 -5.10338e-16 3.06951e-16)
(1.11581 -4.85276e-16 3.29301e-16)
(1.11581 -5.24185e-16 3.03102e-16)
(1.11846 -4.89892e-16 3.30003e-16)
(1.11846 -5.01487e-16 3.0665e-16)
(1.12106 -4.87666e-16 3.68381e-16)
(1.12106 -4.51062e-16 3.15553e-16)
(1.1236 -4.95545e-16 3.78468e-16)
(1.1236 -4.89796e-16 2.77074e-16)
(1.12609 -4.95348e-16 3.49033e-16)
(1.12609 -5.09844e-16 2.56796e-16)
(1.12853 -4.76457e-16 3.369e-16)
(1.12853 -4.53686e-16 2.56155e-16)
(1.1309 -4.70867e-16 3.42446e-16)
(1.1309 -4.89232e-16 3.1567e-16)
(1.1332 -4.62563e-16 3.33668e-16)
(1.1332 -4.87561e-16 3.30333e-16)
(1.13544 -5.68069e-16 2.81291e-16)
(1.13544 -4.8051e-16 2.99216e-16)
(1.1376 -5.27577e-16 2.64634e-16)
(1.1376 -4.91973e-16 2.41944e-16)
(1.13969 -5.26102e-16 2.64354e-16)
(1.13969 -4.86687e-16 2.79952e-16)
(1.14169 -5.06211e-16 2.16224e-16)
(1.14169 -5.09132e-16 3.28121e-16)
(1.1436 -4.9374e-16 2.18833e-16)
(1.1436 -5.41382e-16 2.3993e-16)
(1.14542 -5.08197e-16 2.16677e-16)
(1.14542 -4.89694e-16 1.8314e-16)
(1.14714 -4.98113e-16 2.79121e-16)
(1.14714 -5.76192e-16 2.6461e-16)
(1.14875 -5.50944e-16 2.35818e-16)
(1.14875 -5.35671e-16 3.13966e-16)
(1.15024 -4.78415e-16 2.19485e-16)
(1.15024 -4.96217e-16 2.33017e-16)
(1.15161 -5.71513e-16 2.34031e-16)
(1.15161 -4.86832e-16 1.76137e-16)
(1.15284 -5.14089e-16 1.5001e-16)
(1.15284 -4.79598e-16 1.62249e-16)
(1.15393 -4.74924e-16 1.66619e-16)
(1.15393 -4.37372e-16 1.58516e-16)
(1.15487 -4.3692e-16 2.52187e-16)
(1.15487 -4.98097e-16 7.54639e-17)
(1.15564 -4.38173e-16 2.04525e-16)
(1.15564 -4.38883e-16 1.14642e-16)
(1.15623 -3.56308e-16 1.7207e-16)
(1.15623 -3.78297e-16 7.8585e-17)
(1.15664 -3.21276e-16 1.58835e-16)
(1.15664 -4.05569e-16 1.00274e-16)
(1.15685 -4.11288e-16 5.11172e-17)
(1.15685 -3.54232e-16 1.49329e-16)
(0.00120284 -3.64957e-19 -6.7595e-19)
(0.00120284 -5.21493e-20 5.11383e-18)
(0.00363051 4.58125e-19 1.40064e-17)
(0.00363051 1.37132e-19 2.03115e-17)
(0.00610303 5.02944e-19 1.52335e-17)
(0.00610303 1.73927e-19 2.107e-17)
(0.00862122 8.11471e-19 1.4599e-17)
(0.00862122 2.79723e-19 2.18536e-17)
(0.0111859 1.12671e-18 1.18024e-17)
(0.0111859 3.90978e-19 2.26628e-17)
(0.0137979 1.44394e-18 9.27025e-18)
(0.0137979 5.12185e-19 2.34984e-17)
(0.0164581 1.76575e-18 6.8001e-18)
(0.0164581 6.51952e-19 2.43608e-17)
(0.0191674 2.09199e-18 4.19568e-18)
(0.0191674 7.94679e-19 2.52505e-17)
(0.0219266 2.42609e-18 1.47719e-18)
(0.0219266 9.39231e-19 2.61683e-17)
(0.0247367 2.76808e-18 -1.34975e-18)
(0.0247367 1.09606e-18 2.71157e-17)
(0.0275985 3.11139e-18 -4.29443e-18)
(0.0275985 1.25025e-18 2.80925e-17)
(0.0305131 3.45584e-18 -7.36208e-18)
(0.0305131 1.41179e-18 2.90998e-17)
(0.0334814 3.78456e-18 -1.05556e-17)
(0.0334814 1.59147e-18 3.01386e-17)
(0.0365042 4.12348e-18 -1.21005e-17)
(0.0365042 1.78415e-18 3.12103e-17)
(0.0395827 4.49711e-18 -1.2481e-17)
(0.0395827 1.95859e-18 3.23145e-17)
(0.0427179 4.84686e-18 -1.28676e-17)
(0.0427179 2.17659e-18 3.34534e-17)
(0.0459107 5.15266e-18 -1.32616e-17)
(0.0459107 2.41993e-18 3.46274e-17)
(0.0491621 5.48417e-18 -1.36628e-17)
(0.0491621 2.65478e-18 3.58358e-17)
(0.0524733 5.83569e-18 -1.40696e-17)
(0.0524733 2.88893e-18 3.70821e-17)
(0.0558453 6.16347e-18 -1.44833e-17)
(0.0558453 3.11249e-18 3.83668e-17)
(0.0592793 6.47555e-18 -1.49027e-17)
(0.0592793 3.42047e-18 3.96888e-17)
(0.0627762 6.81639e-18 -1.53288e-17)
(0.0627762 3.76461e-18 4.09528e-17)
(0.0663373 7.16572e-18 -1.57608e-17)
(0.0663373 4.05325e-18 4.21127e-17)
(0.0699636 7.48234e-18 -1.61997e-17)
(0.0699636 4.35571e-18 4.32902e-17)
(0.0736564 7.80851e-18 -1.66446e-17)
(0.0736564 4.66838e-18 4.44856e-17)
(0.0774169 8.02674e-18 -1.70934e-17)
(0.0774169 4.9961e-18 4.56943e-17)
(0.0812462 8.19433e-18 -1.75514e-17)
(0.0812462 5.42793e-18 4.69222e-17)
(0.0851455 8.47363e-18 -1.80103e-17)
(0.0851455 5.87875e-18 4.81706e-17)
(0.0891161 8.81497e-18 -1.84747e-17)
(0.0891161 6.2524e-18 4.94361e-17)
(0.0931592 9.14415e-18 -1.89444e-17)
(0.0931592 6.59751e-18 5.0713e-17)
(0.0972762 9.39342e-18 -1.94207e-17)
(0.0972762 6.98244e-18 5.20073e-17)
(0.101468 9.61202e-18 -1.99017e-17)
(0.101468 7.42619e-18 5.33163e-17)
(0.105737 9.89495e-18 -2.03836e-17)
(0.105737 7.82857e-18 5.46434e-17)
(0.110083 1.01925e-17 -2.0869e-17)
(0.110083 8.17484e-18 5.59856e-17)
(0.114508 1.05226e-17 -2.13549e-17)
(0.114508 8.58058e-18 5.73428e-17)
(0.119013 1.09172e-17 -2.18438e-17)
(0.119013 8.90934e-18 5.87069e-17)
(0.1236 1.14255e-17 -2.23386e-17)
(0.1236 9.29345e-18 6.00749e-17)
(0.128271 1.17353e-17 -2.28327e-17)
(0.128271 9.9428e-18 6.14567e-17)
(0.133025 1.16522e-17 -2.33394e-17)
(0.133025 1.07284e-17 6.28514e-17)
(0.137866 1.15154e-17 -2.3842e-17)
(0.137866 1.16157e-17 6.42644e-17)
(0.142793 1.15011e-17 -2.43404e-17)
(0.142793 1.2546e-17 6.56915e-17)
(0.147809 1.15401e-17 -2.4842e-17)
(0.147809 1.31295e-17 6.71308e-17)
(0.152914 1.17609e-17 -2.53382e-17)
(0.152914 1.36158e-17 6.85794e-17)
(0.158111 1.20124e-17 -2.56857e-17)
(0.158111 1.41378e-17 7.00264e-17)
(0.1634 1.2033e-17 -2.58295e-17)
(0.1634 1.50118e-17 7.14811e-17)
(0.168782 1.20443e-17 -2.59575e-17)
(0.168782 1.6039e-17 7.29559e-17)
(0.174259 1.18901e-17 -2.60724e-17)
(0.174259 1.65948e-17 7.44462e-17)
(0.179832 1.21524e-17 -2.61691e-17)
(0.179832 1.69366e-17 7.59378e-17)
(0.185501 1.28428e-17 -2.62111e-17)
(0.185501 1.72893e-17 7.74104e-17)
(0.191269 1.29597e-17 -2.62094e-17)
(0.191269 1.77695e-17 7.89099e-17)
(0.197135 1.28878e-17 -2.61895e-17)
(0.197135 1.82318e-17 8.04044e-17)
(0.2031 1.32113e-17 -2.61414e-17)
(0.2031 1.89458e-17 8.18815e-17)
(0.209166 1.35665e-17 -2.60473e-17)
(0.209166 1.9206e-17 8.33617e-17)
(0.215332 1.36842e-17 -2.5917e-17)
(0.215332 1.9446e-17 8.48308e-17)
(0.221599 1.38178e-17 -2.57497e-17)
(0.221599 2.02798e-17 8.62756e-17)
(0.227966 1.40008e-17 -2.55396e-17)
(0.227966 2.07241e-17 8.77241e-17)
(0.234435 1.38937e-17 -2.52836e-17)
(0.234435 2.16103e-17 8.91523e-17)
(0.241004 1.35714e-17 -2.49957e-17)
(0.241004 2.29536e-17 9.05797e-17)
(0.247672 1.2986e-17 -2.46915e-17)
(0.247672 2.40588e-17 9.20123e-17)
(0.25444 1.23431e-17 -2.4382e-17)
(0.25444 2.51261e-17 9.3447e-17)
(0.261305 1.17869e-17 -2.40611e-17)
(0.261305 2.63682e-17 9.4828e-17)
(0.268266 1.11846e-17 -2.37375e-17)
(0.268266 2.7116e-17 9.61845e-17)
(0.275321 1.12766e-17 -2.33607e-17)
(0.275321 2.72646e-17 9.74967e-17)
(0.282468 1.13442e-17 -2.29225e-17)
(0.282468 2.84139e-17 9.88025e-17)
(0.289704 1.1093e-17 -2.24771e-17)
(0.289704 2.90923e-17 9.9622e-17)
(0.297026 1.09586e-17 -2.20048e-17)
(0.297026 2.93721e-17 9.90943e-17)
(0.304431 1.06137e-17 -2.14859e-17)
(0.304431 3.02841e-17 9.84345e-17)
(0.311914 9.84449e-18 -2.09688e-17)
(0.311914 3.08003e-17 9.76734e-17)
(0.319471 8.72971e-18 -2.04552e-17)
(0.319471 3.07772e-17 9.67961e-17)
(0.327097 8.22543e-18 -1.99213e-17)
(0.327097 3.12021e-17 9.57634e-17)
(0.334788 8.31418e-18 -2.01041e-17)
(0.334788 3.16028e-17 9.45987e-17)
(0.342537 8.23158e-18 -2.08723e-17)
(0.342537 3.1375e-17 9.3307e-17)
(0.35034 7.09352e-18 -2.15807e-17)
(0.35034 3.20321e-17 9.18936e-17)
(0.358189 5.41044e-18 -2.22933e-17)
(0.358189 3.24089e-17 9.04014e-17)
(0.366078 4.67558e-18 -2.29056e-17)
(0.366078 3.23042e-17 8.87931e-17)
(0.374002 3.84599e-18 -2.34702e-17)
(0.374002 3.22145e-17 8.70689e-17)
(0.381952 2.93831e-18 -2.40769e-17)
(0.381952 3.3463e-17 8.52137e-17)
(0.389923 2.13564e-18 -2.47674e-17)
(0.389923 3.3063e-17 8.32531e-17)
(0.397908 1.08429e-18 -2.52895e-17)
(0.397908 3.1528e-17 8.12499e-17)
(0.4059 6.07317e-19 -2.57562e-17)
(0.4059 3.18505e-17 7.91566e-17)
(0.413892 3.83359e-19 -2.633e-17)
(0.413892 3.13958e-17 7.68854e-17)
(0.421878 -3.79265e-20 -2.69766e-17)
(0.421878 3.13243e-17 7.45252e-17)
(0.429851 -4.71765e-19 -2.76158e-17)
(0.429851 3.07041e-17 7.21588e-17)
(0.437805 -8.66984e-19 -2.82358e-17)
(0.437805 2.91481e-17 6.96973e-17)
(0.445735 -1.9435e-18 -2.88451e-17)
(0.445735 2.87191e-17 6.72444e-17)
(0.453635 -3.13189e-18 -2.94991e-17)
(0.453635 2.99091e-17 6.48958e-17)
(0.4615 -3.40535e-18 -3.02128e-17)
(0.4615 2.97672e-17 6.26557e-17)
(0.469324 -2.88501e-18 -3.09422e-17)
(0.469324 2.974e-17 6.05422e-17)
(0.477104 -1.83206e-18 -3.19179e-17)
(0.477104 2.97431e-17 5.85384e-17)
(0.484836 -2.77301e-18 -3.29455e-17)
(0.484836 2.86567e-17 5.66921e-17)
(0.492516 -4.55016e-18 -3.38112e-17)
(0.492516 2.78405e-17 5.48164e-17)
(0.500139 -5.49228e-18 -3.493e-17)
(0.500139 2.7992e-17 5.29734e-17)
(0.507705 -8.73246e-18 -3.61588e-17)
(0.507705 2.75255e-17 5.11364e-17)
(0.515209 -1.22231e-17 -3.69928e-17)
(0.515209 2.53967e-17 4.93759e-17)
(0.52265 -1.2647e-17 -3.78535e-17)
(0.52265 2.55056e-17 4.7699e-17)
(0.530025 -1.14995e-17 -3.89164e-17)
(0.530025 2.67985e-17 4.6031e-17)
(0.537334 -1.22721e-17 -4.00031e-17)
(0.537334 2.56826e-17 4.44099e-17)
(0.544575 -1.31252e-17 -4.10282e-17)
(0.544575 2.39708e-17 4.29469e-17)
(0.551746 -1.27814e-17 -4.23072e-17)
(0.551746 2.22141e-17 4.14247e-17)
(0.558848 -1.31719e-17 -4.322e-17)
(0.558848 2.03534e-17 4.01332e-17)
(0.565879 -1.5462e-17 -4.44347e-17)
(0.565879 2.23316e-17 3.89509e-17)
(0.572839 -1.82994e-17 -4.58107e-17)
(0.572839 2.40497e-17 3.77462e-17)
(0.579728 -2.01993e-17 -4.71715e-17)
(0.579728 2.26936e-17 3.66567e-17)
(0.586546 -1.89689e-17 -4.8141e-17)
(0.586546 2.26e-17 3.57335e-17)
(0.593294 -1.78371e-17 -5.00874e-17)
(0.593294 2.29263e-17 3.45952e-17)
(0.599972 -2.10178e-17 -5.14703e-17)
(0.599972 2.17422e-17 3.35431e-17)
(0.606579 -2.37875e-17 -5.30078e-17)
(0.606579 2.22673e-17 3.27861e-17)
(0.613118 -2.48679e-17 -5.46999e-17)
(0.613118 2.34068e-17 3.20119e-17)
(0.619587 -2.68301e-17 -5.67673e-17)
(0.619587 2.32899e-17 3.11379e-17)
(0.625989 -2.9844e-17 -5.84638e-17)
(0.625989 2.22223e-17 3.01647e-17)
(0.632324 -3.11998e-17 -6.01925e-17)
(0.632324 2.3351e-17 2.95512e-17)
(0.638594 -3.10404e-17 -6.25779e-17)
(0.638594 2.4712e-17 2.93048e-17)
(0.644798 -2.83782e-17 -6.48602e-17)
(0.644798 2.10519e-17 2.9134e-17)
(0.650937 -2.76708e-17 -6.77633e-17)
(0.650937 1.83892e-17 2.88561e-17)
(0.657014 -3.06431e-17 -7.03919e-17)
(0.657014 1.72703e-17 2.87867e-17)
(0.663029 -3.04493e-17 -7.25775e-17)
(0.663029 1.56386e-17 2.86095e-17)
(0.668983 -2.94271e-17 -7.62728e-17)
(0.668983 1.62438e-17 2.83972e-17)
(0.674878 -3.22043e-17 -7.94713e-17)
(0.674878 1.2868e-17 2.78958e-17)
(0.680713 -3.58066e-17 -8.20752e-17)
(0.680713 9.88162e-18 2.7295e-17)
(0.686492 -3.7242e-17 -8.37878e-17)
(0.686492 9.12541e-18 2.64713e-17)
(0.692214 -3.81805e-17 -8.58703e-17)
(0.692214 1.01406e-17 2.55493e-17)
(0.69788 -3.82123e-17 -8.9352e-17)
(0.69788 1.15025e-17 2.44923e-17)
(0.703492 -3.5379e-17 -9.18366e-17)
(0.703492 8.84182e-18 2.3452e-17)
(0.709052 -3.5203e-17 -9.36468e-17)
(0.709052 5.83397e-18 2.20251e-17)
(0.714559 -3.72641e-17 -9.63311e-17)
(0.714559 5.25484e-18 2.07891e-17)
(0.720016 -3.82017e-17 -9.98326e-17)
(0.720016 3.99196e-18 1.97569e-17)
(0.725423 -3.8565e-17 -1.02842e-16)
(0.725423 1.16275e-18 1.90664e-17)
(0.730781 -3.88615e-17 -1.05046e-16)
(0.730781 3.87533e-18 1.86148e-17)
(0.736092 -3.81929e-17 -1.0741e-16)
(0.736092 7.99729e-18 1.84231e-17)
(0.741356 -3.87177e-17 -1.10551e-16)
(0.741356 8.22765e-18 1.90786e-17)
(0.746574 -4.19416e-17 -1.13786e-16)
(0.746574 5.55422e-18 2.04572e-17)
(0.751748 -4.39483e-17 -1.15844e-16)
(0.751748 4.15079e-18 2.14377e-17)
(0.756879 -4.38154e-17 -1.18969e-16)
(0.756879 3.71451e-18 2.17398e-17)
(0.761966 -4.85764e-17 -1.22221e-16)
(0.761966 1.8522e-18 2.19487e-17)
(0.767012 -5.68389e-17 -1.24406e-16)
(0.767012 4.45851e-19 2.34019e-17)
(0.772018 -6.08915e-17 -1.2533e-16)
(0.772018 8.58373e-19 2.11116e-17)
(0.776983 -6.11448e-17 -1.27274e-16)
(0.776983 -1.91153e-18 1.6434e-17)
(0.781909 -5.57103e-17 -1.3017e-16)
(0.781909 -6.44874e-18 1.17571e-17)
(0.786797 -5.02514e-17 -1.35442e-16)
(0.786797 -1.08824e-17 8.3115e-18)
(0.791648 -5.69188e-17 -1.38669e-16)
(0.791648 -1.32614e-17 3.27263e-18)
(0.796462 -6.84662e-17 -1.40879e-16)
(0.796462 -1.03192e-17 -1.47659e-18)
(0.801241 -7.00906e-17 -1.42918e-16)
(0.801241 -1.32792e-17 -3.2471e-18)
(0.805985 -6.21101e-17 -1.44254e-16)
(0.805985 -2.33303e-17 -3.05605e-18)
(0.810694 -5.57396e-17 -1.49014e-16)
(0.810694 -2.80882e-17 -3.28532e-18)
(0.81537 -5.66762e-17 -1.53842e-16)
(0.81537 -3.18974e-17 -3.00792e-18)
(0.820014 -6.00187e-17 -1.58213e-16)
(0.820014 -3.67459e-17 -3.77291e-18)
(0.824625 -7.16196e-17 -1.63936e-16)
(0.824625 -3.62056e-17 -4.21147e-18)
(0.829205 -8.22174e-17 -1.66811e-16)
(0.829205 -3.86442e-17 -4.97612e-18)
(0.833754 -7.99582e-17 -1.71671e-16)
(0.833754 -4.08724e-17 -4.88674e-18)
(0.838273 -8.56769e-17 -1.75693e-16)
(0.838273 -4.93928e-17 -2.34269e-18)
(0.842763 -9.81385e-17 -1.78597e-16)
(0.842763 -5.37859e-17 8.88267e-19)
(0.847223 -9.94068e-17 -1.81186e-16)
(0.847223 -4.874e-17 -4.17948e-18)
(0.851656 -9.74279e-17 -1.8587e-16)
(0.851656 -5.29441e-17 -1.1677e-17)
(0.856061 -9.68253e-17 -1.90188e-16)
(0.856061 -4.84444e-17 -2.05982e-17)
(0.860438 -1.01295e-16 -1.95516e-16)
(0.860438 -4.07906e-17 -2.7419e-17)
(0.864789 -1.09705e-16 -2.01286e-16)
(0.864789 -4.51243e-17 -3.73714e-17)
(0.869114 -1.19977e-16 -2.08811e-16)
(0.869114 -4.8126e-17 -4.92086e-17)
(0.873413 -1.23242e-16 -2.14706e-16)
(0.873413 -5.19529e-17 -5.81988e-17)