/*--------------------------------*- C++ -*----------------------------------*\
| =========                 |                                                 |
| \\      /  F ield         | OpenFOAM: The Open Source CFD Toolbox           |
|  \\    /   O peration     | Version:  2106                                  |
|   \\  /    A nd           | Website:  www.openfoam.com                      |
|    \\/     M anipulation  |                                                 |
\*---------------------------------------------------------------------------*/
FoamFile
{
    version     2.0;
    format      ascii;
    arch        "LSB;label=32;scalar=64";
    class       volVectorField;
    location    "10070";
    object      grad(T);
}
// * * * * * * * * * * * * * * * * * * * * * * * * * * * * * * * * * * * * * //

dimensions      [0 -1 0 1 0 0 0];

internalField   nonuniform List<vector> 
2000
(
(0 281.194 0.520388)
(0 281.194 0.520388)
(0 281.194 1.57088)
(0 281.194 1.57088)
(-5.05031e-16 281.194 2.18014)
(4.41078e-16 281.194 2.18014)
(-2.09585e-16 281.193 2.22083)
(8.38339e-16 281.193 2.22083)
(0 281.192 2.26228)
(0 281.192 2.26228)
(8.34543e-16 281.191 2.30449)
(-2.87075e-15 281.191 2.30449)
(0 281.189 2.3475)
(2.65196e-15 281.189 2.3475)
(0 281.187 2.3913)
(6.55842e-15 281.187 2.3913)
(-9.79541e-16 281.184 2.43591)
(0 281.184 2.43591)
(0 281.181 2.48135)
(0 281.181 2.48135)
(3.04332e-15 281.177 2.52763)
(0 281.177 2.52763)
(1.47686e-15 281.172 2.57476)
(4.41368e-15 281.172 2.57476)
(0 281.165 2.62275)
(0 281.165 2.62275)
(-4.70314e-15 281.157 2.67162)
(0 281.157 2.67162)
(-4.82886e-15 281.146 2.72138)
(0 281.146 2.72138)
(4.95887e-15 281.133 2.77202)
(-8.73741e-15 281.133 2.77202)
(0 281.115 2.82357)
(0 281.115 2.82357)
(5.11639e-15 281.092 2.87601)
(1.02328e-14 281.092 2.87601)
(-2.75036e-15 281.062 2.92934)
(0 281.062 2.92934)
(2.94609e-15 281.024 2.98357)
(1.17844e-14 281.024 2.98357)
(-3.14547e-15 280.975 3.03867)
(2.51638e-14 280.975 3.03867)
(0 280.912 3.09462)
(8.42803e-15 280.912 3.09462)
(0 280.833 3.15139)
(1.42217e-14 280.833 3.15139)
(0 280.733 3.20894)
(1.50644e-14 280.733 3.20894)
(-3.98067e-15 280.608 3.26722)
(0 280.608 3.26722)
(-4.61207e-15 280.452 3.32616)
(2.14089e-14 280.452 3.32616)
(1.05813e-16 280.259 3.38567)
(0 280.259 3.38567)
(-4.64835e-15 280.021 3.44565)
(0 280.021 3.44565)
(0 279.73 3.50596)
(0 279.73 3.50596)
(-1.36803e-14 279.377 3.56646)
(-2.04558e-14 279.377 3.56646)
(5.35302e-15 278.951 3.62697)
(1.30027e-14 278.951 3.62697)
(0 278.439 3.68728)
(-8.25531e-15 278.439 3.68728)
(-5.84387e-15 277.828 3.74716)
(0 277.828 3.74716)
(-6.09567e-15 277.105 3.80633)
(0 277.105 3.80633)
(-7.80975e-15 276.255 3.86451)
(3.32166e-14 276.255 3.86451)
(0 275.26 3.92137)
(-1.53333e-14 275.26 3.92137)
(6.87642e-15 274.106 3.97656)
(1.99795e-14 274.106 3.97656)
(-1.45332e-14 272.774 4.0297)
(3.59681e-14 272.774 4.0297)
(-2.19232e-14 271.25 4.08042)
(1.45057e-14 271.25 4.08042)
(7.11994e-15 269.518 4.1283)
(2.36562e-14 269.518 4.1283)
(-1.59486e-14 267.563 4.17296)
(3.18972e-14 267.563 4.17296)
(0 265.373 4.21401)
(0 265.373 4.21401)
(0 262.938 4.25108)
(0 262.938 4.25108)
(-8.83586e-15 260.251 4.28385)
(-3.53434e-14 260.251 4.28385)
(9.1292e-15 257.307 4.312)
(3.65168e-14 257.307 4.312)
(9.42517e-15 254.105 4.33532)
(-3.77007e-14 254.105 4.33532)
(2.78724e-15 250.65 4.3536)
(3.88938e-14 250.65 4.3536)
(0 246.948 4.36672)
(8.01898e-14 246.948 4.36672)
(1.03256e-14 243.009 4.37465)
(4.13025e-14 243.009 4.37465)
(-1.06288e-14 238.849 4.37739)
(-6.61861e-14 238.849 4.37739)
(0 234.483 4.37502)
(0 234.483 4.37502)
(-2.26431e-14 229.933 4.3677)
(0 229.933 4.3677)
(2.23933e-14 225.219 4.35561)
(0 225.219 4.35561)
(0 220.366 4.33901)
(-4.7387e-14 220.366 4.33901)
(2.29408e-14 215.398 4.31819)
(-2.15801e-14 215.398 4.31819)
(-3.36385e-14 210.339 4.29347)
(2.11847e-14 210.339 4.29347)
(-4.71476e-15 205.215 4.26518)
(5.10225e-14 205.215 4.26518)
(-1.3056e-14 200.048 4.23369)
(0 200.048 4.23369)
(-6.66768e-15 194.861 4.19934)
(-7.34593e-14 194.861 4.19934)
(1.3651e-14 189.676 4.16249)
(-5.4604e-14 189.676 4.16249)
(-1.93135e-14 184.512 4.12348)
(0 184.512 4.12348)
(-4.74337e-14 179.386 4.08265)
(1.13896e-13 179.386 4.08265)
(-1.45262e-14 174.314 4.04032)
(5.81048e-14 174.314 4.04032)
(0 169.311 3.99677)
(0 169.311 3.99677)
(-3.30324e-14 164.388 3.95227)
(6.03844e-14 164.388 3.95227)
(0 159.555 3.90709)
(-1.76076e-14 159.555 3.90709)
(-1.56541e-14 154.821 3.86144)
(-1.7285e-14 154.821 3.86144)
(0 150.193 3.81553)
(-1.69682e-14 150.193 3.81553)
(0 145.676 3.76954)
(6.4798e-14 145.676 3.76954)
(0 141.274 3.72362)
(0 141.274 3.72362)
(-1.67322e-14 136.99 3.67793)
(6.69286e-14 136.99 3.67793)
(0 132.825 3.63259)
(6.79747e-14 132.825 3.63259)
(-1.7252e-14 128.782 3.58769)
(-6.90078e-14 128.782 3.58769)
(0 124.859 3.54333)
(-7.00282e-14 124.859 3.54333)
(-3.5518e-14 121.057 3.49959)
(7.1036e-14 121.057 3.49959)
(-3.60156e-14 117.374 3.45652)
(0 117.374 3.45652)
(0 113.808 3.41419)
(7.30141e-14 113.808 3.41419)
(-4.67025e-14 110.359 3.37263)
(-7.39848e-14 110.359 3.37263)
(1.87359e-14 107.022 3.33187)
(0 107.022 3.33187)
(-8.20937e-15 103.797 3.29195)
(-4.87085e-14 103.797 3.29195)
(-1.1729e-14 100.679 3.25288)
(-2.66839e-14 100.679 3.25288)
(0 97.6674 3.21466)
(0 97.6674 3.21466)
(1.96657e-14 94.7575 3.17732)
(-1.57326e-13 94.7575 3.17732)
(1.98913e-14 91.9469 3.14085)
(0 91.9469 3.14085)
(0 89.2323 3.10525)
(8.04565e-14 89.2323 3.10525)
(2.03344e-14 86.6108 3.07052)
(8.13377e-14 86.6108 3.07052)
(-1.72232e-14 84.0791 3.03665)
(2.38812e-14 84.0791 3.03665)
(-4.1535e-14 81.6342 3.00362)
(8.30699e-14 81.6342 3.00362)
(2.09804e-14 79.2732 2.97144)
(1.67843e-13 79.2732 2.97144)
(-2.11909e-14 76.9929 2.94009)
(0 76.9929 2.94009)
(-4.27983e-14 74.7905 2.90954)
(8.55966e-14 74.7905 2.90954)
(-2.16052e-14 72.6633 2.87979)
(8.64207e-14 72.6633 2.87979)
(-2.13729e-14 70.6082 2.85083)
(-4.27458e-14 70.6082 2.85083)
(-1.99518e-14 68.6228 2.82263)
(1.30005e-13 68.6228 2.82263)
(2.22104e-14 66.7044 2.79517)
(8.88416e-14 66.7044 2.79517)
(-2.24081e-14 64.8505 2.76845)
(8.96323e-14 64.8505 2.76845)
(2.26038e-14 63.0586 2.74243)
(0 63.0586 2.74243)
(-2.27976e-14 61.3264 2.71711)
(7.17053e-14 61.3264 2.71711)
(2.29895e-14 59.6517 2.69247)
(0 59.6517 2.69247)
(-2.31797e-14 58.0322 2.66849)
(5.51637e-14 58.0322 2.66849)
(6.0235e-14 56.4658 2.64514)
(5.66055e-14 56.4658 2.64514)
(3.61913e-14 54.9505 2.62243)
(5.80279e-14 54.9505 2.62243)
(0 53.4844 2.60031)
(-9.49594e-14 53.4844 2.60031)
(3.48771e-14 52.0657 2.57879)
(6.0816e-14 52.0657 2.57879)
(1.01329e-14 50.6924 2.55785)
(0 50.6924 2.55785)
(-2.42854e-14 49.363 2.53745)
(9.71417e-14 49.363 2.53745)
(0 48.0757 2.51761)
(3.29947e-14 48.0757 2.51761)
(0 46.829 2.49828)
(0 46.829 2.49828)
(5.66141e-14 45.6213 2.47947)
(9.92704e-14 45.6213 2.47947)
(-3.74355e-14 44.4513 2.46116)
(6.87549e-14 44.4513 2.46116)
(0 43.3174 2.44332)
(1.00662e-13 43.3174 2.44332)
(-5.06748e-14 42.2185 2.42596)
(1.0135e-13 42.2185 2.42596)
(2.55081e-14 41.1531 2.40905)
(1.02032e-13 41.1531 2.40905)
(2.8988e-14 40.12 2.39258)
(-1.31698e-13 40.12 2.39258)
(2.84568e-14 39.1181 2.37654)
(-2.84568e-14 39.1181 2.37654)
(-5.20257e-14 38.1463 2.36091)
(0 38.1463 2.36091)
(1.24471e-15 37.2034 2.34569)
(-2.74235e-14 37.2034 2.34569)
(-2.69209e-14 36.2885 2.33086)
(-1.05374e-13 36.2885 2.33086)
(1.0587e-13 35.4005 2.31641)
(-5.28553e-14 35.4005 2.31641)
(7.92834e-14 34.5384 2.30233)
(5.47933e-14 34.5384 2.30233)
(-2.68317e-14 33.7014 2.28861)
(1.07327e-13 33.7014 2.28861)
(5.39847e-14 32.8886 2.27524)
(-2.50013e-14 32.8886 2.27524)
(5.16951e-14 32.0991 2.26221)
(1.08608e-13 32.0991 2.26221)
(-2.73108e-14 31.3321 2.2495)
(-2.40934e-14 31.3321 2.2495)
(-2.36519e-14 30.5868 2.23711)
(2.19749e-13 30.5868 2.23711)
(-2.76255e-14 29.8626 2.22503)
(0 29.8626 2.22503)
(-2.2793e-14 29.1586 2.21325)
(2.22252e-13 29.1586 2.21325)
(-2.79367e-14 28.4742 2.20176)
(0 28.4742 2.20176)
(4.39306e-14 27.8087 2.19055)
(1.12364e-13 27.8087 2.19055)
(-1.4881e-14 27.1615 2.17962)
(2.69082e-13 27.1615 2.17962)
(-2.83972e-14 26.532 2.16896)
(1.13589e-13 26.532 2.16896)
(2.85492e-14 25.9196 2.15855)
(7.26372e-14 25.9196 2.15855)
(-1.66028e-14 25.3237 2.14839)
(7.40035e-14 25.3237 2.14839)
(-8.01007e-14 24.7438 2.13848)
(2.30807e-13 24.7438 2.13848)
(0 24.1793 2.1288)
(7.66858e-14 24.1793 2.1288)
(-2.91496e-14 23.6299 2.11935)
(0 23.6299 2.11935)
(2.92979e-14 23.0949 2.11013)
(0 23.0949 2.11013)
(3.71944e-14 22.5739 2.10111)
(-3.71944e-14 22.5739 2.10111)
(6.92023e-15 22.0665 2.09231)
(-3.65128e-14 22.0665 2.09231)
(6.10477e-15 21.5722 2.08371)
(-1.548e-13 21.5722 2.08371)
(-6.50717e-14 21.0906 2.0753)
(2.39078e-13 21.0906 2.0753)
(0 20.6214 2.06709)
(1.2012e-13 20.6214 2.06709)
(-3.01744e-14 20.1641 2.05906)
(8.67886e-14 20.1641 2.05906)
(0 19.7184 2.0512)
(8.79858e-14 19.7184 2.0512)
(-6.31396e-14 19.2839 2.04352)
(1.21847e-13 19.2839 2.04352)
(0 18.8602 2.036)
(1.22419e-13 18.8602 2.036)
(-3.07469e-14 18.4471 2.02865)
(0 18.4471 2.02865)
(-3.08887e-14 18.0442 2.02144)
(0 18.0442 2.02144)
(-6.13775e-14 17.6512 2.01439)
(0 17.6512 2.01439)
(3.11707e-14 17.2678 2.00749)
(-1.54474e-13 17.2678 2.00749)
(0 16.8938 2.00072)
(0 16.8938 2.00072)
(0 16.5287 1.99408)
(0 16.5287 1.99408)
(5.97735e-14 16.1725 1.98757)
(2.81836e-14 16.1725 1.98757)
(-5.93958e-14 15.8247 1.98119)
(1.26915e-13 15.8247 1.98119)
(-5.90272e-14 15.4852 1.97493)
(1.27468e-13 15.4852 1.97493)
(-3.2005e-14 15.1537 1.96878)
(0 15.1537 1.96878)
(0 14.83 1.96273)
(1.2857e-13 14.83 1.96273)
(-3.22794e-14 14.5139 1.95679)
(-1.80506e-13 14.5139 1.95679)
(-1.80307e-14 14.2051 1.95095)
(1.80111e-13 14.2051 1.95095)
(3.25522e-14 13.9034 1.9452)
(1.79731e-13 13.9034 1.9452)
(3.2688e-14 13.6087 1.93954)
(0 13.6087 1.93954)
(0 13.3207 1.93396)
(1.31293e-13 13.3207 1.93396)
(-3.29583e-14 13.0392 1.92846)
(0 13.0392 1.92846)
(0 12.764 1.92304)
(1.32371e-13 12.764 1.92304)
(-3.3227e-14 12.4951 1.91768)
(0 12.4951 1.91768)
(0 12.2321 1.91239)
(0 12.2321 1.91239)
(0 11.9749 1.90715)
(1.33977e-13 11.9749 1.90715)
(0 11.7234 1.90197)
(1.34509e-13 11.7234 1.90197)
(-7.56887e-14 11.4774 1.89683)
(4.19287e-14 11.4774 1.89683)
(-3.38923e-14 11.2367 1.89174)
(0 11.2367 1.89174)
(-3.40243e-14 11.0013 1.88668)
(0 11.0013 1.88668)
(2.86461e-14 10.7708 1.88165)
(1.36624e-13 10.7708 1.88165)
(-1.02861e-13 10.5453 1.87665)
(1.37149e-13 10.5453 1.87665)
(0 10.3246 1.87167)
(1.37672e-13 10.3246 1.87167)
(-3.45486e-14 10.1085 1.86671)
(0 10.1085 1.86671)
(-1.08353e-13 9.89695 1.86175)
(3.68372e-14 9.89695 1.86175)
(0 9.68976 1.8568)
(0 9.68976 1.8568)
(-3.54995e-14 9.48684 1.85184)
(1.75253e-13 9.48684 1.85184)
(-3.50674e-14 9.28806 1.84687)
(-1.4027e-13 9.28806 1.84687)
(0 9.09332 1.84188)
(0 9.09332 1.84188)
(-6.89083e-14 8.90249 1.83687)
(-3.16182e-13 8.90249 1.83687)
(-6.8421e-14 8.71548 1.83183)
(0 8.71548 1.83183)
(0 8.53217 1.82675)
(0 8.53217 1.82675)
(0 8.35246 1.82162)
(1.42833e-13 8.35246 1.82162)
(-7.16707e-14 8.17625 1.81645)
(2.86683e-13 8.17625 1.81645)
(0 8.00344 1.81121)
(1.43848e-13 8.00344 1.81121)
(-6.03236e-15 7.83394 1.8059)
(-3.00562e-14 7.83394 1.8059)
(2.95054e-14 7.66764 1.80051)
(-1.44858e-13 7.66764 1.80051)
(-3.63403e-14 7.50446 1.79503)
(0 7.50446 1.79503)
(0 7.34432 1.78946)
(1.45862e-13 7.34432 1.78946)
(0 7.18711 1.78379)
(1.46362e-13 7.18711 1.78379)
(3.67151e-14 7.03276 1.77799)
(2.93721e-13 7.03276 1.77799)
(3.68393e-14 6.88118 1.77207)
(1.47357e-13 6.88118 1.77207)
(0 6.73229 1.76601)
(1.47853e-13 6.73229 1.76601)
(8.89315e-14 6.58601 1.7598)
(1.48346e-13 6.58601 1.7598)
(-3.72095e-14 6.44225 1.75343)
(2.97676e-13 6.44225 1.75343)
(-3.73321e-14 6.30095 1.74688)
(-1.49328e-13 6.30095 1.74688)
(0 6.16202 1.74015)
(0 6.16202 1.74015)
(-3.7576e-14 6.02538 1.73321)
(0 6.02538 1.73321)
(-7.53944e-14 5.89097 1.72605)
(-4.72657e-14 5.89097 1.72605)
(-3.7818e-14 5.75871 1.71866)
(1.51272e-13 5.75871 1.71866)
(4.55493e-14 5.62852 1.71102)
(-4.55493e-14 5.62852 1.71102)
(-3.80582e-14 5.50034 1.70311)
(0 5.50034 1.70311)
(-4.38952e-14 5.37409 1.69492)
(-4.38952e-14 5.37409 1.69492)
(3.82963e-14 5.2497 1.68642)
(3.0637e-13 5.2497 1.68642)
(7.6829e-14 5.12709 1.67759)
(-1.53658e-13 5.12709 1.67759)
(7.70644e-14 5.00621 1.66842)
(0 5.00621 1.66842)
(7.72986e-14 4.88698 1.65887)
(3.09194e-13 4.88698 1.65887)
(3.87658e-14 4.76933 1.64892)
(1.15045e-13 4.76933 1.64892)
(3.88816e-14 4.65318 1.63855)
(1.55526e-13 4.65318 1.63855)
(-3.89968e-14 4.53847 1.62773)
(1.55987e-13 4.53847 1.62773)
(-3.91113e-14 4.42512 1.61642)
(0 4.42512 1.61642)
(0 4.31307 1.6046)
(1.56901e-13 4.31307 1.6046)
(-7.86764e-14 4.20223 1.59222)
(1.20869e-13 4.20223 1.59222)
(-3.94505e-14 4.09254 1.57926)
(0 4.09254 1.57926)
(0 3.98391 1.56567)
(3.51654e-13 3.98391 1.56567)
(0 3.87627 1.5514)
(0 3.87627 1.5514)
(3.97823e-14 3.76954 1.53641)
(-1.93011e-13 3.76954 1.53641)
(3.98911e-14 3.66363 1.52066)
(0 3.66363 1.52066)
(-1.46948e-14 3.55846 1.50408)
(0 3.55846 1.50408)
(1.61051e-14 3.45394 1.48661)
(0 3.45394 1.48661)
(0 3.34998 1.46819)
(1.60846e-13 3.34998 1.46819)
(0 3.24648 1.44876)
(1.61264e-13 3.24648 1.44876)
(4.04194e-14 3.14334 1.42823)
(1.61677e-13 3.14334 1.42823)
(0 3.04045 1.40652)
(-2.21621e-13 3.04045 1.40652)
(-4.06223e-14 2.9377 1.38354)
(0 2.9377 1.38354)
(-4.07217e-14 2.83497 1.3592)
(1.62887e-13 2.83497 1.3592)
(-5.63218e-14 2.73213 1.33337)
(2.196e-13 2.73213 1.33337)
(1.43738e-14 2.62905 1.30595)
(-1.63663e-13 2.62905 1.30595)
(4.10105e-14 2.52557 1.2768)
(3.28084e-13 2.52557 1.2768)
(0 2.42156 1.24578)
(1.11132e-13 2.42156 1.24578)
(-4.11945e-14 2.31684 1.21274)
(0 2.31684 1.21274)
(4.12835e-14 2.21123 1.17749)
(1.65134e-13 2.21123 1.17749)
(9.0357e-15 2.10455 1.13985)
(2.15888e-13 2.10455 1.13985)
(-4.14551e-14 1.99659 1.09962)
(1.6582e-13 1.99659 1.09962)
(0 1.88715 1.05657)
(0 1.88715 1.05657)
(4.16171e-14 1.776 1.01045)
(0 1.776 1.01045)
(-8.33882e-14 1.6629 0.961012)
(1.66776e-13 1.6629 0.961012)
(4.59539e-14 1.5476 0.907961)
(0 1.5476 0.907961)
(0 1.42987 0.851003)
(0 1.42987 0.851003)
(4.19066e-14 1.30946 0.789826)
(1.67626e-13 1.30946 0.789826)
(-4.19705e-14 1.18612 0.724109)
(1.67882e-13 1.18612 0.724109)
(-8.47076e-14 1.05963 0.653527)
(0 1.05963 0.653527)
(0 0.929799 0.577763)
(0 0.929799 0.577763)
(0 0.79647 0.496514)
(-1.68551e-13 0.79647 0.496514)
(-1.81066e-15 0.659539 0.409506)
(-4.03736e-14 0.659539 0.409506)
(-4.22256e-14 0.51897 0.316504)
(1.68902e-13 0.51897 0.316504)
(0 0.374803 0.217327)
(1.69045e-13 0.374803 0.217327)
(-4.0965e-15 0.22716 0.111848)
(-3.81946e-14 0.22716 0.111848)
(-7.9809e-14 1.27271e-06 4.71063e-07)
(3.38629e-13 8.21636e-07 3.0411e-07)
(0 281.194 -0.520388)
(0 281.194 -0.520388)
(-4.49311e-16 281.194 -1.57088)
(0 281.194 -1.57088)
(-1.27907e-16 281.194 -2.18014)
(0 281.194 -2.18014)
(2.09585e-16 281.193 -2.22083)
(0 281.193 -2.22083)
(-7.15868e-16 281.192 -2.26228)
(0 281.192 -2.26228)
(2.17814e-15 281.191 -2.30449)
(-1.66909e-15 281.191 -2.30449)
(-8.1925e-16 281.189 -2.3475)
(-1.6385e-15 281.189 -2.3475)
(3.24808e-15 281.187 -2.3913)
(-1.60848e-15 281.187 -2.3913)
(-2.55854e-15 281.184 -2.43591)
(5.49716e-15 281.184 -2.43591)
(1.14226e-15 281.181 -2.48135)
(-7.66917e-15 281.181 -2.48135)
(1.09437e-15 281.177 -2.52763)
(-5.23206e-15 281.177 -2.52763)
(4.46442e-15 281.172 -2.57476)
(-2.98756e-15 281.172 -2.57476)
(-1.64886e-15 281.165 -2.62275)
(-6.59546e-15 281.165 -2.62275)
(2.87907e-15 281.157 -2.67162)
(-1.01754e-14 281.157 -2.67162)
(2.00255e-15 281.146 -2.72138)
(-8.01019e-15 281.146 -2.72138)
(-2.77452e-15 281.133 -2.77202)
(0 281.133 -2.77202)
(2.36955e-15 281.115 -2.82357)
(-1.22019e-14 281.115 -2.82357)
(2.55819e-15 281.092 -2.87601)
(1.02328e-14 281.092 -2.87601)
(2.75036e-15 281.062 -2.92934)
(0 281.062 -2.92934)
(1.10455e-14 281.024 -2.98357)
(-5.15334e-15 281.024 -2.98357)
(3.14547e-15 280.975 -3.03867)
(7.52299e-15 280.975 -3.03867)
(3.34856e-15 280.912 -3.09462)
(1.33942e-14 280.912 -3.09462)
(-3.55541e-15 280.833 -3.15139)
(0 280.833 -3.15139)
(7.53219e-15 280.733 -3.20894)
(0 280.733 -3.20894)
(3.98067e-15 280.608 -3.26722)
(0 280.608 -3.26722)
(0 280.452 -3.32616)
(0 280.452 -3.32616)
(0 280.259 -3.38567)
(-4.52756e-15 280.259 -3.38567)
(9.2967e-15 280.021 -3.44565)
(0 280.021 -3.44565)
(5.15923e-16 279.73 -3.50596)
(2.38794e-14 279.73 -3.50596)
(1.02279e-14 279.377 -3.56646)
(0 279.377 -3.56646)
(5.35302e-15 278.951 -3.62697)
(0 278.951 -3.62697)
(5.59633e-15 278.439 -3.68728)
(-8.25531e-15 278.439 -3.68728)
(5.84387e-15 277.828 -3.74716)
(-1.52715e-14 277.828 -3.74716)
(1.59111e-14 277.105 -3.80633)
(-4.02937e-14 277.105 -3.80633)
(7.80975e-15 276.255 -3.86451)
(0 276.255 -3.86451)
(1.42786e-14 275.26 -3.92137)
(-3.41145e-14 275.26 -3.92137)
(6.22669e-15 274.106 -3.97656)
(-7.52615e-15 274.106 -3.97656)
(-7.14497e-15 272.774 -4.0297)
(-2.85799e-14 272.774 -4.0297)
(-7.41755e-15 271.25 -4.08042)
(-6.65933e-14 271.25 -4.08042)
(-7.69404e-15 269.518 -4.1283)
(-7.11994e-15 269.518 -4.1283)
(-7.9743e-15 267.563 -4.17296)
(0 267.563 -4.17296)
(-8.25816e-15 265.373 -4.21401)
(-6.60653e-14 265.373 -4.21401)
(1.70908e-14 262.938 -4.25108)
(0 262.938 -4.25108)
(8.83586e-15 260.251 -4.28385)
(-4.85679e-14 260.251 -4.28385)
(1.82584e-14 257.307 -4.312)
(3.65168e-14 257.307 -4.312)
(3.49136e-14 254.105 -4.33532)
(-5.04449e-14 254.105 -4.33532)
(-1.94469e-14 250.65 -4.3536)
(-3.88938e-14 250.65 -4.3536)
(2.00475e-14 246.948 -4.36672)
(4.00949e-14 246.948 -4.36672)
(0 243.009 -4.37465)
(0 243.009 -4.37465)
(-1.06288e-14 238.849 -4.37739)
(-8.50304e-14 238.849 -4.37739)
(1.09329e-14 234.483 -4.37502)
(-4.37315e-14 234.483 -4.37502)
(-1.68205e-16 229.933 -4.3677)
(1.14057e-14 229.933 -4.3677)
(0 225.219 -4.35561)
(-9.23377e-14 225.219 -4.35561)
(1.18467e-14 220.366 -4.33901)
(0 220.366 -4.33901)
(2.72128e-15 215.398 -4.31819)
(2.15801e-14 215.398 -4.31819)
(0 210.339 -4.29347)
(-7.09998e-14 210.339 -4.29347)
(-8.04087e-15 205.215 -4.26518)
(0 205.215 -4.26518)
(3.34714e-14 200.048 -4.23369)
(-7.26392e-14 200.048 -4.23369)
(2.00413e-14 194.861 -4.19934)
(-7.34593e-14 194.861 -4.19934)
(0 189.676 -4.16249)
(-5.4604e-14 189.676 -4.16249)
(1.39452e-14 184.512 -4.12348)
(0 184.512 -4.12348)
(0 179.386 -4.08265)
(-1.89596e-14 179.386 -4.08265)
(3.31384e-14 174.314 -4.04032)
(-1.86122e-14 174.314 -4.04032)
(1.48126e-14 169.311 -3.99677)
(0 169.311 -3.99677)
(0 164.388 -3.95227)
(-6.03844e-14 164.388 -3.95227)
(0 159.555 -3.90709)
(0 159.555 -3.90709)
(1.56541e-14 154.821 -3.86144)
(-6.26162e-14 154.821 -3.86144)
(0 150.193 -3.81553)
(-6.37135e-14 150.193 -3.81553)
(0 145.676 -3.76954)
(0 145.676 -3.76954)
(-1.64674e-14 141.274 -3.72362)
(1.3174e-13 141.274 -3.72362)
(0 136.99 -3.67793)
(0 136.99 -3.67793)
(1.69937e-14 132.825 -3.63259)
(-6.79747e-14 132.825 -3.63259)
(1.7252e-14 128.782 -3.58769)
(-6.90078e-14 128.782 -3.58769)
(3.0372e-14 124.859 -3.54333)
(-1.40056e-13 124.859 -3.54333)
(-1.7759e-14 121.057 -3.49959)
(0 121.057 -3.49959)
(0 117.374 -3.45652)
(0 117.374 -3.45652)
(0 113.808 -3.41419)
(7.30141e-14 113.808 -3.41419)
(9.71006e-15 110.359 -3.37263)
(-3.24145e-13 110.359 -3.37263)
(3.74718e-14 107.022 -3.33187)
(-7.49435e-14 107.022 -3.33187)
(-1.89726e-14 103.797 -3.29195)
(0 103.797 -3.29195)
(-1.92065e-14 100.679 -3.25288)
(-7.68258e-14 100.679 -3.25288)
(-3.8875e-14 97.6674 -3.21466)
(-1.03945e-13 97.6674 -3.21466)
(6.04918e-15 94.7575 -3.17732)
(-1.83041e-13 94.7575 -3.17732)
(3.97825e-14 91.9469 -3.14085)
(-7.9565e-14 91.9469 -3.14085)
(2.01141e-14 89.2323 -3.10525)
(8.04565e-14 89.2323 -3.10525)
(0 86.6108 -3.07052)
(8.13377e-14 86.6108 -3.07052)
(-3.32902e-15 84.0791 -3.03665)
(-1.0609e-13 84.0791 -3.03665)
(-6.49786e-14 81.6342 -3.00362)
(8.30699e-14 81.6342 -3.00362)
(2.09804e-14 79.2732 -2.97144)
(-2.3014e-14 79.2732 -2.97144)
(1.40137e-15 76.9929 -2.94009)
(0 76.9929 -2.94009)
(2.21783e-14 74.7905 -2.90954)
(-2.21783e-14 74.7905 -2.90954)
(2.16052e-14 72.6633 -2.87979)
(8.64207e-14 72.6633 -2.87979)
(2.13729e-14 70.6082 -2.85083)
(-8.72361e-14 70.6082 -2.85083)
(0 68.6228 -2.82263)
(-4.19625e-14 68.6228 -2.82263)
(6.3404e-14 66.7044 -2.79517)
(4.76481e-14 66.7044 -2.79517)
(0 64.8505 -2.76845)
(-2.02193e-14 64.8505 -2.76845)
(3.96977e-14 63.0586 -2.74243)
(-2.20528e-13 63.0586 -2.74243)
(0 61.3264 -2.71711)
(0 61.3264 -2.71711)
(2.29895e-14 59.6517 -2.69247)
(-9.19582e-14 59.6517 -2.69247)
(2.31797e-14 58.0322 -2.66849)
(0 58.0322 -2.66849)
(2.33681e-14 56.4658 -2.64514)
(1.86945e-13 56.4658 -2.64514)
(2.35548e-14 54.9505 -2.62243)
(0 54.9505 -2.62243)
(2.37398e-14 53.4844 -2.60031)
(-9.49594e-14 53.4844 -2.60031)
(-1.09538e-14 52.0657 -2.57879)
(9.5693e-14 52.0657 -2.57879)
(0 50.6924 -2.55785)
(0 50.6924 -2.55785)
(9.32515e-15 49.363 -2.53745)
(-1.30752e-13 49.363 -2.53745)
(0 48.0757 -2.51761)
(-3.29947e-14 48.0757 -2.51761)
(0 46.829 -2.49828)
(-3.23901e-14 46.829 -2.49828)
(3.17965e-14 45.6213 -2.47947)
(0 45.6213 -2.47947)
(9.36416e-14 44.4513 -2.46116)
(-1.31183e-13 44.4513 -2.46116)
(-3.06419e-14 43.3174 -2.44332)
(0 43.3174 -2.44332)
(0 42.2185 -2.42596)
(-6.01607e-14 42.2185 -2.42596)
(-3.35502e-14 41.1531 -2.40905)
(0 41.1531 -2.40905)
(-2.56775e-14 40.12 -2.39258)
(0 40.12 -2.39258)
(-2.58458e-14 39.1181 -2.37654)
(0 39.1181 -2.37654)
(2.60128e-14 38.1463 -2.36091)
(-2.79354e-14 38.1463 -2.36091)
(0 37.2034 -2.34569)
(-2.74235e-14 37.2034 -2.34569)
(-5.26872e-14 36.2885 -2.33086)
(-1.83828e-13 36.2885 -2.33086)
(0 35.4005 -2.31641)
(0 35.4005 -2.31641)
(7.85567e-14 34.5384 -2.30233)
(-5.18867e-14 34.5384 -2.30233)
(-5.09359e-14 33.7014 -2.28861)
(1.07327e-13 33.7014 -2.28861)
(2.50013e-14 32.8886 -2.27524)
(-1.32971e-13 32.8886 -2.27524)
(4.90862e-14 32.0991 -2.26221)
(-1.57694e-13 32.0991 -2.26221)
(-3.21738e-15 31.3321 -2.2495)
(-1.33336e-13 31.3321 -2.2495)
(0 30.5868 -2.23711)
(6.25705e-14 30.5868 -2.23711)
(2.76255e-14 29.8626 -2.22503)
(0 29.8626 -2.22503)
(3.277e-14 29.1586 -2.21325)
(1.33919e-13 29.1586 -2.21325)
(-2.79367e-14 28.4742 -2.20176)
(6.69961e-14 28.4742 -2.20176)
(0 27.8087 -2.19055)
(0 27.8087 -2.19055)
(2.82445e-14 27.1615 -2.17962)
(-4.31256e-14 27.1615 -2.17962)
(2.83972e-14 26.532 -2.16896)
(1.13589e-13 26.532 -2.16896)
(7.01087e-14 25.9196 -2.15855)
(7.26372e-14 25.9196 -2.15855)
(2.87004e-14 25.3237 -2.14839)
(0 25.3237 -2.14839)
(4.00503e-14 24.7438 -2.13848)
(-1.15403e-13 24.7438 -2.13848)
(6.8317e-14 24.1793 -2.1288)
(-3.93164e-14 24.1793 -2.1288)
(4.80424e-14 23.6299 -2.11935)
(-3.8596e-14 23.6299 -2.11935)
(0 23.0949 -2.11013)
(0 23.0949 -2.11013)
(-7.74883e-15 22.5739 -2.10111)
(0 22.5739 -2.10111)
(9.56981e-14 22.0665 -2.09231)
(0 22.0665 -2.09231)
(0 21.5722 -2.08371)
(3.58438e-14 21.5722 -2.08371)
(2.98847e-14 21.0906 -2.0753)
(2.39078e-13 21.0906 -2.0753)
(0 20.6214 -2.06709)
(0 20.6214 -2.06709)
(-9.79928e-14 20.1641 -2.05906)
(0 20.1641 -2.05906)
(-3.03184e-14 19.7184 -2.0512)
(0 19.7184 -2.0512)
(0 19.2839 -2.04352)
(3.26778e-14 19.2839 -2.04352)
(-1.47436e-15 18.8602 -2.036)
(3.2079e-14 18.8602 -2.036)
(3.14912e-14 18.4471 -2.02865)
(0 18.4471 -2.02865)
(6.17774e-14 18.0442 -2.02144)
(-1.23555e-13 18.0442 -2.02144)
(6.20599e-14 17.6512 -2.01439)
(-1.2412e-13 17.6512 -2.01439)
(-3.11707e-14 17.2678 -2.00749)
(-3.44257e-13 17.2678 -2.00749)
(-2.06534e-15 16.8938 -2.00072)
(-2.92456e-14 16.8938 -2.00072)
(0 16.5287 -1.99408)
(9.7093e-14 16.5287 -1.99408)
(-2.81836e-14 16.1725 -1.98757)
(-2.81836e-14 16.1725 -1.98757)
(4.06163e-15 15.8247 -1.98119)
(2.76671e-14 15.8247 -1.98119)
(-4.70696e-15 15.4852 -1.97493)
(-1.54628e-13 15.4852 -1.97493)
(0 15.1537 -1.96878)
(0 15.1537 -1.96878)
(3.21424e-14 14.83 -1.96273)
(1.2857e-13 14.83 -1.96273)
(6.45589e-14 14.5139 -1.95679)
(-1.29118e-13 14.5139 -1.95679)
(0 14.2051 -1.95095)
(-1.29664e-13 14.2051 -1.95095)
(3.25522e-14 13.9034 -1.9452)
(0 13.9034 -1.9452)
(0 13.6087 -1.93954)
(-1.30752e-13 13.6087 -1.93954)
(0 13.3207 -1.93396)
(-2.62586e-13 13.3207 -1.93396)
(0 13.0392 -1.92846)
(0 13.0392 -1.92846)
(6.61857e-14 12.764 -1.92304)
(1.32371e-13 12.764 -1.92304)
(7.83752e-14 12.4951 -1.91768)
(-4.51482e-14 12.4951 -1.91768)
(4.43209e-14 12.2321 -1.91239)
(1.33443e-13 12.2321 -1.91239)
(3.34942e-14 11.9749 -1.90715)
(-1.33977e-13 11.9749 -1.90715)
(0 11.7234 -1.90197)
(-1.77221e-13 11.7234 -1.90197)
(0 11.4774 -1.89683)
(0 11.4774 -1.89683)
(3.38923e-14 11.2367 -1.89174)
(-1.35569e-13 11.2367 -1.89174)
(6.80486e-14 11.0013 -1.88668)
(-1.36097e-13 11.0013 -1.88668)
(3.41559e-14 10.7708 -1.88165)
(9.69578e-14 10.7708 -1.88165)
(2.96354e-14 10.5453 -1.87665)
(9.82097e-14 10.5453 -1.87665)
(3.44181e-14 10.3246 -1.87167)
(0 10.3246 -1.87167)
(-3.45486e-14 10.1085 -1.86671)
(0 10.1085 -1.86671)
(3.46788e-14 9.89695 -1.86175)
(-1.38715e-13 9.89695 -1.86175)
(3.48087e-14 9.68976 -1.8568)
(1.39235e-13 9.68976 -1.8568)
(6.98765e-14 9.48684 -1.85184)
(0 9.48684 -1.85184)
(0 9.28806 -1.84687)
(1.75119e-13 9.28806 -1.84687)
(-3.51963e-14 9.09332 -1.84188)
(-1.74996e-13 9.09332 -1.84188)
(7.06496e-14 8.90249 -1.83687)
(-1.74883e-13 8.90249 -1.83687)
(-3.54529e-14 8.71548 -1.83183)
(-3.16592e-13 8.71548 -1.83183)
(3.55807e-14 8.53217 -1.82675)
(-1.42323e-13 8.53217 -1.82675)
(-3.17709e-14 8.35246 -1.82162)
(1.42833e-13 8.35246 -1.82162)
(9.2932e-15 8.17625 -1.81645)
(1.43341e-13 8.17625 -1.81645)
(6.65793e-14 8.00344 -1.81121)
(-1.74466e-13 8.00344 -1.81121)
(6.03236e-15 7.83394 -1.8059)
(0 7.83394 -1.8059)
(0 7.66764 -1.80051)
(-1.74364e-13 7.66764 -1.80051)
(0 7.50446 -1.79503)
(-1.45361e-13 7.50446 -1.79503)
(0 7.34432 -1.78946)
(-1.45862e-13 7.34432 -1.78946)
(0 7.18711 -1.78379)
(0 7.18711 -1.78379)
(3.67151e-14 7.03276 -1.77799)
(-5.48028e-14 7.03276 -1.77799)
(3.68393e-14 6.88118 -1.77207)
(1.47357e-13 6.88118 -1.77207)
(3.69631e-14 6.73229 -1.76601)
(-5.28127e-14 6.73229 -1.76601)
(0 6.58601 -1.7598)
(1.48346e-13 6.58601 -1.7598)
(0 6.44225 -1.75343)
(0 6.44225 -1.75343)
(0 6.30095 -1.74688)
(-1.49328e-13 6.30095 -1.74688)
(-4.90467e-14 6.16202 -1.74015)
(0 6.16202 -1.74015)
(1.0572e-14 6.02538 -1.73321)
(-4.8148e-14 6.02538 -1.73321)
(-3.76972e-14 5.89097 -1.72605)
(-1.50789e-13 5.89097 -1.72605)
(-3.7818e-14 5.75871 -1.71866)
(-1.51272e-13 5.75871 -1.71866)
(0 5.62852 -1.71102)
(0 5.62852 -1.71102)
(4.47146e-14 5.50034 -1.70311)
(-3.4918e-13 5.50034 -1.70311)
(0 5.37409 -1.69492)
(-1.96605e-13 5.37409 -1.69492)
(0 5.2497 -1.68642)
(0 5.2497 -1.68642)
(0 5.1271 -1.67759)
(-1.53658e-13 5.1271 -1.67759)
(2.99389e-15 5.00621 -1.66842)
(-4.15261e-14 5.00621 -1.66842)
(3.65334e-14 4.88698 -1.65887)
(1.54597e-13 4.88698 -1.65887)
(7.75315e-14 4.76933 -1.64892)
(0 4.76933 -1.64892)
(7.77632e-14 4.65318 -1.63855)
(-1.55526e-13 4.65318 -1.63855)
(7.75617e-14 4.53847 -1.62773)
(-3.85649e-14 4.53847 -1.62773)
(-3.91113e-14 4.42512 -1.61642)
(-3.78582e-14 4.42512 -1.61642)
(0 4.31307 -1.6046)
(1.56901e-13 4.31307 -1.6046)
(-3.93382e-14 4.20223 -1.59222)
(1.20869e-13 4.20223 -1.59222)
(0 4.09254 -1.57926)
(-1.93617e-13 4.09254 -1.57926)
(3.51586e-14 3.98391 -1.56567)
(-1.93406e-13 3.98391 -1.56567)
(-7.41869e-14 3.87627 -1.5514)
(-1.93205e-13 3.87627 -1.5514)
(7.95646e-14 3.76954 -1.53641)
(-1.59129e-13 3.76954 -1.53641)
(3.98911e-14 3.66363 -1.52066)
(0 3.66363 -1.52066)
(-3.26515e-14 3.55846 -1.50408)
(1.27344e-13 3.55846 -1.50408)
(0 3.45394 -1.48661)
(0 3.45394 -1.48661)
(0 3.34998 -1.46819)
(-1.60846e-13 3.34998 -1.46819)
(0 3.24648 -1.44876)
(-6.17784e-14 3.24648 -1.44876)
(-2.0227e-14 3.14334 -1.42823)
(1.61677e-13 3.14334 -1.42823)
(1.00057e-13 3.04045 -1.40652)
(-3.83707e-13 3.04045 -1.40652)
(0 2.9377 -1.38354)
(0 2.9377 -1.38354)
(-1.66514e-14 2.83497 -1.3592)
(0 2.83497 -1.3592)
(4.08195e-14 2.73213 -1.33337)
(-1.63278e-13 2.73213 -1.33337)
(-9.62056e-14 2.62905 -1.30595)
(1.63663e-13 2.62905 -1.30595)
(2.77446e-14 2.52557 -1.2768)
(1.64042e-13 2.52557 -1.2768)
(8.22069e-14 2.42156 -1.24578)
(0 2.42156 -1.24578)
(-1.11111e-14 2.31684 -1.21274)
(0 2.31684 -1.21274)
(4.12835e-14 2.21123 -1.17749)
(-5.13471e-14 2.21123 -1.17749)
(-9.0357e-15 2.10455 -1.13985)
(-1.65482e-13 2.10455 -1.13985)
(4.14551e-14 1.99659 -1.09962)
(1.6582e-13 1.99659 -1.09962)
(0 1.88715 -1.05657)
(-1.6615e-13 1.88715 -1.05657)
(4.16171e-14 1.776 -1.01045)
(-2.14154e-13 1.776 -1.01045)
(8.85058e-14 1.6629 -0.961012)
(0 1.6629 -0.961012)
(0 1.5476 -0.907961)
(1.67073e-13 1.5476 -0.907961)
(0 1.42987 -0.851003)
(-3.34712e-13 1.42987 -0.851003)
(0 1.30946 -0.789826)
(-1.67626e-13 1.30946 -0.789826)
(4.19705e-14 1.18612 -0.724109)
(-1.67882e-13 1.18612 -0.724109)
(4.20305e-14 1.05963 -0.653527)
(1.68122e-13 1.05963 -0.653527)
(8.39814e-14 0.929799 -0.577763)
(-3.78586e-13 0.929799 -0.577763)
(8.42755e-14 0.79647 -0.496514)
(-1.68551e-13 0.79647 -0.496514)
(0 0.659539 -0.409506)
(0 0.659539 -0.409506)
(-8.18594e-14 0.51897 -0.316504)
(1.29269e-13 0.51897 -0.316504)
(3.89075e-14 0.374803 -0.217327)
(-2.07953e-13 0.374803 -0.217327)
(-4.22911e-14 0.22716 -0.111848)
(1.69164e-13 0.22716 -0.111848)
(4.23143e-14 1.31268e-06 -4.85859e-07)
(1.69486e-13 4.50745e-07 -1.66833e-07)
(7.98662e-14 -1.27403e-06 4.71553e-07)
(1.69257e-13 -8.20452e-07 3.03671e-07)
(0 -0.22716 0.111847)
(3.00134e-13 -0.22716 0.111847)
(-4.22613e-14 -0.374802 0.217326)
(0 -0.374802 0.217326)
(0 -0.51897 0.316504)
(1.68902e-13 -0.51897 0.316504)
(-4.03736e-14 -0.659539 0.409506)
(3.77848e-13 -0.659539 0.409506)
(-4.21378e-14 -0.796469 0.496513)
(-1.68551e-13 -0.796469 0.496513)
(0 -0.929799 0.577762)
(0 -0.929799 0.577762)
(-4.20305e-14 -1.05963 0.653527)
(-1.68122e-13 -1.05963 0.653527)
(0 -1.18612 0.724108)
(0 -1.18612 0.724108)
(4.19066e-14 -1.30946 0.789826)
(0 -1.30946 0.789826)
(0 -1.42987 0.851003)
(1.67356e-13 -1.42987 0.851003)
(0 -1.5476 0.907961)
(2.13026e-13 -1.5476 0.907961)
(0 -1.66289 0.961012)
(0 -1.66289 0.961012)
(6.06847e-15 -1.776 1.01045)
(-2.14154e-13 -1.776 1.01045)
(8.30748e-14 -1.88715 1.05657)
(-4.85757e-14 -1.88715 1.05657)
(0 -1.99659 1.09962)
(0 -1.99659 1.09962)
(8.27409e-14 -2.10455 1.13985)
(1.65482e-13 -2.10455 1.13985)
(1.00635e-14 -2.21123 1.17749)
(-2.16481e-13 -2.21123 1.17749)
(-8.23889e-14 -2.31684 1.21274)
(0 -2.31684 1.21274)
(-4.11034e-14 -2.42156 1.24578)
(1.11132e-13 -2.42156 1.24578)