/*--------------------------------*- C++ -*----------------------------------*\
| =========                 |                                                 |
| \\      /  F ield         | OpenFOAM: The Open Source CFD Toolbox           |
|  \\    /   O peration     | Version:  2106                                  |
|   \\  /    A nd           | Website:  www.openfoam.com                      |
|    \\/     M anipulation  |                                                 |
\*---------------------------------------------------------------------------*/
FoamFile
{
    version     2.0;
    format      ascii;
    arch        "LSB;label=32;scalar=64";
    class       volTensorField;
    location    "10070";
    object      grad(U);
}
// * * * * * * * * * * * * * * * * * * * * * * * * * * * * * * * * * * * * * //

dimensions      [0 0 -1 0 0 0 0];

internalField   nonuniform List<tensor> 
2000
(
(0 -5.1663e-26 -1.08926e-27 23.8108 -8.3647e-12 -5.23638e-14 0.0440692 -7.74139e-15 -1.06421e-16)
(0 -4.87821e-30 -1.27037e-31 23.8108 -1.17075e-15 -1.33105e-17 0.0440692 -4.74143e-18 4.04807e-17)
(0 0 1.84459e-31 23.8063 8.07794e-28 -1.05543e-14 0.133014 0 -3.97935e-17)
(-2.8082e-17 -2.87329e-29 -1.49651e-31 23.8063 1.51519e-16 -5.42788e-18 0.133014 6.34948e-19 9.46607e-17)
(-5.42348e-18 -7.64639e-32 -1.00192e-29 23.8017 8.32278e-13 -3.10725e-15 0.184521 -5.1852e-15 -1.19341e-17)
(0 9.40214e-30 7.34542e-32 23.8017 -1.53471e-15 6.84349e-18 0.184521 -3.63177e-18 9.8137e-17)
(3.637e-17 -6.21857e-31 -8.8056e-34 23.797 4.55359e-13 -1.42675e-15 0.187928 -7.62361e-15 -1.03798e-17)
(1.68932e-17 6.15323e-30 4.80721e-32 23.797 -9.70351e-16 -5.71749e-18 0.187928 -5.27681e-18 1.01625e-16)
(-5.31326e-17 1.2081e-29 7.07868e-32 23.7922 -5.74076e-14 -1.24708e-15 0.191397 -3.39886e-16 -9.49277e-18)
(0 -9.06071e-30 -4.71912e-32 23.7922 -1.02547e-15 -1.06956e-17 0.191397 -7.04879e-18 1.05146e-16)
(-1.04318e-16 -3.91357e-28 1.85306e-31 23.7873 -1.1937e-14 -1.06014e-15 0.194929 -4.84628e-17 -7.70673e-18)
(-6.80972e-17 -2.37191e-29 -1.85306e-31 23.7873 -1.10117e-15 -1.33382e-17 0.194929 -8.93021e-18 1.08691e-16)
(0 -7.09271e-30 -9.09551e-32 23.7822 1.71538e-27 -8.70578e-16 0.198525 3.15544e-30 -6.68544e-18)
(2.24522e-16 1.16422e-29 9.09551e-32 23.7822 -1.16287e-15 -1.24591e-17 0.198525 -1.09248e-17 1.12265e-16)
(0 0 0 23.7771 9.66569e-15 -7.80441e-16 0.202186 -9.77155e-17 -6.46402e-18)
(5.55183e-16 2.85723e-30 2.23221e-32 23.7771 -1.21034e-15 -1.14727e-17 0.202186 -1.30581e-17 1.15871e-16)
(-8.29101e-17 3.53193e-30 2.46419e-32 23.7718 5.44154e-15 -7.57273e-16 0.205914 -6.4861e-17 -6.53596e-18)
(0 0 4.38261e-32 23.7718 -1.2661e-15 -1.37503e-17 0.205914 -1.53016e-17 1.19501e-16)
(1.93758e-16 -1.10139e-29 -8.6046e-32 23.7663 2.5015e-15 -7.55099e-16 0.209709 -2.82094e-17 -6.66923e-18)
(-1.93758e-16 1.10139e-29 8.6046e-32 23.7663 -1.25439e-15 -1.74483e-17 0.209709 -1.77206e-17 1.23133e-16)
(1.90208e-16 -3.24362e-29 -2.53408e-31 23.7607 1.71457e-15 -7.54882e-16 0.213572 -1.54146e-17 -6.77834e-18)
(-1.90208e-16 2.70301e-29 2.11173e-31 23.7607 -1.2843e-15 -1.83859e-17 0.213572 -2.0082e-17 1.26768e-16)
(-6.17616e-17 7.0766e-30 1.65689e-32 23.7549 1.80919e-15 -7.51248e-16 0.217505 -1.51241e-17 -6.85398e-18)
(4.99842e-16 -1.06139e-29 0 23.7549 -1.43963e-15 -1.60179e-17 0.217505 -2.26861e-17 1.30406e-16)
(0 0 0 23.7489 2.21954e-15 -7.4487e-16 0.221508 -1.77283e-17 -6.91476e-18)
(0 0 0 23.7489 -1.69787e-15 -1.57216e-17 0.221508 -2.56645e-17 1.34047e-16)
(-6.94127e-16 3.93351e-29 2.2481e-31 23.7426 2.62121e-15 -7.35534e-16 0.225581 -2.33497e-17 -6.93483e-18)
(3.59883e-16 -3.06855e-29 -1.99775e-31 23.7426 -1.94116e-15 -1.46146e-17 0.225581 -2.95825e-17 1.37672e-16)
(-3.46024e-16 1.35754e-29 1.81983e-31 23.736 2.7279e-15 -7.24046e-16 0.229727 -2.603e-17 -6.95293e-18)
(0 0 -7.84458e-32 23.736 -2.14944e-15 -1.65522e-17 0.229727 -3.40954e-17 1.41302e-16)
(5.3155e-16 -1.83192e-29 -1.40647e-31 23.7291 2.69698e-15 -7.12548e-16 0.233944 -2.6295e-17 -6.96939e-18)
(-7.3894e-16 1.47856e-29 1.15512e-31 23.7291 -2.29723e-15 -2.01815e-17 0.233944 -3.82899e-17 1.44891e-16)
(0 -9.67644e-30 -7.55972e-32 23.7216 2.63959e-15 -7.01306e-16 0.238233 -2.64011e-17 -6.9891e-18)
(0 9.67644e-30 1.13396e-31 23.7216 -2.05543e-15 -1.68943e-17 0.238233 -4.25366e-17 1.48471e-16)
(7.66818e-16 -3.08127e-29 -2.72991e-31 23.7135 2.77517e-15 -6.90866e-16 0.242594 -2.61329e-17 -7.01835e-18)
(5.30974e-16 2.37478e-29 1.8553e-31 23.7135 -1.91336e-15 -1.98659e-17 0.242594 -4.62468e-17 1.52034e-16)
(-2.32517e-16 8.19371e-30 9.80291e-32 23.7047 3.10029e-15 -6.80264e-16 0.247026 -3.01704e-17 -7.03145e-18)
(0 0 0 23.7047 -2.11587e-15 -2.71553e-17 0.247026 -5.07967e-17 1.55497e-16)
(2.49033e-16 -8.10698e-30 -9.66732e-32 23.6949 3.29186e-15 -6.69734e-16 0.251528 -3.38952e-17 -7.05921e-18)
(9.96132e-16 9.15417e-30 1.07275e-31 23.6949 -2.14629e-15 -2.25456e-17 0.251528 -5.57858e-17 1.58868e-16)
(-2.65852e-16 8.02211e-30 -9.98255e-33 23.684 3.42358e-15 -6.59974e-16 0.256099 -3.53753e-17 -7.08529e-18)
(2.12682e-15 -4.49321e-30 3.51032e-32 23.684 -2.40616e-15 -1.37794e-17 0.256099 -5.98147e-17 1.62194e-16)
(0 1.32326e-29 1.0338e-31 23.6716 3.59054e-15 -6.49832e-16 0.260734 -3.80219e-17 -7.10174e-18)
(1.13192e-15 -8.82175e-30 -3.446e-32 23.6716 -2.72502e-15 -1.56531e-17 0.260734 -6.56525e-17 1.65442e-16)
(3.047e-16 -1.29901e-29 -1.01486e-31 23.6575 3.75397e-15 -6.39645e-16 0.265432 -4.03873e-17 -7.1236e-18)
(1.20168e-15 1.29901e-29 1.35314e-31 23.6575 -2.66385e-15 -2.27467e-17 0.265432 -7.20889e-17 1.68576e-16)
(0 8.5014e-30 9.96258e-32 23.6413 3.90577e-15 -6.29391e-16 0.270187 -4.3123e-17 -7.13489e-18)
(6.74476e-16 -4.2507e-30 -3.32086e-32 23.6413 -2.94063e-15 -2.28491e-17 0.270187 -7.80227e-17 1.71562e-16)
(-3.36258e-16 -4.82178e-30 -7.29886e-32 23.6224 4.015e-15 -6.16656e-16 0.274994 -4.53801e-17 -7.0954e-18)
(0 1.25184e-29 1.304e-31 23.6224 -3.34053e-15 -2.02371e-17 0.274994 -8.76184e-17 1.74458e-16)
(0 -2.04817e-29 -1.28011e-31 23.6004 4.37458e-15 -6.03314e-16 0.279846 -4.72923e-17 -7.08718e-18)
(1.41867e-15 2.04817e-29 1.28011e-31 23.6004 -3.48671e-15 -1.77629e-17 0.279846 -9.93532e-17 1.77159e-16)
(-3.73407e-16 -5.01524e-31 -6.97336e-32 23.5745 4.765e-15 -5.89563e-16 0.284732 -5.56219e-17 -7.03039e-18)
(0 8.04256e-30 1.25665e-31 23.5745 -3.62299e-15 -1.55252e-17 0.284732 -1.11085e-16 1.79686e-16)
(-3.92482e-16 7.4653e-30 2.43288e-32 23.5442 5.19141e-15 -5.73693e-16 0.289643 -5.8511e-17 -6.96351e-18)
(0 0 6.16811e-32 23.5442 -3.56627e-15 -2.21476e-17 0.289643 -1.24091e-16 1.82014e-16)
(0 3.87525e-30 6.05508e-32 23.5084 5.65316e-15 -5.55563e-16 0.294565 -6.82167e-17 -6.8406e-18)
(0 0 0 23.5084 -3.57385e-15 -2.95845e-17 0.294565 -1.35618e-16 1.84051e-16)
(-1.50245e-15 3.77503e-29 2.91358e-31 23.4664 5.66089e-15 -5.36056e-16 0.299483 -7.22968e-17 -6.72751e-18)
(-1.72662e-15 -3.04339e-29 -2.08044e-31 23.4664 -3.47777e-15 -2.72714e-17 0.299483 -1.46981e-16 1.85799e-16)
(4.51756e-16 -7.24519e-30 -2.36023e-32 23.4169 5.69634e-15 -5.16349e-16 0.304378 -7.0985e-17 -6.58548e-18)
(1.80702e-15 3.73453e-30 0 23.4169 -3.4936e-15 -2.86442e-17 0.304378 -1.56725e-16 1.87249e-16)
(0 7.33219e-30 1.43207e-31 23.3589 6.12038e-15 -4.94489e-16 0.30923 -7.59435e-17 -6.40145e-18)
(-5.15957e-16 -3.66609e-30 -5.72827e-32 23.3589 -4.23032e-15 -3.6316e-17 0.30923 -1.65872e-16 1.88376e-16)
(-4.92996e-16 1.07029e-29 1.3549e-31 23.291 6.54991e-15 -4.64947e-16 0.314015 -8.49021e-17 -6.0358e-18)
(0 -7.19783e-30 -1.12466e-31 23.291 -4.68553e-15 -2.8424e-17 0.314015 -1.80041e-16 1.89185e-16)
(-5.14134e-16 -3.56381e-30 -6.01093e-32 23.2119 6.62694e-15 -4.29295e-16 0.318706 -9.04053e-17 -5.66185e-18)
(0 1.05989e-29 1.38006e-31 23.2119 -4.35343e-15 -2.60451e-17 0.318706 -1.95313e-16 1.89708e-16)
(4.88109e-16 -2.42776e-29 -1.62573e-31 23.1201 6.54791e-15 -3.91557e-16 0.323274 -9.02205e-17 -5.20564e-18)
(1.65435e-15 2.42776e-29 1.62573e-31 23.1201 -4.21856e-15 -3.22808e-17 0.323274 -2.06602e-16 1.89782e-16)
(0 1.0214e-29 1.06396e-31 23.014 6.5841e-15 -3.49347e-16 0.327688 -9.15974e-17 -4.6702e-18)
(-9.5833e-16 -6.80934e-30 0 23.014 -4.68461e-15 -2.6618e-17 0.327688 -2.21818e-16 1.89403e-16)
(5.79586e-16 -1.5192e-31 -2.15271e-32 22.8922 6.95774e-15 -3.02543e-16 0.331913 -9.46532e-17 -4.04072e-18)
(2.31834e-15 -3.34228e-30 0 22.8922 -4.99507e-15 -1.97015e-17 0.331913 -2.38941e-16 1.8848e-16)
(-1.52559e-15 -2.27586e-29 -1.84007e-31 22.753 7.59379e-15 -2.50972e-16 0.335913 -1.05915e-16 -3.31847e-18)
(2.40825e-15 2.95293e-29 2.56331e-31 22.753 -5.53737e-15 -2.39956e-17 0.335913 -2.53986e-16 1.87046e-16)
(-6.24851e-16 -2.22822e-29 -1.80766e-31 22.595 8.64985e-15 -1.95969e-16 0.339652 -1.17062e-16 -2.5332e-18)
(0 2.57673e-29 2.51634e-31 22.595 -6.60681e-15 -1.59436e-17 0.339652 -2.77645e-16 1.84964e-16)
(-8.89993e-16 2.21332e-29 1.97618e-31 22.4168 9.34055e-15 -1.34762e-16 0.343093 -1.41774e-16 -1.56204e-18)
(3.48176e-15 -2.21332e-29 -1.97618e-31 22.4168 -6.80238e-15 1.73488e-17 0.343093 -3.02696e-16 1.82465e-16)
(-1.34264e-15 1.62594e-29 1.35884e-31 22.2172 8.88593e-15 -6.86067e-17 0.346198 -1.42705e-16 -5.57111e-19)
(2.68527e-15 -3.10395e-30 0 22.2172 -6.20182e-15 2.12768e-17 0.346198 -3.249e-16 1.7964e-16)
(1.71535e-15 -1.21883e-29 -8.36993e-32 21.995 9.06947e-15 0 0.348935 -1.3288e-16 0)
(0 1.21883e-29 1.42831e-31 21.995 -6.06384e-15 -2.11048e-18 0.348935 -3.54677e-16 1.76015e-16)
(8.41957e-16 -2.99123e-30 -3.04118e-31 21.7496 9.78617e-15 6.10895e-17 0.35127 -1.53937e-16 -4.91662e-19)
(0 2.99123e-30 1.40214e-31 21.7496 -6.53428e-15 -1.68828e-17 0.35127 -3.84981e-16 1.71611e-16)
(-7.42958e-16 6.39536e-30 1.08548e-31 21.4805 9.50587e-15 1.42333e-16 0.353177 -1.61175e-16 -1.68263e-18)
(-2.97183e-15 0 -4.58816e-32 21.4805 -6.04759e-15 -3.19305e-17 0.353177 -4.14822e-16 1.66437e-16)
(7.67263e-16 5.19068e-30 7.44335e-32 21.1877 9.20994e-15 2.13212e-16 0.354632 -1.50459e-16 -2.99717e-18)
(3.06905e-15 -5.76522e-30 0 21.1877 -5.41806e-15 -4.66643e-17 0.354632 -4.32715e-16 1.60501e-16)
(7.91733e-16 1.91851e-29 2.94997e-31 20.8712 9.41739e-15 2.78829e-16 0.355617 -1.57271e-16 -4.13593e-18)
(-3.16693e-15 -2.26383e-29 -3.09508e-31 20.8712 -6.37286e-15 -3.16324e-17 0.355617 -4.48993e-16 1.53833e-16)
(-8.16339e-16 3.44953e-30 -3.00496e-32 20.532 9.91356e-15 3.45881e-16 0.356124 -1.63254e-16 -5.36385e-18)
(3.26536e-15 0 8.68104e-32 20.532 -6.72766e-15 1.84729e-17 0.356124 -4.79942e-16 1.4678e-16)
(0 -2.18162e-29 -1.70439e-31 20.1708 1.04319e-14 4.19705e-16 0.356146 -1.80557e-16 -6.63782e-18)
(6.72838e-15 2.18162e-29 1.70439e-31 20.1708 -6.0585e-15 6.58399e-17 0.356146 -5.0553e-16 1.39458e-16)
(1.61935e-15 -3.02076e-29 -2.09145e-31 19.7892 9.96808e-15 -2.50131e-15 0.355688 -1.8788e-16 -8.6695e-17)
(2.70977e-15 2.67706e-29 2.09145e-31 19.7892 -6.13361e-15 1.59756e-17 0.355688 -5.27275e-16 1.31689e-16)
(-8.90633e-16 3.43606e-30 1.23187e-31 19.3888 9.39272e-15 -9.75221e-15 0.354759 -1.70522e-16 -1.05997e-16)
(-3.56253e-15 0 -4.10625e-32 19.3888 -6.90061e-15 -6.31215e-17 0.354759 -5.57321e-16 1.22498e-16)
(1.45232e-15 -5.15968e-30 -1.2093e-31 18.9717 9.7774e-15 -1.40205e-14 0.353375 -1.7368e-16 -1.65766e-16)
(-1.45232e-15 5.15968e-30 1.2093e-31 18.9717 -7.10723e-15 -3.31862e-17 0.353375 -5.96486e-16 1.12544e-16)
(-9.40214e-16 1.86193e-29 2.37428e-31 18.54 1.02723e-14 -1.38928e-14 0.351558 -1.9144e-16 -2.2653e-16)
(0 -5.06514e-30 -1.58285e-31 18.54 -7.04328e-15 2.42924e-17 0.351558 -6.29678e-16 1.02235e-16)
(1.39958e-15 0 -1.55385e-31 18.096 1.03657e-14 -1.37161e-14 0.349334 -1.99218e-16 -2.6674e-16)
(-1.39958e-15 0 2.33077e-31 18.096 -7.89076e-15 4.95623e-17 0.349334 -6.69557e-16 9.12373e-17)
(0 1.46436e-29 3.81344e-31 17.6422 1.07497e-14 -1.35465e-14 0.346734 -2.02307e-16 -2.67762e-16)
(-3.95807e-15 -1.95248e-29 -4.57613e-31 17.6422 -7.80214e-15 3.24188e-17 0.346734 -7.19085e-16 7.97238e-17)
(1.01399e-15 1.09738e-29 2.04844e-31 17.1811 1.12346e-14 -1.33365e-14 0.343791 -2.22015e-16 -2.68269e-16)
(0 -4.79176e-30 0 17.1811 -6.72907e-15 -5.49919e-18 0.343791 -7.55283e-16 6.72408e-17)
(-1.03829e-15 -6.01452e-30 -2.65426e-31 16.7151 1.10127e-14 -1.30652e-14 0.340541 -2.29603e-16 -2.6664e-16)
(0 1.41118e-29 4.40995e-31 16.7151 -6.69204e-15 5.64902e-17 0.340541 -7.9469e-16 5.34858e-17)
(-2.12482e-15 -2.45933e-30 -3.58553e-31 16.2465 1.08502e-14 -1.27728e-14 0.33702 -2.21211e-16 -2.66071e-16)
(4.24964e-15 4.61775e-30 2.88609e-31 16.2465 -6.77164e-15 1.25643e-16 0.33702 -8.33868e-16 3.98439e-17)
(-1.08632e-15 3.38032e-30 -9.56186e-32 15.7775 1.11462e-14 -1.24663e-14 0.333264 -2.31415e-16 -2.63545e-16)
(0 0 1.4166e-31 15.7775 -7.14235e-15 8.90512e-17 0.333264 -8.65843e-16 2.54775e-17)
(-2.21998e-15 2.45446e-29 8.04501e-31 15.3103 1.17368e-14 -1.21645e-14 0.329309 -2.42238e-16 -2.62913e-16)
(-4.43996e-15 -1.78003e-29 -6.95322e-31 15.3103 -7.99054e-15 9.81168e-19 0.329309 -9.06859e-16 1.03841e-17)
(1.13341e-15 9.74393e-30 4.83233e-31 14.8466 1.22528e-14 -1.19606e-14 0.325189 -2.65933e-16 -2.64402e-16)
(-4.53365e-15 -2.18426e-29 -6.82581e-31 14.8466 -8.00401e-15 -4.08777e-17 0.325189 -9.56651e-16 -5.69245e-18)
(-1.2071e-15 1.28654e-29 4.02044e-31 14.3882 1.21739e-14 -1.17752e-14 0.320937 -2.7433e-16 -2.64416e-16)
(0 -4.28847e-30 0 14.3882 -6.84841e-15 2.44745e-17 0.320937 -1.00685e-15 -2.18207e-17)
(-2.35888e-15 -5.94006e-30 -3.65809e-31 13.9364 1.22789e-14 -1.15021e-14 0.316584 -2.72376e-16 -2.61754e-16)
(9.43553e-15 8.41976e-30 3.94676e-31 13.9364 -6.19212e-15 1.43408e-16 0.316584 -1.04296e-15 -3.78813e-17)
(-1.20202e-15 1.57326e-29 7.34511e-31 13.4927 1.23502e-14 -1.12079e-14 0.312157 -2.89516e-16 -2.60544e-16)
(4.80809e-15 -1.23982e-29 -6.4574e-31 13.4927 -7.5429e-15 1.50384e-16 0.312157 -1.07989e-15 -5.30265e-17)
(1.14195e-15 -8.11401e-30 -5.07126e-31 13.0579 1.21366e-14 -1.10314e-14 0.307683 -2.85993e-16 -2.6316e-16)
(0 8.11401e-30 5.07126e-31 13.0579 -8.32942e-15 8.32065e-17 0.307683 -1.13429e-15 -6.88914e-17)
(-2.3673e-15 3.31875e-30 3.54577e-31 12.6331 1.2723e-14 -1.0816e-14 0.303183 -2.9019e-16 -2.59848e-16)
(4.98511e-15 3.98266e-30 2.48916e-31 12.6331 -7.79999e-15 1.01826e-16 0.303183 -1.19417e-15 -8.50426e-17)
(-1.10048e-15 3.90968e-30 2.44355e-31 12.2188 1.35914e-14 -1.05433e-14 0.29868 -3.25394e-16 -2.59516e-16)
(0 0 0 12.2188 -8.14864e-15 8.99777e-17 0.29868 -1.25105e-15 -1.00801e-16)
(-2.3696e-15 1.48057e-29 6.01659e-31 11.8157 1.2849e-14 -1.03873e-14 0.29419 -3.44302e-16 -2.61739e-16)
(0 -7.67607e-30 -2.39877e-31 11.8157 -8.73162e-15 5.41954e-17 0.29419 -1.31371e-15 -1.16957e-16)
(0 1.50708e-29 4.70963e-31 11.424 1.11874e-14 -1.02082e-14 0.289729 -3.00051e-16 -2.60057e-16)
(0 -1.13031e-29 -2.35482e-31 11.424 -7.81524e-15 1.00942e-16 0.289729 -1.38246e-15 -1.32957e-16)
(0 -1.84933e-29 -1.61817e-30 11.0442 1.09391e-14 -1.00128e-14 0.285311 -2.71548e-16 -2.61333e-16)
(5.32415e-15 1.84933e-29 1.61817e-30 11.0442 -6.94022e-15 1.23539e-16 0.285311 -1.44187e-15 -1.47912e-16)
(-2.04401e-15 2.54162e-29 1.81544e-30 10.6762 1.09192e-14 -9.81243e-15 0.280947 -2.98308e-16 -2.59127e-16)
(2.04401e-15 -2.54162e-29 -1.81544e-30 10.6762 -7.30414e-15 1.25074e-16 0.280947 -1.49376e-15 -1.6358e-16)
(-1.37153e-15 3.26805e-30 3.78313e-31 10.3202 1.05074e-14 -9.54965e-15 0.276647 -2.80716e-16 -2.56849e-16)
(5.48613e-15 3.56435e-30 0 10.3202 -7.26009e-15 1.80915e-16 0.276647 -1.54354e-15 -1.79436e-16)
(0 -2.09942e-29 -1.31214e-30 9.97616 1.06814e-14 -9.33377e-15 0.272419 -2.87088e-16 -2.56898e-16)
(5.56526e-15 2.09942e-29 1.31214e-30 9.97616 -7.55053e-15 1.87802e-16 0.272419 -1.60116e-15 -1.94666e-16)
(-1.41079e-15 2.04246e-29 1.45985e-30 9.64391 9.96504e-15 -9.14943e-15 0.268269 -3.00962e-16 -2.56096e-16)
(-5.64318e-15 -1.71746e-29 -2.38272e-30 9.64391 -8.00022e-15 2.08309e-30 0.268269 -1.65662e-15 -2.09584e-16)
(1.89825e-15 -1.34879e-29 -8.42994e-31 9.32332 8.74982e-15 -9.0301e-15 0.264203 -2.57367e-16 -2.59699e-16)
(-7.61815e-15 1.01159e-29 1.05374e-30 9.32332 -6.95568e-15 -1.04621e-17 0.264203 -1.70972e-15 -2.25354e-16)
(-2.89772e-15 3.18318e-30 3.77231e-31 9.01418 8.94434e-15 -8.84642e-15 0.260223 -2.42246e-16 -2.54959e-16)
(5.79544e-15 3.31018e-30 0 9.01418 -6.47856e-15 1.74561e-16 0.260223 -1.75652e-15 -2.40649e-16)
(-2.93491e-15 6.46774e-30 3.95953e-31 8.71623 1.05488e-14 -8.4806e-15 0.256335 -2.78488e-16 -2.47601e-16)
(0 0 0 8.71623 -6.52196e-15 2.63179e-16 0.256335 -1.80817e-15 -2.53129e-16)
(0 -6.37996e-30 -1.59499e-30 8.4292 1.15336e-14 -8.25144e-15 0.252538 -3.47355e-16 -2.50602e-16)
(5.94308e-15 6.37996e-30 1.59499e-30 8.4292 -5.93158e-15 1.74867e-16 0.252538 -1.85012e-15 -2.66894e-16)
(-3.2667e-15 2.51231e-29 2.5639e-30 8.15279 1.15095e-14 -7.94271e-15 0.248835 -3.48992e-16 -2.37767e-16)
(-6.01522e-15 -1.87891e-29 -1.9572e-30 8.15279 -5.61001e-15 1.50816e-16 0.248835 -1.91861e-15 -2.82223e-16)
(1.52157e-15 -6.26599e-30 -9.91273e-31 7.88667 1.1449e-14 -7.60464e-15 0.245227 -3.58953e-16 -2.38668e-16)
(0 3.07414e-30 -8.25928e-32 7.88667 -5.44443e-15 -5.27551e-30 0.245227 -1.99124e-15 -2.97572e-16)
(1.53908e-15 -1.5253e-29 -9.84258e-31 7.63053 1.05023e-14 -7.54707e-15 0.241712 -3.58317e-16 -2.43018e-16)
(-6.15631e-15 1.20712e-29 7.54452e-31 7.63053 -6.10137e-15 2.04279e-17 0.241712 -2.03336e-15 -3.14912e-16)
(-3.11265e-15 1.52475e-29 1.95677e-30 7.38402 1.09719e-14 -7.4514e-15 0.238292 -3.11496e-16 -2.41383e-16)
(-3.33549e-15 -5.92501e-30 -1.11094e-30 7.38402 -6.46876e-15 1.68485e-16 0.238292 -2.10353e-15 -3.32412e-16)
(-3.27436e-15 1.45411e-29 1.45411e-30 7.1468 1.22781e-14 -7.18763e-15 0.234965 -4.02634e-16 -2.34545e-16)
(3.27436e-15 -1.74493e-29 -2.18116e-30 7.1468 -6.33831e-15 2.00372e-16 0.234965 -2.1497e-15 -3.47936e-16)
(1.59007e-15 2.5675e-30 8.17636e-31 6.91855 1.13574e-14 -7.03656e-15 0.23173 -4.10541e-16 -2.40193e-16)
(-1.43278e-14 -5.70985e-30 -1.00578e-31 6.91855 -5.91227e-15 -5.96373e-30 0.23173 -2.19669e-15 -3.62371e-16)
(1.60659e-15 -1.15481e-29 -1.31081e-30 6.69892 1.05441e-14 -7.08364e-15 0.228585 -3.55116e-16 -2.46648e-16)
(0 8.40784e-30 1.05098e-30 6.69892 -5.25257e-15 -9.38025e-17 0.228585 -2.25927e-15 -3.80089e-16)
(0 -1.37563e-29 -2.40735e-30 6.48759 1.0306e-14 -7.03454e-15 0.22553 -3.69599e-16 -2.45775e-16)
(6.4915e-15 1.37563e-29 2.40735e-30 6.48759 -5.50498e-15 2.35585e-16 0.22553 -2.31788e-15 -3.94579e-16)
(3.15937e-15 -1.12247e-29 -2.76359e-31 6.28422 9.08519e-15 -6.85546e-15 0.222562 -3.51672e-16 -2.43052e-16)
(6.55574e-15 8.10252e-30 0 6.28422 -6.11916e-15 2.62071e-16 0.222562 -2.37713e-15 -4.06075e-16)
(-3.24407e-16 -1.49701e-29 -1.75326e-30 6.08851 6.92789e-15 -6.77308e-15 0.219679 -2.95662e-16 -2.48997e-16)
(-1.49258e-15 1.59081e-29 1.32567e-30 6.08851 -6.23638e-15 5.52934e-17 0.219679 -2.45134e-15 -4.20056e-16)
(-1.8756e-15 -1.45697e-29 -1.37026e-30 5.90014 6.88422e-15 -6.78049e-15 0.21688 -2.06756e-16 -2.52765e-16)
(6.68164e-15 1.56166e-29 1.62673e-30 5.90014 -4.93384e-15 9.06478e-17 0.21688 -2.5147e-15 -4.33654e-16)
(4.56259e-15 -1.33248e-29 -3.17377e-30 5.71881 1.02519e-14 -6.66973e-15 0.214161 -3.03541e-16 -2.49953e-16)
(1.06099e-14 1.02203e-29 2.87445e-30 5.71881 -5.9447e-15 1.8116e-16 0.214161 -2.55048e-15 -4.46916e-16)
(-4.5251e-15 3.06851e-30 -3.2098e-31 5.54424 1.12834e-14 -6.6242e-15 0.211523 -4.70764e-16 -2.5876e-16)
(2.82403e-15 0 9.40592e-31 5.54424 -8.20786e-15 2.03492e-16 0.211523 -2.62898e-15 -4.57842e-16)
(-3.43219e-15 1.21332e-30 6.78949e-31 5.37614 9.7104e-15 -4.02174e-15 0.208961 -3.94918e-16 -7.86423e-17)
(6.86439e-15 4.92457e-30 0 5.37614 -7.60331e-15 2.99317e-16 0.208961 -2.73046e-15 -4.66864e-16)
(-1.73094e-15 3.06387e-30 5.16729e-45 5.21425 1.01973e-14 1.84007e-29 0.206474 -3.64319e-16 9.7835e-47)
(6.92377e-15 4.83433e-30 1.20858e-30 5.21425 -7.38101e-15 3.26402e-16 0.206474 -2.81149e-15 -4.72786e-16)
(0 9.49148e-30 1.18643e-30 5.0583 1.05229e-14 4.20722e-15 0.204059 -4.48953e-16 -1.67968e-16)
(-2.67161e-15 0 0 5.0583 -8.05069e-15 5.9271e-18 0.204059 -2.90008e-15 -4.78236e-16)
(1.76009e-15 -1.23552e-29 -8.97895e-31 4.90805 9.36902e-15 4.25745e-15 0.201715 -4.04727e-16 -1.73561e-16)
(7.04035e-15 9.31755e-30 5.82347e-31 4.90805 -7.29104e-15 3.2049e-16 0.201715 -3.01047e-15 -4.8491e-16)
(1.7744e-15 -1.2179e-29 -2.59503e-30 4.76326 9.15769e-15 4.35901e-15 0.19944 -3.69575e-16 -1.78489e-16)
(7.0976e-15 9.14681e-30 2.2867e-30 4.76326 -5.86828e-15 5.20044e-16 0.19944 -3.07834e-15 -4.83054e-16)
(-1.78855e-15 3.01573e-30 3.00032e-31 4.6237 9.53159e-15 4.46383e-15 0.197231 -4.02014e-16 -1.88734e-16)
(7.15418e-15 4.4896e-30 5.612e-31 4.6237 -5.70341e-15 3.59262e-16 0.197231 -3.12697e-15 -4.83798e-16)
(4.28363e-15 -1.18161e-29 -8.43098e-31 4.48914 9.1944e-15 4.62152e-15 0.195086 -4.15879e-16 -1.94292e-16)
(-2.4811e-15 8.81465e-30 5.50916e-31 4.48914 -5.45377e-15 1.54347e-16 0.195086 -3.23623e-15 -4.85276e-16)
(-1.81636e-15 1.59761e-29 1.3641e-30 4.35938 9.18281e-15 4.76249e-15 0.193003 -3.87418e-16 -2.09757e-16)
(7.26542e-15 -8.65313e-30 -6.80114e-32 4.35938 -5.3902e-15 3.05684e-30 0.193003 -3.30253e-15 -4.90074e-16)
(1.83003e-15 -7.22855e-30 -8.05455e-31 4.23422 9.16268e-15 4.66943e-15 0.19098 -4.30509e-16 -2.14281e-16)
(0 4.24728e-30 5.3091e-31 4.23422 -6.06858e-15 -3.99429e-18 0.19098 -3.35817e-15 -4.93966e-16)
(-1.84355e-15 7.14388e-30 1.83204e-30 4.11347 8.03589e-15 4.42733e-15 0.189016 -4.00174e-16 -2.09142e-16)
(7.37421e-15 -4.16945e-30 -1.04236e-30 4.11347 -4.70226e-15 -1.5581e-16 0.189016 -3.46266e-15 -4.95394e-16)
(4.16111e-15 1.12123e-30 7.59905e-31 3.99693 7.1522e-15 4.08884e-15 0.187108 -3.41664e-16 -1.99781e-16)
(5.12355e-15 0 -5.11631e-31 3.99693 -2.34715e-15 -1.59485e-16 0.187108 -3.5056e-15 -4.95182e-16)
(0 4.01804e-30 1.00451e-30 3.88445 5.89973e-15 3.72864e-15 0.185254 -3.31316e-16 -1.84871e-16)
(5.21874e-15 0 -5.02255e-31 3.88445 -2.30288e-15 -4.25923e-17 0.185254 -3.52075e-15 -4.9287e-16)
(0 3.94441e-30 9.86104e-31 3.77584 5.36487e-15 3.50374e-15 0.183453 -2.3335e-16 -1.72457e-16)
(-7.53311e-15 0 -6.74258e-32 3.77584 -2.79972e-15 -2.76255e-30 0.183453 -3.60546e-15 -4.85854e-16)
(-2.17982e-15 1.16164e-29 1.45205e-30 3.67095 5.48112e-15 3.24609e-15 0.181703 -2.91083e-16 -1.6967e-16)
(9.76482e-15 -1.16164e-29 -1.45205e-30 3.67095 -1.84676e-15 -2.22719e-18 0.181703 -3.65866e-15 -4.78224e-16)
(-1.90909e-15 -1.98603e-29 -2.60514e-30 3.56962 4.11229e-15 3.04748e-15 0.180003 -2.53815e-16 -1.53086e-16)
(0 2.28071e-29 2.85088e-30 3.56962 -1.19609e-15 3.46598e-17 0.180003 -3.68836e-15 -4.68585e-16)
(-1.92181e-15 2.95722e-30 2.39241e-31 3.47172 4.06614e-15 2.94089e-15 0.17835 -1.62048e-16 -1.55749e-16)
(7.68726e-15 3.73152e-30 4.6644e-31 3.47172 -1.48567e-15 2.82028e-17 0.17835 -3.72797e-15 -4.6061e-16)
(0 -7.32629e-30 -9.15786e-31 3.3771 5.2068e-15 2.82353e-15 0.176743 -2.58571e-16 -1.4775e-16)
(0 3.66314e-30 9.15786e-31 3.3771 -3.04624e-15 3.79029e-17 0.176743 -3.73573e-15 -4.48577e-16)
(-2.02438e-15 3.59602e-30 1.34851e-30 3.28563 5.58856e-15 2.7385e-15 0.175181 -2.89216e-16 -1.49162e-16)
(0 0 -8.99004e-31 3.28563 -3.13007e-15 4.2185e-17 0.175181 -3.77481e-15 -4.3345e-16)
(3.94654e-15 -2.05677e-29 -2.43254e-30 3.19718 5.99918e-15 2.72953e-15 0.173662 -3.09588e-16 -1.44125e-16)
(7.83704e-15 1.05904e-29 -5.78894e-32 3.19718 -2.1306e-15 -2.1216e-30 0.173662 -3.81425e-15 -4.17137e-16)
(-1.93022e-15 4.02452e-30 1.07961e-30 3.11164 6.23202e-15 2.71046e-15 0.172185 -3.45338e-16 -1.53795e-16)
(7.88606e-15 0 -4.33179e-31 3.11164 -3.03422e-15 6.67779e-18 0.172185 -3.87821e-15 -4.03476e-16)
(0 0 0 3.02888 6.00151e-15 2.66491e-15 0.170748 -3.47375e-16 -1.47416e-16)
(7.93465e-15 0 4.25241e-31 3.02888 -3.83306e-15 2.02886e-17 0.170748 -3.92746e-15 -3.85559e-16)
(-3.99141e-15 5.78356e-30 6.28606e-33 2.94879 5.57353e-15 2.63064e-15 0.16935 -3.32008e-16 -1.54384e-16)
(7.98282e-15 0 4.17449e-31 2.94879 -2.67081e-15 9.69905e-17 0.16935 -3.95772e-15 -3.65655e-16)
(2.00764e-15 -1.92732e-29 -2.25817e-30 2.87128 5.25423e-15 2.70051e-15 0.16799 -3.10642e-16 -1.48982e-16)
(8.03058e-15 1.6392e-29 2.049e-30 2.87128 -1.33307e-15 2.1794e-16 0.16799 -3.98487e-15 -3.41094e-16)
(0 1.28733e-29 2.01145e-30 2.79624 5.83847e-15 2.98544e-15 0.166667 -3.06653e-16 -1.68488e-16)
(-8.07794e-15 -1.28733e-29 -3.36662e-30 2.79624 -3.14756e-15 7.03548e-17 0.166667 -4.01946e-15 -3.16934e-16)
(0 3.15934e-30 3.94918e-31 2.72358 6.42322e-15 3.16789e-15 0.165379 -3.92925e-16 -1.89015e-16)
(-1.77855e-15 -3.15934e-30 -3.62348e-32 2.72358 -4.04191e-15 0 0.165379 -4.12083e-15 -2.98981e-16)
(-4.08576e-15 2.11753e-29 1.92786e-30 2.6532 6.71176e-15 3.12795e-15 0.164125 -3.90167e-16 -1.97289e-16)
(0 -1.55073e-29 -1.55073e-30 2.6532 -3.10058e-15 -1.14951e-17 0.164125 -4.18807e-15 -2.83432e-16)
(-3.7684e-15 8.89753e-30 9.45482e-31 2.58501 7.50549e-15 2.93965e-15 0.162904 -4.43901e-16 -1.91131e-16)
(0 0 -3.80577e-31 2.58501 -3.6885e-15 -1.40288e-17 0.162904 -4.21808e-15 -2.66559e-16)
(-3.36512e-15 1.49441e-29 1.86802e-30 2.51894 8.36476e-15 2.75344e-15 0.161715 -5.06223e-16 -1.80679e-16)
(-8.26362e-15 -1.19553e-29 -1.49441e-30 2.51894 -5.05066e-15 -1.48079e-16 0.161715 -4.32417e-15 -2.49229e-16)
(4.15457e-15 -2.58566e-30 9.86519e-33 2.4549 9.7807e-15 2.57421e-15 0.160556 -5.724e-16 -1.74111e-16)
(0 -2.93406e-30 -3.66757e-31 2.4549 -5.22267e-15 -2.23312e-17 0.160556 -4.48282e-15 -2.2998e-16)
(9.34248e-16 1.18465e-29 1.44663e-30 2.39282 9.34982e-15 2.25954e-15 0.159428 -7.1292e-16 -1.63738e-16)
(8.35433e-15 -1.72817e-29 -2.11685e-32 2.39282 -4.0597e-15 -8.47409e-31 0.159428 -4.57551e-15 -2.04274e-16)
(-2.0998e-15 -1.02725e-31 1.79118e-31 2.33262 6.47241e-15 2.01876e-15 0.158329 -5.3581e-16 -1.38198e-16)
(8.3992e-15 8.48253e-30 3.53439e-31 2.33262 -3.56952e-15 1.03352e-16 0.158329 -4.65554e-15 -1.75666e-16)
(4.22187e-15 2.84918e-30 3.38653e-31 2.27423 4.33829e-15 2.21185e-15 0.157258 -3.44141e-16 -1.36801e-16)
(0 -8.32709e-30 -9.95442e-31 2.27423 -2.73308e-15 5.91646e-31 0.157258 -4.74644e-15 -1.45544e-16)
(2.12199e-15 -8.1907e-30 -6.81232e-31 2.21759 4.01015e-15 2.47512e-15 0.156214 -2.57082e-16 -1.70452e-16)
(8.48796e-15 0 5.10906e-31 2.21759 -2.43352e-15 -1.69717e-16 0.156214 -4.79279e-15 -1.24469e-16)
(8.787e-16 1.07512e-29 5.0103e-31 2.16264 6.34187e-15 2.24382e-15 0.155197 -3.1029e-16 -1.79519e-16)
(-3.01167e-15 -5.3498e-30 -1.67181e-31 2.16264 -3.79448e-15 -4.37479e-16 0.155197 -4.84345e-15 -9.88425e-17)
(-2.95648e-15 -5.25177e-30 -3.28236e-31 2.10931 8.63459e-15 1.31353e-15 0.154204 -6.0567e-16 -1.43257e-16)
(1.7151e-14 7.87765e-30 4.92353e-31 2.10931 -5.73897e-15 -6.14221e-16 0.154204 -4.94457e-15 -7.55566e-17)
(-2.15471e-15 -7.67414e-30 -1.10366e-30 2.05754 8.20635e-15 1.38355e-16 0.153237 -6.61437e-16 -4.85471e-17)
(0 1.03111e-29 1.28888e-30 2.05754 -6.04346e-15 -5.23771e-16 0.153237 -5.10737e-15 -4.29512e-17)
(-2.84912e-15 -1.01221e-29 -1.58158e-30 2.00727 5.98313e-15 -8.45387e-16 0.152293 -5.63906e-16 -1.00762e-16)
(1.73238e-14 1.01221e-29 1.58158e-30 2.00727 -2.92279e-15 -1.28048e-16 0.152293 -5.26712e-15 4.19499e-19)
(6.20742e-16 1.25781e-29 1.7419e-30 1.95847 2.89136e-15 -1.16169e-15 0.151372 -3.44794e-16 -7.91657e-17)
(-2.79691e-15 -9.93663e-30 -1.5526e-30 1.95847 -1.70262e-15 -1.10109e-16 0.151372 -5.2802e-15 6.21003e-17)
(0 -4.87727e-30 -6.09659e-31 1.91106 1.9407e-15 -1.18574e-15 0.150474 -1.01279e-16 -1.08393e-16)
(1.14929e-14 4.87727e-30 6.09659e-31 1.91106 -2.02195e-15 -4.32607e-16 0.150474 -5.33548e-15 1.06587e-16)
(2.19736e-15 -1.70164e-29 -1.9814e-30 1.86501 2.73049e-15 -1.67876e-15 0.149597 -2.06227e-16 -1.62217e-16)
(1.75789e-14 1.43637e-29 1.79546e-30 1.86501 -7.76008e-16 -2.70465e-16 0.149597 -5.39753e-15 1.62833e-16)
(-2.20786e-15 2.6416e-30 1.91092e-31 1.82026 3.04811e-15 -2.0189e-15 0.148742 -2.33359e-16 -1.68747e-16)
(8.83145e-15 0 2.9376e-31 1.82026 -1.18288e-16 4.63184e-17 0.148742 -5.4404e-15 2.34906e-16)
(2.2183e-15 6.59597e-30 6.66588e-31 1.77678 3.60687e-15 -1.94536e-15 0.147906 -2.66543e-16 -1.55938e-16)
(6.27572e-15 -4.61403e-30 -2.88377e-31 1.77678 1.90153e-16 1.71835e-16 0.147906 -5.44691e-15 3.08311e-16)
(-4.45735e-15 9.74875e-30 1.25972e-30 1.73451 4.80389e-15 -1.72514e-15 0.14709 -3.36315e-16 -1.37302e-16)
(8.9147e-15 0 -2.83093e-31 1.73451 2.94789e-16 -2.84492e-17 0.14709 -5.43982e-15 3.69784e-16)
(-2.50315e-15 -8.89296e-30 -8.33715e-31 1.69341 5.89716e-15 -1.84617e-15 0.146293 -4.82076e-16 -1.82978e-16)
(1.79119e-14 8.89296e-30 1.38953e-30 1.69341 2.40711e-16 2.9592e-17 0.146293 -5.4591e-15 4.18625e-16)
(0 4.365e-30 1.09125e-30 1.65346 5.03274e-15 -1.81315e-15 0.145515 -5.4017e-16 -1.36593e-16)
(6.53973e-15 -4.365e-30 -5.45625e-31 1.65346 -2.06679e-16 2.41799e-16 0.145515 -5.46417e-15 4.80784e-16)
(-4.6717e-15 6.86833e-30 4.88143e-31 1.61459 3.57774e-15 -1.34074e-15 0.144754 -3.46258e-16 -1.04149e-16)
(0 0 0 1.61459 -2.75622e-15 2.73567e-16 0.144754 -5.47279e-15 5.35578e-16)
(2.2696e-15 5.82587e-30 8.20716e-31 1.57679 3.5035e-15 -8.01092e-16 0.144011 -2.96499e-16 -4.19876e-17)
(0 -1.26195e-29 -1.31453e-30 1.57679 -2.86005e-15 3.18279e-16 0.144011 -5.6074e-15 5.81608e-16)
(0 8.25882e-30 -4.07451e-31 1.54002 3.90776e-15 -4.13514e-30 0.143284 -3.45582e-16 0)
(0 -4.12941e-30 0 1.54002 -2.86368e-15 -9.15089e-17 0.143284 -5.65674e-15 6.14245e-16)
(-4.57179e-15 1.47064e-29 1.74982e-30 1.50423 4.87003e-15 2.85139e-16 0.142573 -3.83794e-16 -1.35469e-17)
(0 -8.10748e-30 -1.52015e-30 1.50423 -1.99086e-15 -8.11156e-16 0.142573 -5.7961e-15 6.13625e-16)
(-2.29973e-15 1.04696e-29 9.65668e-31 1.46941 5.59565e-15 8.18749e-16 0.141878 -5.4318e-16 -5.41847e-17)
(-9.1989e-15 0 -2.48716e-31 1.46941 -6.69544e-16 -8.50742e-16 0.141878 -5.79399e-15 5.90593e-16)
(-2.30966e-15 -1.40839e-30 -7.69147e-31 1.43551 4.88574e-15 9.02988e-16 0.141198 -5.40039e-16 -1.04782e-16)
(1.84773e-14 7.81307e-30 1.22079e-30 1.43551 -2.9343e-15 1.47857e-16 0.141198 -5.80633e-15 5.66083e-16)
(0 -1.15048e-29 -1.43811e-30 1.4025 4.20799e-15 6.89385e-16 0.140533 -4.22345e-16 -7.29936e-17)
(9.27822e-15 1.15048e-29 1.43811e-30 1.4025 -3.29275e-15 5.93806e-16 0.140533 -5.86886e-15 5.80091e-16)
(-2.3294e-15 1.00123e-29 6.76468e-31 1.37037 5.62699e-15 8.59169e-16 0.139881 -4.2297e-16 -6.54214e-17)
(5.07894e-15 -3.76467e-30 0 1.37037 -3.09444e-15 -2.62402e-16 0.139881 -5.94896e-15 5.82786e-16)