/*--------------------------------*- C++ -*----------------------------------*\
| =========                 |                                                 |
| \\      /  F ield         | OpenFOAM: The Open Source CFD Toolbox           |
|  \\    /   O peration     | Version:  2106                                  |
|   \\  /    A nd           | Website:  www.openfoam.com                      |
|    \\/     M anipulation  |                                                 |
\*---------------------------------------------------------------------------*/
FoamFile
{
    version     2.0;
    format      ascii;
    arch        "LSB;label=32;scalar=64";
    class       surfaceScalarField;
    location    "10070";
    object      phi;
}
// * * * * * * * * * * * * * * * * * * * * * * * * * * * * * * * * * * * * * //

dimensions      [0 3 -1 0 0 0 0];

oriented        oriented;

internalField   nonuniform List<scalar> 
3996
(
2.0389e-08
-6.38175e-18
-1.7869e-22
-4.37054e-22
1.87283e-23
6.26887e-08
-6.38126e-18
-1.2905e-22
-8.37691e-22
4.4637e-23
1.07349e-07
-6.38078e-18
-1.29902e-22
-1.23478e-21
4.71239e-23
1.54474e-07
-6.38024e-18
-1.44992e-22
-1.68733e-21
4.97124e-23
2.04168e-07
-6.37963e-18
-1.62026e-22
-2.18481e-21
5.24024e-23
2.56545e-07
-6.37901e-18
-1.80782e-22
-2.71067e-21
5.51931e-23
3.11718e-07
-6.37828e-18
-2.01824e-22
-3.32264e-21
5.80853e-23
3.69809e-07
-6.37745e-18
-2.24879e-22
-3.9884e-21
6.10812e-23
4.30942e-07
-6.37656e-18
-2.49643e-22
-4.67252e-21
6.41819e-23
4.95247e-07
-6.37568e-18
-2.76044e-22
-5.33936e-21
6.73833e-23
5.62859e-07
-6.37481e-18
-3.04159e-22
-5.9928e-21
7.06881e-23
6.33918e-07
-6.37363e-18
-3.3409e-22
-6.88489e-21
7.4093e-23
7.08569e-07
-6.37246e-18
-3.65963e-22
-7.76984e-21
7.75979e-23
7.86964e-07
-6.37062e-18
-3.99897e-22
-8.99913e-21
8.12033e-23
8.6926e-07
-6.36901e-18
-4.36028e-22
-1.0254e-20
8.49122e-23
9.5562e-07
-6.36735e-18
-4.74472e-22
-1.17356e-20
8.87194e-23
1.04621e-06
-6.36564e-18
-5.15353e-22
-1.30036e-20
9.2632e-23
1.14121e-06
-6.36403e-18
-5.58804e-22
-1.41698e-20
9.6641e-23
1.2408e-06
-6.36189e-18
-6.0495e-22
-1.55433e-20
1.00722e-22
1.34517e-06
-6.35979e-18
-6.53936e-22
-1.68331e-20
1.04868e-22
1.45451e-06
-6.35757e-18
-7.05901e-22
-1.8469e-20
1.09082e-22
1.56902e-06
-6.35493e-18
-7.60992e-22
-2.05421e-20
1.13355e-22
1.68891e-06
-6.35253e-18
-8.19371e-22
-2.21167e-20
1.17687e-22
1.81439e-06
-6.34957e-18
-8.81168e-22
-2.43644e-20
1.22049e-22
1.94568e-06
-6.34676e-18
-9.46556e-22
-2.6735e-20
1.26457e-22
2.08301e-06
-6.34365e-18
-1.01562e-21
-2.93168e-20
1.30845e-22
2.2266e-06
-6.33992e-18
-1.08854e-21
-3.21403e-20
1.35212e-22
2.37669e-06
-6.33618e-18
-1.16543e-21
-3.47695e-20
1.39548e-22
2.53352e-06
-6.33153e-18
-1.24641e-21
-3.76976e-20
1.43802e-22
2.69732e-06
-6.32714e-18
-1.3316e-21
-4.00574e-20
1.47945e-22
2.86833e-06
-6.32265e-18
-1.42108e-21
-4.30285e-20
1.51937e-22
3.04679e-06
-6.31799e-18
-1.51491e-21
-4.6474e-20
1.55788e-22
3.23295e-06
-6.3118e-18
-1.61314e-21
-5.06869e-20
1.59481e-22
3.42703e-06
-6.30654e-18
-1.71581e-21
-5.42214e-20
1.62954e-22
3.62927e-06
-6.30056e-18
-1.82285e-21
-5.79861e-20
1.66163e-22
3.83988e-06
-6.29501e-18
-1.93417e-21
-6.18548e-20
1.69023e-22
4.05908e-06
-6.28879e-18
-2.04956e-21
-6.65492e-20
1.71421e-22
4.28706e-06
-6.28191e-18
-2.16883e-21
-7.15059e-20
1.7336e-22
4.524e-06
-6.27397e-18
-2.29174e-21
-7.73564e-20
1.7476e-22
4.77008e-06
-6.26449e-18
-2.4181e-21
-8.45164e-20
1.75645e-22
5.02543e-06
-6.25616e-18
-2.54761e-21
-9.03981e-20
1.76055e-22
5.29019e-06
-6.24749e-18
-2.6798e-21
-9.60961e-20
1.75732e-22
5.56446e-06
-6.23756e-18
-2.81423e-21
-1.02827e-19
1.74629e-22
5.84833e-06
-6.22721e-18
-2.95052e-21
-1.093e-19
1.72678e-22
6.14184e-06
-6.21841e-18
-3.0882e-21
-1.14495e-19
1.69885e-22
6.44505e-06
-6.20779e-18
-3.22678e-21
-1.21409e-19
1.66197e-22
6.75798e-06
-6.19794e-18
-3.36592e-21
-1.28392e-19
1.61713e-22
7.08062e-06
-6.18452e-18
-3.50497e-21
-1.36342e-19
1.56417e-22
7.41296e-06
-6.17484e-18
-3.64361e-21
-1.42523e-19
1.50188e-22
7.75498e-06
-6.16302e-18
-3.7812e-21
-1.4963e-19
1.42732e-22
8.10665e-06
-6.15337e-18
-3.91739e-21
-1.58777e-19
1.34192e-22
8.46792e-06
-6.13916e-18
-4.05149e-21
-1.66722e-19
1.24398e-22
8.83875e-06
-6.12792e-18
-4.18355e-21
-1.7653e-19
1.13177e-22
9.2191e-06
-6.11452e-18
-4.31282e-21
-1.87108e-19
1.00735e-22
9.60895e-06
-6.10026e-18
-4.43938e-21
-1.93526e-19
8.69032e-23
1.00082e-05
-6.08578e-18
-4.56311e-21
-2.03034e-19
7.10327e-23
1.0417e-05
-6.07251e-18
-4.68395e-21
-2.11567e-19
5.37076e-23
1.08352e-05
-6.05735e-18
-4.80173e-21
-2.21432e-19
3.47844e-23
1.12628e-05
-6.04176e-18
-4.91678e-21
-2.31566e-19
1.46133e-23
1.16999e-05
-6.02452e-18
-5.02899e-21
-2.43483e-19
-6.85495e-24
1.21465e-05
-6.00814e-18
-5.13887e-21
-2.51745e-19
-2.94026e-23
1.26026e-05
-5.9893e-18
-5.24633e-21
-2.61915e-19
-5.35317e-23
1.30684e-05
-5.97123e-18
-5.35194e-21
-2.72724e-19
-7.83549e-23
1.35439e-05
-5.9542e-18
-5.45606e-21
-2.84614e-19
-1.04142e-22
1.40292e-05
-5.93483e-18
-5.55829e-21
-2.96617e-19
-1.31181e-22
1.45244e-05
-5.91344e-18
-5.65885e-21
-3.09705e-19
-1.59087e-22
1.50297e-05
-5.89253e-18
-5.75828e-21
-3.22926e-19
-1.87901e-22
1.55452e-05
-5.87506e-18
-5.85671e-21
-3.3633e-19
-2.17534e-22
1.60711e-05
-5.85827e-18
-5.95343e-21
-3.46767e-19
-2.4746e-22
1.66076e-05
-5.83882e-18
-6.04871e-21
-3.58622e-19
-2.79153e-22
1.71548e-05
-5.82226e-18
-6.14219e-21
-3.703e-19
-3.1282e-22
1.7713e-05
-5.80346e-18
-6.2336e-21
-3.85734e-19
-3.47354e-22
1.82823e-05
-5.78391e-18
-6.32315e-21
-3.98963e-19
-3.81954e-22
1.88629e-05
-5.77185e-18
-6.41168e-21
-4.08931e-19
-4.16672e-22
1.94552e-05
-5.75505e-18
-6.49679e-21
-4.22674e-19
-4.52566e-22
2.00594e-05
-5.73449e-18
-6.57852e-21
-4.3483e-19
-4.88555e-22
2.06756e-05
-5.71348e-18
-6.65763e-21
-4.46266e-19
-5.26478e-22
2.13043e-05
-5.69042e-18
-6.73272e-21
-4.56279e-19
-5.67947e-22
2.19455e-05
-5.6681e-18
-6.80669e-21
-4.65855e-19
-6.10917e-22
2.25997e-05
-5.64875e-18
-6.87835e-21
-4.77885e-19
-6.56556e-22
2.32671e-05
-5.62701e-18
-6.94699e-21
-4.91312e-19
-7.05392e-22
2.3948e-05
-5.59686e-18
-7.01345e-21
-5.08973e-19
-7.55339e-22
2.46427e-05
-5.57692e-18
-7.07917e-21
-5.16587e-19
-8.02101e-22
2.53515e-05
-5.55307e-18
-7.14211e-21
-5.27147e-19
-8.50118e-22
2.60748e-05
-5.53019e-18
-7.20409e-21
-5.42423e-19
-8.9932e-22
2.68128e-05
-5.50953e-18
-7.26544e-21
-5.55113e-19
-9.49302e-22
2.75659e-05
-5.49458e-18
-7.32525e-21
-5.69686e-19
-1.0016e-21
2.83344e-05
-5.47999e-18
-7.38095e-21
-5.78072e-19
-1.05232e-21
2.91188e-05
-5.45648e-18
-7.43178e-21
-5.94396e-19
-1.10659e-21
2.99193e-05
-5.42333e-18
-7.48111e-21
-6.15513e-19
-1.15822e-21
3.07363e-05
-5.40538e-18
-7.53268e-21
-6.30641e-19
-1.20659e-21
3.15702e-05
-5.37778e-18
-7.57793e-21
-6.55428e-19
-1.25369e-21
3.24213e-05
-5.34942e-18
-7.62096e-21
-6.69054e-19
-1.29736e-21
3.32902e-05
-5.32845e-18
-7.66216e-21
-6.93309e-19
-1.3389e-21
3.4177e-05
-5.30448e-18
-7.69392e-21
-7.05174e-19
-1.37653e-21
3.50824e-05
-5.27604e-18
-7.71811e-21
-7.22825e-19
-1.41567e-21
3.60066e-05
-5.25431e-18
-7.73627e-21
-7.33672e-19
-1.45549e-21
3.69501e-05
-5.22821e-18
-7.74451e-21
-7.48901e-19
-1.49835e-21
3.79133e-05
-5.20221e-18
-7.75122e-21
-7.68164e-19
-1.53728e-21
3.88967e-05
-5.17848e-18
-7.75528e-21
-7.80905e-19
-1.5661e-21
3.99007e-05
-5.15676e-18
-7.75653e-21
-7.89838e-19
-1.58818e-21
4.09258e-05
-5.13859e-18
-7.75363e-21
-7.98373e-19
-1.60633e-21
4.19724e-05
-5.1254e-18
-7.7463e-21
-8.02665e-19
-1.61651e-21
4.3041e-05
-5.10127e-18
-7.73296e-21
-8.11616e-19
-1.62083e-21
4.41322e-05
-5.09539e-18
-7.71488e-21
-8.13189e-19
-1.6226e-21
4.52463e-05
-5.07702e-18
-7.69128e-21
-8.18825e-19
-1.6279e-21
4.63839e-05
-5.06432e-18
-7.66968e-21
-8.28492e-19
-1.6204e-21
4.75456e-05
-5.03972e-18
-7.64806e-21
-8.39134e-19
-1.60167e-21
4.87318e-05
-5.02672e-18
-7.62767e-21
-8.45066e-19
-1.57811e-21
4.9943e-05
-4.99913e-18
-7.59738e-21
-8.57972e-19
-1.55865e-21
5.11799e-05
-4.98331e-18
-7.5753e-21
-8.69834e-19
-1.52653e-21
5.2443e-05
-4.95646e-18
-7.5429e-21
-8.82642e-19
-1.4838e-21
5.37329e-05
-4.94211e-18
-7.51216e-21
-8.88072e-19
-1.43115e-21
5.505e-05
-4.9209e-18
-7.46237e-21
-8.96855e-19
-1.38147e-21
5.63951e-05
-4.8942e-18
-7.40492e-21
-9.07489e-19
-1.34086e-21
5.77688e-05
-4.8715e-18
-7.34377e-21
-9.26006e-19
-1.3046e-21
5.91716e-05
-4.83774e-18
-7.26863e-21
-9.38758e-19
-1.2618e-21
6.06041e-05
-4.80476e-18
-7.19854e-21
-9.57939e-19
-1.2028e-21
6.20671e-05
-4.76849e-18
-7.12926e-21
-9.80494e-19
-1.13977e-21
6.35612e-05
-4.72166e-18
-7.06492e-21
-9.98778e-19
-1.05728e-21
6.50871e-05
-4.69491e-18
-7.03621e-21
-1.0166e-18
-9.53282e-22
6.66453e-05
-4.68019e-18
-7.00195e-21
-1.01901e-18
-8.57878e-22
6.82367e-05
-4.67012e-18
-6.94676e-21
-1.0348e-18
-7.72011e-22
6.9862e-05
-4.63868e-18
-6.86513e-21
-1.04726e-18
-6.52971e-22
7.15218e-05
-4.59032e-18
-6.80362e-21
-1.08016e-18
-5.04362e-22
7.32169e-05
-4.5555e-18
-6.77064e-21
-1.10895e-18
-3.11453e-22
7.49481e-05
-4.51841e-18
-6.77597e-21
-1.1314e-18
-6.89808e-23
7.67161e-05
-4.51333e-18
-6.78425e-21
-1.11899e-18
2.08874e-22
7.85217e-05
-4.5081e-18
-6.7716e-21
-1.13926e-18
4.741e-22
8.03657e-05
-4.4856e-18
-6.74329e-21
-1.1481e-18
8.09145e-22
8.2249e-05
-4.47547e-18
-6.71245e-21
-1.1482e-18
1.20463e-21
8.41724e-05
-4.4536e-18
-6.68974e-21
-1.14139e-18
1.58847e-21
8.61367e-05
-4.43612e-18
-6.66049e-21
-1.13554e-18
1.92883e-21
8.81427e-05
-4.3887e-18
-6.60253e-21
-1.1467e-18
2.2525e-21
9.01915e-05
-4.37255e-18
-6.58762e-21
-1.14573e-18
2.60613e-21
9.22839e-05
-4.34703e-18
-6.57031e-21
-1.16337e-18
2.93454e-21
9.44207e-05
-4.3327e-18
-6.55186e-21
-1.17443e-18
3.21087e-21
9.6603e-05
-4.31078e-18
-6.4864e-21
-1.17998e-18
3.41879e-21
9.88318e-05
-4.28272e-18
-6.36025e-21
-1.19538e-18
3.54839e-21
0.000101108
-4.24236e-18
-6.25859e-21
-1.18971e-18
3.63853e-21
0.000103432
-4.21235e-18
-6.21717e-21
-1.22527e-18
3.64212e-21
0.000105806
-4.19101e-18
-6.19852e-21
-1.25486e-18
3.66187e-21
0.000108231
-4.15755e-18
-6.20899e-21
-1.252e-18
3.69628e-21
0.000110707
-4.09902e-18
-6.21934e-21
-1.29412e-18
3.68495e-21
0.000113235
-4.06477e-18
-6.30993e-21
-1.31979e-18
3.67618e-21
0.000115817
-4.06342e-18
-6.46711e-21
-1.33777e-18
3.64315e-21
0.000118454
-4.03766e-18
-6.51502e-21
-1.37317e-18
3.51817e-21
0.000121148
-4.00459e-18
-6.5987e-21
-1.4105e-18
3.36249e-21
0.000123898
-3.99307e-18
-6.67364e-21
-1.46963e-18
3.18513e-21
0.000126706
-3.94777e-18
-6.66513e-21
-1.49459e-18
3.08812e-21
0.000129575
-3.90183e-18
-6.73459e-21
-1.53544e-18
3.07031e-21
0.000132504
-3.86573e-18
-6.8128e-21
-1.55045e-18
3.09185e-21
0.000135495
-3.88481e-18
-6.89183e-21
-1.58184e-18
3.08641e-21
0.000138549
-3.81072e-18
-6.71735e-21
-1.58974e-18
3.12611e-21
0.000141668
-3.76939e-18
-6.82207e-21
-1.64547e-18
3.0938e-21
0.000144854
-3.74389e-18
-6.96451e-21
-1.66105e-18
3.19964e-21
0.000148107
-3.70134e-18
-7.0927e-21
-1.69771e-18
3.23637e-21
0.000151428
-3.66374e-18
-7.31859e-21
-1.72902e-18
3.21012e-21
0.00015482
-3.63125e-18
-7.52881e-21
-1.76425e-18
3.02573e-21
0.000158284
-3.60855e-18
-7.81643e-21
-1.765e-18
2.90351e-21
0.00016182
-3.56237e-18
-7.97342e-21
-1.79696e-18
2.46529e-21
0.000165432
-3.523e-18
-8.16911e-21
-1.82481e-18
2.04088e-21
0.00016912
-3.48192e-18
-8.60046e-21
-1.85751e-18
1.80494e-21
0.000172886
-3.45376e-18
-8.94602e-21
-1.8545e-18
1.53331e-21
0.000176731
-3.41556e-18
-9.40775e-21
-1.84647e-18
8.20502e-22
0.000180657
-3.40966e-18
-1.00502e-20
-1.84329e-18
-1.44894e-22
0.000184667
-3.34628e-18
-1.04999e-20
-1.83948e-18
-1.42214e-21
0.00018876
-3.32464e-18
-1.1211e-20
-1.87509e-18
-2.64111e-21
0.00019294
-3.26194e-18
-1.17874e-20
-1.87049e-18
-3.57232e-21
0.000197208
-3.22206e-18
-1.2388e-20
-1.87045e-18
-4.79361e-21
0.000201566
-3.18143e-18
-1.28135e-20
-1.90017e-18
-6.0616e-21
0.000206015
-3.1147e-18
-1.31187e-20
-1.91253e-18
-7.20161e-21
0.000210558
-3.10273e-18
-1.38183e-20
-1.937e-18
-8.5053e-21
0.000215196
-3.04272e-18
-1.41319e-20
-1.95371e-18
-9.63859e-21
0.000219932
-3.01315e-18
-1.46534e-20
-1.93322e-18
-1.05408e-20
0.000224767
-2.94517e-18
-1.51679e-20
-1.9859e-18
-1.13726e-20
0.000229703
-2.92413e-18
-1.56517e-20
-1.94646e-18
-1.17442e-20
0.000234743
-2.87606e-18
-1.57228e-20
-1.95593e-18
-1.26153e-20
0.000239888
-2.86229e-18
-1.60977e-20
-1.93283e-18
-1.32958e-20
0.000245141
-2.83659e-18
-1.61994e-20
-1.97031e-18
-1.47574e-20
0.000250504
-2.69301e-18
-1.57951e-20
-2.0053e-18
-1.60766e-20
0.000255979
-2.68723e-18
-1.64624e-20
-2.01855e-18
-1.69985e-20
0.000261568
-2.65776e-18
-1.67151e-20
-2.09878e-18
-1.7001e-20
0.000267274
-2.62763e-18
-1.67744e-20
-2.10767e-18
-1.66162e-20
0.000273098
-2.55884e-18
-1.62273e-20
-2.1361e-18
-1.74587e-20
0.000279044
-2.50835e-18
-1.63484e-20
-2.23255e-18
-1.84058e-20
0.000285114
-2.53677e-18
-1.82114e-20
-2.19833e-18
-1.79231e-20
0.00029131
-2.46132e-18
-1.8082e-20
-2.22181e-18
-1.86158e-20
0.000297634
-2.42838e-18
-1.8499e-20
-2.2484e-18
-1.98873e-20
0.00030409
-2.41443e-18
-1.89483e-20
-2.22911e-18
-2.04922e-20
0.00031068
-2.3831e-18
-1.91902e-20
-2.23972e-18
-2.13788e-20
0.000317405
-2.36019e-18
-1.9448e-20
-2.2348e-18
-2.28011e-20
0.00032427
-2.32266e-18
-1.94221e-20
-2.23164e-18
-2.26472e-20
0.000331277
-2.30433e-18
-1.96454e-20
-2.27045e-18
-2.33432e-20
0.000338429
-2.28519e-18
-1.95555e-20
-2.22383e-18
-2.2795e-20
0.000345727
-2.25803e-18
-1.88268e-20
-2.2515e-18
-2.35434e-20
0.000353176
-2.27138e-18
-2.06527e-20
-2.15803e-18
-2.25823e-20
0.000360778
-2.25181e-18
-2.2694e-20
-2.18134e-18
-2.46682e-20
0.000368536
-2.18688e-18
-2.33602e-20
-2.14702e-18
-2.58517e-20
0.000376453
-2.16696e-18
-2.54156e-20
-2.13353e-18
-2.67954e-20
0.000384532
-2.14287e-18
-2.63691e-20
-2.06825e-18
-2.81887e-20
0.000392777
-2.08762e-18
-2.68642e-20
-2.05472e-18
-2.76458e-20
0.000401189
-2.02713e-18
-2.61337e-20
-2.03602e-18
-2.79983e-20
0.000409772
-1.94879e-18
-2.70645e-20
-1.92688e-18
-2.68478e-20
0.000418531
-1.90534e-18
-3.18434e-20
-1.8994e-18
-2.42725e-20
0.000427466
-1.91366e-18
-3.35343e-20
-1.8239e-18
-2.39616e-20
0.000436583
-1.86729e-18
-3.28717e-20
-1.8026e-18
-2.50023e-20
0.000445884
-1.81949e-18
-3.08524e-20
-1.75977e-18
-2.66137e-20
0.000455372
-1.77429e-18
-2.91046e-20
-1.70155e-18
-2.9339e-20
0.000465052
-1.72828e-18
-2.84684e-20
-1.65119e-18
-3.25672e-20
0.000474925
-1.70559e-18
-2.72088e-20
-1.62831e-18
-3.69835e-20
0.000484996
-1.54614e-18
-2.75276e-20
-1.65735e-18
-3.66405e-20
0.000495269
-1.66905e-18
-3.0066e-20
-1.71243e-18
-3.44872e-20
0.000505746
-1.58691e-18
-2.99099e-20
-1.70375e-18
-3.0996e-20
0.00051643
-1.62056e-18
-3.02337e-20
-1.72179e-18
-3.12186e-20
0.000527327
-1.65043e-18
-3.07066e-20
-1.62292e-18
-3.13877e-20
0.000538438
-1.60313e-18
-2.96517e-20
-1.51804e-18
-2.62138e-20
0.000549767
-1.61664e-18
-2.57766e-20
-1.59364e-18
-2.43131e-20
0.000561319
-1.70634e-18
-2.39199e-20
-1.57252e-18
-2.09006e-20
0.000573095
-1.74271e-18
-2.28405e-20
-1.57508e-18
-2.22312e-20
0.000585101
-1.45591e-18
-1.87456e-20
-1.577e-18
-2.56714e-20
0.000597338
-1.46826e-18
-2.54832e-20
-1.54634e-18
-3.09523e-20
0.000609811
-1.55355e-18
-3.14768e-20
-1.45303e-18
-3.9216e-20
0.000622523
-1.57332e-18
-3.3582e-20
-1.40773e-18
-4.7917e-20
0.000635477
-1.55995e-18
-2.90449e-20
-1.36767e-18
-4.81009e-20
0.000648676
-1.37241e-18
-2.52134e-20
-1.56347e-18
-5.21449e-20
0.000662123
-1.35424e-18
-3.35503e-20
-1.47157e-18
-4.72738e-20
0.000675821
-1.26284e-18
-3.90069e-20
-1.48287e-18
-5.00133e-20
0.000689773
-1.46175e-18
-5.5943e-20
-1.48408e-18
-4.07427e-20
0.000703982
-1.29805e-18
-5.86577e-20
-1.48258e-18
-3.18446e-20
0.000718449
-1.23557e-18
-5.39549e-20
-1.3614e-18
-1.98773e-20
0.000733178
-1.13491e-18
-4.8952e-20
-1.35473e-18
-1.02226e-20
0.00074817
-1.21297e-18
-4.59707e-20
-1.29699e-18
-6.68328e-21
0.000763427
-1.33249e-18
-4.7387e-20
-1.29657e-18
-4.47148e-21
0.00077895
-1.13941e-18
-3.48565e-20
-1.46686e-18
-6.26698e-21
0.00079474
-1.21357e-18
-4.22609e-20
-1.24171e-18
-1.8815e-21
0.000810798
-1.31324e-18
-4.49176e-20
-1.30063e-18
-8.08842e-21
0.000827123
-1.23132e-18
-3.34509e-20
-1.30878e-18
-3.04117e-21
0.000843716
-1.35159e-18
-3.95925e-20
-1.26975e-18
-1.48184e-21
0.000860574
-1.21076e-18
-4.44678e-20
-1.29898e-18
-9.30729e-21
0.000877697
-1.37052e-18
-5.04104e-20
-1.04321e-18
-5.201e-21
0.000895081
-1.55295e-18
-4.85971e-20
-1.05924e-18
-4.75166e-21
0.000912723
-1.21961e-18
-1.66848e-20
-1.16963e-18
-1.3215e-20
0.000930618
-1.11118e-18
-1.51432e-20
-1.13547e-18
-1.49595e-20
0.000948763
-1.0425e-18
-1.32274e-20
-1.06157e-18
-7.81015e-21
0.000967149
-9.57747e-19
-1.55422e-20
-1.05703e-18
3.23674e-21
0.000985771
-1.00883e-18
-2.51181e-20
-9.71554e-19
3.27475e-21
0.00100462
-9.67213e-19
-7.59308e-21
-9.56556e-19
1.13844e-20
0.00102368
-9.06245e-19
4.34141e-21
-8.332e-19
2.52881e-20
0.00104296
1.2645e-20
-7.30673e-19
1.12356e-20
-9.66875e-19
2.0389e-08
-1.57898e-22
3.13495e-24
6.26887e-08
-2.73483e-22
4.41304e-23
1.07349e-07
-3.95441e-22
7.98669e-23
1.54474e-07
-5.01504e-22
1.47214e-22
2.04168e-07
-6.45544e-22
1.8684e-22
2.56545e-07
-8.32372e-22
2.67955e-22
3.11718e-07
-8.98558e-22
3.55183e-22
3.69809e-07
-1.20409e-21
4.8077e-22
4.30942e-07
-1.30784e-21
4.76822e-22
4.95247e-07
-1.76256e-21
6.51109e-22
5.62859e-07
-2.05039e-21
7.60553e-22
6.33918e-07
-2.45346e-21
7.95625e-22
7.08569e-07
-2.99465e-21
9.80502e-22
7.86964e-07
-3.49252e-21
1.07171e-21
8.6926e-07
-3.94385e-21
1.17309e-21
9.5562e-07
-4.44129e-21
1.60284e-21
1.04621e-06
-4.99797e-21
2.01552e-21
1.14121e-06
-5.60068e-21
2.04537e-21
1.2408e-06
-6.23958e-21
2.11781e-21
1.34517e-06
-7.02993e-21
2.62402e-21
1.45451e-06
-7.83521e-21
2.89648e-21
1.56902e-06
-8.91881e-21
3.24333e-21
1.68891e-06
-9.89295e-21
3.43945e-21
1.81439e-06
-1.1199e-20
4.0276e-21
1.94568e-06
-1.13508e-20
3.29067e-21
2.08301e-06
-1.24678e-20
2.96695e-21
2.2266e-06
-1.32438e-20
2.70564e-21
2.37669e-06
-1.40121e-20
2.29232e-21
2.53352e-06
-1.49876e-20
2.08425e-21
2.69732e-06
-1.6474e-20
2.26485e-21
2.86833e-06
-1.80697e-20
2.7638e-21
3.04679e-06
-2.0081e-20
3.58701e-21
3.23295e-06
-2.16026e-20
3.39149e-21
3.42703e-06
-2.32173e-20
4.13586e-21
3.62927e-06
-2.50179e-20
4.45889e-21
3.83988e-06
-2.59776e-20
4.24224e-21
4.05908e-06
-2.70352e-20
4.93161e-21
4.28706e-06
-2.84203e-20
4.84881e-21
4.524e-06
-3.07977e-20
5.25801e-21
4.77008e-06
-3.26493e-20
6.37796e-21
5.02543e-06
-3.43146e-20
5.08776e-21
5.29019e-06
-3.64058e-20
3.94832e-21
5.56446e-06
-3.83675e-20
2.60196e-21
5.84833e-06
-4.06649e-20
2.80673e-21
6.14184e-06
-4.49274e-20
4.157e-21
6.44505e-06
-5.01657e-20
5.38867e-21
6.75798e-06
-5.44558e-20
6.24395e-21
7.08062e-06
-5.69246e-20
6.21193e-21
7.41296e-06
-6.14754e-20
6.00047e-21
7.75498e-06
-6.55472e-20
7.01347e-21
8.10665e-06
-6.82795e-20
5.34455e-21
8.46792e-06
-7.11718e-20
4.00081e-21
8.83875e-06
-7.25077e-20
3.15429e-21
9.2191e-06
-7.50178e-20
2.16099e-21
9.60895e-06
-7.66899e-20
1.55103e-22
1.00082e-05
-7.86524e-20
-2.10484e-22
1.0417e-05
-8.10051e-20
-1.08605e-21
1.08352e-05
-8.49236e-20
-1.58417e-22
1.12628e-05
-8.72987e-20
-5.64912e-22
1.16999e-05
-9.15836e-20
-1.49456e-21
1.21465e-05
-9.37535e-20
-4.03987e-21
1.26026e-05
-9.59043e-20
-3.33679e-21
1.30684e-05
-1.01222e-19
-3.62658e-21
1.35439e-05
-1.04959e-19
-6.26751e-21
1.40292e-05
-1.07993e-19
-8.52441e-21
1.45244e-05
-1.1148e-19
-1.16745e-20
1.50297e-05
-1.14598e-19
-1.45549e-20
1.55452e-05
-1.16208e-19
-1.60761e-20
1.60711e-05
-1.21904e-19
-1.99042e-20
1.66076e-05
-1.2421e-19
-2.20175e-20
1.71548e-05
-1.28413e-19
-2.19694e-20
1.7713e-05
-1.31879e-19
-2.43732e-20
1.82823e-05
-1.39682e-19
-2.19689e-20
1.88629e-05
-1.45298e-19
-2.22268e-20
1.94552e-05
-1.47919e-19
-2.13301e-20
2.00594e-05
-1.51201e-19
-2.15877e-20
2.06756e-05
-1.49633e-19
-2.83808e-20
2.13043e-05
-1.58082e-19
-3.09791e-20
2.19455e-05
-1.62598e-19
-3.43885e-20
2.25997e-05
-1.66981e-19
-3.85198e-20
2.32671e-05
-1.71022e-19
-4.18545e-20
2.3948e-05
-1.73318e-19
-3.69712e-20
2.46427e-05
-1.78442e-19
-3.76143e-20
2.53515e-05
-1.83691e-19
-4.10179e-20
2.60748e-05
-1.90196e-19
-4.54234e-20
2.68128e-05
-1.94495e-19
-5.16344e-20
2.75659e-05
-1.94931e-19
-4.83355e-20
2.83344e-05
-1.96108e-19
-5.45323e-20
2.91188e-05
-2.02124e-19
-5.27924e-20
2.99193e-05
-2.10561e-19
-5.53217e-20
3.07363e-05
-2.14095e-19
-5.88273e-20
3.15702e-05
-2.21727e-19
-6.58511e-20
3.24213e-05
-2.32746e-19
-6.53487e-20
3.32902e-05
-2.3626e-19
-7.02271e-20
3.4177e-05
-2.4077e-19
-6.95426e-20
3.50824e-05
-2.44403e-19
-7.45911e-20
3.60066e-05
-2.47454e-19
-8.23438e-20
3.69501e-05
-2.61287e-19
-8.1909e-20
3.79133e-05
-2.68476e-19
-8.19888e-20
3.88967e-05
-2.72016e-19
-8.66438e-20
3.99007e-05
-2.73478e-19
-9.21128e-20
4.09258e-05
-2.76763e-19
-9.65452e-20
4.19724e-05
-2.7898e-19
-1.00726e-19
4.3041e-05
-2.70627e-19
-1.07795e-19
4.41322e-05
-2.77024e-19
-1.18854e-19
4.52463e-05
-2.82456e-19
-1.1369e-19
4.63839e-05
-2.91938e-19
-1.07692e-19
4.75456e-05
-2.95133e-19
-1.06773e-19
4.87318e-05
-3.01366e-19
-1.19497e-19
4.9943e-05
-3.18115e-19
-1.19009e-19
5.11799e-05
-3.20325e-19
-1.1424e-19
5.2443e-05
-3.22003e-19
-1.11665e-19
5.37329e-05
-3.14372e-19
-1.1518e-19
5.505e-05
-3.19549e-19
-1.20676e-19
5.63951e-05
-3.23125e-19
-1.25229e-19
5.77688e-05
-3.15825e-19
-1.30771e-19
5.91716e-05
-3.1738e-19
-1.25659e-19
6.06041e-05
-3.2217e-19
-1.43794e-19
6.20671e-05
-3.26365e-19
-1.51809e-19
6.35612e-05
-3.37306e-19
-1.51134e-19
6.50871e-05
-3.32123e-19
-1.66791e-19
6.66453e-05
-3.32403e-19
-1.71018e-19
6.82367e-05
-3.32587e-19
-1.66307e-19
6.9862e-05
-3.43161e-19
-1.66921e-19
7.15218e-05
-3.37201e-19
-1.79332e-19
7.32169e-05
-3.45837e-19
-1.88731e-19
7.49481e-05
-3.27262e-19
-2.00292e-19
7.67161e-05
-3.31203e-19
-2.01116e-19
7.85217e-05
-3.36988e-19
-2.00382e-19
8.03657e-05
-3.28126e-19
-2.06033e-19
8.2249e-05
-3.41891e-19
-2.1849e-19
8.41724e-05
-3.42431e-19
-2.22033e-19
8.61367e-05
-3.39908e-19
-2.22627e-19
8.81427e-05
-3.51137e-19
-2.25964e-19
9.01915e-05
-3.73654e-19
-2.23204e-19
9.22839e-05
-3.89548e-19
-2.29232e-19
9.44207e-05
-3.96335e-19
-2.36242e-19
9.6603e-05
-3.82579e-19
-2.47956e-19
9.88318e-05
-3.92792e-19
-2.4894e-19
0.000101108
-4.05045e-19
-2.40781e-19
0.000103432
-4.04917e-19
-2.378e-19
0.000105806
-4.11396e-19
-2.38565e-19
0.000108231
-3.99042e-19
-2.22648e-19
0.000110707
-3.93891e-19
-2.26743e-19
0.000113235
-4.10088e-19
-2.28362e-19
0.000115817
-4.06098e-19
-2.4415e-19
0.000118454
-4.27934e-19
-2.52456e-19
0.000121148
-4.2797e-19
-2.63992e-19
0.000123898
-4.32016e-19
-2.83006e-19
0.000126706
-4.55403e-19
-2.82183e-19
0.000129575
-4.51189e-19
-2.86629e-19
0.000132504
-4.44299e-19
-2.63877e-19
0.000135495
-4.22351e-19
-2.45372e-19
0.000138549
-4.34597e-19
-2.51507e-19
0.000141668
-4.25427e-19
-2.59831e-19
0.000144854
-4.3643e-19
-2.5193e-19
0.000148107
-4.48809e-19
-2.42741e-19
0.000151428
-4.3424e-19
-2.6397e-19
0.00015482
-4.47755e-19
-2.6676e-19
0.000158284
-4.2795e-19
-2.94884e-19
0.00016182
-4.14228e-19
-2.82204e-19
0.000165432
-4.37746e-19
-2.57623e-19
0.00016912
-4.03138e-19
-2.54938e-19
0.000172886
-4.19928e-19
-2.77625e-19
0.000176731
-4.38508e-19
-2.69298e-19
0.000180657
-4.41887e-19
-2.78358e-19
0.000184667
-4.64533e-19
-2.82727e-19
0.00018876
-4.66906e-19
-3.04646e-19
0.00019294
-4.54342e-19
-3.27759e-19
0.000197208
-4.32627e-19
-3.29406e-19
0.000201566
-4.24431e-19
-3.45925e-19
0.000206015
-4.63385e-19
-3.58101e-19
0.000210558
-4.44638e-19
-3.54374e-19
0.000215196
-4.55753e-19
-3.61297e-19
0.000219932
-4.8979e-19
-3.51867e-19
0.000224767
-4.87743e-19
-3.6674e-19
0.000229703
-4.87384e-19
-3.98435e-19
0.000234743
-5.20064e-19
-3.94164e-19
0.000239888
-5.34478e-19
-4.26381e-19
0.000245141
-5.31588e-19
-4.23758e-19
0.000250504
-5.49983e-19
-4.06088e-19
0.000255979
-5.67228e-19
-3.5571e-19
0.000261568
-5.74721e-19
-3.93988e-19
0.000267274
-5.27903e-19
-4.29599e-19
0.000273098
-5.20678e-19
-4.33226e-19
0.000279044
-6.06443e-19
-4.30579e-19
0.000285114
-5.17743e-19
-4.58618e-19
0.00029131
-5.19402e-19
-5.02279e-19
0.000297634
-5.13704e-19
-5.24542e-19
0.00030409
-5.22021e-19
-5.70591e-19
0.00031068
-5.34069e-19
-6.37462e-19
0.000317405
-5.34294e-19
-5.54708e-19
0.00032427
-5.47505e-19
-6.04316e-19
0.000331277
-5.43981e-19
-5.56728e-19
0.000338429
-5.24626e-19
-5.7366e-19
0.000345727
-6.40604e-19
-5.18373e-19
0.000353176
-6.52524e-19
-5.73423e-19
0.000360778
-5.7081e-19
-5.32398e-19
0.000368536
-5.99255e-19
-4.8686e-19
0.000376453
-5.78842e-19
-5.48556e-19
0.000384532
-6.11174e-19
-4.75585e-19
0.000392777
-5.78579e-19
-5.29082e-19
0.000401189
-6.36227e-19
-5.1023e-19
0.000409772
-7.56122e-19
-4.59166e-19
0.000418531
-6.56312e-19
-6.20937e-19
0.000427466
-6.39814e-19
-6.34957e-19
0.000436583
-6.05139e-19
-6.47142e-19
0.000445884
-6.30892e-19
-6.78498e-19
0.000455372
-6.80908e-19
-6.94001e-19
0.000465052
-6.75928e-19
-7.84631e-19
0.000474925
-7.68777e-19
-7.08007e-19
0.000484996
-7.54465e-19
-7.17984e-19
0.000495269
-8.31093e-19
-7.28527e-19
0.000505746
-7.2885e-19
-7.6555e-19
0.00051643
-7.42726e-19
-7.72318e-19
0.000527327
-7.26692e-19
-6.30968e-19
0.000538438
-6.41526e-19
-6.44552e-19
0.000549767
-7.02772e-19
-6.77743e-19
0.000561319
-7.52519e-19
-7.64801e-19
0.000573095
-7.1745e-19
-7.44638e-19
0.000585101
-6.83167e-19
-7.67876e-19
0.000597338
-7.16427e-19
-8.91678e-19
0.000609811
-7.7873e-19
-8.51641e-19
0.000622523
-7.25078e-19
-6.4589e-19
0.000635477
-7.55454e-19
-7.04188e-19
0.000648676
-7.83044e-19
-7.12404e-19
0.000662123
-7.03654e-19
-7.6793e-19
0.000675821
-7.73463e-19
-6.3557e-19
0.000689773
-7.4713e-19
-5.95357e-19
0.000703982
-5.18168e-19
-5.74176e-19
0.000718449
-4.89966e-19
-5.63815e-19
0.000733178
-4.12291e-19
-6.06166e-19
0.00074817
-5.48486e-19
-5.07408e-19
0.000763427
-4.69672e-19
-5.01114e-19
0.00077895
-4.64015e-19
-5.29106e-19
0.00079474
-4.90364e-19
-4.78395e-19
0.000810798
-5.11067e-19
-5.54133e-19
0.000827123
-6.40187e-19
-6.63409e-19
0.000843716
-7.4482e-19
-6.87003e-19
0.000860574
-6.68551e-19
-6.61982e-19
0.000877697
-7.98672e-19
-6.10872e-19
0.000895081
-7.19836e-19
-7.47446e-19
0.000912723
-7.13935e-19
-7.59629e-19
0.000930618
-7.10934e-19
-7.52155e-19
0.000948763
-7.72087e-19
-7.4938e-19
0.000967149
-7.90381e-19
-8.13503e-19
0.000985771
-6.42873e-19
-6.19793e-19
0.00100462
-6.15737e-19
-5.48435e-19
0.00102368
-5.42326e-19
-5.90168e-19
0.00104296
-7.01862e-19
-7.34641e-19
0.00104296
-8.56672e-19
-2.28961e-20
-8.81449e-19
-1.08117e-21
0.00102368
-7.48847e-19
-5.13686e-21
-8.22163e-19
-7.43634e-21
0.00100462
-6.64971e-19
2.36523e-21
-6.08893e-19
3.51264e-21
0.000985771
-6.58333e-19
-8.97386e-21
-5.3046e-19
1.47733e-20
0.000967149
-6.71269e-19
-1.18153e-20
-4.91883e-19
1.63406e-20
0.000948763
-5.39646e-19
-1.85689e-20
-4.97034e-19
6.93058e-21
0.000930618
-4.63216e-19
-3.44101e-20
-5.1057e-19
-1.79248e-21
0.000912723
-4.68554e-19
-3.45231e-20
-5.01883e-19
-4.48404e-21
0.000895081
-4.06422e-19
-2.67543e-20
-5.11655e-19
-1.05775e-20
0.000877697
-5.49981e-19
-3.11267e-20
-5.06863e-19
-2.14482e-20
0.000860574
-5.68875e-19
-1.92842e-20
-5.21153e-19
-2.03623e-20
0.000843716
-5.4705e-19
-2.64201e-20
-5.48359e-19
-2.02676e-20
0.000827123
-5.22157e-19
-1.30255e-20
-5.37637e-19
-1.02764e-20
0.000810798
-5.75248e-19
-8.80971e-21
-5.23111e-19
-8.72521e-21
0.00079474
-5.48764e-19
-5.47459e-21
-5.31402e-19
-1.39768e-20
0.00077895
-4.57779e-19
-5.31628e-21
-4.99676e-19
-7.87437e-21
0.000763427
-4.15934e-19
-3.1224e-21
-4.7184e-19
-3.81319e-21
0.00074817
-3.75876e-19
-3.81662e-21
-3.49089e-19
4.01514e-21
0.000733178
-4.10685e-19
-6.085e-21
-3.82957e-19
7.56425e-21
0.000718449
-3.82105e-19
8.91138e-22
-3.30887e-19
6.36407e-21
0.000703982
-4.91012e-19
3.68288e-22
-3.89475e-19
-4.51089e-21
0.000689773
-3.04831e-19
1.00749e-20
-3.59835e-19
-1.09467e-20
0.000675821
-1.96719e-19
1.16227e-20
-3.26805e-19
-1.61427e-20
0.000662123
-2.61131e-19
6.87907e-21
-2.10715e-19
-1.14912e-20
0.000648676
-2.258e-19
-1.52562e-22
-2.80039e-19
-8.71247e-21
0.000635477
-2.5279e-19
-2.2056e-21
-2.44062e-19
1.97595e-21
0.000622523
-2.48759e-19
1.46209e-21
-2.89963e-19
2.85705e-21
0.000609811
-1.55219e-19
6.48784e-21
-2.96048e-19
4.09398e-21
0.000597338
-2.13956e-19
4.61901e-21
-2.16944e-19
7.49755e-21
0.000585101
-2.24805e-19
1.02348e-21
-2.28988e-19
6.53233e-21
0.000573095
-2.14984e-19
-4.16614e-21
-2.13845e-19
8.18133e-21
0.000561319
-1.83586e-19
-1.44502e-21
-2.39203e-19
8.1805e-21
0.000549767
-1.83741e-19
-2.57722e-21
-2.6592e-19
1.10184e-20
0.000538438
-2.98266e-19
-7.54551e-21
-3.57646e-19
1.29863e-20
0.000527327
-3.47801e-19
-5.03924e-21
-2.92487e-19
1.61267e-20
0.00051643
-3.40069e-19
5.97944e-22
-3.09631e-19
1.48971e-20
0.000505746
-2.32479e-19
-1.0516e-21
-2.94369e-19
1.42825e-20
0.000495269
-2.88641e-19
-1.07472e-21
-2.3803e-19
1.42466e-20
0.000484996
-2.50849e-19
1.07662e-21
-2.72494e-19
1.1452e-20
0.000474925
-2.11827e-19
7.11835e-22
-2.20591e-19
9.21281e-21
0.000465052
-2.13583e-19
3.94964e-22
-2.64205e-19
5.53321e-21
0.000455372
-1.81755e-19
2.58164e-21
-2.45923e-19
1.62583e-21
0.000445884
-2.13368e-19
4.33423e-21
-1.96213e-19
-1.32333e-21
0.000436583
-2.02651e-19
7.5631e-21
-2.22768e-19
-4.89073e-21
0.000427466
-1.90098e-19
9.13909e-21
-2.1278e-19
-3.14619e-21
0.000418531
-1.52208e-19
9.16784e-21
-2.37813e-19
-2.32705e-21
0.000409772
-9.63745e-20
7.37332e-21
-2.68748e-19
-2.52605e-21
0.000401189
-1.66137e-19
3.14572e-21
-1.97596e-19
1.25658e-21
0.000392777
-1.32802e-19
2.3518e-21
-2.29914e-19
1.83684e-21
0.000384532
-1.47896e-19
-5.57435e-22
-2.70209e-19
2.06723e-21
0.000376453
-1.00574e-19
-1.51957e-21
-2.81462e-19
3.87917e-21
0.000368536
-1.75956e-19
-2.35766e-21
-2.13308e-19
5.26122e-21
0.000360778
-2.01478e-19
-2.12066e-21
-1.4626e-19
4.88151e-21
0.000353176
-2.69064e-19
1.5144e-22
-8.45553e-20
2.57997e-21
0.000345727
-2.02541e-19
2.97511e-21
-1.25771e-19
-8.77423e-22
0.000338429
-1.61911e-19
4.27824e-21
-1.46273e-19
-1.91934e-21
0.000331277
-9.38298e-20
5.74691e-21
-6.75063e-20
-1.94655e-21
0.00032427
-1.20808e-19
5.83479e-21
-4.7858e-20
-2.55967e-21
0.000317405
-1.13124e-19
5.66973e-21
-7.45766e-20
-1.65214e-21
0.000310679
-1.27298e-19
5.32477e-21
-5.93661e-20
-1.00267e-21
0.00030409
-1.30171e-19
5.10296e-21
-9.55633e-20
-6.9838e-22
0.000297634
-1.22529e-19
5.90255e-21
-1.27994e-19
-3.68804e-22
0.00029131
-1.02717e-19
5.77398e-21
-1.31303e-19
-2.17789e-23
0.000285114
-1.0917e-19
4.80081e-21