/*--------------------------------*- C++ -*----------------------------------*\
| =========                 |                                                 |
| \\      /  F ield         | OpenFOAM: The Open Source CFD Toolbox           |
|  \\    /   O peration     | Version:  2106                                  |
|   \\  /    A nd           | Website:  www.openfoam.com                      |
|    \\/     M anipulation  |                                                 |
\*---------------------------------------------------------------------------*/
FoamFile
{
    version     2.0;
    format      ascii;
    arch        "LSB;label=32;scalar=64";
    class       volVectorField;
    location    "10090";
    object      grad(T);
}
// * * * * * * * * * * * * * * * * * * * * * * * * * * * * * * * * * * * * * //

dimensions      [0 -1 0 1 0 0 0];

internalField   nonuniform List<vector> 
2000
(
(0 127.821 0.236551)
(0 127.821 0.236551)
(1.12328e-16 127.821 0.714067)
(-1.12328e-16 127.821 0.714067)
(-2.9071e-17 127.821 0.991019)
(0 127.821 0.991019)
(-9.52697e-17 127.821 1.00952)
(3.81079e-16 127.821 1.00952)
(0 127.821 1.02836)
(-4.25061e-16 127.821 1.02836)
(4.17272e-16 127.82 1.04755)
(-1.34286e-15 127.82 1.04755)
(4.09625e-16 127.82 1.0671)
(1.20549e-15 127.82 1.0671)
(0 127.819 1.08702)
(2.98123e-15 127.819 1.08702)
(-4.45266e-16 127.819 1.1073)
(0 127.819 1.1073)
(7.75033e-16 127.818 1.12797)
(0 127.818 1.12797)
(7.60831e-16 127.818 1.14902)
(0 127.818 1.14902)
(6.71334e-16 127.817 1.17046)
(1.93845e-15 127.817 1.17046)
(0 127.816 1.19229)
(0 127.816 1.19229)
(-8.29164e-16 127.815 1.21454)
(-1.43953e-15 127.815 1.21454)
(-9.10295e-16 127.813 1.2372)
(-1.41315e-15 127.813 1.2372)
(2.3802e-15 127.812 1.26028)
(-3.97176e-15 127.812 1.26028)
(0 127.811 1.28379)
(0 127.811 1.28379)
(2.32577e-15 127.809 1.30774)
(5.98842e-15 127.809 1.30774)
(-1.25024e-15 127.807 1.33213)
(0 127.807 1.33213)
(1.33923e-15 127.805 1.35697)
(5.35692e-15 127.805 1.35697)
(-1.42988e-15 127.803 1.38227)
(1.1439e-14 127.803 1.38227)
(0 127.8 1.40805)
(6.08886e-15 127.8 1.40805)
(2.4376e-15 127.797 1.4343)
(6.4651e-15 127.797 1.4343)
(0 127.794 1.46103)
(6.84835e-15 127.794 1.46103)
(-1.80969e-15 127.79 1.48826)
(0 127.79 1.48826)
(0 127.786 1.51599)
(7.63644e-15 127.786 1.51599)
(2.53396e-16 127.782 1.54423)
(0 127.782 1.54423)
(-2.11354e-15 127.777 1.57299)
(0 127.777 1.57299)
(2.18157e-15 127.771 1.60227)
(-2.18157e-15 127.771 1.60227)
(-6.60886e-15 127.764 1.63209)
(-9.30268e-15 127.764 1.63209)
(2.43471e-15 127.757 1.66245)
(9.73882e-15 127.757 1.66245)
(0 127.748 1.69336)
(-4.12766e-15 127.748 1.69336)
(1.39311e-15 127.738 1.72483)
(-4.05202e-15 127.738 1.72483)
(-2.77414e-15 127.727 1.75686)
(0 127.727 1.75686)
(0 127.714 1.78946)
(1.15661e-14 127.714 1.78946)
(0 127.699 1.82263)
(0 127.699 1.82263)
(3.13288e-15 127.681 1.85638)
(8.76844e-15 127.681 1.85638)
(-3.25693e-15 127.661 1.89072)
(1.30277e-14 127.661 1.89072)
(-3.38327e-15 127.638 1.92564)
(0 127.638 1.92564)
(0 127.612 1.96115)
(1.40479e-14 127.612 1.96115)
(-7.28608e-15 127.581 1.99725)
(1.45722e-14 127.581 1.99725)
(0 127.546 2.03393)
(6.86139e-15 127.546 2.03393)
(0 127.506 2.07119)
(0 127.506 2.07119)
(-4.05096e-15 127.459 2.10903)
(-1.62039e-14 127.459 2.10903)
(4.19198e-15 127.405 2.14743)
(1.02768e-14 127.405 2.14743)
(4.33558e-15 127.344 2.18638)
(-1.73423e-14 127.344 2.18638)
(-4.48181e-15 127.273 2.22587)
(1.79272e-14 127.273 2.22587)
(-6.14072e-15 127.192 2.26588)
(3.70457e-14 127.192 2.26588)
(1.08105e-14 127.099 2.30637)
(1.91293e-14 127.099 2.30637)
(9.81062e-16 126.992 2.34733)
(-2.56644e-14 126.992 2.34733)
(5.80929e-15 126.871 2.38871)
(0 126.871 2.38871)
(-1.09566e-14 126.733 2.43048)
(0 126.733 2.43048)
(0 126.576 2.47259)
(0 126.576 2.47259)
(0 126.398 2.51498)
(-2.2329e-14 126.398 2.51498)
(3.55811e-16 126.197 2.55758)
(-5.39504e-15 126.197 2.55758)
(-5.92238e-15 125.969 2.60034)
(0 125.969 2.60034)
(-1.21938e-14 125.713 2.64316)
(2.95866e-14 125.713 2.64316)
(-6.27434e-15 125.424 2.68597)
(0 125.424 2.68597)
(-2.88894e-15 125.101 2.72865)
(-3.58398e-14 125.101 2.72865)
(1.64753e-14 124.74 2.77111)
(-3.639e-14 124.74 2.77111)
(-9.65677e-15 124.338 2.81324)
(-9.65677e-15 124.338 2.81324)
(-2.3508e-14 123.891 2.8549)
(5.61128e-14 123.891 2.8549)
(-7.2065e-15 123.396 2.89596)
(2.8826e-14 123.396 2.89596)
(9.13556e-15 122.85 2.93629)
(0 122.85 2.93629)
(-1.65683e-14 122.248 2.97574)
(3.04005e-14 122.248 2.97574)
(0 121.589 3.01416)
(-8.80382e-15 121.589 3.01416)
(6.37232e-16 120.869 3.05141)
(-8.64249e-15 120.869 3.05141)
(0 120.086 3.08731)
(0 120.086 3.08731)
(0 119.236 3.12173)
(3.36858e-14 119.236 3.12173)
(0 118.318 3.15452)
(0 118.318 3.15452)
(-8.84811e-15 117.331 3.18552)
(3.53924e-14 117.331 3.18552)
(-1.57583e-14 116.273 3.21461)
(5.20187e-14 116.273 3.21461)
(-9.28442e-15 115.144 3.24165)
(-3.71377e-14 115.144 3.24165)
(1.5186e-14 113.943 3.26655)
(-3.80236e-14 113.943 3.26655)
(-1.94588e-14 112.673 3.28919)
(3.89177e-14 112.673 3.28919)
(-1.99097e-14 111.333 3.30949)
(0 111.333 3.30949)
(0 109.926 3.3274)
(4.0728e-14 109.926 3.3274)
(-1.04107e-14 108.455 3.34286)
(-5.5746e-14 108.455 3.34286)
(1.06409e-14 106.922 3.35585)
(0 106.922 3.35585)
(1.08723e-14 105.331 3.36637)
(-4.34891e-14 105.331 3.36637)
(4.47438e-15 103.687 3.37442)
(-2.66839e-14 103.687 3.37442)
(0 101.994 3.38003)
(0 101.994 3.38003)
(1.15722e-14 100.256 3.38326)
(-9.25777e-14 100.256 3.38326)
(1.18068e-14 98.4792 3.38416)
(0 98.4792 3.38416)
(-2.47811e-14 96.6686 3.38281)
(7.29485e-14 96.6686 3.38281)
(1.22771e-14 94.8296 3.37932)
(4.91083e-14 94.8296 3.37932)
(-1.30841e-14 92.9675 3.37376)
(0 92.9675 3.37376)
(-2.05135e-15 91.0878 3.36627)
(5.09899e-14 91.0878 3.36627)
(1.29823e-14 89.1957 3.35694)
(1.03859e-13 89.1957 3.35694)
(-1.32168e-14 87.2963 3.34591)
(0 87.2963 3.34591)
(-2.69015e-14 85.3945 3.33329)
(5.38029e-14 85.3945 3.33329)
(-1.3684e-14 83.4948 3.31922)
(5.47359e-14 83.4948 3.31922)
(0 81.6018 3.30381)
(-2.13729e-14 81.6018 3.30381)
(1.4148e-14 79.7192 3.2872)
(5.6592e-14 79.7192 3.2872)
(1.43785e-14 77.851 3.26949)
(5.75142e-14 77.851 3.26949)
(-1.4608e-14 76.0004 3.25081)
(5.8432e-14 76.0004 3.25081)
(1.48363e-14 74.1706 3.23127)
(0 74.1706 3.23127)
(-1.50633e-14 72.3641 3.21098)
(4.07681e-14 72.3641 3.21098)
(1.5289e-14 70.5835 3.19004)
(0 70.5835 3.19004)
(3.26418e-15 68.8308 3.16855)
(4.32759e-14 68.8308 3.16855)
(3.41697e-14 67.1078 3.14659)
(4.45116e-14 67.1078 3.14659)
(0 65.4161 3.12425)
(4.57352e-14 65.4161 3.12425)
(0 63.7568 3.10161)
(-8.24746e-14 63.7568 3.10161)
(0 62.131 3.07875)
(6.55841e-14 62.131 3.07875)
(-1.66129e-14 60.5396 3.05572)
(0 60.5396 3.05572)
(-1.68281e-14 58.983 3.03258)
(6.73124e-14 58.983 3.03258)
(1.64973e-14 57.4617 3.0094)
(0 57.4617 3.0094)
(0 55.976 2.98623)
(-1.6195e-14 55.976 2.98623)
(1.74642e-14 54.5259 2.9631)
(6.98568e-14 54.5259 2.9631)
(2.06608e-15 53.1115 2.94007)
(5.50851e-14 53.1115 2.94007)
(0 51.7324 2.91716)
(7.15208e-14 51.7324 2.91716)
(-3.61715e-14 50.3886 2.89441)
(7.23431e-14 50.3886 2.89441)
(1.82897e-14 49.0796 2.87185)
(7.3159e-14 49.0796 2.87185)
(0 47.805 2.8495)
(-7.39685e-14 47.805 2.8495)
(0 46.5643 2.82739)
(-2.84568e-14 46.5643 2.82739)
(-3.77843e-14 45.357 2.80554)
(0 45.357 2.80554)
(-1.90898e-14 44.1825 2.78396)
(-2.74235e-14 44.1825 2.78396)
(-2.69209e-14 43.0402 2.76266)
(-7.71437e-14 43.0402 2.76266)
(3.89611e-14 41.9293 2.74167)
(0 41.9293 2.74167)
(1.3404e-14 40.8493 2.72098)
(7.86946e-14 40.8493 2.72098)
(-1.98653e-14 39.7993 2.70061)
(7.94611e-14 39.7993 2.70061)
(4.01109e-14 38.7788 2.68057)
(0 38.7788 2.68057)
(4.47873e-14 37.7869 2.66085)
(8.09768e-14 37.7869 2.66085)
(-2.04315e-14 36.8229 2.64147)
(0 36.8229 2.64147)
(-2.36519e-14 35.8861 2.62242)
(1.6494e-13 35.8861 2.62242)
(-2.0802e-14 34.9758 2.60371)
(0 34.9758 2.60371)
(0 34.0913 2.58534)
(1.67882e-13 34.0913 2.58534)
(-2.11671e-14 33.2318 2.56731)
(0 33.2318 2.56731)
(0 32.3966 2.54961)
(8.53909e-14 32.3966 2.54961)
(-3.57259e-17 31.585 2.53225)
(1.93779e-13 31.585 2.53225)
(-2.17051e-14 30.7964 2.51522)
(8.68205e-14 30.7964 2.51522)
(1.10221e-15 30.03 2.49852)
(4.59684e-14 30.03 2.49852)
(-4.41152e-14 29.2852 2.48214)
(8.82305e-14 29.2852 2.48214)
(-4.00503e-14 28.5614 2.46609)
(1.97882e-13 28.5614 2.46609)
(0 27.8579 2.45035)
(8.96215e-14 27.8579 2.45035)
(-2.25776e-14 27.174 2.43493)
(-3.8596e-14 27.174 2.43493)
(2.27486e-14 26.5093 2.41982)
(0 26.5093 2.41982)
(0 25.8631 2.405)
(-3.71944e-14 25.8631 2.405)
(-2.30875e-14 25.2349 2.39049)
(-3.65128e-14 25.2349 2.39049)
(-2.32553e-14 24.624 2.37627)
(-1.28865e-13 24.624 2.37627)
(-2.34221e-14 24.03 2.36234)
(1.87377e-13 24.03 2.36234)
(-3.45421e-14 23.4523 2.34868)
(1.28894e-13 23.4523 2.34868)
(1.01564e-14 22.8904 2.33531)
(6.11019e-14 22.8904 2.33531)
(0 22.3439 2.3222)
(6.23788e-14 22.3439 2.3222)
(-5.67574e-14 21.8122 2.30935)
(1.28996e-13 21.8122 2.30935)
(0 21.2949 2.29676)
(9.69662e-14 21.2949 2.29676)
(-2.44026e-14 20.7916 2.28443)
(0 20.7916 2.28443)
(-5.54769e-14 20.3017 2.27233)
(3.09141e-14 20.3017 2.27233)
(-2.47221e-14 19.825 2.26048)
(0 19.825 2.26048)
(-4.91088e-15 19.3609 2.24886)
(-9.95224e-14 19.3609 2.24886)
(0 18.9091 2.23747)
(-5.84911e-14 18.9091 2.23747)
(5.74193e-14 18.4692 2.22629)
(-5.74193e-14 18.4692 2.22629)
(8.17182e-14 18.0409 2.21533)
(0 18.0409 2.21533)
(-5.31734e-14 17.6237 2.20458)
(1.29692e-13 17.6237 2.20458)
(-2.56607e-14 17.2173 2.19403)
(1.02643e-13 17.2173 2.19403)
(8.48045e-16 16.8215 2.18367)
(-2.66624e-14 16.8215 2.18367)
(0 16.4358 2.1735)
(1.03869e-13 16.4358 2.1735)
(-2.61195e-14 16.06 2.16352)
(-1.04478e-13 16.06 2.16352)
(2.6271e-14 15.6937 2.15371)
(1.05084e-13 15.6937 2.15371)
(7.59441e-14 15.3368 2.14407)
(1.05687e-13 15.3368 2.14407)
(2.65719e-14 14.9888 2.13459)
(0 14.9888 2.13459)
(0 14.6495 2.12528)
(1.06885e-13 14.6495 2.12528)
(-2.687e-14 14.3186 2.11611)
(0 14.3186 2.11611)
(0 13.996 2.10709)
(1.08072e-13 13.996 2.10709)
(-2.71655e-14 13.6812 2.09821)
(0 13.6812 2.09821)
(0 13.3742 2.08946)
(4.43209e-14 13.3742 2.08946)
(0 13.0746 2.08083)
(1.09834e-13 13.0746 2.08083)
(0 12.7823 2.07232)
(1.10416e-13 12.7823 2.07232)
(-2.77491e-14 12.497 2.06393)
(0 12.497 2.06393)
(-2.78934e-14 12.2185 2.05564)
(0 12.2185 2.05564)
(-2.80372e-14 11.9467 2.04745)
(0 11.9467 2.04745)
(1.66951e-14 11.6812 2.03936)
(1.12722e-13 11.6812 2.03936)
(-4.60302e-14 11.422 2.03135)
(1.13292e-13 11.422 2.03135)
(0 11.1688 2.02342)
(1.1386e-13 11.1688 2.02342)
(-2.86066e-14 10.9214 2.01556)
(-3.75249e-14 10.9214 2.01556)
(-2.87475e-14 10.6797 2.00777)
(0 10.6797 2.00777)
(0 10.4435 2.00003)
(0 10.4435 2.00003)
(0 10.2127 1.99234)
(1.16111e-13 10.2127 1.99234)
(-2.9167e-14 9.98707 1.9847)
(-1.16668e-13 9.98707 1.9847)
(0 9.76646 1.97709)
(0 9.76646 1.97709)
(-6.30276e-14 9.55073 1.96951)
(-2.35552e-13 9.55073 1.96951)
(-2.95818e-14 9.33973 1.96194)
(0 9.33973 1.96194)
(0 9.13333 1.95439)
(0 9.13333 1.95439)
(3.17709e-14 8.93139 1.94684)
(8.76515e-14 8.93139 1.94684)
(-5.99835e-14 8.73377 1.93928)
(2.39934e-13 8.73377 1.93928)
(0 8.54034 1.93171)
(1.20509e-13 8.54034 1.93171)
(-3.02625e-14 8.35098 1.92411)
(-3.00562e-14 8.35098 1.92411)
(0 8.16557 1.91648)
(-9.20827e-14 8.16557 1.91648)
(-3.05311e-14 7.98398 1.9088)
(0 7.98398 1.9088)
(-2.84339e-14 7.8061 1.90106)
(1.51092e-13 7.8061 1.90106)
(0 7.63181 1.89326)
(1.2319e-13 7.63181 1.89326)
(3.09301e-14 7.46101 1.88539)
(2.47441e-13 7.46101 1.88539)
(3.1062e-14 7.29358 1.87742)
(1.24248e-13 7.29358 1.87742)
(0 7.12942 1.86935)
(1.24774e-13 7.12942 1.86935)
(8.31692e-14 6.96842 1.86117)
(1.25297e-13 6.96842 1.86117)
(-8.23494e-14 6.8105 1.85286)
(2.51636e-13 6.8105 1.85286)
(-3.15843e-14 6.65553 1.84441)
(-1.26337e-13 6.65553 1.84441)
(0 6.50344 1.83581)
(0 6.50344 1.83581)
(-3.1842e-14 6.35413 1.82704)
(-4.8148e-14 6.35413 1.82704)
(-6.39401e-14 6.20749 1.81807)
(0 6.20749 1.81807)
(-3.20975e-14 6.06344 1.80891)
(1.2839e-13 6.06344 1.80891)
(4.55493e-14 5.9219 1.79953)
(-4.55493e-14 5.9219 1.79953)
(-3.23505e-14 5.78276 1.7899)
(0 5.78276 1.7899)
(-4.38952e-14 5.64595 1.78002)
(-4.38952e-14 5.64595 1.78002)
(3.2601e-14 5.51137 1.76986)
(2.60808e-13 5.51137 1.76986)
(6.54505e-14 5.37895 1.75939)
(-1.30901e-13 5.37895 1.75939)
(6.56977e-14 5.24859 1.7486)
(0 5.24859 1.7486)
(6.59435e-14 5.12021 1.73747)
(2.63774e-13 5.12021 1.73747)
(3.30939e-14 4.99372 1.72595)
(9.23575e-14 4.99372 1.72595)
(3.32153e-14 4.86905 1.71403)
(1.32861e-13 4.86905 1.71403)
(-3.3336e-14 4.74611 1.70168)
(1.33344e-13 4.74611 1.70168)
(-3.34558e-14 4.62482 1.68886)
(0 4.62482 1.68886)
(0 4.50508 1.67555)
(1.34299e-13 4.50508 1.67555)
(-3.09026e-14 4.38682 1.6617)
(9.82887e-14 4.38682 1.6617)
(-3.38103e-14 4.26995 1.64727)
(0 4.26995 1.64727)
(0 4.15439 1.63223)
(2.71414e-13 4.15439 1.63223)
(3.45143e-14 4.04003 1.61652)
(-3.45143e-14 4.04003 1.61652)
(3.41566e-14 3.9268 1.60011)
(-1.36626e-13 3.9268 1.60011)
(3.427e-14 3.8146 1.58293)
(0 3.8146 1.58293)
(-3.46172e-15 3.70333 1.56494)
(0 3.70333 1.56494)
(6.89871e-14 3.59289 1.54606)
(-3.20532e-14 3.59289 1.54606)
(-3.14658e-14 3.4832 1.52624)
(1.6988e-13 3.4832 1.52624)
(3.08892e-14 3.37413 1.5054)
(1.3885e-13 3.37413 1.5054)
(3.48199e-14 3.26557 1.48346)
(1.3928e-13 3.26557 1.48346)
(2.97675e-14 3.15742 1.46034)
(-1.69472e-13 3.15742 1.46034)
(-3.50308e-14 3.04954 1.43594)
(0 3.04954 1.43594)
(-3.5134e-14 2.94182 1.41017)
(8.31628e-14 2.94182 1.41017)
(0 2.83411 1.3829)
(1.40942e-13 2.83411 1.3829)
(1.99541e-14 2.72626 1.35402)
(-1.41342e-13 2.72626 1.35402)
(3.54338e-14 2.61814 1.32339)
(2.8347e-13 2.61814 1.32339)
(0 2.50956 1.29087)
(8.88386e-14 2.50956 1.29087)
(1.6681e-14 2.40036 1.25628)
(-5.23055e-14 2.40036 1.25628)
(3.57168e-14 2.29035 1.21946)
(1.42867e-13 2.29035 1.21946)
(1.45993e-14 2.17932 1.18021)
(1.43227e-13 2.17932 1.18021)
(-3.58946e-14 2.06708 1.13832)
(1.43578e-13 2.06708 1.13832)
(0 1.95338 1.09355)
(4.85757e-14 1.95338 1.09355)
(3.60623e-14 1.838 1.04564)
(0 1.838 1.04564)
(-7.22839e-14 1.72068 0.994336)
(1.44568e-13 1.72068 0.994336)
(0 1.60117 0.939331)
(0 1.60117 0.939331)
(4.51119e-14 1.4792 0.880318)
(0 1.4792 0.880318)
(3.63618e-14 1.35452 0.816971)
(1.45447e-13 1.35452 0.816971)
(-3.6428e-14 1.22685 0.748952)
(1.45712e-13 1.22685 0.748952)
(-7.91671e-14 1.09597 0.675923)
(0 1.09597 0.675923)
(0 0.961654 0.59755)
(-4.1895e-14 0.961654 0.59755)
(4.11273e-14 0.823744 0.513514)
(-1.87531e-13 0.823745 0.513514)
(-3.66491e-14 0.682123 0.423529)
(0 0.682123 0.423529)
(-3.66918e-14 0.536743 0.327346)
(1.46767e-13 0.536743 0.327346)
(0 0.387642 0.224773)
(1.46915e-13 0.387642 0.224773)
(-3.67595e-14 0.234944 0.115681)
(0 0.234944 0.115681)
(-3.67836e-14 1.61435e-06 5.97514e-07)
(2.94387e-13 1.03664e-06 3.83689e-07)
(0 127.821 -0.236551)
(-5.72123e-17 127.821 -0.236551)
(0 127.821 -0.714067)
(-1.12328e-16 127.821 -0.714067)
(-5.81419e-17 127.821 -0.991019)
(0 127.821 -0.991019)
(9.52697e-17 127.821 -1.00952)
(0 127.821 -1.00952)
(-3.25408e-16 127.821 -1.02836)
(0 127.821 -1.02836)
(2.31397e-16 127.82 -1.04755)
(-4.17272e-16 127.82 -1.04755)
(-8.1925e-16 127.82 -1.0671)
(-4.09625e-16 127.82 -1.0671)
(7.45308e-16 127.819 -1.08702)
(0 127.819 -1.08702)
(-4.45266e-16 127.819 -1.1073)
(1.78106e-15 127.819 -1.1073)
(1.29427e-15 127.818 -1.12797)
(-2.85196e-15 127.818 -1.12797)
(4.28329e-16 127.818 -1.14902)
(-2.37832e-15 127.818 -1.14902)
(2.16511e-15 127.817 -1.17046)
(-1.49378e-15 127.817 -1.17046)
(-7.49519e-16 127.816 -1.19229)
(-2.99808e-15 127.816 -1.19229)
(0 127.815 -1.21454)
(-3.31666e-15 127.815 -1.21454)
(9.10295e-16 127.813 -1.2372)
(-5.05434e-15 127.813 -1.2372)
(-1.38726e-15 127.812 -1.26028)
(0 127.812 -1.26028)
(1.07713e-15 127.811 -1.28379)
(-4.30851e-15 127.811 -1.28379)
(1.16288e-15 127.809 -1.30774)
(4.65154e-15 127.809 -1.30774)
(1.25024e-15 127.807 -1.33213)
(0 127.807 -1.33213)
(5.25513e-15 127.805 -1.35697)
(-2.57667e-15 127.805 -1.35697)
(1.42988e-15 127.803 -1.38227)
(3.19005e-15 127.803 -1.38227)
(1.52221e-15 127.8 -1.40805)
(3.60575e-15 127.8 -1.40805)
(-1.61627e-15 127.797 -1.4343)
(0 127.797 -1.4343)
(5.81711e-15 127.794 -1.46103)
(-2.39293e-15 127.794 -1.46103)
(1.80969e-15 127.79 -1.48826)
(0 127.79 -1.48826)
(2.30604e-15 127.786 -1.51599)
(0 127.786 -1.51599)
(0 127.782 -1.54423)
(-2.26378e-15 127.782 -1.54423)
(4.22709e-15 127.777 -1.57299)
(0 127.777 -1.57299)
(2.21863e-15 127.771 -1.60227)
(8.87451e-15 127.771 -1.60227)
(4.65134e-15 127.764 -1.63209)
(0 127.764 -1.63209)
(2.43471e-15 127.757 -1.66245)
(0 127.757 -1.66245)
(2.54577e-15 127.748 -1.69336)
(-4.12766e-15 127.748 -1.69336)
(2.65891e-15 127.738 -1.72483)
(-6.58361e-15 127.738 -1.72483)
(0 127.727 -1.75686)
(-1.50743e-14 127.727 -1.75686)
(3.90487e-15 127.714 -1.78946)
(0 127.714 -1.78946)
(3.01109e-15 127.699 -1.82263)
(-1.20444e-14 127.699 -1.82263)
(2.50268e-15 127.681 -1.85638)
(0 127.681 -1.85638)
(-3.25693e-15 127.661 -1.89072)
(-1.30277e-14 127.661 -1.89072)
(-3.38327e-15 127.638 -1.92564)
(-3.06926e-14 127.638 -1.92564)
(-3.51196e-15 127.612 -1.96115)
(0 127.612 -1.96115)
(-1.48303e-16 127.581 -1.99725)
(-3.49474e-15 127.581 -1.99725)
(-3.77653e-15 127.546 -2.03393)
(-3.02123e-14 127.546 -2.03393)
(7.82499e-15 127.506 -2.07119)
(0 127.506 -2.07119)
(4.05096e-15 127.459 -2.10903)
(-2.28161e-14 127.459 -2.10903)
(1.4875e-14 127.405 -2.14743)
(1.02768e-14 127.405 -2.14743)
(1.07077e-14 127.344 -2.18638)
(-1.73423e-14 127.344 -2.18638)
(-8.96362e-15 127.273 -2.22587)
(-1.79272e-14 127.273 -2.22587)
(9.26142e-15 127.192 -2.26588)
(1.85228e-14 127.192 -2.26588)
(0 127.099 -2.30637)
(0 127.099 -2.30637)
(-4.93667e-15 126.992 -2.34733)
(-4.54111e-14 126.992 -2.34733)
(5.0938e-15 126.871 -2.38871)
(-2.03752e-14 126.871 -2.38871)
(5.25376e-15 126.733 -2.43048)
(0 126.733 -2.43048)
(0 126.576 -2.47259)
(-4.33325e-14 126.576 -2.47259)
(5.58225e-15 126.398 -2.51498)
(0 126.398 -2.51498)
(7.11623e-16 126.197 -2.55758)
(1.07901e-14 126.197 -2.55758)
(0 125.969 -2.60034)
(-3.42819e-14 125.969 -2.60034)
(8.97751e-16 125.713 -2.64316)
(0 125.713 -2.64316)
(1.6482e-14 125.424 -2.68597)
(-3.53051e-14 125.424 -2.68597)
(1.00207e-14 125.101 -2.72865)
(-3.58398e-14 125.101 -2.72865)
(0 124.74 -2.77111)
(-2.6553e-14 124.74 -2.77111)
(-2.83209e-15 124.338 -2.81324)
(9.65677e-15 124.338 -2.81324)
(0 123.891 -2.8549)
(-9.47981e-15 123.891 -2.8549)
(1.65126e-14 123.396 -2.89596)
(-9.30609e-15 123.396 -2.89596)
(7.40185e-15 122.85 -2.93629)
(0 122.85 -2.93629)
(0 122.248 -2.97574)
(-3.04005e-14 122.248 -2.97574)
(0 121.589 -3.01416)
(0 121.589 -3.01416)
(8.00526e-15 120.869 -3.05141)
(-3.2021e-14 120.869 -3.05141)
(0 120.086 -3.08731)
(-3.2848e-14 120.086 -3.08731)
(8.32865e-15 119.236 -3.12173)
(0 119.236 -3.12173)
(-1.68096e-14 118.318 -3.15452)
(7.72442e-14 118.318 -3.15452)
(0 117.331 -3.18552)
(8.02621e-15 117.331 -3.18552)
(9.06511e-15 116.273 -3.21461)
(-3.62604e-14 116.273 -3.21461)
(9.28442e-15 115.144 -3.24165)
(-3.71377e-14 115.144 -3.24165)
(1.5186e-14 113.943 -3.26655)
(-7.60472e-14 113.943 -3.26655)
(5.17833e-15 112.673 -3.28919)
(-1.49077e-14 112.673 -3.28919)
(0 111.333 -3.30949)
(0 111.333 -3.30949)
(-1.43664e-14 109.926 -3.3274)
(5.50943e-14 109.926 -3.3274)
(3.6924e-15 108.455 -3.34286)
(-1.66572e-13 108.455 -3.34286)
(2.12818e-14 106.922 -3.35585)
(-4.25635e-14 106.922 -3.35585)
(-1.08723e-14 105.331 -3.36637)
(0 105.331 -3.36637)
(-1.11048e-14 103.687 -3.37442)
(-4.4419e-14 103.687 -3.37442)
(-2.26762e-14 101.994 -3.38003)
(-4.53525e-14 101.994 -3.38003)
(-1.15722e-14 100.256 -3.38326)
(-1.05435e-13 100.256 -3.38326)
(2.36137e-14 98.4792 -3.38416)
(-4.72274e-14 98.4792 -3.38416)
(1.20419e-14 96.6686 -3.38281)
(4.81674e-14 96.6686 -3.38281)
(0 94.8296 -3.37932)
(4.91083e-14 94.8296 -3.37932)
(2.44529e-14 92.9675 -3.37376)
(-7.39305e-14 92.9675 -3.37376)
(-3.72167e-14 91.0878 -3.36627)
(2.75463e-14 91.0878 -3.36627)
(1.29823e-14 89.1957 -3.35694)
(-1.1507e-14 89.1957 -3.35694)
(-1.92068e-15 87.2963 -3.34591)
(0 87.2963 -3.34591)
(0 85.3945 -3.33329)
(-2.21783e-14 85.3945 -3.33329)
(1.3684e-14 83.4948 -3.31922)
(5.47359e-14 83.4948 -3.31922)
(2.13729e-14 81.6018 -3.30381)
(-5.56657e-14 81.6018 -3.30381)
(0 79.7192 -3.2872)
(-2.09813e-14 79.7192 -3.2872)
(1.43785e-14 77.851 -3.26949)
(5.75142e-14 77.851 -3.26949)
(0 76.0004 -3.25081)
(-2.02193e-14 76.0004 -3.25081)
(0 74.1706 -3.23127)
(-1.1869e-13 74.1706 -3.23127)
(0 72.3641 -3.21098)
(0 72.3641 -3.21098)
(1.5289e-14 70.5835 -3.19004)
(-6.11561e-14 70.5835 -3.19004)
(1.55134e-14 68.8308 -3.16855)
(0 68.8308 -3.16855)
(1.57363e-14 67.1078 -3.14659)
(1.2589e-13 67.1078 -3.14659)
(3.40534e-14 65.4161 -3.12425)
(-1.80957e-14 65.4161 -3.12425)
(1.61776e-14 63.7568 -3.10161)
(-8.24746e-14 63.7568 -3.10161)
(-1.04251e-15 62.131 -3.07875)
(6.55841e-14 62.131 -3.07875)
(1.7119e-14 60.5396 -3.05572)
(0 60.5396 -3.05572)
(-1.68281e-14 58.983 -3.03258)
(-6.73124e-14 58.983 -3.03258)
(0 57.4617 -3.0094)
(0 57.4617 -3.0094)
(1.6195e-14 55.976 -2.98623)
(-1.6195e-14 55.976 -2.98623)
(1.58983e-14 54.5259 -2.9631)
(0 54.5259 -2.9631)
(3.12139e-14 53.1115 -2.94007)
(-1.01906e-13 53.1115 -2.94007)
(-3.06419e-14 51.7324 -2.91716)
(0 51.7324 -2.91716)
(0 50.3886 -2.89441)
(-3.00804e-14 50.3886 -2.89441)
(1.82897e-14 49.0796 -2.87185)
(0 49.0796 -2.87185)
(-1.84921e-14 47.805 -2.8495)
(0 47.805 -2.8495)
(-1.86929e-14 46.5643 -2.82739)
(-2.84568e-14 46.5643 -2.82739)
(-9.04325e-15 45.357 -2.80554)
(0 45.357 -2.80554)
(0 44.1825 -2.78396)
(0 44.1825 -2.78396)
(-3.85719e-14 43.0402 -2.76266)
(-1.54287e-13 43.0402 -2.76266)
(0 41.9293 -2.74167)
(0 41.9293 -2.74167)
(4.5617e-14 40.8493 -2.72098)
(-2.59434e-14 40.8493 -2.72098)
(0 39.7993 -2.70061)
(5.39932e-14 39.7993 -2.70061)
(0 38.7788 -2.68057)
(-1.05223e-13 38.7788 -2.68057)
(0 37.7869 -2.66085)
(-8.09768e-14 37.7869 -2.66085)
(3.66185e-15 36.8229 -2.64147)
(-1.05819e-13 36.8229 -2.64147)
(2.36519e-14 35.8861 -2.62242)
(5.88179e-14 35.8861 -2.62242)
(2.0802e-14 34.9758 -2.60371)
(0 34.9758 -2.60371)
(4.19705e-14 34.0913 -2.58534)
(8.39409e-14 34.0913 -2.58534)
(-2.11671e-14 33.2318 -2.56731)
(6.22932e-14 33.2318 -2.56731)
(-2.19653e-14 32.3966 -2.54961)
(0 32.3966 -2.54961)
(2.15271e-14 31.585 -2.53225)
(-2.15628e-14 31.585 -2.53225)
(2.17051e-14 30.7964 -2.51522)
(8.68205e-14 30.7964 -2.51522)
(2.1882e-14 30.03 -2.49852)
(8.75279e-14 30.03 -2.49852)
(6.28556e-14 29.2852 -2.48214)
(-4.0798e-14 29.2852 -2.48214)
(2.00252e-14 28.5614 -2.46609)
(-8.89283e-14 28.5614 -2.46609)
(4.20636e-14 27.8579 -2.45035)
(-3.93164e-14 27.8579 -2.45035)
(-3.27956e-15 27.174 -2.43493)
(-3.8596e-14 27.174 -2.43493)
(0 26.5093 -2.41982)
(0 26.5093 -2.41982)
(-1.42758e-14 25.8631 -2.405)
(0 25.8631 -2.405)
(4.61749e-14 25.2349 -2.39049)
(0 25.2349 -2.39049)
(3.58438e-14 24.624 -2.37627)
(0 24.624 -2.37627)
(2.34221e-14 24.03 -2.36234)
(1.87377e-13 24.03 -2.36234)
(0 23.4523 -2.34868)
(0 23.4523 -2.34868)
(-5.76619e-14 22.8904 -2.33531)
(0 22.8904 -2.33531)
(-2.39166e-14 22.3439 -2.3222)
(0 22.3439 -2.3222)
(0 21.8122 -2.30935)
(0 21.8122 -2.30935)
(2.42415e-14 21.2949 -2.29676)
(0 21.2949 -2.29676)
(3.14912e-14 20.7916 -2.28443)
(0 20.7916 -2.28443)
(4.91256e-14 20.3017 -2.27233)
(-9.82513e-14 20.3017 -2.27233)
(4.94443e-14 19.825 -2.26048)
(-9.88886e-14 19.825 -2.26048)
(4.91088e-15 19.3609 -2.24886)
(-2.98567e-13 19.3609 -2.24886)
(-2.50382e-14 18.9091 -2.23747)
(0 18.9091 -2.23747)
(5.74193e-14 18.4692 -2.22629)
(4.33608e-14 18.4692 -2.22629)
(0 18.0409 -2.21533)
(-2.81836e-14 18.0409 -2.21533)
(2.55063e-14 17.6237 -2.20458)
(0 17.6237 -2.20458)
(-2.56607e-14 17.2173 -2.19403)
(-1.02643e-13 17.2173 -2.19403)
(0 16.8215 -2.18367)
(0 16.8215 -2.18367)
(2.59673e-14 16.4358 -2.1735)
(1.03869e-13 16.4358 -2.1735)
(5.2239e-14 16.06 -2.16352)
(-1.04478e-13 16.06 -2.16352)
(2.52234e-14 15.6937 -2.15371)
(-1.30307e-13 15.6937 -2.15371)
(2.64218e-14 15.3368 -2.14407)
(-2.47612e-14 15.3368 -2.14407)
(0 14.9888 -2.13459)
(-1.30595e-13 14.9888 -2.13459)
(2.3862e-14 14.6495 -2.12528)
(-2.37632e-13 14.6495 -2.12528)
(-2.34247e-14 14.3186 -2.11611)
(0 14.3186 -2.11611)
(5.40362e-14 13.996 -2.10709)
(1.08072e-13 13.996 -2.10709)
(2.71655e-14 13.6812 -2.09821)
(-4.51482e-14 13.6812 -2.09821)
(4.43209e-14 13.3742 -2.08946)
(1.09249e-13 13.3742 -2.08946)
(2.74585e-14 13.0746 -2.08083)
(-1.09834e-13 13.0746 -2.08083)
(0 12.7823 -2.07232)
(-1.10416e-13 12.7823 -2.07232)
(0 12.497 -2.06393)
(0 12.497 -2.06393)
(2.78934e-14 12.2185 -2.05564)
(-1.11574e-13 12.2185 -2.05564)
(5.60744e-14 11.9467 -2.04745)
(-1.12149e-13 11.9467 -2.04745)
(2.81804e-14 11.6812 -2.03936)
(7.30558e-14 11.6812 -2.03936)
(1.77072e-14 11.422 -2.03135)
(1.13292e-13 11.422 -2.03135)
(2.84651e-14 11.1688 -2.02342)
(0 11.1688 -2.02342)
(8.91829e-15 10.9214 -2.01556)
(0 10.9214 -2.01556)
(2.87475e-14 10.6797 -2.00777)
(-1.1499e-13 10.6797 -2.00777)
(2.88879e-14 10.4435 -2.00003)
(7.93894e-14 10.4435 -2.00003)
(5.80555e-14 10.2127 -1.99234)
(-3.54995e-14 10.2127 -1.99234)
(3.4849e-14 9.98707 -1.9847)
(1.16668e-13 9.98707 -1.9847)
(4.9046e-15 9.76646 -1.97709)
(-1.51434e-13 9.76646 -1.97709)
(5.88881e-14 9.55073 -1.96951)
(-1.5136e-13 9.55073 -1.96951)
(-2.95818e-14 9.33973 -1.96194)
(-2.69622e-13 9.33973 -1.96194)
(2.9719e-14 9.13333 -1.95439)
(-1.18876e-13 9.13333 -1.95439)
(0 8.93139 -1.94684)
(8.76515e-14 8.93139 -1.94684)
(2.87948e-14 8.73377 -1.93928)
(1.19967e-13 8.73377 -1.93928)
(6.07446e-14 8.54034 -1.93171)
(-1.51127e-13 8.54034 -1.93171)
(2.06304e-16 8.35098 -1.92411)
(0 8.35098 -1.92411)
(0 8.16557 -1.91648)
(-1.21588e-13 8.16557 -1.91648)
(0 7.98398 -1.9088)
(-1.22124e-13 7.98398 -1.9088)
(0 7.8061 -1.90106)
(-1.79526e-13 7.8061 -1.90106)
(2.79129e-14 7.63181 -1.89326)
(0 7.63181 -1.89326)
(3.09301e-14 7.46101 -1.88539)
(0 7.46101 -1.88539)
(3.1062e-14 7.29358 -1.87742)
(1.24248e-13 7.29358 -1.87742)
(3.11934e-14 7.12942 -1.86935)
(0 7.12942 -1.86935)
(0 6.96842 -1.86117)
(1.25297e-13 6.96842 -1.86117)
(0 6.8105 -1.85286)
(0 6.8105 -1.85286)
(0 6.65553 -1.84441)
(-1.26337e-13 6.65553 -1.84441)
(0 6.50344 -1.83581)
(-4.90467e-14 6.50344 -1.83581)
(-3.1842e-14 6.35413 -1.82704)
(0 6.35413 -1.82704)
(-3.19701e-14 6.20749 -1.81807)
(-1.2788e-13 6.20749 -1.81807)
(-3.20975e-14 6.06344 -1.80891)
(-1.2839e-13 6.06344 -1.80891)
(0 5.9219 -1.79953)
(0 5.9219 -1.79953)
(4.47146e-14 5.78276 -1.7899)
(-3.03519e-13 5.78276 -1.7899)
(4.38952e-14 5.64595 -1.78002)
(-1.738e-13 5.64595 -1.78002)
(0 5.51137 -1.76986)
(0 5.51137 -1.76986)
(0 5.37895 -1.75939)
(-1.73202e-13 5.37895 -1.75939)
(8.67722e-15 5.24859 -1.7486)
(-4.15261e-14 5.24859 -1.7486)
(6.59435e-14 5.12021 -1.73747)
(9.11218e-14 5.12021 -1.73747)
(1.06206e-13 4.99372 -1.72595)
(-4.00181e-14 4.99372 -1.72595)
(6.64306e-14 4.86905 -1.71403)
(-1.72146e-13 4.86905 -1.71403)
(7.19009e-14 4.74611 -1.70168)
(-3.85649e-14 4.74611 -1.70168)
(4.40241e-15 4.62482 -1.68886)
(-3.78582e-14 4.62482 -1.68886)
(0 4.50508 -1.67555)
(1.34299e-13 4.50508 -1.67555)
(-3.3693e-14 4.38682 -1.6617)
(9.82887e-14 4.38682 -1.6617)
(0 4.26995 -1.64727)
(-1.35241e-13 4.26995 -1.64727)
(0 4.15439 -1.63223)
(-1.70866e-13 4.15439 -1.63223)
(-1.03071e-13 4.04003 -1.61652)
(-1.36169e-13 4.04003 -1.61652)
(6.83132e-14 3.9268 -1.60011)
(-1.36626e-13 3.9268 -1.60011)
(3.427e-14 3.8146 -1.58293)
(0 3.8146 -1.58293)
(0 3.70333 -1.56494)
(7.22265e-14 3.70333 -1.56494)
(0 3.59289 -1.54606)
(0 3.59289 -1.54606)
(0 3.4832 -1.52624)
(-1.6988e-13 3.4832 -1.52624)
(0 3.37413 -1.5054)
(-3.08892e-14 3.37413 -1.5054)
(-2.58265e-14 3.26557 -1.48346)
(1.3928e-13 3.26557 -1.48346)
(3.4926e-14 3.15742 -1.46034)
(-2.79408e-13 3.15742 -1.46034)
(0 3.04954 -1.43594)
(0 3.04954 -1.43594)
(6.44743e-15 2.94182 -1.41017)
(-2.86865e-14 2.94182 -1.41017)
(3.52356e-14 2.83411 -1.3829)
(-1.40942e-13 2.83411 -1.3829)
(-9.06253e-14 2.72626 -1.35402)
(1.41342e-13 2.72626 -1.35402)
(7.08676e-14 2.61814 -1.32339)
(8.74586e-14 2.61814 -1.32339)
(7.10603e-14 2.50956 -1.29087)
(-5.32819e-14 2.50956 -1.29087)
(-1.6681e-14 2.40036 -1.25628)
(0 2.40036 -1.25628)
(3.57168e-14 2.29035 -1.21946)
(0 2.29035 -1.21946)
(-1.45993e-14 2.17932 -1.18021)
(-1.43227e-13 2.17932 -1.18021)
(3.58946e-14 2.06708 -1.13832)
(1.43578e-13 2.06708 -1.13832)
(0 1.95338 -1.09355)
(-1.43919e-13 1.95338 -1.09355)
(3.60623e-14 1.838 -1.04564)
(-1.44249e-13 1.838 -1.04564)
(3.6142e-14 1.72068 -0.994336)
(0 1.72068 -0.994336)
(4.59539e-14 1.60117 -0.939331)
(1.44874e-13 1.60117 -0.939331)
(0 1.4792 -0.880318)
(-2.90336e-13 1.4792 -0.880318)
(-4.42852e-14 1.35452 -0.816971)
(-1.01162e-13 1.35452 -0.816971)
(3.6428e-14 1.22685 -0.748952)
(-1.45712e-13 1.22685 -0.748952)
(3.64901e-14 1.09597 -0.675923)
(1.4596e-13 1.09597 -0.675923)
(3.65478e-14 0.961654 -0.59755)
(-2.92383e-13 0.961654 -0.59755)
(7.32019e-14 0.823745 -0.513514)
(-1.46404e-13 0.823745 -0.513514)
(0 0.682123 -0.423529)
(0 0.682123 -0.423529)
(-3.66918e-14 0.536743 -0.327346)
(1.07133e-13 0.536743 -0.327346)
(0 0.387642 -0.224773)
(-1.46915e-13 0.387642 -0.224773)
(-3.67595e-14 0.234944 -0.115681)
(1.47038e-13 0.234944 -0.115681)
(3.67836e-14 1.66734e-06 -6.17127e-07)
(1.47371e-13 7.56597e-07 -2.80037e-07)
(7.43374e-14 -1.61597e-06 5.98117e-07)
(1.47134e-13 -1.03523e-06 3.83166e-07)
(-3.81946e-14 -0.234943 0.11568)
(2.55882e-13 -0.234943 0.11568)
(2.17875e-15 -0.387642 0.224773)
(-3.89075e-14 -0.387642 0.224773)
(0 -0.536743 0.327345)
(1.46767e-13 -0.536743 0.327345)
(0 -0.682122 0.423528)
(2.93193e-13 -0.682122 0.423528)
(4.52632e-15 -0.823744 0.513514)
(-1.87531e-13 -0.823744 0.513514)
(0 -0.961653 0.597549)
(0 -0.961653 0.597549)
(-3.64901e-14 -1.09596 0.675923)
(-1.4596e-13 -1.09596 0.675923)
(0 -1.22685 0.748952)
(0 -1.22685 0.748952)
(3.63618e-14 -1.35451 0.81697)
(0 -1.35451 0.81697)
(0 -1.4792 0.880318)
(1.45168e-13 -1.4792 0.880318)
(0 -1.60117 0.939331)
(1.44874e-13 -1.60117 0.939331)
(0 -1.72068 0.994335)
(0 -1.72068 0.994335)
(-3.60623e-14 -1.838 1.04564)
(-1.91935e-13 -1.838 1.04564)
(7.19595e-14 -1.95338 1.09355)
(0 -1.95338 1.09355)
(-4.94825e-14 -2.06708 1.13832)
(0 -2.06708 1.13832)
(7.16137e-14 -2.17932 1.18021)
(9.28212e-14 -2.17932 1.18021)
(-3.57168e-14 -2.29035 1.21946)
(-1.94214e-13 -2.29035 1.21946)