/*--------------------------------*- C++ -*----------------------------------*\
| =========                 |                                                 |
| \\      /  F ield         | OpenFOAM: The Open Source CFD Toolbox           |
|  \\    /   O peration     | Version:  2106                                  |
|   \\  /    A nd           | Website:  www.openfoam.com                      |
|    \\/     M anipulation  |                                                 |
\*---------------------------------------------------------------------------*/
FoamFile
{
    version     2.0;
    format      ascii;
    arch        "LSB;label=32;scalar=64";
    class       volTensorField;
    location    "10090";
    object      grad(U);
}
// * * * * * * * * * * * * * * * * * * * * * * * * * * * * * * * * * * * * * //

dimensions      [0 0 -1 0 0 0 0];

internalField   nonuniform List<tensor> 
2000
(
(0 -1.69451e-25 -2.05096e-27 12.9903 -2.25573e-12 -9.01025e-14 0.0240424 -2.0779e-15 -5.40536e-17)
(0 -1.66288e-28 -6.08949e-27 12.9903 1.97215e-31 -3.38815e-14 0.0240424 -4.15725e-29 -1.14814e-17)
(0 -5.60519e-45 0 12.9878 -4.03897e-28 0 0.0725672 0 -4.93038e-32)
(0 -2.87329e-29 -1.99534e-31 12.9878 -3.94914e-15 -6.54345e-14 0.0725672 -1.17559e-17 -2.16814e-16)
(-2.95885e-18 -3.13405e-30 -7.01337e-32 12.9853 2.23029e-12 -1.51377e-15 0.100668 -1.50186e-14 -1.34918e-16)
(0 6.26809e-30 9.79389e-32 12.9853 -7.84324e-16 -5.06889e-15 0.100668 -9.93359e-18 -2.24736e-16)
(-9.68616e-18 -4.28862e-30 -6.26409e-32 12.9827 1.688e-13 -1.65355e-14 0.102526 -1.26808e-15 -1.23754e-16)
(3.87446e-17 9.22985e-30 9.61442e-32 12.9827 -2.52558e-15 -5.11066e-15 0.102526 -1.56449e-17 -2.32756e-16)
(0 9.06071e-30 1.88765e-31 12.9801 2.68805e-14 -1.35117e-14 0.104418 -1.37458e-15 -9.13473e-17)
(0 -6.04048e-30 0 12.9801 -2.53159e-15 -5.14753e-15 0.104418 -2.15572e-17 -2.40853e-16)
(0 -1.28763e-27 2.77959e-31 12.9773 -2.94102e-14 -1.11073e-14 0.106344 -1.19402e-16 -8.90082e-17)
(-9.40635e-17 -1.18596e-29 -2.77959e-31 12.9773 -2.49626e-15 -5.18115e-15 0.106344 -2.75216e-17 -2.49006e-16)
(5.12031e-17 -4.19094e-28 0 12.9745 -9.81343e-28 -1.11366e-14 0.108305 0 -9.52782e-17)
(7.12882e-17 1.16422e-29 0 12.9745 -2.44732e-15 -5.21414e-15 0.108305 -3.35263e-17 -2.57201e-16)
(0 0 0 12.9716 3.7691e-15 -1.16753e-14 0.110302 -1.83753e-17 -1.01524e-16)
(3.02888e-16 2.85723e-30 0 12.9716 -2.44821e-15 -5.24368e-15 0.110302 -3.9681e-17 -2.65431e-16)
(-4.52326e-17 2.02385e-30 5.04173e-32 12.9686 4.98913e-15 -1.21689e-14 0.112335 -4.5389e-17 -1.07422e-16)
(0 2.80487e-30 0 12.9686 -2.4375e-15 -5.2684e-15 0.112335 -4.60259e-17 -2.73671e-16)
(9.68791e-17 -5.50694e-30 0 12.9655 4.41081e-15 -1.26317e-14 0.114404 -4.02062e-17 -1.13518e-16)
(-9.68791e-17 8.26041e-30 0 12.9655 -2.35173e-15 -5.29335e-15 0.114404 -5.23304e-17 -2.81903e-16)
(9.51039e-17 -1.89211e-29 -6.75754e-31 12.9623 4.10659e-15 -1.30985e-14 0.116511 -3.68923e-17 -1.19862e-16)
(0 1.89211e-29 5.06815e-31 12.9623 -2.28508e-15 -5.31844e-15 0.116511 -5.87285e-17 -2.90126e-16)
(6.81731e-17 5.93812e-30 2.73767e-31 12.9591 4.04183e-15 -1.35769e-14 0.118655 -3.62516e-17 -1.26557e-16)
(2.72692e-16 -5.30696e-30 0 12.9591 -2.27352e-15 -5.34003e-15 0.118655 -6.50973e-17 -2.98327e-16)
(0 2.60486e-30 0 12.9557 4.07368e-15 -1.407e-14 0.120839 -3.70965e-17 -1.33577e-16)
(0 -2.60486e-30 0 12.9557 -2.26751e-15 -5.35959e-15 0.120839 -7.1454e-17 -3.06479e-16)
(-3.54092e-16 1.99202e-29 7.03107e-31 12.9523 4.07156e-15 -1.45808e-14 0.123062 -3.82118e-17 -1.41034e-16)
(8.99708e-17 -1.53427e-29 -4.79461e-31 12.9523 -2.2101e-15 -5.37963e-15 0.123062 -7.78846e-17 -3.14564e-16)
(-1.80727e-16 1.20604e-29 5.37754e-31 12.9488 3.93863e-15 -1.51114e-14 0.125324 -3.8454e-17 -1.48884e-16)
(0 -5.02053e-30 0 12.9488 -2.20023e-15 -5.39571e-15 0.125324 -8.41823e-17 -3.22576e-16)
(2.74189e-16 -1.18757e-29 -5.32626e-31 12.9452 3.71154e-15 -1.56502e-14 0.127628 -3.70782e-17 -1.56974e-16)
(-4.03126e-16 9.85707e-30 3.08033e-31 12.9452 -2.20943e-15 -5.40916e-15 0.127628 -9.07442e-17 -3.30473e-16)
(0 -4.83822e-30 -1.51194e-31 12.9415 3.57995e-15 -1.6201e-14 0.129973 -3.54247e-17 -1.65558e-16)
(0 7.25733e-30 1.51194e-31 12.9415 -2.03624e-15 -5.4249e-15 0.129973 -9.79066e-17 -3.38261e-16)
(4.03109e-16 -2.06573e-29 -4.53319e-31 12.9377 3.58707e-15 -1.67719e-14 0.13236 -3.58319e-17 -1.74573e-16)
(3.04887e-16 1.42487e-29 2.96848e-31 12.9377 -1.86468e-15 -5.43483e-15 0.13236 -1.04572e-16 -3.4593e-16)
(-1.26847e-16 6.67841e-30 8.24455e-32 12.9339 3.5846e-15 -1.73571e-14 0.13479 -3.69053e-17 -1.83996e-16)
(0 0 2.91408e-31 12.9339 -1.84665e-15 -5.44221e-15 0.13479 -1.11067e-16 -3.53435e-16)
(2.96898e-16 -6.59198e-30 -3.72979e-31 12.9299 3.58575e-15 -1.79602e-14 0.137263 -3.71306e-17 -1.93958e-16)
(3.82383e-16 9.15417e-30 2.86068e-31 12.9299 -1.81543e-15 -5.45697e-15 0.137263 -1.18192e-16 -3.60789e-16)
(-1.45031e-16 2.01373e-30 9.16464e-32 12.9258 3.60225e-15 -1.85878e-14 0.139781 -3.83204e-17 -2.04505e-16)
(1.16025e-15 0 0 12.9258 -1.82263e-15 -5.4664e-15 0.139781 -1.24873e-16 -3.6799e-16)
(-3.10388e-16 4.41088e-30 5.5136e-31 12.9216 3.61396e-15 -1.92362e-14 0.142343 -3.88866e-17 -2.15554e-16)
(6.175e-16 -2.20544e-30 -2.7568e-31 12.9216 -1.90088e-15 -5.46845e-15 0.142343 -1.31312e-16 -3.74944e-16)
(0 -4.33005e-30 -2.70628e-31 12.9173 3.54335e-15 -1.98941e-14 0.144951 -4.00225e-17 -2.26979e-16)
(6.5556e-16 6.49507e-30 2.70628e-31 12.9173 -1.79964e-15 -5.47063e-15 0.144951 -1.38478e-16 -3.81654e-16)
(0 8.5014e-30 5.31338e-31 12.9129 3.30721e-15 -2.05705e-14 0.147606 -3.87669e-17 -2.39143e-16)
(6.94318e-16 -4.2507e-30 -2.65669e-31 12.9129 -1.62022e-15 -5.47003e-15 0.147606 -1.45349e-16 -3.88104e-16)
(-1.83447e-16 -2.16274e-30 1.13792e-31 12.9084 3.18104e-15 -2.12673e-14 0.150308 -3.61311e-17 -2.51763e-16)
(0 6.25921e-30 2.60801e-31 12.9084 -1.57505e-15 -5.46981e-15 0.150308 -1.5163e-16 -3.94245e-16)
(0 -1.02409e-29 -5.12043e-31 12.9037 3.22883e-15 -2.19798e-14 0.153058 -3.7289e-17 -2.65059e-16)
(7.7398e-16 1.02409e-29 5.12043e-31 12.9037 -1.61025e-15 -5.46561e-15 0.153058 -1.57565e-16 -4.00085e-16)
(-2.03727e-16 -2.01348e-30 -2.07971e-28 12.899 3.19645e-15 2.68627e-29 0.155856 -3.86264e-17 0)
(0 8.04256e-30 2.5133e-31 12.899 -1.68409e-15 -5.46509e-15 0.155856 -1.63974e-16 -4.05522e-16)
(-2.14147e-16 3.29691e-32 1.56049e-31 12.894 3.11992e-15 5.0055e-15 0.158703 -3.79115e-17 -5.29892e-17)
(0 5.92139e-30 2.46724e-31 12.894 -1.64309e-15 -5.46459e-15 0.158703 -1.72143e-16 -4.10629e-16)
(0 3.87525e-30 2.42203e-31 12.8889 3.06853e-15 5.63706e-15 0.161601 -3.81978e-17 -6.92641e-17)
(-2.72697e-16 0 0 12.8889 -1.57726e-15 -5.45387e-15 0.161601 -1.79963e-16 -4.15338e-16)
(-7.7096e-16 2.10257e-29 1.33663e-30 12.8836 2.89299e-15 5.64709e-15 0.164549 -3.80509e-17 -7.08263e-17)
(-6.74544e-16 -1.5217e-29 -9.5106e-31 12.8836 -1.44238e-15 -5.44211e-15 0.164549 -1.88059e-16 -4.19642e-16)
(2.46563e-16 -1.36574e-31 -1.44677e-31 12.8782 2.65978e-15 5.64952e-15 0.167548 -3.51523e-17 -7.21303e-17)
(9.86251e-16 0 0 12.8782 -1.06917e-15 -5.42837e-15 0.167548 -1.95953e-16 -4.23499e-16)
(0 3.66609e-30 2.29131e-31 12.8725 2.52388e-15 5.64586e-15 0.170599 -3.34153e-17 -7.35583e-17)
(0 0 0 12.8725 -8.6084e-16 -5.4156e-15 0.170599 -2.01759e-16 -4.2688e-16)
(-2.69172e-16 1.27989e-29 3.62317e-31 12.8666 2.40419e-15 5.62786e-15 0.173703 -3.28738e-17 -7.47513e-17)
(0 -1.07967e-29 -2.24932e-31 12.8666 -9.56493e-16 -5.4008e-15 0.173703 -2.07375e-16 -4.29787e-16)
(-2.80787e-16 -3.29797e-30 -8.70535e-32 12.8605 2.37433e-15 5.5968e-15 0.176859 -3.14422e-17 -7.5844e-17)
(0 8.83241e-30 2.2081e-31 12.8605 -9.98171e-16 -5.38807e-15 0.176859 -2.14156e-16 -4.32137e-16)
(0 -1.04047e-29 0 12.8541 2.37018e-15 5.5502e-15 0.180069 -3.3291e-17 -7.67135e-17)
(1.17046e-15 1.04047e-29 0 12.8541 -8.81848e-16 -5.36565e-15 0.180069 -2.19504e-16 -4.33969e-16)
(0 5.10701e-30 4.25584e-31 12.8473 2.43741e-15 5.49638e-15 0.183331 -3.25108e-17 -7.7396e-17)
(-4.79165e-16 -1.70234e-30 0 12.8473 -8.2564e-16 -5.3412e-15 0.183331 -2.2444e-16 -4.35137e-16)
(-1.53467e-16 -1.99795e-30 -1.23457e-31 12.8403 2.60728e-15 5.41327e-15 0.186648 -3.64646e-17 -7.80679e-17)
(1.26767e-15 0 0 12.8403 -8.72018e-16 -5.32128e-15 0.186648 -2.29754e-16 -4.35723e-16)
(-3.294e-16 -7.84656e-30 1.20384e-31 12.8328 2.4133e-15 5.30213e-15 0.190019 -3.86759e-17 -7.78956e-17)
(1.3176e-15 1.14836e-29 0 12.8328 -1.0544e-15 -5.28196e-15 0.190019 -2.34212e-16 -4.3557e-16)
(5.64496e-16 -7.66612e-30 -2.85155e-31 12.8249 2.01026e-15 5.19948e-15 0.193443 -3.20922e-17 -7.77173e-17)
(-9.06606e-16 1.28836e-29 4.02614e-31 12.8249 -9.58434e-16 -5.24856e-15 0.193443 -2.42293e-16 -4.34549e-16)
(0 1.26476e-29 0 12.8165 1.76452e-15 5.08661e-15 0.196921 -2.79711e-17 -7.77332e-17)
(1.4202e-15 -1.26476e-29 0 12.8165 -3.53007e-16 -5.22545e-15 0.196921 -2.4663e-16 -4.32826e-16)
(-7.36449e-16 1.33042e-29 2.24184e-31 12.8075 1.72452e-15 4.94618e-15 0.200452 -2.57476e-17 -7.71763e-17)
(1.4729e-15 -6.2079e-30 0 12.8075 -1.72952e-16 -5.18738e-15 0.200452 -2.44173e-16 -4.30299e-16)
(0 -6.09414e-30 -3.80884e-31 12.798 1.56355e-15 4.79749e-15 0.204035 -2.77724e-17 -7.62649e-17)
(0 9.14121e-30 0 12.798 -3.82495e-16 -5.14323e-15 0.204035 -2.47611e-16 -4.26813e-16)
(8.41957e-16 -5.98247e-30 -3.73904e-31 12.7877 1.20058e-15 4.65745e-15 0.20767 -2.15831e-17 -7.53415e-17)
(0 8.9737e-30 0 12.7877 -5.63756e-16 -5.09384e-15 0.20767 -2.51881e-16 -4.22437e-16)
(-1.23572e-15 7.86868e-30 1.05808e-31 12.7765 1.1988e-15 4.51805e-15 0.211356 -1.70251e-17 -7.45884e-17)
(-1.63675e-15 -2.93642e-30 0 12.7765 -2.87392e-16 -5.05019e-15 0.211356 -2.55702e-16 -4.17105e-16)
(4.23336e-16 3.77067e-30 -1.03546e-31 12.7645 1.29478e-15 4.35409e-15 0.215091 -2.23373e-17 -7.35664e-17)
(1.69334e-15 0 3.60326e-31 12.7645 3.12502e-17 -5.01027e-15 0.215091 -2.55358e-16 -4.10954e-16)
(4.37736e-16 9.32473e-30 -1.01206e-31 12.7515 7.55682e-16 4.20117e-15 0.218872 -2.09027e-17 -7.18706e-17)
(-1.75094e-15 -1.13192e-29 0 12.7515 -3.47849e-16 -4.97736e-15 0.218872 -2.55728e-16 -4.03752e-16)
(3.29526e-16 -7.80953e-31 9.87941e-32 12.7373 4.73751e-16 4.05241e-15 0.222699 -4.66261e-18 -7.10863e-17)
(1.80957e-15 2.77793e-30 -6.90182e-32 12.7373 -5.95259e-16 -4.98269e-15 0.222699 -2.62776e-16 -2.71378e-16)
(0 -1.09081e-29 3.40878e-31 12.7218 6.57543e-16 3.81199e-15 0.226567 -1.18261e-17 -6.93738e-17)
(2.97087e-15 1.36351e-29 -3.02616e-31 12.7218 -3.57329e-16 -4.92819e-15 0.226567 -2.66236e-16 -1.14612e-16)
(1.23601e-15 -1.27036e-29 -9.48933e-32 12.7048 1.41184e-16 3.56448e-15 0.230474 -1.13889e-17 -6.51962e-17)
(1.17642e-15 1.07082e-29 -1.61545e-31 12.7048 -1.21086e-16 -4.80154e-15 0.230474 -2.66245e-16 -8.60875e-17)
(-4.97932e-16 7.25261e-30 7.59148e-32 12.6862 -3.01544e-16 3.37341e-15 0.234416 -4.55598e-18 -1.86297e-16)
(-1.99173e-15 -2.628e-30 4.82833e-31 12.6862 -2.34686e-16 -4.73413e-15 0.234416 -2.67794e-16 -8.7395e-17)
(7.26161e-16 -1.99741e-30 -3.2248e-31 12.6657 2.13054e-28 3.16661e-15 0.238388 0 -3.34278e-16)
(-7.26161e-16 7.73953e-30 0 12.6657 1.30242e-17 -4.69727e-15 0.238388 -2.69795e-16 -8.79425e-17)
(-1.24249e-15 1.46589e-29 3.4784e-31 12.6432 4.13593e-16 1.37501e-15 0.242385 -7.32378e-18 -4.79805e-16)
(0 -7.5977e-30 0 12.6432 3.62178e-16 -4.60152e-15 0.242385 -2.66801e-16 -8.70136e-17)
(0 -7.45848e-30 -3.1077e-31 12.6184 2.63462e-16 -6.14926e-15 0.2464 -8.41242e-18 -5.6093e-16)
(0 9.94464e-30 0 12.6184 1.21764e-16 -4.48885e-15 0.2464 -2.69275e-16 -8.68518e-17)
(0 -1.35905e-29 0 12.591 1.75435e-16 -1.22217e-14 0.250428 -1.73049e-18 -4.13378e-16)
(-2.24974e-15 -9.7624e-30 1.22886e-31 12.591 -2.5944e-17 -4.37116e-15 0.250428 -2.74801e-16 -8.56054e-17)
(-9.51283e-17 5.19547e-30 2.20367e-31 12.5608 1.17984e-15 -1.26725e-14 0.25446 -2.72582e-17 -2.61523e-16)
(0 -2.39588e-30 2.99485e-31 12.5608 2.77806e-16 -4.23493e-15 0.25446 -2.74322e-16 -8.45981e-17)
(-5.96349e-16 -3.59416e-31 6.74637e-31 12.5275 2.24487e-16 -1.30975e-14 0.258487 -2.00963e-17 -2.74851e-16)
(0 7.05592e-30 -5.87994e-31 12.5275 5.90775e-16 -6.60742e-15 0.258487 -2.7609e-16 -1.86874e-16)
(-5.77566e-16 -7.55582e-30 -3.95065e-31 12.4907 -4.7283e-16 -1.35074e-14 0.2625 -8.50096e-18 -2.88631e-16)
(1.80502e-15 9.2355e-30 2.88609e-31 12.4907 6.66446e-16 -1.40991e-14 0.2625 -2.75604e-16 -2.74211e-16)
(-6.31389e-16 -2.72632e-31 8.84529e-32 12.4501 -4.39642e-16 -1.39122e-14 0.266489 -1.01932e-17 -3.02565e-16)
(0 2.26657e-30 0 12.4501 5.55785e-16 -1.91434e-14 0.266489 -2.71958e-16 -3.3183e-16)
(-1.29866e-15 1.51146e-29 1.72536e-31 12.4055 -4.17713e-16 -1.4264e-14 0.270441 -7.86338e-18 -3.14875e-16)
(-2.59733e-15 -1.11252e-29 0 12.4055 3.58408e-16 -1.91209e-14 0.270441 -2.71112e-16 -3.89988e-16)
(6.67556e-16 0 -8.41413e-32 12.3563 -1.81118e-28 -1.45818e-14 0.274344 -5.00695e-47 -3.28111e-16)
(-2.67022e-15 -1.09213e-29 1.41334e-32 12.3563 4.14331e-16 -1.90726e-14 0.274344 -2.73006e-16 -4.23536e-16)
(-6.03548e-16 6.4327e-30 5.36058e-31 12.3024 1.03253e-17 -1.48784e-14 0.278185 -4.9447e-19 -4.06243e-16)
(-1.2071e-15 -2.14423e-30 0 12.3024 7.00351e-16 -1.90634e-14 0.278185 -2.71915e-16 -4.32678e-16)
(-1.40968e-15 -4.43457e-30 6.47166e-31 12.2432 -4.97201e-16 -1.52036e-14 0.281949 -2.29219e-17 -4.98739e-16)
(5.63872e-15 8.41976e-30 -6.73097e-31 12.2432 9.22146e-16 -1.90439e-14 0.281949 -2.62938e-16 -4.38593e-16)
(-7.23895e-16 8.18831e-30 4.933e-32 12.1784 -1.62294e-15 -1.55013e-14 0.285622 -5.29881e-17 -5.81841e-16)
(2.89558e-15 -6.1991e-30 -1.04623e-31 12.1784 7.84974e-16 -1.89483e-14 0.285622 -2.54127e-16 -4.44486e-16)
(0 -6.08551e-30 -5.07126e-31 12.1077 -2.43782e-15 -1.56586e-14 0.289187 -6.28304e-17 -6.59321e-16)
(0 8.11401e-30 0 12.1077 5.99885e-16 -1.8831e-14 0.289187 -2.44117e-16 -4.495e-16)
(-7.62808e-16 3.98651e-30 5.266e-31 12.0308 -2.11143e-15 -1.57995e-14 0.292628 -3.90537e-17 -7.324e-16)
(3.05123e-15 3.98266e-30 -1.70398e-31 12.0308 1.12192e-15 -1.86362e-14 0.292628 -2.37337e-16 -4.51728e-16)
(0 5.86452e-30 -4.8871e-31 11.9472 -1.10025e-15 -1.59212e-14 0.295929 -1.4922e-17 -7.96414e-16)
(0 -1.95484e-30 4.8871e-31 11.9472 1.20538e-15 -1.83964e-14 0.295929 -2.31595e-16 -4.54516e-16)
(-1.88306e-15 9.6745e-30 1.28507e-32 11.8568 -6.74224e-16 -1.60308e-14 0.299073 -1.89479e-17 -8.54276e-16)
(0 -1.91902e-30 9.59509e-31 11.8568 5.96789e-16 -1.81077e-14 0.299073 -2.24893e-16 -4.54128e-16)
(0 7.53541e-30 0 11.7591 -6.06531e-16 -1.61355e-14 0.302044 -1.19917e-17 -9.00525e-16)
(-1.06051e-15 -3.76771e-30 9.41926e-31 11.7591 4.9394e-16 -1.7788e-14 0.302044 -2.19197e-16 -4.55147e-16)
(0 -9.24666e-30 0 11.6542 -6.92905e-16 -1.61808e-14 0.304825 -2.42014e-17 -9.38671e-16)
(3.37466e-15 9.24666e-30 -3.11842e-31 11.6542 1.09217e-16 -1.74365e-14 0.304825 -2.1854e-16 -4.52764e-16)
(0 1.27081e-29 0 11.5417 -1.23292e-15 -1.61907e-14 0.307402 -4.13547e-17 -9.65804e-16)
(0 -1.27081e-29 0 11.5417 -1.58262e-16 -1.70486e-14 0.307402 -2.15884e-16 -4.5153e-16)
(-8.85462e-16 3.78124e-30 0 11.4215 -1.63435e-15 -1.61631e-14 0.30976 -4.70068e-17 -9.79211e-16)
(3.54185e-15 1.78218e-30 -3.85394e-31 11.4215 7.4333e-16 -1.66697e-14 0.30976 -2.08062e-16 -4.49165e-16)
(0 -8.74759e-30 8.74759e-31 11.2938 -1.56043e-15 -1.60908e-14 0.311887 -3.8806e-17 -9.91528e-16)
(3.62664e-15 8.74759e-30 -1.29957e-30 11.2938 5.66573e-16 -1.62005e-14 0.311887 -1.98228e-16 -4.42474e-16)
(-9.28041e-16 1.57462e-29 -8.56594e-31 11.1583 -9.69989e-16 -1.59433e-14 0.31377 -1.53638e-17 -9.90016e-16)
(-3.71217e-15 -1.37397e-29 1.32403e-30 11.1583 -1.14557e-15 -1.56061e-14 0.31377 -1.93862e-16 -4.32452e-16)
(0 -6.74395e-30 -1.68599e-30 11.0154 -7.61753e-16 -1.5727e-14 0.3154 -2.82637e-17 -9.74062e-16)
(-3.79835e-15 8.42994e-30 5.04019e-31 11.0154 -8.01125e-16 -1.49923e-14 0.3154 -2.05487e-16 -4.23767e-16)
(-1.94256e-15 2.35314e-30 2.44489e-32 10.8651 -1.41143e-15 -1.5512e-14 0.316769 -5.40952e-17 -9.47959e-16)
(3.88513e-15 1.65509e-30 -5.42639e-31 10.8651 6.32272e-16 -1.44096e-14 0.316769 -1.96598e-16 -4.14528e-16)
(-1.98622e-15 7.62039e-31 4.01425e-32 10.7078 -1.93525e-15 -1.52814e-14 0.317871 -6.06641e-17 -9.09813e-16)
(0 3.24953e-30 0 10.7078 1.37741e-15 -1.37963e-14 0.317871 -1.892e-16 -4.03047e-16)
(8.97899e-16 -6.37996e-30 7.97495e-31 10.5437 -1.74313e-15 -1.4988e-14 0.318704 -4.44262e-17 -8.5983e-16)
(3.1623e-15 6.37996e-30 -1.41881e-30 10.5437 1.58893e-15 -1.31794e-14 0.318704 -1.70147e-16 -3.92555e-16)
(-2.79998e-15 1.19699e-29 8.2386e-31 10.3732 -5.90418e-16 -1.46551e-14 0.319266 -9.07788e-18 -8.00536e-16)
(-4.14835e-15 -9.39457e-30 6.6023e-31 10.3732 9.42613e-16 -1.25744e-14 0.319266 -1.59989e-16 -3.8068e-16)
(1.0592e-15 -7.29993e-30 -5.35066e-32 10.1968 -1.28708e-28 -1.4237e-14 0.319559 0 -7.3178e-16)
(0 6.14828e-30 0 10.1968 3.19024e-16 -1.18673e-14 0.319559 -1.63142e-16 -3.6263e-16)
(1.08137e-15 -1.85091e-29 -6.76807e-32 10.015 9.242e-17 -1.37866e-14 0.319585 -1.47453e-18 -6.51974e-16)
(-4.32548e-15 6.03561e-30 7.42906e-31 10.015 -3.4726e-16 -1.10658e-14 0.319585 -1.47916e-16 -3.43396e-16)
(-2.20716e-15 1.58721e-29 1.68121e-31 9.82827 5.48066e-16 -1.34994e-14 0.31935 -3.02662e-17 -5.58006e-16)
(0 -5.92501e-30 1.48125e-30 9.82827 -1.55121e-17 -1.03424e-14 0.31935 -1.37363e-16 -3.28829e-16)
(0 1.16329e-29 0 9.63729 7.86342e-17 -1.32403e-14 0.318862 -5.13125e-18 -4.46574e-16)
(0 -1.16329e-29 0 9.63729 -5.15511e-16 -9.58792e-15 0.318862 -1.04809e-16 -3.05906e-16)
(1.14803e-15 8.41771e-31 -1.10096e-31 9.44265 -1.75805e-16 -1.27977e-14 0.318131 -1.20001e-17 -4.26713e-16)
(-9.18426e-15 -2.85493e-30 1.71884e-30 9.44265 -1.67012e-15 -8.75918e-15 0.318131 -1.01895e-16 -2.84791e-16)
(1.17024e-15 -1.04059e-29 -1.15928e-31 9.24497 -2.04725e-15 -1.22296e-14 0.317166 -1.29774e-16 -4.13573e-16)
(0 8.40784e-30 0 9.24497 1.04964e-16 -8.02251e-15 0.317166 -1.12872e-16 -2.66338e-16)
(0 -1.37563e-29 0 9.04487 -3.64716e-15 -1.1628e-14 0.315981 -1.25495e-16 -4.00288e-16)
(4.76966e-15 1.37563e-29 -9.28215e-31 9.04487 1.89097e-15 -7.35497e-15 0.315981 -7.82625e-17 -2.48357e-16)
(1.21453e-15 -2.01201e-30 -1.47819e-30 8.84301 -3.20399e-15 -1.1001e-14 0.314588 -1.02767e-16 -3.8403e-16)
(4.85813e-15 2.70084e-30 -9.6563e-31 8.84301 1.28691e-15 -6.62028e-15 0.314588 -3.59698e-17 -2.23495e-16)
(5.11988e-16 -1.18925e-29 -2.38216e-30 8.63998 -3.36666e-15 -1.0283e-14 0.313002 -1.42151e-16 -3.62728e-16)
(-1.49258e-15 1.32567e-29 0 8.63998 -8.97769e-17 -5.94838e-15 0.313002 -3.81637e-17 -2.85666e-16)
(-1.05187e-15 -6.36681e-30 2.80443e-31 8.4364 -2.65e-15 -9.63095e-15 0.311238 -5.31143e-17 -3.498e-16)
(5.03418e-15 1.0411e-29 -8.90127e-31 8.4364 -2.39418e-16 -5.45949e-15 0.311238 -3.73897e-17 -4.3994e-16)
(1.28041e-15 -1.83152e-29 -1.4229e-30 8.23284 -3.97782e-16 -9.14015e-15 0.30931 -7.4959e-18 -3.39057e-16)
(1.02433e-14 1.02203e-29 -3.76006e-31 8.23284 7.29043e-17 -4.91587e-15 0.30931 -1.27633e-17 -5.94337e-16)
(-1.30216e-15 -5.50263e-30 -1.10251e-30 8.02984 -6.44473e-16 -8.57446e-15 0.307233 -4.23112e-17 -3.1914e-16)
(0 1.0033e-29 1.25412e-30 8.02984 -8.8472e-16 -4.35037e-15 0.307233 -8.45925e-18 -7.58444e-16)
(-2.64757e-15 -1.4013e-45 3.14769e-31 7.82791 4.93038e-32 -7.95025e-15 0.305023 0 -3.02553e-16)
(5.29514e-15 -2.46228e-30 -6.88504e-31 7.82791 -1.19948e-15 -3.8921e-15 0.305023 -1.15213e-17 -9.18643e-16)
(-1.34527e-15 3.58351e-30 1.60656e-31 7.62752 9.1514e-16 -7.59286e-15 0.302695 -1.8229e-17 -3.02424e-16)
(5.3811e-15 2.41716e-30 -6.19044e-31 7.62752 -1.48529e-15 -3.35594e-15 0.302695 6.60026e-18 -1.07583e-15)
(-1.33581e-15 9.49148e-30 1.18643e-30 7.4291 1.69932e-15 -7.24899e-15 0.300263 -6.49506e-17 -2.85783e-16)
(0 -4.74574e-30 0 7.4291 -2.36422e-15 -2.8876e-15 0.300263 -5.13176e-18 -1.25645e-15)
(1.3878e-15 -9.00066e-30 -1.71849e-31 7.23305 1.65194e-15 -6.72757e-15 0.29774 -7.30489e-17 -2.70307e-16)
(5.5512e-15 6.98816e-30 -4.51165e-31 7.23305 -2.41216e-15 -2.49909e-15 0.29774 -3.90845e-17 -1.42976e-15)
(3.98342e-15 -1.11567e-29 -1.75378e-31 7.03969 4.12552e-16 -6.3909e-15 0.29514 -6.34444e-17 -2.67932e-16)
(3.06069e-15 9.14681e-30 -3.66929e-31 7.03969 -1.82284e-15 -1.97996e-15 0.29514 -4.4897e-17 -1.60608e-15)
(-1.42967e-15 2.00441e-30 1.8131e-31 6.84935 -1.56955e-15 -6.06828e-15 0.292476 -1.05807e-16 -2.52556e-16)
(5.71868e-15 4.4896e-30 -2.70123e-31 6.84935 8.33554e-16 -1.422e-15 0.292476 -1.90183e-17 -1.80143e-15)
(1.45034e-15 -8.62544e-30 -2.39364e-30 6.66227 -1.82214e-15 -5.37239e-15 0.28976 -5.29531e-17 -2.16642e-16)
(0 6.61099e-30 2.20366e-30 6.66227 1.38176e-16 -1.01254e-15 0.28976 2.48953e-17 -2.00479e-15)
(-2.68865e-15 0 2.35934e-30 6.4787 9.07683e-29 -4.63936e-15 0.287001 3.15544e-30 -1.96203e-16)
(5.88332e-15 -2.16328e-30 -7.73548e-32 6.4787 -1.36333e-15 -7.33539e-16 0.287001 -5.12166e-18 -2.18223e-15)
(1.49113e-15 -1.09128e-29 -2.32421e-30 6.29881 1.548e-15 -4.18699e-15 0.284212 -3.5097e-17 -1.83397e-16)
(0 6.37092e-30 2.12364e-30 6.29881 -1.62835e-15 -3.29692e-16 0.284212 7.90295e-18 -2.34186e-15)
(-1.51124e-15 8.25082e-30 2.03304e-31 6.12275 8.05479e-16 -4.00009e-15 0.2814 -1.18558e-16 -1.86169e-16)
(6.04498e-15 -2.08473e-30 2.08473e-30 6.12275 -3.23191e-15 1.26478e-16 0.2814 -3.7338e-17 -2.36032e-15)
(1.53116e-15 -2.01492e-30 -2.08618e-31 5.95066 9.00157e-29 -3.78054e-15 0.278575 0 -1.69454e-16)
(6.12465e-15 -2.04652e-30 0 5.95066 -2.39305e-15 4.47606e-16 0.278575 -6.62918e-17 -2.37307e-15)
(0 4.01804e-30 0 5.78262 2.18791e-15 -3.3377e-15 0.275745 -2.94257e-16 -1.50335e-16)
(6.20354e-15 0 0 5.78262 -2.98667e-15 6.92837e-16 0.275745 -7.01375e-17 -2.39119e-15)
(-2.22051e-15 -2.16982e-44 0 5.61871 7.82252e-29 -2.88035e-15 0.272916 -1.64302e-47 -1.3076e-16)
(-6.28164e-15 -3.94441e-30 0 5.61871 -4.86759e-15 9.32231e-16 0.272916 -1.37987e-16 -2.4085e-15)
(0 9.68033e-30 1.93607e-30 5.45895 2.11475e-15 -2.60241e-15 0.270095 -1.57061e-16 -1.28094e-16)
(6.35896e-15 -9.68033e-30 -1.93607e-30 5.45895 -4.49832e-15 1.30337e-15 0.270095 -2.08052e-16 -2.42817e-15)
(5.31002e-16 -1.13148e-29 -1.6724e-30 5.30337 3.03927e-16 -2.34722e-15 0.267288 -5.23389e-17 -1.09587e-16)
(0 1.52047e-29 1.90059e-30 5.30337 -3.87778e-15 1.53962e-15 0.267288 -2.38154e-16 -2.43844e-15)
(-1.6278e-15 1.33684e-31 2.32058e-31 5.15198 -2.97626e-16 -2.02142e-15 0.264499 -8.3637e-18 -9.89761e-17)
(6.51122e-15 5.59728e-30 0 5.15198 -3.83019e-15 1.63007e-15 0.264499 -2.88364e-16 -2.45601e-15)
(2.06217e-15 0 0 5.00475 0 -1.73225e-15 0.261734 0 -8.30258e-17)
(0 1.09894e-29 0 5.00475 -4.16995e-15 1.75288e-15 0.261734 -3.22883e-16 -2.46847e-15)
(-2.02438e-15 7.19204e-30 0 4.86166 1.53675e-15 -1.16145e-15 0.258995 -6.71241e-17 -4.09936e-17)
(0 -3.59602e-30 0 4.86166 -4.47992e-15 1.82839e-15 0.258995 -3.65712e-16 -2.48186e-15)
(1.68343e-15 -1.43378e-29 -2.42792e-31 4.72266 2.23338e-15 -6.33372e-16 0.256288 -9.77673e-17 -2.7996e-17)
(6.73372e-15 1.05904e-29 0 4.72266 -4.10343e-15 2.25316e-15 0.256288 -4.02534e-16 -2.499e-15)
(-2.20015e-15 6.6904e-30 1.49207e-30 4.58769 3.24787e-15 -6.16405e-16 0.253614 -1.46375e-16 -4.06348e-17)
(6.80634e-15 -1.73272e-30 0 4.58769 -4.82947e-15 2.61496e-15 0.253614 -4.67915e-16 -2.51192e-15)
(0 1.70097e-30 0 4.4567 3.15104e-15 -5.77607e-16 0.250975 -2.15266e-16 -2.4617e-17)
(6.8782e-15 1.70097e-30 0 4.4567 -5.2091e-15 2.5739e-15 0.250975 -5.49444e-16 -2.52706e-15)
(-3.47465e-15 3.91834e-30 4.88054e-31 4.32962 2.76972e-15 -3.21341e-16 0.248375 -1.40825e-16 -1.23326e-17)
(6.9493e-15 0 0 4.32962 -4.25847e-15 2.56133e-15 0.248375 -5.88632e-16 -2.5399e-15)
(1.75491e-15 -1.50559e-29 -9.12515e-31 4.20635 3.62397e-15 -4.68969e-17 0.245815 -1.78985e-16 -1.3775e-18)
(7.01966e-15 1.31136e-29 0 4.20635 -4.50406e-15 2.66405e-15 0.245815 -6.25914e-16 -2.55438e-15)
(0 9.65496e-30 -2.43875e-31 4.08683 4.52349e-15 1.53441e-29 0.243296 -2.47436e-16 -3.9443e-31)
(-7.08928e-15 -9.65496e-30 0 4.08683 -5.26876e-15 2.72122e-15 0.243296 -6.98754e-16 -2.56325e-15)
(0 0 0 3.97097 4.91212e-15 4.5119e-16 0.24082 -2.94394e-16 -1.67052e-17)
(0 0 0 3.97097 -4.64623e-15 2.78706e-15 0.24082 -7.80414e-16 -2.5793e-15)
(-5.35915e-15 1.61872e-29 4.72388e-31 3.85867 4.86715e-15 5.85905e-16 0.238387 -3.04584e-16 -3.85053e-17)
(1.74596e-15 -1.24058e-29 0 3.85867 -4.40146e-15 3.05311e-15 0.238387 -8.43102e-16 -2.59781e-15)
(-1.82347e-15 7.96777e-30 2.3499e-31 3.74984 5.39846e-15 5.61882e-16 0.235998 -2.9985e-16 -3.42218e-17)
(-3.42793e-15 -3.04462e-30 0 3.74984 -5.47891e-15 3.14454e-15 0.235998 -8.73811e-16 -2.60259e-15)
(-3.36512e-15 1.49441e-29 2.98883e-30 3.64439 6.44845e-15 8.32283e-16 0.233653 -3.83907e-16 -3.68887e-17)
(-5.67812e-15 -1.19553e-29 0 3.64439 -6.38982e-15 2.91867e-15 0.233653 -9.53075e-16 -2.60932e-15)
(4.09948e-16 -7.385e-31 -4.55541e-31 3.54223 7.44248e-15 1.26845e-15 0.231353 -4.4773e-16 -7.06846e-17)
(0 -2.93406e-30 0 3.54223 -6.25936e-15 2.90968e-15 0.231353 -1.05943e-15 -2.6201e-15)
(-1.11824e-15 7.90863e-30 9.92796e-31 3.44326 7.14089e-15 1.1538e-15 0.229099 -5.30088e-16 -9.60742e-17)
(9.11373e-15 -8.64087e-30 0 3.44326 -5.49591e-15 3.13081e-15 0.229099 -1.14156e-15 -2.63609e-15)
(-1.88927e-15 1.80521e-30 2.28363e-31 3.34738 5.46567e-15 9.68958e-16 0.226888 -4.23893e-16 -5.78721e-17)
(7.55708e-15 5.65502e-30 0 3.34738 -5.36709e-15 2.90294e-15 0.226888 -1.20281e-15 -2.6389e-15)
(3.81063e-15 -8.33802e-31 -4.48984e-31 3.25451 4.33916e-15 1.34977e-15 0.224723 -3.19721e-16 -7.42789e-17)
(-1.56258e-15 -2.7757e-30 0 3.25451 -4.99099e-15 2.52418e-15 0.224723 -1.28576e-15 -2.64691e-15)
(1.9212e-15 -1.79759e-30 -2.1648e-31 3.16455 3.95416e-15 1.86766e-15 0.222602 -2.8208e-16 -1.13392e-16)
(7.68481e-15 2.72483e-30 0 3.16455 -4.70821e-15 2.587e-15 0.222602 -1.38122e-15 -2.66052e-15)
(-1.93694e-15 4.46168e-30 2.09628e-31 3.07741 4.91449e-15 2.10644e-15 0.220525 -2.76837e-16 -1.50971e-16)
(0 0 0 3.07741 -4.88821e-15 2.67456e-15 0.220525 -1.50715e-15 -2.67409e-15)
(0 0 -1.31294e-30 2.99299 6.36755e-15 2.05757e-15 0.218492 -4.32288e-16 -1.5237e-16)
(1.56202e-14 2.62588e-30 0 2.99299 -4.14547e-15 2.61407e-15 0.218492 -1.61446e-15 -2.68893e-15)
(-1.96796e-15 -6.01416e-30 -1.08725e-30 2.91122 7.41096e-15 2.1318e-15 0.216502 -5.02404e-16 -1.49424e-16)
(-2.90231e-15 7.7333e-30 1.28888e-30 2.91122 -3.82951e-15 2.37288e-15 0.216502 -1.66904e-15 -2.6976e-15)
(0 -5.06106e-30 0 2.832 8.58374e-15 2.06795e-15 0.214554 -6.05946e-16 -1.69306e-16)
(1.5866e-14 7.59159e-30 0 2.832 -4.49371e-15 2.34914e-15 0.214554 -1.7275e-15 -2.72166e-15)
(-4.79532e-15 1.15866e-29 1.94145e-31 2.75525 7.34744e-15 1.93269e-15 0.212648 -7.01517e-16 -1.45246e-16)
(2.79691e-15 -9.93663e-30 0 2.75525 -6.27438e-15 2.38235e-15 0.212648 -1.80658e-15 -2.73707e-15)
(2.74566e-15 -2.43864e-30 -1.21932e-30 2.68089 4.83488e-15 2.13793e-15 0.210784 -4.35292e-16 -1.54516e-16)
(8.05367e-15 2.43864e-30 0 2.68089 -6.12927e-15 2.4541e-15 0.210784 -1.93494e-15 -2.76482e-15)
(2.0283e-15 -1.12565e-29 -1.37703e-30 2.60883 4.82269e-15 2.20715e-15 0.20896 -3.27387e-16 -1.83441e-16)
(1.62264e-14 9.5758e-30 1.19697e-30 2.60883 -4.54907e-15 2.73904e-15 0.20896 -2.01446e-15 -2.76619e-15)
(-2.04304e-15 1.64458e-30 1.78895e-31 2.53901 6.59885e-15 1.96412e-15 0.207175 -4.49714e-16 -1.7158e-16)
(8.17218e-15 0 0 2.53901 -4.84962e-15 2.73014e-15 0.207175 -2.12048e-15 -2.75677e-15)
(-5.39808e-16 5.32272e-30 2.12835e-30 2.47134 7.58583e-15 1.96233e-15 0.20543 -6.33559e-16 -1.50148e-16)
(8.23065e-15 0 0 2.47134 -5.31814e-15 2.4662e-15 0.20543 -2.22546e-15 -2.76e-15)
(-4.14431e-15 7.68529e-30 3.39807e-31 2.40575 6.93887e-15 2.00928e-15 0.203723 -6.32987e-16 -1.77743e-16)
(8.28861e-15 -2.26474e-30 0 2.40575 -4.80925e-15 2.56383e-15 0.203723 -2.32797e-15 -2.77807e-15)
(0 -4.44648e-30 1.11162e-30 2.34217 6.7472e-15 1.57184e-15 0.202053 -5.46371e-16 -1.63867e-16)
(1.4189e-14 6.66972e-30 0 2.34217 -2.64535e-15 2.60403e-15 0.202053 -2.4439e-15 -2.78017e-15)
(0 2.1825e-30 1.09125e-30 2.28054 6.45329e-15 1.60201e-15 0.20042 -6.23322e-16 -1.07943e-16)
(8.40307e-15 0 0 2.28054 -3.66485e-15 2.16457e-15 0.20042 -2.50167e-15 -2.77711e-15)
(-2.1149e-15 3.6957e-30 1.58987e-31 2.22077 6.3924e-15 2.21293e-15 0.198822 -5.14603e-16 -1.75417e-16)
(0 0 0 2.22077 -4.58967e-15 1.29485e-15 0.198822 -2.65812e-15 -2.7644e-15)
(-2.39135e-16 5.91154e-31 9.04976e-31 2.16282 6.99589e-15 2.34899e-15 0.19726 -6.3576e-16 -2.22869e-16)
(2.36804e-15 -6.30974e-30 -1.05162e-30 2.16282 -3.71061e-15 -3.323e-17 0.19726 -2.72855e-15 -2.75645e-15)
(-2.32465e-15 2.0647e-30 1.03235e-30 2.10662 6.21853e-15 2.18109e-15 0.195731 -6.4555e-16 -2.07176e-16)
(0 0 0 2.10662 -4.21519e-15 -5.6417e-16 0.195731 -2.83987e-15 -2.77628e-15)
(-2.1566e-15 9.59094e-30 1.1505e-30 2.05211 5.94984e-15 2.14225e-15 0.194236 -5.13341e-16 -1.99653e-16)
(0 -8.10748e-30 -1.01343e-30 2.05211 -4.73241e-15 -3.08152e-16 0.194236 -2.89399e-15 -2.79521e-15)
(-2.17028e-15 5.44257e-30 1.32593e-31 1.99922 6.72423e-15 2.43185e-15 0.192774 -6.18337e-16 -2.07533e-16)
(-1.09214e-14 -1.98973e-30 0 1.99922 -4.99391e-15 -3.92602e-16 0.192774 -3.02452e-15 -2.80682e-15)
(-4.38304e-15 -2.46804e-30 1.19939e-31 1.94791 6.45415e-15 2.35654e-15 0.191343 -6.83996e-16 -2.63762e-16)
(1.74708e-14 3.90653e-30 0 1.94791 -2.96286e-15 -8.64578e-16 0.191343 -3.11345e-15 -2.79534e-15)
(2.15888e-15 -3.83495e-30 0 1.89812 5.60289e-15 1.85203e-15 0.189942 -5.87879e-16 -2.00364e-16)
(6.63042e-15 3.83495e-30 0 1.89812 -2.77165e-15 -1.26346e-15 0.189942 -3.15769e-15 -2.80869e-15)
(-2.2107e-15 3.29329e-30 1.06512e-30 1.8498 6.28404e-15 1.43387e-15 0.188572 -5.37171e-16 -1.71407e-16)
(8.84278e-15 0 0 1.8498 -3.26177e-15 -1.47366e-15 0.188572 -3.33627e-15 -2.85236e-15)
(0 1.84784e-30 9.23922e-31 1.80289 7.25923e-15 1.23515e-15 0.187231 -7.50719e-16 -1.21546e-16)
(6.81538e-15 -1.84784e-30 0 1.80289 -2.32554e-15 -1.86001e-15 0.187231 -3.40073e-15 -2.90105e-15)
(-2.23714e-15 -2.30393e-30 -7.89638e-31 1.75736 6.21907e-15 1.01514e-15 0.185919 -7.62589e-16 -1.36058e-16)
(8.94856e-15 3.62796e-30 1.81398e-30 1.75736 -2.29275e-15 -1.79976e-15 0.185919 -3.45943e-15 -2.97572e-15)
(2.00494e-15 -5.34223e-30 0 1.71314 5.26591e-15 5.70536e-16 0.184634 -5.56076e-16 -7.89729e-17)
(6.99594e-15 5.34223e-30 0 1.71314 -2.24572e-15 -1.1764e-15 0.184634 -3.54039e-15 -3.02473e-15)
(-2.26321e-15 1.32745e-30 1.25909e-31 1.67021 4.35051e-15 1.20336e-16 0.183376 -5.83226e-16 -4.41153e-17)
(0 1.74811e-30 0 1.67021 -2.28603e-15 -8.58843e-16 0.183376 -3.59033e-15 -3.0448e-15)