/*--------------------------------*- C++ -*----------------------------------*\
| =========                 |                                                 |
| \\      /  F ield         | OpenFOAM: The Open Source CFD Toolbox           |
|  \\    /   O peration     | Version:  2106                                  |
|   \\  /    A nd           | Website:  www.openfoam.com                      |
|    \\/     M anipulation  |                                                 |
\*---------------------------------------------------------------------------*/
FoamFile
{
    version     2.0;
    format      ascii;
    arch        "LSB;label=32;scalar=64";
    class       volScalarField;
    location    "10090";
    object      p;
}
// * * * * * * * * * * * * * * * * * * * * * * * * * * * * * * * * * * * * * //

dimensions      [0 2 -2 0 0 0 0];

internalField   nonuniform List<scalar> 
2000
(
3.71745e-15
1.34618e-14
8.54815e-15
1.34652e-14
9.55819e-15
1.34693e-14
9.52598e-15
1.34756e-14
9.57243e-15
1.34843e-14
9.76774e-15
1.34953e-14
9.98335e-15
1.35087e-14
1.0186e-14
1.35244e-14
1.03775e-14
1.35426e-14
1.05604e-14
1.3563e-14
1.07353e-14
1.35856e-14
1.09026e-14
1.36103e-14
1.10625e-14
1.36372e-14
1.1215e-14
1.36661e-14
1.13602e-14
1.36971e-14
1.14983e-14
1.37301e-14
1.16296e-14
1.37648e-14
1.17542e-14
1.38014e-14
1.18722e-14
1.38398e-14
1.19837e-14
1.38798e-14
1.20888e-14
1.39214e-14
1.21877e-14
1.39647e-14
1.22804e-14
1.40096e-14
1.23672e-14
1.4056e-14
1.24481e-14
1.41037e-14
1.25233e-14
1.41528e-14
1.25929e-14
1.42032e-14
1.26573e-14
1.42547e-14
1.27161e-14
1.43076e-14
1.277e-14
1.43614e-14
1.28185e-14
1.44163e-14
1.28627e-14
1.4472e-14
1.29022e-14
1.45286e-14
1.29372e-14
1.45857e-14
1.2968e-14
1.46435e-14
1.29945e-14
1.4702e-14
1.3017e-14
1.47607e-14
1.30353e-14
1.48203e-14
1.30498e-14
1.48803e-14
1.30607e-14
1.49404e-14
1.30681e-14
1.5001e-14
1.30716e-14
1.50619e-14
1.30722e-14
1.51229e-14
1.30702e-14
1.51839e-14
1.30649e-14
1.52447e-14
1.30566e-14
1.53056e-14
1.30456e-14
1.53661e-14
1.30326e-14
1.54266e-14
1.30167e-14
1.54879e-14
1.2999e-14
1.55492e-14
1.29791e-14
1.56096e-14
1.29577e-14
1.56698e-14
1.29334e-14
1.57299e-14
1.29081e-14
1.57896e-14
1.2881e-14
1.58489e-14
1.28515e-14
1.59072e-14
1.28206e-14
1.59651e-14
1.27886e-14
1.60228e-14
1.27554e-14
1.60799e-14
1.27211e-14
1.61356e-14
1.2686e-14
1.619e-14
1.26497e-14
1.62432e-14
1.26129e-14
1.62961e-14
1.25754e-14
1.63487e-14
1.2539e-14
1.63995e-14
1.25022e-14
1.64498e-14
1.24651e-14
1.64983e-14
1.24276e-14
1.65459e-14
1.23897e-14
1.65925e-14
1.23519e-14
1.66381e-14
1.23143e-14
1.66827e-14
1.22765e-14
1.67266e-14
1.22393e-14
1.67699e-14
1.22018e-14
1.68116e-14
1.2165e-14
1.68512e-14
1.21282e-14
1.68901e-14
1.2092e-14
1.69279e-14
1.20571e-14
1.6964e-14
1.20208e-14
1.69989e-14
1.19854e-14
1.70317e-14
1.19514e-14
1.70627e-14
1.19159e-14
1.70927e-14
1.18808e-14
1.71225e-14
1.18458e-14
1.71491e-14
1.18126e-14
1.71733e-14
1.17823e-14
1.71959e-14
1.17534e-14
1.72165e-14
1.17277e-14
1.72327e-14
1.17042e-14
1.72478e-14
1.16816e-14
1.7262e-14
1.16615e-14
1.72728e-14
1.16424e-14
1.72818e-14
1.16255e-14
1.72903e-14
1.16066e-14
1.72966e-14
1.15907e-14
1.73015e-14
1.15771e-14
1.73065e-14
1.15648e-14
1.7311e-14
1.15577e-14
1.73098e-14
1.15523e-14
1.73057e-14
1.15503e-14
1.72989e-14
1.1546e-14
1.72936e-14
1.15463e-14
1.72874e-14
1.15509e-14
1.72802e-14
1.15567e-14
1.72679e-14
1.15636e-14
1.7258e-14
1.15757e-14
1.72462e-14
1.15899e-14
1.72356e-14
1.16089e-14
1.72234e-14
1.1628e-14
1.72067e-14
1.16578e-14
1.71887e-14
1.1684e-14
1.71725e-14
1.17128e-14
1.71568e-14
1.17455e-14
1.71417e-14
1.17817e-14
1.71275e-14
1.18214e-14
1.71111e-14
1.18626e-14
1.70908e-14
1.19068e-14
1.70735e-14
1.19537e-14
1.70559e-14
1.19997e-14
1.70365e-14
1.20548e-14
1.70121e-14
1.2105e-14
1.69979e-14
1.21604e-14
1.69839e-14
1.22189e-14
1.69669e-14
1.22891e-14
1.69486e-14
1.23604e-14
1.69291e-14
1.24291e-14
1.69156e-14
1.25018e-14
1.68974e-14
1.25714e-14
1.68818e-14
1.26338e-14
1.68652e-14
1.27069e-14
1.68514e-14
1.27832e-14
1.68441e-14
1.28626e-14
1.68398e-14
1.29373e-14
1.68311e-14
1.30184e-14
1.68218e-14
1.30942e-14
1.68269e-14
1.3176e-14
1.68279e-14
1.32633e-14
1.68208e-14
1.33485e-14
1.6821e-14
1.3439e-14
1.68207e-14
1.35269e-14
1.68201e-14
1.36121e-14
1.68073e-14
1.36942e-14
1.68096e-14
1.3785e-14
1.68154e-14
1.38683e-14
1.68286e-14
1.39438e-14
1.68375e-14
1.40152e-14
1.68579e-14
1.40901e-14
1.68823e-14
1.4156e-14
1.69108e-14
1.42283e-14
1.69397e-14
1.43148e-14
1.69651e-14
1.43828e-14
1.69873e-14
1.44478e-14
1.70022e-14
1.45011e-14
1.70265e-14
1.45914e-14
1.70523e-14
1.46775e-14
1.70713e-14
1.4759e-14
1.7092e-14
1.48273e-14
1.71309e-14
1.49067e-14
1.71637e-14
1.4972e-14
1.71738e-14
1.50391e-14
1.71862e-14
1.5133e-14
1.71927e-14
1.52285e-14
1.72012e-14
1.53006e-14
1.72197e-14
1.53656e-14
1.72485e-14
1.544e-14
1.72793e-14
1.55148e-14
1.72869e-14
1.55816e-14
1.72962e-14
1.56654e-14
1.73069e-14
1.57493e-14
1.73269e-14
1.58248e-14
1.73477e-14
1.59002e-14
1.73433e-14
1.59759e-14
1.73474e-14
1.60348e-14
1.73508e-14
1.61282e-14
1.73791e-14
1.62137e-14
1.73974e-14
1.63002e-14
1.73966e-14
1.63715e-14
1.73842e-14
1.6454e-14
1.73848e-14
1.65399e-14
1.73972e-14
1.66387e-14
1.7412e-14
1.67689e-14
1.74104e-14
1.68219e-14
1.73983e-14
1.68671e-14
1.73912e-14
1.69217e-14
1.73711e-14
1.69869e-14
1.73535e-14
1.70642e-14
1.73704e-14
1.71046e-14
1.7454e-14
1.7157e-14
1.74695e-14
1.72052e-14
1.74669e-14
1.72505e-14
1.74272e-14
1.72952e-14
1.73976e-14
1.73245e-14
1.74085e-14
1.73552e-14
1.74583e-14
1.73857e-14
1.74966e-14
1.74148e-14
1.75058e-14
1.74759e-14
1.75684e-14
1.75009e-14
1.76666e-14
1.75192e-14
1.77361e-14
1.75436e-14
1.7812e-14
1.75709e-14
1.78301e-14
1.76003e-14
1.78233e-14
1.76327e-14
1.78718e-14
1.76998e-14
1.78939e-14
1.77701e-14
1.79032e-14
1.77969e-14
1.78961e-14
1.78299e-14
1.80024e-14
1.78969e-14
1.79974e-14
1.79524e-14
1.80075e-14
1.80138e-14
1.80943e-14
1.80797e-14
1.81784e-14
1.81319e-14
1.82275e-14
1.81696e-14
1.82897e-14
1.82364e-14
1.83359e-14
1.83327e-14
1.84299e-14
1.83956e-14
1.84735e-14
1.8457e-14
1.85246e-14
1.85473e-14
1.86742e-14
1.86597e-14
1.87746e-14
1.87662e-14
1.88284e-14
1.88402e-14
1.89247e-14
1.89698e-14
1.90336e-14
1.90369e-14
1.90615e-14
1.91061e-14
1.9122e-14
1.92075e-14
1.92442e-14
1.92764e-14
1.94035e-14
1.93629e-14
1.94355e-14
1.94435e-14
1.94542e-14
1.95239e-14
1.94516e-14
1.95284e-14
1.95306e-14
1.95899e-14
1.95865e-14
1.96791e-14
1.96775e-14
1.97387e-14
1.97157e-14
1.98023e-14
1.97216e-14
1.97674e-14
1.97678e-14
1.98418e-14
1.98372e-14
1.98891e-14
1.98786e-14
1.99105e-14
1.99163e-14
1.99583e-14
1.99244e-14
1.99653e-14
1.99288e-14
1.99585e-14
1.99826e-14
1.99735e-14
1.99858e-14
1.99833e-14
1.99893e-14
2.00207e-14
2.00724e-14
2.00007e-14
2.0145e-14
2.00049e-14
2.01806e-14
2.00756e-14
2.01165e-14
2.00677e-14
2.0051e-14
2.00479e-14
2.00634e-14
1.9962e-14
2.00615e-14
1.99382e-14
1.99755e-14
1.18851e-14
1.26289e-14
1.18869e-14
1.26294e-14
1.18891e-14
1.26299e-14
1.18924e-14
1.26309e-14
1.18969e-14
1.26321e-14
1.19027e-14
1.26338e-14
1.19097e-14
1.26359e-14
1.1918e-14
1.26383e-14
1.19275e-14
1.26412e-14
1.19382e-14
1.26445e-14
1.19502e-14
1.26482e-14
1.19633e-14
1.26524e-14
1.19777e-14
1.2657e-14
1.19931e-14
1.2662e-14
1.20098e-14
1.26675e-14
1.20276e-14
1.26733e-14
1.20461e-14
1.26797e-14
1.20658e-14
1.26865e-14
1.20863e-14
1.2694e-14
1.21078e-14
1.27021e-14
1.21301e-14
1.27107e-14
1.21533e-14
1.27199e-14
1.21774e-14
1.27295e-14
1.22021e-14
1.27398e-14
1.22277e-14
1.27505e-14
1.22541e-14
1.27617e-14
1.22812e-14
1.27735e-14
1.23087e-14
1.27856e-14
1.23369e-14
1.27985e-14
1.23655e-14
1.28122e-14
1.23947e-14
1.28267e-14
1.24244e-14
1.28418e-14
1.24546e-14
1.28575e-14
1.24853e-14
1.28739e-14
1.25164e-14
1.28905e-14
1.2548e-14
1.29077e-14
1.25805e-14
1.29256e-14
1.26132e-14
1.29438e-14
1.26464e-14
1.29627e-14
1.26804e-14
1.29817e-14
1.27147e-14
1.3001e-14
1.27493e-14
1.3021e-14
1.27842e-14
1.30414e-14
1.28194e-14
1.30624e-14
1.28548e-14
1.30841e-14
1.28902e-14
1.31066e-14
1.29266e-14
1.31293e-14
1.29628e-14
1.31523e-14
1.29988e-14
1.31768e-14
1.30353e-14
1.32023e-14
1.30717e-14
1.32269e-14
1.31085e-14
1.32518e-14
1.31454e-14
1.32779e-14
1.31825e-14
1.33041e-14
1.32199e-14
1.33309e-14
1.32575e-14
1.33587e-14
1.32955e-14
1.33867e-14
1.33331e-14
1.34155e-14
1.33709e-14
1.34447e-14
1.3409e-14
1.34739e-14
1.34478e-14
1.35034e-14
1.3486e-14
1.35341e-14
1.35242e-14
1.35648e-14
1.35631e-14
1.35962e-14
1.36023e-14
1.36271e-14
1.36419e-14
1.36584e-14
1.36805e-14
1.36916e-14
1.37195e-14
1.37244e-14
1.37594e-14
1.37563e-14
1.37997e-14
1.37892e-14
1.38397e-14
1.3824e-14
1.38799e-14
1.38595e-14
1.39201e-14
1.3895e-14
1.39607e-14
1.39299e-14
1.40028e-14
1.39647e-14
1.40447e-14
1.39993e-14
1.40862e-14
1.40374e-14
1.41268e-14
1.40775e-14
1.41685e-14
1.41149e-14
1.421e-14
1.41527e-14
1.42514e-14
1.4193e-14
1.42928e-14
1.42337e-14
1.43336e-14
1.42737e-14
1.43746e-14
1.43122e-14
1.44165e-14
1.43506e-14
1.446e-14
1.43914e-14
1.45045e-14
1.4434e-14
1.45476e-14
1.44765e-14
1.45886e-14
1.45195e-14
1.46303e-14
1.45636e-14
1.46734e-14
1.46076e-14
1.47146e-14
1.46521e-14
1.47554e-14
1.46979e-14
1.47998e-14
1.47428e-14
1.48412e-14
1.47883e-14
1.48831e-14
1.48371e-14
1.49248e-14
1.48844e-14
1.49665e-14
1.49309e-14
1.50067e-14
1.49793e-14
1.50476e-14
1.50241e-14
1.50866e-14
1.50724e-14
1.51293e-14
1.51255e-14
1.51716e-14
1.51794e-14
1.5215e-14
1.52296e-14
1.52522e-14
1.52863e-14
1.52965e-14
1.53424e-14
1.53392e-14
1.53978e-14
1.53802e-14
1.54509e-14
1.54196e-14
1.5508e-14
1.54621e-14
1.55645e-14
1.55093e-14
1.56203e-14
1.55488e-14
1.56757e-14
1.55917e-14
1.57305e-14
1.56284e-14
1.57864e-14
1.56703e-14
1.58418e-14
1.57142e-14
1.58953e-14
1.57519e-14
1.5955e-14
1.57935e-14
1.60095e-14
1.58356e-14
1.60572e-14
1.58817e-14
1.60996e-14
1.59286e-14
1.61486e-14
1.59695e-14
1.62027e-14
1.60096e-14
1.62534e-14
1.60542e-14
1.62938e-14
1.60893e-14
1.63377e-14
1.61185e-14
1.63854e-14
1.61559e-14
1.64298e-14
1.61944e-14
1.64748e-14
1.62342e-14
1.65238e-14
1.62682e-14
1.65627e-14
1.62998e-14
1.65987e-14
1.63366e-14
1.66428e-14
1.63712e-14
1.6688e-14
1.63999e-14
1.67344e-14
1.64338e-14
1.67746e-14
1.6477e-14
1.68125e-14
1.65143e-14
1.6852e-14
1.65458e-14
1.68932e-14
1.65636e-14
1.69324e-14
1.65986e-14
1.69583e-14
1.66393e-14
1.69825e-14
1.66859e-14
1.70167e-14
1.67386e-14
1.70532e-14
1.67661e-14
1.70844e-14
1.6788e-14
1.71181e-14
1.68241e-14
1.71466e-14
1.68587e-14
1.7178e-14
1.6904e-14
1.72124e-14
1.6944e-14
1.72579e-14
1.69789e-14
1.72945e-14
1.7029e-14
1.73061e-14
1.70622e-14
1.73289e-14
1.70948e-14
1.73714e-14
1.71107e-14
1.74174e-14
1.71506e-14
1.74427e-14
1.71736e-14
1.74554e-14
1.71878e-14
1.74803e-14
1.72183e-14
1.75261e-14
1.72565e-14
1.75598e-14
1.72945e-14
1.75816e-14
1.73324e-14
1.76165e-14
1.73535e-14
1.76566e-14
1.73826e-14
1.76687e-14
1.74032e-14
1.76864e-14
1.74323e-14
1.77353e-14
1.74696e-14
1.7782e-14
1.75066e-14
1.78442e-14
1.75431e-14
1.78803e-14
1.75706e-14
1.78906e-14
1.75977e-14
1.79262e-14
1.76328e-14
1.79365e-14
1.76591e-14
1.793e-14
1.76942e-14
1.79406e-14
1.77044e-14
1.79685e-14
1.77317e-14
1.7997e-14
1.77675e-14
1.80009e-14
1.77951e-14
1.79971e-14
1.78149e-14
1.80027e-14
1.78527e-14
1.80093e-14
1.78746e-14
1.80507e-14
1.78971e-14
1.80766e-14
1.79278e-14
1.80963e-14
1.7967e-14
1.80761e-14
1.80163e-14
1.80662e-14
1.80261e-14
1.80658e-14
1.79964e-14
1.81094e-14
1.80613e-14
1.81312e-14
1.80687e-14
1.81638e-14
1.8069e-14
1.82087e-14
1.80776e-14
1.82511e-14
1.80764e-14
1.82768e-14
1.8132e-14
1.83222e-14
1.81775e-14
1.83544e-14
1.82137e-14
1.84243e-14
1.82737e-14
1.84665e-14
1.83252e-14
1.85497e-14
1.83841e-14
1.86087e-14
1.84512e-14
1.86777e-14
1.84774e-14
1.87073e-14
1.84968e-14
1.87315e-14
1.85092e-14
1.87685e-14
1.85136e-14
1.87717e-14
1.85431e-14
1.88076e-14
1.85801e-14
1.88285e-14
1.86247e-14
1.8786e-14
1.86495e-14
1.88243e-14
1.86868e-14
1.88285e-14
1.87544e-14
1.88311e-14
1.87755e-14
1.88782e-14
1.88294e-14
1.8971e-14
1.88814e-14
1.90001e-14
1.89659e-14
1.89976e-14
1.90107e-14
1.89889e-14
1.90518e-14
1.91289e-14
1.91131e-14
1.92673e-14
1.91895e-14
1.93517e-14
1.92814e-14
1.93549e-14
1.93028e-14
1.93601e-14
1.93772e-14
1.93946e-14
1.94763e-14
1.94859e-14
1.95103e-14
1.95722e-14
1.95636e-14
1.96889e-14
1.963e-14
1.97258e-14
1.97429e-14
1.97421e-14
1.9793e-14
1.97842e-14
1.98419e-14
1.98158e-14
1.99204e-14
1.98359e-14
1.99475e-14
1.98978e-14
2.00061e-14
1.98924e-14
2.00504e-14
1.99246e-14
2.01119e-14
2.00199e-14
2.01285e-14
2.01253e-14
2.01443e-14
2.01728e-14
2.01808e-14
2.02003e-14
2.0189e-14
2.01791e-14
2.0226e-14
2.0239e-14
2.02328e-14
2.02745e-14
2.01773e-14
2.02098e-14
2.01902e-14
2.02035e-14
2.0248e-14
2.02787e-14
2.02733e-14
2.02797e-14
2.022e-14
2.02575e-14
2.02099e-14
2.02704e-14
2.02071e-14
2.02905e-14
2.02086e-14
2.02664e-14
2.02201e-14
2.02136e-14
2.01985e-14
2.02224e-14
2.01359e-14
2.02068e-14
2.00668e-14
2.01253e-14
1.99963e-14
2.00169e-14
1.98962e-14
1.98941e-14
1.98503e-14
1.98964e-14
1.97427e-14
1.98505e-14
1.96557e-14
1.97222e-14
1.95972e-14
1.96018e-14
1.95388e-14
1.95748e-14
1.94778e-14
1.94851e-14
1.94204e-14
1.94484e-14
1.93667e-14
1.93955e-14
1.93085e-14
1.93147e-14
1.92468e-14
1.92285e-14
1.91835e-14
1.91604e-14
1.91433e-14
1.91622e-14
1.90642e-14
1.91419e-14
1.894e-14
1.90569e-14
1.88729e-14
1.89105e-14
1.87665e-14
1.88793e-14
1.87484e-14
1.88359e-14
1.86867e-14
1.87205e-14
1.86193e-14
1.86698e-14
1.85467e-14
1.8607e-14
1.8468e-14
1.85597e-14
1.84082e-14
1.84999e-14
1.83656e-14
1.84555e-14
1.83137e-14
1.83964e-14
1.82521e-14
1.83488e-14
1.82079e-14
1.82837e-14
1.81244e-14
1.81977e-14
1.80617e-14
1.80573e-14
1.80282e-14
1.79748e-14
1.79983e-14
1.7946e-14
1.79396e-14
1.79399e-14
1.78497e-14
1.79337e-14
1.77514e-14
1.78774e-14
1.77325e-14
1.7773e-14
1.76783e-14
1.77377e-14
1.76205e-14
1.77088e-14
1.75237e-14
1.7592e-14
1.74844e-14
1.75431e-14
1.7441e-14
1.75295e-14
1.73757e-14
1.7441e-14
1.73552e-14
1.73563e-14
1.73354e-14
1.73526e-14
1.72825e-14
1.73163e-14
1.72278e-14
1.73294e-14
1.72162e-14
1.72833e-14
1.72014e-14
1.72572e-14
1.71521e-14
1.72327e-14
1.71325e-14
1.71943e-14
1.71276e-14
1.71737e-14
1.71047e-14
1.71694e-14
1.70625e-14
1.71667e-14
1.705e-14
1.7151e-14
1.70515e-14
1.71055e-14
1.70193e-14
1.70622e-14
1.697e-14
1.70706e-14
1.69516e-14
1.71165e-14
1.68952e-14
1.71351e-14
1.68656e-14
1.70957e-14
1.68294e-14
1.69808e-14
1.68063e-14
1.69229e-14
1.67636e-14
1.69037e-14
1.6718e-14
1.68732e-14
1.66692e-14
1.68144e-14
1.66344e-14
1.67611e-14
1.65975e-14
1.67294e-14
1.65418e-14
1.66849e-14
1.65011e-14
1.66445e-14
1.64754e-14
1.65908e-14
1.64487e-14
1.65229e-14
1.63876e-14
1.64563e-14
1.63261e-14
1.6417e-14
1.63147e-14
1.6414e-14
1.62764e-14
1.63877e-14
1.62452e-14
1.63381e-14
1.62212e-14
1.62989e-14
1.61962e-14
1.62783e-14
1.61702e-14
1.62336e-14
1.61434e-14
1.61645e-14
1.61251e-14
1.6147e-14
1.6098e-14
1.61465e-14
1.60874e-14
1.61378e-14
1.60678e-14
1.61209e-14
1.60477e-14
1.60875e-14
1.60271e-14
1.60546e-14
1.60148e-14
1.60303e-14
1.60109e-14
1.60145e-14
1.59988e-14
1.599e-14
1.59703e-14
1.5965e-14
1.59588e-14
1.59479e-14
1.59391e-14
1.59388e-14
1.59196e-14
1.59377e-14
1.58999e-14
1.59282e-14
1.58799e-14
1.59021e-14
1.58761e-14
1.58762e-14
1.58639e-14
1.5875e-14
1.58432e-14
1.58655e-14
1.58386e-14
1.58562e-14
1.58256e-14
1.58552e-14
1.5804e-14
1.58462e-14
1.57901e-14
1.58295e-14
1.57797e-14
1.58173e-14
1.57649e-14
1.58094e-14
1.57616e-14
1.57978e-14
1.57459e-14
1.57986e-14
1.57457e-14
1.57918e-14
1.57372e-14
1.57813e-14
1.57244e-14
1.57673e-14
1.57112e-14
1.57614e-14
1.57095e-14
1.57519e-14
1.56996e-14
1.57427e-14
1.56973e-14
1.57415e-14
1.56908e-14
1.57367e-14
1.56802e-14
1.57359e-14
1.56769e-14
1.57241e-14
1.56696e-14
1.57125e-14
1.56659e-14
1.57048e-14
1.56657e-14
1.56937e-14
1.5658e-14
1.56938e-14
1.56501e-14
1.5694e-14
1.56421e-14
1.56908e-14
1.56376e-14
1.56841e-14
1.56257e-14
1.56776e-14
1.56244e-14
1.56786e-14
1.5623e-14
1.56868e-14
1.56107e-14
1.56846e-14
1.56019e-14
1.56722e-14
1.55998e-14
1.5667e-14
1.55975e-14
1.5676e-14
1.55882e-14
1.56782e-14
1.55804e-14
1.56756e-14
1.55708e-14
1.568e-14
1.55693e-14
1.56831e-14
1.55659e-14
1.56831e-14
1.55589e-14
1.56801e-14
1.5555e-14
1.56807e-14
1.55509e-14
1.56832e-14
1.55465e-14
1.56876e-14
1.5545e-14
1.56875e-14
1.55418e-14
1.56846e-14
1.55367e-14
1.56851e-14
1.55345e-14
1.56858e-14
1.55336e-14
1.56838e-14
1.55325e-14
1.56836e-14
1.55296e-14
1.56836e-14
1.5528e-14
1.56808e-14
1.55277e-14
1.56784e-14
1.55243e-14
1.56791e-14
1.55193e-14
1.568e-14
1.55184e-14
1.56826e-14
1.55187e-14
1.56854e-14
1.55146e-14
1.56855e-14
1.55131e-14
1.56844e-14
1.55122e-14
1.56843e-14
1.55117e-14
1.5685e-14
1.55132e-14
1.56873e-14
1.55124e-14
1.56911e-14
1.55121e-14
1.56897e-14
1.55137e-14
1.56871e-14
1.55144e-14
1.56867e-14
1.55144e-14
1.56864e-14
1.55148e-14
1.56857e-14
1.55145e-14
1.56851e-14
1.55146e-14
1.56834e-14
1.55147e-14
1.56818e-14
1.55146e-14
1.56803e-14
1.55151e-14
1.56783e-14
1.55148e-14
1.56777e-14
1.55151e-14
1.56785e-14
1.55159e-14
1.56787e-14
1.55166e-14
1.56784e-14
1.55153e-14
1.56776e-14
1.55145e-14
1.56769e-14
1.55143e-14
1.56763e-14
1.55143e-14
1.56764e-14
1.55146e-14
1.56765e-14
1.55148e-14
1.56752e-14
1.55149e-14
1.56729e-14
1.55143e-14
1.56713e-14
1.5515e-14
1.56698e-14
1.55159e-14
1.56687e-14
1.55165e-14
1.56666e-14
1.55169e-14
1.56636e-14
1.55181e-14
1.56616e-14
1.55191e-14
1.56607e-14
1.55202e-14
1.56588e-14
1.55212e-14
1.56565e-14
1.55221e-14
1.56553e-14
1.55227e-14
1.56549e-14
1.55236e-14
1.56535e-14
1.5524e-14
1.56516e-14
1.55243e-14
1.56506e-14
1.55249e-14
1.56499e-14
1.5526e-14
1.56491e-14
1.55266e-14
1.56483e-14
1.55265e-14
1.56475e-14
1.55267e-14
1.56469e-14
1.5527e-14
1.56461e-14
1.55274e-14
1.56452e-14
1.55277e-14
1.56447e-14
1.5528e-14
1.56439e-14
1.55282e-14
1.56426e-14
1.55283e-14
1.56416e-14
1.55285e-14
1.56419e-14
1.55288e-14
1.5642e-14
1.55288e-14
1.56413e-14
1.55289e-14
1.56408e-14
1.5529e-14
1.56404e-14
1.55292e-14
1.56402e-14
1.55293e-14
1.564e-14
1.55292e-14
1.56392e-14
1.55295e-14
1.56388e-14
1.553e-14
1.56389e-14
1.55305e-14
1.56387e-14
1.55305e-14
1.56386e-14
1.55304e-14
1.56386e-14
1.55303e-14
1.56384e-14
1.55304e-14
1.56381e-14
1.55307e-14
1.56377e-14
1.55307e-14
1.56376e-14
1.55307e-14
1.56377e-14
1.55309e-14
1.56374e-14
1.5531e-14
1.56372e-14
1.55309e-14
1.56374e-14
1.55309e-14
1.56377e-14
1.55309e-14
1.56378e-14
1.55309e-14
1.56378e-14
1.55309e-14
1.56378e-14
1.55309e-14
1.56378e-14
1.55309e-14
1.56378e-14
1.55309e-14
1.5638e-14
1.5531e-14
1.5638e-14
1.5531e-14
1.56381e-14
1.55311e-14
1.56383e-14
1.5531e-14
1.56383e-14
1.5531e-14
1.56384e-14
1.55309e-14
1.56385e-14
1.55309e-14
1.56385e-14
1.5531e-14
1.56385e-14
1.5531e-14
1.56384e-14
1.5531e-14
1.56384e-14
1.5531e-14
1.56384e-14
1.5531e-14
1.56384e-14
1.5531e-14
1.56384e-14
1.5531e-14
1.56384e-14
1.5531e-14
1.56384e-14
1.5531e-14
1.56384e-14
1.5531e-14
1.56384e-14
1.5531e-14
1.56384e-14
1.5531e-14
1.56384e-14
1.9928e-14
2.00217e-14
1.98384e-14
1.99678e-14
1.97638e-14
1.99065e-14
1.97066e-14
1.97858e-14
1.95842e-14
1.96918e-14
1.9486e-14
1.97371e-14
1.9428e-14
1.97283e-14
1.93243e-14
1.96548e-14
1.93509e-14
1.94615e-14
1.93268e-14
1.9376e-14
1.92947e-14
1.92788e-14
1.92699e-14
1.92367e-14
1.92316e-14
1.91407e-14
1.91071e-14
1.90809e-14
1.90175e-14
1.9011e-14
1.89345e-14
1.89358e-14
1.88556e-14
1.88902e-14
1.87777e-14
1.88222e-14
1.86948e-14
1.86736e-14
1.85861e-14
1.85177e-14
1.85126e-14
1.84856e-14
1.84399e-14
1.84708e-14
1.84197e-14
1.84249e-14
1.83403e-14
1.83747e-14
1.83143e-14
1.83532e-14
1.82838e-14
1.83036e-14
1.82227e-14
1.82534e-14
1.81586e-14
1.82045e-14
1.80914e-14
1.80996e-14
1.80549e-14
1.80274e-14
1.80529e-14
1.80163e-14
1.79329e-14
1.79431e-14
1.78733e-14
1.78084e-14
1.78511e-14
1.7756e-14
1.77462e-14
1.76908e-14
1.76458e-14
1.76808e-14
1.76362e-14
1.76713e-14
1.75608e-14
1.75992e-14
1.74837e-14
1.75617e-14
1.74331e-14
1.75299e-14
1.73597e-14
1.74398e-14
1.73291e-14
1.73543e-14
1.73122e-14
1.73837e-14
1.72742e-14
1.73693e-14
1.72469e-14
1.72962e-14
1.72009e-14
1.72739e-14
1.71505e-14
1.73045e-14
1.71241e-14
1.7278e-14
1.70895e-14
1.72599e-14
1.70957e-14
1.72844e-14
1.70928e-14
1.722e-14
1.7034e-14
1.71953e-14
1.69845e-14
1.71612e-14
1.69433e-14
1.71007e-14
1.69443e-14
1.70796e-14
1.6922e-14
1.7064e-14
1.686e-14
1.70701e-14
1.68397e-14
1.70319e-14
1.68122e-14
1.69644e-14
1.67788e-14
1.68827e-14
1.67413e-14
1.68365e-14
1.6683e-14
1.67918e-14
1.66374e-14
1.67485e-14
1.66046e-14
1.66895e-14
1.65345e-14
1.66652e-14
1.64768e-14
1.6643e-14
1.64306e-14
1.66238e-14
1.63955e-14
1.65914e-14
1.63376e-14
1.65628e-14
1.63074e-14
1.6539e-14
1.62879e-14
1.64516e-14
1.62725e-14
1.63847e-14
1.62459e-14
1.63626e-14
1.62249e-14
1.63508e-14
1.62011e-14
1.63238e-14
1.61834e-14
1.62818e-14
1.61637e-14
1.62498e-14
1.61422e-14
1.62106e-14
1.61195e-14
1.61722e-14
1.61044e-14
1.61946e-14
1.60878e-14
1.62015e-14
1.6061e-14
1.61934e-14
1.60493e-14
1.61535e-14
1.60446e-14
1.61067e-14
1.60136e-14
1.60778e-14
1.59818e-14
1.60754e-14
1.59657e-14
1.60828e-14
1.59565e-14
1.60665e-14
1.59458e-14
1.60435e-14
1.5934e-14
1.60304e-14
1.59296e-14
1.60104e-14
1.59242e-14
1.59915e-14
1.59267e-14
1.59653e-14
1.59289e-14
1.59396e-14
1.59229e-14
1.59143e-14
1.59089e-14
1.58974e-14
1.5887e-14
1.58888e-14
1.589e-14
1.58639e-14
1.5877e-14
1.58471e-14
1.58726e-14
1.58382e-14
1.58768e-14
1.58211e-14
1.58615e-14
1.58035e-14
1.58428e-14
1.57897e-14
1.58287e-14
1.57755e-14
1.58113e-14
1.5777e-14
1.57983e-14
1.57782e-14
1.57896e-14
1.57674e-14
1.5789e-14
1.57604e-14
1.57692e-14
1.57533e-14
1.57536e-14
1.57383e-14
1.5746e-14
1.57311e-14
1.57425e-14
1.57276e-14
1.57392e-14
1.57203e-14
1.57285e-14
1.57243e-14
1.57141e-14
1.57207e-14
1.57112e-14
1.57133e-14
1.57009e-14
1.57135e-14
1.56944e-14
1.57026e-14
1.56806e-14
1.56955e-14
1.56778e-14
1.56885e-14
1.56678e-14
1.56742e-14
1.56615e-14
1.56636e-14
1.56553e-14
1.56604e-14
1.56491e-14
1.56536e-14
1.5643e-14
1.56467e-14
1.5637e-14
1.56364e-14
1.56346e-14
1.56296e-14
1.56287e-14
1.56332e-14
1.5623e-14
1.56333e-14
1.56207e-14
1.56248e-14
1.56201e-14
1.56129e-14
1.56112e-14
1.56129e-14
1.56091e-14
1.56144e-14
1.56037e-14
1.56126e-14
1.56e-14
1.56107e-14
1.55899e-14
1.5612e-14
1.55944e-14
1.56117e-14
1.55956e-14
1.56114e-14
1.55857e-14
1.56111e-14
1.55807e-14
1.56154e-14
1.55803e-14
1.56197e-14
1.55783e-14
1.56193e-14
1.55733e-14
1.5619e-14
1.55653e-14
1.56202e-14
1.55618e-14
1.56199e-14
1.55612e-14
1.56182e-14
1.55606e-14
1.56194e-14
1.556e-14
1.56192e-14
1.55564e-14
1.56191e-14
1.55557e-14
1.56204e-14
1.55577e-14
1.56218e-14
1.55569e-14
1.56204e-14
1.55547e-14
1.5619e-14
1.55552e-14
1.56169e-14
1.55542e-14
1.56156e-14
1.5554e-14
1.5615e-14
1.5553e-14
1.56158e-14
1.55526e-14
1.56166e-14
1.55529e-14
1.56168e-14
1.55505e-14
1.56196e-14
1.55494e-14
1.56204e-14
1.5549e-14
1.56207e-14
1.55504e-14
1.56203e-14
1.55498e-14
1.56206e-14
1.55493e-14
1.56215e-14
1.55493e-14
1.56212e-14
1.55499e-14
1.56209e-14
1.55499e-14
1.562e-14
1.55498e-14
1.56204e-14
1.5551e-14
1.56196e-14
1.55515e-14
1.56187e-14
1.55527e-14
1.56173e-14
1.55538e-14
1.56165e-14
1.55539e-14
1.56167e-14
1.5555e-14
1.56159e-14
1.55564e-14
1.56148e-14
1.55574e-14
1.56138e-14
1.55584e-14
1.56124e-14
1.55592e-14
1.56103e-14
1.55602e-14
1.56096e-14
1.55609e-14
1.56092e-14
1.55619e-14
1.56078e-14
1.5563e-14
1.56063e-14
1.5564e-14
1.56056e-14
1.5564e-14
1.56052e-14
1.55629e-14
1.56052e-14
1.55629e-14
1.56044e-14
1.55633e-14
1.56036e-14
1.55636e-14
1.56025e-14
1.55636e-14
1.56014e-14
1.55639e-14
1.56012e-14
1.55643e-14
1.56006e-14
1.5564e-14
1.55998e-14
1.5564e-14
1.55988e-14
1.55643e-14
1.55979e-14
1.55645e-14
1.55975e-14
1.55644e-14
1.55969e-14
1.55643e-14
1.5596e-14
1.55645e-14
1.55954e-14
1.55646e-14
1.55952e-14
1.55641e-14
1.55949e-14
1.55643e-14
1.55942e-14
1.55644e-14
1.55929e-14
1.55648e-14
1.55917e-14
1.55651e-14
1.55911e-14
1.55645e-14
1.55907e-14
1.55647e-14
1.55905e-14
1.55643e-14
1.559e-14
1.5564e-14
1.55894e-14
1.5564e-14
1.55892e-14
1.55642e-14
1.55892e-14
1.5564e-14
1.5589e-14
1.55638e-14
1.55888e-14
1.55637e-14
1.55886e-14
1.55636e-14
1.55885e-14
1.55635e-14
1.55885e-14
1.55632e-14
1.55886e-14
1.55631e-14
1.55885e-14
1.5563e-14
1.55884e-14
1.55627e-14
1.5588e-14
1.55626e-14
1.55878e-14
1.55626e-14
1.55876e-14
1.55626e-14
1.55875e-14
1.55627e-14
1.55875e-14
1.55625e-14
1.55875e-14
1.55624e-14
1.55874e-14
1.55624e-14
1.55873e-14
1.55623e-14
1.55872e-14
1.55623e-14
1.55872e-14
1.55622e-14
1.55873e-14
1.55621e-14
1.55872e-14
1.55622e-14
1.55871e-14
1.5562e-14
1.55872e-14
1.5562e-14
1.55871e-14
1.55621e-14
1.55869e-14
1.55622e-14
1.55869e-14
1.55621e-14
1.55869e-14
1.55621e-14
1.55868e-14
1.55621e-14
1.55867e-14
1.5562e-14
1.55866e-14
1.5562e-14
1.55866e-14
1.5562e-14
1.55866e-14
1.55619e-14
1.55865e-14
1.55619e-14
1.55865e-14
1.55619e-14
1.55865e-14
1.55618e-14
1.55865e-14
1.55618e-14
1.55865e-14
1.55619e-14
1.55864e-14
1.55618e-14
1.55864e-14
1.55618e-14
1.55864e-14
)
;

boundaryField
{
    walls
    {
        type            zeroGradient;
    }
    inlet
    {
        type            cyclic;
    }
    outlet
    {
        type            cyclic;
    }
    sides
    {
        type            empty;
    }
}


// ************************************************************************* //
