/*--------------------------------*- C++ -*----------------------------------*\
| =========                 |                                                 |
| \\      /  F ield         | OpenFOAM: The Open Source CFD Toolbox           |
|  \\    /   O peration     | Version:  2106                                  |
|   \\  /    A nd           | Website:  www.openfoam.com                      |
|    \\/     M anipulation  |                                                 |
\*---------------------------------------------------------------------------*/
FoamFile
{
    version     2.0;
    format      ascii;
    arch        "LSB;label=32;scalar=64";
    class       volScalarField;
    location    "10080";
    object      p;
}
// * * * * * * * * * * * * * * * * * * * * * * * * * * * * * * * * * * * * * //

dimensions      [0 2 -2 0 0 0 0];

internalField   nonuniform List<scalar> 
2000
(
2.12554e-15
-6.56528e-16
4.51717e-15
-6.56715e-16
4.55357e-15
-6.57404e-16
3.89429e-15
-6.58622e-16
3.33724e-15
-6.60377e-16
2.8687e-15
-6.62702e-16
2.41596e-15
-6.65593e-16
1.968e-15
-6.69052e-16
1.52886e-15
-6.7303e-16
1.09983e-15
-6.77564e-16
6.80453e-16
-6.82685e-16
2.70339e-16
-6.88375e-16
-1.30911e-16
-6.94661e-16
-5.23481e-16
-7.01521e-16
-9.0773e-16
-7.08931e-16
-1.28388e-15
-7.16975e-16
-1.65179e-15
-7.25732e-16
-2.01164e-15
-7.35145e-16
-2.36363e-15
-7.4516e-16
-2.70787e-15
-7.55924e-16
-3.04446e-15
-7.67377e-16
-3.37361e-15
-7.79378e-16
-3.69538e-15
-7.92024e-16
-4.00967e-15
-8.05439e-16
-4.31688e-15
-8.19629e-16
-4.61707e-15
-8.34596e-16
-4.91027e-15
-8.50266e-16
-5.19673e-15
-8.6671e-16
-5.47642e-15
-8.83922e-16
-5.74953e-15
-9.02096e-16
-6.01654e-15
-9.2115e-16
-6.27711e-15
-9.41135e-16
-6.53155e-15
-9.61903e-16
-6.78003e-15
-9.83757e-16
-7.0228e-15
-1.00649e-15
-7.25986e-15
-1.0302e-15
-7.49155e-15
-1.05511e-15
-7.71797e-15
-1.08079e-15
-7.93936e-15
-1.10751e-15
-8.15583e-15
-1.13567e-15
-8.36775e-15
-1.16473e-15
-8.57573e-15
-1.19485e-15
-8.77932e-15
-1.22643e-15
-8.97847e-15
-1.25951e-15
-9.17409e-15
-1.29438e-15
-9.36613e-15
-1.33086e-15
-9.55483e-15
-1.36903e-15
-9.74022e-15
-1.40885e-15
-9.92276e-15
-1.44994e-15
-1.01021e-14
-1.49294e-15
-1.02792e-14
-1.53796e-15
-1.04529e-14
-1.58519e-15
-1.06249e-14
-1.63439e-15
-1.07941e-14
-1.6858e-15
-1.09613e-14
-1.73917e-15
-1.11271e-14
-1.7952e-15
-1.12913e-14
-1.85342e-15
-1.14536e-14
-1.91337e-15
-1.16144e-14
-1.97551e-15
-1.17737e-14
-2.04031e-15
-1.19309e-14
-2.10877e-15
-1.20867e-14
-2.18015e-15
-1.22409e-14
-2.25399e-15
-1.23938e-14
-2.32975e-15
-1.25444e-14
-2.40895e-15
-1.26944e-14
-2.49057e-15
-1.28427e-14
-2.57483e-15
-1.29897e-14
-2.66252e-15
-1.31356e-14
-2.75228e-15
-1.3279e-14
-2.84514e-15
-1.3422e-14
-2.93998e-15
-1.35638e-14
-3.03614e-15
-1.37042e-14
-3.13469e-15
-1.3844e-14
-3.23615e-15
-1.39821e-14
-3.34163e-15
-1.41192e-14
-3.4481e-15
-1.42554e-14
-3.55604e-15
-1.43901e-14
-3.66657e-15
-1.45247e-14
-3.78021e-15
-1.46555e-14
-3.89687e-15
-1.47813e-14
-4.01905e-15
-1.4906e-14
-4.14345e-15
-1.5029e-14
-4.26992e-15
-1.51484e-14
-4.40305e-15
-1.5263e-14
-4.54144e-15
-1.53755e-14
-4.68159e-15
-1.54869e-14
-4.82405e-15
-1.55936e-14
-4.97079e-15
-1.56965e-14
-5.12171e-15
-1.57978e-14
-5.2738e-15
-1.5897e-14
-5.42983e-15
-1.59934e-14
-5.58744e-15
-1.60888e-14
-5.74496e-15
-1.61834e-14
-5.90521e-15
-1.62742e-14
-6.06802e-15
-1.63614e-14
-6.23014e-15
-1.64483e-14
-6.39289e-15
-1.65351e-14
-6.55448e-15
-1.66222e-14
-6.71783e-15
-1.67081e-14
-6.88114e-15
-1.67932e-14
-7.04741e-15
-1.6876e-14
-7.20989e-15
-1.69552e-14
-7.37321e-15
-1.70327e-14
-7.54215e-15
-1.71104e-14
-7.70981e-15
-1.71887e-14
-7.87593e-15
-1.72645e-14
-8.04192e-15
-1.73329e-14
-8.21438e-15
-1.7401e-14
-8.39142e-15
-1.74623e-14
-8.56762e-15
-1.75257e-14
-8.74623e-15
-1.75881e-14
-8.92349e-15
-1.76516e-14
-9.09555e-15
-1.77129e-14
-9.26745e-15
-1.77725e-14
-9.44251e-15
-1.78343e-14
-9.61688e-15
-1.78987e-14
-9.78292e-15
-1.79625e-14
-9.95128e-15
-1.80261e-14
-1.01272e-14
-1.80806e-14
-1.03049e-14
-1.81375e-14
-1.04766e-14
-1.81936e-14
-1.06495e-14
-1.82416e-14
-1.08346e-14
-1.82818e-14
-1.10243e-14
-1.83222e-14
-1.12182e-14
-1.83669e-14
-1.14125e-14
-1.84163e-14
-1.1603e-14
-1.84707e-14
-1.17934e-14
-1.85268e-14
-1.19873e-14
-1.8581e-14
-1.21806e-14
-1.86376e-14
-1.23652e-14
-1.8693e-14
-1.25447e-14
-1.87556e-14
-1.27387e-14
-1.881e-14
-1.2931e-14
-1.88803e-14
-1.31135e-14
-1.89472e-14
-1.33019e-14
-1.90071e-14
-1.34918e-14
-1.90684e-14
-1.36832e-14
-1.91274e-14
-1.38756e-14
-1.91886e-14
-1.40731e-14
-1.92522e-14
-1.42796e-14
-1.93145e-14
-1.44828e-14
-1.93757e-14
-1.46744e-14
-1.94445e-14
-1.48707e-14
-1.95129e-14
-1.50715e-14
-1.95812e-14
-1.52646e-14
-1.96579e-14
-1.54498e-14
-1.97311e-14
-1.56393e-14
-1.97969e-14
-1.58371e-14
-1.98597e-14
-1.60351e-14
-1.99363e-14
-1.62335e-14
-2.00186e-14
-1.64405e-14
-2.00901e-14
-1.66479e-14
-2.01427e-14
-1.68478e-14
-2.02096e-14
-1.70404e-14
-2.02825e-14
-1.72346e-14
-2.0353e-14
-1.74135e-14
-2.04214e-14
-1.76026e-14
-2.05043e-14
-1.78023e-14
-2.0585e-14
-1.79962e-14
-2.06468e-14
-1.81847e-14
-2.07148e-14
-1.83684e-14
-2.07969e-14
-1.85563e-14
-2.08764e-14
-1.87403e-14
-2.0953e-14
-1.89205e-14
-2.10433e-14
-1.91061e-14
-2.11302e-14
-1.93059e-14
-2.12135e-14
-1.94874e-14
-2.13013e-14
-1.96598e-14
-2.1385e-14
-1.98487e-14
-2.1481e-14
-2.00383e-14
-2.15635e-14
-2.02298e-14
-2.16653e-14
-2.04158e-14
-2.17443e-14
-2.05806e-14
-2.18415e-14
-2.07336e-14
-2.19319e-14
-2.09091e-14
-2.20396e-14
-2.10916e-14
-2.21309e-14
-2.12655e-14
-2.22217e-14
-2.14239e-14
-2.23029e-14
-2.15929e-14
-2.23819e-14
-2.17579e-14
-2.25069e-14
-2.19876e-14
-2.26431e-14
-2.22021e-14
-2.27727e-14
-2.24034e-14
-2.28947e-14
-2.26095e-14
-2.30238e-14
-2.27735e-14
-2.31592e-14
-2.2897e-14
-2.32854e-14
-2.30453e-14
-2.34186e-14
-2.32032e-14
-2.35426e-14
-2.33882e-14
-2.36726e-14
-2.35699e-14
-2.37911e-14
-2.37344e-14
-2.39295e-14
-2.38676e-14
-2.40723e-14
-2.40022e-14
-2.42205e-14
-2.41544e-14
-2.43423e-14
-2.42926e-14
-2.44854e-14
-2.4402e-14
-2.46354e-14
-2.45456e-14
-2.47772e-14
-2.4644e-14
-2.49286e-14
-2.47904e-14
-2.50595e-14
-2.49687e-14
-2.52001e-14
-2.50875e-14
-2.53362e-14
-2.52244e-14
-2.5468e-14
-2.53801e-14
-2.55953e-14
-2.55719e-14
-2.57469e-14
-2.56494e-14
-2.58815e-14
-2.58103e-14
-2.60142e-14
-2.59783e-14
-2.61295e-14
-2.61092e-14
-2.62575e-14
-2.62502e-14
-2.63827e-14
-2.63892e-14
-2.6519e-14
-2.65278e-14
-2.6683e-14
-2.66808e-14
-2.6786e-14
-2.6832e-14
-2.69751e-14
-2.69852e-14
-2.71648e-14
-2.71403e-14
-2.72705e-14
-2.72361e-14
-2.74107e-14
-2.7328e-14
-2.7557e-14
-2.7497e-14
-2.77074e-14
-2.76286e-14
-2.77811e-14
-2.7749e-14
-2.7971e-14
-2.78917e-14
-2.8113e-14
-2.80548e-14
-2.82089e-14
-2.81548e-14
-2.82881e-14
-2.8219e-14
-2.83789e-14
-2.83827e-14
-2.85006e-14
-2.85428e-14
-2.86228e-14
-2.8623e-14
-2.87496e-14
-2.87285e-14
-2.88313e-14
-2.88546e-14
-2.88876e-14
-2.89524e-14
-2.89624e-14
-2.90297e-14
-2.91074e-14
-2.90889e-14
-2.93086e-14
-2.91703e-14
-2.93577e-14
-2.92296e-14
-2.95368e-14
-2.92382e-14
-2.96212e-14
-2.92954e-14
-2.96705e-14
-2.93424e-14
-2.97589e-14
-2.94183e-14
-2.98162e-14
-2.94901e-14
-2.98214e-14
-2.96363e-14
-2.98191e-14
-2.9739e-14
-2.97822e-14
-2.97909e-14
-2.98279e-14
-2.98091e-14
-2.98898e-14
-2.98582e-14
-2.99485e-14
-2.9909e-14
-3.00289e-14
-2.99586e-14
-3.00508e-14
-2.99574e-14
-3.00185e-14
-2.99976e-14
-3.00946e-14
-3.00443e-14
-5.98428e-15
-6.62153e-15
-5.98429e-15
-6.62152e-15
-5.98456e-15
-6.62161e-15
-5.98509e-15
-6.62178e-15
-5.98587e-15
-6.62204e-15
-5.98691e-15
-6.62238e-15
-5.98819e-15
-6.62282e-15
-5.98975e-15
-6.62337e-15
-5.99156e-15
-6.62397e-15
-5.99364e-15
-6.62461e-15
-5.99593e-15
-6.62543e-15
-5.99848e-15
-6.62634e-15
-6.00129e-15
-6.62734e-15
-6.0044e-15
-6.6284e-15
-6.00772e-15
-6.62965e-15
-6.01133e-15
-6.63102e-15
-6.01534e-15
-6.63244e-15
-6.0196e-15
-6.63398e-15
-6.02419e-15
-6.63546e-15
-6.02912e-15
-6.63698e-15
-6.03434e-15
-6.63871e-15
-6.03983e-15
-6.64053e-15
-6.04557e-15
-6.64248e-15
-6.05165e-15
-6.64462e-15
-6.05795e-15
-6.64698e-15
-6.06466e-15
-6.64932e-15
-6.07177e-15
-6.65156e-15
-6.07931e-15
-6.65416e-15
-6.08727e-15
-6.65682e-15
-6.0956e-15
-6.65937e-15
-6.10444e-15
-6.66195e-15
-6.11368e-15
-6.66465e-15
-6.12336e-15
-6.66752e-15
-6.13346e-15
-6.67065e-15
-6.14389e-15
-6.67424e-15
-6.15463e-15
-6.67797e-15
-6.16573e-15
-6.68187e-15
-6.17752e-15
-6.68569e-15
-6.18974e-15
-6.68983e-15
-6.20249e-15
-6.6944e-15
-6.21552e-15
-6.6993e-15
-6.22905e-15
-6.70432e-15
-6.24317e-15
-6.7097e-15
-6.25811e-15
-6.71512e-15
-6.27373e-15
-6.72093e-15
-6.29024e-15
-6.72682e-15
-6.30743e-15
-6.73315e-15
-6.32539e-15
-6.74038e-15
-6.34402e-15
-6.74753e-15
-6.3632e-15
-6.75485e-15
-6.38316e-15
-6.76336e-15
-6.40414e-15
-6.77266e-15
-6.42591e-15
-6.78208e-15
-6.4487e-15
-6.79233e-15
-6.47208e-15
-6.80323e-15
-6.49651e-15
-6.81434e-15
-6.52154e-15
-6.82684e-15
-6.54788e-15
-6.83984e-15
-6.57529e-15
-6.85384e-15
-6.60381e-15
-6.86913e-15
-6.63343e-15
-6.8855e-15
-6.66466e-15
-6.90226e-15
-6.69702e-15
-6.91993e-15
-6.73027e-15
-6.93854e-15
-6.76492e-15
-6.95812e-15
-6.80149e-15
-6.97896e-15
-6.84027e-15
-7.00007e-15
-6.88023e-15
-7.0233e-15
-6.92189e-15
-7.04927e-15
-6.96527e-15
-7.07585e-15
-7.0115e-15
-7.10195e-15
-7.05947e-15
-7.12866e-15
-7.1092e-15
-7.15773e-15
-7.16184e-15
-7.18922e-15
-7.21446e-15
-7.22377e-15
-7.27002e-15
-7.26147e-15
-7.32792e-15
-7.29689e-15
-7.3888e-15
-7.33304e-15
-7.45014e-15
-7.37557e-15
-7.51382e-15
-7.42146e-15
-7.57918e-15
-7.46626e-15
-7.64684e-15
-7.51253e-15
-7.71745e-15
-7.56159e-15
-7.79035e-15
-7.61753e-15
-7.86483e-15
-7.67641e-15
-7.94154e-15
-7.73413e-15
-8.01975e-15
-7.79133e-15
-8.10155e-15
-7.8543e-15
-8.18835e-15
-7.91813e-15
-8.27585e-15
-7.98498e-15
-8.36254e-15
-8.05412e-15
-8.45198e-15
-8.1263e-15
-8.54416e-15
-8.19854e-15
-8.63603e-15
-8.2723e-15
-8.73205e-15
-8.35061e-15
-8.82915e-15
-8.42887e-15
-8.92569e-15
-8.51014e-15
-9.02629e-15
-8.59442e-15
-9.12934e-15
-8.67851e-15
-9.23479e-15
-8.77039e-15
-9.34258e-15
-8.86201e-15
-9.44776e-15
-8.95005e-15
-9.55511e-15
-9.04095e-15
-9.66291e-15
-9.13968e-15
-9.77947e-15
-9.23625e-15
-9.89127e-15
-9.33728e-15
-1.0005e-14
-9.44109e-15
-1.01222e-14
-9.55106e-15
-1.02412e-14
-9.66203e-15
-1.03618e-14
-9.77217e-15
-1.0477e-14
-9.88842e-15
-1.06042e-14
-1.00073e-14
-1.07292e-14
-1.01304e-14
-1.0861e-14
-1.02524e-14
-1.09921e-14
-1.03733e-14
-1.11208e-14
-1.05019e-14
-1.1256e-14
-1.06273e-14
-1.13903e-14
-1.07586e-14
-1.15236e-14
-1.08958e-14
-1.16557e-14
-1.10369e-14
-1.17865e-14
-1.11746e-14
-1.19233e-14
-1.13048e-14
-1.20586e-14
-1.14426e-14
-1.21998e-14
-1.15956e-14
-1.23469e-14
-1.17447e-14
-1.24921e-14
-1.19013e-14
-1.26353e-14
-1.20577e-14
-1.27764e-14
-1.22099e-14
-1.2919e-14
-1.23538e-14
-1.30708e-14
-1.2509e-14
-1.32162e-14
-1.26713e-14
-1.33628e-14
-1.28251e-14
-1.35065e-14
-1.29781e-14
-1.3655e-14
-1.31342e-14
-1.38044e-14
-1.32933e-14
-1.39503e-14
-1.34592e-14
-1.40927e-14
-1.36281e-14
-1.42433e-14
-1.37958e-14
-1.4406e-14
-1.39624e-14
-1.45605e-14
-1.41357e-14
-1.47188e-14
-1.43077e-14
-1.48725e-14
-1.44619e-14
-1.50176e-14
-1.46185e-14
-1.51823e-14
-1.47855e-14
-1.53462e-14
-1.49505e-14
-1.55051e-14
-1.51133e-14
-1.56712e-14
-1.52737e-14
-1.58238e-14
-1.54274e-14
-1.59793e-14
-1.55781e-14
-1.61418e-14
-1.57423e-14
-1.62864e-14
-1.59196e-14
-1.64375e-14
-1.60935e-14
-1.65866e-14
-1.62389e-14
-1.6742e-14
-1.6397e-14
-1.68953e-14
-1.65507e-14
-1.70464e-14
-1.67333e-14
-1.72117e-14
-1.6903e-14
-1.73577e-14
-1.70426e-14
-1.75011e-14
-1.71937e-14
-1.76417e-14
-1.7356e-14
-1.77791e-14
-1.75123e-14
-1.79467e-14
-1.7671e-14
-1.81027e-14
-1.78736e-14
-1.82716e-14
-1.807e-14
-1.84365e-14
-1.82351e-14
-1.85889e-14
-1.83937e-14
-1.8737e-14
-1.85288e-14
-1.88809e-14
-1.86899e-14
-1.90372e-14
-1.88683e-14
-1.91886e-14
-1.90138e-14
-1.93436e-14
-1.9176e-14
-1.9502e-14
-1.93544e-14
-1.96468e-14
-1.95154e-14
-1.98028e-14
-1.96586e-14
-1.99617e-14
-1.97918e-14
-2.01157e-14
-1.9939e-14
-2.02649e-14
-2.01077e-14
-2.04171e-14
-2.02642e-14
-2.05558e-14
-2.04165e-14
-2.06972e-14
-2.05308e-14
-2.08585e-14
-2.06472e-14
-2.10244e-14
-2.07969e-14
-2.11953e-14
-2.09944e-14
-2.13539e-14
-2.12228e-14
-2.15314e-14
-2.1417e-14
-2.1744e-14
-2.15603e-14
-2.18786e-14
-2.17159e-14
-2.20495e-14
-2.18512e-14
-2.21921e-14
-2.19969e-14
-2.23386e-14
-2.21684e-14
-2.24883e-14
-2.23488e-14
-2.26398e-14
-2.25057e-14
-2.27931e-14
-2.26706e-14
-2.29472e-14
-2.28111e-14
-2.31024e-14
-2.29904e-14
-2.32732e-14
-2.31283e-14
-2.34451e-14
-2.32709e-14
-2.36032e-14
-2.34164e-14
-2.37953e-14
-2.35792e-14
-2.39278e-14
-2.37422e-14
-2.40778e-14
-2.38899e-14
-2.42454e-14
-2.40676e-14
-2.44141e-14
-2.41971e-14
-2.45549e-14
-2.43535e-14
-2.46823e-14
-2.45205e-14
-2.48251e-14
-2.46356e-14
-2.49681e-14
-2.48366e-14
-2.5077e-14
-2.50483e-14
-2.52213e-14
-2.52e-14
-2.53695e-14
-2.53072e-14
-2.55389e-14
-2.54566e-14
-2.56552e-14
-2.56454e-14
-2.5833e-14
-2.58483e-14
-2.59494e-14
-2.60222e-14
-2.61191e-14
-2.61416e-14
-2.63134e-14
-2.63193e-14
-2.64732e-14
-2.65236e-14
-2.67132e-14
-2.67021e-14
-2.68945e-14
-2.68818e-14
-2.69892e-14
-2.70615e-14
-2.71885e-14
-2.71925e-14
-2.733e-14
-2.7297e-14
-2.74428e-14
-2.74827e-14
-2.75454e-14
-2.76426e-14
-2.7687e-14
-2.77849e-14
-2.78125e-14
-2.79413e-14
-2.79187e-14
-2.80863e-14
-2.8081e-14
-2.81958e-14
-2.81955e-14
-2.83473e-14
-2.83369e-14
-2.84929e-14
-2.84789e-14
-2.85802e-14
-2.85786e-14
-2.86554e-14
-2.87197e-14
-2.87412e-14
-2.8802e-14
-2.88306e-14
-2.89461e-14
-2.89505e-14
-2.90562e-14
-2.89962e-14
-2.91619e-14
-2.90639e-14
-2.9296e-14
-2.92232e-14
-2.93835e-14
-2.93327e-14
-2.94203e-14
-2.93738e-14
-2.95035e-14
-2.9445e-14
-2.95913e-14
-2.95852e-14
-2.96813e-14
-2.96581e-14
-2.97159e-14
-2.97116e-14
-2.97633e-14
-2.97776e-14
-2.98415e-14
-2.98373e-14
-2.98592e-14
-2.9839e-14
-2.99092e-14
-2.9821e-14
-2.99634e-14
-2.99071e-14
-3.00251e-14
-2.99662e-14
-3.01462e-14
-3.00878e-14
-3.00842e-14
-3.01276e-14
-3.01089e-14
-3.01888e-14
-3.01643e-14
-3.02826e-14
-3.02471e-14
-3.03223e-14
-3.02653e-14
-3.0363e-14
-3.03837e-14
-3.03845e-14
-3.04099e-14
-3.04605e-14
-3.04959e-14
-3.05269e-14
-3.05989e-14
-3.05777e-14
-3.0682e-14
-3.06528e-14
-3.0771e-14
-3.06995e-14
-3.07824e-14
-3.07351e-14
-3.08316e-14
-3.07886e-14
-3.0917e-14
-3.08594e-14
-3.10158e-14
-3.09211e-14
-3.10321e-14
-3.09688e-14
-3.10355e-14
-3.10079e-14
-3.10719e-14
-3.10965e-14
-3.11335e-14
-3.11348e-14
-3.1193e-14
-3.11699e-14
-3.12278e-14
-3.12258e-14
-3.12897e-14
-3.12794e-14
-3.13248e-14
-3.12765e-14
-3.13632e-14
-3.13202e-14
-3.1407e-14
-3.13841e-14
-3.14554e-14
-3.14154e-14
-3.15392e-14
-3.14673e-14
-3.15793e-14
-3.15646e-14
-3.15965e-14
-3.1631e-14
-3.16142e-14
-3.16447e-14
-3.16649e-14
-3.16619e-14
-3.17202e-14
-3.16788e-14
-3.17815e-14
-3.1691e-14
-3.17974e-14
-3.17228e-14
-3.17633e-14
-3.17474e-14
-3.17597e-14
-3.17711e-14
-3.18152e-14
-3.17967e-14
-3.18129e-14
-3.17905e-14
-3.18275e-14
-3.17668e-14
-3.18462e-14
-3.17989e-14
-3.1837e-14
-3.18418e-14
-3.18111e-14
-3.18226e-14
-3.18135e-14
-3.18189e-14
-3.18292e-14
-3.17848e-14
-3.18148e-14
-3.18084e-14
-3.17988e-14
-3.18002e-14
-3.18269e-14
-3.17936e-14
-3.18241e-14
-3.18025e-14
-3.18052e-14
-3.1796e-14
-3.1787e-14
-3.17908e-14
-3.1785e-14
-3.17556e-14
-3.1769e-14
-3.1736e-14
-3.17387e-14
-3.17483e-14
-3.17234e-14
-3.17628e-14
-3.17065e-14
-3.17176e-14
-3.16735e-14
-3.16429e-14
-3.16733e-14
-3.16012e-14
-3.16596e-14
-3.16069e-14
-3.1648e-14
-3.16281e-14
-3.16377e-14
-3.16171e-14
-3.16124e-14
-3.15898e-14
-3.16042e-14
-3.15623e-14
-3.15804e-14
-3.15502e-14
-3.15735e-14
-3.15373e-14
-3.15834e-14
-3.15069e-14
-3.15944e-14
-3.1491e-14
-3.16071e-14
-3.14889e-14
-3.15887e-14
-3.15005e-14
-3.15875e-14
-3.15265e-14
-3.16365e-14
-3.15679e-14
-3.16696e-14
-3.15745e-14
-3.16627e-14
-3.15457e-14
-3.16741e-14
-3.15477e-14
-3.16957e-14
-3.1564e-14
-3.1711e-14
-3.1578e-14
-3.17284e-14
-3.15647e-14
-3.17315e-14
-3.15819e-14
-3.17368e-14
-3.16301e-14
-3.17519e-14
-3.16262e-14
-3.17688e-14
-3.16037e-14
-3.17712e-14
-3.15957e-14
-3.17758e-14
-3.1602e-14
-3.17826e-14
-3.16228e-14
-3.17829e-14
-3.16498e-14
-3.17762e-14
-3.16751e-14
-3.17618e-14
-3.16909e-14
-3.17647e-14
-3.17145e-14
-3.17762e-14
-3.17295e-14
-3.17793e-14
-3.17361e-14
-3.17993e-14
-3.17343e-14
-3.18112e-14
-3.17156e-14
-3.18237e-14
-3.17213e-14
-3.18368e-14
-3.17431e-14
-3.18423e-14
-3.17558e-14
-3.18484e-14
-3.17594e-14
-3.18549e-14
-3.17708e-14
-3.18534e-14
-3.17816e-14
-3.18522e-14
-3.17835e-14
-3.18596e-14
-3.17933e-14
-3.18671e-14
-3.18109e-14
-3.18664e-14
-3.18199e-14
-3.18739e-14
-3.18203e-14
-3.18814e-14
-3.18205e-14
-3.18889e-14
-3.18161e-14
-3.18881e-14
-3.18154e-14
-3.18997e-14
-3.18184e-14
-3.19154e-14
-3.1821e-14
-3.1923e-14
-3.18189e-14
-3.19267e-14
-3.18244e-14
-3.19305e-14
-3.18293e-14
-3.19385e-14
-3.18214e-14
-3.19426e-14
-3.1821e-14
-3.1951e-14
-3.18159e-14
-3.19595e-14
-3.18141e-14
-3.19603e-14
-3.18277e-14
-3.19533e-14
-3.18366e-14
-3.19504e-14
-3.1837e-14
-3.19516e-14
-3.18328e-14
-3.19569e-14
-3.18203e-14
-3.19583e-14
-3.18229e-14
-3.19599e-14
-3.1825e-14
-3.19617e-14
-3.18265e-14
-3.19636e-14
-3.18196e-14
-3.19617e-14
-3.18045e-14
-3.1964e-14
-3.1812e-14
-3.1974e-14
-3.18189e-14
-3.19766e-14
-3.18139e-14
-3.19794e-14
-3.18007e-14
-3.19899e-14
-3.17946e-14
-3.19969e-14
-3.17992e-14
-3.20041e-14
-3.17958e-14
-3.20079e-14
-3.17881e-14
-3.2012e-14
-3.17891e-14
-3.20182e-14
-3.17951e-14
-3.20211e-14
-3.18023e-14
-3.2026e-14
-3.18018e-14
-3.20312e-14
-3.1799e-14
-3.20296e-14
-3.18064e-14
-3.203e-14
-3.18151e-14
-3.20307e-14
-3.18234e-14
-3.20299e-14
-3.18278e-14
-3.20293e-14
-3.18335e-14
-3.20306e-14
-3.18406e-14
-3.20304e-14
-3.18457e-14
-3.20305e-14
-3.18505e-14
-3.2029e-14
-3.18549e-14
-3.20277e-14
-3.18591e-14
-3.20316e-14
-3.18631e-14
-3.20323e-14
-3.18652e-14
-3.20299e-14
-3.18638e-14
-3.20325e-14
-3.18671e-14
-3.20337e-14
-3.18734e-14
-3.20334e-14
-3.18794e-14
-3.20348e-14
-3.18821e-14
-3.20317e-14
-3.18816e-14
-3.20333e-14
-3.1881e-14
-3.20335e-14
-3.18862e-14
-3.20294e-14
-3.18913e-14
-3.20268e-14
-3.18948e-14
-3.20245e-14
-3.18981e-14
-3.20229e-14
-3.18991e-14
-3.20222e-14
-3.18994e-14
-3.20194e-14
-3.19002e-14
-3.20168e-14
-3.19017e-14
-3.20142e-14
-3.19051e-14
-3.20118e-14
-3.19092e-14
-3.20101e-14
-3.19111e-14
-3.20078e-14
-3.19109e-14
-3.20037e-14
-3.19121e-14
-3.20003e-14
-3.19138e-14
-3.19989e-14
-3.19154e-14
-3.19975e-14
-3.19164e-14
-3.19968e-14
-3.19167e-14
-3.1995e-14
-3.19152e-14
-3.19938e-14
-3.19137e-14
-3.19926e-14
-3.19133e-14
-3.19921e-14
-3.19141e-14
-3.19927e-14
-3.19143e-14
-3.19917e-14
-3.19144e-14
-3.19913e-14
-3.19135e-14
-3.19914e-14
-3.19141e-14
-3.19921e-14
-3.19153e-14
-3.19923e-14
-3.19149e-14
-3.19925e-14
-3.19134e-14
-3.1993e-14
-3.19129e-14
-3.19932e-14
-3.19127e-14
-3.19937e-14
-3.19114e-14
-3.19942e-14
-3.19099e-14
-3.19943e-14
-3.19099e-14
-3.19948e-14
-3.19104e-14
-3.19951e-14
-3.19101e-14
-3.1995e-14
-3.19096e-14
-3.19946e-14
-3.19092e-14
-3.19945e-14
-3.19092e-14
-3.19948e-14
-3.19088e-14
-3.19952e-14
-3.19085e-14
-3.19951e-14
-3.19084e-14
-3.19953e-14
-3.19085e-14
-3.19955e-14
-3.19083e-14
-3.19955e-14
-3.19082e-14
-3.19957e-14
-3.19087e-14
-3.19959e-14
-3.19088e-14
-3.19963e-14
-3.19081e-14
-3.19966e-14
-3.19074e-14
-3.19971e-14
-3.19072e-14
-3.19975e-14
-3.1907e-14
-3.1998e-14
-3.19068e-14
-3.19983e-14
-3.19063e-14
-3.19986e-14
-3.19059e-14
-3.1999e-14
-3.19061e-14
-3.19993e-14
-3.19061e-14
-3.19996e-14
-3.19058e-14
-3.19997e-14
-3.19056e-14
-3.2e-14
-3.19054e-14
-3.20002e-14
-3.19052e-14
-3.20006e-14
-3.19051e-14
-3.20006e-14
-3.19051e-14
-3.20007e-14
-3.19051e-14
-3.2001e-14
-3.19049e-14
-3.20012e-14
-3.19048e-14
-3.20012e-14
-3.19049e-14
-3.20013e-14
-3.19049e-14
-3.20014e-14
-3.19048e-14
-3.20015e-14
-3.19045e-14
-3.20015e-14
-3.19045e-14
-3.20015e-14
-3.19046e-14
-3.20016e-14
-3.19046e-14
-3.20017e-14
-3.19047e-14
-3.20019e-14
-3.19046e-14
-3.20019e-14
-3.19046e-14
-3.20019e-14
-3.19047e-14
-3.20019e-14
-3.19047e-14
-3.20018e-14
-3.19046e-14
-3.20018e-14
-3.19047e-14
-3.20018e-14
-3.19047e-14
-3.20018e-14
-3.19046e-14
-3.20018e-14
-3.19046e-14
-3.20018e-14
-3.19046e-14
-3.20018e-14
-3.19046e-14
-3.20019e-14
-3.19046e-14
-3.20019e-14
-3.19046e-14
-3.20018e-14
-3.19045e-14
-3.20018e-14
-3.19045e-14
-3.20018e-14
-3.19045e-14
-3.20019e-14
-3.19045e-14
-3.20019e-14
-3.19045e-14
-3.20019e-14
-3.19045e-14
-3.20019e-14
-3.19045e-14
-3.20019e-14
-3.19045e-14
-3.00456e-14
-2.99984e-14
-3.00653e-14
-3.00533e-14
-3.00856e-14
-3.00952e-14
-3.01007e-14
-3.01759e-14
-3.02344e-14
-3.02623e-14
-3.02637e-14
-3.03001e-14
-3.03334e-14
-3.03393e-14
-3.04458e-14
-3.04242e-14
-3.05179e-14
-3.05012e-14
-3.05962e-14
-3.05479e-14
-3.06842e-14
-3.06326e-14
-3.06566e-14
-3.06809e-14
-3.07411e-14
-3.07323e-14
-3.07986e-14
-3.0808e-14
-3.08778e-14
-3.08617e-14
-3.09311e-14
-3.09133e-14
-3.0981e-14
-3.09619e-14
-3.10037e-14
-3.10073e-14
-3.10505e-14
-3.11069e-14
-3.11685e-14
-3.11891e-14
-3.12059e-14
-3.12244e-14
-3.1242e-14
-3.12659e-14
-3.13037e-14
-3.12858e-14
-3.13688e-14
-3.13317e-14
-3.1358e-14
-3.13767e-14
-3.13726e-14
-3.14274e-14
-3.14076e-14
-3.14868e-14
-3.1432e-14
-3.15586e-14
-3.14953e-14
-3.15913e-14
-3.15168e-14
-3.16061e-14
-3.14687e-14
-3.16284e-14
-3.15732e-14
-3.16644e-14
-3.16664e-14
-3.17088e-14
-3.16369e-14
-3.17582e-14
-3.17096e-14
-3.17614e-14
-3.17751e-14
-3.17406e-14
-3.17546e-14
-3.17467e-14
-3.17943e-14
-3.18111e-14
-3.18022e-14
-3.18175e-14
-3.18239e-14
-3.17955e-14
-3.18626e-14
-3.18485e-14
-3.18723e-14
-3.18871e-14
-3.1867e-14
-3.18362e-14
-3.18804e-14
-3.18144e-14
-3.1884e-14
-3.18506e-14
-3.18909e-14
-3.18248e-14
-3.19032e-14
-3.17336e-14
-3.18798e-14
-3.17413e-14
-3.18799e-14
-3.17412e-14
-3.17932e-14
-3.17174e-14
-3.17568e-14
-3.172e-14
-3.1753e-14
-3.17036e-14
-3.17505e-14
-3.16681e-14
-3.17669e-14
-3.16597e-14
-3.1724e-14
-3.15974e-14
-3.16856e-14
-3.15754e-14
-3.16991e-14
-3.15306e-14
-3.16542e-14
-3.15265e-14
-3.16294e-14
-3.15493e-14
-3.16065e-14
-3.15686e-14
-3.15842e-14
-3.15696e-14
-3.16104e-14
-3.15532e-14
-3.16219e-14
-3.15509e-14
-3.16028e-14
-3.15464e-14
-3.16184e-14
-3.15404e-14
-3.16531e-14
-3.1516e-14
-3.16591e-14
-3.15047e-14
-3.16696e-14
-3.15064e-14
-3.17012e-14
-3.15211e-14
-3.16882e-14
-3.15321e-14
-3.16962e-14
-3.15732e-14
-3.17074e-14
-3.15951e-14
-3.17212e-14
-3.15817e-14
-3.17216e-14
-3.15576e-14
-3.17338e-14
-3.15556e-14
-3.17411e-14
-3.15755e-14
-3.17515e-14
-3.15925e-14
-3.17564e-14
-3.16156e-14
-3.17637e-14
-3.16451e-14
-3.17646e-14
-3.16225e-14
-3.17761e-14
-3.15978e-14
-3.17903e-14
-3.15957e-14
-3.17988e-14
-3.16162e-14
-3.18014e-14
-3.16512e-14
-3.18229e-14
-3.16676e-14
-3.18466e-14
-3.16571e-14
-3.18309e-14
-3.16525e-14
-3.18344e-14
-3.16458e-14
-3.18487e-14
-3.16366e-14
-3.18573e-14
-3.16415e-14
-3.18685e-14
-3.16437e-14
-3.18738e-14
-3.16684e-14
-3.18729e-14
-3.16826e-14
-3.18656e-14
-3.17116e-14
-3.1885e-14
-3.17391e-14
-3.19057e-14
-3.17402e-14
-3.1928e-14
-3.17481e-14
-3.19185e-14
-3.1763e-14
-3.19356e-14
-3.17766e-14
-3.19457e-14
-3.17889e-14
-3.19489e-14
-3.18001e-14
-3.197e-14
-3.1802e-14
-3.19925e-14
-3.1811e-14
-3.2004e-14
-3.1823e-14
-3.20211e-14
-3.18173e-14
-3.20398e-14
-3.18104e-14
-3.20478e-14
-3.18269e-14
-3.20451e-14
-3.18382e-14
-3.20601e-14
-3.18483e-14
-3.20725e-14
-3.18656e-14
-3.20821e-14
-3.18738e-14
-3.2089e-14
-3.1877e-14
-3.20931e-14
-3.18795e-14
-3.20984e-14
-3.1877e-14
-3.2113e-14
-3.18818e-14
-3.21207e-14
-3.18859e-14
-3.21257e-14
-3.18891e-14
-3.21239e-14
-3.18994e-14
-3.21311e-14
-3.19011e-14
-3.21316e-14
-3.19061e-14
-3.21291e-14
-3.19183e-14
-3.21316e-14
-3.19181e-14
-3.21349e-14
-3.19136e-14
-3.21353e-14
-3.19124e-14
-3.21366e-14
-3.19107e-14
-3.21387e-14
-3.19163e-14
-3.2134e-14
-3.19175e-14
-3.21377e-14
-3.19068e-14
-3.21384e-14
-3.18996e-14
-3.21398e-14
-3.18995e-14
-3.21382e-14
-3.19064e-14
-3.21373e-14
-3.19017e-14
-3.21333e-14
-3.1893e-14
-3.21355e-14
-3.18912e-14
-3.21346e-14
-3.18891e-14
-3.21398e-14
-3.18903e-14
-3.21365e-14
-3.18857e-14
-3.21302e-14
-3.18843e-14
-3.21333e-14
-3.18844e-14
-3.21351e-14
-3.1877e-14
-3.21269e-14
-3.18711e-14
-3.21209e-14
-3.18718e-14
-3.21137e-14
-3.18739e-14
-3.21121e-14
-3.18723e-14
-3.21058e-14
-3.18738e-14
-3.20965e-14
-3.18801e-14
-3.20909e-14
-3.18793e-14
-3.20874e-14
-3.18783e-14
-3.20842e-14
-3.18804e-14
-3.20796e-14
-3.18757e-14
-3.20737e-14
-3.18724e-14
-3.20697e-14
-3.18722e-14
-3.20675e-14
-3.18718e-14
-3.20593e-14
-3.18743e-14
-3.20529e-14
-3.18767e-14
-3.20483e-14
-3.18788e-14
-3.20439e-14
-3.18792e-14
-3.20381e-14
-3.18795e-14
-3.20311e-14
-3.18812e-14
-3.20302e-14
-3.18768e-14
-3.20294e-14
-3.18767e-14
-3.2028e-14
-3.1878e-14
-3.20224e-14
-3.18777e-14
-3.20199e-14
-3.18787e-14
-3.20188e-14
-3.18775e-14
-3.20172e-14
-3.18769e-14
-3.20136e-14
-3.18782e-14
-3.20135e-14
-3.18788e-14
-3.20128e-14
-3.18766e-14
-3.20122e-14
-3.18757e-14
-3.20124e-14
-3.18748e-14
-3.20126e-14
-3.18743e-14
-3.20128e-14
-3.1872e-14
-3.20157e-14
-3.18683e-14
-3.20173e-14
-3.18653e-14
-3.20178e-14
-3.1864e-14
-3.20183e-14
-3.18626e-14
-3.20189e-14
-3.18624e-14
-3.20195e-14
-3.18633e-14
-3.20202e-14
-3.18623e-14
-3.20204e-14
-3.18619e-14
-3.20196e-14
-3.18631e-14
-3.20188e-14
-3.18642e-14
-3.20176e-14
-3.18647e-14
-3.20174e-14
-3.18651e-14
-3.20184e-14
-3.18649e-14
-3.20181e-14
-3.1865e-14
-3.20182e-14
-3.1865e-14
-3.20177e-14
-3.18652e-14
-3.20174e-14
-3.18658e-14
-3.20168e-14
-3.18659e-14
-3.20165e-14
-3.18662e-14
-3.20165e-14
-3.1867e-14
-3.2016e-14
-3.18681e-14
-3.20154e-14
-3.18688e-14
-3.20152e-14
-3.18689e-14
-3.20151e-14
-3.1869e-14
-3.20148e-14
-3.18693e-14
-3.20143e-14
-3.18696e-14
-3.20141e-14
-3.18694e-14
-3.20141e-14
-3.18692e-14
-3.20137e-14
-3.18696e-14
-3.20132e-14
-3.18705e-14
-3.20126e-14
-3.18713e-14
-3.20121e-14
-3.18717e-14
-3.20122e-14
-3.18719e-14
-3.20122e-14
-3.18719e-14
-3.20123e-14
-3.18722e-14
-3.20125e-14
-3.18726e-14
-3.20123e-14
-3.18727e-14
-3.2012e-14
-3.18726e-14
-3.2012e-14
-3.18726e-14
-3.20121e-14
-3.18729e-14
-3.20121e-14
-3.18732e-14
-3.2012e-14
-3.18735e-14
-3.2012e-14
-3.18737e-14
-3.2012e-14
-3.18737e-14
-3.20118e-14
-3.18738e-14
-3.20117e-14
-3.18741e-14
-3.2012e-14
-3.18743e-14
-3.20121e-14
-3.18745e-14
-3.20121e-14
-3.18746e-14
-3.20121e-14
-3.18747e-14
-3.20122e-14
-3.18746e-14
-3.20123e-14
-3.18745e-14
-3.20124e-14
-3.18744e-14
-3.20125e-14
-3.18746e-14
-3.20125e-14
-3.18747e-14
-3.20125e-14
-3.18746e-14
-3.20126e-14
-3.18745e-14
-3.20127e-14
-3.18746e-14
-3.20127e-14
-3.18745e-14
-3.20128e-14
-3.18744e-14
-3.2013e-14
-3.18745e-14
-3.2013e-14
-3.18745e-14
-3.20129e-14
-3.18744e-14
-3.2013e-14
-3.18743e-14
-3.2013e-14
-3.18743e-14
-3.2013e-14
-3.18743e-14
-3.20131e-14
-3.18743e-14
-3.20131e-14
-3.18743e-14
-3.20131e-14
-3.18742e-14
-3.20131e-14
-3.18742e-14
-3.20131e-14
-3.18743e-14
-3.20131e-14
-3.18742e-14
-3.20131e-14
-3.18742e-14
-3.20132e-14
-3.18742e-14
-3.20132e-14
-3.18742e-14
-3.20132e-14
-3.18742e-14
-3.20132e-14
-3.18742e-14
)
;

boundaryField
{
    walls
    {
        type            zeroGradient;
    }
    inlet
    {
        type            cyclic;
    }
    outlet
    {
        type            cyclic;
    }
    sides
    {
        type            empty;
    }
}


// ************************************************************************* //
