/*--------------------------------*- C++ -*----------------------------------*\
| =========                 |                                                 |
| \\      /  F ield         | OpenFOAM: The Open Source CFD Toolbox           |
|  \\    /   O peration     | Version:  2106                                  |
|   \\  /    A nd           | Website:  www.openfoam.com                      |
|    \\/     M anipulation  |                                                 |
\*---------------------------------------------------------------------------*/
FoamFile
{
    version     2.0;
    format      ascii;
    arch        "LSB;label=32;scalar=64";
    class       surfaceScalarField;
    location    "10080";
    object      phi;
}
// * * * * * * * * * * * * * * * * * * * * * * * * * * * * * * * * * * * * * //

dimensions      [0 3 -1 0 0 0 0];

oriented        oriented;

internalField   nonuniform List<scalar> 
3996
(
2.03864e-08
-5.06321e-18
1.69252e-22
1.4032e-22
7.38527e-23
6.26806e-08
-5.06646e-18
1.19677e-21
1.92133e-21
2.53176e-22
1.07335e-07
-5.06981e-18
1.24505e-21
3.75622e-21
2.67621e-22
1.54454e-07
-5.07323e-18
1.28107e-21
5.6201e-21
2.82883e-22
2.04142e-07
-5.0767e-18
1.32016e-21
7.53682e-21
2.99011e-22
2.56512e-07
-5.0803e-18
1.36222e-21
9.49125e-21
3.16053e-22
3.11678e-07
-5.08404e-18
1.40596e-21
1.15509e-20
3.34061e-22
3.69761e-07
-5.08795e-18
1.45114e-21
1.3638e-20
3.53091e-22
4.30887e-07
-5.09187e-18
1.49781e-21
1.57274e-20
3.73197e-22
4.95183e-07
-5.09594e-18
1.54597e-21
1.78716e-20
3.94439e-22
5.62786e-07
-5.10007e-18
1.59559e-21
1.9952e-20
4.16882e-22
6.33836e-07
-5.10436e-18
1.64667e-21
2.23728e-20
4.40591e-22
7.08477e-07
-5.10879e-18
1.69922e-21
2.45578e-20
4.65631e-22
7.86862e-07
-5.11324e-18
1.75324e-21
2.67727e-20
4.92077e-22
8.69147e-07
-5.11762e-18
1.80874e-21
2.91738e-20
5.2001e-22
9.55495e-07
-5.12242e-18
1.86576e-21
3.16714e-20
5.49503e-22
1.04607e-06
-5.12772e-18
1.92431e-21
3.43607e-20
5.80627e-22
1.14106e-06
-5.13283e-18
1.98443e-21
3.68049e-20
6.1346e-22
1.24064e-06
-5.13831e-18
2.04612e-21
3.9577e-20
6.48093e-22
1.34499e-06
-5.14356e-18
2.10939e-21
4.21974e-20
6.84608e-22
1.45432e-06
-5.14885e-18
2.17425e-21
4.4561e-20
7.2311e-22
1.56881e-06
-5.15453e-18
2.24068e-21
4.72981e-20
7.63699e-22
1.68868e-06
-5.16063e-18
2.30867e-21
5.0108e-20
8.06464e-22
1.81415e-06
-5.16631e-18
2.37822e-21
5.27327e-20
8.515e-22
1.94542e-06
-5.17243e-18
2.44926e-21
5.5641e-20
8.98905e-22
2.08273e-06
-5.17863e-18
2.52177e-21
5.85482e-20
9.4874e-22
2.2263e-06
-5.18457e-18
2.59569e-21
6.0944e-20
1.00107e-21
2.37637e-06
-5.19138e-18
2.6709e-21
6.39183e-20
1.05602e-21
2.53317e-06
-5.19798e-18
2.74731e-21
6.6813e-20
1.11363e-21
2.69695e-06
-5.20376e-18
2.82476e-21
6.9956e-20
1.17391e-21
2.86793e-06
-5.21093e-18
2.90303e-21
7.32892e-20
1.23688e-21
3.04637e-06
-5.21769e-18
2.98195e-21
7.5826e-20
1.30257e-21
3.2325e-06
-5.22526e-18
3.06124e-21
7.91829e-20
1.37101e-21
3.42656e-06
-5.23246e-18
3.14057e-21
8.18309e-20
1.44218e-21
3.62877e-06
-5.24009e-18
3.21956e-21
8.49145e-20
1.51604e-21
3.83935e-06
-5.24712e-18
3.2978e-21
8.77797e-20
1.59246e-21
4.05852e-06
-5.25435e-18
3.37479e-21
8.97156e-20
1.67134e-21
4.28646e-06
-5.26291e-18
3.45006e-21
9.25983e-20
1.75253e-21
4.52338e-06
-5.27108e-18
3.5231e-21
9.64547e-20
1.83583e-21
4.76942e-06
-5.2777e-18
3.59326e-21
9.69209e-20
1.92096e-21
5.02474e-06
-5.2835e-18
3.65976e-21
9.91526e-20
2.00784e-21
5.28947e-06
-5.29304e-18
3.72194e-21
1.03605e-19
2.09605e-21
5.56371e-06
-5.30289e-18
3.77956e-21
1.06031e-19
2.18498e-21
5.84754e-06
-5.31029e-18
3.83215e-21
1.1003e-19
2.27428e-21
6.14102e-06
-5.31763e-18
3.87891e-21
1.12967e-19
2.36347e-21
6.4442e-06
-5.32583e-18
3.91937e-21
1.14724e-19
2.45223e-21
6.75709e-06
-5.33536e-18
3.95301e-21
1.1673e-19
2.54017e-21
7.07969e-06
-5.34284e-18
3.97943e-21
1.19577e-19
2.62704e-21
7.41201e-06
-5.35315e-18
3.99809e-21
1.23496e-19
2.71233e-21
7.754e-06
-5.35894e-18
4.00884e-21
1.22954e-19
2.79558e-21
8.10563e-06
-5.37037e-18
4.01115e-21
1.24299e-19
2.87708e-21
8.46687e-06
-5.37798e-18
4.00554e-21
1.26379e-19
2.95619e-21
8.83768e-06
-5.38776e-18
3.9915e-21
1.27654e-19
3.03265e-21
9.21801e-06
-5.39369e-18
3.96943e-21
1.25872e-19
3.10628e-21
9.60783e-06
-5.398e-18
3.9388e-21
1.26063e-19
3.17723e-21
1.00071e-05
-5.40349e-18
3.89963e-21
1.25235e-19
3.24518e-21
1.04158e-05
-5.40928e-18
3.8521e-21
1.22332e-19
3.31048e-21
1.0834e-05
-5.4154e-18
3.79672e-21
1.20008e-19
3.3732e-21
1.12616e-05
-5.42128e-18
3.73376e-21
1.16657e-19
3.43299e-21
1.16987e-05
-5.42873e-18
3.66329e-21
1.17215e-19
3.48997e-21
1.21452e-05
-5.43375e-18
3.58578e-21
1.15379e-19
3.54375e-21
1.26014e-05
-5.44055e-18
3.50122e-21
1.16671e-19
3.59452e-21
1.30671e-05
-5.44544e-18
3.40966e-21
1.13684e-19
3.64229e-21
1.35426e-05
-5.44964e-18
3.31152e-21
1.11109e-19
3.68725e-21
1.40279e-05
-5.45108e-18
3.20724e-21
1.0766e-19
3.72902e-21
1.45231e-05
-5.45464e-18
3.09686e-21
1.02421e-19
3.76781e-21
1.50285e-05
-5.45783e-18
2.98129e-21
9.9776e-20
3.80344e-21
1.5544e-05
-5.46064e-18
2.86039e-21
9.22335e-20
3.83604e-21
1.60699e-05
-5.46264e-18
2.73431e-21
8.8137e-20
3.86678e-21
1.66064e-05
-5.46408e-18
2.60236e-21
7.96134e-20
3.8947e-21
1.71536e-05
-5.46541e-18
2.46454e-21
7.20515e-20
3.92065e-21
1.77117e-05
-5.46384e-18
2.32117e-21
6.66753e-20
3.9448e-21
1.8281e-05
-5.4639e-18
2.17127e-21
5.62633e-20
3.96741e-21
1.88617e-05
-5.46099e-18
2.01624e-21
4.77523e-20
3.98883e-21
1.9454e-05
-5.45887e-18
1.85437e-21
3.65518e-20
4.00895e-21
2.00582e-05
-5.4543e-18
1.6873e-21
2.62244e-20
4.02843e-21
2.06745e-05
-5.44776e-18
1.51414e-21
1.62312e-20
4.04458e-21
2.13031e-05
-5.44583e-18
1.33458e-21
1.01359e-20
4.0591e-21
2.19444e-05
-5.44488e-18
1.1486e-21
2.95535e-21
4.07341e-21
2.25986e-05
-5.44597e-18
9.58229e-22
-7.45763e-22
4.08582e-21
2.3266e-05
-5.44238e-18
7.64284e-22
-1.04145e-20
4.09277e-21
2.39469e-05
-5.43792e-18
5.66659e-22
-1.80351e-20
4.09768e-21
2.46417e-05
-5.43533e-18
3.6591e-22
-2.72843e-20
4.09846e-21
2.53505e-05
-5.43672e-18
1.62652e-22
-2.95217e-20
4.09667e-21
2.60738e-05
-5.4307e-18
-4.19962e-23
-3.76117e-20
4.08743e-21
2.68119e-05
-5.42256e-18
-2.49564e-22
-4.82651e-20
4.07212e-21
2.7565e-05
-5.41795e-18
-4.60681e-22
-6.26681e-20
4.0496e-21
2.83336e-05
-5.41633e-18
-6.74242e-22
-6.77035e-20
4.02304e-21
2.9118e-05
-5.40784e-18
-8.87295e-22
-7.87215e-20
3.98729e-21
2.99185e-05
-5.39731e-18
-1.10283e-21
-8.98618e-20
3.94688e-21
3.07356e-05
-5.38665e-18
-1.32387e-21
-1.03761e-19
3.89969e-21
3.15695e-05
-5.3736e-18
-1.54922e-21
-1.22454e-19
3.84785e-21
3.24207e-05
-5.36502e-18
-1.77983e-21
-1.38903e-19
3.79233e-21
3.32896e-05
-5.3501e-18
-2.01365e-21
-1.53024e-19
3.7322e-21
3.41765e-05
-5.33438e-18
-2.2525e-21
-1.70997e-19
3.66914e-21
3.50819e-05
-5.32353e-18
-2.49847e-21
-1.86093e-19
3.60441e-21
3.60062e-05
-5.30104e-18
-2.74815e-21
-2.10515e-19
3.53471e-21
3.69497e-05
-5.27679e-18
-3.00098e-21
-2.31123e-19
3.46088e-21
3.7913e-05
-5.25342e-18
-3.26532e-21
-2.54491e-19
3.38359e-21
3.88965e-05
-5.23339e-18
-3.53601e-21
-2.68029e-19
3.30684e-21
3.99006e-05
-5.21675e-18
-3.81346e-21
-2.8744e-19
3.22331e-21
4.09257e-05
-5.19986e-18
-4.09503e-21
-3.0624e-19
3.13504e-21
4.19724e-05
-5.17627e-18
-4.37609e-21
-3.22648e-19
3.0404e-21
4.30411e-05
-5.14981e-18
-4.66179e-21
-3.46831e-19
2.93916e-21
4.41323e-05
-5.11944e-18
-4.94417e-21
-3.73145e-19
2.83158e-21
4.52465e-05
-5.10894e-18
-5.23975e-21
-3.87423e-19
2.72913e-21
4.63842e-05
-5.10003e-18
-5.53486e-21
-3.88663e-19
2.62358e-21
4.7546e-05
-5.07772e-18
-5.82349e-21
-4.08243e-19
2.50544e-21
4.87322e-05
-5.06028e-18
-6.11585e-21
-4.23606e-19
2.38141e-21
4.99436e-05
-5.03493e-18
-6.39868e-21
-4.39254e-19
2.25085e-21
5.11806e-05
-5.01641e-18
-6.67787e-21
-4.5334e-19
2.11686e-21
5.24437e-05
-4.99069e-18
-6.94061e-21
-4.73954e-19
1.97563e-21
5.37337e-05
-4.96871e-18
-7.20484e-21
-4.87612e-19
1.84437e-21
5.50509e-05
-4.93982e-18
-7.46651e-21
-5.07189e-19
1.71376e-21
5.63961e-05
-4.91557e-18
-7.73727e-21
-5.31559e-19
1.58504e-21
5.77699e-05
-4.88395e-18
-8.01951e-21
-5.49905e-19
1.48168e-21
5.91728e-05
-4.85575e-18
-8.30924e-21
-5.73959e-19
1.38882e-21
6.06055e-05
-4.81859e-18
-8.60684e-21
-5.97935e-19
1.3208e-21
6.20686e-05
-4.80148e-18
-8.91348e-21
-6.18599e-19
1.25917e-21
6.35628e-05
-4.78363e-18
-9.2087e-21
-6.3102e-19
1.18868e-21
6.50887e-05
-4.75838e-18
-9.4838e-21
-6.37326e-19
1.09803e-21
6.66471e-05
-4.74465e-18
-9.74511e-21
-6.41491e-19
9.8228e-22
6.82386e-05
-4.71795e-18
-9.96781e-21
-6.57324e-19
8.44247e-22
6.9864e-05
-4.70768e-18
-1.01742e-20
-6.62135e-19
7.27366e-22
7.15239e-05
-4.67297e-18
-1.03483e-20
-6.70616e-19
5.81663e-22
7.32191e-05
-4.62491e-18
-1.05169e-20
-7.02562e-19
4.3997e-22
7.49504e-05
-4.59269e-18
-1.07208e-20
-7.12071e-19
3.24495e-22
7.67186e-05
-4.56258e-18
-1.09218e-20
-7.35526e-19
1.97875e-22
7.85243e-05
-4.52336e-18
-1.11222e-20
-7.6917e-19
4.65346e-23
8.03685e-05
-4.47964e-18
-1.1318e-20
-8.00159e-19
-7.7384e-23
8.22519e-05
-4.44934e-18
-1.15432e-20
-8.26055e-19
-1.63675e-22
8.41754e-05
-4.39806e-18
-1.17643e-20
-8.31305e-19
-2.42962e-22
8.61398e-05
-4.37508e-18
-1.20209e-20
-8.55324e-19
-3.70174e-22
8.8146e-05
-4.31676e-18
-1.22367e-20
-8.76435e-19
-4.76671e-22
9.01949e-05
-4.28262e-18
-1.24816e-20
-8.80071e-19
-5.62329e-22
9.22874e-05
-4.26255e-18
-1.27274e-20
-9.08872e-19
-6.48797e-22
9.44244e-05
-4.22711e-18
-1.29271e-20
-9.32194e-19
-7.55397e-22
9.66069e-05
-4.19121e-18
-1.30883e-20
-9.48889e-19
-8.72337e-22
9.88357e-05
-4.16466e-18
-1.32105e-20
-9.8336e-19
-1.00069e-21
0.000101112
-4.12612e-18
-1.33246e-20
-1.00962e-18
-1.11025e-21
0.000103437
-4.09614e-18
-1.34237e-20
-1.0193e-18
-1.25162e-21
0.000105811
-4.06615e-18
-1.35168e-20
-1.04397e-18
-1.463e-21
0.000108235
-4.01046e-18
-1.3614e-20
-1.07165e-18
-1.65417e-21
0.000110711
-3.97191e-18
-1.36863e-20
-1.09962e-18
-1.82e-21
0.00011324
-3.9347e-18
-1.37388e-20
-1.1263e-18
-1.99279e-21
0.000115822
-3.87745e-18
-1.38364e-20
-1.16494e-18
-2.16656e-21
0.00011846
-3.8372e-18
-1.4001e-20
-1.2019e-18
-2.2848e-21
0.000121153
-3.81258e-18
-1.42075e-20
-1.2044e-18
-2.39236e-21
0.000123903
-3.77417e-18
-1.43341e-20
-1.21266e-18
-2.61163e-21
0.000126712
-3.71717e-18
-1.4372e-20
-1.25793e-18
-2.87421e-21
0.00012958
-3.65883e-18
-1.44529e-20
-1.28066e-18
-3.05416e-21
0.000132509
-3.62319e-18
-1.45325e-20
-1.29128e-18
-3.23239e-21
0.000135501
-3.59571e-18
-1.458e-20
-1.33361e-18
-3.54362e-21
0.000138555
-3.54278e-18
-1.46011e-20
-1.36334e-18
-3.66588e-21
0.000141675
-3.49905e-18
-1.46037e-20
-1.36628e-18
-3.72241e-21
0.00014486
-3.45657e-18
-1.46317e-20
-1.40948e-18
-3.68353e-21
0.000148113
-3.4139e-18
-1.45821e-20
-1.41559e-18
-3.64462e-21
0.000151435
-3.35699e-18
-1.45946e-20
-1.4384e-18
-3.79101e-21
0.000154827
-3.31249e-18
-1.47655e-20
-1.46168e-18
-3.95425e-21
0.000158291
-3.28329e-18
-1.48489e-20
-1.47577e-18
-3.96443e-21
0.000161828
-3.23074e-18
-1.48503e-20
-1.50091e-18
-3.9826e-21
0.000165439
-3.1735e-18
-1.46174e-20
-1.51373e-18
-3.9672e-21
0.000169127
-3.13917e-18
-1.4387e-20
-1.52865e-18
-3.7384e-21
0.000172893
-3.08778e-18
-1.4035e-20
-1.53887e-18
-3.60909e-21
0.000176738
-3.0412e-18
-1.37505e-20
-1.55424e-18
-3.73678e-21
0.000180665
-2.98882e-18
-1.38005e-20
-1.56027e-18
-3.82564e-21
0.000184674
-2.94811e-18
-1.40695e-20
-1.56978e-18
-4.14835e-21
0.000188768
-2.90195e-18
-1.42102e-20
-1.56947e-18
-4.32478e-21
0.000192948
-2.87179e-18
-1.42831e-20
-1.54656e-18
-4.32154e-21
0.000197216
-2.82859e-18
-1.44753e-20
-1.58955e-18
-4.77151e-21
0.000201574
-2.80318e-18
-1.47198e-20
-1.61197e-18
-5.11716e-21
0.000206023
-2.72582e-18
-1.46928e-20
-1.62393e-18
-5.49705e-21
0.000210566
-2.71756e-18
-1.48943e-20
-1.63208e-18
-5.9694e-21
0.000215204
-2.66284e-18
-1.48138e-20
-1.65266e-18
-6.57805e-21
0.00021994
-2.62964e-18
-1.48231e-20
-1.61857e-18
-7.03447e-21
0.000224775
-2.58457e-18
-1.47814e-20
-1.62355e-18
-7.91249e-21
0.000229711
-2.55425e-18
-1.48905e-20
-1.64088e-18
-8.54286e-21
0.000234751
-2.53288e-18
-1.49534e-20
-1.61726e-18
-9.25274e-21
0.000239897
-2.50025e-18
-1.50879e-20
-1.60498e-18
-1.01028e-20
0.00024515
-2.42821e-18
-1.52349e-20
-1.63762e-18
-1.15294e-20
0.000250512
-2.34797e-18
-1.50822e-20
-1.56356e-18
-1.30453e-20
0.000255987
-2.26614e-18
-1.52762e-20
-1.62541e-18
-1.50866e-20
0.000261576
-2.23879e-18
-1.58826e-20
-1.6666e-18
-1.58017e-20
0.000267282
-2.18716e-18
-1.60545e-20
-1.71951e-18
-1.56971e-20
0.000273107
-2.15972e-18
-1.62885e-20
-1.71941e-18
-1.56737e-20
0.000279053
-2.15694e-18
-1.61166e-20
-1.76368e-18
-1.67804e-20
0.000285122
-2.12941e-18
-1.69717e-20
-1.80338e-18
-1.73318e-20
0.000291318
-2.09453e-18
-1.72049e-20
-1.86277e-18
-1.86175e-20
0.000297642
-2.08311e-18
-1.84313e-20
-1.83711e-18
-1.95419e-20
0.000304098
-2.0597e-18
-1.89524e-20
-1.85965e-18
-2.0643e-20
0.000310687
-2.04806e-18
-1.9519e-20
-1.81925e-18
-2.11516e-20
0.000317413
-1.99937e-18
-1.98941e-20
-1.85956e-18
-2.30985e-20
0.000324278
-1.93676e-18
-2.0556e-20
-1.88965e-18
-2.40572e-20
0.000331284
-1.92073e-18
-2.19248e-20
-1.88809e-18
-2.50738e-20
0.000338436
-1.93797e-18
-2.27811e-20
-1.87907e-18
-2.46199e-20
0.000345734
-1.87829e-18
-2.29391e-20
-1.83502e-18
-2.47768e-20
0.000353183
-1.86241e-18
-2.35782e-20
-1.84608e-18
-2.58345e-20
0.000360785
-1.86127e-18
-2.47634e-20
-1.91228e-18
-2.62186e-20
0.000368542
-1.79109e-18
-2.37073e-20
-1.85688e-18
-2.53788e-20
0.000376459
-1.81115e-18
-2.41857e-20
-1.76969e-18
-2.47835e-20
0.000384538
-1.76809e-18
-2.30526e-20
-1.758e-18
-2.52419e-20
0.000392782
-1.73379e-18
-2.16306e-20
-1.66736e-18
-2.35731e-20
0.000401194
-1.71188e-18
-2.07507e-20
-1.60314e-18
-2.51901e-20
0.000409777
-1.73466e-18
-2.01791e-20
-1.5269e-18
-2.86566e-20
0.000418535
-1.60629e-18
-1.92947e-20
-1.59609e-18
-3.34465e-20
0.00042747
-1.51743e-18
-2.07803e-20
-1.55931e-18
-3.45651e-20
0.000436586
-1.50689e-18
-2.4113e-20
-1.53189e-18
-3.34239e-20
0.000445887
-1.45037e-18
-2.80687e-20
-1.47654e-18
-3.16317e-20
0.000455375
-1.4023e-18
-3.03517e-20
-1.32809e-18
-3.0788e-20
0.000465054
-1.34104e-18
-3.31215e-20
-1.31183e-18
-3.29694e-20
0.000474927
-1.28764e-18
-3.4358e-20
-1.25724e-18
-3.49475e-20
0.000484998
-1.26645e-18
-3.84668e-20
-1.2086e-18
-3.55956e-20
0.000495269
-1.29743e-18
-4.23345e-20
-1.21516e-18
-3.49316e-20
0.000505746
-1.14492e-18
-4.49527e-20
-1.15917e-18
-3.49783e-20
0.00051643
-1.18056e-18
-4.77729e-20
-1.20782e-18
-3.97149e-20
0.000527326
-1.26677e-18
-4.53759e-20
-1.19239e-18
-3.92097e-20
0.000538436
-1.21075e-18
-4.16183e-20
-1.22197e-18
-3.46915e-20
0.000549765
-1.23441e-18
-3.92915e-20
-1.16095e-18
-2.75233e-20
0.000561316
-1.18336e-18
-3.78576e-20
-1.28717e-18
-2.58282e-20
0.000573092
-1.256e-18
-3.88027e-20
-1.23675e-18
-2.0784e-20
0.000585097
-1.10221e-18
-3.13497e-20
-1.23505e-18
-2.26844e-20
0.000597333
-1.17857e-18
-3.71816e-20
-1.13682e-18
-2.60761e-20
0.000609806
-1.25405e-18
-4.3392e-20
-1.1612e-18
-2.46407e-20
0.000622517
-1.22144e-18
-4.57623e-20
-1.18075e-18
-2.25277e-20
0.00063547
-1.16354e-18
-4.27805e-20
-1.12065e-18
-1.65804e-20
0.000648668
-1.16873e-18
-3.93145e-20
-1.06088e-18
-1.6995e-20
0.000662114
-1.13059e-18
-4.08246e-20
-1.14763e-18
-1.48834e-20
0.000675812
-1.09543e-18
-3.60019e-20
-1.11595e-18
-9.90313e-21
0.000689763
-1.14354e-18
-3.17151e-20
-1.16326e-18
-7.92448e-21
0.000703971
-1.23479e-18
-2.14969e-20
-1.08058e-18
-8.66418e-21
0.000718438
-1.15276e-18
-6.19886e-21
-1.04654e-18
-1.40525e-20
0.000733166
-9.74619e-19
-8.87931e-23
-1.22895e-18
-1.83733e-20
0.000748157
-8.90705e-19
-5.10259e-21
-1.28451e-18
-1.56869e-20
0.000763413
-1.10258e-18
-2.61978e-20
-1.16918e-18
-1.42704e-20
0.000778935
-1.01723e-18
-3.02352e-20
-1.24787e-18
-1.13685e-20
0.000794725
-1.18853e-18
-4.43877e-20
-1.25649e-18
-6.97261e-21
0.000810782
-1.20123e-18
-4.50012e-20
-1.29805e-18
-1.2686e-20
0.000827106
-1.22031e-18
-4.58408e-20
-1.15968e-18
-3.92078e-21
0.000843698
-1.24518e-18
-4.58657e-20
-1.19139e-18
-6.30559e-21
0.000860555
-1.39078e-18
-4.96812e-20
-9.95156e-19
-7.71258e-21
0.000877677
-1.25189e-18
-2.798e-20
-1.13316e-18
-2.70508e-20
0.00089506
-1.23281e-18
-1.25226e-20
-1.03914e-18
-2.11591e-20
0.000912701
-1.08681e-18
1.13608e-21
-9.94786e-19
-1.29992e-20
0.000930596
-9.80258e-19
-6.95768e-21
-9.64249e-19
-1.12963e-20
0.00094874
-9.15868e-19
-2.12648e-20
-9.91491e-19
-4.33062e-21
0.000967126
-8.77724e-19
-1.6219e-20
-1.01922e-18
-1.1776e-20
0.000985747
-9.06683e-19
-2.37967e-20
-1.0697e-18
-2.9608e-20
0.00100459
-1.04067e-18
-3.09976e-20
-9.13511e-19
-3.02143e-20
0.00102366
-8.64503e-19
-9.83214e-21
-7.97464e-19
-2.13768e-20
0.00104293
-4.30604e-21
-9.10334e-19
-4.15568e-20
-8.68742e-19
2.03864e-08
1.45517e-22
9.9383e-23
6.26806e-08
1.20737e-21
4.99694e-22
1.07335e-07
2.30368e-21
9.23397e-22
1.54454e-07
3.39801e-21
1.40358e-21
2.04142e-07
4.52434e-21
1.8688e-21
2.56512e-07
5.71274e-21
2.38198e-21
3.11678e-07
6.99693e-21
2.98019e-21
3.69761e-07
8.25778e-21
3.53214e-21
4.30887e-07
9.56847e-21
4.09047e-21
4.95183e-07
1.07991e-20
4.92014e-21
5.62786e-07
1.20708e-20
5.59187e-21
6.33836e-07
1.3387e-20
6.42732e-21
7.08477e-07
1.48272e-20
7.18629e-21
7.86862e-07
1.61913e-20
8.21587e-21
8.69147e-07
1.77024e-20
9.20273e-21
9.55495e-07
1.96377e-20
9.90528e-21
1.04607e-06
2.1223e-20
1.06483e-20
1.14106e-06
2.29069e-20
1.13705e-20
1.24064e-06
2.46978e-20
1.22692e-20
1.34499e-06
2.64975e-20
1.35099e-20
1.45432e-06
2.80195e-20
1.48618e-20
1.56881e-06
2.93678e-20
1.64875e-20
1.68868e-06
3.10549e-20
1.80324e-20
1.81415e-06
3.26742e-20
1.9452e-20
1.94542e-06
3.48409e-20
2.03873e-20
2.08273e-06
3.71065e-20
2.08405e-20
2.2263e-06
3.93431e-20
2.26055e-20
2.37637e-06
4.18637e-20
2.39837e-20
2.53317e-06
4.40337e-20
2.51337e-20
2.69695e-06
4.66737e-20
2.6403e-20
2.86793e-06
4.91366e-20
2.79562e-20
3.04637e-06
5.17557e-20
3.01212e-20
3.2325e-06
5.35614e-20
3.29121e-20
3.42656e-06
5.55866e-20
3.55405e-20
3.62877e-06
5.76291e-20
3.78192e-20
3.83935e-06
6.05323e-20
3.97276e-20
4.05852e-06
6.46653e-20
4.1159e-20
4.28646e-06
6.81953e-20
4.31641e-20
4.52338e-06
7.12561e-20
4.5401e-20
4.76942e-06
7.29427e-20
4.87452e-20
5.02474e-06
7.48137e-20
5.21122e-20
5.28947e-06
7.76502e-20
5.42111e-20
5.56371e-06
8.1583e-20
5.64239e-20
5.84754e-06
8.48182e-20
5.96885e-20
6.14102e-06
8.87767e-20
6.36072e-20
6.4442e-06
9.13223e-20
6.71581e-20
6.75709e-06
9.30494e-20
7.22483e-20
7.07969e-06
9.50238e-20
7.69959e-20
7.41201e-06
9.62781e-20
8.10717e-20
7.754e-06
9.85183e-20
8.69252e-20
8.10563e-06
1.03077e-19
9.02903e-20
8.46687e-06
1.0574e-19
9.40054e-20
8.83768e-06
1.09788e-19
9.64762e-20
9.21801e-06
1.11909e-19
1.00201e-19
9.60783e-06
1.14923e-19
1.04299e-19
1.00071e-05
1.16077e-19
1.10265e-19
1.04158e-05
1.19495e-19
1.15279e-19
1.0834e-05
1.23644e-19
1.18883e-19
1.12616e-05
1.26293e-19
1.23054e-19
1.16987e-05
1.28574e-19
1.28199e-19
1.21452e-05
1.31355e-19
1.31772e-19
1.26014e-05
1.31284e-19
1.36596e-19
1.30671e-05
1.33664e-19
1.40511e-19
1.35426e-05
1.36167e-19
1.44425e-19
1.40279e-05
1.38756e-19
1.48652e-19
1.45231e-05
1.43095e-19
1.51191e-19
1.50285e-05
1.4584e-19
1.56323e-19
1.5544e-05
1.49761e-19
1.60288e-19
1.60699e-05
1.51224e-19
1.6229e-19
1.66064e-05
1.54242e-19
1.66665e-19
1.71536e-05
1.59091e-19
1.68286e-19
1.77117e-05
1.60149e-19
1.70942e-19
1.8281e-05
1.64405e-19
1.75185e-19
1.88617e-05
1.60514e-19
1.82078e-19
1.9454e-05
1.64463e-19
1.87971e-19
2.00582e-05
1.66073e-19
1.86504e-19
2.06745e-05
1.66512e-19
1.91505e-19
2.13031e-05
1.63855e-19
1.98433e-19
2.19444e-05
1.66577e-19
2.02243e-19
2.25986e-05
1.65899e-19
2.03919e-19
2.3266e-05
1.66543e-19
2.10704e-19
2.39469e-05
1.66898e-19
2.12979e-19
2.46417e-05
1.67003e-19
2.24696e-19
2.53505e-05
1.68679e-19
2.28135e-19
2.60738e-05
1.71577e-19
2.33788e-19
2.68119e-05
1.73676e-19
2.36049e-19
2.7565e-05
1.7667e-19
2.45017e-19
2.83336e-05
1.82816e-19
2.4696e-19
2.9118e-05
1.83386e-19
2.5411e-19
2.99185e-05
1.77399e-19
2.57125e-19
3.07356e-05
1.76657e-19
2.61967e-19
3.15695e-05
1.7665e-19
2.63069e-19
3.24207e-05
1.76352e-19
2.63164e-19
3.32896e-05
1.76762e-19
2.70503e-19
3.41765e-05
1.7258e-19
2.81765e-19
3.50819e-05
1.70009e-19
2.85176e-19
3.60062e-05
1.78376e-19
2.77821e-19
3.69497e-05
1.7208e-19
2.78129e-19
3.7913e-05
1.75631e-19
2.80097e-19
3.88965e-05
1.72598e-19
2.79468e-19
3.99006e-05
1.66293e-19
2.82841e-19
4.09257e-05
1.65223e-19
2.81729e-19
4.19724e-05
1.61688e-19
2.83388e-19
4.30411e-05
1.7345e-19
2.82579e-19
4.41323e-05
1.64328e-19
2.91681e-19
4.52465e-05
1.56664e-19
2.91791e-19
4.63842e-05
1.5419e-19
2.99216e-19
4.7546e-05
1.46262e-19
3.04001e-19
4.87322e-05
1.44933e-19
3.03828e-19
4.99436e-05
1.39835e-19
3.0335e-19
5.11806e-05
1.45755e-19
3.00926e-19
5.24437e-05
1.45904e-19
3.05411e-19
5.37337e-05
1.50864e-19
3.01738e-19
5.50509e-05
1.48751e-19
2.95957e-19
5.63961e-05
1.42204e-19
3.04026e-19
5.77699e-05
1.46677e-19
3.00217e-19
5.91728e-05
1.41856e-19
3.0746e-19
6.06055e-05
1.34856e-19
3.02931e-19
6.20686e-05
1.21176e-19
2.98723e-19
6.35628e-05
1.17748e-19
2.97546e-19
6.50887e-05
1.1581e-19
3.04612e-19
6.66471e-05
1.2158e-19
3.07488e-19
6.82386e-05
1.23472e-19
3.19723e-19
6.9864e-05
1.20109e-19
3.08866e-19
7.15239e-05
1.17416e-19
3.22645e-19
7.32191e-05
1.02032e-19
3.21132e-19
7.49504e-05
1.02466e-19
3.17274e-19
7.67186e-05
9.73941e-20
3.03834e-19
7.85243e-05
1.0184e-19
3.03077e-19
8.03685e-05
9.2602e-20
2.99642e-19
8.22519e-05
8.9258e-20
3.01527e-19
8.41754e-05
7.79854e-20
3.01727e-19
8.61398e-05
7.7926e-20
3.03571e-19
8.8146e-05
7.01018e-20
2.92507e-19
9.01949e-05
4.93663e-20
3.04253e-19
9.22874e-05
3.75919e-20
2.98374e-19
9.44244e-05
3.67432e-20
2.95032e-19
9.66069e-05
4.34144e-20
2.85089e-19
9.88357e-05
3.28877e-20
2.74106e-19
0.000101112
3.16198e-20
2.6498e-19
0.000103437
1.73464e-20
2.52249e-19
0.000105811
1.17917e-21
2.44898e-19
0.000108235
1.67462e-20
2.38771e-19
0.000110711
1.83383e-20
2.25602e-19
0.00011324
5.35861e-21
2.09789e-19
0.000115822
1.57954e-21
2.04218e-19
0.00011846
-1.67973e-20
1.95194e-19
0.000121153
-1.86109e-20
1.79983e-19
0.000123903
-1.81401e-20
1.66988e-19
0.000126712
-4.89602e-20
1.40477e-19
0.00012958
-5.49554e-20
1.26671e-19
0.000132509
-6.24042e-20
1.0966e-19
0.000135501
-7.72364e-20
1.41003e-19
0.000138555
-6.0425e-20
1.26227e-19
0.000141675
-6.8899e-20
1.39301e-19
0.00014486
-6.64634e-20
1.14882e-19
0.000148113
-9.13879e-20
9.82758e-20
0.000151435
-1.18887e-19
8.46959e-20
0.000154827
-1.07963e-19
8.91064e-20
0.000158291
-1.14665e-19
9.15993e-20
0.000161828
-7.14443e-20
8.91937e-20
0.000165439
-6.17662e-20
1.09712e-19
0.000169127
-4.14174e-20
9.44263e-20
0.000172893
-3.39382e-20
6.11715e-20
0.000176738
-7.74988e-20
7.16368e-20
0.000180665
-1.04445e-19
4.7991e-20
0.000184674
-9.20985e-20
3.20356e-20
0.000188768
-8.23898e-20
2.55726e-20
0.000192948
-1.12798e-19
-4.82086e-21
0.000197216
-1.17001e-19
-2.20189e-20
0.000201574
-1.03872e-19
-3.65353e-20
0.000206023
-1.09709e-19
-2.6034e-20
0.000210566
-1.08408e-19
-3.6195e-20
0.000215204
-1.18105e-19
-4.63689e-20
0.00021994
-1.4083e-19
-6.94488e-20
0.000224775
-1.61608e-19
-4.23867e-20
0.000229711
-1.67909e-19
-6.51875e-20
0.000234751
-1.85369e-19
-5.70091e-20
0.000239897
-1.99686e-19
-9.53679e-20
0.00024515
-1.57076e-19
-1.29536e-19
0.000250512
-1.51497e-19
-8.47393e-20
0.000255987
-1.49375e-19
-4.34938e-20
0.000261576
-1.29216e-19
-2.37816e-20
0.000267282
-1.18179e-19
-2.41727e-20
0.000273107
-7.68316e-20
-8.70968e-20
0.000279053
-1.7635e-19
-1.00749e-19
0.000285122
-1.53937e-19
-1.67098e-19
0.000291318
-2.41653e-19
-1.61999e-19
0.000297642
-2.15074e-19
-1.7175e-19
0.000304098
-2.32712e-19
-1.91717e-19
0.000310687
-2.47682e-19
-2.63708e-19
0.000317413
-2.51957e-19
-2.63799e-19
0.000324278
-2.55477e-19
-3.00529e-19
0.000331284
-2.28706e-19
-2.03873e-19
0.000338436
-2.35201e-19
-2.44881e-19
0.000345734
-2.22845e-19
-2.89591e-19
0.000353183
-2.68181e-19
-2.7336e-19
0.000360785
-2.34867e-19
-2.78336e-19
0.000368542
-3.32606e-19
-2.6093e-19
0.000376459
-3.42203e-19
-2.95396e-19
0.000384538
-3.34604e-19
-2.58365e-19
0.000392782
-3.63643e-19
-3.15779e-19
0.000401194
-3.80568e-19
-3.61337e-19
0.000409777
-4.24066e-19
-4.191e-19
0.000418535
-4.32511e-19
-4.419e-19
0.00042747
-4.46299e-19
-3.55412e-19
0.000436586
-5.03576e-19
-3.03655e-19
0.000445887
-4.44513e-19
-3.1172e-19
0.000455375
-4.28939e-19
-3.19698e-19
0.000465054
-3.21814e-19
-3.88563e-19
0.000474927
-3.7196e-19
-3.40575e-19
0.000484998
-3.81554e-19
-2.44377e-19
0.000495269
-4.37747e-19
-2.66946e-19
0.000505746
-3.18887e-19
-3.29205e-19
0.00051643
-2.20329e-19
-2.80347e-19
0.000527326
-3.18716e-19
-2.87278e-19
0.000538436
-3.48176e-19
-3.41472e-19
0.000549765
-4.13293e-19
-4.27844e-19
0.000561316
-4.55926e-19
-4.47941e-19
0.000573092
-3.66732e-19
-4.76186e-19
0.000585097
-4.88828e-19
-4.8602e-19
0.000597333
-5.85901e-19
-3.69312e-19
0.000609806
-6.03522e-19
-4.16664e-19
0.000622517
-4.90297e-19
-3.67251e-19
0.00063547
-4.58939e-19
-4.75909e-19
0.000648668
-5.72448e-19
-3.90222e-19
0.000662114
-4.30611e-19
-4.84219e-19
0.000675812
-4.11236e-19
-5.28728e-19
0.000689763
-3.6753e-19
-4.88319e-19
0.000703971
-3.61141e-19
-4.24157e-19
0.000718438
-3.76609e-19
-3.85189e-19
0.000733166
-2.9426e-19
-3.90365e-19
0.000748157
-3.41344e-19
-4.26325e-19
0.000763413
-2.63213e-19
-2.97435e-19
0.000778935
-2.62388e-19
-3.06275e-19
0.000794725
-2.76679e-19
-4.01688e-19
0.000810782
-3.35975e-19
-3.34264e-19
0.000827106
-3.47435e-19
-3.6134e-19
0.000843698
-4.65055e-19
-3.7749e-19
0.000860555
-4.70497e-19
-4.86457e-19
0.000877677
-5.28388e-19
-5.56353e-19
0.00089506
-5.83643e-19
-5.03363e-19
0.000912701
-6.58292e-19
-5.2673e-19
0.000930596
-6.98742e-19
-5.76036e-19
0.00094874
-5.3366e-19
-8.10539e-19
0.000967126
-6.1461e-19
-8.71317e-19
0.000985747
-6.98201e-19
-8.07195e-19
0.00100459
-6.71055e-19
-6.26353e-19
0.00102366
-5.96763e-19
-6.41525e-19
0.00104293
-6.93208e-19
-5.57149e-19
0.00104293
-1.03558e-18
-1.0176e-20
-5.78513e-19
-4.09252e-20
0.00102366
-6.55813e-19
1.57342e-20
-6.26203e-19
-4.91568e-20
0.00100459
-6.82067e-19
5.07714e-21
-4.71792e-19
-4.6973e-20
0.000985747
-4.40999e-19
1.22849e-21
-5.0346e-19
-4.25526e-20
0.000967126
-4.68146e-19
5.72229e-21
-3.76082e-19
-2.55026e-20
0.00094874
-3.07418e-19
1.08662e-20
-4.72216e-19
-2.62761e-20
0.000930596
-5.62326e-19
-1.18312e-21
-4.25384e-19
-1.70909e-20
0.000912701
-3.57254e-19
1.93742e-20
-5.38134e-19
-1.55377e-20
0.00089506
-4.03427e-19
9.68827e-21
-5.59209e-19
-1.33119e-20
0.000877677
-3.50461e-19
3.95256e-21
-5.20706e-19
-1.09147e-20
0.000860555
-3.31542e-19
-1.88342e-21
-5.28678e-19
-3.32364e-21
0.000843698
-4.98818e-19
-1.52222e-20
-3.82537e-19
2.81452e-21
0.000827106
-4.57151e-19
-7.68431e-21
-4.20423e-19
-1.17196e-21
0.000810782
-3.83628e-19
-8.60905e-21
-4.07923e-19
2.46111e-21
0.000794725
-3.62027e-19
-1.26483e-20
-5.12367e-19
-3.4551e-21
0.000778935
-5.03185e-19
-2.2324e-20
-3.97042e-19
-2.0557e-21
0.000763413
-4.15884e-19
-1.63522e-20
-2.38894e-19
-3.74356e-21
0.000748157
-3.45345e-19
-9.51448e-21
-2.9316e-19
-9.52722e-21
0.000733166
-3.18381e-19
-9.85329e-21
-3.71993e-19
-5.53602e-21
0.000718438
-2.50942e-19
-2.53906e-21
-3.48447e-19
5.31629e-21
0.000703971
-2.88622e-19
-3.5025e-21
-3.93484e-19
7.84874e-21
0.000689763
-2.52701e-19
5.56236e-22
-3.18975e-19
1.05415e-20
0.000675812
-3.49409e-19
3.15756e-21
-3.06668e-19
8.93336e-21
0.000662114
-2.57207e-19
1.15698e-20
-1.49131e-19
1.48431e-20
0.000648668
-2.37586e-19
6.23106e-21
-1.50546e-19
1.43884e-20
0.00063547
-2.2562e-19
2.84969e-21
-1.91776e-19
1.05183e-20
0.000622517
-1.74598e-19
-3.04157e-21
-2.12594e-19
1.0529e-20
0.000609806
-2.81004e-19
-1.17819e-20
-2.86811e-19
7.49427e-21
0.000597333
-2.31034e-19
-9.17657e-21
-2.78487e-19
9.70688e-22
0.000585097
-2.35648e-19
-1.21111e-20
-2.69521e-19
-4.01358e-21
0.000573092
-1.98127e-19
-1.9553e-20
-2.29364e-19
-1.89439e-21
0.000561316
-1.91504e-19
-1.5981e-20
-2.19798e-19
-1.86058e-21
0.000549765
-2.49435e-19
-1.51784e-20
-2.79074e-19
-8.01153e-22
0.000538436
-2.9655e-19
-1.59245e-20
-2.79326e-19
1.27298e-21
0.000527326
-3.45145e-19
-1.15836e-20
-3.13441e-19
8.31413e-22
0.00051643
-3.06693e-19
-4.07719e-21
-2.93098e-19
3.03813e-21
0.000505746
-3.10765e-19
-5.3772e-21
-2.91987e-19
4.24056e-21
0.000495269
-3.838e-19
-4.97463e-21
-3.24709e-19
5.93255e-21
0.000484998
-3.71741e-19
-2.02659e-21
-3.58289e-19
4.98307e-21
0.000474927
-3.67029e-19
-1.10851e-21
-3.87178e-19
4.34811e-21
0.000465054
-3.57139e-19
-1.34212e-21
-3.74908e-19
3.69062e-21
0.000455375
-3.899e-19
-1.93874e-21
-3.87186e-19
2.62538e-21
0.000445887
-3.40092e-19
4.27733e-22
-3.95199e-19
-1.08208e-21
0.000436587
-3.01314e-19
1.21284e-21
-3.90633e-19
-2.08536e-21
0.00042747
-3.48001e-19
1.30609e-21
-2.77326e-19
-6.79196e-22
0.000418535
-3.27685e-19
2.40269e-21
-2.86502e-19
-2.88267e-21
0.000409777
-2.54988e-19
2.8508e-21
-2.86561e-19
-5.18915e-21
0.000401194
-2.59397e-19
1.43961e-21
-3.17067e-19
-5.21547e-21
0.000392782
-2.65338e-19
1.63729e-21
-2.75943e-19
-5.28041e-21
0.000384538
-2.84171e-19
-1.30976e-21
-2.63804e-19
-5.87806e-21
0.000376459
-2.74519e-19
-2.02874e-21
-2.879e-19
-6.17293e-21
0.000368542
-2.67491e-19
-2.26646e-21
-2.98442e-19
-4.95447e-21
0.000360785
-2.56345e-19
-1.3833e-21
-2.78306e-19
-4.01716e-21
0.000353183
-2.20533e-19
-6.20197e-22
-2.61562e-19
-3.40035e-21
0.000345734
-2.06575e-19
-1.34196e-21
-2.5955e-19
-3.95977e-21
0.000338436
-2.13789e-19
-1.28399e-21
-2.26764e-19
-1.9927e-21
0.000331284
-1.72895e-19
-1.2706e-22
-1.91086e-19
-1.28978e-21
0.000324278
-1.78124e-19
-1.17471e-23
-1.42398e-19
-4.48448e-22
0.000317413
-1.386e-19
6.29438e-22
-1.62233e-19
4.26028e-23
0.000310687
-1.46586e-19
6.74478e-22
-1.29406e-19
8.15188e-22
0.000304098
-1.55699e-19
1.29551e-21
-1.22908e-19
1.23573e-21
0.000297642
-1.331e-19
2.84026e-21
-1.70532e-19
1.65742e-21
0.000291318
-1.58352e-19
3.40555e-21
-1.72282e-19
2.28369e-21
0.000285122
-1.53222e-19
3.32385e-21
-1.68099e-19
2.67546e-21
0.000279053
-1.10821e-19
4.04115e-21
-1.6638e-19
3.08705e-21
0.000273107
-1.06776e-19
4.35506e-21
-1.17499e-19
3.98638e-21
0.000267282
-9.76933e-20
3.91329e-21
-5.43317e-20
4.901e-21
0.000261576
-1.3146e-19
4.00167e-21
-8.265e-20
4.57053e-21
0.000255987
-8.54457e-20
4.69431e-21
-8.98876e-20
4.37204e-21
0.000250512
-3.39503e-20
3.93432e-21
-7.25872e-20
4.09535e-21
0.00024515
-3.28577e-20