/*--------------------------------*- C++ -*----------------------------------*\
| =========                 |                                                 |
| \\      /  F ield         | OpenFOAM: The Open Source CFD Toolbox           |
|  \\    /   O peration     | Version:  2106                                  |
|   \\  /    A nd           | Website:  www.openfoam.com                      |
|    \\/     M anipulation  |                                                 |
\*---------------------------------------------------------------------------*/
FoamFile
{
    version     2.0;
    format      ascii;
    arch        "LSB;label=32;scalar=64";
    class       volSymmTensorField;
    location    "10080";
    object      turbulenceProperties:R;
}
// * * * * * * * * * * * * * * * * * * * * * * * * * * * * * * * * * * * * * //

dimensions      [0 2 -2 0 0 0 0];

internalField   nonuniform List<symmTensor> 
2000
(
(1.05239e-07 -2.77402e-12 -5.13418e-15 1.05239e-07 -1.19994e-26 1.05239e-07)
(1.05239e-07 -2.77402e-12 -5.13418e-15 1.05239e-07 -8.11956e-27 1.05239e-07)
(1.69211e-08 -2.56938e-12 -1.4356e-14 1.69211e-08 -3.49555e-27 1.69211e-08)
(1.69211e-08 -2.56938e-12 -1.4356e-14 1.69211e-08 -4.72556e-27 1.69211e-08)
(1.55414e-08 -6.9872e-12 -5.41677e-14 1.55414e-08 -5.81118e-27 1.55414e-08)
(1.55414e-08 -6.9872e-12 -5.41677e-14 1.55414e-08 -1.23524e-27 1.55414e-08)
(4.26459e-08 -4.08239e-11 -3.22391e-13 4.26459e-08 -2.73813e-27 4.26459e-08)
(4.26459e-08 -4.08239e-11 -3.22391e-13 4.26459e-08 -7.40403e-27 4.26459e-08)
(1.08375e-07 -1.838e-10 -1.47858e-12 1.08375e-07 -1.65237e-25 1.08375e-07)
(1.08375e-07 -1.838e-10 -1.47858e-12 1.08375e-07 -3.41352e-26 1.08375e-07)
(2.32055e-07 -6.22281e-10 -5.09938e-12 2.32055e-07 -5.74027e-25 2.32055e-07)
(2.32055e-07 -6.22281e-10 -5.09938e-12 2.32055e-07 -1.18153e-25 2.32055e-07)
(4.37738e-07 -1.7198e-09 -1.43562e-11 4.37738e-07 -1.63266e-24 4.37738e-07)
(4.37738e-07 -1.7198e-09 -1.43562e-11 4.37738e-07 -3.33843e-25 4.37738e-07)
(7.53705e-07 -4.10931e-09 -3.49431e-11 7.53705e-07 -3.9924e-24 7.53705e-07)
(7.53705e-07 -4.10931e-09 -3.49431e-11 7.53705e-07 -8.14754e-25 7.53705e-07)
(1.21258e-06 -8.81098e-09 -7.63216e-11 1.21258e-06 -8.75296e-24 1.21258e-06)
(1.21258e-06 -8.81098e-09 -7.63216e-11 1.21258e-06 -1.78455e-24 1.21258e-06)
(1.85157e-06 -1.73799e-08 -1.53356e-10 1.85157e-06 -1.76707e-23 1.85157e-06)
(1.85157e-06 -1.73799e-08 -1.53356e-10 1.85157e-06 -3.59886e-24 1.85157e-06)
(2.71285e-06 -3.20886e-08 -2.88427e-10 2.71285e-06 -3.34067e-23 2.71285e-06)
(2.71285e-06 -3.20886e-08 -2.88427e-10 2.71285e-06 -6.79699e-24 2.71285e-06)
(3.84386e-06 -5.61509e-08 -5.14128e-10 3.84386e-06 -5.98655e-23 3.84386e-06)
(3.84386e-06 -5.61509e-08 -5.14128e-10 3.84386e-06 -1.21555e-23 3.84386e-06)
(5.29777e-06 -9.39919e-08 -8.76668e-10 5.29777e-06 -1.02629e-22 5.29777e-06)
(5.29777e-06 -9.39919e-08 -8.76668e-10 5.29777e-06 -2.07837e-23 5.29777e-06)
(7.13393e-06 -1.51573e-07 -1.44011e-09 7.13393e-06 -1.6948e-22 7.13393e-06)
(7.13393e-06 -1.51573e-07 -1.44011e-09 7.13393e-06 -3.42767e-23 7.13393e-06)
(9.41829e-06 -2.36777e-07 -2.29162e-09 9.41829e-06 -2.71073e-22 9.41829e-06)
(9.41829e-06 -2.36777e-07 -2.29162e-09 9.41829e-06 -5.47694e-23 9.41829e-06)
(1.22239e-05 -3.59864e-07 -3.54788e-09 1.22239e-05 -4.21679e-22 1.22239e-05)
(1.22239e-05 -3.59864e-07 -3.54788e-09 1.22239e-05 -8.51818e-23 1.22239e-05)
(1.56317e-05 -5.34003e-07 -5.36293e-09 1.56317e-05 -6.40409e-22 1.56317e-05)
(1.56317e-05 -5.34003e-07 -5.36293e-09 1.56317e-05 -1.29252e-22 1.56317e-05)
(1.97303e-05 -7.75892e-07 -7.93754e-09 1.97303e-05 -9.52117e-22 1.97303e-05)
(1.97303e-05 -7.75892e-07 -7.93754e-09 1.97303e-05 -1.91831e-22 1.97303e-05)
(2.46176e-05 -1.10646e-06 -1.15304e-08 2.46176e-05 -1.38895e-21 2.46176e-05)
(2.46176e-05 -1.10646e-06 -1.15304e-08 2.46176e-05 -2.79686e-22 2.46176e-05)
(3.04005e-05 -1.55169e-06 -1.64717e-08 3.04005e-05 -1.99223e-21 3.04005e-05)
(3.04005e-05 -1.55169e-06 -1.64717e-08 3.04005e-05 -4.01101e-22 3.04005e-05)
(3.71957e-05 -2.14351e-06 -2.31781e-08 3.71957e-05 -2.81319e-21 3.71957e-05)
(3.71957e-05 -2.14351e-06 -2.31781e-08 3.71957e-05 -5.65793e-22 3.71957e-05)
(4.51303e-05 -2.92079e-06 -3.21714e-08 4.51303e-05 -3.44368e-21 4.51303e-05)
(4.51303e-05 -2.92079e-06 -3.21714e-08 4.51303e-05 -7.87441e-22 4.51303e-05)
(5.43423e-05 -3.9305e-06 -4.40993e-08 5.43423e-05 1.55862e-23 5.43423e-05)
(5.43423e-05 -3.9305e-06 -4.40993e-08 5.43423e-05 -1.08368e-21 5.43423e-05)
(6.49806e-05 -5.22883e-06 -5.97583e-08 6.49806e-05 7.55213e-22 6.49806e-05)
(6.49806e-05 -5.22883e-06 -5.97583e-08 6.49806e-05 -1.47375e-21 6.49806e-05)
(7.72059e-05 -6.88249e-06 -8.01208e-08 7.72059e-05 1.12667e-21 7.72059e-05)
(7.72059e-05 -6.88249e-06 -8.01208e-08 7.72059e-05 -1.98113e-21 7.72059e-05)
(9.11905e-05 -8.96996e-06 -1.06363e-07 9.11905e-05 1.63682e-21 9.11905e-05)
(9.11905e-05 -8.96996e-06 -1.06363e-07 9.11905e-05 -2.62932e-21 9.11905e-05)
(0.000107118 -1.15828e-05 -1.39897e-07 0.000107118 2.34017e-21 0.000107118)
(0.000107118 -1.15828e-05 -1.39897e-07 0.000107118 -3.46285e-21 0.000107118)
(0.000125185 -1.48269e-05 -1.82402e-07 0.000125185 3.29053e-21 0.000125185)
(0.000125185 -1.48269e-05 -1.82402e-07 0.000125185 -4.52362e-21 0.000125185)
(0.000145596 -1.88232e-05 -2.35859e-07 0.000145596 4.5516e-21 0.000145596)
(0.000145596 -1.88232e-05 -2.35859e-07 0.000145596 -5.84501e-21 0.000145596)
(0.000168569 -2.37092e-05 -3.02581e-07 0.000168569 -2.79254e-21 0.000168569)
(0.000168569 -2.37092e-05 -3.02581e-07 0.000168569 -7.49267e-21 0.000168569)
(0.000194328 -2.96385e-05 -3.85248e-07 0.000194328 -1.95962e-20 0.000194328)
(0.000194328 -2.96385e-05 -3.85248e-07 0.000194328 -9.50412e-21 0.000194328)
(0.000223107 -3.67816e-05 -4.86922e-07 0.000223107 -3.08028e-20 0.000223107)
(0.000223107 -3.67816e-05 -4.86922e-07 0.000223107 -1.19578e-20 0.000223107)
(0.000255142 -4.53247e-05 -6.11078e-07 0.000255142 -3.82185e-20 0.000255142)
(0.000255142 -4.53247e-05 -6.11078e-07 0.000255142 -1.49411e-20 0.000255142)
(0.000290674 -5.54686e-05 -7.61599e-07 0.000290674 -4.69771e-20 0.000290674)
(0.000290674 -5.54686e-05 -7.61599e-07 0.000290674 -1.85179e-20 0.000290674)
(0.000329942 -6.7426e-05 -9.42777e-07 0.000329942 -5.72462e-20 0.000329942)
(0.000329942 -6.7426e-05 -9.42777e-07 0.000329942 -2.27211e-20 0.000329942)
(0.000373178 -8.14185e-05 -1.15929e-06 0.000373178 -6.91593e-20 0.000373178)
(0.000373178 -8.14185e-05 -1.15929e-06 0.000373178 -2.76591e-20 0.000373178)
(0.000420607 -9.76724e-05 -1.41615e-06 0.000420607 -8.26671e-20 0.000420607)
(0.000420607 -9.76724e-05 -1.41615e-06 0.000420607 -3.3349e-20 0.000420607)
(0.000472437 -0.000116412 -1.71865e-06 0.000472437 -9.78787e-20 0.000472437)
(0.000472437 -0.000116412 -1.71865e-06 0.000472437 -3.98221e-20 0.000472437)
(0.000528857 -0.000137856 -2.07228e-06 0.000528857 -1.15007e-19 0.000528857)
(0.000528857 -0.000137856 -2.07228e-06 0.000528857 -4.72478e-20 0.000528857)
(0.000590028 -0.000162207 -2.4826e-06 0.000590028 -1.34007e-19 0.000590028)
(0.000590028 -0.000162207 -2.4826e-06 0.000590028 -5.55588e-20 0.000590028)
(0.00065608 -0.000189643 -2.95512e-06 0.00065608 -1.53848e-19 0.00065608)
(0.00065608 -0.000189643 -2.95512e-06 0.00065608 -6.47386e-20 0.00065608)
(0.000727103 -0.000220317 -3.49517e-06 0.000727103 -1.74434e-19 0.000727103)
(0.000727103 -0.000220317 -3.49517e-06 0.000727103 -7.46267e-20 0.000727103)
(0.000803143 -0.000254338 -4.10773e-06 0.000803143 -1.97095e-19 0.000803143)
(0.000803143 -0.000254338 -4.10773e-06 0.000803143 -8.53414e-20 0.000803143)
(0.000884201 -0.000291774 -4.79727e-06 0.000884201 -2.20581e-19 0.000884201)
(0.000884201 -0.000291774 -4.79727e-06 0.000884201 -9.7234e-20 0.000884201)
(0.00097022 -0.00033264 -5.56763e-06 0.00097022 -2.43467e-19 0.00097022)
(0.00097022 -0.00033264 -5.56763e-06 0.00097022 -1.09073e-19 0.00097022)
(0.00106109 -0.000376899 -6.42187e-06 0.00106109 -2.6576e-19 0.00106109)
(0.00106109 -0.000376899 -6.42187e-06 0.00106109 -1.21181e-19 0.00106109)
(0.00115666 -0.000424457 -7.36217e-06 0.00115666 -2.87879e-19 0.00115666)
(0.00115666 -0.000424457 -7.36217e-06 0.00115666 -1.34746e-19 0.00115666)
(0.00125669 -0.000475165 -8.38979e-06 0.00125669 -3.08083e-19 0.00125669)
(0.00125669 -0.000475165 -8.38979e-06 0.00125669 -1.47439e-19 0.00125669)
(0.00136093 -0.000528821 -9.50498e-06 0.00136093 -3.27386e-19 0.00136093)
(0.00136093 -0.000528821 -9.50498e-06 0.00136093 -1.58838e-19 0.00136093)
(0.00146904 -0.000585177 -1.07071e-05 0.00146904 -3.43039e-19 0.00146904)
(0.00146904 -0.000585177 -1.07071e-05 0.00146904 -1.73081e-19 0.00146904)
(0.00158067 -0.000643946 -1.19945e-05 0.00158067 -3.57367e-19 0.00158067)
(0.00158067 -0.000643946 -1.19945e-05 0.00158067 -1.89196e-19 0.00158067)
(0.00169543 -0.000704806 -1.33647e-05 0.00169543 -3.70048e-19 0.00169543)
(0.00169543 -0.000704806 -1.33647e-05 0.00169543 -2.01994e-19 0.00169543)
(0.00181288 -0.000767417 -1.48147e-05 0.00181288 -3.78219e-19 0.00181288)
(0.00181288 -0.000767417 -1.48147e-05 0.00181288 -2.13917e-19 0.00181288)
(0.00193258 -0.000831422 -1.63406e-05 0.00193258 -3.90423e-19 0.00193258)
(0.00193258 -0.000831422 -1.63406e-05 0.00193258 -2.28525e-19 0.00193258)
(0.00205407 -0.000896462 -1.79382e-05 0.00205407 -3.97034e-19 0.00205407)
(0.00205407 -0.000896462 -1.79382e-05 0.00205407 -2.43865e-19 0.00205407)
(0.0021769 -0.000962185 -1.9603e-05 0.0021769 -3.97379e-19 0.0021769)
(0.0021769 -0.000962185 -1.9603e-05 0.0021769 -2.58836e-19 0.0021769)
(0.00230062 -0.00102825 -2.13303e-05 0.00230062 -3.99143e-19 0.00230062)
(0.00230062 -0.00102825 -2.13303e-05 0.00230062 -2.73376e-19 0.00230062)
(0.00242477 -0.00109433 -2.31153e-05 0.00242477 -4.00476e-19 0.00242477)
(0.00242477 -0.00109433 -2.31153e-05 0.00242477 -2.89232e-19 0.00242477)
(0.00254893 -0.00116013 -2.49533e-05 0.00254893 -3.97456e-19 0.00254893)
(0.00254893 -0.00116013 -2.49533e-05 0.00254893 -3.11188e-19 0.00254893)
(0.00267271 -0.00122537 -2.68398e-05 0.00267271 -3.98666e-19 0.00267271)
(0.00267271 -0.00122537 -2.68398e-05 0.00267271 -3.42967e-19 0.00267271)
(0.00279573 -0.00128982 -2.87704e-05 0.00279573 -4.01415e-19 0.00279573)
(0.00279573 -0.00128982 -2.87704e-05 0.00279573 -3.75714e-19 0.00279573)
(0.00291764 -0.00135325 -3.0741e-05 0.00291764 -4.03704e-19 0.00291764)
(0.00291764 -0.00135325 -3.0741e-05 0.00291764 -4.02464e-19 0.00291764)
(0.00303812 -0.00141549 -3.27481e-05 0.00303812 -4.06418e-19 0.00303812)
(0.00303812 -0.00141549 -3.27481e-05 0.00303812 -4.29204e-19 0.00303812)
(0.00315691 -0.00147638 -3.47881e-05 0.00315691 -4.21253e-19 0.00315691)
(0.00315691 -0.00147638 -3.47881e-05 0.00315691 -4.79633e-19 0.00315691)
(0.00327375 -0.0015358 -3.68581e-05 0.00327375 -4.35088e-19 0.00327375)
(0.00327375 -0.0015358 -3.68581e-05 0.00327375 -5.28938e-19 0.00327375)
(0.00338842 -0.00159363 -3.89554e-05 0.00338842 -4.38131e-19 0.00338842)
(0.00338842 -0.00159363 -3.89554e-05 0.00338842 -5.77097e-19 0.00338842)
(0.00350075 -0.00164981 -4.10777e-05 0.00350075 -4.57689e-19 0.00350075)
(0.00350075 -0.00164981 -4.10777e-05 0.00350075 -6.45271e-19 0.00350075)
(0.00361057 -0.00170428 -4.3223e-05 0.00361057 -4.67488e-19 0.00361057)
(0.00361057 -0.00170428 -4.3223e-05 0.00361057 -7.18304e-19 0.00361057)
(0.00371776 -0.001757 -4.53898e-05 0.00371776 -4.96154e-19 0.00371776)
(0.00371776 -0.001757 -4.53898e-05 0.00371776 -7.73525e-19 0.00371776)
(0.00382222 -0.00180795 -4.75767e-05 0.00382222 -5.30878e-19 0.00382222)
(0.00382222 -0.00180795 -4.75767e-05 0.00382222 -8.26298e-19 0.00382222)
(0.00392387 -0.00185711 -4.97825e-05 0.00392387 -5.55673e-19 0.00392387)
(0.00392387 -0.00185711 -4.97825e-05 0.00392387 -8.65992e-19 0.00392387)
(0.00402266 -0.00190451 -5.20065e-05 0.00402266 -6.0015e-19 0.00402266)
(0.00402266 -0.00190451 -5.20065e-05 0.00402266 -9.26705e-19 0.00402266)
(0.00411855 -0.00195014 -5.42481e-05 0.00411855 -6.35282e-19 0.00411855)
(0.00411855 -0.00195014 -5.42481e-05 0.00411855 -1.0075e-18 0.00411855)
(0.00421152 -0.00199404 -5.65069e-05 0.00421152 -6.70601e-19 0.00421152)
(0.00421152 -0.00199404 -5.65069e-05 0.00421152 -1.0918e-18 0.00421152)
(0.00430156 -0.00203623 -5.87826e-05 0.00430156 -7.24947e-19 0.00430156)
(0.00430156 -0.00203623 -5.87826e-05 0.00430156 -1.15647e-18 0.00430156)
(0.0043887 -0.00207675 -6.10752e-05 0.0043887 -7.7393e-19 0.0043887)
(0.0043887 -0.00207675 -6.10752e-05 0.0043887 -1.19745e-18 0.0043887)
(0.00447293 -0.00211565 -6.33848e-05 0.00447293 -8.13836e-19 0.00447293)
(0.00447293 -0.00211565 -6.33848e-05 0.00447293 -1.27452e-18 0.00447293)
(0.00455431 -0.00215295 -6.57115e-05 0.00455431 -8.50333e-19 0.00455431)
(0.00455431 -0.00215295 -6.57115e-05 0.00455431 -1.37554e-18 0.00455431)
(0.00463286 -0.00218872 -6.80557e-05 0.00463286 -8.67431e-19 0.00463286)
(0.00463286 -0.00218872 -6.80557e-05 0.00463286 -1.4774e-18 0.00463286)
(0.00470863 -0.00222299 -7.04178e-05 0.00470863 -9.67306e-19 0.00470863)
(0.00470863 -0.00222299 -7.04178e-05 0.00470863 -1.60601e-18 0.00470863)
(0.00478168 -0.00225581 -7.27982e-05 0.00478168 -1.08291e-18 0.00478168)
(0.00478168 -0.00225581 -7.27982e-05 0.00478168 -1.70492e-18 0.00478168)
(0.00485205 -0.00228724 -7.51975e-05 0.00485205 -1.09756e-18 0.00485205)
(0.00485205 -0.00228724 -7.51975e-05 0.00485205 -1.77629e-18 0.00485205)
(0.00491981 -0.00231731 -7.76162e-05 0.00491981 -1.12651e-18 0.00491981)
(0.00491981 -0.00231731 -7.76162e-05 0.00491981 -1.95532e-18 0.00491981)
(0.00498502 -0.00234609 -8.00551e-05 0.00498502 -1.24755e-18 0.00498502)
(0.00498502 -0.00234609 -8.00551e-05 0.00498502 -2.13817e-18 0.00498502)
(0.00504775 -0.00237361 -8.25147e-05 0.00504775 -1.37669e-18 0.00504775)
(0.00504775 -0.00237361 -8.25147e-05 0.00504775 -2.21377e-18 0.00504775)
(0.00510805 -0.00239992 -8.49957e-05 0.00510805 -1.38823e-18 0.00510805)
(0.00510805 -0.00239992 -8.49957e-05 0.00510805 -2.30712e-18 0.00510805)
(0.00516599 -0.00242507 -8.7499e-05 0.00516599 -1.43486e-18 0.00516599)
(0.00516599 -0.00242507 -8.7499e-05 0.00516599 -2.4736e-18 0.00516599)
(0.00522165 -0.0024491 -9.00253e-05 0.00522165 -1.60302e-18 0.00522165)
(0.00522165 -0.0024491 -9.00253e-05 0.00522165 -2.64338e-18 0.00522165)
(0.00527509 -0.00247206 -9.25754e-05 0.00527509 -1.69313e-18 0.00527509)
(0.00527509 -0.00247206 -9.25754e-05 0.00527509 -2.76668e-18 0.00527509)
(0.00532637 -0.00249398 -9.51499e-05 0.00532637 -1.73033e-18 0.00532637)
(0.00532637 -0.00249398 -9.51499e-05 0.00532637 -2.93088e-18 0.00532637)
(0.00537555 -0.0025149 -9.77498e-05 0.00537555 -1.85327e-18 0.00537555)
(0.00537555 -0.0025149 -9.77498e-05 0.00537555 -3.09449e-18 0.00537555)
(0.00542271 -0.00253487 -0.000100376 0.00542271 -1.96317e-18 0.00542271)
(0.00542271 -0.00253487 -0.000100376 0.00542271 -3.20773e-18 0.00542271)
(0.0054679 -0.00255392 -0.000103029 0.0054679 -2.01463e-18 0.0054679)
(0.0054679 -0.00255392 -0.000103029 0.0054679 -3.35958e-18 0.0054679)
(0.00551119 -0.00257208 -0.00010571 0.00551119 -2.07057e-18 0.00551119)
(0.00551119 -0.00257208 -0.00010571 0.00551119 -3.55623e-18 0.00551119)
(0.00555263 -0.00258939 -0.000108419 0.00555263 -2.20947e-18 0.00555263)
(0.00555263 -0.00258939 -0.000108419 0.00555263 -3.68352e-18 0.00555263)
(0.00559229 -0.00260588 -0.000111158 0.00559229 -2.43109e-18 0.00559229)
(0.00559229 -0.00260588 -0.000111158 0.00559229 -3.78958e-18 0.00559229)
(0.00563021 -0.00262158 -0.000113927 0.00563021 -2.52016e-18 0.00563021)
(0.00563021 -0.00262158 -0.000113927 0.00563021 -3.90231e-18 0.00563021)
(0.00566646 -0.00263652 -0.000116727 0.00566646 -2.53416e-18 0.00566646)
(0.00566646 -0.00263652 -0.000116727 0.00566646 -4.0551e-18 0.00566646)
(0.00570109 -0.00265073 -0.000119559 0.00570109 -2.61759e-18 0.00570109)
(0.00570109 -0.00265073 -0.000119559 0.00570109 -4.24047e-18 0.00570109)
(0.00573414 -0.00266424 -0.000122423 0.00573414 -2.73247e-18 0.00573414)
(0.00573414 -0.00266424 -0.000122423 0.00573414 -4.39532e-18 0.00573414)
(0.00576567 -0.00267706 -0.000125321 0.00576567 -2.84191e-18 0.00576567)
(0.00576567 -0.00267706 -0.000125321 0.00576567 -4.4309e-18 0.00576567)
(0.00579573 -0.00268923 -0.000128253 0.00579573 -2.99052e-18 0.00579573)
(0.00579573 -0.00268923 -0.000128253 0.00579573 -4.52051e-18 0.00579573)
(0.00582436 -0.00270077 -0.00013122 0.00582436 -3.19864e-18 0.00582436)
(0.00582436 -0.00270077 -0.00013122 0.00582436 -4.87091e-18 0.00582436)
(0.0058516 -0.0027117 -0.000134223 0.0058516 -3.3141e-18 0.0058516)
(0.0058516 -0.0027117 -0.000134223 0.0058516 -5.0553e-18 0.0058516)
(0.0058775 -0.00272204 -0.000137262 0.0058775 -3.32511e-18 0.0058775)
(0.0058775 -0.00272204 -0.000137262 0.0058775 -5.13896e-18 0.0058775)
(0.00590209 -0.00273181 -0.000140339 0.00590209 -3.39981e-18 0.00590209)
(0.00590209 -0.00273181 -0.000140339 0.00590209 -5.298e-18 0.00590209)
(0.00592542 -0.00274103 -0.000143454 0.00592542 -3.71828e-18 0.00592542)
(0.00592542 -0.00274103 -0.000143454 0.00592542 -5.6127e-18 0.00592542)
(0.00594752 -0.00274971 -0.000146607 0.00594752 -3.81961e-18 0.00594752)
(0.00594752 -0.00274971 -0.000146607 0.00594752 -6.03735e-18 0.00594752)
(0.00596844 -0.00275788 -0.0001498 0.00596844 -2.00578e-18 0.00596844)
(0.00596844 -0.00275788 -0.0001498 0.00596844 -6.17329e-18 0.00596844)
(0.00598819 -0.00276554 -0.000153034 0.00598819 3.20776e-19 0.00598819)
(0.00598819 -0.00276554 -0.000153034 0.00598819 -6.35108e-18 0.00598819)
(0.00600682 -0.00277273 -0.000156308 0.00600682 1.67826e-18 0.00600682)
(0.00600682 -0.00277273 -0.000156308 0.00600682 -6.57337e-18 0.00600682)
(0.00602435 -0.00277944 -0.000159624 0.00602435 1.5003e-18 0.00602435)
(0.00602435 -0.00277944 -0.000159624 0.00602435 -6.64255e-18 0.00602435)
(0.00604082 -0.00278569 -0.000162982 0.00604082 1.61059e-18 0.00604082)
(0.00604082 -0.00278569 -0.000162982 0.00604082 -6.91444e-18 0.00604082)
(0.00605626 -0.0027915 -0.000166384 0.00605626 1.87448e-18 0.00605626)
(0.00605626 -0.0027915 -0.000166384 0.00605626 -7.30326e-18 0.00605626)
(0.00607069 -0.00279687 -0.000169829 0.00607069 2.04093e-18 0.00607069)
(0.00607069 -0.00279687 -0.000169829 0.00607069 -7.59987e-18 0.00607069)
(0.00608413 -0.00280183 -0.000173319 0.00608413 2.01741e-18 0.00608413)
(0.00608413 -0.00280183 -0.000173319 0.00608413 -7.47785e-18 0.00608413)
(0.00609662 -0.00280637 -0.000176853 0.00609662 2.17552e-18 0.00609662)
(0.00609662 -0.00280637 -0.000176853 0.00609662 -7.74545e-18 0.00609662)
(0.00610817 -0.00281051 -0.000180433 0.00610817 2.91016e-18 0.00610817)
(0.00610817 -0.00281051 -0.000180433 0.00610817 -8.45413e-18 0.00610817)
(0.00611881 -0.00281427 -0.00018406 0.00611881 3.04387e-18 0.00611881)
(0.00611881 -0.00281427 -0.00018406 0.00611881 -8.53232e-18 0.00611881)
(0.00612855 -0.00281764 -0.000187733 0.00612855 2.02636e-18 0.00612855)
(0.00612855 -0.00281764 -0.000187733 0.00612855 -8.1703e-18 0.00612855)
(0.00613743 -0.00282064 -0.000191454 0.00613743 1.50023e-18 0.00613743)
(0.00613743 -0.00282064 -0.000191454 0.00613743 -8.22216e-18 0.00613743)
(0.00614545 -0.00282327 -0.000195223 0.00614545 1.81875e-18 0.00614545)
(0.00614545 -0.00282327 -0.000195223 0.00614545 -9.1722e-18 0.00614545)
(0.00615264 -0.00282555 -0.00019904 0.00615264 2.34663e-18 0.00615264)
(0.00615264 -0.00282555 -0.00019904 0.00615264 -1.01085e-17 0.00615264)
(0.00615902 -0.00282748 -0.000202907 0.00615902 2.14169e-18 0.00615902)
(0.00615902 -0.00282748 -0.000202907 0.00615902 -1.03776e-17 0.00615902)
(0.00616459 -0.00282906 -0.000206823 0.00616459 1.90485e-18 0.00616459)
(0.00616459 -0.00282906 -0.000206823 0.00616459 -1.06017e-17 0.00616459)
(0.00616938 -0.00283031 -0.000210789 0.00616938 2.31366e-18 0.00616938)
(0.00616938 -0.00283031 -0.000210789 0.00616938 -1.09173e-17 0.00616938)
(0.00617339 -0.00283123 -0.000214806 0.00617339 2.27542e-18 0.00617339)
(0.00617339 -0.00283123 -0.000214806 0.00617339 -1.10386e-17 0.00617339)
(0.00617665 -0.00283182 -0.000218874 0.00617665 2.16166e-18 0.00617665)
(0.00617665 -0.00283182 -0.000218874 0.00617665 -1.13227e-17 0.00617665)
(0.00617917 -0.00283209 -0.000222994 0.00617917 2.51693e-18 0.00617917)
(0.00617917 -0.00283209 -0.000222994 0.00617917 -1.17268e-17 0.00617917)
(0.00618096 -0.00283205 -0.000227166 0.00618096 2.94275e-18 0.00618096)
(0.00618096 -0.00283205 -0.000227166 0.00618096 -1.17742e-17 0.00618096)
(0.00618203 -0.00283169 -0.000231389 0.00618203 2.31538e-18 0.00618203)
(0.00618203 -0.00283169 -0.000231389 0.00618203 3.18044e-18 0.00618203)
(0.00618238 -0.00283103 -0.000235666 0.00618238 2.92978e-18 0.00618238)
(0.00618238 -0.00283103 -0.000235666 0.00618238 5.84635e-18 0.00618238)
(0.00618204 -0.00283006 -0.000239995 0.00618204 2.94459e-18 0.00618204)
(0.00618204 -0.00283006 -0.000239995 0.00618204 7.28524e-18 0.00618204)
(0.00618102 -0.00282879 -0.000244378 0.00618102 2.19946e-18 0.00618102)
(0.00618102 -0.00282879 -0.000244378 0.00618102 7.51978e-18 0.00618102)
(0.00617931 -0.00282722 -0.000248814 0.00617931 3.07417e-18 0.00617931)
(0.00617931 -0.00282722 -0.000248814 0.00617931 6.95347e-18 0.00617931)
(0.00617693 -0.00282536 -0.000253304 0.00617693 2.63547e-18 0.00617693)
(0.00617693 -0.00282536 -0.000253304 0.00617693 7.78297e-18 0.00617693)
(0.00617388 -0.00282321 -0.000257847 0.00617388 2.56388e-18 0.00617388)
(0.00617388 -0.00282321 -0.000257847 0.00617388 8.74149e-18 0.00617388)
(0.00617018 -0.00282077 -0.000262445 0.00617018 3.06585e-18 0.00617018)
(0.00617018 -0.00282077 -0.000262445 0.00617018 9.40758e-18 0.00617018)
(0.00616583 -0.00281804 -0.000267098 0.00616583 3.11023e-18 0.00616583)
(0.00616583 -0.00281804 -0.000267098 0.00616583 1.00163e-17 0.00616583)
(0.00616084 -0.00281503 -0.000271804 0.00616084 3.97861e-18 0.00616084)
(0.00616084 -0.00281503 -0.000271804 0.00616084 1.10417e-17 0.00616084)
(0.00615521 -0.00281173 -0.000276565 0.00615521 4.44191e-18 0.00615521)
(0.00615521 -0.00281173 -0.000276565 0.00615521 1.24477e-17 0.00615521)
(0.00614894 -0.00280815 -0.00028138 0.00614894 3.30045e-18 0.00614894)
(0.00614894 -0.00280815 -0.00028138 0.00614894 1.30821e-17 0.00614894)
(0.00614205 -0.00280429 -0.000286249 0.00614205 3.44966e-18 0.00614205)
(0.00614205 -0.00280429 -0.000286249 0.00614205 1.25837e-17 0.00614205)
(0.00613453 -0.00280014 -0.000291173 0.00613453 4.92679e-18 0.00613453)
(0.00613453 -0.00280014 -0.000291173 0.00613453 1.26397e-17 0.00613453)
(0.00612639 -0.00279572 -0.00029615 0.00612639 4.42023e-18 0.00612639)
(0.00612639 -0.00279572 -0.00029615 0.00612639 1.39453e-17 0.00612639)
(0.00611764 -0.00279101 -0.000301182 0.00611764 4.50663e-18 0.00611764)
(0.00611764 -0.00279101 -0.000301182 0.00611764 1.38872e-17 0.00611764)
(0.00610827 -0.00278603 -0.000306267 0.00610827 6.01729e-18 0.00610827)
(0.00610827 -0.00278603 -0.000306267 0.00610827 1.35674e-17 0.00610827)
(0.00609829 -0.00278076 -0.000311405 0.00609829 6.07394e-18 0.00609829)
(0.00609829 -0.00278076 -0.000311405 0.00609829 1.56063e-17 0.00609829)
(0.0060877 -0.00277522 -0.000316596 0.0060877 4.58865e-18 0.0060877)
(0.0060877 -0.00277522 -0.000316596 0.0060877 1.75594e-17 0.0060877)
(0.0060765 -0.0027694 -0.000321839 0.0060765 3.80436e-18 0.0060765)
(0.0060765 -0.0027694 -0.000321839 0.0060765 1.72429e-17 0.0060765)
(0.0060647 -0.00276329 -0.000327134 0.0060647 5.85337e-18 0.0060647)
(0.0060647 -0.00276329 -0.000327134 0.0060647 1.60552e-17 0.0060647)
(0.00605229 -0.0027569 -0.00033248 0.00605229 7.9414e-18 0.00605229)
(0.00605229 -0.0027569 -0.00033248 0.00605229 1.54491e-17 0.00605229)
(0.00603928 -0.00275023 -0.000337876 0.00603928 7.63641e-18 0.00603928)
(0.00603928 -0.00275023 -0.000337876 0.00603928 1.67387e-17 0.00603928)
(0.00602566 -0.00274328 -0.000343323 0.00602566 6.85665e-18 0.00602566)
(0.00602566 -0.00274328 -0.000343323 0.00602566 1.69153e-17 0.00602566)
(0.00601144 -0.00273605 -0.000348818 0.00601144 7.41187e-18 0.00601144)
(0.00601144 -0.00273605 -0.000348818 0.00601144 1.67423e-17 0.00601144)
(0.00599662 -0.00272852 -0.000354361 0.00599662 6.51647e-18 0.00599662)
(0.00599662 -0.00272852 -0.000354361 0.00599662 1.83733e-17 0.00599662)
(0.00598119 -0.00272071 -0.000359951 0.00598119 2.83137e-18 0.00598119)
(0.00598119 -0.00272071 -0.000359951 0.00598119 1.73608e-17 0.00598119)
(0.00596515 -0.00271261 -0.000365586 0.00596515 1.39336e-18 0.00596515)
(0.00596515 -0.00271261 -0.000365586 0.00596515 1.70024e-17 0.00596515)
(0.00594851 -0.00270422 -0.000371267 0.00594851 3.16119e-18 0.00594851)
(0.00594851 -0.00270422 -0.000371267 0.00594851 1.81696e-17 0.00594851)
(0.00593126 -0.00269554 -0.00037699 0.00593126 2.65629e-18 0.00593126)
(0.00593126 -0.00269554 -0.00037699 0.00593126 1.98431e-17 0.00593126)
(0.0059134 -0.00268656 -0.000382755 0.0059134 1.9752e-18 0.0059134)
(0.0059134 -0.00268656 -0.000382755 0.0059134 2.11048e-17 0.0059134)
(0.00589492 -0.00267728 -0.00038856 0.00589492 2.72693e-18 0.00589492)
(0.00589492 -0.00267728 -0.00038856 0.00589492 2.2473e-17 0.00589492)
(0.00587583 -0.0026677 -0.000394404 0.00587583 2.54468e-18 0.00587583)
(0.00587583 -0.0026677 -0.000394404 0.00587583 2.55594e-17 0.00587583)
(0.00585612 -0.00265782 -0.000400284 0.00585612 2.49642e-18 0.00585612)
(0.00585612 -0.00265782 -0.000400284 0.00585612 2.55651e-17 0.00585612)
(0.00583579 -0.00264763 -0.000406199 0.00583579 2.88279e-18 0.00583579)
(0.00583579 -0.00264763 -0.000406199 0.00583579 2.36078e-17 0.00583579)
(0.00581483 -0.00263714 -0.000412147 0.00581483 4.51374e-18 0.00581483)
(0.00581483 -0.00263714 -0.000412147 0.00581483 2.20269e-17 0.00581483)
(0.00579325 -0.00262633 -0.000418124 0.00579325 4.50346e-18 0.00579325)
(0.00579325 -0.00262633 -0.000418124 0.00579325 2.38521e-17 0.00579325)
(0.00577104 -0.00261521 -0.00042413 0.00577104 4.50722e-18 0.00577104)
(0.00577104 -0.00261521 -0.00042413 0.00577104 2.71054e-17 0.00577104)
(0.00574819 -0.00260377 -0.000430161 0.00574819 4.42069e-18 0.00574819)
(0.00574819 -0.00260377 -0.000430161 0.00574819 2.73892e-17 0.00574819)
(0.0057247 -0.00259201 -0.000436215 0.0057247 5.20884e-18 0.0057247)
(0.0057247 -0.00259201 -0.000436215 0.0057247 2.72387e-17 0.0057247)
(0.00570056 -0.00257992 -0.000442288 0.00570056 4.58346e-18 0.00570056)
(0.00570056 -0.00257992 -0.000442288 0.00570056 3.19708e-17 0.00570056)
(0.00567578 -0.00256751 -0.000448378 0.00567578 5.5163e-18 0.00567578)
(0.00567578 -0.00256751 -0.000448378 0.00567578 3.27359e-17 0.00567578)
(0.00565034 -0.00255476 -0.000454481 0.00565034 5.04369e-18 0.00565034)
(0.00565034 -0.00255476 -0.000454481 0.00565034 3.10511e-17 0.00565034)
(0.00562424 -0.00254167 -0.000460594 0.00562424 3.80923e-18 0.00562424)
(0.00562424 -0.00254167 -0.000460594 0.00562424 2.96211e-17 0.00562424)
(0.00559748 -0.00252825 -0.000466713 0.00559748 4.88037e-18 0.00559748)
(0.00559748 -0.00252825 -0.000466713 0.00559748 2.81921e-17 0.00559748)
(0.00557004 -0.00251447 -0.000472835 0.00557004 3.44013e-18 0.00557004)
(0.00557004 -0.00251447 -0.000472835 0.00557004 3.39928e-17 0.00557004)
(0.00554193 -0.00250035 -0.000478954 0.00554193 5.5315e-18 0.00554193)
(0.00554193 -0.00250035 -0.000478954 0.00554193 3.49698e-17 0.00554193)
(0.00551314 -0.00248588 -0.000485068 0.00551314 5.71218e-18 0.00551314)
(0.00551314 -0.00248588 -0.000485068 0.00551314 3.6105e-17 0.00551314)
(0.00548366 -0.00247104 -0.00049117 0.00548366 5.49294e-18 0.00548366)
(0.00548366 -0.00247104 -0.00049117 0.00548366 3.54256e-17 0.00548366)
(0.00545348 -0.00245584 -0.000497256 0.00545348 5.17726e-18 0.00545348)
(0.00545348 -0.00245584 -0.000497256 0.00545348 3.58992e-17 0.00545348)
(0.0054226 -0.00244027 -0.000503322 0.0054226 3.66751e-18 0.0054226)
(0.0054226 -0.00244027 -0.000503322 0.0054226 3.68958e-17 0.0054226)
(0.00539101 -0.00242433 -0.000509361 0.00539101 6.49244e-18 0.00539101)
(0.00539101 -0.00242433 -0.000509361 0.00539101 3.66488e-17 0.00539101)
(0.0053587 -0.00240801 -0.000515368 0.0053587 6.15438e-18 0.0053587)
(0.0053587 -0.00240801 -0.000515368 0.0053587 3.96618e-17 0.0053587)
(0.00532567 -0.0023913 -0.000521337 0.00532567 4.90846e-18 0.00532567)
(0.00532567 -0.0023913 -0.000521337 0.00532567 4.0449e-17 0.00532567)
(0.00529191 -0.0023742 -0.000527261 0.00529191 8.242e-18 0.00529191)
(0.00529191 -0.0023742 -0.000527261 0.00529191 3.51738e-17 0.00529191)
(0.00525741 -0.00235671 -0.000533134 0.00525741 4.40572e-18 0.00525741)
(0.00525741 -0.00235671 -0.000533134 0.00525741 3.04366e-17 0.00525741)
(0.00522217 -0.00233881 -0.000538949 0.00522217 1.41312e-18 0.00522217)
(0.00522217 -0.00233881 -0.000538949 0.00522217 2.62955e-17 0.00522217)
(0.00518617 -0.00232051 -0.000544698 0.00518617 4.27742e-18 0.00518617)
(0.00518617 -0.00232051 -0.000544698 0.00518617 1.96474e-17 0.00518617)
(0.00514941 -0.00230179 -0.000550374 0.00514941 1.95307e-18 0.00514941)
(0.00514941 -0.00230179 -0.000550374 0.00514941 1.67276e-17 0.00514941)
(0.00511188 -0.00228266 -0.000555968 0.00511188 1.08048e-18 0.00511188)
(0.00511188 -0.00228266 -0.000555968 0.00511188 1.65214e-17 0.00511188)
(0.00507358 -0.00226309 -0.000561472 0.00507358 4.49791e-19 0.00507358)
(0.00507358 -0.00226309 -0.000561472 0.00507358 1.6285e-17 0.00507358)
(0.00503448 -0.00224309 -0.000566876 0.00503448 -9.70915e-19 0.00503448)
(0.00503448 -0.00224309 -0.000566876 0.00503448 1.91065e-17 0.00503448)
(0.0049946 -0.00222265 -0.000572172 0.0049946 2.90156e-18 0.0049946)
(0.0049946 -0.00222265 -0.000572172 0.0049946 5.3347e-18 0.0049946)
(0.00495391 -0.00220177 -0.00057735 0.00495391 4.05169e-18 0.00495391)
(0.00495391 -0.00220177 -0.00057735 0.00495391 1.71661e-18 0.00495391)
(0.00491241 -0.00218043 -0.000582398 0.00491241 1.53588e-18 0.00491241)
(0.00491241 -0.00218043 -0.000582398 0.00491241 1.08596e-18 0.00491241)
(0.0048701 -0.00215863 -0.000587307 0.0048701 1.41457e-18 0.0048701)
(0.0048701 -0.00215863 -0.000587307 0.0048701 1.78995e-18 0.0048701)
(0.00482696 -0.00213636 -0.000592064 0.00482696 2.28488e-18 0.00482696)
(0.00482696 -0.00213636 -0.000592064 0.00482696 5.65024e-18 0.00482696)
(0.00478298 -0.00211362 -0.000596658 0.00478298 1.79506e-18 0.00478298)
(0.00478298 -0.00211362 -0.000596658 0.00478298 -1.52416e-18 0.00478298)
(0.00473817 -0.00209039 -0.000601076 0.00473817 4.02537e-19 0.00473817)
(0.00473817 -0.00209039 -0.000601076 0.00473817 -1.03612e-17 0.00473817)