/*--------------------------------*- C++ -*----------------------------------*\
| =========                 |                                                 |
| \\      /  F ield         | OpenFOAM: The Open Source CFD Toolbox           |
|  \\    /   O peration     | Version:  2106                                  |
|   \\  /    A nd           | Website:  www.openfoam.com                      |
|    \\/     M anipulation  |                                                 |
\*---------------------------------------------------------------------------*/
FoamFile
{
    version     2.0;
    format      ascii;
    arch        "LSB;label=32;scalar=64";
    class       volVectorField;
    location    "10080";
    object      U;
}
// * * * * * * * * * * * * * * * * * * * * * * * * * * * * * * * * * * * * * //

dimensions      [0 1 -1 0 0 0 0];

internalField   nonuniform List<vector> 
2000
(
(0.00220318 -1.36649e-15 7.06068e-18)
(0.00220318 2.23433e-19 5.23818e-18)
(0.00664983 -3.34499e-16 6.17864e-17)
(0.00664983 2.26343e-19 2.08183e-17)
(0.0111786 -2.71128e-15 6.51539e-17)
(0.0111786 1.12789e-18 2.16062e-17)
(0.015791 -2.02963e-15 6.93965e-17)
(0.015791 1.86304e-18 2.24291e-17)
(0.0204886 -2.01655e-15 7.37154e-17)
(0.0204886 2.62567e-18 2.32858e-17)
(0.0252729 -2.0272e-15 7.81294e-17)
(0.0252729 3.40082e-18 2.41779e-17)
(0.0301455 -2.0327e-15 8.27136e-17)
(0.0301455 4.19889e-18 2.51066e-17)
(0.035108 -2.03411e-15 8.74905e-17)
(0.035108 5.04362e-18 2.60733e-17)
(0.040162 -2.03539e-15 9.24676e-17)
(0.040162 5.88334e-18 2.70786e-17)
(0.0453091 -2.03709e-15 9.76547e-17)
(0.0453091 6.72152e-18 2.81252e-17)
(0.0505512 -2.03886e-15 1.03063e-16)
(0.0505512 7.56392e-18 2.92154e-17)
(0.0558898 -2.04064e-15 1.08703e-16)
(0.0558898 8.47147e-18 3.03505e-17)
(0.0613267 -2.04244e-15 1.14585e-16)
(0.0613267 9.39813e-18 3.15315e-17)
(0.0668636 -2.04423e-15 1.2072e-16)
(0.0668636 1.02635e-17 3.27613e-17)
(0.0725024 -2.04603e-15 1.27116e-16)
(0.0725024 1.12011e-17 3.40414e-17)
(0.0782448 -2.04787e-15 1.33786e-16)
(0.0782448 1.21818e-17 3.53754e-17)
(0.0840926 -2.04989e-15 1.40739e-16)
(0.0840926 1.3189e-17 3.67655e-17)
(0.0900476 -2.05198e-15 1.47984e-16)
(0.0900476 1.42448e-17 3.82114e-17)
(0.0961117 -2.05409e-15 1.55532e-16)
(0.0961117 1.52957e-17 3.9716e-17)
(0.102286 -2.05625e-15 1.63393e-16)
(0.102286 1.63369e-17 4.12839e-17)
(0.108574 -2.05835e-15 1.71578e-16)
(0.108574 1.73688e-17 4.2916e-17)
(0.114975 -2.06055e-15 1.80095e-16)
(0.114975 1.83904e-17 4.46116e-17)
(0.121493 -2.0629e-15 1.86843e-16)
(0.121493 1.9479e-17 4.63755e-17)
(0.128128 -2.06524e-15 1.85975e-16)
(0.128128 2.05988e-17 4.82133e-17)
(0.134881 -2.0676e-15 1.84962e-16)
(0.134881 2.16651e-17 5.01253e-17)
(0.141755 -2.07006e-15 1.838e-16)
(0.141755 2.28385e-17 5.21093e-17)
(0.14875 -2.07247e-15 1.82486e-16)
(0.14875 2.39245e-17 5.41655e-17)
(0.155868 -2.07503e-15 1.81009e-16)
(0.155868 2.49635e-17 5.6304e-17)
(0.163108 -2.0777e-15 1.79364e-16)
(0.163108 2.61996e-17 5.8516e-17)
(0.170471 -2.0802e-15 1.77538e-16)
(0.170471 2.73497e-17 6.08104e-17)
(0.177957 -2.08278e-15 1.81229e-16)
(0.177957 2.8644e-17 6.31762e-17)
(0.185565 -2.08551e-15 1.87613e-16)
(0.185565 2.98806e-17 6.56191e-17)
(0.193295 -2.0884e-15 1.9415e-16)
(0.193295 3.10248e-17 6.81329e-17)
(0.201144 -2.09134e-15 2.00828e-16)
(0.201144 3.21807e-17 7.0724e-17)
(0.20911 -2.09429e-15 2.07625e-16)
(0.20911 3.33907e-17 7.33802e-17)
(0.217191 -2.09723e-15 2.14535e-16)
(0.217191 3.45747e-17 7.60989e-17)
(0.225382 -2.10005e-15 2.21526e-16)
(0.225382 3.54645e-17 7.8883e-17)
(0.233679 -2.10317e-15 2.28579e-16)
(0.233679 3.65465e-17 8.16972e-17)
(0.242076 -2.10657e-15 2.35661e-16)
(0.242076 3.78121e-17 8.45564e-17)
(0.250566 -2.10947e-15 2.42753e-16)
(0.250566 3.86376e-17 8.74604e-17)
(0.259142 -2.11198e-15 2.49836e-16)
(0.259142 3.9328e-17 9.03808e-17)
(0.267796 -2.11513e-15 2.56827e-16)
(0.267796 4.06241e-17 9.33018e-17)
(0.276518 -2.11884e-15 2.6371e-16)
(0.276518 4.20214e-17 9.62222e-17)
(0.285299 -2.12231e-15 2.70502e-16)
(0.285299 4.31364e-17 9.91387e-17)
(0.294128 -2.12533e-15 2.7712e-16)
(0.294128 4.46675e-17 1.0204e-16)
(0.302993 -2.12839e-15 2.83552e-16)
(0.302993 4.57073e-17 1.04905e-16)
(0.311882 -2.13199e-15 2.89759e-16)
(0.311882 4.61378e-17 1.07733e-16)
(0.320785 -2.13546e-15 2.95737e-16)
(0.320785 4.72831e-17 1.10513e-16)
(0.329688 -2.13893e-15 3.01423e-16)
(0.329688 4.88717e-17 1.13201e-16)
(0.338579 -2.14222e-15 3.0687e-16)
(0.338579 4.93253e-17 1.15841e-16)
(0.347448 -2.14562e-15 3.11956e-16)
(0.347448 4.93243e-17 1.18454e-16)
(0.356282 -2.14946e-15 3.16835e-16)
(0.356282 5.01983e-17 1.21009e-16)
(0.36507 -2.15295e-15 3.21339e-16)
(0.36507 5.09542e-17 1.23475e-16)
(0.373804 -2.15603e-15 3.25588e-16)
(0.373804 5.07717e-17 1.25893e-16)
(0.382472 -2.15821e-15 3.29595e-16)
(0.382472 5.04085e-17 1.28251e-16)
(0.391067 -2.16015e-15 3.33308e-16)
(0.391067 5.01723e-17 1.30575e-16)
(0.39958 -2.1624e-15 3.3675e-16)
(0.39958 4.95161e-17 1.32843e-16)
(0.408006 -2.16474e-15 3.3998e-16)
(0.408006 4.87246e-17 1.3505e-16)
(0.416338 -2.16728e-15 3.42989e-16)
(0.416338 4.74077e-17 1.37238e-16)
(0.424571 -2.16992e-15 3.45767e-16)
(0.424571 4.67085e-17 1.39437e-16)
(0.432701 -2.17228e-15 3.48416e-16)
(0.432701 4.61962e-17 1.41668e-16)
(0.440725 -2.17475e-15 3.50904e-16)
(0.440725 4.6296e-17 1.43886e-16)
(0.44864 -2.1773e-15 3.53287e-16)
(0.44864 4.65227e-17 1.46068e-16)
(0.456444 -2.17905e-15 3.55498e-16)
(0.456444 4.49316e-17 1.48243e-16)
(0.464137 -2.18017e-15 3.57762e-16)
(0.464137 4.36827e-17 1.50525e-16)
(0.471717 -2.1812e-15 3.59873e-16)
(0.471717 4.2201e-17 1.52785e-16)
(0.479185 -2.18241e-15 3.61959e-16)
(0.479185 4.0398e-17 1.55098e-16)
(0.48654 -2.18354e-15 3.64043e-16)
(0.48654 3.8079e-17 1.57504e-16)
(0.493784 -2.18443e-15 3.66008e-16)
(0.493784 3.60035e-17 1.59961e-16)
(0.500918 -2.18516e-15 3.68143e-16)
(0.500918 3.35084e-17 1.62533e-16)
(0.507942 -2.18585e-15 3.70202e-16)
(0.507942 2.98655e-17 1.65115e-16)
(0.514859 -2.18583e-15 3.72315e-16)
(0.514859 2.80758e-17 1.6772e-16)
(0.521671 -2.18581e-15 3.74531e-16)
(0.521671 2.5348e-17 1.70478e-16)
(0.528379 -2.18506e-15 3.7672e-16)
(0.528379 2.03836e-17 1.73378e-16)
(0.534985 -2.18382e-15 3.79053e-16)
(0.534985 1.66583e-17 1.76459e-16)
(0.541491 -2.1831e-15 3.81461e-16)
(0.541491 1.26418e-17 1.79511e-16)
(0.547901 -2.18034e-15 3.8391e-16)
(0.547901 8.59662e-18 1.82619e-16)
(0.554215 -2.17868e-15 3.86524e-16)
(0.554215 5.37554e-18 1.85888e-16)
(0.560437 -2.17853e-15 3.88963e-16)
(0.560437 2.564e-18 1.8934e-16)
(0.566569 -2.17804e-15 3.9143e-16)
(0.566569 4.35479e-19 1.92958e-16)
(0.572613 -2.17776e-15 3.94296e-16)
(0.572613 -2.69452e-18 1.96835e-16)
(0.578571 -2.17612e-15 3.97211e-16)
(0.578571 -4.85027e-18 2.00723e-16)
(0.584446 -2.17459e-15 4.00083e-16)
(0.584446 -8.8231e-18 2.04702e-16)
(0.590241 -2.17432e-15 4.02988e-16)
(0.590241 -1.22039e-17 2.09246e-16)
(0.595957 -2.17352e-15 4.06226e-16)
(0.595957 -1.35543e-17 2.13858e-16)
(0.601596 -2.17059e-15 4.09632e-16)
(0.601596 -1.65045e-17 2.18468e-16)
(0.607161 -2.16775e-15 4.12915e-16)
(0.607161 -2.21651e-17 2.23233e-16)
(0.612654 -2.16712e-15 4.16383e-16)
(0.612654 -2.72249e-17 2.28408e-16)
(0.618078 -2.16508e-15 4.2011e-16)
(0.618078 -2.88508e-17 2.33709e-16)
(0.623433 -2.16067e-15 4.23921e-16)
(0.623433 -3.34832e-17 2.39119e-16)
(0.628722 -2.15666e-15 4.27835e-16)
(0.628722 -3.96611e-17 2.449e-16)
(0.633947 -2.15202e-15 4.31986e-16)
(0.633947 -4.48362e-17 2.50811e-16)
(0.63911 -2.14755e-15 4.36251e-16)
(0.63911 -5.24546e-17 2.56845e-16)
(0.644213 -2.14313e-15 4.40445e-16)
(0.644213 -5.88099e-17 2.63241e-16)
(0.649257 -2.13669e-15 4.44787e-16)
(0.649257 -6.454e-17 2.69908e-16)
(0.654244 -2.13164e-15 4.49551e-16)
(0.654244 -7.10392e-17 2.76545e-16)
(0.659176 -2.12502e-15 4.54476e-16)
(0.659176 -7.9334e-17 2.83396e-16)
(0.664055 -2.11555e-15 4.59563e-16)
(0.664055 -8.84133e-17 2.90431e-16)
(0.668881 -2.10601e-15 4.64647e-16)
(0.668881 -9.70345e-17 2.97823e-16)
(0.673657 -2.0974e-15 4.69913e-16)
(0.673657 -1.04957e-16 3.05444e-16)
(0.678383 -2.09037e-15 4.75189e-16)
(0.678383 -1.11229e-16 3.13378e-16)
(0.683062 -2.08312e-15 4.8056e-16)
(0.683062 -1.17638e-16 3.20983e-16)
(0.687695 -2.0751e-15 4.86242e-16)
(0.687695 -1.26314e-16 3.29108e-16)
(0.692282 -2.06521e-15 4.92267e-16)
(0.692282 -1.34535e-16 3.37971e-16)
(0.696826 -2.05338e-15 4.98387e-16)
(0.696826 -1.43987e-16 3.46684e-16)
(0.701327 -2.04552e-15 5.04515e-16)
(0.701327 -1.52351e-16 3.55753e-16)
(0.705787 -2.04158e-15 5.10348e-16)
(0.705787 -1.54203e-16 3.64989e-16)
(0.710207 -2.03558e-15 5.16982e-16)
(0.710207 -1.60152e-16 3.74905e-16)
(0.714588 -2.02793e-15 5.23213e-16)
(0.714588 -1.66831e-16 3.85379e-16)
(0.71893 -2.01891e-15 5.25008e-16)
(0.71893 -1.72288e-16 3.95647e-16)
(0.723236 -2.00955e-15 5.22682e-16)
(0.723236 -1.79082e-16 4.06662e-16)
(0.727506 -2.00102e-15 5.20882e-16)
(0.727506 -1.86367e-16 4.1764e-16)
(0.731741 -1.9921e-15 5.19075e-16)
(0.731741 -1.91603e-16 4.28856e-16)
(0.735942 -1.98167e-15 5.1705e-16)
(0.735942 -1.98688e-16 4.40648e-16)
(0.740109 -1.97101e-15 5.147e-16)
(0.740109 -2.08889e-16 4.53114e-16)
(0.744245 -1.96023e-15 5.12291e-16)
(0.744245 -2.16114e-16 4.65933e-16)
(0.748349 -1.94838e-15 5.10107e-16)
(0.748349 -2.23312e-16 4.78082e-16)
(0.752423 -1.93588e-15 5.07446e-16)
(0.752423 -2.32872e-16 4.9169e-16)
(0.756466 -1.9244e-15 5.03299e-16)
(0.756466 -2.44067e-16 5.06084e-16)
(0.760481 -1.91579e-15 5.00247e-16)
(0.760481 -2.5073e-16 5.20225e-16)
(0.764468 -1.90776e-15 4.98709e-16)
(0.764468 -2.52608e-16 5.33709e-16)
(0.768427 -1.90025e-15 4.97114e-16)
(0.768427 -2.56898e-16 5.47882e-16)
(0.77236 -1.89141e-15 4.94659e-16)
(0.77236 -2.59917e-16 5.63969e-16)
(0.776266 -1.88491e-15 4.91851e-16)
(0.776266 -2.6413e-16 5.80694e-16)
(0.780147 -1.87646e-15 4.89702e-16)
(0.780147 -2.66451e-16 5.97577e-16)
(0.784003 -1.85989e-15 4.87885e-16)
(0.784003 -2.74679e-16 6.14811e-16)
(0.787835 -1.84365e-15 4.85891e-16)
(0.787835 -2.82811e-16 6.32659e-16)
(0.791643 -1.8311e-15 4.84219e-16)
(0.791643 -2.88002e-16 6.5055e-16)
(0.795428 -1.81767e-15 4.82037e-16)
(0.795428 -3.03219e-16 6.69361e-16)
(0.79919 -1.79998e-15 4.7963e-16)
(0.79919 -3.13732e-16 6.8895e-16)
(0.802931 -1.7862e-15 4.77084e-16)
(0.802931 -3.23706e-16 7.08384e-16)
(0.80665 -1.76951e-15 4.75802e-16)
(0.80665 -3.31319e-16 7.05718e-16)
(0.810349 -1.75383e-15 4.72172e-16)
(0.810349 -3.39012e-16 7.01801e-16)
(0.814027 -1.73926e-15 4.70814e-16)
(0.814027 -3.46896e-16 6.95926e-16)
(0.817685 -1.71985e-15 4.68989e-16)
(0.817685 -3.49154e-16 6.92209e-16)
(0.821323 -1.70865e-15 4.66296e-16)
(0.821323 -3.57746e-16 6.88173e-16)
(0.824943 -1.69761e-15 4.6424e-16)
(0.824943 -3.69441e-16 6.82855e-16)
(0.828544 -1.6828e-15 4.61756e-16)
(0.828544 -3.76351e-16 6.77277e-16)
(0.832126 -1.67109e-15 4.59194e-16)
(0.832126 -3.83862e-16 6.70988e-16)
(0.835691 -1.65859e-15 4.56086e-16)
(0.835691 -4.00246e-16 6.64756e-16)
(0.839239 -1.64485e-15 4.51548e-16)
(0.839239 -4.08065e-16 6.57374e-16)
(0.842769 -1.63187e-15 4.4762e-16)
(0.842769 -4.10825e-16 6.48403e-16)
(0.846283 -1.6155e-15 4.45896e-16)
(0.846283 -4.22976e-16 6.40073e-16)
(0.849781 -1.59626e-15 4.42328e-16)
(0.849781 -4.34369e-16 6.33715e-16)
(0.853262 -1.58112e-15 4.37618e-16)
(0.853262 -4.45886e-16 6.26347e-16)
(0.856728 -1.56298e-15 4.34573e-16)
(0.856728 -4.57026e-16 6.18086e-16)
(0.860179 -1.5431e-15 4.30362e-16)
(0.860179 -4.72562e-16 6.12219e-16)
(0.863614 -1.53096e-15 4.24062e-16)
(0.863614 -4.82638e-16 6.06164e-16)
(0.867035 -1.51799e-15 4.18113e-16)
(0.867035 -4.82595e-16 5.9659e-16)
(0.870441 -1.49788e-15 4.15773e-16)
(0.870441 -4.951e-16 5.86173e-16)
(0.873833 -1.47351e-15 4.13457e-16)
(0.873833 -5.09536e-16 5.79571e-16)
(0.877212 -1.45667e-15 4.07177e-16)
(0.877212 -5.12716e-16 5.74224e-16)
(0.880576 -1.44335e-15 3.98078e-16)
(0.880576 -5.25601e-16 5.69835e-16)
(0.883927 -1.42662e-15 3.91835e-16)
(0.883927 -5.4113e-16 5.62677e-16)
(0.887265 -1.40917e-15 3.85554e-16)
(0.887265 -5.44007e-16 5.59116e-16)
(0.890591 -1.39157e-15 3.78234e-16)
(0.890591 -5.56027e-16 5.52638e-16)
(0.893903 -1.3735e-15 3.74312e-16)
(0.893903 -5.62867e-16 5.47557e-16)
(0.897203 -1.35425e-15 3.76199e-16)
(0.897203 -5.69675e-16 5.44739e-16)
(0.90049 -1.33444e-15 3.76108e-16)
(0.90049 -5.84375e-16 5.42128e-16)
(0.903765 -1.31859e-15 3.73957e-16)
(0.903765 -5.84882e-16 5.38739e-16)
(0.907028 -1.30304e-15 3.74128e-16)
(0.907028 -5.957e-16 5.32568e-16)
(0.91028 -1.27989e-15 3.736e-16)
(0.91028 -6.03384e-16 5.27085e-16)
(0.91352 -1.26214e-15 3.7426e-16)
(0.91352 -6.09238e-16 5.17851e-16)
(0.916748 -1.24543e-15 3.72668e-16)
(0.916748 -6.13619e-16 5.07547e-16)
(0.919965 -1.22535e-15 3.73267e-16)
(0.919965 -6.15769e-16 4.99538e-16)
(0.92317 -1.20703e-15 3.71829e-16)
(0.92317 -6.26061e-16 4.956e-16)
(0.926365 -1.18768e-15 3.68025e-16)
(0.926365 -6.28501e-16 4.93238e-16)
(0.929548 -1.16902e-15 3.67092e-16)
(0.929548 -6.25444e-16 4.86077e-16)
(0.932721 -1.15404e-15 3.63106e-16)
(0.932721 -6.21449e-16 4.77582e-16)
(0.935882 -1.14016e-15 3.61317e-16)
(0.935882 -6.26458e-16 4.7057e-16)
(0.939033 -1.12751e-15 3.55059e-16)
(0.939033 -6.41244e-16 4.63396e-16)
(0.942174 -1.10478e-15 3.54535e-16)
(0.942174 -6.49729e-16 4.48983e-16)
(0.945303 -1.08772e-15 3.495e-16)
(0.945303 -6.52385e-16 4.4173e-16)
(0.948422 -1.0782e-15 3.48313e-16)
(0.948422 -6.5501e-16 4.31909e-16)
(0.951531 -1.05676e-15 3.43592e-16)
(0.951531 -6.52941e-16 4.30038e-16)
(0.954629 -1.04214e-15 3.44311e-16)
(0.954629 -6.4873e-16 4.19493e-16)
(0.957717 -1.0283e-15 3.40596e-16)
(0.957717 -6.56832e-16 4.09931e-16)
(0.960794 -1.01559e-15 3.35975e-16)
(0.960794 -6.49482e-16 3.98432e-16)
(0.963861 -1.00861e-15 3.31445e-16)
(0.963861 -6.42892e-16 3.86543e-16)
(0.966917 -9.86274e-16 3.25127e-16)
(0.966917 -6.43876e-16 3.77456e-16)
(0.969963 -9.54224e-16 3.27724e-16)
(0.969963 -6.38094e-16 3.66759e-16)
(0.972999 -9.23615e-16 3.29221e-16)
(0.972999 -6.43764e-16 3.55809e-16)
(0.976023 -9.00258e-16 3.2432e-16)
(0.976023 -6.56086e-16 3.44944e-16)
(0.979038 -8.83423e-16 3.23842e-16)
(0.979038 -6.81229e-16 3.29067e-16)
(0.982041 -8.70727e-16 3.19283e-16)
(0.982041 -6.88736e-16 3.1938e-16)
(0.985034 -8.64626e-16 3.08617e-16)
(0.985034 -6.93882e-16 3.18372e-16)
(0.988016 -8.56291e-16 3.10999e-16)
(0.988016 -7.11327e-16 3.19626e-16)
(0.990988 -8.43976e-16 3.08827e-16)
(0.990988 -7.34224e-16 3.19474e-16)
(0.993948 -8.34607e-16 3.0585e-16)
(0.993948 -7.44979e-16 3.21043e-16)
(0.996897 -8.28807e-16 3.08352e-16)
(0.996897 -7.3809e-16 3.1921e-16)
(0.999834 -8.22184e-16 3.05849e-16)
(0.999834 -7.37313e-16 3.22762e-16)
(1.00276 -8.10086e-16 3.10546e-16)
(1.00276 -7.35423e-16 3.14753e-16)
(1.00568 -7.84984e-16 3.14497e-16)
(1.00568 -7.45159e-16 3.10863e-16)
(1.00858 -7.71418e-16 3.15878e-16)
(1.00858 -7.5592e-16 3.21471e-16)
(1.01147 -7.71213e-16 3.10907e-16)
(1.01147 -7.61404e-16 3.22378e-16)
(1.01435 -7.61816e-16 3.11981e-16)
(1.01435 -7.37246e-16 3.23854e-16)
(1.01721 -7.51387e-16 3.1226e-16)
(1.01721 -7.33021e-16 3.31067e-16)
(1.02007 -7.48647e-16 3.1165e-16)
(1.02007 -7.60246e-16 3.24017e-16)
(1.0229 -7.28833e-16 3.14017e-16)
(1.0229 -7.50415e-16 3.35343e-16)
(1.02573 -7.17206e-16 3.23061e-16)
(1.02573 -7.31385e-16 3.57873e-16)
(1.02854 -7.17945e-16 3.37782e-16)
(1.02854 -7.03093e-16 3.57037e-16)
(1.03134 -6.99459e-16 3.44596e-16)
(1.03134 -6.79822e-16 3.62123e-16)
(1.03413 -6.87731e-16 3.45641e-16)
(1.03413 -6.5363e-16 3.78216e-16)
(1.03689 -6.90277e-16 3.54806e-16)
(1.03689 -6.39182e-16 3.90082e-16)
(1.03965 -6.70063e-16 3.82287e-16)
(1.03965 -6.18789e-16 3.40891e-16)
(1.04239 -6.28262e-16 3.83969e-16)
(1.04239 -6.15776e-16 3.71071e-16)
(1.04511 -6.07936e-16 3.76131e-16)
(1.04511 -6.34363e-16 3.76532e-16)
(1.04781 -5.92405e-16 3.7405e-16)
(1.04781 -6.01192e-16 3.61326e-16)
(1.0505 -5.68377e-16 3.69631e-16)
(1.0505 -5.5551e-16 3.7452e-16)
(1.05317 -5.49169e-16 3.59904e-16)
(1.05317 -5.31617e-16 3.95236e-16)
(1.05582 -5.20479e-16 3.52058e-16)
(1.05582 -5.08944e-16 3.96347e-16)
(1.05845 -5.13645e-16 3.73892e-16)
(1.05845 -4.92864e-16 3.90467e-16)
(1.06106 -4.8297e-16 3.32885e-16)
(1.06106 -4.91269e-16 3.81171e-16)
(1.06365 -4.79754e-16 3.77547e-16)
(1.06365 -4.6385e-16 3.84836e-16)
(1.06622 -4.70264e-16 3.94212e-16)
(1.06622 -4.78323e-16 4.00892e-16)
(1.06876 -4.68279e-16 3.70427e-16)
(1.06876 -4.86895e-16 3.72061e-16)
(1.07128 -4.94634e-16 3.90449e-16)
(1.07128 -4.70134e-16 3.39101e-16)
(1.07378 -4.9353e-16 3.59106e-16)
(1.07378 -4.76735e-16 3.75403e-16)
(1.07625 -4.7878e-16 3.60694e-16)
(1.07625 -4.93491e-16 3.65739e-16)
(1.07869 -4.65115e-16 3.58828e-16)
(1.07869 -5.02373e-16 3.60079e-16)
(1.08111 -4.76162e-16 3.95298e-16)
(1.08111 -4.95497e-16 3.73007e-16)
(1.08349 -4.55943e-16 3.8931e-16)
(1.08349 -4.79517e-16 4.12735e-16)
(1.08585 -4.85835e-16 3.71102e-16)
(1.08585 -4.58109e-16 3.7337e-16)
(1.08817 -4.95983e-16 3.62353e-16)
(1.08817 -4.57163e-16 3.2663e-16)
(1.09045 -4.75113e-16 3.52045e-16)
(1.09045 -4.56274e-16 3.74125e-16)
(1.0927 -4.66481e-16 3.76181e-16)
(1.0927 -4.5008e-16 3.87394e-16)
(1.09492 -4.62752e-16 3.98765e-16)
(1.09492 -4.44876e-16 3.57589e-16)
(1.09709 -4.41598e-16 4.02951e-16)
(1.09709 -4.33025e-16 3.82035e-16)
(1.09922 -4.47669e-16 4.05983e-16)
(1.09922 -4.61159e-16 3.79297e-16)
(1.1013 -4.78408e-16 3.83224e-16)
(1.1013 -4.66215e-16 3.48763e-16)
(1.10334 -4.73905e-16 3.86723e-16)
(1.10334 -4.06638e-16 3.34099e-16)
(1.10532 -4.25335e-16 4.55092e-16)
(1.10532 -4.56289e-16 3.17921e-16)
(1.10726 -3.70003e-16 5.05296e-16)
(1.10726 -5.04477e-16 3.32757e-16)
(1.10913 -3.64176e-16 4.27736e-16)
(1.10913 -4.94881e-16 3.92034e-16)
(1.11094 -4.21323e-16 4.63462e-16)
(1.11094 -4.79485e-16 3.46515e-16)
(1.11269 -4.46495e-16 4.15454e-16)
(1.11269 -4.95011e-16 4.96804e-16)
(1.11437 -4.73447e-16 3.74961e-16)
(1.11437 -5.24107e-16 5.11569e-16)
(1.11598 -4.80282e-16 3.42086e-16)
(1.11598 -4.90424e-16 4.39592e-16)
(1.1175 -4.99824e-16 3.25326e-16)
(1.1175 -4.5904e-16 4.2346e-16)
(1.11895 -5.66435e-16 2.95912e-16)
(1.11895 -4.46285e-16 4.48829e-16)
(1.1203 -5.29089e-16 2.7431e-16)
(1.1203 -4.32254e-16 3.40252e-16)
(1.12155 -4.71964e-16 2.25326e-16)
(1.12155 -4.31856e-16 2.07994e-16)
(1.1227 -4.67721e-16 1.70563e-16)
(1.1227 -4.09672e-16 1.40837e-16)
(1.12373 -4.19614e-16 1.87219e-16)
(1.12373 -3.81549e-16 1.44705e-16)
(1.12465 -3.6578e-16 1.7227e-16)
(1.12465 -3.84416e-16 1.47698e-16)
(1.12544 -3.58973e-16 1.93147e-16)
(1.12544 -4.09995e-16 1.32184e-16)
(1.12608 -3.70487e-16 1.8713e-16)
(1.12608 -4.19917e-16 1.71871e-16)
(1.12659 -3.61333e-16 1.13091e-16)
(1.12659 -3.86811e-16 2.28598e-16)
(1.12693 -3.79468e-16 1.51333e-16)
(1.12693 -3.50685e-16 1.33835e-16)
(1.12711 -3.59223e-16 1.62727e-16)
(1.12711 -3.37251e-16 8.41917e-17)
(0.00220318 1.25956e-19 -2.46852e-18)
(0.00220318 3.51276e-20 -1.2099e-18)
(0.00664983 1.63827e-19 -1.18005e-17)
(0.00664983 9.78491e-20 -1.45039e-17)
(0.0111786 6.94255e-19 -1.21413e-17)
(0.0111786 2.82714e-19 -1.50432e-17)
(0.015791 1.13102e-18 -1.46354e-17)
(0.015791 4.59676e-19 -1.55985e-17)
(0.0204886 1.57593e-18 -1.66445e-17)
(0.0204886 6.50994e-19 -1.61692e-17)
(0.0252729 2.04455e-18 -1.72728e-17)
(0.0252729 8.48476e-19 -1.67557e-17)
(0.0301455 2.54156e-18 -1.7925e-17)
(0.0301455 1.06734e-18 -1.73579e-17)
(0.035108 3.05736e-18 -1.86021e-17)
(0.035108 1.28895e-18 -1.79749e-17)
(0.040162 3.57197e-18 -1.93045e-17)
(0.040162 1.52414e-18 -1.86079e-17)
(0.0453091 4.07319e-18 -2.00325e-17)
(0.0453091 1.80644e-18 -1.92587e-17)
(0.0505512 4.57462e-18 -2.07883e-17)
(0.0505512 2.08913e-18 -1.99254e-17)
(0.0558898 5.09916e-18 -2.15722e-17)
(0.0558898 2.40269e-18 -2.06084e-17)
(0.0613267 5.64751e-18 -2.2385e-17)
(0.0613267 2.72801e-18 -2.1308e-17)
(0.0668636 6.20462e-18 -2.32269e-17)
(0.0668636 3.07749e-18 -2.20261e-17)
(0.0725024 6.78265e-18 -2.41002e-17)
(0.0725024 3.47092e-18 -2.27614e-17)
(0.0782448 7.46887e-18 -2.50048e-17)
(0.0782448 3.82564e-18 -2.35124e-17)
(0.0840926 8.17967e-18 -2.59384e-17)
(0.0840926 4.09581e-18 -2.42805e-17)
(0.0900476 8.83115e-18 -2.69029e-17)
(0.0900476 4.38866e-18 -2.50639e-17)
(0.0961117 9.51262e-18 -2.78976e-17)
(0.0961117 4.75058e-18 -2.58651e-17)
(0.102286 1.02392e-17 -2.89235e-17)
(0.102286 5.13154e-18 -2.66853e-17)
(0.108574 1.09064e-17 -2.99825e-17)
(0.108574 5.65459e-18 -2.75211e-17)
(0.114975 1.14884e-17 -3.10758e-17)
(0.114975 6.29503e-18 -2.83754e-17)
(0.121493 1.20807e-17 -3.22058e-17)
(0.121493 6.92332e-18 -2.92479e-17)
(0.128128 1.27323e-17 -3.33718e-17)
(0.128128 7.50152e-18 -3.01357e-17)
(0.134881 1.35186e-17 -3.45748e-17)
(0.134881 7.95933e-18 -3.10311e-17)
(0.141755 1.4416e-17 -3.58099e-17)
(0.141755 8.23034e-18 -3.19344e-17)
(0.14875 1.52939e-17 -3.70716e-17)
(0.14875 8.67662e-18 -3.28612e-17)
(0.155868 1.62382e-17 -3.83639e-17)
(0.155868 9.27015e-18 -3.37929e-17)
(0.163108 1.71912e-17 -3.968e-17)
(0.163108 9.8112e-18 -3.47281e-17)
(0.170471 1.81433e-17 -4.10165e-17)
(0.170471 1.03212e-17 -3.5666e-17)
(0.177957 1.91653e-17 -4.23678e-17)
(0.177957 1.08591e-17 -3.66108e-17)
(0.185565 2.01655e-17 -4.37322e-17)
(0.185565 1.16226e-17 -3.75599e-17)
(0.193295 2.10597e-17 -4.51078e-17)
(0.193295 1.26454e-17 -3.8512e-17)
(0.201144 2.18257e-17 -5.05123e-17)
(0.201144 1.36671e-17 -3.94619e-17)
(0.20911 2.25864e-17 -6.11218e-17)
(0.20911 1.47246e-17 -4.03985e-17)
(0.217191 2.35486e-17 -7.2111e-17)
(0.217191 1.55584e-17 -4.13174e-17)
(0.225382 2.50357e-17 -8.34732e-17)
(0.225382 1.61484e-17 -4.21952e-17)
(0.233679 2.66021e-17 -9.51916e-17)
(0.233679 1.69593e-17 -4.30554e-17)
(0.242076 2.78944e-17 -1.0724e-16)
(0.242076 1.76432e-17 -4.38879e-17)
(0.250566 2.89043e-17 -1.19587e-16)
(0.250566 1.86515e-17 -4.46716e-17)
(0.259142 2.96808e-17 -1.3222e-16)
(0.259142 2.02755e-17 -4.53929e-17)
(0.267796 3.05761e-17 -1.45126e-16)
(0.267796 2.11953e-17 -4.60643e-17)
(0.276518 3.1869e-17 -1.58204e-16)
(0.276518 2.20622e-17 -4.66742e-17)
(0.285299 3.33318e-17 -1.71397e-16)
(0.285299 2.31567e-17 -4.7229e-17)
(0.294128 3.4725e-17 -1.84682e-16)
(0.294128 2.46059e-17 -4.77041e-17)
(0.302993 3.6062e-17 -1.98005e-16)
(0.302993 2.63624e-17 -4.81154e-17)
(0.311882 3.67983e-17 -2.11313e-16)
(0.311882 2.77205e-17 -4.84801e-17)
(0.320785 3.74704e-17 -2.24543e-16)
(0.320785 2.97813e-17 -4.87387e-17)
(0.329688 3.82671e-17 -2.37714e-16)
(0.329688 3.19613e-17 -4.89358e-17)
(0.338579 3.88671e-17 -2.50758e-16)
(0.338579 3.37349e-17 -4.91087e-17)
(0.347448 4.02937e-17 -2.6365e-16)
(0.347448 3.51448e-17 -4.91809e-17)
(0.356282 4.18398e-17 -2.76276e-16)
(0.356282 3.70562e-17 -4.91416e-17)
(0.36507 4.3096e-17 -2.88741e-16)
(0.36507 3.8242e-17 -4.90538e-17)
(0.373804 4.43017e-17 -2.98863e-16)
(0.373804 3.90962e-17 -4.88986e-17)
(0.382472 4.54349e-17 -3.05041e-16)
(0.382472 4.11253e-17 -4.8649e-17)
(0.391067 4.63048e-17 -3.11044e-16)
(0.391067 4.28404e-17 -4.8359e-17)
(0.39958 4.70929e-17 -3.16802e-16)
(0.39958 4.49827e-17 -4.7978e-17)
(0.408006 4.86328e-17 -3.22391e-16)
(0.408006 4.69978e-17 -4.75675e-17)
(0.416338 5.00348e-17 -3.27767e-16)
(0.416338 4.84655e-17 -4.71516e-17)
(0.424571 5.09897e-17 -3.32954e-16)
(0.424571 5.01304e-17 -4.66887e-17)
(0.432701 5.20558e-17 -3.37978e-16)
(0.432701 5.19052e-17 -4.6112e-17)
(0.440725 5.25702e-17 -3.42917e-16)
(0.440725 5.37417e-17 -4.54915e-17)
(0.44864 5.30414e-17 -3.47749e-16)
(0.44864 5.53167e-17 -4.48677e-17)
(0.456444 5.40656e-17 -3.52437e-16)
(0.456444 5.71178e-17 -4.42703e-17)
(0.464137 5.50337e-17 -3.5701e-16)
(0.464137 5.8539e-17 -4.36554e-17)
(0.471717 5.6272e-17 -3.61534e-16)
(0.471717 5.99974e-17 -4.30147e-17)
(0.479185 5.77567e-17 -3.66057e-16)
(0.479185 6.19181e-17 -4.24693e-17)
(0.48654 5.90821e-17 -3.70467e-16)
(0.48654 6.33428e-17 -4.20038e-17)
(0.493784 6.02112e-17 -3.74788e-16)
(0.493784 6.40683e-17 -4.14984e-17)
(0.500918 6.11356e-17 -3.79131e-16)
(0.500918 6.58468e-17 -4.08768e-17)
(0.507942 6.27508e-17 -3.83693e-16)
(0.507942 6.74245e-17 -4.02344e-17)
(0.514859 6.39986e-17 -3.88277e-16)
(0.514859 6.78074e-17 -3.9717e-17)
(0.521671 6.49389e-17 -3.92844e-16)
(0.521671 6.94064e-17 -3.9247e-17)
(0.528379 6.50351e-17 -3.97485e-16)
(0.528379 7.13996e-17 -3.88156e-17)
(0.534985 6.47968e-17 -4.02035e-16)
(0.534985 7.37639e-17 -3.83613e-17)
(0.541491 6.60355e-17 -4.0664e-16)
(0.541491 7.43035e-17 -3.76903e-17)
(0.547901 6.6489e-17 -4.11527e-16)
(0.547901 7.68741e-17 -3.71126e-17)
(0.554215 6.5851e-17 -4.16684e-16)
(0.554215 7.85903e-17 -3.77196e-17)
(0.560437 6.62597e-17 -4.21753e-16)
(0.560437 7.85915e-17 -3.84734e-17)
(0.566569 6.67362e-17 -4.26883e-16)
(0.566569 8.13006e-17 -3.92493e-17)
(0.572613 6.65814e-17 -4.32199e-16)
(0.572613 8.3108e-17 -4.00048e-17)
(0.578571 6.67758e-17 -4.37697e-16)
(0.578571 8.4894e-17 -4.08244e-17)
(0.584446 6.64487e-17 -4.43291e-16)
(0.584446 8.76201e-17 -4.18565e-17)
(0.590241 6.68768e-17 -4.48779e-16)
(0.590241 8.99323e-17 -4.2658e-17)
(0.595957 6.8199e-17 -4.54221e-16)
(0.595957 9.18165e-17 -4.34878e-17)
(0.601596 6.87888e-17 -4.59944e-16)
(0.601596 9.4957e-17 -4.45498e-17)
(0.607161 7.0221e-17 -4.65857e-16)
(0.607161 9.61486e-17 -4.57915e-17)
(0.612654 7.19259e-17 -4.71804e-16)
(0.612654 9.79352e-17 -4.70629e-17)
(0.618078 7.30322e-17 -4.78073e-16)
(0.618078 1.00694e-16 -4.86814e-17)
(0.623433 7.22679e-17 -4.84349e-16)
(0.623433 1.02352e-16 -5.03443e-17)
(0.628722 7.06037e-17 -4.90627e-16)
(0.628722 1.03501e-16 -5.18184e-17)
(0.633947 7.06674e-17 -4.9711e-16)
(0.633947 1.05227e-16 -5.34253e-17)
(0.63911 7.07266e-17 -5.03987e-16)
(0.63911 1.05588e-16 -5.5239e-17)
(0.644213 7.0564e-17 -5.10904e-16)
(0.644213 1.05695e-16 -5.68598e-17)
(0.649257 6.99685e-17 -5.18049e-16)
(0.649257 1.10405e-16 -5.85542e-17)
(0.654244 6.8575e-17 -5.25535e-16)
(0.654244 1.1485e-16 -6.02827e-17)
(0.659176 6.9518e-17 -5.32992e-16)
(0.659176 1.12264e-16 -6.19439e-17)
(0.664055 6.98658e-17 -5.40589e-16)
(0.664055 1.11011e-16 -6.39827e-17)
(0.668881 6.96368e-17 -5.48815e-16)
(0.668881 1.12501e-16 -6.60293e-17)
(0.673657 6.98575e-17 -5.56967e-16)
(0.673657 1.10391e-16 -6.80762e-17)
(0.678383 6.78783e-17 -5.65661e-16)
(0.678383 1.12326e-16 -7.01405e-17)
(0.683062 6.63015e-17 -5.7461e-16)
(0.683062 1.1459e-16 -7.22796e-17)
(0.687695 6.53884e-17 -5.83706e-16)
(0.687695 1.119e-16 -7.4555e-17)
(0.692282 6.68515e-17 -5.92577e-16)
(0.692282 1.1231e-16 -7.64427e-17)
(0.696826 6.76287e-17 -6.02371e-16)
(0.696826 1.16288e-16 -7.91467e-17)
(0.701327 6.4448e-17 -6.11877e-16)
(0.701327 1.16554e-16 -8.12377e-17)
(0.705787 6.21492e-17 -6.21745e-16)
(0.705787 1.17594e-16 -8.34024e-17)
(0.710207 6.07079e-17 -6.31713e-16)
(0.710207 1.20489e-16 -8.55074e-17)
(0.714588 5.80739e-17 -6.42101e-16)
(0.714588 1.22243e-16 -8.73366e-17)
(0.71893 5.70788e-17 -6.52671e-16)
(0.71893 1.21408e-16 -8.93498e-17)
(0.723236 5.68253e-17 -6.62394e-16)
(0.723236 1.20364e-16 -9.05561e-17)
(0.727506 5.73673e-17 -6.67425e-16)
(0.727506 1.21649e-16 -9.29025e-17)
(0.731741 5.94277e-17 -6.68066e-16)
(0.731741 1.21359e-16 -9.50292e-17)
(0.735942 5.95887e-17 -6.68519e-16)
(0.735942 1.1994e-16 -9.7552e-17)
(0.740109 5.80341e-17 -6.69005e-16)
(0.740109 1.19678e-16 -9.94996e-17)
(0.744245 5.77357e-17 -6.69593e-16)
(0.744245 1.20056e-16 -1.00437e-16)
(0.748349 5.79513e-17 -6.70667e-16)
(0.748349 1.23028e-16 -1.02322e-16)
(0.752423 5.55026e-17 -6.71668e-16)
(0.752423 1.21868e-16 -1.03162e-16)
(0.756466 5.04504e-17 -6.72511e-16)
(0.756466 1.19023e-16 -1.02912e-16)
(0.760481 4.83821e-17 -6.72584e-16)
(0.760481 1.18306e-16 -1.02462e-16)
(0.764468 4.73948e-17 -6.73254e-16)
(0.764468 1.20824e-16 -1.02803e-16)
(0.768427 4.73318e-17 -6.74524e-16)
(0.768427 1.24197e-16 -1.04059e-16)
(0.77236 4.95713e-17 -6.7407e-16)
(0.77236 1.25185e-16 -1.04269e-16)
(0.776266 4.90979e-17 -6.71611e-16)
(0.776266 1.24536e-16 -1.03939e-16)
(0.780147 4.71482e-17 -6.68986e-16)
(0.780147 1.26837e-16 -1.04201e-16)
(0.784003 4.29167e-17 -6.66023e-16)
(0.784003 1.29562e-16 -1.03933e-16)
(0.787835 4.05654e-17 -6.63894e-16)
(0.787835 1.26436e-16 -1.03079e-16)
(0.791643 4.02935e-17 -6.62686e-16)
(0.791643 1.2465e-16 -1.02041e-16)
(0.795428 3.9206e-17 -6.62239e-16)
(0.795428 1.22424e-16 -1.01079e-16)
(0.79919 3.9009e-17 -6.60425e-16)
(0.79919 1.19113e-16 -1.00429e-16)
(0.802931 3.66842e-17 -6.58507e-16)
(0.802931 1.19219e-16 -9.91041e-17)
(0.80665 3.38798e-17 -6.57393e-16)
(0.80665 1.21759e-16 -9.82066e-17)
(0.810349 3.19557e-17 -6.57279e-16)
(0.810349 1.22295e-16 -9.60686e-17)
(0.814027 2.9456e-17 -6.55799e-16)
(0.814027 1.18582e-16 -9.40853e-17)
(0.817685 2.3826e-17 -6.55613e-16)
(0.817685 1.18069e-16 -9.27981e-17)
(0.821323 1.74677e-17 -6.54919e-16)
(0.821323 1.20742e-16 -9.02617e-17)
(0.824943 1.49269e-17 -6.52571e-16)
(0.824943 1.19066e-16 -8.72546e-17)
(0.828544 1.51568e-17 -6.49805e-16)
(0.828544 1.16949e-16 -8.5066e-17)
(0.832126 1.54659e-17 -6.45987e-16)
(0.832126 1.12671e-16 -8.42641e-17)
(0.835691 1.32419e-17 -6.41691e-16)
(0.835691 1.04891e-16 -8.12767e-17)
(0.839239 8.49786e-18 -6.37204e-16)
(0.839239 1.03873e-16 -7.79134e-17)
(0.842769 4.63103e-18 -6.34247e-16)
(0.842769 1.01979e-16 -7.52476e-17)
(0.846283 3.86541e-18 -6.31176e-16)
(0.846283 9.5429e-17 -7.2339e-17)
(0.849781 5.41558e-18 -6.26798e-16)
(0.849781 9.30528e-17 -7.08258e-17)
(0.853262 4.74197e-18 -6.22008e-16)
(0.853262 8.73328e-17 -6.84512e-17)
(0.856728 2.07821e-18 -6.17818e-16)
(0.856728 8.22881e-17 -6.6243e-17)
(0.860179 -2.93938e-18 -6.15384e-16)
(0.860179 8.0196e-17 -6.51833e-17)
(0.863614 -7.23994e-18 -6.13969e-16)
(0.863614 7.48238e-17 -6.12255e-17)
(0.867035 -6.83396e-18 -6.11485e-16)
(0.867035 7.64784e-17 -5.99455e-17)
(0.870441 -1.25291e-17 -6.06612e-16)
(0.870441 6.10387e-17 -6.19446e-17)
(0.873833 -2.1816e-17 -6.02988e-16)
(0.873833 4.79641e-17 -5.94299e-17)
(0.877212 -2.38063e-17 -6.00081e-16)
(0.877212 4.86278e-17 -5.70406e-17)
(0.880576 -2.82279e-17 -5.98524e-16)
(0.880576 4.87006e-17 -6.54193e-17)
(0.883927 -2.7622e-17 -5.9383e-16)
(0.883927 5.4761e-17 -7.37801e-17)
(0.887265 -2.45179e-17 -5.90859e-16)
(0.887265 6.23994e-17 -8.10745e-17)
(0.890591 -2.74556e-17 -5.85405e-16)
(0.890591 4.69236e-17 -8.74518e-17)
(0.893903 -3.21966e-17 -5.79106e-16)
(0.893903 4.57648e-17 -9.00944e-17)
(0.897203 -4.13411e-17 -5.76792e-16)
(0.897203 3.85662e-17 -9.77326e-17)
(0.90049 -4.62453e-17 -5.76668e-16)
(0.90049 3.03539e-17 -1.08507e-16)