/*--------------------------------*- C++ -*----------------------------------*\
| =========                 |                                                 |
| \\      /  F ield         | OpenFOAM: The Open Source CFD Toolbox           |
|  \\    /   O peration     | Version:  2106                                  |
|   \\  /    A nd           | Website:  www.openfoam.com                      |
|    \\/     M anipulation  |                                                 |
\*---------------------------------------------------------------------------*/
FoamFile
{
    version     2.0;
    format      ascii;
    arch        "LSB;label=32;scalar=64";
    class       volSymmTensorField;
    location    "10100";
    object      turbulenceProperties:R;
}
// * * * * * * * * * * * * * * * * * * * * * * * * * * * * * * * * * * * * * //

dimensions      [0 2 -2 0 0 0 0];

internalField   nonuniform List<symmTensor> 
2000
(
(2.28131e-07 -1.50971e-11 -2.79418e-14 2.28131e-07 3.56508e-27 2.28131e-07)
(2.28131e-07 -1.50971e-11 -2.79418e-14 2.28131e-07 6.86786e-30 2.28131e-07)
(3.94946e-08 -1.50561e-11 -8.41234e-14 3.94946e-08 -2.47748e-27 3.94946e-08)
(3.94946e-08 -1.50561e-11 -8.41234e-14 3.94946e-08 9.02034e-30 3.94946e-08)
(5.41026e-08 -6.10669e-11 -4.73417e-13 5.41026e-08 -9.24297e-27 5.41026e-08)
(5.41026e-08 -6.10669e-11 -4.73417e-13 5.41026e-08 3.06397e-29 5.41026e-08)
(1.68232e-07 -4.04314e-10 -3.19292e-12 1.68232e-07 1.91242e-26 1.68232e-07)
(1.68232e-07 -4.04314e-10 -3.19292e-12 1.68232e-07 2.47452e-28 1.68232e-07)
(4.34862e-07 -1.85155e-09 -1.48948e-11 4.34862e-07 -3.13358e-25 4.34862e-07)
(4.34862e-07 -1.85155e-09 -1.48948e-11 4.34862e-07 1.26173e-27 4.34862e-07)
(9.34076e-07 -6.28819e-09 -5.15297e-11 9.34076e-07 -1.12717e-24 9.34076e-07)
(9.34076e-07 -6.28819e-09 -5.15297e-11 9.34076e-07 4.3432e-27 9.34076e-07)
(1.76336e-06 -1.73908e-08 -1.45171e-10 1.76336e-06 -3.25754e-24 1.76336e-06)
(1.76336e-06 -1.73908e-08 -1.45171e-10 1.76336e-06 1.13074e-26 1.76336e-06)
(3.03682e-06 -4.15567e-08 -3.53373e-10 3.03682e-06 -8.01569e-24 3.03682e-06)
(3.03682e-06 -4.15567e-08 -3.53373e-10 3.03682e-06 2.51627e-26 3.03682e-06)
(4.88582e-06 -8.90854e-08 -7.71663e-10 4.88582e-06 -1.76165e-23 4.88582e-06)
(4.88582e-06 -8.90854e-08 -7.71663e-10 4.88582e-06 6.06134e-26 4.88582e-06)
(7.46e-06 -1.75648e-07 -1.54986e-09 7.46e-06 -3.5645e-23 7.46e-06)
(7.46e-06 -1.75648e-07 -1.54986e-09 7.46e-06 1.3834e-25 7.46e-06)
(1.09285e-05 -3.24085e-07 -2.91295e-09 1.09285e-05 -6.74763e-23 1.09285e-05)
(1.09285e-05 -3.24085e-07 -2.91295e-09 1.09285e-05 2.60745e-25 1.09285e-05)
(1.5481e-05 -5.66556e-07 -5.18728e-09 1.5481e-05 -1.20956e-22 1.5481e-05)
(1.5481e-05 -5.66556e-07 -5.18728e-09 1.5481e-05 4.51332e-25 1.5481e-05)
(2.13294e-05 -9.47083e-07 -8.83291e-09 2.13294e-05 -2.07184e-22 2.13294e-05)
(2.13294e-05 -9.47083e-07 -8.83291e-09 2.13294e-05 7.44684e-25 2.13294e-05)
(2.87085e-05 -1.52448e-06 -1.44827e-08 2.87085e-05 -3.41265e-22 2.87085e-05)
(2.87085e-05 -1.52448e-06 -1.44827e-08 2.87085e-05 1.1808e-24 2.87085e-05)
(3.78772e-05 -2.37564e-06 -2.29889e-08 3.78772e-05 -5.43518e-22 3.78772e-05)
(3.78772e-05 -2.37564e-06 -2.29889e-08 3.78772e-05 1.76342e-24 3.78772e-05)
(4.91192e-05 -3.5992e-06 -3.54767e-08 4.91192e-05 -8.40747e-22 4.91192e-05)
(4.91192e-05 -3.5992e-06 -3.54767e-08 4.91192e-05 2.66919e-24 4.91192e-05)
(6.27432e-05 -5.31929e-06 -5.34047e-08 6.27432e-05 -1.26848e-21 6.27432e-05)
(6.27432e-05 -5.31929e-06 -5.34047e-08 6.27432e-05 3.86009e-24 6.27432e-05)
(7.90824e-05 -7.68943e-06 -7.86314e-08 7.90824e-05 -1.86946e-21 7.90824e-05)
(7.90824e-05 -7.68943e-06 -7.86314e-08 7.90824e-05 4.74612e-24 7.90824e-05)
(9.84939e-05 -1.08961e-05 -1.13484e-07 9.84939e-05 -2.69461e-21 9.84939e-05)
(9.84939e-05 -1.08961e-05 -1.13484e-07 9.84939e-05 6.53216e-24 9.84939e-05)
(0.000121356 -1.51617e-05 -1.60825e-07 0.000121356 -3.80917e-21 0.000121356)
(0.000121356 -1.51617e-05 -1.60825e-07 0.000121356 1.03076e-23 0.000121356)
(0.000148064 -2.07465e-05 -2.24115e-07 0.000148064 -5.28274e-21 0.000148064)
(0.000148064 -2.07465e-05 -2.24115e-07 0.000148064 1.39813e-23 0.000148064)
(0.000179027 -2.79486e-05 -3.07457e-07 0.000179027 -7.19235e-21 0.000179027)
(0.000179027 -2.79486e-05 -3.07457e-07 0.000179027 2.03329e-23 0.000179027)
(0.000214661 -3.71022e-05 -4.15618e-07 0.000214661 -9.62283e-21 0.000214661)
(0.000214661 -3.71022e-05 -4.15618e-07 0.000214661 3.34035e-23 0.000214661)
(0.000255376 -4.85723e-05 -5.54018e-07 0.000255376 -1.26551e-20 0.000255376)
(0.000255376 -4.85723e-05 -5.54018e-07 0.000255376 4.90735e-23 0.000255376)
(0.000301572 -6.27465e-05 -7.28672e-07 0.000301572 -1.6354e-20 0.000301572)
(0.000301572 -6.27465e-05 -7.28672e-07 0.000301572 6.03019e-23 0.000301572)
(0.00035362 -8.00226e-05 -9.46082e-07 0.00035362 -2.0782e-20 0.00035362)
(0.00035362 -8.00226e-05 -9.46082e-07 0.00035362 7.45947e-23 0.00035362)
(0.000411852 -0.000100793 -1.21307e-06 0.000411852 -2.59818e-20 0.000411852)
(0.000411852 -0.000100793 -1.21307e-06 0.000411852 1.08316e-22 0.000411852)
(0.000476543 -0.000125424 -1.53653e-06 0.000476543 -3.19158e-20 0.000476543)
(0.000476543 -0.000125424 -1.53653e-06 0.000476543 1.51876e-22 0.000476543)
(0.000547897 -0.000154239 -1.9232e-06 0.000547897 -3.849e-20 0.000547897)
(0.000547897 -0.000154239 -1.9232e-06 0.000547897 2.01214e-22 0.000547897)
(0.00062603 -0.00018749 -2.37931e-06 0.00062603 -4.56584e-20 0.00062603)
(0.00062603 -0.00018749 -2.37931e-06 0.00062603 2.82183e-22 0.00062603)
(0.000710959 -0.000225343 -2.91029e-06 0.000710959 -5.32655e-20 0.000710959)
(0.000710959 -0.000225343 -2.91029e-06 0.000710959 3.44975e-22 0.000710959)
(0.000802592 -0.000267858 -3.52043e-06 0.000802592 -6.11179e-20 0.000802592)
(0.000802592 -0.000267858 -3.52043e-06 0.000802592 3.42379e-22 0.000802592)
(0.000900722 -0.000314981 -4.21272e-06 0.000900722 -6.89197e-20 0.000900722)
(0.000900722 -0.000314981 -4.21272e-06 0.000900722 3.9139e-22 0.000900722)
(0.00100503 -0.000366537 -4.98857e-06 0.00100503 -7.65107e-20 0.00100503)
(0.00100503 -0.000366537 -4.98857e-06 0.00100503 6.80172e-22 0.00100503)
(0.00111507 -0.000422234 -5.84785e-06 0.00111507 -8.36166e-20 0.00111507)
(0.00111507 -0.000422234 -5.84785e-06 0.00111507 7.15038e-22 0.00111507)
(0.00123032 -0.000481678 -6.78881e-06 0.00123032 -9.0052e-20 0.00123032)
(0.00123032 -0.000481678 -6.78881e-06 0.00123032 8.41353e-22 0.00123032)
(0.00135017 -0.000544389 -7.8083e-06 0.00135017 -9.5905e-20 0.00135017)
(0.00135017 -0.000544389 -7.8083e-06 0.00135017 1.26681e-21 0.00135017)
(0.00147393 -0.000609823 -8.90191e-06 0.00147393 -1.0115e-19 0.00147393)
(0.00147393 -0.000609823 -8.90191e-06 0.00147393 1.43789e-21 0.00147393)
(0.00160087 -0.000677395 -1.00643e-05 0.00160087 -1.05554e-19 0.00160087)
(0.00160087 -0.000677395 -1.00643e-05 0.00160087 1.72015e-21 0.00160087)
(0.00173024 -0.000746511 -1.12893e-05 0.00173024 -1.08941e-19 0.00173024)
(0.00173024 -0.000746511 -1.12893e-05 0.00173024 1.73488e-21 0.00173024)
(0.00186129 -0.000816583 -1.25706e-05 0.00186129 -1.11987e-19 0.00186129)
(0.00186129 -0.000816583 -1.25706e-05 0.00186129 1.7395e-21 0.00186129)
(0.00199329 -0.00088705 -1.39015e-05 0.00199329 -1.15287e-19 0.00199329)
(0.00199329 -0.00088705 -1.39015e-05 0.00199329 2.99876e-21 0.00199329)
(0.00212554 -0.000957398 -1.52756e-05 0.00212554 -1.17592e-19 0.00212554)
(0.00212554 -0.000957398 -1.52756e-05 0.00212554 4.18101e-21 0.00212554)
(0.00225738 -0.00102716 -1.66868e-05 0.00225738 -1.2052e-19 0.00225738)
(0.00225738 -0.00102716 -1.66868e-05 0.00225738 4.32202e-21 0.00225738)
(0.00238822 -0.00109594 -1.81294e-05 0.00238822 -1.22684e-19 0.00238822)
(0.00238822 -0.00109594 -1.81294e-05 0.00238822 4.21162e-21 0.00238822)
(0.00251753 -0.0011634 -1.95982e-05 0.00251753 -1.26402e-19 0.00251753)
(0.00251753 -0.0011634 -1.95982e-05 0.00251753 4.22249e-21 0.00251753)
(0.00264483 -0.00122925 -2.10886e-05 0.00264483 -1.31711e-19 0.00264483)
(0.00264483 -0.00122925 -2.10886e-05 0.00264483 5.06996e-21 0.00264483)
(0.00276972 -0.00129327 -2.25966e-05 0.00276972 -1.38392e-19 0.00276972)
(0.00276972 -0.00129327 -2.25966e-05 0.00276972 4.32721e-21 0.00276972)
(0.00289187 -0.00135529 -2.4119e-05 0.00289187 -1.45562e-19 0.00289187)
(0.00289187 -0.00135529 -2.4119e-05 0.00289187 3.84725e-21 0.00289187)
(0.00301101 -0.0014152 -2.56529e-05 0.00301101 -1.5622e-19 0.00301101)
(0.00301101 -0.0014152 -2.56529e-05 0.00301101 5.99418e-21 0.00301101)
(0.00312691 -0.00147291 -2.71961e-05 0.00312691 -1.66376e-19 0.00312691)
(0.00312691 -0.00147291 -2.71961e-05 0.00312691 7.47079e-21 0.00312691)
(0.00323941 -0.00152838 -2.87468e-05 0.00323941 -1.7705e-19 0.00323941)
(0.00323941 -0.00152838 -2.87468e-05 0.00323941 6.50528e-21 0.00323941)
(0.0033484 -0.00158159 -3.03036e-05 0.0033484 -1.8994e-19 0.0033484)
(0.0033484 -0.00158159 -3.03036e-05 0.0033484 7.26717e-21 0.0033484)
(0.00345379 -0.00163255 -3.18656e-05 0.00345379 -2.03823e-19 0.00345379)
(0.00345379 -0.00163255 -3.18656e-05 0.00345379 9.77573e-21 0.00345379)
(0.00355555 -0.00168129 -3.34322e-05 0.00355555 -2.20189e-19 0.00355555)
(0.00355555 -0.00168129 -3.34322e-05 0.00355555 1.21226e-20 0.00355555)
(0.00365367 -0.00172785 -3.50029e-05 0.00365367 -2.40121e-19 0.00365367)
(0.00365367 -0.00172785 -3.50029e-05 0.00365367 1.67165e-20 0.00365367)
(0.00374816 -0.0017723 -3.65777e-05 0.00374816 -2.62991e-19 0.00374816)
(0.00374816 -0.0017723 -3.65777e-05 0.00374816 1.75773e-20 0.00374816)
(0.00383906 -0.00181468 -3.81566e-05 0.00383906 -2.80696e-19 0.00383906)
(0.00383906 -0.00181468 -3.81566e-05 0.00383906 1.75646e-20 0.00383906)
(0.00392642 -0.00185508 -3.97399e-05 0.00392642 -3.02075e-19 0.00392642)
(0.00392642 -0.00185508 -3.97399e-05 0.00392642 2.16925e-20 0.00392642)
(0.00401032 -0.00189357 -4.13279e-05 0.00401032 -3.22633e-19 0.00401032)
(0.00401032 -0.00189357 -4.13279e-05 0.00401032 2.62983e-20 0.00401032)
(0.00409083 -0.00193022 -4.29211e-05 0.00409083 -3.43322e-19 0.00409083)
(0.00409083 -0.00193022 -4.29211e-05 0.00409083 2.90795e-20 0.00409083)
(0.00416805 -0.00196512 -4.45201e-05 0.00416805 -3.74679e-19 0.00416805)
(0.00416805 -0.00196512 -4.45201e-05 0.00416805 2.67828e-20 0.00416805)
(0.00424207 -0.00199833 -4.61254e-05 0.00424207 -4.1383e-19 0.00424207)
(0.00424207 -0.00199833 -4.61254e-05 0.00424207 2.77537e-20 0.00424207)
(0.00431299 -0.00202993 -4.77379e-05 0.00431299 -4.42761e-19 0.00431299)
(0.00431299 -0.00202993 -4.77379e-05 0.00431299 4.24234e-20 0.00431299)
(0.00438092 -0.00206 -4.93581e-05 0.00438092 -4.63249e-19 0.00438092)
(0.00438092 -0.00206 -4.93581e-05 0.00438092 5.09028e-20 0.00438092)
(0.00444595 -0.00208862 -5.0987e-05 0.00444595 -4.89457e-19 0.00444595)
(0.00444595 -0.00208862 -5.0987e-05 0.00444595 5.00083e-20 0.00444595)
(0.00450819 -0.00211585 -5.26251e-05 0.00450819 -5.30177e-19 0.00450819)
(0.00450819 -0.00211585 -5.26251e-05 0.00450819 7.77694e-20 0.00450819)
(0.00456775 -0.00214175 -5.42734e-05 0.00456775 -5.66731e-19 0.00456775)
(0.00456775 -0.00214175 -5.42734e-05 0.00456775 7.14881e-20 0.00456775)
(0.00462473 -0.0021664 -5.59327e-05 0.00462473 -5.97606e-19 0.00462473)
(0.00462473 -0.0021664 -5.59327e-05 0.00462473 8.1441e-20 0.00462473)
(0.00467922 -0.00218985 -5.76037e-05 0.00467922 -6.41512e-19 0.00467922)
(0.00467922 -0.00218985 -5.76037e-05 0.00467922 8.05897e-20 0.00467922)
(0.00473133 -0.00221217 -5.92872e-05 0.00473133 -7.09516e-19 0.00473133)
(0.00473133 -0.00221217 -5.92872e-05 0.00473133 1.04387e-19 0.00473133)
(0.00478115 -0.0022334 -6.09841e-05 0.00478115 -7.78593e-19 0.00478115)
(0.00478115 -0.0022334 -6.09841e-05 0.00478115 1.28708e-19 0.00478115)
(0.00482878 -0.00225361 -6.26952e-05 0.00482878 -8.29225e-19 0.00482878)
(0.00482878 -0.00225361 -6.26952e-05 0.00482878 1.29712e-19 0.00482878)
(0.0048743 -0.00227284 -6.44211e-05 0.0048743 -8.72676e-19 0.0048743)
(0.0048743 -0.00227284 -6.44211e-05 0.0048743 1.44506e-19 0.0048743)
(0.0049178 -0.00229114 -6.61628e-05 0.0049178 -9.07809e-19 0.0049178)
(0.0049178 -0.00229114 -6.61628e-05 0.0049178 1.61272e-19 0.0049178)
(0.00495936 -0.00230855 -6.7921e-05 0.00495936 -9.61517e-19 0.00495936)
(0.00495936 -0.00230855 -6.7921e-05 0.00495936 1.7173e-19 0.00495936)
(0.00499907 -0.00232512 -6.96965e-05 0.00499907 -1.00987e-18 0.00499907)
(0.00499907 -0.00232512 -6.96965e-05 0.00499907 1.78053e-19 0.00499907)
(0.00503699 -0.00234088 -7.149e-05 0.00503699 -1.05444e-18 0.00503699)
(0.00503699 -0.00234088 -7.149e-05 0.00503699 2.1308e-19 0.00503699)
(0.0050732 -0.00235588 -7.33022e-05 0.0050732 -1.11722e-18 0.0050732)
(0.0050732 -0.00235588 -7.33022e-05 0.0050732 2.5984e-19 0.0050732)
(0.00510777 -0.00237015 -7.5134e-05 0.00510777 -1.18042e-18 0.00510777)
(0.00510777 -0.00237015 -7.5134e-05 0.00510777 2.7929e-19 0.00510777)
(0.00514077 -0.00238372 -7.69859e-05 0.00514077 -1.24606e-18 0.00514077)
(0.00514077 -0.00238372 -7.69859e-05 0.00514077 3.00253e-19 0.00514077)
(0.00517226 -0.00239663 -7.88588e-05 0.00517226 -1.2906e-18 0.00517226)
(0.00517226 -0.00239663 -7.88588e-05 0.00517226 3.07971e-19 0.00517226)
(0.0052023 -0.0024089 -8.07534e-05 0.0052023 -1.32875e-18 0.0052023)
(0.0052023 -0.0024089 -8.07534e-05 0.0052023 3.48124e-19 0.0052023)
(0.00523094 -0.00242056 -8.26703e-05 0.00523094 -1.4034e-18 0.00523094)
(0.00523094 -0.00242056 -8.26703e-05 0.00523094 3.91791e-19 0.00523094)
(0.00525825 -0.00243164 -8.46103e-05 0.00525825 -1.47222e-18 0.00525825)
(0.00525825 -0.00243164 -8.46103e-05 0.00525825 3.88961e-19 0.00525825)
(0.00528427 -0.00244216 -8.6574e-05 0.00528427 -1.5373e-18 0.00528427)
(0.00528427 -0.00244216 -8.6574e-05 0.00528427 4.0733e-19 0.00528427)
(0.00530905 -0.00245216 -8.85621e-05 0.00530905 -1.61236e-18 0.00530905)
(0.00530905 -0.00245216 -8.85621e-05 0.00530905 4.71597e-19 0.00530905)
(0.00533264 -0.00246164 -9.05752e-05 0.00533264 -1.68156e-18 0.00533264)
(0.00533264 -0.00246164 -9.05752e-05 0.00533264 4.89333e-19 0.00533264)
(0.00535509 -0.00247062 -9.26141e-05 0.00535509 -1.7301e-18 0.00535509)
(0.00535509 -0.00247062 -9.26141e-05 0.00535509 4.64027e-19 0.00535509)
(0.00537643 -0.00247914 -9.46794e-05 0.00537643 -1.8151e-18 0.00537643)
(0.00537643 -0.00247914 -9.46794e-05 0.00537643 4.94362e-19 0.00537643)
(0.0053967 -0.00248721 -9.67717e-05 0.0053967 -1.91793e-18 0.0053967)
(0.0053967 -0.00248721 -9.67717e-05 0.0053967 5.29524e-19 0.0053967)
(0.00541595 -0.00249484 -9.88917e-05 0.00541595 -2.01047e-18 0.00541595)
(0.00541595 -0.00249484 -9.88917e-05 0.00541595 5.291e-19 0.00541595)
(0.00543421 -0.00250205 -0.00010104 0.00543421 -2.10695e-18 0.00543421)
(0.00543421 -0.00250205 -0.00010104 0.00543421 5.92012e-19 0.00543421)
(0.00545152 -0.00250885 -0.000103217 0.00545152 -2.19554e-18 0.00545152)
(0.00545152 -0.00250885 -0.000103217 0.00545152 6.72246e-19 0.00545152)
(0.0054679 -0.00251527 -0.000105424 0.0054679 -2.31098e-18 0.0054679)
(0.0054679 -0.00251527 -0.000105424 0.0054679 6.89705e-19 0.0054679)
(0.00548338 -0.00252131 -0.000107661 0.00548338 -2.39296e-18 0.00548338)
(0.00548338 -0.00252131 -0.000107661 0.00548338 7.12114e-19 0.00548338)
(0.00549801 -0.00252699 -0.000109928 0.00549801 -2.43906e-18 0.00549801)
(0.00549801 -0.00252699 -0.000109928 0.00549801 7.80723e-19 0.00549801)
(0.00551179 -0.00253232 -0.000112227 0.00551179 -2.55122e-18 0.00551179)
(0.00551179 -0.00253232 -0.000112227 0.00551179 8.6033e-19 0.00551179)
(0.00552477 -0.00253731 -0.000114559 0.00552477 -2.59296e-18 0.00552477)
(0.00552477 -0.00253731 -0.000114559 0.00552477 8.3492e-19 0.00552477)
(0.00553696 -0.00254197 -0.000116922 0.00553696 -2.68899e-18 0.00553696)
(0.00553696 -0.00254197 -0.000116922 0.00553696 9.32184e-19 0.00553696)
(0.00554839 -0.00254631 -0.000119319 0.00554839 -2.8384e-18 0.00554839)
(0.00554839 -0.00254631 -0.000119319 0.00554839 9.29909e-19 0.00554839)
(0.00555909 -0.00255034 -0.000121749 0.00555909 -2.82546e-18 0.00555909)
(0.00555909 -0.00255034 -0.000121749 0.00555909 1.0004e-18 0.00555909)
(0.00556906 -0.00255407 -0.000124214 0.00556906 -2.87066e-18 0.00556906)
(0.00556906 -0.00255407 -0.000124214 0.00556906 1.20617e-18 0.00556906)
(0.00557833 -0.00255751 -0.000126714 0.00557833 -3.01145e-18 0.00557833)
(0.00557833 -0.00255751 -0.000126714 0.00557833 1.33473e-18 0.00557833)
(0.00558693 -0.00256067 -0.000129249 0.00558693 -3.16054e-18 0.00558693)
(0.00558693 -0.00256067 -0.000129249 0.00558693 1.37778e-18 0.00558693)
(0.00559486 -0.00256355 -0.000131821 0.00559486 -3.36208e-18 0.00559486)
(0.00559486 -0.00256355 -0.000131821 0.00559486 1.63084e-18 0.00559486)
(0.00560215 -0.00256616 -0.000134428 0.00560215 -3.47538e-18 0.00560215)
(0.00560215 -0.00256616 -0.000134428 0.00560215 1.57619e-18 0.00560215)
(0.0056088 -0.0025685 -0.000137073 0.0056088 -3.5478e-18 0.0056088)
(0.0056088 -0.0025685 -0.000137073 0.0056088 1.80062e-18 0.0056088)
(0.00561485 -0.00257059 -0.000139756 0.00561485 -3.79398e-18 0.00561485)
(0.00561485 -0.00257059 -0.000139756 0.00561485 1.94313e-18 0.00561485)
(0.00562029 -0.00257243 -0.000142477 0.00562029 -3.61219e-18 0.00562029)
(0.00562029 -0.00257243 -0.000142477 0.00562029 2.05609e-18 0.00562029)
(0.00562515 -0.00257402 -0.000145237 0.00562515 -3.82998e-18 0.00562515)
(0.00562515 -0.00257402 -0.000145237 0.00562515 1.95444e-18 0.00562515)
(0.00562943 -0.00257537 -0.000148036 0.00562943 -4.02854e-18 0.00562943)
(0.00562943 -0.00257537 -0.000148036 0.00562943 2.06312e-18 0.00562943)
(0.00563315 -0.00257648 -0.000150874 0.00563315 -4.2316e-18 0.00563315)
(0.00563315 -0.00257648 -0.000150874 0.00563315 2.14875e-18 0.00563315)
(0.00563633 -0.00257736 -0.000153753 0.00563633 -4.04368e-18 0.00563633)
(0.00563633 -0.00257736 -0.000153753 0.00563633 2.36374e-18 0.00563633)
(0.00563896 -0.00257801 -0.000156673 0.00563896 -4.3679e-18 0.00563896)
(0.00563896 -0.00257801 -0.000156673 0.00563896 2.55214e-18 0.00563896)
(0.00564106 -0.00257844 -0.000159634 0.00564106 -4.41821e-18 0.00564106)
(0.00564106 -0.00257844 -0.000159634 0.00564106 2.59955e-18 0.00564106)
(0.00564264 -0.00257865 -0.000162637 0.00564264 -4.79947e-18 0.00564264)
(0.00564264 -0.00257865 -0.000162637 0.00564264 2.56293e-18 0.00564264)
(0.0056437 -0.00257864 -0.000165682 0.0056437 -4.92135e-18 0.0056437)
(0.0056437 -0.00257864 -0.000165682 0.0056437 3.0397e-18 0.0056437)
(0.00564427 -0.00257841 -0.00016877 0.00564427 -5.02971e-18 0.00564427)
(0.00564427 -0.00257841 -0.00016877 0.00564427 3.14097e-18 0.00564427)
(0.00564433 -0.00257798 -0.000171901 0.00564433 -5.10413e-18 0.00564433)
(0.00564433 -0.00257798 -0.000171901 0.00564433 3.10149e-18 0.00564433)
(0.00564391 -0.00257733 -0.000175076 0.00564391 -5.27297e-18 0.00564391)
(0.00564391 -0.00257733 -0.000175076 0.00564391 3.00249e-18 0.00564391)
(0.00564301 -0.00257648 -0.000178295 0.00564301 -5.52443e-18 0.00564301)
(0.00564301 -0.00257648 -0.000178295 0.00564301 3.41842e-18 0.00564301)
(0.00564162 -0.00257542 -0.000181558 0.00564162 -5.63811e-18 0.00564162)
(0.00564162 -0.00257542 -0.000181558 0.00564162 3.56116e-18 0.00564162)
(0.00563977 -0.00257416 -0.000184866 0.00563977 -5.69475e-18 0.00563977)
(0.00563977 -0.00257416 -0.000184866 0.00563977 3.52751e-18 0.00563977)
(0.00563746 -0.0025727 -0.00018822 0.00563746 -5.97013e-18 0.00563746)
(0.00563746 -0.0025727 -0.00018822 0.00563746 3.59837e-18 0.00563746)
(0.00563468 -0.00257103 -0.000191618 0.00563468 -6.25492e-18 0.00563468)
(0.00563468 -0.00257103 -0.000191618 0.00563468 4.06438e-18 0.00563468)
(0.00563145 -0.00256917 -0.000195063 0.00563145 -6.36706e-18 0.00563145)
(0.00563145 -0.00256917 -0.000195063 0.00563145 4.46528e-18 0.00563145)
(0.00562776 -0.00256711 -0.000198555 0.00562776 -6.6639e-18 0.00562776)
(0.00562776 -0.00256711 -0.000198555 0.00562776 4.81561e-18 0.00562776)
(0.00562363 -0.00256486 -0.000202092 0.00562363 -6.78665e-18 0.00562363)
(0.00562363 -0.00256486 -0.000202092 0.00562363 5.12435e-18 0.00562363)
(0.00561905 -0.00256241 -0.000205677 0.00561905 -6.63468e-18 0.00561905)
(0.00561905 -0.00256241 -0.000205677 0.00561905 4.92921e-18 0.00561905)
(0.00561404 -0.00255976 -0.000209309 0.00561404 -6.82883e-18 0.00561404)
(0.00561404 -0.00255976 -0.000209309 0.00561404 5.04065e-18 0.00561404)
(0.00560858 -0.00255692 -0.000212988 0.00560858 -6.89755e-18 0.00560858)
(0.00560858 -0.00255692 -0.000212988 0.00560858 5.69154e-18 0.00560858)
(0.00560269 -0.00255388 -0.000216715 0.00560269 -7.00942e-18 0.00560269)
(0.00560269 -0.00255388 -0.000216715 0.00560269 6.29694e-18 0.00560269)
(0.00559636 -0.00255065 -0.00022049 0.00559636 -5.50409e-18 0.00559636)
(0.00559636 -0.00255065 -0.00022049 0.00559636 6.17919e-18 0.00559636)
(0.0055896 -0.00254723 -0.000224313 0.0055896 1.29229e-18 0.0055896)
(0.0055896 -0.00254723 -0.000224313 0.0055896 6.17046e-18 0.0055896)
(0.00558241 -0.00254361 -0.000228184 0.00558241 4.88952e-18 0.00558241)
(0.00558241 -0.00254361 -0.000228184 0.00558241 6.74253e-18 0.00558241)
(0.00557479 -0.0025398 -0.000232104 0.00557479 5.35385e-18 0.00557479)
(0.00557479 -0.0025398 -0.000232104 0.00557479 7.11954e-18 0.00557479)
(0.00556675 -0.00253579 -0.000236072 0.00556675 5.82238e-18 0.00556675)
(0.00556675 -0.00253579 -0.000236072 0.00556675 7.51263e-18 0.00556675)
(0.00555827 -0.00253158 -0.000240088 0.00555827 6.61642e-18 0.00555827)
(0.00555827 -0.00253158 -0.000240088 0.00555827 8.07685e-18 0.00555827)
(0.00554937 -0.00252719 -0.000244153 0.00554937 7.50073e-18 0.00554937)
(0.00554937 -0.00252719 -0.000244153 0.00554937 8.30547e-18 0.00554937)
(0.00554004 -0.00252259 -0.000248266 0.00554004 7.41779e-18 0.00554004)
(0.00554004 -0.00252259 -0.000248266 0.00554004 7.55594e-18 0.00554004)
(0.00553029 -0.0025178 -0.000252428 0.00553029 6.88727e-18 0.00553029)
(0.00553029 -0.0025178 -0.000252428 0.00553029 1.0063e-17 0.00553029)
(0.00552011 -0.00251281 -0.000256638 0.00552011 6.64399e-18 0.00552011)
(0.00552011 -0.00251281 -0.000256638 0.00552011 1.12343e-17 0.00552011)
(0.0055095 -0.00250762 -0.000260896 0.0055095 7.30794e-18 0.0055095)
(0.0055095 -0.00250762 -0.000260896 0.0055095 1.1032e-17 0.0055095)
(0.00549846 -0.00250223 -0.000265202 0.00549846 7.06028e-18 0.00549846)
(0.00549846 -0.00250223 -0.000265202 0.00549846 1.14374e-17 0.00549846)
(0.00548699 -0.00249663 -0.000269556 0.00548699 6.52749e-18 0.00548699)
(0.00548699 -0.00249663 -0.000269556 0.00548699 1.19044e-17 0.00548699)
(0.0054751 -0.00249084 -0.000273958 0.0054751 7.71938e-18 0.0054751)
(0.0054751 -0.00249084 -0.000273958 0.0054751 1.27808e-17 0.0054751)
(0.00546277 -0.00248484 -0.000278406 0.00546277 7.53543e-18 0.00546277)
(0.00546277 -0.00248484 -0.000278406 0.00546277 1.37672e-17 0.00546277)
(0.00545001 -0.00247863 -0.000282902 0.00545001 5.76973e-18 0.00545001)
(0.00545001 -0.00247863 -0.000282902 0.00545001 1.43436e-17 0.00545001)
(0.00543681 -0.00247222 -0.000287443 0.00543681 3.83478e-18 0.00543681)
(0.00543681 -0.00247222 -0.000287443 0.00543681 1.45594e-17 0.00543681)
(0.00542318 -0.00246559 -0.000292031 0.00542318 3.40241e-18 0.00542318)
(0.00542318 -0.00246559 -0.000292031 0.00542318 1.56029e-17 0.00542318)
(0.00540911 -0.00245876 -0.000296664 0.00540911 2.71563e-18 0.00540911)
(0.00540911 -0.00245876 -0.000296664 0.00540911 1.72371e-17 0.00540911)
(0.0053946 -0.00245171 -0.000301341 0.0053946 2.46013e-18 0.0053946)
(0.0053946 -0.00245171 -0.000301341 0.0053946 2.01539e-17 0.0053946)
(0.00537964 -0.00244444 -0.000306062 0.00537964 6.25324e-18 0.00537964)
(0.00537964 -0.00244444 -0.000306062 0.00537964 2.20869e-17 0.00537964)
(0.00536424 -0.00243696 -0.000310827 0.00536424 5.35123e-18 0.00536424)
(0.00536424 -0.00243696 -0.000310827 0.00536424 2.16482e-17 0.00536424)
(0.00534839 -0.00242925 -0.000315633 0.00534839 5.10891e-18 0.00534839)
(0.00534839 -0.00242925 -0.000315633 0.00534839 2.17987e-17 0.00534839)
(0.00533208 -0.00242133 -0.000320481 0.00533208 4.49575e-18 0.00533208)
(0.00533208 -0.00242133 -0.000320481 0.00533208 2.25586e-17 0.00533208)
(0.00531532 -0.00241318 -0.000325369 0.00531532 3.85587e-18 0.00531532)
(0.00531532 -0.00241318 -0.000325369 0.00531532 2.42298e-17 0.00531532)
(0.0052981 -0.0024048 -0.000330297 0.0052981 3.20612e-18 0.0052981)
(0.0052981 -0.0024048 -0.000330297 0.0052981 2.54028e-17 0.0052981)
(0.00528042 -0.00239619 -0.000335262 0.00528042 3.74863e-18 0.00528042)
(0.00528042 -0.00239619 -0.000335262 0.00528042 1.96106e-17 0.00528042)
(0.00526228 -0.00238735 -0.000340264 0.00526228 5.96358e-18 0.00526228)
(0.00526228 -0.00238735 -0.000340264 0.00526228 1.34169e-17 0.00526228)
(0.00524366 -0.00237827 -0.000345302 0.00524366 4.97904e-18 0.00524366)
(0.00524366 -0.00237827 -0.000345302 0.00524366 1.33819e-17 0.00524366)
(0.00522457 -0.00236895 -0.000350373 0.00522457 2.40382e-18 0.00522457)
(0.00522457 -0.00236895 -0.000350373 0.00522457 1.4753e-17 0.00522457)
(0.005205 -0.0023594 -0.000355476 0.005205 3.48502e-18 0.005205)
(0.005205 -0.0023594 -0.000355476 0.005205 1.51112e-17 0.005205)
(0.00518495 -0.00234959 -0.000360609 0.00518495 2.7661e-18 0.00518495)
(0.00518495 -0.00234959 -0.000360609 0.00518495 1.29527e-17 0.00518495)
(0.00516441 -0.00233954 -0.000365771 0.00516441 8.97273e-19 0.00516441)
(0.00516441 -0.00233954 -0.000365771 0.00516441 9.32315e-18 0.00516441)
(0.00514338 -0.00232924 -0.00037096 0.00514338 2.3767e-18 0.00514338)
(0.00514338 -0.00232924 -0.00037096 0.00514338 9.62115e-18 0.00514338)
(0.00512185 -0.00231868 -0.000376173 0.00512185 6.03028e-18 0.00512185)
(0.00512185 -0.00231868 -0.000376173 0.00512185 1.50456e-17 0.00512185)
(0.00509982 -0.00230786 -0.000381408 0.00509982 4.57003e-18 0.00509982)
(0.00509982 -0.00230786 -0.000381408 0.00509982 1.79935e-17 0.00509982)
(0.00507728 -0.00229678 -0.000386663 0.00507728 3.22666e-18 0.00507728)
(0.00507728 -0.00229678 -0.000386663 0.00507728 1.68917e-17 0.00507728)
(0.00505424 -0.00228544 -0.000391935 0.00505424 4.24079e-18 0.00505424)
(0.00505424 -0.00228544 -0.000391935 0.00505424 1.83299e-17 0.00505424)
(0.00503067 -0.00227382 -0.000397221 0.00503067 4.21772e-18 0.00503067)
(0.00503067 -0.00227382 -0.000397221 0.00503067 1.83412e-17 0.00503067)
(0.00500658 -0.00226193 -0.000402519 0.00500658 3.72485e-18 0.00500658)
(0.00500658 -0.00226193 -0.000402519 0.00500658 1.88626e-17 0.00500658)
(0.00498196 -0.00224977 -0.000407826 0.00498196 4.27722e-18 0.00498196)
(0.00498196 -0.00224977 -0.000407826 0.00498196 2.11597e-17 0.00498196)
(0.0049568 -0.00223732 -0.000413137 0.0049568 6.63289e-18 0.0049568)
(0.0049568 -0.00223732 -0.000413137 0.0049568 2.10869e-17 0.0049568)
(0.0049311 -0.00222458 -0.000418451 0.0049311 4.16621e-18 0.0049311)
(0.0049311 -0.00222458 -0.000418451 0.0049311 2.03883e-17 0.0049311)
(0.00490485 -0.00221156 -0.000423762 0.00490485 2.44696e-18 0.00490485)
(0.00490485 -0.00221156 -0.000423762 0.00490485 2.17164e-17 0.00490485)
(0.00487805 -0.00219824 -0.000429068 0.00487805 3.06139e-18 0.00487805)
(0.00487805 -0.00219824 -0.000429068 0.00487805 2.33587e-17 0.00487805)
(0.00485069 -0.00218462 -0.000434364 0.00485069 5.31056e-19 0.00485069)
(0.00485069 -0.00218462 -0.000434364 0.00485069 2.15566e-17 0.00485069)
(0.00482277 -0.0021707 -0.000439646 0.00482277 4.14876e-18 0.00482277)
(0.00482277 -0.0021707 -0.000439646 0.00482277 2.16566e-17 0.00482277)
(0.00479426 -0.00215647 -0.000444909 0.00479426 5.20889e-18 0.00479426)
(0.00479426 -0.00215647 -0.000444909 0.00479426 2.49741e-17 0.00479426)
(0.00476518 -0.00214193 -0.00045015 0.00476518 -1.28301e-19 0.00476518)
(0.00476518 -0.00214193 -0.00045015 0.00476518 2.66722e-17 0.00476518)
(0.00473551 -0.00212706 -0.000455361 0.00473551 -2.93553e-18 0.00473551)
(0.00473551 -0.00212706 -0.000455361 0.00473551 3.22491e-17 0.00473551)
(0.00470524 -0.00211188 -0.000460539 0.00470524 3.1117e-18 0.00470524)
(0.00470524 -0.00211188 -0.000460539 0.00470524 2.57014e-17 0.00470524)
(0.00467437 -0.00209636 -0.000465678 0.00467437 2.34526e-18 0.00467437)
(0.00467437 -0.00209636 -0.000465678 0.00467437 2.15029e-17 0.00467437)
(0.00464289 -0.00208051 -0.000470772 0.00464289 2.66121e-18 0.00464289)
(0.00464289 -0.00208051 -0.000470772 0.00464289 2.70409e-17 0.00464289)
(0.00461079 -0.00206433 -0.000475815 0.00461079 2.03275e-18 0.00461079)
(0.00461079 -0.00206433 -0.000475815 0.00461079 2.22855e-17 0.00461079)
(0.00457807 -0.00204779 -0.000480799 0.00457807 6.7283e-18 0.00457807)
(0.00457807 -0.00204779 -0.000480799 0.00457807 1.25909e-17 0.00457807)
(0.00454472 -0.00203091 -0.00048572 0.00454472 5.20677e-18 0.00454472)
(0.00454472 -0.00203091 -0.00048572 0.00454472 2.38937e-18 0.00454472)
(0.00451072 -0.00201367 -0.000490568 0.00451072 4.25885e-18 0.00451072)
(0.00451072 -0.00201367 -0.000490568 0.00451072 -6.15894e-19 0.00451072)
(0.00447608 -0.00199607 -0.000495338 0.00447608 5.39812e-18 0.00447608)
(0.00447608 -0.00199607 -0.000495338 0.00447608 -2.63904e-19 0.00447608)
(0.00444079 -0.0019781 -0.00050002 0.00444079 3.01173e-18 0.00444079)
(0.00444079 -0.0019781 -0.00050002 0.00444079 1.13056e-17 0.00444079)
(0.00440483 -0.00195976 -0.000504607 0.00440483 -9.90302e-19 0.00440483)
(0.00440483 -0.00195976 -0.000504607 0.00440483 1.87385e-17 0.00440483)
(0.0043682 -0.00194104 -0.00050909 0.0043682 -4.99306e-19 0.0043682)
(0.0043682 -0.00194104 -0.00050909 0.0043682 1.74188e-17 0.0043682)
(0.00433089 -0.00192193 -0.00051346 0.00433089 -6.15547e-18 0.00433089)
(0.00433089 -0.00192193 -0.00051346 0.00433089 2.03349e-17 0.00433089)
(0.0042929 -0.00190243 -0.000517707 0.0042929 5.70913e-18 0.0042929)
(0.0042929 -0.00190243 -0.000517707 0.0042929 8.3175e-18 0.0042929)
(0.00425421 -0.00188252 -0.000521822 0.00425421 2.35916e-18 0.00425421)
(0.00425421 -0.00188252 -0.000521822 0.00425421 5.49475e-18 0.00425421)
(0.00421483 -0.00186222 -0.000525793 0.00421483 7.47406e-18 0.00421483)
(0.00421483 -0.00186222 -0.000525793 0.00421483 -6.50166e-18 0.00421483)
(0.00417474 -0.00184149 -0.00052961 0.00417474 1.14419e-17 0.00417474)
(0.00417474 -0.00184149 -0.00052961 0.00417474 -1.15297e-17 0.00417474)
(0.00413394 -0.00182035 -0.000533262 0.00413394 2.49292e-19 0.00413394)
(0.00413394 -0.00182035 -0.000533262 0.00413394 6.56952e-18 0.00413394)
(0.00409241 -0.00179878 -0.000536736 0.00409241 3.28369e-18 0.00409241)