/*--------------------------------*- C++ -*----------------------------------*\
| =========                 |                                                 |
| \\      /  F ield         | OpenFOAM: The Open Source CFD Toolbox           |
|  \\    /   O peration     | Version:  2106                                  |
|   \\  /    A nd           | Website:  www.openfoam.com                      |
|    \\/     M anipulation  |                                                 |
\*---------------------------------------------------------------------------*/
FoamFile
{
    version     2.0;
    format      ascii;
    arch        "LSB;label=32;scalar=64";
    class       volVectorField;
    location    "10100";
    object      U;
}
// * * * * * * * * * * * * * * * * * * * * * * * * * * * * * * * * * * * * * //

dimensions      [0 1 -1 0 0 0 0];

internalField   nonuniform List<vector> 
2000
(
(0.00324247 -8.27348e-16 -5.3003e-18)
(0.00324247 -2.22782e-19 3.29894e-33)
(0.0097867 -2.42485e-15 1.36082e-17)
(0.0097867 -2.0544e-20 -5.10152e-21)
(0.0164518 -2.45992e-15 1.42838e-17)
(0.0164518 -3.29652e-20 -8.18594e-21)
(0.0232401 -2.24723e-15 1.56507e-17)
(0.0232401 2.95726e-20 -1.2499e-20)
(0.0301536 -2.24657e-15 1.69637e-17)
(0.0301536 8.86775e-20 -1.79554e-20)
(0.0371949 -2.2615e-15 1.82499e-17)
(0.0371949 1.0637e-19 -2.41906e-20)
(0.044366 -2.2657e-15 1.95797e-17)
(0.044366 1.38157e-19 -3.06496e-20)
(0.0516695 -2.26628e-15 2.09711e-17)
(0.0516695 2.20125e-19 -3.72853e-20)
(0.0591077 -2.26646e-15 2.24265e-17)
(0.0591077 2.55802e-19 -4.43807e-20)
(0.0666829 -2.26689e-15 2.39478e-17)
(0.0666829 2.32701e-19 -5.3446e-20)
(0.0743975 -2.26733e-15 2.55374e-17)
(0.0743975 2.00791e-19 -6.33564e-20)
(0.0822538 -2.26772e-15 2.71971e-17)
(0.0822538 2.43305e-19 -7.38026e-20)
(0.0902542 -2.26804e-15 2.89288e-17)
(0.0902542 2.50579e-19 -8.52714e-20)
(0.0984007 -2.26827e-15 3.07341e-17)
(0.0984007 1.58782e-19 -9.69152e-20)
(0.106695 -2.26853e-15 3.26144e-17)
(0.106695 2.34998e-19 -1.09001e-19)
(0.11514 -2.26888e-15 3.45709e-17)
(0.11514 2.18943e-19 -1.21921e-19)
(0.123736 -2.26932e-15 3.66039e-17)
(0.123736 1.29378e-19 -1.35457e-19)
(0.132484 -2.26965e-15 3.87139e-17)
(0.132484 1.45244e-19 -1.49018e-19)
(0.141384 -2.26994e-15 4.09008e-17)
(0.141384 6.85058e-21 -1.62193e-19)
(0.150437 -2.27035e-15 4.31628e-17)
(0.150437 -2.24821e-19 -1.76582e-19)
(0.159641 -2.27072e-15 4.54957e-17)
(0.159641 -3.35809e-19 -1.91454e-19)
(0.168995 -2.27104e-15 4.78952e-17)
(0.168995 -5.20455e-19 -2.07304e-19)
(0.178493 -2.2714e-15 5.03552e-17)
(0.178493 -7.11984e-19 -2.25063e-19)
(0.188132 -2.27173e-15 5.28663e-17)
(0.188132 -7.78774e-19 -2.45613e-19)
(0.197906 -2.27199e-15 5.54189e-17)
(0.197906 -1.07349e-18 -2.67645e-19)
(0.207804 -2.27234e-15 5.80017e-17)
(0.207804 -1.45904e-18 -2.87238e-19)
(0.217819 -2.27272e-15 6.05989e-17)
(0.217819 -1.78597e-18 -3.07022e-19)
(0.227936 -2.27288e-15 6.31947e-17)
(0.227936 -2.16131e-18 -3.29512e-19)
(0.238142 -2.27299e-15 6.57726e-17)
(0.238142 -2.39425e-18 -3.52436e-19)
(0.248421 -2.27326e-15 6.83129e-17)
(0.248421 -2.7252e-18 -3.77988e-19)
(0.258754 -2.27352e-15 7.07982e-17)
(0.258754 -2.96584e-18 -4.05337e-19)
(0.269123 -2.27368e-15 7.32096e-17)
(0.269123 -3.2833e-18 -4.33047e-19)
(0.279506 -2.2736e-15 7.55325e-17)
(0.279506 -4.09722e-18 -4.57867e-19)
(0.289884 -2.27354e-15 7.77534e-17)
(0.289884 -4.85365e-18 -4.82915e-19)
(0.300233 -2.27344e-15 7.98596e-17)
(0.300233 -5.47238e-18 -5.17501e-19)
(0.310535 -2.27316e-15 8.18446e-17)
(0.310535 -6.21883e-18 -5.3973e-19)
(0.320767 -2.2728e-15 8.37055e-17)
(0.320767 -6.95143e-18 -5.74617e-19)
(0.330912 -2.27277e-15 8.54439e-17)
(0.330912 -7.18926e-18 -6.0509e-19)
(0.340952 -2.27294e-15 8.70572e-17)
(0.340952 -7.86803e-18 -6.429e-19)
(0.350871 -2.27262e-15 8.8553e-17)
(0.350871 -9.04485e-18 -6.73645e-19)
(0.360655 -2.27234e-15 8.99412e-17)
(0.360655 -9.96565e-18 -7.02051e-19)
(0.370293 -2.27278e-15 9.12295e-17)
(0.370293 -1.06769e-17 -7.30191e-19)
(0.379775 -2.27278e-15 9.24255e-17)
(0.379775 -1.1173e-17 -7.78491e-19)
(0.389094 -2.27285e-15 9.35406e-17)
(0.389094 -1.24627e-17 -8.239e-19)
(0.398244 -2.27213e-15 9.45922e-17)
(0.398244 -1.34564e-17 -8.62198e-19)
(0.407222 -2.27123e-15 9.55936e-17)
(0.407222 -1.47255e-17 -8.97631e-19)
(0.416024 -2.27142e-15 9.65544e-17)
(0.416024 -1.62354e-17 -9.28731e-19)
(0.42465 -2.27216e-15 9.74867e-17)
(0.42465 -1.64241e-17 -9.6007e-19)
(0.4331 -2.27271e-15 9.84011e-17)
(0.4331 -1.64147e-17 -9.80647e-19)
(0.441376 -2.27334e-15 9.93058e-17)
(0.441376 -1.73287e-17 -1.01206e-18)
(0.449479 -2.27324e-15 1.00209e-16)
(0.449479 -1.83561e-17 -1.051e-18)
(0.457413 -2.27268e-15 1.01121e-16)
(0.457413 -1.87949e-17 -1.0865e-18)
(0.46518 -2.27188e-15 1.02049e-16)
(0.46518 -1.95063e-17 -1.11818e-18)
(0.472786 -2.2707e-15 1.02999e-16)
(0.472786 -2.11366e-17 -1.15383e-18)
(0.480233 -2.26938e-15 1.03976e-16)
(0.480233 -2.30736e-17 -1.1854e-18)
(0.487527 -2.26855e-15 1.04983e-16)
(0.487527 -2.4423e-17 -1.22511e-18)
(0.494671 -2.26834e-15 1.06017e-16)
(0.494671 -2.53942e-17 -1.28019e-18)
(0.501671 -2.26717e-15 1.07091e-16)
(0.501671 -2.63575e-17 -1.31742e-18)
(0.508531 -2.26579e-15 1.08211e-16)
(0.508531 -2.79934e-17 -1.36748e-18)
(0.515257 -2.26405e-15 1.09364e-16)
(0.515257 -3.01167e-17 -1.42675e-18)
(0.521851 -2.26117e-15 1.10557e-16)
(0.521851 -3.26734e-17 -1.49099e-18)
(0.52832 -2.25847e-15 1.11818e-16)
(0.52832 -3.46368e-17 -1.53139e-18)
(0.534667 -2.25755e-15 1.13125e-16)
(0.534667 -3.64587e-17 -1.55727e-18)
(0.540897 -2.25696e-15 1.14466e-16)
(0.540897 -3.95e-17 -1.59819e-18)
(0.547014 -2.25491e-15 1.15847e-16)
(0.547014 -4.2065e-17 -1.69047e-18)
(0.553023 -2.25131e-15 1.17293e-16)
(0.553023 -4.56897e-17 -1.7412e-18)
(0.558927 -2.24815e-15 1.18817e-16)
(0.558927 -4.82675e-17 -1.76791e-18)
(0.56473 -2.24503e-15 1.20385e-16)
(0.56473 -5.11675e-17 -1.93081e-18)
(0.570436 -2.24105e-15 1.22023e-16)
(0.570436 -5.54351e-17 -1.95735e-18)
(0.576048 -2.23689e-15 1.23715e-16)
(0.576048 -6.04043e-17 -2.01812e-18)
(0.581571 -2.23453e-15 1.25507e-16)
(0.581571 -6.42822e-17 -1.99484e-18)
(0.587006 -2.23437e-15 1.27358e-16)
(0.587006 -6.41938e-17 -2.07902e-18)
(0.592358 -2.23445e-15 1.29277e-16)
(0.592358 -6.58169e-17 -2.15956e-18)
(0.597629 -2.23406e-15 1.31267e-16)
(0.597629 -6.95566e-17 -2.21333e-18)
(0.602822 -2.23232e-15 1.33318e-16)
(0.602822 -7.14152e-17 -2.27755e-18)
(0.607941 -2.23054e-15 1.35456e-16)
(0.607941 -7.36736e-17 -2.33304e-18)
(0.612987 -2.22807e-15 1.37658e-16)
(0.612987 -7.71175e-17 -2.37482e-18)
(0.617964 -2.22414e-15 1.39959e-16)
(0.617964 -8.10082e-17 -2.39811e-18)
(0.622873 -2.22052e-15 1.42354e-16)
(0.622873 -8.42721e-17 -2.49006e-18)
(0.627718 -2.21743e-15 1.44812e-16)
(0.627718 -8.69143e-17 -2.6074e-18)
(0.6325 -2.21465e-15 1.47347e-16)
(0.6325 -9.01218e-17 -2.73799e-18)
(0.637222 -2.21086e-15 1.49962e-16)
(0.637222 -9.18625e-17 -2.86047e-18)
(0.641885 -2.20579e-15 1.52653e-16)
(0.641885 -9.62765e-17 -2.96934e-18)
(0.646492 -2.20176e-15 1.55418e-16)
(0.646492 -1.01041e-16 -3.17045e-18)
(0.651044 -2.19859e-15 1.58241e-16)
(0.651044 -1.0399e-16 -3.33644e-18)
(0.655544 -2.19586e-15 1.61122e-16)
(0.655544 -1.0708e-16 -3.44621e-18)
(0.659993 -2.1938e-15 1.6407e-16)
(0.659993 -1.11629e-16 -3.61845e-18)
(0.664393 -2.19137e-15 1.6709e-16)
(0.664393 -1.17391e-16 -3.81709e-18)
(0.668745 -2.18704e-15 1.70229e-16)
(0.668745 -1.19749e-16 -3.91609e-18)
(0.673051 -2.18235e-15 1.73482e-16)
(0.673051 -1.23609e-16 -4.02379e-18)
(0.677313 -2.17761e-15 1.76863e-16)
(0.677313 -1.29255e-16 -4.15066e-18)
(0.681531 -2.17212e-15 1.80393e-16)
(0.681531 -1.32704e-16 -4.24429e-18)
(0.685708 -2.16676e-15 1.84067e-16)
(0.685708 -1.38054e-16 -4.30214e-18)
(0.689844 -2.16205e-15 1.87829e-16)
(0.689844 -1.43076e-16 -4.4563e-18)
(0.693941 -2.1594e-15 1.91662e-16)
(0.693941 -1.47397e-16 -4.62088e-18)
(0.697999 -2.15645e-15 1.95547e-16)
(0.697999 -1.52282e-16 -4.78514e-18)
(0.702021 -2.15101e-15 1.99586e-16)
(0.702021 -1.58745e-16 -4.94878e-18)
(0.706008 -2.14584e-15 2.03754e-16)
(0.706008 -1.64342e-16 -5.09997e-18)
(0.709959 -2.13809e-15 2.08045e-16)
(0.709959 -1.71212e-16 -5.33539e-18)
(0.713878 -2.13008e-15 2.12502e-16)
(0.713878 -1.80066e-16 -5.37329e-18)
(0.717763 -2.12465e-15 2.17041e-16)
(0.717763 -1.87956e-16 -5.51917e-18)
(0.721617 -2.11619e-15 2.2164e-16)
(0.721617 -1.94285e-16 -5.41695e-18)
(0.72544 -2.10597e-15 2.26359e-16)
(0.72544 -2.03934e-16 -5.59265e-18)
(0.729233 -2.09622e-15 2.312e-16)
(0.729233 -2.13674e-16 -5.72633e-18)
(0.732998 -2.08754e-15 2.3623e-16)
(0.732998 -2.22831e-16 -5.95181e-18)
(0.736734 -2.08233e-15 2.41338e-16)
(0.736734 -2.30788e-16 -5.99577e-18)
(0.740443 -2.07716e-15 2.46533e-16)
(0.740443 -2.37707e-16 -6.45843e-18)
(0.744125 -2.07045e-15 2.51894e-16)
(0.744125 -2.48254e-16 -6.4384e-18)
(0.747781 -2.06707e-15 2.5739e-16)
(0.747781 -2.53658e-16 -6.73323e-18)
(0.751413 -2.05613e-15 2.6302e-16)
(0.751413 -2.55937e-16 -6.89572e-18)
(0.75502 -2.04719e-15 2.68772e-16)
(0.75502 -2.6062e-16 -7.31599e-18)
(0.758603 -2.04003e-15 2.74733e-16)
(0.758603 -2.6763e-16 -7.32334e-18)
(0.762163 -2.03495e-15 2.80772e-16)
(0.762163 -2.73741e-16 -7.38589e-18)
(0.7657 -2.02256e-15 2.86989e-16)
(0.7657 -2.81756e-16 -7.26428e-18)
(0.769216 -2.01435e-15 2.93322e-16)
(0.769216 -2.89582e-16 -7.55721e-18)
(0.77271 -2.00348e-15 2.9987e-16)
(0.77271 -2.97775e-16 -7.63459e-18)
(0.776184 -1.99761e-15 3.06613e-16)
(0.776184 -3.05721e-16 -7.32949e-18)
(0.779637 -1.99119e-15 3.13508e-16)
(0.779637 -3.0856e-16 -7.26475e-18)
(0.783071 -1.98387e-15 3.20587e-16)
(0.783071 -3.09935e-16 -8.00311e-18)
(0.786486 -1.97463e-15 3.2783e-16)
(0.786486 -3.15899e-16 -8.14503e-18)
(0.789882 -1.96438e-15 3.35308e-16)
(0.789882 -3.20284e-16 -7.47193e-18)
(0.793259 -1.955e-15 3.43088e-16)
(0.793259 -3.25121e-16 -7.62468e-18)
(0.796619 -1.94476e-15 3.51059e-16)
(0.796619 -3.29185e-16 -7.8843e-18)
(0.799962 -1.93128e-15 3.5921e-16)
(0.799962 -3.3644e-16 -8.14037e-18)
(0.803288 -1.9187e-15 3.67757e-16)
(0.803288 -3.4359e-16 -7.99519e-18)
(0.806597 -1.90962e-15 3.76455e-16)
(0.806597 -3.51024e-16 -7.82794e-18)
(0.80989 -1.90075e-15 3.85177e-16)
(0.80989 -3.58554e-16 -8.21422e-18)
(0.813168 -1.89441e-15 3.9409e-16)
(0.813168 -3.63465e-16 -8.30667e-18)
(0.81643 -1.88801e-15 4.03139e-16)
(0.81643 -3.73399e-16 -8.94476e-18)
(0.819678 -1.87712e-15 4.12327e-16)
(0.819678 -3.80172e-16 -9.29247e-18)
(0.82291 -1.86699e-15 4.21672e-16)
(0.82291 -3.89488e-16 -8.80113e-18)
(0.826129 -1.85551e-15 4.312e-16)
(0.826129 -4.0047e-16 -8.86604e-18)
(0.829333 -1.84322e-15 4.40918e-16)
(0.829333 -4.08288e-16 -9.19722e-18)
(0.832524 -1.82617e-15 4.50845e-16)
(0.832524 -4.14713e-16 -9.99897e-18)
(0.835702 -1.80793e-15 4.57587e-16)
(0.835702 -4.22684e-16 -9.29594e-18)
(0.838867 -1.79645e-15 4.52931e-16)
(0.838867 -4.34505e-16 -9.33129e-18)
(0.842019 -1.78294e-15 4.47502e-16)
(0.842019 -4.46457e-16 -9.30561e-18)
(0.845158 -1.76902e-15 4.42143e-16)
(0.845158 -4.5631e-16 -9.3159e-18)
(0.848286 -1.75429e-15 4.35699e-16)
(0.848286 -4.60516e-16 -9.10631e-18)
(0.851401 -1.73849e-15 4.2862e-16)
(0.851401 -4.73713e-16 -1.00789e-17)
(0.854505 -1.72449e-15 4.20286e-16)
(0.854505 -4.85088e-16 -7.38604e-18)
(0.857598 -1.70928e-15 4.13171e-16)
(0.857598 -4.90115e-16 -6.97714e-18)
(0.860679 -1.69346e-15 4.06457e-16)
(0.860679 -5.04904e-16 -9.49092e-18)
(0.863749 -1.67146e-15 4.00148e-16)
(0.863749 -5.17056e-16 -1.05244e-17)
(0.866809 -1.65097e-15 3.93173e-16)
(0.866809 -5.28778e-16 -1.15401e-17)
(0.869858 -1.63481e-15 3.87272e-16)
(0.869858 -5.39351e-16 -1.21757e-17)
(0.872896 -1.61499e-15 3.80746e-16)
(0.872896 -5.49864e-16 -1.29334e-17)
(0.875925 -1.59783e-15 3.72822e-16)
(0.875925 -5.6287e-16 -1.44178e-17)
(0.878944 -1.57947e-15 3.66273e-16)
(0.878944 -5.71699e-16 -1.60368e-17)
(0.881952 -1.56121e-15 3.6302e-16)
(0.881952 -5.80675e-16 -1.75351e-17)
(0.884952 -1.54103e-15 3.6122e-16)
(0.884952 -5.92424e-16 -1.87639e-17)
(0.887941 -1.52338e-15 3.59544e-16)
(0.887941 -6.03621e-16 -2.06069e-17)
(0.890922 -1.50957e-15 3.58902e-16)
(0.890922 -6.15581e-16 -2.48208e-17)
(0.893893 -1.49691e-15 3.52746e-16)
(0.893893 -6.253e-16 -3.19701e-17)
(0.896855 -1.48276e-15 3.46898e-16)
(0.896855 -6.34444e-16 -3.91174e-17)
(0.899809 -1.4604e-15 3.43394e-16)
(0.899809 -6.48492e-16 -4.42377e-17)
(0.902753 -1.43817e-15 3.40316e-16)
(0.902753 -6.53384e-16 -4.94369e-17)
(0.905689 -1.41677e-15 3.3838e-16)
(0.905689 -6.59806e-16 -5.56739e-17)
(0.908617 -1.39826e-15 3.36729e-16)
(0.908617 -6.67608e-16 -6.35563e-17)
(0.911536 -1.37982e-15 3.35684e-16)
(0.911536 -6.65919e-16 -7.04402e-17)
(0.914446 -1.35601e-15 3.32758e-16)
(0.914446 -6.75948e-16 -6.37675e-17)
(0.917349 -1.33139e-15 3.27943e-16)
(0.917349 -6.80418e-16 -5.45457e-17)
(0.920243 -1.31322e-15 3.27822e-16)
(0.920243 -6.83731e-16 -4.69055e-17)
(0.923129 -1.29595e-15 3.2658e-16)
(0.923129 -6.84066e-16 -3.95054e-17)
(0.926008 -1.2798e-15 3.24511e-16)
(0.926008 -6.76931e-16 -3.16404e-17)
(0.928878 -1.27278e-15 3.24798e-16)
(0.928878 -6.8088e-16 -1.78386e-17)
(0.93174 -1.26108e-15 3.24273e-16)
(0.93174 -6.84209e-16 7.1317e-19)
(0.934595 -1.23544e-15 3.19534e-16)
(0.934595 -6.91044e-16 1.60008e-17)
(0.937442 -1.21142e-15 3.17802e-16)
(0.937442 -7.07314e-16 2.39599e-17)
(0.940281 -1.19578e-15 3.16226e-16)
(0.940281 -7.15565e-16 3.58218e-17)
(0.943112 -1.17674e-15 3.15115e-16)
(0.943112 -7.25631e-16 4.75108e-17)
(0.945936 -1.15344e-15 3.12255e-16)
(0.945936 -7.35459e-16 5.95306e-17)
(0.948752 -1.12746e-15 3.12835e-16)
(0.948752 -7.39188e-16 7.39168e-17)
(0.95156 -1.13849e-15 3.06355e-16)
(0.95156 -7.41935e-16 8.55159e-17)
(0.954361 -1.11584e-15 3.02193e-16)
(0.954361 -7.44671e-16 9.60741e-17)
(0.957154 -1.09643e-15 2.98149e-16)
(0.957154 -7.43859e-16 1.09472e-16)
(0.959939 -1.08039e-15 2.99104e-16)
(0.959939 -7.44493e-16 1.23289e-16)
(0.962716 -1.06061e-15 2.98673e-16)
(0.962716 -7.37543e-16 1.35781e-16)
(0.965485 -1.05723e-15 2.99121e-16)
(0.965485 -7.29242e-16 1.47121e-16)
(0.968247 -1.05991e-15 2.95251e-16)
(0.968247 -7.29185e-16 1.65853e-16)
(0.971001 -1.03709e-15 2.88553e-16)
(0.971001 -7.37852e-16 1.79204e-16)
(0.973747 -1.0078e-15 2.91485e-16)
(0.973747 -7.4458e-16 1.94168e-16)
(0.976484 -9.82432e-16 3.01275e-16)
(0.976484 -7.4889e-16 2.03661e-16)
(0.979214 -9.63925e-16 3.09899e-16)
(0.979214 -7.63883e-16 2.07412e-16)
(0.981935 -9.50261e-16 3.09912e-16)
(0.981935 -7.64999e-16 2.24828e-16)
(0.984649 -9.44703e-16 2.99648e-16)
(0.984649 -7.68461e-16 2.34028e-16)
(0.987353 -9.33185e-16 3.05653e-16)
(0.987353 -7.83166e-16 2.34214e-16)
(0.990049 -9.2042e-16 2.9829e-16)
(0.990049 -8.01923e-16 2.45091e-16)
(0.992736 -9.07564e-16 2.93997e-16)
(0.992736 -8.13681e-16 2.56857e-16)
(0.995415 -8.99362e-16 2.90703e-16)
(0.995415 -8.16144e-16 2.83902e-16)
(0.998084 -8.89537e-16 2.86683e-16)
(0.998084 -8.22193e-16 2.98998e-16)
(1.00074 -8.82411e-16 2.81161e-16)
(1.00074 -8.22478e-16 3.18126e-16)
(1.00339 -8.77599e-16 2.82267e-16)
(1.00339 -8.1426e-16 3.05746e-16)
(1.00604 -8.72455e-16 2.86345e-16)
(1.00604 -8.09822e-16 3.00269e-16)
(1.00867 -8.80637e-16 2.879e-16)
(1.00867 -8.11657e-16 2.91317e-16)
(1.01129 -8.51847e-16 3.03295e-16)
(1.01129 -8.30704e-16 2.81619e-16)
(1.0139 -8.36207e-16 2.98491e-16)
(1.0139 -8.42091e-16 2.80048e-16)
(1.0165 -8.32978e-16 3.05563e-16)
(1.0165 -8.69782e-16 2.81823e-16)
(1.01909 -8.19752e-16 2.98538e-16)
(1.01909 -8.69447e-16 2.98302e-16)
(1.02167 -8.20105e-16 3.02204e-16)
(1.02167 -8.37832e-16 3.14364e-16)
(1.02423 -8.06163e-16 3.08265e-16)
(1.02423 -8.08646e-16 3.13487e-16)
(1.02679 -7.88794e-16 3.01074e-16)
(1.02679 -7.88825e-16 3.21065e-16)
(1.02933 -7.83502e-16 2.93458e-16)
(1.02933 -7.71728e-16 3.34567e-16)
(1.03186 -7.60531e-16 3.26273e-16)
(1.03186 -7.5761e-16 3.24475e-16)
(1.03437 -7.44101e-16 3.22763e-16)
(1.03437 -7.1233e-16 3.21041e-16)
(1.03688 -7.08974e-16 3.43936e-16)
(1.03688 -6.99726e-16 3.20119e-16)
(1.03936 -6.86219e-16 3.28062e-16)
(1.03936 -7.32481e-16 3.303e-16)
(1.04184 -6.96287e-16 3.10797e-16)
(1.04184 -7.00525e-16 3.35059e-16)
(1.0443 -6.83885e-16 2.92036e-16)
(1.0443 -6.48791e-16 3.21455e-16)
(1.04674 -6.65943e-16 2.82151e-16)
(1.04674 -6.4379e-16 3.15951e-16)
(1.04916 -6.42835e-16 2.74246e-16)
(1.04916 -6.23682e-16 3.05092e-16)
(1.05157 -6.09808e-16 3.20378e-16)
(1.05157 -6.29044e-16 2.81952e-16)
(1.05396 -6.60069e-16 2.87993e-16)
(1.05396 -6.54796e-16 3.11688e-16)
(1.05634 -5.99341e-16 3.20392e-16)
(1.05634 -6.35056e-16 3.05275e-16)
(1.05869 -6.23187e-16 3.33072e-16)
(1.05869 -6.26238e-16 3.51101e-16)
(1.06102 -6.73535e-16 3.25929e-16)
(1.06102 -6.03658e-16 3.53515e-16)
(1.06334 -6.55446e-16 3.26808e-16)
(1.06334 -5.99163e-16 3.25528e-16)
(1.06562 -6.47014e-16 3.2116e-16)
(1.06562 -6.13459e-16 3.17937e-16)
(1.06789 -6.19794e-16 3.14268e-16)
(1.06789 -6.03063e-16 3.11664e-16)
(1.07013 -6.39666e-16 3.36283e-16)
(1.07013 -6.04423e-16 2.90791e-16)
(1.07235 -6.27708e-16 3.33104e-16)
(1.07235 -6.17778e-16 3.03775e-16)
(1.07454 -5.89791e-16 3.61915e-16)
(1.07454 -6.29597e-16 3.01213e-16)
(1.0767 -6.76967e-16 3.25726e-16)
(1.0767 -6.00044e-16 2.79115e-16)
(1.07883 -6.07771e-16 3.24121e-16)
(1.07883 -5.69708e-16 2.74385e-16)
(1.08094 -5.99667e-16 3.12565e-16)
(1.08094 -5.53912e-16 3.21666e-16)
(1.083 -5.7811e-16 3.54632e-16)
(1.083 -6.18489e-16 2.88351e-16)
(1.08504 -5.50781e-16 3.43385e-16)
(1.08504 -6.35123e-16 2.78728e-16)
(1.08703 -5.27765e-16 3.50143e-16)
(1.08703 -5.78435e-16 2.84928e-16)
(1.08899 -5.92053e-16 3.08395e-16)
(1.08899 -6.14241e-16 2.87828e-16)
(1.09091 -5.50804e-16 3.02368e-16)
(1.09091 -5.97164e-16 2.53797e-16)
(1.09278 -5.24595e-16 2.76794e-16)
(1.09278 -4.80799e-16 2.69767e-16)
(1.09461 -5.07784e-16 3.38486e-16)
(1.09461 -4.93886e-16 2.94542e-16)
(1.09638 -4.78613e-16 3.49897e-16)
(1.09638 -5.10565e-16 3.00929e-16)
(1.09811 -5.92449e-16 2.95873e-16)
(1.09811 -5.16858e-16 3.36672e-16)
(1.09978 -5.11261e-16 3.17309e-16)
(1.09978 -5.26242e-16 2.5311e-16)
(1.10139 -4.99437e-16 3.55572e-16)
(1.10139 -5.5382e-16 3.1149e-16)
(1.10294 -4.7411e-16 3.59313e-16)
(1.10294 -5.71317e-16 3.7805e-16)
(1.10441 -4.64938e-16 3.46618e-16)
(1.10441 -5.18808e-16 3.75475e-16)
(1.10582 -4.8851e-16 3.12836e-16)
(1.10582 -4.91728e-16 4.11195e-16)
(1.10715 -5.48379e-16 3.30635e-16)
(1.10715 -5.14434e-16 4.42988e-16)
(1.10839 -5.48538e-16 3.01942e-16)
(1.10839 -4.76907e-16 4.20032e-16)
(1.10954 -5.74129e-16 3.03281e-16)
(1.10954 -4.36895e-16 2.28315e-16)
(1.1106 -5.08887e-16 2.25124e-16)
(1.1106 -5.10416e-16 1.62165e-16)
(1.11156 -4.41025e-16 1.82032e-16)
(1.11156 -4.68771e-16 1.3849e-16)
(1.1124 -4.31945e-16 1.45973e-16)
(1.1124 -4.3177e-16 1.84105e-16)
(1.11312 -4.11539e-16 2.20773e-16)
(1.11312 -4.07899e-16 1.59864e-16)
(1.11372 -4.74919e-16 1.62039e-16)
(1.11372 -4.02784e-16 1.10929e-16)
(1.11418 -3.97706e-16 1.05249e-16)
(1.11418 -3.73152e-16 1.03921e-16)
(1.1145 -3.32072e-16 1.79233e-16)
(1.1145 -4.16497e-16 4.62704e-17)
(1.11466 -3.38724e-16 1.17818e-16)
(1.11466 -4.04204e-16 1.26134e-16)
(0.00324247 -6.14473e-20 -3.72577e-20)
(0.00324247 -5.58818e-21 1.74647e-17)
(0.0097867 1.01482e-19 -5.76607e-18)
(0.0097867 9.78152e-20 4.57311e-17)
(0.0164518 1.80372e-19 -5.97996e-18)
(0.0164518 1.9871e-19 4.74455e-17)
(0.0232401 3.09947e-19 -6.20012e-18)
(0.0232401 3.21546e-19 4.922e-17)
(0.0301536 4.46641e-19 -6.42661e-18)
(0.0301536 4.57251e-19 5.10563e-17)
(0.0371949 5.89737e-19 -6.65945e-18)
(0.0371949 6.02163e-19 5.29562e-17)
(0.044366 7.55068e-19 -6.89883e-18)
(0.044366 7.52263e-19 5.49218e-17)
(0.0516695 8.99687e-19 -7.14418e-18)
(0.0516695 9.19594e-19 5.69542e-17)
(0.0591077 1.00367e-18 -7.39634e-18)
(0.0591077 1.12562e-18 5.90559e-17)
(0.0666829 1.11852e-18 -7.65406e-18)
(0.0666829 1.35179e-18 6.12278e-17)
(0.0743975 1.25589e-18 -7.91853e-18)
(0.0743975 1.55636e-18 6.34734e-17)
(0.0822538 1.3978e-18 -8.18967e-18)
(0.0822538 1.80125e-18 6.57936e-17)
(0.0902542 1.57492e-18 -8.46794e-18)
(0.0902542 2.00347e-18 6.81894e-17)
(0.0984007 1.77017e-18 -8.75201e-18)
(0.0984007 2.17629e-18 7.06621e-17)
(0.106695 1.99928e-18 -9.04528e-18)
(0.106695 2.38729e-18 7.3213e-17)
(0.11514 2.2338e-18 -9.34511e-18)
(0.11514 2.6091e-18 7.58394e-17)
(0.123736 2.4468e-18 -9.65185e-18)
(0.123736 2.78694e-18 7.85396e-17)
(0.132484 2.713e-18 -9.96469e-18)
(0.132484 2.98133e-18 8.13118e-17)
(0.141384 2.98313e-18 -1.02785e-17)
(0.141384 3.24514e-18 8.41499e-17)
(0.150437 3.25315e-18 -1.05933e-17)
(0.150437 3.42745e-18 8.70483e-17)
(0.159641 3.48821e-18 -1.09109e-17)
(0.159641 3.73414e-18 8.99998e-17)
(0.168995 3.71056e-18 -1.12311e-17)
(0.168995 4.16246e-18 9.2994e-17)
(0.178493 3.84572e-18 -1.15517e-17)
(0.178493 4.4988e-18 9.60145e-17)
(0.188132 3.97581e-18 -1.18726e-17)
(0.188132 4.83223e-18 9.9044e-17)
(0.197906 4.35833e-18 -1.21949e-17)
(0.197906 5.0156e-18 1.02064e-16)
(0.207804 4.78071e-18 -1.25054e-17)
(0.207804 5.0006e-18 1.05051e-16)
(0.217819 5.01675e-18 -1.28042e-17)
(0.217819 5.22963e-18 1.07979e-16)
(0.227936 5.28558e-18 -1.30938e-17)
(0.227936 5.57235e-18 1.10827e-16)
(0.238142 5.60213e-18 -1.33683e-17)
(0.238142 5.89201e-18 1.13562e-16)
(0.248421 5.92161e-18 -1.3622e-17)
(0.248421 6.17991e-18 1.16153e-16)
(0.258754 6.24008e-18 -1.38523e-17)
(0.258754 6.59018e-18 1.18572e-16)
(0.269123 6.57533e-18 -1.40592e-17)
(0.269123 7.24754e-18 1.20796e-16)
(0.279506 6.86475e-18 -1.42371e-17)
(0.279506 7.6953e-18 1.22807e-16)
(0.289884 6.93322e-18 -1.43819e-17)
(0.289884 7.94759e-18 1.24583e-16)
(0.300233 6.91926e-18 -1.44983e-17)
(0.300233 8.63549e-18 1.2611e-16)
(0.310535 7.18216e-18 -1.45849e-17)
(0.310535 9.20729e-18 1.27391e-16)
(0.320767 8.12897e-18 -1.46356e-17)
(0.320767 9.44776e-18 1.28413e-16)
(0.330912 8.83907e-18 -1.46336e-17)
(0.330912 9.99956e-18 1.29179e-16)
(0.340952 8.96303e-18 -1.45957e-17)
(0.340952 1.02676e-17 1.29696e-16)
(0.350871 9.34035e-18 -1.45257e-17)
(0.350871 1.08021e-17 1.29993e-16)
(0.360655 9.69361e-18 -1.44175e-17)
(0.360655 1.19218e-17 1.30084e-16)
(0.370293 9.894e-18 -1.42806e-17)
(0.370293 1.21464e-17 1.29988e-16)
(0.379775 1.01129e-17 -1.41171e-17)
(0.379775 1.26171e-17 1.2971e-16)
(0.389094 1.05554e-17 -1.39277e-17)
(0.389094 1.32011e-17 1.29269e-16)
(0.398244 1.12084e-17 -1.37069e-17)
(0.398244 1.39461e-17 1.28694e-16)
(0.407222 1.15405e-17 -1.34648e-17)
(0.407222 1.4965e-17 1.28014e-16)
(0.416024 1.14116e-17 -1.32173e-17)
(0.416024 1.51448e-17 1.27262e-16)
(0.42465 1.17536e-17 -1.29598e-17)
(0.42465 1.58435e-17 1.26457e-16)
(0.4331 1.24246e-17 -1.26759e-17)
(0.4331 1.69048e-17 1.25606e-16)
(0.441376 1.25222e-17 -1.23743e-17)
(0.441376 1.74275e-17 1.24718e-16)
(0.449479 1.25855e-17 -1.20871e-17)
(0.449479 1.76192e-17 1.23821e-16)
(0.457413 1.29503e-17 -1.1796e-17)
(0.457413 1.88339e-17 1.22906e-16)
(0.46518 1.31853e-17 -1.14996e-17)
(0.46518 1.91598e-17 1.21988e-16)
(0.472786 1.32834e-17 -1.11921e-17)
(0.472786 1.88166e-17 1.21064e-16)
(0.480233 1.34217e-17 -1.08659e-17)
(0.480233 1.95809e-17 1.20134e-16)
(0.487527 1.31697e-17 -1.05267e-17)
(0.487527 2.0022e-17 1.19189e-16)
(0.494671 1.32315e-17 -1.02053e-17)
(0.494671 2.0808e-17 1.18246e-16)
(0.501671 1.37847e-17 -9.84042e-18)
(0.501671 2.19322e-17 1.17295e-16)
(0.508531 1.31102e-17 -9.49322e-18)
(0.508531 2.3407e-17 1.16366e-16)
(0.515257 1.19493e-17 -9.20624e-18)
(0.515257 2.4534e-17 1.1546e-16)
(0.521851 1.2722e-17 -8.94294e-18)
(0.521851 2.4483e-17 1.14555e-16)
(0.52832 1.28453e-17 -8.6002e-18)
(0.52832 2.51699e-17 1.13628e-16)
(0.534667 1.12549e-17 -8.28804e-18)
(0.534667 2.71851e-17 1.12738e-16)
(0.540897 1.04806e-17 -8.0351e-18)
(0.540897 2.89383e-17 1.11886e-16)
(0.547014 1.04383e-17 -7.78235e-18)
(0.547014 2.91397e-17 1.10989e-16)
(0.553023 1.15229e-17 -7.5071e-18)
(0.553023 2.88334e-17 1.10088e-16)
(0.558927 1.2476e-17 -7.11449e-18)
(0.558927 2.89783e-17 1.09168e-16)
(0.56473 1.26495e-17 -6.76516e-18)
(0.56473 2.94134e-17 1.08165e-16)
(0.570436 1.29612e-17 -6.45775e-18)
(0.570436 2.94304e-17 1.07248e-16)
(0.576048 1.36298e-17 -6.16588e-18)
(0.576048 2.95011e-17 1.06331e-16)
(0.581571 1.40813e-17 -5.72726e-18)
(0.581571 3.04365e-17 1.05418e-16)
(0.587006 1.46241e-17 -5.30293e-18)
(0.587006 3.09875e-17 1.04506e-16)
(0.592358 1.50233e-17 -4.87512e-18)
(0.592358 3.17941e-17 1.03618e-16)
(0.597629 1.41351e-17 -4.43656e-18)
(0.597629 3.12146e-17 1.02759e-16)
(0.602822 1.37558e-17 -3.9678e-18)
(0.602822 2.97451e-17 1.01868e-16)
(0.607941 1.35519e-17 -3.46017e-18)
(0.607941 2.92107e-17 1.00989e-16)
(0.612987 1.40815e-17 -2.93701e-18)
(0.612987 3.05844e-17 1.00094e-16)
(0.617964 1.46455e-17 -2.20785e-18)
(0.617964 2.99301e-17 9.91719e-17)
(0.622873 1.4583e-17 -1.62699e-18)
(0.622873 2.89269e-17 9.837e-17)
(0.627718 1.50564e-17 -1.08987e-18)
(0.627718 3.13425e-17 9.75787e-17)
(0.6325 1.54703e-17 -4.80981e-19)
(0.6325 3.20384e-17 9.66956e-17)
(0.637222 1.5034e-17 1.61965e-19)
(0.637222 3.29969e-17 9.57537e-17)
(0.641885 1.39377e-17 7.17044e-19)
(0.641885 3.5165e-17 9.48298e-17)
(0.646492 1.45123e-17 1.05439e-18)
(0.646492 3.61276e-17 9.39729e-17)
(0.651044 1.52698e-17 1.23842e-18)
(0.651044 3.70319e-17 9.31229e-17)
(0.655544 1.67619e-17 1.352e-18)
(0.655544 3.91373e-17 9.22102e-17)
(0.659993 1.98177e-17 1.53227e-18)
(0.659993 3.8323e-17 9.1162e-17)
(0.664393 2.13544e-17 1.69091e-18)
(0.664393 3.94814e-17 9.00046e-17)
(0.668745 2.26389e-17 1.8558e-18)
(0.668745 4.4414e-17 8.88583e-17)
(0.673051 2.43893e-17 2.06695e-18)
(0.673051 4.68142e-17 8.77163e-17)
(0.677313 2.51564e-17 2.43032e-18)
(0.677313 4.82171e-17 8.65298e-17)
(0.681531 2.62135e-17 2.87633e-18)
(0.681531 5.09419e-17 8.54399e-17)
(0.685708 2.48898e-17 3.58267e-18)
(0.685708 5.15219e-17 8.43458e-17)
(0.689844 2.08167e-17 4.31527e-18)
(0.689844 5.17603e-17 8.3184e-17)
(0.693941 1.85703e-17 4.88124e-18)
(0.693941 5.67985e-17 8.20917e-17)
(0.697999 1.79304e-17 5.52613e-18)
(0.697999 6.11565e-17 8.08911e-17)
(0.702021 1.82309e-17 6.38258e-18)
(0.702021 5.99147e-17 7.94986e-17)
(0.706008 1.85668e-17 7.26804e-18)
(0.706008 6.05031e-17 7.81127e-17)
(0.709959 1.89616e-17 8.208e-18)
(0.709959 6.36757e-17 7.65791e-17)
(0.713878 1.83822e-17 9.00533e-18)
(0.713878 6.40689e-17 7.52931e-17)
(0.717763 1.55405e-17 9.56346e-18)
(0.717763 6.78167e-17 7.40812e-17)
(0.721617 1.30887e-17 1.01025e-17)
(0.721617 7.15865e-17 7.29648e-17)
(0.72544 1.26348e-17 1.03432e-17)
(0.72544 6.92845e-17 7.19412e-17)
(0.729233 1.4874e-17 1.04703e-17)
(0.729233 6.94766e-17 7.09536e-17)
(0.732998 1.65923e-17 1.08727e-17)
(0.732998 7.0463e-17 6.97644e-17)
(0.736734 1.58085e-17 1.14507e-17)
(0.736734 6.67309e-17 6.83693e-17)
(0.740443 1.54448e-17 1.20843e-17)
(0.740443 6.50071e-17 6.65939e-17)
(0.744125 1.39015e-17 1.30218e-17)
(0.744125 6.62794e-17 6.47708e-17)
(0.747781 1.09796e-17 1.3421e-17)
(0.747781 6.85118e-17 6.26962e-17)
(0.751413 8.18999e-18 1.22106e-17)
(0.751413 6.86177e-17 6.04064e-17)
(0.75502 6.39693e-18 1.20887e-17)
(0.75502 6.87861e-17 5.78028e-17)
(0.758603 4.83461e-18 1.12023e-17)
(0.758603 7.15761e-17 5.51531e-17)
(0.762163 4.7872e-18 1.05665e-17)
(0.762163 7.22136e-17 5.25537e-17)
(0.7657 5.26684e-18 9.8135e-18)
(0.7657 7.11595e-17 4.99787e-17)
(0.769216 4.88935e-18 8.97669e-18)
(0.769216 7.20489e-17 4.70708e-17)
(0.77271 7.3131e-18 8.39345e-18)
(0.77271 7.15104e-17 4.42348e-17)
(0.776184 9.44555e-18 7.23758e-18)
(0.776184 7.62726e-17 4.14773e-17)
(0.779637 8.55829e-18 6.5036e-18)
(0.779637 7.72466e-17 3.96234e-17)
(0.783071 7.30195e-18 5.62548e-18)
(0.783071 7.3037e-17 3.74478e-17)
(0.786486 8.72449e-18 4.43005e-18)
(0.786486 7.08202e-17 3.54434e-17)
(0.789882 7.46831e-18 3.15301e-18)
(0.789882 7.3076e-17 3.40653e-17)
(0.793259 2.86619e-18 1.06924e-18)
(0.793259 7.92993e-17 3.27525e-17)
(0.796619 -1.19122e-18 -3.46177e-19)
(0.796619 8.15221e-17 3.1478e-17)
(0.799962 -4.49784e-18 -2.28894e-19)
(0.799962 8.25987e-17 3.03682e-17)
(0.803288 -5.78001e-18 -5.83157e-19)
(0.803288 8.20077e-17 2.96002e-17)
(0.806597 -8.60845e-18 -1.03279e-18)
(0.806597 7.73407e-17 2.86783e-17)
(0.80989 -8.70774e-18 -1.38136e-18)
(0.80989 6.81581e-17 2.73162e-17)
(0.813168 -6.90576e-18 -2.53043e-18)
(0.813168 6.56969e-17 2.52466e-17)
(0.81643 -1.01861e-17 -3.72107e-18)
(0.81643 6.90675e-17 2.25636e-17)
(0.819678 -1.43522e-17 -4.66242e-18)
(0.819678 7.02693e-17 2.02337e-17)
(0.82291 -1.75391e-17 -4.19837e-18)
(0.82291 6.89176e-17 1.88082e-17)
(0.826129 -2.15706e-17 -5.12542e-18)
(0.826129 6.73626e-17 1.69412e-17)
(0.829333 -2.50694e-17 -6.8894e-18)
(0.829333 6.39564e-17 1.44757e-17)
(0.832524 -3.18567e-17 -8.01138e-18)
(0.832524 5.84946e-17 1.10056e-17)
(0.835702 -4.17949e-17 -8.62093e-18)
(0.835702 5.91739e-17 8.47717e-18)
(0.838867 -4.82917e-17 -7.97318e-18)
(0.838867 6.19552e-17 6.16806e-18)
(0.842019 -4.80579e-17 -7.54098e-18)
(0.842019 6.0901e-17 3.84939e-18)
(0.845158 -4.55187e-17 -7.46974e-18)
(0.845158 5.8209e-17 3.30637e-18)
(0.848286 -4.88417e-17 -8.02101e-18)
(0.848286 5.71084e-17 7.17171e-18)
(0.851401 -5.44804e-17 -7.88457e-18)
(0.851401 5.13711e-17 8.19686e-18)
(0.854505 -5.79263e-17 -7.54094e-18)
(0.854505 4.52719e-17 8.34783e-18)
(0.857598 -5.68252e-17 -7.99552e-18)
(0.857598 4.01538e-17 6.69156e-18)
(0.860679 -5.62779e-17 -7.23658e-18)
(0.860679 3.69037e-17 7.16376e-18)
(0.863749 -5.58204e-17 -9.10367e-18)
(0.863749 3.88883e-17 8.83552e-18)
(0.866809 -5.56472e-17 -1.02409e-17)
(0.866809 3.39689e-17 9.14392e-18)
(0.869858 -5.83189e-17 -1.11615e-17)
(0.869858 2.83052e-17 9.10483e-18)
(0.872896 -6.49714e-17 -1.34306e-17)
(0.872896 2.52908e-17 8.43487e-18)
(0.875925 -7.01933e-17 -1.42818e-17)
(0.875925 2.10779e-17 7.42182e-18)
(0.878944 -6.87315e-17 -1.66137e-17)
(0.878944 1.6048e-17 7.87936e-18)
(0.881952 -7.4298e-17 -1.912e-17)
(0.881952 1.99042e-17 9.60648e-18)
(0.884952 -8.28905e-17 -1.69793e-17)
(0.884952 5.16725e-18 1.06842e-17)
(0.887941 -8.4707e-17 -1.48898e-17)
(0.887941 1.08142e-17 1.01031e-17)
(0.890922 -8.3982e-17 -1.2761e-17)
(0.890922 4.87272e-18 8.29405e-18)
(0.893893 -8.0927e-17 -1.34228e-17)
(0.893893 -1.76614e-18 6.79993e-18)
(0.896855 -7.94401e-17 -1.45172e-17)
(0.896855 4.03305e-18 6.58674e-18)
(0.899809 -7.92599e-17 -1.42238e-17)
(0.899809 -6.37049e-18 8.00669e-18)
(0.902753 -8.08828e-17 -1.23922e-17)
(0.902753 -8.60896e-19 8.14935e-18)
(0.905689 -8.39612e-17 -1.16145e-17)
(0.905689 -3.30009e-18 6.93241e-18)
(0.908617 -8.69117e-17 -1.20316e-17)