/*--------------------------------*- C++ -*----------------------------------*\
| =========                 |                                                 |
| \\      /  F ield         | OpenFOAM: The Open Source CFD Toolbox           |
|  \\    /   O peration     | Version:  2106                                  |
|   \\  /    A nd           | Website:  www.openfoam.com                      |
|    \\/     M anipulation  |                                                 |
\*---------------------------------------------------------------------------*/
FoamFile
{
    version     2.0;
    format      ascii;
    arch        "LSB;label=32;scalar=64";
    class       volTensorField;
    location    "10000";
    object      grad(U);
}
// * * * * * * * * * * * * * * * * * * * * * * * * * * * * * * * * * * * * * //

dimensions      [0 0 -1 0 0 0 0];

internalField   nonuniform List<tensor> 
800
(
(-1.15363e-17 -6.21755e-27 -1.63941e-31 13.3705 -2.18935e-12 -6.4094e-14 0.0613706 -5.02698e-15 -1.39449e-16)
(0 3.27881e-30 1.63941e-31 13.3705 -1.41627e-15 1.852e-17 0.0613706 -9.30351e-18 2.49358e-17)
(0 -1.89742e-26 -2.18345e-28 13.3642 8.31475e-32 -2.1171e-14 0.186976 0 -2.03557e-16)
(0 0 -1.56489e-31 13.3642 -1.10121e-15 4.75281e-17 0.186976 -3.76775e-18 -8.33526e-19)
(-5.97673e-18 -1.29811e-29 -4.87438e-31 13.3576 2.74482e-13 -1.01882e-14 0.275433 -7.5093e-15 -2.07017e-16)
(4.78138e-17 1.67302e-29 5.22818e-31 13.3576 -2.73325e-15 7.5087e-17 0.275433 -1.99239e-17 -1.10175e-18)
(0 2.28139e-30 0 13.3507 9.4791e-14 -1.0721e-14 0.288395 -3.45558e-15 -2.46429e-16)
(0 -2.28139e-30 0 13.3507 -2.46088e-15 8.27462e-17 0.288395 -3.25025e-17 -1.54625e-18)
(-4.14188e-17 -2.16442e-30 -9.74179e-32 13.3435 -9.71878e-16 -1.20907e-14 0.30196 -5.42885e-16 -2.89207e-16)
(0 6.5331e-30 2.72213e-31 13.3435 -2.55976e-15 7.49893e-17 0.30196 -4.66727e-17 -2.24766e-18)
(0 -9.92762e-29 3.8976e-31 13.3359 -9.58183e-15 -1.32601e-14 0.316154 -1.10969e-16 -3.25917e-16)
(-2.41607e-16 -1.45511e-29 -3.8976e-31 13.3359 -2.61518e-15 6.58722e-17 0.316154 -6.27084e-17 -3.39747e-18)
(-8.02782e-17 -1.59446e-29 2.96567e-31 13.328 1.97215e-31 -1.41733e-14 0.331006 -3.15544e-30 -3.62781e-16)
(-1.39629e-16 -1.98424e-30 -1.24015e-31 13.328 -2.78869e-15 6.31501e-17 0.331006 -7.95904e-17 -4.99753e-18)
(-1.0109e-16 3.86481e-31 -1.81867e-31 13.3196 3.22874e-15 -1.50288e-14 0.346544 -6.3719e-17 -4.02224e-16)
(0 5.68216e-30 4.73513e-31 13.3196 -3.02252e-15 5.78076e-17 0.346544 -9.89106e-17 -7.12969e-18)
(-1.2288e-16 1.31205e-29 4.01033e-31 13.3108 4.06615e-15 -1.58905e-14 0.362799 -1.01309e-16 -4.4514e-16)
(9.83044e-16 -7.23186e-30 -1.12998e-31 13.3108 -3.1153e-15 5.77983e-17 0.362799 -1.2054e-16 -9.7783e-18)
(4.85767e-16 -1.03547e-29 -4.31448e-31 13.3015 4.47629e-15 -1.67786e-14 0.3798 -1.15596e-16 -4.92174e-16)
(0 1.03547e-29 4.31448e-31 13.3015 -3.31883e-15 6.247e-17 0.3798 -1.4361e-16 -1.29269e-17)
(0 -3.2947e-30 -6.17757e-31 13.2916 4.89981e-15 -1.77024e-14 0.397579 -1.34617e-16 -5.43827e-16)
(-6.78328e-16 6.5894e-30 6.17757e-31 13.2916 -3.40551e-15 6.38609e-17 0.397579 -1.71027e-16 -1.66406e-17)
(-4.15897e-16 1.16906e-29 6.78387e-31 13.281 5.48219e-15 -1.86636e-14 0.416164 -1.52212e-16 -6.00427e-16)
(7.78361e-16 -3.14495e-30 -1.9656e-31 13.281 -3.25714e-15 5.3627e-17 0.416164 -1.99397e-16 -2.10041e-17)
(0 9.00603e-30 5.62877e-31 13.2694 5.91206e-15 -1.96593e-14 0.435584 -1.84255e-16 -6.62243e-16)
(8.8309e-16 -3.00201e-30 -1.87626e-31 13.2694 -3.47074e-15 4.30409e-17 0.435584 -2.25699e-16 -2.62544e-17)
(-6.51475e-16 1.37023e-29 4.70034e-31 13.2567 5.87433e-15 -2.06936e-14 0.455863 -1.95288e-16 -7.30143e-16)
(0 -5.73113e-30 -3.58196e-31 13.2567 -3.93145e-15 2.28778e-17 0.455863 -2.56672e-16 -3.20908e-17)
(0 8.20596e-30 1.36766e-30 13.2423 6.04927e-15 -2.17604e-14 0.477018 -1.99623e-16 -8.03707e-16)
(0 -2.73532e-30 -1.02574e-30 13.2423 -4.04098e-15 1.93028e-17 0.477018 -2.98587e-16 -3.87813e-17)
(0 7.83299e-30 1.3055e-30 13.2258 6.43887e-15 -2.28519e-14 0.499058 -2.26939e-16 -8.83764e-16)
(0 -2.611e-30 -2.42398e-31 13.2258 -3.81196e-15 -3.45127e-31 0.499058 -3.40718e-16 -4.57905e-17)
(0 4.98464e-30 6.2308e-31 13.2062 6.932e-15 -2.00339e-14 0.521976 -2.48509e-16 -6.59125e-16)
(-7.01526e-16 -2.49232e-30 0 13.2062 -3.91284e-15 -1.86032e-17 0.521976 -3.76469e-16 -5.38441e-17)
(-1.41222e-15 1.15404e-29 1.98308e-30 13.1824 7.60801e-15 -1.39649e-14 0.545744 -2.88078e-16 -4.66924e-16)
(-1.48516e-15 -2.37904e-30 -8.92141e-31 13.1824 -4.49695e-15 -1.94119e-17 0.545744 -4.17888e-16 -6.23639e-17)
(4.0575e-16 6.89589e-30 8.75988e-31 13.1528 7.77358e-15 -1.12396e-14 0.570302 -3.28767e-16 -4.86757e-16)
(-3.246e-15 -2.27091e-30 -7.56506e-31 13.1528 -4.70938e-15 -2.44775e-17 0.570302 -4.69395e-16 -7.02409e-17)
(-4.41819e-16 1.51853e-29 1.8975e-30 13.1154 7.61029e-15 -1.11563e-14 0.595547 -3.30542e-16 -5.04869e-16)
(0 -1.30062e-29 -1.62577e-30 13.1154 -4.79829e-15 -4.71979e-17 0.595547 -5.20243e-16 -7.84069e-17)
(4.79566e-16 -1.04438e-29 -1.32064e-30 13.0673 7.50203e-15 -1.09197e-14 0.621322 -3.45968e-16 -5.11666e-16)
(-1.91827e-15 8.27668e-30 1.03458e-30 13.0673 -5.32653e-15 -4.98485e-17 0.621322 -5.8801e-16 -8.60773e-17)
(0 -5.92537e-30 -9.87561e-31 13.005 7.27905e-15 -1.05222e-14 0.647394 -3.52452e-16 -5.14413e-16)
(2.07624e-15 7.90049e-30 9.87561e-31 13.005 -5.09535e-15 -1.05657e-16 0.647394 -6.70868e-16 -9.36975e-17)
(-5.60368e-16 5.91727e-30 -1.56151e-31 12.9242 7.06201e-15 -1.01487e-14 0.673446 -3.5744e-16 -5.22488e-16)
(6.72441e-15 -3.7707e-30 4.71337e-31 12.9242 -4.56395e-15 -9.74128e-17 0.673446 -7.40223e-16 -1.02267e-16)
(1.01312e-15 -7.19863e-30 -1.34974e-30 12.8196 7.32201e-15 -9.51628e-15 0.699061 -3.64117e-16 -4.95277e-16)
(0 8.99829e-30 1.34974e-30 12.8196 -4.9521e-15 -4.06846e-17 0.699061 -8.19382e-16 -1.07748e-16)
(0 -3.43572e-30 0 12.6856 8.44793e-15 -8.48282e-15 0.72372 -4.20777e-16 -4.54809e-16)
(-9.6707e-16 3.43572e-30 0 12.6856 -6.49029e-15 3.72024e-17 0.72372 -9.06681e-16 -1.13696e-16)
(6.95641e-16 -2.08778e-30 -3.73609e-31 12.5159 8.00183e-15 -7.36339e-15 0.746814 -5.28852e-16 -4.08958e-16)
(0 0 0 12.5159 -6.30202e-15 9.55675e-17 0.746814 -1.01492e-15 -1.14977e-16)
(1.76232e-15 -9.3915e-30 -1.95656e-30 12.3046 8.86461e-15 -5.89482e-15 0.76767 -4.08159e-16 -3.14153e-16)
(0 9.3915e-30 2.34788e-30 12.3046 -5.87266e-15 1.15879e-16 0.76767 -1.10103e-15 -1.14436e-16)
(-7.95346e-16 8.00983e-30 1.91129e-30 12.0468 1.02427e-14 -4.27082e-15 0.785602 -6.89101e-16 -2.3451e-16)
(3.18138e-15 -2.98822e-30 0 12.0468 -6.35233e-15 2.0216e-16 0.785602 -1.22065e-15 -1.11054e-16)
(-8.47863e-16 -6.53221e-30 -1.70095e-30 11.7391 9.76153e-15 -2.64174e-15 0.79998 -6.29825e-16 -1.19556e-16)
(5.17715e-15 8.55719e-30 2.8524e-30 11.7391 -6.58407e-15 2.44894e-16 0.79998 -1.33223e-15 -1.0161e-16)
(9.01941e-16 -1.99739e-30 -8.30794e-30 11.3808 1.00869e-14 -1.85051e-16 0.810296 -6.89761e-16 -6.54477e-18)
(-1.53277e-15 0 -6.80688e-31 11.3808 -7.18615e-15 2.22749e-16 0.810296 -1.48098e-15 -8.70391e-17)
(1.46311e-15 -1.0396e-29 -9.07911e-31 10.9739 9.45396e-15 2.40993e-29 0.816232 -7.3835e-16 3.9443e-31)
(6.19564e-15 1.0396e-29 3.8985e-30 10.9739 -6.21498e-15 2.05372e-16 0.816232 -1.62611e-15 -6.94234e-17)
(1.01378e-15 -1.96386e-30 1.91316e-31 10.5235 8.83687e-15 2.80505e-15 0.817704 -6.60981e-16 -1.32386e-16)
(4.0551e-15 0 -6.20217e-31 10.5235 -6.43214e-15 1.76267e-16 0.817704 -1.75344e-15 -4.51694e-17)
(1.33313e-15 -4.73622e-30 -1.77608e-30 10.0374 9.07283e-15 4.54201e-15 0.814862 -7.12245e-16 -3.07199e-16)
(0 4.73622e-30 1.77608e-30 10.0374 -7.56394e-15 1.84133e-16 0.814862 -1.93046e-15 -1.80462e-17)
(-1.1284e-15 -2.60717e-30 -1.3363e-30 9.52512 9.31449e-15 2.93288e-15 0.808065 -7.64721e-16 -4.34546e-16)
(4.51358e-15 6.78143e-30 2.26072e-30 9.52512 -6.54081e-15 2.0267e-16 0.808065 -2.09133e-15 1.58899e-17)
(-2.37177e-15 1.60981e-30 2.80702e-31 8.99721 9.63631e-15 9.53991e-16 0.797827 -8.23848e-16 -5.64257e-17)
(4.74355e-15 2.15773e-30 5.65714e-31 8.99721 -5.8332e-15 1.44411e-16 0.797827 -2.21133e-15 9.74673e-18)
(-1.15949e-15 6.17898e-30 2.05966e-30 8.46397 1.08548e-14 1.55168e-15 0.784752 -8.98097e-16 -1.15243e-16)
(0 0 -5.14915e-31 8.46397 -6.00791e-15 1.71255e-17 0.784752 -2.38446e-15 9.69316e-17)
(-9.13935e-16 1.00253e-29 3.5453e-30 7.9348 1.17172e-14 1.90523e-15 0.769472 -1.13748e-15 -1.76365e-16)
(5.19854e-15 -7.86418e-30 -3.44058e-30 7.9348 -5.76686e-15 -2.93725e-17 0.769472 -2.58874e-15 1.29873e-16)
(1.35537e-15 -5.47582e-30 -2.25413e-30 7.41763 1.07748e-14 2.10632e-15 0.752589 -1.15863e-15 -1.97396e-16)
(5.42149e-15 3.75337e-30 1.87669e-30 7.41763 -6.10214e-15 2.49336e-17 0.752589 -2.78927e-15 1.53693e-16)
(3.42701e-15 -7.08038e-30 -8.12349e-31 6.91865 8.42525e-15 2.23133e-15 0.734649 -1.05037e-15 -2.35816e-16)
(3.62341e-15 3.58278e-30 4.47847e-31 6.91865 -6.19833e-15 7.99563e-17 0.734649 -2.97065e-15 1.71788e-16)
(1.46363e-15 3.40301e-30 4.97392e-31 6.44233 6.04693e-15 2.43374e-15 0.716116 -7.54356e-16 -2.44161e-16)
(-1.92525e-15 0 -4.27492e-31 6.44233 -5.4668e-15 3.82619e-17 0.716116 -3.13512e-15 1.99055e-16)
(3.67549e-15 -6.52898e-30 -4.08061e-31 5.99157 5.69093e-15 2.76081e-15 0.697371 -6.04282e-16 -3.05488e-16)
(-1.83775e-15 3.26449e-30 4.08061e-31 5.99157 -4.65233e-15 -6.92814e-18 0.697371 -3.26416e-15 2.15273e-16)
(-3.13381e-15 6.48018e-30 1.42976e-30 5.56794 6.87431e-15 2.78065e-15 0.678711 -7.41894e-16 -3.46988e-16)
(0 0 -3.89514e-31 5.56794 -5.01347e-15 4.07667e-17 0.678711 -3.40164e-15 2.25535e-16)
(1.61654e-15 1.35217e-30 4.29628e-31 5.17194 7.73288e-15 2.62767e-15 0.660362 -9.6272e-16 -3.40294e-16)
(-6.46618e-15 0 0 5.17194 -5.12666e-15 -1.01723e-17 0.660362 -3.6413e-15 2.25498e-16)
(4.8616e-15 -7.26435e-30 -1.01167e-30 4.80332 7.114e-15 2.50934e-15 0.642486 -1.04189e-15 -3.40254e-16)
(6.65939e-15 2.83929e-30 7.09822e-31 4.80332 -3.64486e-15 6.69655e-17 0.642486 -3.76733e-15 2.19426e-16)
(1.71183e-15 -1.58459e-30 -9.67326e-31 4.46123 6.6899e-15 2.66665e-15 0.625196 -8.84667e-16 -3.40601e-16)
(-8.37304e-15 0 6.7756e-31 4.46123 -3.67398e-15 -1.48424e-16 0.625196 -3.90374e-15 2.22833e-16)
(0 2.58705e-30 9.70145e-31 4.14449 6.55805e-15 2.78062e-15 0.608561 -1.02005e-15 -4.19208e-16)
(0 -2.58705e-30 -6.46763e-31 4.14449 -4.73441e-15 -2.79606e-16 0.608561 -4.08989e-15 1.88092e-16)
(-1.80196e-15 1.52754e-30 8.68365e-31 3.85165 6.29906e-15 2.74429e-15 0.592623 -9.30724e-16 -4.08557e-16)
(-2.78037e-15 2.46947e-30 0 3.85165 -5.94655e-15 -1.48237e-16 0.592623 -4.23434e-15 1.56512e-16)
(0 -4.71445e-30 -1.17861e-30 3.58118 6.47571e-15 2.56342e-15 0.577398 -1.03679e-15 -4.48477e-16)
(0 2.35723e-30 1.17861e-30 3.58118 -5.57915e-15 4.14866e-17 0.577398 -4.54501e-15 1.24289e-16)
(-3.77454e-15 9.60894e-30 2.7031e-30 3.3315 5.34561e-15 2.17285e-15 0.562884 -1.08058e-15 -3.87874e-16)
(7.54908e-15 -6.75026e-30 -2.25009e-30 3.3315 -4.85417e-15 1.08441e-16 0.562884 -4.79881e-15 1.14783e-16)
(2.41823e-15 0 1.07391e-30 3.10104 4.82974e-15 2.31229e-15 0.549067 -7.41742e-16 -3.55295e-16)
(-7.71298e-15 0 -8.13639e-31 3.10104 -5.63456e-15 -1.50833e-16 0.549067 -5.09929e-15 4.14994e-17)
(3.93634e-15 -2.77656e-30 6.60836e-31 2.88831 5.51946e-15 2.72251e-15 0.535925 -9.96498e-16 -4.76897e-16)
(7.87268e-15 0 -1.0251e-30 2.88831 -3.07207e-15 -1.48346e-15 0.535925 -5.40232e-15 1.11094e-16)
(0 1.95701e-30 0 2.69187 5.91708e-15 3.04349e-15 0.52343 -1.0794e-15 -5.47747e-16)
(5.82496e-15 1.95701e-30 7.33879e-31 2.69187 -1.89901e-15 -2.50911e-15 0.52343 -5.57634e-15 -2.68548e-17)
(-2.10325e-15 3.73612e-30 1.40105e-30 2.51038 6.50668e-15 3.44846e-15 0.51155 -1.2539e-15 -6.52754e-16)
(2.10325e-15 -3.73612e-30 -1.40105e-30 2.51038 -4.41551e-15 -1.97734e-15 0.51155 -5.67657e-15 -1.44081e-16)
(0 3.56631e-30 1.11447e-30 2.34259 5.74853e-15 1.86971e-15 0.50025 -1.43357e-15 -7.72136e-16)
(0 -3.56631e-30 -1.11447e-30 2.34259 -3.60112e-15 -1.63344e-15 0.50025 -5.92212e-15 -2.48978e-16)
(0 0 1.75681e-31 2.18736 4.78933e-15 1.59911e-16 0.489495 -1.04082e-15 -1.80938e-17)
(6.55691e-15 0 -4.25527e-31 2.18736 -2.21709e-15 -1.62956e-15 0.489495 -6.23194e-15 -3.27817e-16)
(4.30743e-15 -7.34672e-31 8.14409e-32 2.04363 4.67343e-15 2.57385e-16 0.479251 -1.12888e-15 -1.02339e-16)
(0 -1.62475e-30 -8.12373e-31 2.04363 -2.74235e-15 -1.61176e-15 0.479251 -6.36345e-15 -4.07154e-16)
(-5.68064e-15 -4.10587e-31 -9.94966e-31 1.91043 4.32863e-15 -9.95043e-17 0.469482 -1.08603e-15 -6.91796e-17)
(1.75066e-14 1.5509e-30 1.16317e-30 1.91043 -1.24931e-15 -1.12887e-15 0.469482 -6.56996e-15 -4.64843e-16)
(2.2222e-15 -4.06773e-30 -5.37773e-31 1.78688 3.56654e-15 -3.01555e-16 0.460155 -1.06359e-15 -8.81852e-17)
(8.88879e-15 2.96081e-30 3.70102e-31 1.78688 4.06871e-16 -7.76658e-16 0.460155 -6.52978e-15 -5.03299e-16)
(-2.25536e-15 1.13073e-30 -1.59771e-30 1.67218 2.63048e-15 -2.03873e-16 0.451238 -7.85904e-16 -2.77857e-17)
(0 0 1.7664e-30 1.67218 7.6052e-16 -1.02086e-15 0.451238 -6.42781e-15 -7.01526e-16)
(0 0 -1.99098e-31 1.5656 2.887e-15 1.38051e-30 0.442699 -6.44839e-16 1.97215e-31)
(1.83029e-14 0 6.74446e-31 1.5656 4.26978e-16 -1.02679e-15 0.442699 -6.64634e-15 -7.3791e-16)
(2.31971e-15 -1.05771e-30 -1.25407e-30 1.46646 3.19184e-15 5.6003e-16 0.434509 -1.01252e-15 -8.37678e-17)
(9.27886e-15 0 6.43791e-31 1.46646 6.97717e-16 -5.46411e-16 0.434509 -6.63228e-15 -6.8241e-16)
(2.7676e-15 -2.45812e-30 0 1.37418 2.13798e-15 5.64783e-16 0.426638 -8.94441e-16 -3.95334e-16)
(6.63623e-15 2.45812e-30 0 1.37418 6.55567e-16 1.24672e-16 0.426638 -6.62491e-15 -7.6905e-16)
(0 0 3.06534e-45 1.28818 1.30327e-15 2.74857e-30 0.41906 -4.34954e-16 1.97215e-31)
(-9.52645e-15 2.69234e-30 0 1.28818 -4.40312e-17 5.34317e-16 0.41906 -6.20496e-15 -7.35739e-16)
(2.41171e-15 -1.16573e-30 -4.56506e-31 1.20798 2.00282e-15 1.07673e-15 0.411748 -4.20491e-16 -2.04998e-16)
(9.64682e-15 -6.25139e-31 2.79968e-31 1.20798 1.18862e-15 5.57337e-16 0.411748 -5.8506e-15 -6.81575e-16)
(2.44126e-15 1.07917e-30 4.40731e-31 1.13311 2.54061e-15 1.31929e-15 0.404679 -9.70049e-16 -5.43568e-16)
(-2.40712e-15 0 0 1.13311 2.03899e-15 -3.00463e-16 0.404679 -5.6484e-15 -5.57891e-16)
(-1.7258e-16 -1.00239e-30 -6.76657e-31 1.06316 3.03519e-15 7.26722e-16 0.397828 -8.58279e-16 -4.03955e-16)
(1.74646e-14 -1.34233e-30 2.55097e-31 1.06316 1.01071e-15 -7.02826e-16 0.397828 -5.49012e-15 -6.44053e-16)
(-4.69209e-15 8.11328e-31 -8.56531e-32 0.997756 3.46969e-15 3.37665e-16 0.391172 -1.44691e-15 -1.38533e-16)
(-9.99527e-15 3.31341e-30 2.43502e-31 0.997756 -1.13631e-15 -2.22443e-16 0.391172 -4.09111e-15 -8.36041e-16)
(2.09359e-15 -1.85948e-30 -2.32435e-31 0.936546 2.06369e-15 3.8748e-16 0.38469 -1.29381e-15 -1.28298e-16)
(-2.09359e-15 0 0 0.936546 -1.86746e-15 -1.16037e-16 0.38469 -1.82698e-15 -8.31992e-16)
(-5.10886e-15 1.70597e-30 -1.8497e-31 0.879214 -9.12968e-16 4.56126e-16 0.378359 -1.22544e-15 -1.94298e-16)
(0 0 0 0.879214 -1.74403e-15 7.54051e-16 0.378359 -9.55232e-16 -7.9507e-16)
(-2.58155e-15 1.01099e-30 1.37705e-31 0.825472 -1.8829e-15 8.87703e-16 0.372161 -4.69248e-16 -2.01814e-16)
(-1.03262e-14 3.53374e-30 -2.11786e-31 0.825472 -1.5044e-15 8.10321e-16 0.372161 -1.13426e-15 -6.48059e-16)
(0 3.01239e-47 0 0.775053 8.75183e-30 1.86295e-15 0.366073 0 -8.47647e-16)
(-3.64179e-15 0 0 0.775053 -6.40025e-16 4.43509e-16 0.366073 -1.20358e-15 -5.51251e-16)
(-1.79263e-15 1.88729e-30 0 0.727715 1.19801e-15 1.12893e-15 0.360075 -9.12095e-16 -6.34672e-16)
(-3.47626e-15 0 0 0.727715 -1.49249e-15 1.99578e-16 0.360075 -1.30997e-15 -3.32203e-16)
(2.66026e-15 -8.8158e-31 -1.84201e-31 0.683232 -5.64663e-16 -4.63849e-16 0.354148 -1.49237e-15 -3.25668e-16)
(0 0 -3.74409e-45 0.683232 -2.48531e-15 -8.34174e-31 0.354148 -1.28807e-15 -4.93038e-32)
(-2.20385e-15 3.98956e-31 -1.75828e-31 0.641398 -1.59154e-15 -1.41289e-15 0.348269 -1.8946e-15 -3.85052e-16)
(1.07426e-14 -1.96182e-44 0 0.641398 -4.53595e-30 4.8459e-17 0.348269 -1.36106e-45 -2.26416e-16)
(5.7341e-15 -1.08937e-30 -1.10396e-30 0.602023 -1.00865e-15 -2.26641e-30 0.342417 -6.86222e-16 0)
(1.86615e-14 -9.54388e-30 3.35673e-31 0.602023 1.22561e-15 1.18486e-16 0.342417 -3.51596e-16 -7.50296e-16)
(2.88606e-15 -2.56333e-30 -1.04844e-30 0.564929 -9.79773e-16 2.19439e-16 0.336571 -9.04774e-16 -6.59491e-17)
(8.05472e-15 -4.07273e-30 6.40833e-31 0.564929 9.56236e-16 -2.05233e-17 0.336571 -1.21691e-15 -5.6757e-16)
(-2.75936e-15 0 0 0.529952 -3.9443e-30 1.51649e-15 0.330705 -1.57772e-30 -4.67032e-16)
(0 2.44682e-30 3.05853e-31 0.529952 2.37303e-15 -9.40109e-16 0.330705 -1.62492e-15 -7.13764e-16)
(0 -2.74023e-30 0 0.49694 9.56481e-16 1.83046e-15 0.324795 -3.15483e-16 -3.61475e-16)
(2.2265e-14 -1.32834e-30 -1.75162e-45 0.49694 6.71931e-16 -7.70294e-31 0.324795 -4.47175e-15 -1.9663e-46)
(-2.8065e-15 9.78369e-31 0 0.46575 1.17358e-15 1.18439e-15 0.318812 -1.61096e-15 3.69522e-16)
(1.1226e-14 -4.95616e-30 -4.96588e-31 0.46575 -2.03642e-15 2.16669e-16 0.318812 -7.03671e-16 -7.48685e-17)
(-2.82946e-15 1.23702e-30 -2.66015e-31 0.436249 1.9109e-16 1.21379e-15 0.312727 -2.21192e-16 8.97764e-16)
(-1.611e-14 6.7879e-30 2.66015e-31 0.436249 3.8457e-30 1.05948e-15 0.312727 0 -4.15225e-16)
(-4.5743e-15 -2.77681e-32 -6.34812e-31 0.408308 8.21485e-16 -2.81556e-15 0.306504 -3.11534e-16 1.2346e-15)
(1.14081e-14 -4.00741e-30 6.66552e-31 0.408308 2.70225e-15 5.0451e-16 0.306504 -1.80514e-15 -4.51875e-16)
(0 0 1.4013e-45 0.38181 1.23145e-15 4.76003e-31 0.300105 -1.06728e-15 -6.16298e-33)
(0 1.93907e-30 4.84767e-31 0.38181 7.81226e-16 1.79414e-16 0.300105 -2.51075e-15 1.04166e-15)
(-2.89593e-15 1.28272e-30 2.31367e-31 0.35664 2.06337e-15 2.77595e-15 0.293486 -8.85467e-16 -3.78481e-16)
(-1.15837e-14 6.94475e-30 1.15683e-31 0.35664 -3.17063e-16 8.04488e-16 0.293486 -4.80933e-16 1.45846e-16)
(-3.97849e-15 0 -1.65638e-31 0.332687 2.37223e-15 7.90095e-16 0.286595 -2.58931e-15 3.28661e-16)
(-7.6905e-15 4.96162e-30 1.65638e-31 0.332687 7.55479e-16 1.09931e-15 0.286595 -6.58414e-16 7.93732e-16)
(2.93814e-15 -8.18446e-31 2.89867e-31 0.309846 2.68491e-15 -1.61766e-15 0.279372 -2.31404e-15 2.03609e-16)
(-1.17525e-14 4.93789e-30 -2.89867e-31 0.309846 1.4432e-15 1.12538e-15 0.279372 -6.59236e-16 1.19735e-15)
(1.02087e-14 1.10694e-30 -1.07989e-30 0.288012 1.28011e-16 -1.97215e-31 0.271747 -3.42668e-15 0)
(1.18343e-14 -4.27138e-30 9.05539e-31 0.288012 2.50658e-15 -1.3214e-15 0.271747 -2.61914e-15 1.0906e-15)
(5.95712e-15 -5.58452e-30 -3.84169e-31 0.267079 -2.16937e-30 -4.9548e-16 0.263635 0 -4.90988e-16)
(0 1.53668e-30 0 0.267079 -1.1113e-16 -3.24608e-15 0.263635 -2.49975e-15 -3.85464e-16)
(2.99806e-15 -9.66963e-31 0 0.246941 1.54204e-16 -1.33706e-15 0.254931 -1.10833e-15 -1.271e-16)
(0 0 0 0.246941 -1.46745e-15 -9.4609e-16 0.254931 -7.70698e-16 -4.80744e-16)
(3.15289e-15 0 0 0.227489 -3.95504e-16 -2.33688e-17 0.24551 -1.16901e-15 3.1446e-16)
(0 -1.01539e-44 -1.35751e-44 0.227489 4.25273e-29 3.0641e-30 0.24551 -1.57772e-30 0)
(0 0 0 0.208606 2.30295e-17 9.17247e-16 0.235213 -1.56692e-16 -3.32976e-16)
(0 0 3.34131e-31 0.208606 8.29719e-16 8.19014e-16 0.235213 -1.35719e-15 -4.37851e-16)
(5.74559e-15 0 0 0.190164 -5.44334e-16 -6.28608e-16 0.223842 -1.56471e-15 -1.02589e-15)
(0 0 0 0.190164 -3.27651e-16 -2.14277e-15 0.223842 -1.91271e-15 -1.28644e-15)
(0 1.66404e-43 -6.08895e-31 0.172021 -3.74834e-29 -1.78194e-15 0.211143 -1.40276e-46 -8.29829e-16)
(0 1.95257e-31 6.08895e-31 0.172021 -5.35835e-16 -2.57167e-15 0.211143 -3.38968e-16 -2.28568e-16)
(6.17472e-15 -2.78144e-30 0 0.154012 6.29218e-16 1.17944e-15 0.19679 -4.16995e-16 6.21883e-16)
(1.23494e-14 -2.27778e-30 -5.95552e-45 0.154012 5.91316e-17 -1.33369e-30 0.19679 -3.91877e-17 0)
(0 1.10961e-30 1.38701e-31 0.135945 1.5532e-15 2.76983e-16 0.180361 -2.95397e-15 -5.15313e-16)
(0 0 -1.38701e-31 0.135945 8.2626e-16 2.70922e-15 0.180361 -6.52369e-15 1.21353e-15)
(-3.11845e-15 7.47445e-31 0 0.117593 1.42929e-15 1.61007e-31 0.161313 -1.32146e-15 3.25035e-47)
(1.24738e-14 -1.25283e-30 5.29586e-31 0.117593 -2.44911e-30 3.23434e-16 0.161313 -4.5138e-15 -3.79618e-16)
(-3.13275e-15 -2.18953e-47 -1.26379e-31 0.0986904 -1.08468e-30 2.0628e-16 0.138963 -2.8729e-15 1.64562e-15)
(4.55328e-15 -1.01103e-30 1.26379e-31 0.0986904 3.90282e-16 -1.25826e-15 0.138963 -3.21143e-15 1.93671e-15)
(0 0 0 0.0789438 -9.81675e-16 -2.92198e-15 0.112489 -2.02388e-15 3.90001e-16)
(2.51685e-14 -1.09849e-30 0 0.0789438 6.10901e-30 -3.30944e-15 0.112489 -4.37975e-15 -2.6585e-16)
(-3.15824e-15 1.33474e-43 1.87424e-44 0.0580625 3.00688e-29 4.23994e-30 0.0809997 -2.09532e-46 -1.59757e-46)
(1.2633e-14 -3.09994e-30 0 0.0580625 -9.42884e-16 -4.09817e-16 0.0809997 -9.13143e-16 -3.45118e-16)
(-7.92042e-15 2.63637e-30 0 0.035827 1.03954e-15 1.08536e-15 0.0436812 -9.10715e-16 -5.60929e-17)
(0 0 0 0.035827 6.92361e-16 1.3489e-17 0.0436812 -1.19052e-15 2.05968e-16)
(1.84099e-18 0 -8.39376e-31 1.73472e-18 1.52779e-15 1.17021e-15 1.84099e-18 -2.78803e-15 3.66147e-16)
(0 0 3.74764e-32 9.67802e-15 1.35035e-15 -1.75162e-46 1.06581e-14 -1.23934e-15 0)
(0 -2.56157e-33 -1.02463e-32 13.3705 -5.46398e-16 4.46968e-15 -0.0613706 5.02698e-15 1.39449e-16)
(0 2.56157e-33 8.96831e-44 13.3705 -2.19665e-17 -5.25859e-46 -0.0613706 9.30351e-18 -1.61662e-28)
(0 7.64107e-34 -1.46709e-32 13.3642 -5.10422e-16 1.29057e-15 -0.186976 1.91725e-14 4.14166e-16)
(0 2.09152e-33 -1.47993e-28 13.3642 6.16298e-33 -2.5372e-16 -0.186976 3.76775e-18 8.33526e-19)
(1.19535e-17 3.50101e-33 -1.40041e-32 13.3576 -1.26822e-15 6.50686e-16 -0.275433 1.73025e-14 4.61953e-16)
(0 -3.50101e-33 1.40041e-32 13.3576 -1.27736e-16 -1.45438e-16 -0.275433 1.99239e-17 1.10175e-18)
(0 0 0 13.3507 -1.04812e-15 6.93519e-16 -0.288395 1.6444e-14 5.10247e-16)
(-8.02694e-17 0 0 13.3507 -7.04693e-17 -1.90772e-16 -0.288395 3.25025e-17 1.54625e-18)
(4.14188e-17 4.25332e-33 -4.25332e-33 13.3435 -1.00405e-15 7.41233e-16 -0.30196 1.63306e-14 5.67987e-16)
(-1.65675e-16 -4.25332e-33 4.25332e-33 13.3435 -1.68688e-16 -2.41504e-16 -0.30196 4.66727e-17 2.24766e-18)
(0 1.624e-32 -4.872e-32 13.3359 -1.01295e-15 7.97073e-16 -0.316154 1.64718e-14 6.35951e-16)
(-2.41607e-16 -1.624e-32 4.872e-32 13.3359 -2.2546e-16 -3.02411e-16 -0.316154 6.27084e-17 3.39747e-18)
(0 0 0 13.328 -1.07934e-15 8.54429e-16 -0.331006 1.65058e-14 7.12524e-16)
(0 0 0 13.328 -1.90496e-16 -3.69748e-16 -0.331006 7.95904e-17 4.99753e-18)
(-1.33282e-16 7.39865e-33 -2.21959e-32 13.3196 -1.04693e-15 9.10883e-16 -0.346544 1.64967e-14 7.97746e-16)
(-4.0436e-16 0 7.39865e-33 13.3196 -1.95017e-16 -4.32994e-16 -0.346544 9.89106e-17 7.12969e-18)
(-8.68764e-18 5.64989e-32 -8.47484e-32 13.3108 -1.0586e-15 9.73319e-16 -0.362799 1.64779e-14 8.92182e-16)
(0 -4.23742e-32 7.7686e-32 13.3108 -2.39124e-16 -4.92297e-16 -0.362799 1.2054e-16 9.7783e-18)
(1.45695e-16 2.69655e-32 -4.71896e-32 13.3015 -1.26074e-15 1.03754e-15 -0.3798 1.64566e-14 9.96609e-16)
(-5.82781e-16 -2.69655e-32 7.41551e-32 13.3015 -2.93153e-16 -5.53465e-16 -0.3798 1.4361e-16 1.29269e-17)
(2.31844e-16 -1.28699e-32 2.57399e-32 13.2916 -1.46806e-15 1.09163e-15 -0.397579 1.64329e-14 1.11202e-15)
(-6.78328e-16 3.86098e-32 -2.57399e-32 13.2916 -4.10398e-16 -6.15532e-16 -0.397579 1.71027e-16 1.66406e-17)
(0 4.91399e-32 -6.14249e-32 13.281 -1.53505e-15 1.14562e-15 -0.416164 1.64064e-14 1.23964e-15)
(-7.78361e-16 -6.14249e-32 8.59948e-32 13.281 -3.17076e-16 -6.80235e-16 -0.416164 1.99397e-16 2.10041e-17)
(-2.20772e-16 3.51798e-32 -5.8633e-32 13.2694 -1.54581e-15 1.20125e-15 -0.435584 1.63723e-14 1.38052e-15)
(8.8309e-16 -2.34532e-32 3.43197e-32 13.2694 -9.3541e-17 -7.33442e-16 -0.435584 2.25699e-16 2.4705e-17)
(-2.48183e-16 6.71617e-32 -1.2313e-31 13.2567 -1.47943e-15 1.24938e-15 -0.455863 1.63363e-14 1.53602e-15)
(-9.92732e-16 1.02536e-29 1.25874e-31 13.2567 -7.89643e-17 -7.70645e-16 -0.455863 2.56672e-16 2.71464e-17)
(0 6.41091e-32 -1.28218e-31 13.2423 -1.36232e-15 1.30761e-15 -0.477018 1.62984e-14 1.70761e-15)
(-1.10752e-15 -6.41091e-32 1.33634e-31 13.2423 -7.33399e-16 -7.97167e-16 -0.477018 2.98587e-16 2.90255e-17)
(6.1384e-16 0 0 13.2258 -1.48024e-15 1.36993e-15 -0.499058 1.62536e-14 1.89644e-15)
(0 0 0 13.2258 -4.19485e-16 -8.23774e-16 -0.499058 3.40718e-16 3.18025e-17)
(-3.38369e-16 0 0 13.2062 -1.71408e-15 1.42537e-15 -0.521976 1.6207e-14 2.10419e-15)
(1.35347e-15 3.89425e-32 -6.02274e-32 13.2062 -7.49106e-17 -8.38731e-16 -0.521976 3.76469e-16 3.30388e-17)
(-7.29382e-17 3.71725e-32 -1.11518e-31 13.1824 -1.99259e-15 1.44612e-15 -0.545744 1.61527e-14 2.2546e-15)
(-2.1548e-15 3.46027e-31 9.17616e-32 13.1824 -6.90619e-17 -7.91504e-16 -0.545744 4.17888e-16 3.0989e-17)
(1.04495e-15 -7.0966e-32 8.87074e-32 13.1528 -2.12408e-15 1.41939e-15 -0.570302 1.60932e-14 2.35642e-15)
(0 3.5483e-32 -1.06449e-31 13.1528 -1.18925e-16 -7.24662e-16 -0.570302 4.69395e-16 3.04562e-17)
(4.41819e-16 6.77404e-32 -1.35481e-31 13.1154 -1.6893e-15 1.414e-15 -0.595547 1.60329e-14 2.46292e-15)
(0 7.73217e-30 2.20156e-31 13.1154 -2.09367e-16 -6.66297e-16 -0.595547 5.20243e-16 2.87014e-17)
(1.06199e-15 -1.29323e-31 1.29323e-31 13.0673 -1.4323e-15 1.44329e-15 -0.621322 1.59614e-14 2.57289e-15)
(-1.91827e-15 9.69923e-32 -8.08102e-32 13.0673 -1.13147e-15 -6.07317e-16 -0.621322 5.8801e-16 2.78053e-17)
(5.19061e-16 0 0 13.005 -1.6854e-15 1.46617e-15 -0.647394 1.58917e-14 2.68344e-15)
(-5.55947e-16 0 1.54306e-32 13.005 -1.16155e-15 -5.57549e-16 -0.647394 6.70868e-16 2.65314e-17)
(1.12074e-15 -1.17834e-31 1.32564e-31 12.9242 -1.82319e-15 1.46734e-15 -0.673446 1.58251e-14 2.79365e-15)
(0 1.17834e-31 -1.32564e-31 12.9242 -1.24252e-15 -4.55571e-16 -0.673446 7.40223e-16 1.98509e-17)
(0 -5.62393e-32 8.4359e-32 12.8196 -1.75829e-15 1.48242e-15 -0.699061 1.57579e-14 2.90518e-15)
(0 5.62393e-32 -1.40598e-31 12.8196 -1.26261e-15 -3.86106e-16 -0.699061 8.19382e-16 2.15072e-17)
(0 -1.07366e-31 0 12.6856 -1.8653e-15 1.48401e-15 -0.72372 1.56759e-14 3.00839e-15)
(0 1.07366e-31 0 12.6856 -4.68959e-16 -2.98983e-16 -0.72372 9.06681e-16 1.17863e-17)
(0 2.56216e-31 -4.09945e-31 12.5159 -1.77299e-15 1.38249e-15 -0.746814 1.55729e-14 3.1011e-15)
(-9.23115e-16 -5.63395e-31 -4.1387e-31 12.5159 -1.91875e-29 -7.99996e-17 -0.746814 1.01492e-15 2.349e-18)
(-1.36591e-16 0 2.20113e-31 12.3046 -1.39146e-15 1.33877e-15 -0.76767 1.54936e-14 3.18377e-15)
(8.81158e-16 0 0 12.3046 -7.89979e-16 -2.03086e-44 -0.76767 1.10103e-15 0)
(0 9.33817e-32 -1.86763e-31 12.0468 -1.77105e-15 1.32807e-15 -0.785602 1.53413e-14 3.24064e-15)
(2.34028e-15 -9.33817e-32 -1.30981e-30 12.0468 -8.27969e-16 1.13467e-16 -0.785602 1.22065e-15 3.65654e-18)
(-8.47863e-16 1.78275e-31 -2.67412e-31 11.7391 -2.10738e-15 1.21004e-15 -0.79998 1.52214e-14 3.27816e-15)
(-1.60576e-15 -1.78275e-31 1.78275e-31 11.7391 -1.1014e-15 4.62918e-16 -0.79998 1.33223e-15 2.14371e-17)
(1.80388e-15 -2.55258e-31 2.55258e-31 11.3808 -1.73728e-15 1.09162e-15 -0.810296 1.50824e-14 3.28834e-15)
(3.60776e-15 2.55258e-31 -2.80513e-31 11.3808 -1.12577e-15 6.85325e-16 -0.810296 1.48098e-15 4.15427e-17)
(1.91469e-15 0 0 10.9739 -2.13054e-15 9.1836e-16 -0.816232 1.49256e-14 3.27109e-15)
(0 0 0 10.9739 -1.14983e-15 9.20506e-16 -0.816232 1.62611e-15 5.574e-17)
(0 1.55054e-31 -2.71345e-31 10.5235 -2.95617e-15 6.64568e-16 -0.817704 1.48121e-14 3.22295e-15)
(0 -1.55054e-31 3.87636e-31 10.5235 -1.37881e-15 1.14564e-15 -0.817704 1.75344e-15 4.51694e-17)
(1.33313e-15 -1.48007e-31 1.48007e-31 10.0374 -2.7646e-15 3.89881e-16 -0.814862 1.46973e-14 3.1355e-15)
(0 1.48007e-31 -2.2201e-31 10.0374 -7.5475e-16 1.32406e-15 -0.814862 1.93046e-15 1.80462e-17)
(2.40093e-15 0 4.11718e-31 9.52512 -2.29219e-15 3.93753e-29 -0.808065 1.45549e-14 3.02178e-15)
(-1.27253e-15 0 -2.82559e-31 9.52512 -7.47003e-17 1.5576e-15 -0.808065 2.09133e-15 -1.6328e-17)
(0 4.04575e-31 -4.04575e-31 8.99721 -2.02367e-15 -2.5792e-16 -0.797827 1.43979e-14 3.01127e-15)
(0 7.00649e-45 4.04575e-31 8.99721 -2.75055e-29 1.66217e-15 -0.797827 2.21133e-15 -5.70899e-17)
(1.24306e-15 0 0 8.46397 -2.40454e-16 -5.32567e-16 -0.784752 1.42146e-14 2.99048e-15)
(0 1.28729e-31 0 8.46397 -2.04909e-15 1.54304e-15 -0.784752 2.38446e-15 -9.69316e-17)
(-9.13935e-16 6.14389e-31 -3.68634e-31 7.9348 1.43456e-15 -4.17173e-16 -0.769472 1.38985e-14 2.96348e-15)
(5.19854e-15 -3.68634e-31 2.45756e-31 7.9348 -2.49972e-15 1.19258e-15 -0.769472 2.58874e-15 -1.29873e-16)
(1.35537e-15 2.34586e-31 -5.86464e-32 7.41763 5.9366e-17 -1.38886e-16 -0.752589 1.35701e-14 2.91715e-15)
(3.30853e-15 0 -5.86464e-32 7.41763 -1.34944e-15 7.94532e-16 -0.752589 2.78927e-15 -1.53693e-16)
(4.83709e-15 2.23923e-31 3.27042e-31 6.91865 -1.46618e-15 -3.07964e-16 -0.734649 1.3345e-14 2.86233e-15)
(-2.01692e-15 0 0 6.91865 -2.42925e-16 7.59939e-16 -0.734649 2.97065e-15 -1.71788e-16)
(2.92726e-15 0 0 6.44233 -1.07929e-15 -7.31534e-16 -0.716116 1.31979e-14 2.82088e-15)
(-1.92525e-15 2.13746e-31 0 6.44233 2.40274e-16 7.38475e-16 -0.716116 3.13512e-15 -1.99055e-16)
(-3.21822e-16 4.08061e-31 -1.02015e-31 5.99157 -2.9126e-17 -5.75581e-16 -0.697371 1.30656e-14 2.76616e-15)
(6.06369e-15 1.81197e-30 0 5.99157 3.07409e-29 4.58115e-16 -0.697371 3.26416e-15 -2.15273e-16)
(1.5669e-15 0 0 5.56794 -1.97219e-16 -1.43496e-16 -0.678711 1.28622e-14 2.69149e-15)
(0 7.90199e-30 0 5.56794 -6.10248e-16 1.28552e-16 -0.678711 3.40164e-15 -2.25535e-16)
(-3.23309e-15 0 0 5.17194 -1.64467e-15 9.39724e-17 -0.660362 1.26528e-14 2.60285e-15)
(-1.67449e-15 0 -9.29526e-32 5.17194 -5.62043e-16 -8.20095e-17 -0.660362 3.6413e-15 -2.25498e-16)
(3.26322e-15 -1.77456e-31 8.87278e-32 4.80332 -1.94938e-15 5.9954e-17 -0.642486 1.24686e-14 2.51529e-15)
(6.65939e-15 2.09129e-30 0 4.80332 0 -1.09503e-16 -0.642486 3.76733e-15 -2.19426e-16)
(0 5.0817e-31 1.34814e-30 4.46123 -1.49983e-15 -1.89715e-29 -0.625196 1.23029e-14 2.42859e-15)
(-9.89877e-15 -1.6939e-31 0 4.46123 -8.48916e-16 -2.80037e-16 -0.625196 3.90374e-15 -2.22833e-16)
(1.75752e-15 -1.61691e-31 0 4.14449 -1.64126e-15 5.55306e-17 -0.608561 1.20989e-14 2.32857e-15)
(7.03007e-15 1.61691e-31 0 4.14449 2.80513e-16 -6.12257e-16 -0.608561 4.08989e-15 -1.88092e-16)
(4.58233e-15 3.08684e-31 4.37906e-47 3.85165 -9.07561e-16 0 -0.592623 1.19378e-14 2.21719e-15)
(-9.9882e-15 -2.35053e-30 7.71709e-32 3.85165 -3.01246e-29 -6.69674e-16 -0.592623 4.23434e-15 -1.56512e-16)
(-8.08811e-16 -2.94653e-31 1.47327e-31 3.58118 3.41535e-16 -1.52944e-16 -0.577398 1.16761e-14 2.12319e-15)