/*--------------------------------*- C++ -*----------------------------------*\
| =========                 |                                                 |
| \\      /  F ield         | OpenFOAM: The Open Source CFD Toolbox           |
|  \\    /   O peration     | Version:  2106                                  |
|   \\  /    A nd           | Website:  www.openfoam.com                      |
|    \\/     M anipulation  |                                                 |
\*---------------------------------------------------------------------------*/
FoamFile
{
    version     2.0;
    format      ascii;
    arch        "LSB;label=32;scalar=64";
    class       volTensorField;
    location    "10000";
    object      grad(U);
}
// * * * * * * * * * * * * * * * * * * * * * * * * * * * * * * * * * * * * * //

dimensions      [0 0 -1 0 0 0 0];

internalField   nonuniform List<tensor> 
2000
(
(0 -1.05736e-25 1.77852e-31 10.5456 -7.56018e-12 -1.72717e-13 0.0195178 -6.99633e-15 -1.74124e-16)
(0 -6.50429e-30 -1.77852e-31 10.5456 -1.35044e-15 -5.80304e-15 0.0195178 -1.73419e-18 -1.02655e-17)
(0 -5.60519e-45 4.87529e-31 10.5436 -8.07794e-28 -3.0881e-14 0.0589105 0 -1.16432e-16)
(0 -3.19255e-29 -3.99069e-31 10.5436 -1.90141e-15 -3.77754e-16 0.0589105 -3.41538e-18 -1.12211e-17)
(-2.4018e-18 -9.97503e-30 -4.67606e-32 10.5417 1.03198e-12 -1.37574e-14 0.0817243 -1.05618e-14 -9.47207e-17)
(0 1.88043e-29 1.95878e-31 10.5417 -2.68049e-15 -2.53025e-16 0.0817243 -9.07651e-18 -1.16833e-17)
(-7.86294e-18 -9.18881e-30 -1.38171e-31 10.5398 3.89393e-13 -1.22132e-14 0.0832348 -5.24334e-15 -9.64287e-17)
(3.14518e-17 1.84597e-29 2.88433e-31 10.5398 -2.47587e-15 -2.73749e-16 0.0832348 -1.39444e-17 -1.21904e-17)
(0 1.2081e-29 1.88765e-31 10.5379 4.12296e-14 -1.23108e-14 0.0847733 -8.09564e-16 -9.98596e-17)
(-2.65663e-17 -6.04048e-30 0 10.5379 -2.51433e-15 -2.97015e-16 0.0847733 -1.8975e-17 -1.27512e-17)
(-2.60795e-17 2.37191e-29 4.63264e-31 10.536 -1.33759e-14 -1.24723e-14 0.0863402 -5.49695e-17 -1.02711e-16)
(-5.02801e-17 -2.37191e-29 -4.63264e-31 10.536 -2.55466e-15 -3.22111e-16 0.0863402 -2.42071e-17 -1.33708e-17)
(0 -7.65151e-30 -1.8191e-31 10.5341 1.85027e-27 -1.26209e-14 0.0879362 -3.15544e-30 -1.06102e-16)
(9.94378e-17 2.32845e-29 1.8191e-31 10.5341 -2.57197e-15 -3.48495e-16 0.0879362 -2.94807e-17 -1.40547e-17)
(0 5.71445e-30 -1.78577e-31 10.5322 9.82278e-15 -1.28349e-14 0.0895617 -9.39988e-17 -1.10222e-16)
(2.45885e-16 5.71445e-30 2.67865e-31 10.5322 -2.6108e-15 -3.76278e-16 0.0895617 -3.50691e-17 -1.48067e-17)
(-3.67205e-17 9.4206e-30 -1.88532e-32 10.5304 6.68457e-15 -1.31016e-14 0.0912172 -7.13189e-17 -1.1472e-16)
(0 0 1.75304e-31 10.5304 -2.6895e-15 -4.05744e-16 0.0912172 -4.08498e-17 -1.56371e-17)
(0 -1.10139e-29 -2.58138e-31 10.5285 4.54636e-15 -1.33884e-14 0.0929033 -4.31678e-17 -1.19438e-16)
(0 1.65208e-29 2.58138e-31 10.5285 -2.75386e-15 -4.36295e-16 0.0929033 -4.69317e-17 -1.65476e-17)
(9.51039e-17 -4.32482e-29 -1.01363e-30 10.5266 4.17938e-15 -1.36837e-14 0.0946205 -3.62678e-17 -1.24353e-16)
(0 4.32482e-29 1.01363e-30 10.5266 -2.8104e-15 -4.67378e-16 0.0946205 -5.31359e-17 -1.75377e-17)
(5.5347e-17 1.74152e-29 4.2272e-33 10.5247 4.36474e-15 -1.39856e-14 0.0963695 -3.81965e-17 -1.29467e-16)
(2.21388e-16 -1.59209e-29 0 10.5247 -2.89619e-15 -4.99795e-16 0.0963695 -5.95132e-17 -1.86174e-17)
(0 0 1.62804e-31 10.5228 4.57478e-15 -1.42937e-14 0.0981506 -4.10292e-17 -1.34788e-16)
(0 0 -1.62804e-31 10.5228 -3.02725e-15 -5.33969e-16 0.0981506 -6.64443e-17 -1.98007e-17)
(-1.58316e-16 3.44954e-29 8.8508e-31 10.5209 4.74127e-15 -1.46079e-14 0.0999646 -4.35545e-17 -1.40317e-16)
(0 -3.06855e-29 -6.39281e-31 10.5209 -3.10922e-15 -5.68783e-16 0.0999646 -7.38908e-17 -2.10835e-17)
(-1.63348e-16 2.89112e-29 2.46736e-31 10.519 4.80384e-15 -1.4928e-14 0.101812 -4.57393e-17 -1.46063e-16)
(0 -1.00411e-29 0 10.519 -3.18649e-15 -6.05017e-16 0.101812 -8.14695e-17 -2.24648e-17)
(2.55237e-16 -1.8593e-29 -5.55916e-31 10.517 4.78108e-15 -1.52543e-14 0.103693 -4.64071e-17 -1.52039e-16)
(-4.14021e-16 1.47856e-29 4.6205e-31 10.517 -3.29309e-15 -6.42745e-16 0.103693 -8.93415e-17 -2.39676e-17)
(0 -9.67644e-30 -3.02389e-31 10.5151 4.90803e-15 -1.55873e-14 0.105609 -4.70139e-17 -1.58257e-16)
(0 9.67644e-30 4.53583e-31 10.5151 -3.30098e-15 -6.81396e-16 0.105609 -9.78149e-17 -2.55893e-17)
(3.58742e-16 -3.61064e-29 -9.46923e-31 10.5131 5.07416e-15 -1.59265e-14 0.10756 -5.07061e-17 -1.64711e-16)
(2.16153e-16 2.37478e-29 5.93695e-31 10.5131 -3.30102e-15 -7.20459e-16 0.10756 -1.05957e-16 -2.73439e-17)
(-1.03004e-16 1.31282e-29 2.52634e-31 10.5111 5.1048e-15 -1.62727e-14 0.109547 -5.21853e-17 -1.71437e-16)
(-1.64048e-16 0 0 10.5111 -3.4098e-15 -7.61994e-16 0.109547 -1.14063e-16 -2.92394e-17)
(1.10324e-16 -1.7533e-29 -3.9771e-31 10.5091 5.2922e-15 -1.66262e-14 0.11157 -5.32555e-17 -1.78424e-16)
(4.41297e-16 2.28854e-29 4.29102e-31 10.5091 -3.5375e-15 -8.05544e-16 0.11157 -1.2306e-16 -3.12641e-17)
(-1.1778e-16 3.79978e-30 1.16545e-31 10.507 5.45852e-15 -1.69865e-14 0.113631 -5.81311e-17 -1.85691e-16)
(9.4224e-16 0 0 10.507 -3.61648e-15 -8.48692e-16 0.113631 -1.32109e-16 -3.3438e-17)
(-1.55194e-16 1.32326e-29 5.5136e-31 10.5049 5.47307e-15 -1.73542e-14 0.115729 -5.88601e-17 -1.93248e-16)
(5.01494e-16 -4.41088e-30 -2.7568e-31 10.5049 -3.7144e-15 -8.94537e-16 0.115729 -1.41319e-16 -3.57787e-17)
(1.5235e-16 -1.29901e-29 -8.11884e-31 10.5028 5.66746e-15 -1.77288e-14 0.117865 -6.06423e-17 -2.01097e-16)
(5.3243e-16 1.73202e-29 8.11884e-31 10.5028 -3.83193e-15 -9.41979e-16 0.117865 -1.51562e-16 -3.83014e-17)
(0 1.27521e-29 2.65669e-31 10.5007 5.85546e-15 -1.811e-14 0.12004 -6.54413e-17 -2.09248e-16)
(4.14378e-16 -4.2507e-30 0 10.5007 -3.95286e-15 -9.88231e-16 0.12004 -1.62559e-16 -4.09953e-17)
(-1.49006e-16 -4.55292e-30 -1.22573e-31 10.4984 5.91672e-15 -1.84987e-14 0.122255 -6.72263e-17 -2.17729e-16)
(0 1.66912e-29 5.21601e-31 10.4984 -4.00751e-15 -1.03688e-15 0.122255 -1.74268e-16 -4.38733e-17)
(2.88255e-16 -2.04817e-29 -1.02409e-30 10.4962 5.97777e-15 -1.88949e-14 0.12451 -6.93341e-17 -2.26532e-16)
(3.40451e-16 2.04817e-29 1.02409e-30 10.4962 -4.00415e-15 -1.08955e-15 0.12451 -1.86474e-16 -4.69662e-17)
(1.17475e-16 -8.275e-30 1.50424e-31 10.4939 5.96145e-15 -1.92979e-14 0.126806 -7.12081e-17 -2.35673e-16)
(0 1.60851e-29 2.5133e-31 10.4939 -4.03805e-15 -1.14399e-15 0.126806 -1.99325e-16 -5.02603e-17)
(-1.73972e-16 3.78698e-30 -9.66282e-32 10.4915 6.18143e-15 -2.16958e-14 0.129143 -7.15524e-17 -2.94109e-16)
(0 7.89518e-30 2.46724e-31 10.4915 -4.0745e-15 -1.20155e-15 0.129143 -2.12942e-16 -5.37685e-17)
(0 1.16258e-29 2.42203e-31 10.4891 6.65382e-15 -3.3209e-14 0.131523 -7.93074e-17 -5.33316e-16)
(-2.72697e-16 -3.87525e-30 0 10.4891 -4.25156e-15 -1.26164e-15 0.131523 -2.26792e-16 -5.75748e-17)
(-4.59092e-16 3.8019e-29 2.28118e-30 10.4866 6.99121e-15 -4.311e-14 0.133946 -8.60967e-17 -5.58154e-16)
(-7.65571e-16 -2.66297e-29 -1.66435e-30 10.4866 -4.33503e-15 -1.32235e-15 0.133946 -2.4224e-16 -6.16537e-17)
(2.00345e-16 -3.77786e-30 -1.56546e-31 10.484 7.14622e-15 -4.43028e-14 0.136412 -9.0916e-17 -5.84458e-16)
(8.01379e-16 0 0 10.484 -4.22583e-15 -1.38102e-15 0.136412 -2.57296e-16 -6.5992e-17)
(0 1.09983e-29 6.87393e-31 10.4814 7.06144e-15 -4.55264e-14 0.138923 -9.33754e-17 -6.11625e-16)
(0 -3.66609e-30 0 10.4814 -4.40147e-15 -1.4385e-15 0.138923 -2.71003e-16 -7.05512e-17)
(-7.25249e-16 1.8169e-29 1.53897e-30 10.4786 7.04326e-15 -4.67578e-14 0.141478 -9.20941e-17 -6.39738e-16)
(5.06502e-16 -1.43957e-29 -1.34959e-30 10.4786 -4.66701e-15 -1.49706e-15 0.141478 -2.86149e-16 -7.5385e-17)
(-2.28203e-16 2.37692e-31 -2.34653e-31 10.4758 7.35753e-15 -4.80078e-14 0.14408 -9.64031e-17 -6.6906e-16)
(0 1.05989e-29 8.83241e-31 10.4758 -4.7527e-15 -1.55299e-15 0.14408 -3.01829e-16 -8.04877e-17)
(0 -2.77458e-29 -2.60117e-30 10.4728 7.64848e-15 -4.34814e-14 0.146727 -1.0421e-16 -5.36996e-16)
(9.51332e-16 2.77458e-29 2.60117e-30 10.4728 -4.91089e-15 -1.60868e-15 0.146727 -3.17353e-16 -8.58693e-17)
(0 1.0214e-29 4.25584e-31 10.4698 7.73291e-15 -2.70785e-14 0.149422 -1.08189e-16 -2.26008e-16)
(0 -3.40467e-30 0 10.4698 -5.00277e-15 -1.66884e-15 0.149422 -3.34579e-16 -9.15991e-17)
(2.57628e-16 -3.76129e-30 1.01887e-31 10.4666 7.69115e-15 -1.58193e-14 0.152164 -1.10547e-16 -2.29807e-16)
(1.03051e-15 0 -4.17785e-31 10.4666 -4.73815e-15 -1.74024e-15 0.152164 -3.52367e-16 -9.76256e-17)
(1.93965e-16 -1.59278e-29 -1.7279e-30 10.4633 7.57303e-15 -1.57815e-14 0.154954 -1.11052e-16 -2.33404e-16)
(6.09432e-16 2.29672e-29 2.05065e-30 10.4633 -4.56712e-15 -1.82646e-15 0.154954 -3.69452e-16 -1.04092e-16)
(-2.78157e-16 -1.87907e-29 -1.28075e-30 10.4598 7.63497e-15 -1.57266e-14 0.157793 -1.11214e-16 -2.36809e-16)
(0 2.57673e-29 1.61046e-30 10.4598 -4.75987e-15 -1.92101e-15 0.157793 -3.88758e-16 -1.10985e-16)
(0 2.52951e-29 2.37142e-30 10.4562 7.87088e-15 -1.56672e-14 0.160681 -1.17106e-16 -2.40376e-16)
(1.15482e-15 -2.52951e-29 -2.37142e-30 10.4562 -5.04424e-15 -2.01873e-15 0.160681 -4.08887e-16 -1.18333e-16)
(-5.98895e-16 2.30159e-29 1.07567e-30 10.4524 8.0973e-15 -1.56136e-14 0.16362 -1.22656e-16 -2.44053e-16)
(1.19779e-15 -6.2079e-30 0 10.4524 -5.29894e-15 -2.11577e-15 0.16362 -4.29347e-16 -1.26315e-16)
(4.28837e-16 -1.21883e-29 -3.80884e-31 10.4484 8.37265e-15 -1.55574e-14 0.166608 -1.28609e-16 -2.47642e-16)
(0 1.52353e-29 3.80884e-31 10.4484 -5.43054e-15 -2.21129e-15 0.166608 -4.53506e-16 -1.34797e-16)
(0 -1.19649e-29 -7.47808e-31 10.4442 8.78168e-15 -1.54912e-14 0.169648 -1.36061e-16 -2.51099e-16)
(0 1.19649e-29 7.47808e-31 10.4442 -5.72549e-15 -2.30921e-15 0.169648 -4.7724e-16 -1.43778e-16)
(-3.32868e-16 9.60701e-30 1.09976e-30 10.4397 9.31086e-15 -1.54276e-14 0.172738 -1.46746e-16 -2.54868e-16)
(-1.33147e-15 0 0 10.4397 -5.95886e-15 -2.40843e-15 0.172738 -5.03828e-16 -1.53357e-16)
(3.44418e-16 2.03663e-30 3.4759e-31 10.4349 9.52369e-15 -1.53699e-14 0.17588 -1.58704e-16 -2.58615e-16)
(1.37767e-15 0 -7.20653e-31 10.4349 -5.91485e-15 -2.50469e-15 0.17588 -5.30104e-16 -1.63536e-16)
(-4.40336e-16 1.89133e-29 2.44914e-30 10.4299 9.38871e-15 -1.52899e-14 0.179074 -1.59452e-16 -2.61724e-16)
(-6.282e-16 -2.26383e-29 -2.82979e-30 10.4299 -5.98797e-15 -2.59496e-15 0.179074 -5.53353e-16 -1.74279e-16)
(-3.68154e-16 3.72142e-30 -3.06156e-31 10.4245 9.09777e-15 -1.51887e-14 0.18232 -1.60048e-16 -2.64817e-16)
(1.47262e-15 5.55587e-30 6.94483e-31 10.4245 -5.70544e-15 -2.68505e-15 0.18232 -5.80692e-16 -1.85441e-16)
(0 -2.18162e-29 -2.04527e-30 10.4188 9.12027e-15 -1.50723e-14 0.185617 -1.5528e-16 -2.67439e-16)
(3.04278e-15 2.72703e-29 2.72703e-30 10.4188 -5.4617e-15 -2.78617e-15 0.185617 -6.04951e-16 -1.97411e-16)
(1.14629e-15 -2.51298e-29 -3.75028e-30 10.4126 9.78381e-15 -1.49494e-14 0.188967 -1.66881e-16 -2.70334e-16)
(1.57105e-15 1.60623e-29 3.34632e-30 10.4126 -6.04744e-15 -2.8913e-15 0.188967 -6.28313e-16 -2.10215e-16)
(-4.05403e-16 8.96283e-30 1.06887e-30 10.406 1.03512e-14 -1.48288e-14 0.192368 -1.85222e-16 -2.73056e-16)
(-1.62161e-15 0 0 10.406 -6.68763e-15 -2.9942e-15 0.192368 -6.59517e-16 -2.23444e-16)
(7.26161e-16 -5.15968e-30 -1.28992e-30 10.3989 1.07173e-14 -1.47024e-14 0.195819 -1.94153e-16 -2.75756e-16)
(0 5.15968e-30 1.93488e-30 10.3989 -6.93859e-15 -3.09249e-15 0.195819 -6.9426e-16 -2.37194e-16)
(-1.14423e-15 2.3955e-29 2.96037e-30 10.3912 1.10707e-14 -1.4584e-14 0.199321 -2.05996e-16 -2.78802e-16)
(0 -1.51954e-29 -6.33142e-31 10.3912 -7.06776e-15 -3.18995e-15 0.199321 -7.28468e-16 -2.51974e-16)
(0 -9.94464e-30 -1.24308e-30 10.3829 1.13072e-14 -1.44594e-14 0.202873 -2.15032e-16 -2.81279e-16)
(0 9.94464e-30 1.86462e-30 10.3829 -7.10929e-15 -3.28667e-15 0.202873 -7.6892e-16 -2.67665e-16)
(0 9.7624e-30 1.83045e-30 10.3739 1.18954e-14 -1.43092e-14 0.206473 -2.23005e-16 -2.83323e-16)
(-1.83315e-15 -1.95248e-29 -2.4406e-30 10.3739 -7.24571e-15 -3.38343e-15 0.206473 -8.11389e-16 -2.83817e-16)
(4.7211e-16 1.07041e-29 1.34466e-30 10.3641 1.23718e-14 -1.41611e-14 0.21012 -2.46559e-16 -2.85871e-16)
(0 -4.79176e-30 -5.98969e-31 10.3641 -7.33631e-15 -3.48068e-15 0.21012 -8.50961e-16 -3.01092e-16)
(-4.86177e-16 -5.74385e-30 -1.27325e-31 10.3534 1.16513e-14 -1.39862e-14 0.213813 -2.50732e-16 -2.86771e-16)
(0 1.41118e-29 1.76398e-30 10.3534 -6.80293e-15 -3.58233e-15 0.213813 -8.94571e-16 -3.19046e-16)
(-1.00099e-15 -1.1148e-29 -1.37046e-30 10.3418 1.12609e-14 -1.37502e-14 0.217548 -2.26075e-16 -2.86709e-16)
(2.00198e-15 9.2355e-30 1.73166e-30 10.3418 -6.31319e-15 -3.70483e-15 0.217548 -9.33946e-16 -3.37809e-16)
(-5.15066e-16 3.65254e-30 -8.90586e-32 10.3291 1.16952e-14 -1.35093e-14 0.221325 -2.43749e-16 -2.87248e-16)
(0 0 5.66641e-31 10.3291 -6.76026e-15 -3.8335e-15 0.221325 -9.73071e-16 -3.57781e-16)
(-1.05979e-15 2.95397e-29 4.30973e-30 10.3152 1.18772e-14 -1.32569e-14 0.225139 -2.53218e-16 -2.86488e-16)
(-2.11958e-15 -2.22503e-29 -3.33755e-30 10.3152 -7.58445e-15 -3.96137e-15 0.225139 -1.02145e-15 -3.78604e-16)
(5.44983e-16 5.09977e-30 1.68976e-30 10.3 1.24441e-14 -1.298e-14 0.228988 -2.60884e-16 -2.85749e-16)
(-2.17993e-15 -1.74741e-29 -2.73032e-30 10.3 -8.05836e-15 -4.06877e-15 0.228988 -1.07136e-15 -4.00579e-16)
(-6.03548e-16 8.57693e-30 2.68029e-30 10.2833 1.29537e-14 -1.2696e-14 0.232867 -2.87985e-16 -2.8441e-16)
(0 0 -1.07212e-30 10.2833 -7.90405e-15 -4.15533e-15 0.232867 -1.11733e-15 -4.23467e-16)
(-1.1519e-15 -1.18079e-30 -5.56218e-31 10.265 1.29119e-14 -1.2414e-14 0.236772 -2.93812e-16 -2.83497e-16)
(4.6076e-15 8.41976e-30 1.05247e-30 10.265 -7.74033e-15 -4.2241e-15 0.236772 -1.1599e-15 -4.47336e-16)
(-5.91834e-16 1.60108e-29 2.58604e-30 10.245 1.29866e-14 -1.21221e-14 0.240699 -2.9691e-16 -2.81397e-16)
(2.36734e-15 -1.23982e-29 -2.06637e-30 10.245 -8.23989e-15 -4.27825e-15 0.240699 -1.20528e-15 -4.71805e-16)
(5.70973e-16 -1.2171e-29 -2.0285e-30 10.223 1.34694e-14 -1.17908e-14 0.24464 -3.08396e-16 -2.78302e-16)
(0 1.2171e-29 2.0285e-30 10.223 -8.56905e-15 -4.3445e-15 0.24464 -1.25661e-15 -4.96972e-16)
(-1.18493e-15 1.15583e-29 5.36403e-31 10.1988 1.41027e-14 -1.14617e-14 0.24859 -3.31231e-16 -2.7594e-16)
(2.49767e-15 0 9.95665e-31 10.1988 -8.3843e-15 -4.40294e-15 0.24859 -1.31381e-15 -5.23163e-16)
(0 3.90968e-30 9.7742e-31 10.1723 1.4492e-14 -1.11238e-14 0.252542 -3.50929e-16 -2.71987e-16)
(0 0 0 10.1723 -8.59254e-15 -4.44673e-15 0.252542 -1.36796e-15 -5.50283e-16)
(-6.58093e-16 7.40921e-30 1.51259e-30 10.1433 1.45867e-14 -1.07538e-14 0.256487 -3.63068e-16 -2.67598e-16)
(0 0 0 10.1433 -9.17932e-15 -4.49085e-15 0.256487 -1.42859e-15 -5.77955e-16)
(0 7.53541e-30 1.88385e-30 10.1115 1.48042e-14 -1.03561e-14 0.260417 -3.68949e-16 -2.61716e-16)
(0 -3.76771e-30 -9.41926e-31 10.1115 -9.26918e-15 -4.51086e-15 0.260417 -1.50188e-15 -6.06129e-16)
(0 -2.58906e-29 -3.69866e-30 10.0767 1.52222e-14 -9.9345e-15 0.264322 -3.87969e-16 -2.55526e-16)
(2.77149e-15 2.58906e-29 3.69866e-30 10.0767 -9.16046e-15 -4.5111e-15 0.264322 -1.57304e-15 -6.34881e-16)
(0 2.17853e-29 4.53861e-30 10.0386 1.53607e-14 -9.48707e-15 0.268192 -4.04823e-16 -2.47624e-16)
(0 -2.17853e-29 -4.53861e-30 10.0386 -9.6499e-15 -4.55264e-15 0.268192 -1.64655e-15 -6.65456e-16)
(-7.28756e-16 3.52233e-30 5.85446e-31 9.99709 1.57707e-14 -9.02846e-15 0.272017 -4.10004e-16 -2.40143e-16)
(2.91502e-15 3.56435e-30 8.91088e-31 9.99709 -9.84236e-15 -4.58427e-15 0.272017 -1.73122e-15 -6.9744e-16)
(0 -2.79923e-29 -4.3738e-30 9.95181 1.58071e-14 -8.58221e-15 0.275783 -4.42433e-16 -2.32163e-16)
(2.98843e-15 2.79923e-29 4.3738e-30 9.95181 -9.28813e-15 -4.56819e-15 0.275783 -1.81682e-15 -7.28523e-16)
(-7.65732e-16 2.41069e-29 4.03589e-30 9.90255 1.47331e-14 -8.04204e-15 0.279479 -4.27477e-16 -2.18622e-16)
(-3.06293e-15 -2.06095e-29 -3.43492e-30 9.90255 -9.03166e-15 -4.58664e-15 0.279479 -1.89577e-15 -7.59767e-16)
(9.49126e-16 -1.34879e-29 -1.68599e-30 9.84907 1.43716e-14 -7.37425e-15 0.283092 -3.98325e-16 -2.02414e-16)
(-4.08762e-15 1.34879e-29 1.68599e-30 9.84907 -8.51765e-15 -4.64477e-15 0.283092 -1.98357e-15 -7.92474e-16)
(-1.60756e-15 6.95473e-30 1.23204e-30 9.79112 1.49331e-14 -6.69034e-15 0.286607 -4.22747e-16 -1.86698e-16)
(3.21511e-15 0 0 9.79112 -8.11304e-15 -4.69007e-15 0.286607 -2.06533e-15 -8.26238e-16)
(-1.64639e-15 6.92439e-30 1.24555e-30 9.72849 1.53988e-14 -6.01626e-15 0.290012 -4.4631e-16 -1.69717e-16)
(0 0 0 9.72849 -8.54462e-15 -4.73865e-15 0.290012 -2.14788e-15 -8.61399e-16)
(0 -3.18998e-30 -1.59499e-30 9.66096 1.57517e-14 -5.29099e-15 0.293292 -4.66537e-16 -1.49536e-16)
(3.37145e-15 3.18998e-30 1.59499e-30 9.66096 -8.98675e-15 -4.22556e-15 0.293292 -2.22663e-15 -8.98974e-16)
(-1.74422e-15 3.16173e-29 5.33214e-30 9.58834 1.60223e-14 -4.56336e-15 0.296433 -4.84629e-16 -1.30945e-16)
(-3.45111e-15 -2.50522e-29 -3.9144e-30 9.58834 -9.32485e-15 -2.89711e-15 0.296433 -2.30766e-15 -9.26914e-16)
(8.82932e-16 -1.26431e-29 -1.40917e-30 9.51048 1.64424e-14 -3.81528e-15 0.299421 -5.00914e-16 -1.07867e-16)
(0 9.22242e-30 7.68535e-31 9.51048 -9.27613e-15 -2.01095e-15 0.299421 -2.39148e-15 -9.41164e-16)
(9.03317e-16 -1.24578e-29 -1.40014e-30 9.42724 1.65861e-14 -3.0325e-15 0.302241 -5.29458e-16 -8.5457e-17)
(-3.61327e-15 9.05342e-30 7.54452e-31 9.42724 -9.15958e-15 -1.87659e-15 0.302241 -2.46388e-15 -9.73277e-16)
(-1.84785e-15 1.86336e-29 3.52211e-30 9.33852 1.62553e-14 -2.27622e-15 0.304882 -5.29046e-16 -6.23066e-17)
(0 -5.92501e-30 -1.48125e-30 9.33852 -8.7506e-15 -1.77099e-15 0.304882 -2.54899e-15 -1.00967e-15)
(0 2.90822e-30 1.45411e-30 9.24426 1.67176e-14 -1.54219e-15 0.30733 -5.277e-16 -3.96133e-17)
(0 -1.16329e-29 -2.90822e-30 9.24426 -9.42674e-15 -1.56181e-15 0.30733 -2.622e-15 -1.04571e-15)
(9.65752e-16 -3.35887e-30 7.70589e-31 9.14444 1.68176e-14 -8.34356e-16 0.309574 -5.79882e-16 -1.64581e-17)
(-9.3332e-15 0 -1.42746e-30 9.14444 -1.0334e-14 -1.26945e-15 0.309574 -2.71606e-15 -1.08042e-15)
(9.86952e-16 -3.34803e-30 -2.46825e-30 9.03908 1.5585e-14 -3.96443e-29 0.311603 -5.54394e-16 0)
(0 0 1.40131e-30 9.03908 -8.98491e-15 -9.70883e-16 0.311603 -2.82939e-15 -1.11392e-15)
(0 -1.1005e-29 -2.75125e-30 8.92827 1.54461e-14 7.63722e-16 0.313409 -5.1624e-16 -1.3507e-17)
(4.03329e-15 1.1005e-29 2.75125e-30 8.92827 -7.91687e-15 -7.80824e-16 0.313409 -2.92732e-15 -1.14781e-15)
(2.55029e-15 -8.72009e-30 -6.48344e-31 8.81211 1.56017e-14 1.54014e-15 0.314984 -5.65474e-16 -4.02019e-17)
(4.11941e-15 5.40168e-30 0 8.81211 -8.2338e-15 -7.1614e-16 0.314984 -3.01159e-15 -1.18386e-15)
(-2.10304e-15 -9.29505e-30 -4.02159e-30 8.69077 1.43456e-14 2.39348e-15 0.316323 -5.46889e-16 -6.98979e-17)
(0 1.59081e-29 2.65135e-30 8.69077 -8.68903e-15 -5.34541e-16 0.316323 -3.12134e-15 -1.21983e-15)
(-2.14664e-15 -1.42226e-29 -2.64224e-30 8.56447 1.42315e-14 3.26506e-15 0.317421 -4.94687e-16 -1.04281e-16)
(4.29328e-15 1.56166e-29 2.60276e-30 8.56447 -8.20395e-15 -2.32244e-16 0.317421 -3.23609e-15 -1.25282e-15)
(2.5336e-15 -2.37156e-29 -3.1753e-30 8.43346 1.49654e-14 4.05133e-15 0.318275 -5.58976e-16 -1.37627e-16)
(7.32343e-15 2.04405e-29 2.55507e-30 8.43346 -7.83803e-15 8.87829e-18 0.318275 -3.32948e-15 -1.28678e-15)
(2.94791e-16 -1.75622e-30 6.08855e-31 8.29804 1.47861e-14 4.86054e-15 0.318886 -5.69163e-16 -1.6803e-16)
(-1.41202e-15 1.0033e-29 1.25412e-30 8.29804 -8.20756e-15 1.78144e-16 0.318886 -3.43859e-15 -1.32139e-15)
(-2.2786e-15 6.49523e-30 1.19067e-30 8.15853 1.51258e-14 5.61211e-15 0.319255 -5.66143e-16 -2.05528e-16)
(4.55721e-15 0 0 8.15853 -7.95057e-15 3.71185e-16 0.319255 -3.55821e-15 -1.35585e-15)
(-1.16144e-15 -1.61116e-30 5.82088e-31 8.01532 1.60767e-14 6.19696e-15 0.319385 -6.17429e-16 -2.33696e-16)
(4.64575e-15 4.83433e-30 1.20858e-30 8.01532 -8.01938e-15 5.27138e-16 0.319385 -3.66738e-15 -1.3894e-15)
(-2.67161e-15 9.49148e-30 1.18643e-30 7.86877 1.64162e-14 6.67966e-15 0.31928 -6.63953e-16 -2.60307e-16)
(0 -4.74574e-30 0 7.86877 -8.26024e-15 6.55162e-16 0.31928 -3.79243e-15 -1.42459e-15)
(1.20581e-15 -1.24993e-29 -2.88347e-30 7.71932 1.55843e-14 7.11573e-15 0.318948 -6.68507e-16 -2.82046e-16)
(4.82325e-15 9.31755e-30 2.32939e-30 7.71932 -7.76361e-15 9.94595e-16 0.318948 -3.91412e-15 -1.45661e-15)
(1.22802e-15 -1.23204e-29 -2.82583e-30 7.56738 1.47015e-14 7.54314e-15 0.318395 -6.19549e-16 -3.06506e-16)
(4.91209e-15 9.14681e-30 2.2867e-30 7.56738 -7.53693e-15 1.29696e-15 0.318395 -4.00561e-15 -1.48367e-15)
(-1.25022e-15 3.15797e-30 5.23877e-31 7.41339 1.45684e-14 7.87803e-15 0.317631 -6.18645e-16 -3.29008e-16)
(5.00088e-15 4.4896e-30 1.1224e-30 7.41339 -8.19435e-15 1.50607e-15 0.317631 -4.10047e-15 -1.51247e-15)
(1.27239e-15 -1.19542e-29 -2.71247e-30 7.25779 1.44067e-14 8.1804e-15 0.316667 -6.31371e-16 -3.47056e-16)
(0 8.81465e-30 2.20366e-30 7.25779 -8.07399e-15 1.84121e-15 0.316667 -4.23701e-15 -1.53652e-15)
(-1.29453e-15 1.17772e-29 1.57438e-30 7.10101 1.40264e-14 8.49534e-15 0.315512 -6.2769e-16 -3.68079e-16)
(5.17811e-15 -4.32656e-30 0 7.10101 -6.48422e-15 2.11292e-15 0.315512 -4.36391e-15 -1.55648e-15)
(2.51211e-15 -1.16031e-29 -4.76065e-31 6.94348 1.39058e-14 8.89094e-15 0.314179 -6.20989e-16 -3.88434e-16)
(-1.1955e-15 8.49456e-30 0 6.94348 -5.97612e-15 2.35548e-15 0.314179 -4.45911e-15 -1.57692e-15)
(-1.33861e-15 1.14273e-29 1.49964e-30 6.7856 1.3929e-14 9.23469e-15 0.312681 -6.40304e-16 -4.1816e-16)
(5.35446e-15 -4.16945e-30 -1.04236e-30 6.7856 -6.52073e-15 2.67237e-15 0.312681 -4.5874e-15 -1.59242e-15)
(-9.4364e-16 1.02127e-30 5.83523e-31 6.62779 1.39157e-14 9.38964e-15 0.311028 -6.46558e-16 -4.35124e-16)
(5.44216e-15 0 0 6.62779 -6.27232e-15 2.78309e-15 0.311028 -4.68602e-15 -1.6073e-15)
(0 4.01804e-30 1.00451e-30 6.47041 1.43169e-14 9.44625e-15 0.309235 -6.63169e-16 -4.48636e-16)
(5.52949e-15 0 0 6.47041 -7.25888e-15 2.79564e-15 0.309235 -4.76245e-15 -1.62001e-15)
(0 3.94441e-30 9.86104e-31 6.31382 1.46024e-14 9.32172e-15 0.307314 -7.09742e-16 -4.56998e-16)
(-7.83689e-15 0 0 6.31382 -8.09095e-15 3.19895e-15 0.307314 -4.91223e-15 -1.63258e-15)
(0 1.16164e-29 2.9041e-30 6.15835 1.35153e-14 9.09027e-15 0.305278 -7.16292e-16 -4.53267e-16)
(5.70281e-15 -1.16164e-29 -2.9041e-30 6.15835 -6.55076e-15 3.58731e-15 0.305278 -5.04789e-15 -1.63264e-15)
(6.92691e-16 -1.60006e-29 -2.47442e-30 6.0043 1.21831e-14 8.89516e-15 0.303138 -6.27344e-16 -4.50979e-16)
(0 1.90059e-29 3.80118e-30 6.0043 -6.15099e-15 3.58974e-15 0.303138 -5.14905e-15 -1.62666e-15)
(-1.46853e-15 6.7248e-30 3.6137e-31 5.85194 1.21947e-14 8.59251e-15 0.300907 -6.07021e-16 -4.50391e-16)
(5.8741e-15 0 9.32881e-31 5.85194 -6.79379e-15 3.68199e-15 0.300907 -5.30557e-15 -1.62212e-15)
(4.12433e-15 -1.09894e-29 -9.15786e-31 5.70153 1.25925e-14 8.23808e-15 0.298597 -6.52189e-16 -4.3644e-16)
(0 1.09894e-29 9.15786e-31 5.70153 -6.84296e-15 3.96928e-15 0.298597 -5.44262e-15 -1.61644e-15)
(0 3.59602e-30 8.99004e-31 5.55328 1.32391e-14 7.97526e-15 0.296218 -6.72123e-16 -4.29746e-16)
(0 0 0 5.55328 -5.9429e-15 4.21688e-15 0.296218 -5.57296e-15 -1.60384e-15)
(1.53167e-15 -1.70457e-29 -3.41113e-30 5.40739 1.41612e-14 7.73109e-15 0.293781 -7.46673e-16 -4.24471e-16)
(6.12667e-15 1.05904e-29 3.08886e-30 5.40739 -3.72316e-15 4.09729e-15 0.293781 -5.70079e-15 -1.58083e-15)
(-3.98467e-16 4.03493e-30 1.42384e-30 5.26402 1.42819e-14 7.61168e-15 0.291296 -7.98998e-16 -4.19049e-16)
(4.25873e-15 -3.46543e-30 -4.33179e-31 5.26402 -2.46626e-15 3.90097e-15 0.291296 -5.80907e-15 -1.5706e-15)
(0 6.80386e-30 0 5.12332 1.28742e-14 7.50648e-15 0.288772 -7.88353e-16 -4.27069e-16)
(6.29185e-15 0 4.25241e-31 5.12332 -3.90874e-15 4.16931e-15 0.288772 -5.89003e-15 -1.56204e-15)
(-3.18671e-15 5.73824e-30 5.60721e-31 4.98541 1.14104e-14 7.33077e-15 0.286218 -6.68224e-16 -4.22818e-16)
(6.37341e-15 0 0 4.98541 -4.44679e-15 4.40108e-15 0.286218 -5.99581e-15 -1.54198e-15)
(3.45914e-15 -1.59659e-29 -2.72583e-30 4.85039 1.19258e-14 7.29826e-15 0.283641 -6.47648e-16 -4.22707e-16)
(4.60871e-15 1.31136e-29 2.4588e-30 4.85039 -4.50554e-15 4.35219e-15 0.283641 -6.09357e-15 -1.52117e-15)
(0 1.28733e-29 2.01145e-30 4.71832 1.31231e-14 7.30928e-15 0.281049 -7.54534e-16 -4.34895e-16)
(-6.53445e-15 -1.28733e-29 -2.01145e-30 4.71832 -6.01054e-15 4.28687e-15 0.281049 -6.21311e-15 -1.4999e-15)
(0 0 3.94918e-31 4.58928 1.26547e-14 7.11053e-15 0.27845 -8.16683e-16 -4.39966e-16)
(0 0 -3.94918e-31 4.58928 -5.53425e-15 4.41405e-15 0.27845 -6.364e-15 -1.48119e-15)
(-3.34632e-15 1.48564e-29 2.39568e-30 4.4633 1.11028e-14 6.71754e-15 0.275847 -7.25334e-16 -4.26825e-16)
(0 -9.30435e-30 -1.93841e-30 4.4633 -4.25686e-15 3.62725e-15 0.275847 -6.48107e-15 -1.4473e-15)
(-1.69266e-15 8.85332e-30 1.36166e-30 4.3404 1.00185e-14 6.16704e-15 0.273249 -6.52909e-16 -4.07282e-16)
(0 -3.04462e-30 -4.37906e-47 4.3404 -3.84335e-15 -6.31089e-30 0.273249 -6.55515e-15 -1.44876e-15)
(-1.68256e-15 1.49441e-29 2.61522e-30 4.2206 9.1966e-15 5.57153e-15 0.270659 -6.14214e-16 -3.72613e-16)
(-6.84792e-15 -1.19553e-29 -2.24162e-30 4.2206 -3.23716e-15 -2.40424e-16 0.270659 -6.65524e-15 -1.49572e-15)
(3.46223e-15 3.72247e-31 -5.34002e-32 4.1039 9.05764e-15 5.13662e-15 0.268082 -5.70597e-16 -3.45166e-16)
(0 0 -3.66757e-31 4.1039 -2.16363e-15 -2.83797e-16 0.268082 -6.757e-15 -1.50267e-15)
(2.5723e-16 6.07531e-30 1.03117e-30 3.99028 8.43068e-15 4.66189e-15 0.265522 -6.18947e-16 -3.29025e-16)
(7.0003e-15 -8.64087e-30 -1.44015e-30 3.99028 -1.31961e-15 -3.12309e-16 0.265522 -6.82465e-15 -1.46888e-15)
(-1.76885e-15 2.7205e-30 2.02755e-31 3.87973 7.11169e-15 4.17331e-15 0.262983 -5.07471e-16 -2.94094e-16)
(7.0754e-15 0 3.53439e-31 3.87973 -1.99613e-15 -2.15893e-16 0.262983 -6.88535e-15 -1.42892e-15)
(3.5749e-15 -5.42379e-30 2.957e-31 3.77221 6.38352e-15 3.87127e-15 0.260467 -4.60909e-16 -2.74244e-16)
(0 0 -6.93924e-31 3.77221 -2.028e-15 -1.29223e-16 0.260467 -6.96898e-15 -1.38481e-15)
(4.87376e-15 -2.70694e-30 -1.95301e-31 3.66768 5.25798e-15 3.77371e-15 0.257978 -4.24602e-16 -2.62871e-16)
(7.22347e-15 2.72483e-30 3.40604e-31 3.66768 -1.53132e-15 -7.40872e-17 0.257978 -7.0374e-15 -1.33502e-15)
(-1.82411e-15 8.06264e-30 1.19244e-30 3.5661 5.42934e-15 3.79052e-15 0.255518 -3.17684e-16 -2.70657e-16)
(-3.01167e-15 0 -6.68725e-31 3.5661 -1.25711e-15 -5.04963e-17 0.255518 -7.13951e-15 -1.28046e-15)
(0 -5.25177e-30 -3.28236e-31 3.46742 6.55685e-15 3.70654e-15 0.253089 -4.65508e-16 -2.75221e-16)
(1.47374e-14 7.87765e-30 9.84707e-31 3.46742 -2.95315e-16 6.72231e-17 0.253089 -7.2018e-15 -1.22996e-15)
(-1.86007e-15 -1.02283e-29 -1.43449e-30 3.37159 6.49263e-15 3.79986e-15 0.250693 -4.96592e-16 -2.68421e-16)
(0 1.28888e-29 1.6111e-30 3.37159 1.64733e-16 1.82403e-16 0.250693 -7.21565e-15 -1.17623e-15)
(0 -1.26526e-29 -1.26526e-30 3.27855 7.22069e-15 4.12348e-15 0.248331 -4.73363e-16 -2.99667e-16)
(1.50224e-14 1.51832e-29 1.26526e-30 3.27855 -2.6646e-17 1.47637e-16 0.248331 -7.24475e-15 -1.12569e-15)
(-1.89535e-15 1.2547e-29 1.39438e-30 3.18823 7.82242e-15 4.28035e-15 0.246005 -6.27161e-16 -3.28255e-16)
(0 -9.93663e-30 -1.24208e-30 3.18823 -2.05072e-15 8.0575e-17 0.246005 -7.24574e-15 -1.08436e-15)
(2.74566e-15 0 -6.09659e-31 3.10058 6.13084e-15 4.36965e-15 0.243715 -5.85373e-16 -3.35511e-16)
(7.65094e-15 2.43864e-30 6.09659e-31 3.10058 -1.90671e-15 1.01066e-16 0.243715 -7.31811e-15 -1.04636e-15)
(4.62531e-15 -1.21839e-29 -1.62629e-30 3.01553 5.35398e-15 4.742e-15 0.241463 -3.81113e-16 -3.54861e-16)
(1.27443e-14 9.5758e-30 1.49622e-30 3.01553 7.18038e-17 1.12846e-16 0.241463 -7.36556e-15 -1.00671e-15)
(-1.94702e-15 2.57921e-30 4.05307e-31 2.93302 7.50412e-15 5.00196e-15 0.239248 -4.81267e-16 -4.08623e-16)
(7.78809e-15 0 -1.34652e-31 2.93302 -1.1624e-15 -3.28641e-30 0.239248 -7.38027e-15 -9.70268e-16)
(-3.23102e-15 6.71168e-30 7.64637e-31 2.85297 8.63269e-15 4.7815e-15 0.237072 -7.51179e-16 -4.11239e-16)
(7.8557e-15 -4.61403e-30 -2.88377e-31 2.85297 -2.64774e-15 -1.27937e-16 0.237072 -7.41312e-15 -9.37805e-16)
(-3.96134e-15 9.52882e-30 4.70734e-31 2.77533 8.21431e-15 4.31527e-15 0.234934 -6.8959e-16 -3.86868e-16)
(7.92269e-15 0 0 2.77533 -2.40933e-15 -3.81238e-16 0.234934 -7.46626e-15 -9.06957e-16)
(-2.50315e-15 -4.44648e-30 -2.77905e-31 2.70002 8.41669e-15 3.31483e-15 0.232836 -7.07663e-16 -3.467e-16)
(1.59781e-14 8.89296e-30 5.5581e-31 2.70002 -1.74489e-15 -4.91642e-16 0.232836 -7.54445e-15 -8.7757e-16)
(-2.45728e-15 4.365e-30 1.36406e-31 2.62697 7.55447e-15 2.10416e-15 0.230776 -7.50965e-16 -2.26497e-16)
(8.05483e-15 0 0 2.62697 -1.60383e-15 -2.57693e-16 0.230776 -7.61764e-15 -8.33694e-16)
(-2.03e-15 6.7472e-30 5.15432e-31 2.55613 5.70589e-15 1.22657e-15 0.228755 -5.80737e-16 -1.441e-16)
(-2.41225e-15 0 -2.67813e-31 2.55613 -1.95622e-15 -1.70934e-16 0.228755 -7.66052e-15 -7.75529e-16)
(2.04615e-15 1.72981e-30 4.01718e-31 2.48743 5.05168e-15 4.48971e-16 0.226772 -4.43819e-16 -7.57849e-17)
(0 -4.20649e-30 -7.88717e-31 2.48743 -2.5761e-15 -3.41367e-16 0.226772 -7.6987e-15 -7.24575e-16)
(0 4.12941e-30 5.16176e-31 2.4208 4.79588e-15 -3.01032e-16 0.224828 -4.81689e-16 -6.25839e-17)
(-2.32465e-15 0 -2.58088e-31 2.4208 -1.68619e-15 -7.24088e-17 0.224828 -7.75566e-15 -6.57799e-16)
(-2.07802e-15 1.4618e-29 1.40038e-30 2.35617 3.03938e-15 -7.15086e-16 0.222921 -4.12377e-16 -7.3411e-17)
(0 -1.21612e-29 -1.26679e-30 2.35617 -7.7228e-16 1.99381e-16 0.222921 -7.81673e-15 -5.78136e-16)
(-2.09375e-15 6.46503e-30 6.40467e-31 2.29349 1.46354e-15 -5.75468e-16 0.221052 -1.62919e-16 -3.76617e-17)
(-1.06152e-14 0 -1.37497e-30 2.29349 -9.87147e-17 7.14075e-17 0.221052 -7.94069e-15 -5.01125e-16)
(-2.10934e-15 -1.41225e-30 -5.85783e-31 2.2327 1.02681e-15 -3.6481e-16 0.219221 -1.20007e-16 -3.42476e-17)
(1.68747e-14 3.90653e-30 7.32475e-31 2.2327 1.73241e-15 6.4009e-17 0.219221 -7.96215e-15 -4.36e-16)
(2.15888e-15 -7.6699e-30 -1.44702e-30 2.17373 9.87351e-16 -1.11274e-16 0.217426 -8.21306e-17 -5.58825e-18)
(6.34032e-15 7.6699e-30 9.58737e-31 2.17373 1.28043e-15 1.55437e-16 0.217426 -7.94125e-15 -3.85579e-16)
(-2.14013e-15 9.92018e-30 -8.75812e-47 2.11653 2.27782e-15 1.32193e-45 0.215667 -1.16529e-16 -1.97215e-31)
(8.56053e-15 -3.76467e-30 -1.27482e-32 2.11653 -3.78138e-16 0 0.215667 -7.99568e-15 -3.34731e-16)
(-2.08049e-15 3.69569e-30 4.61961e-31 2.06103 3.53662e-15 -8.34393e-17 0.213943 -3.55458e-16 -3.21581e-17)
(8.62134e-15 0 -2.3098e-31 2.06103 -1.20095e-15 -1.20146e-16 0.213943 -8.02445e-15 -2.97803e-16)