/*--------------------------------*- C++ -*----------------------------------*\
| =========                 |                                                 |
| \\      /  F ield         | OpenFOAM: The Open Source CFD Toolbox           |
|  \\    /   O peration     | Version:  2106                                  |
|   \\  /    A nd           | Website:  www.openfoam.com                      |
|    \\/     M anipulation  |                                                 |
\*---------------------------------------------------------------------------*/
FoamFile
{
    version     2.0;
    format      ascii;
    arch        "LSB;label=32;scalar=64";
    class       volScalarField;
    location    "10000";
    object      p;
}
// * * * * * * * * * * * * * * * * * * * * * * * * * * * * * * * * * * * * * //

dimensions      [0 2 -2 0 0 0 0];

internalField   nonuniform List<scalar> 
800
(
1.65923e-15
8.73937e-15
3.52133e-15
8.7386e-15
3.90561e-15
8.73803e-15
3.92007e-15
8.7377e-15
3.98992e-15
8.73762e-15
4.12031e-15
8.73775e-15
4.2583e-15
8.73803e-15
4.39189e-15
8.73839e-15
4.52077e-15
8.73897e-15
4.64414e-15
8.73995e-15
4.76207e-15
8.74112e-15
4.87425e-15
8.74223e-15
4.98069e-15
8.74349e-15
5.08154e-15
8.7451e-15
5.1774e-15
8.74678e-15
5.26833e-15
8.74878e-15
5.3548e-15
8.75079e-15
5.43678e-15
8.753e-15
5.51425e-15
8.7552e-15
5.58744e-15
8.75698e-15
5.65691e-15
8.75873e-15
5.72312e-15
8.7598e-15
5.78663e-15
8.76083e-15
5.84695e-15
8.76259e-15
5.90562e-15
8.7638e-15
5.96195e-15
8.7638e-15
6.01583e-15
8.76319e-15
6.06918e-15
8.76142e-15
6.1204e-15
8.75939e-15
6.17048e-15
8.7563e-15
6.21923e-15
8.75277e-15
6.26781e-15
8.74885e-15
6.31735e-15
8.74349e-15
6.36794e-15
8.73672e-15
6.41857e-15
8.72904e-15
6.47097e-15
8.7204e-15
6.52415e-15
8.70902e-15
6.57419e-15
8.69641e-15
6.62625e-15
8.68296e-15
6.68108e-15
8.67027e-15
6.73702e-15
8.65508e-15
6.79861e-15
8.63892e-15
6.85914e-15
8.62204e-15
6.91798e-15
8.602e-15
6.98142e-15
8.58437e-15
7.04636e-15
8.56381e-15
7.11245e-15
8.54024e-15
7.17643e-15
8.51642e-15
7.244e-15
8.49839e-15
7.30242e-15
8.48318e-15
7.37018e-15
8.46117e-15
7.4411e-15
8.44145e-15
7.50531e-15
8.42683e-15
7.56594e-15
8.4135e-15
7.62274e-15
8.40441e-15
7.68261e-15
8.39195e-15
7.74228e-15
8.38235e-15
7.79442e-15
8.38975e-15
7.85395e-15
8.39892e-15
7.91327e-15
8.3854e-15
7.96525e-15
8.38658e-15
8.02665e-15
8.4098e-15
8.08162e-15
8.42965e-15
8.13853e-15
8.42804e-15
8.19882e-15
8.42738e-15
8.27396e-15
8.41518e-15
8.34264e-15
8.43767e-15
8.3793e-15
8.45536e-15
8.42192e-15
8.46667e-15
8.44478e-15
8.52502e-15
8.50021e-15
8.5594e-15
8.55082e-15
8.58737e-15
8.57984e-15
8.62607e-15
8.60557e-15
8.65627e-15
8.66597e-15
8.69866e-15
8.71819e-15
8.77104e-15
8.80299e-15
8.8585e-15
8.85618e-15
8.85604e-15
8.93216e-15
8.94691e-15
9.03427e-15
9.06655e-15
9.12146e-15
9.10832e-15
9.16318e-15
9.17845e-15
9.29865e-15
9.29466e-15
9.38523e-15
9.39678e-15
9.41549e-15
9.45071e-15
9.41818e-15
9.50771e-15
9.50678e-15
9.53601e-15
9.6104e-15
9.60877e-15
9.69852e-15
9.72014e-15
9.81163e-15
9.82872e-15
9.89664e-15
9.88221e-15
9.97856e-15
9.98266e-15
1.00731e-14
1.0103e-14
1.02141e-14
1.02741e-14
1.0299e-14
1.02881e-14
1.04148e-14
1.04055e-14
1.04341e-14
1.04074e-14
1.05901e-14
1.05808e-14
1.07543e-14
1.07287e-14
1.08431e-14
1.0844e-14
8.04254e-15
8.2339e-15
8.04227e-15
8.23379e-15
8.0421e-15
8.23371e-15
8.0421e-15
8.23362e-15
8.04226e-15
8.2335e-15
8.04254e-15
8.23339e-15
8.04288e-15
8.23335e-15
8.04345e-15
8.23326e-15
8.04417e-15
8.23319e-15
8.04479e-15
8.23325e-15
8.04561e-15
8.23335e-15
8.04686e-15
8.23329e-15
8.04823e-15
8.23333e-15
8.04973e-15
8.23357e-15
8.05141e-15
8.23377e-15
8.0532e-15
8.23392e-15
8.05528e-15
8.23433e-15
8.05751e-15
8.23508e-15
8.05996e-15
8.23533e-15
8.06288e-15
8.23588e-15
8.0658e-15
8.23668e-15
8.06901e-15
8.23771e-15
8.07242e-15
8.23875e-15
8.07614e-15
8.24027e-15
8.08015e-15
8.24315e-15
8.08425e-15
8.24579e-15
8.08859e-15
8.24789e-15
8.09277e-15
8.25145e-15
8.0975e-15
8.25502e-15
8.1024e-15
8.25831e-15
8.10765e-15
8.26295e-15
8.11343e-15
8.26785e-15
8.11992e-15
8.27303e-15
8.12785e-15
8.27851e-15
8.13635e-15
8.28374e-15
8.14562e-15
8.28986e-15
8.15811e-15
8.29465e-15
8.1673e-15
8.30378e-15
8.17553e-15
8.31632e-15
8.18768e-15
8.32773e-15
8.20286e-15
8.33801e-15
8.21634e-15
8.34967e-15
8.22944e-15
8.36418e-15
8.24223e-15
8.37648e-15
8.25893e-15
8.3907e-15
8.27562e-15
8.40284e-15
8.28951e-15
8.41876e-15
8.30944e-15
8.42997e-15
8.3298e-15
8.43946e-15
8.34766e-15
8.45354e-15
8.36305e-15
8.46946e-15
8.37917e-15
8.48776e-15
8.39936e-15
8.50229e-15
8.42395e-15
8.51672e-15
8.44993e-15
8.52777e-15
8.46336e-15
8.54269e-15
8.48964e-15
8.55861e-15
8.50321e-15
8.57978e-15
8.52656e-15
8.5995e-15
8.56029e-15
8.60239e-15
8.57398e-15
8.61962e-15
8.58317e-15
8.65276e-15
8.61129e-15
8.67083e-15
8.65113e-15
8.68193e-15
8.67902e-15
8.69395e-15
8.71332e-15
8.73369e-15
8.7626e-15
8.75993e-15
8.7558e-15
8.76228e-15
8.76463e-15
8.77853e-15
8.78859e-15
8.79211e-15
8.83057e-15
8.80074e-15
8.83611e-15
8.81995e-15
8.84151e-15
8.8521e-15
8.88419e-15
8.88132e-15
8.97021e-15
8.92769e-15
8.98327e-15
8.96553e-15
9.02401e-15
8.9968e-15
9.0709e-15
9.03708e-15
9.08177e-15
9.13593e-15
9.09784e-15
9.2033e-15
9.14187e-15
9.22375e-15
9.16597e-15
9.23709e-15
9.31563e-15
9.38098e-15
9.39837e-15
9.41547e-15
9.4788e-15
9.51206e-15
9.56027e-15
9.5854e-15
9.61134e-15
9.63654e-15
9.67728e-15
9.67258e-15
9.76592e-15
9.78032e-15
9.86829e-15
9.86069e-15
9.93885e-15
9.89026e-15
9.94349e-15
9.947e-15
1.00525e-14
1.0054e-14
1.02154e-14
1.02048e-14
1.02661e-14
1.03146e-14
1.03774e-14
1.03638e-14
1.0485e-14
1.05051e-14
1.06018e-14
1.06039e-14
1.07266e-14
1.07243e-14
1.08366e-14
1.08409e-14
1.09371e-14
1.09648e-14
1.0985e-14
1.09901e-14
1.11614e-14
1.11608e-14
1.11976e-14
1.11949e-14
1.12229e-14
1.12382e-14
1.13652e-14
1.14199e-14
1.14895e-14
1.14248e-14
1.15594e-14
1.14796e-14
1.15883e-14
1.15689e-14
1.16899e-14
1.16936e-14
1.17979e-14
1.18317e-14
1.18897e-14
1.18965e-14
1.19786e-14
1.20161e-14
1.1995e-14
1.20061e-14
1.20607e-14
1.20604e-14
1.20838e-14
1.20734e-14
1.21114e-14
1.20837e-14
1.21413e-14
1.21276e-14
1.21663e-14
1.21614e-14
1.20972e-14
1.21568e-14
1.21064e-14
1.21802e-14
1.21841e-14
1.2203e-14
1.22558e-14
1.22533e-14
1.23076e-14
1.23475e-14
1.23098e-14
1.23857e-14
1.23186e-14
1.23529e-14
1.23411e-14
1.23679e-14
1.23587e-14
1.24049e-14
1.24089e-14
1.24477e-14
1.24317e-14
1.24756e-14
1.24485e-14
1.24503e-14
1.24637e-14
1.2463e-14
1.24765e-14
1.24935e-14
1.24949e-14
1.25246e-14
1.25272e-14
1.25479e-14
1.25387e-14
1.25815e-14
1.25637e-14
1.25919e-14
1.25859e-14
1.25871e-14
1.26072e-14
1.2599e-14
1.26283e-14
1.26101e-14
1.26499e-14
1.2612e-14
1.26651e-14
1.26358e-14
1.26735e-14
1.26654e-14
1.26823e-14
1.26635e-14
1.26842e-14
1.26681e-14
1.26831e-14
1.26792e-14
1.26894e-14
1.26826e-14
1.26992e-14
1.26824e-14
1.27092e-14
1.2685e-14
1.26995e-14
1.26937e-14
1.26966e-14
1.26987e-14
1.26967e-14
1.27037e-14
1.26967e-14
1.27115e-14
1.27024e-14
1.27163e-14
1.27018e-14
1.27151e-14
1.2701e-14
1.27169e-14
1.27013e-14
1.27201e-14
1.27013e-14
1.27233e-14
1.26998e-14
1.27227e-14
1.26993e-14
1.27209e-14
1.27023e-14
1.27169e-14
1.27026e-14
1.2713e-14
1.27029e-14
1.27128e-14
1.2703e-14
1.27161e-14
1.2703e-14
1.27181e-14
1.27035e-14
1.27169e-14
1.27039e-14
1.27157e-14
1.27042e-14
1.27162e-14
1.27055e-14
1.27172e-14
1.27057e-14
1.2716e-14
1.27047e-14
1.27155e-14
1.27043e-14
1.27154e-14
1.27044e-14
1.2716e-14
1.27044e-14
1.27157e-14
1.27044e-14
1.27157e-14
1.2704e-14
1.2716e-14
1.27039e-14
1.2716e-14
1.27044e-14
1.27154e-14
1.27039e-14
1.27152e-14
1.27038e-14
1.27153e-14
1.27036e-14
1.27155e-14
1.27033e-14
1.27157e-14
1.27033e-14
1.2716e-14
1.27032e-14
1.27164e-14
1.27029e-14
1.27165e-14
1.27028e-14
1.27165e-14
1.27027e-14
1.27165e-14
1.27026e-14
1.27165e-14
1.27026e-14
1.27165e-14
1.27024e-14
1.27166e-14
1.27022e-14
1.27166e-14
1.27023e-14
1.27168e-14
1.27023e-14
1.27171e-14
1.27023e-14
1.27171e-14
1.27023e-14
1.2717e-14
1.27023e-14
1.27171e-14
1.27023e-14
1.27172e-14
1.27023e-14
1.27172e-14
1.27023e-14
1.27172e-14
1.27023e-14
1.27172e-14
1.09355e-14
1.09636e-14
1.09851e-14
1.09892e-14
1.11649e-14
1.11572e-14
1.12194e-14
1.11737e-14
1.12124e-14
1.12507e-14
1.12844e-14
1.13774e-14
1.14681e-14
1.14503e-14
1.15309e-14
1.15169e-14
1.15923e-14
1.15862e-14
1.16587e-14
1.16562e-14
1.17726e-14
1.17674e-14
1.18791e-14
1.19088e-14
1.19624e-14
1.19571e-14
1.19879e-14
1.19854e-14
1.20123e-14
1.20066e-14
1.20801e-14
1.2065e-14
1.21519e-14
1.21142e-14
1.21938e-14
1.21539e-14
1.21595e-14
1.20854e-14
1.20998e-14
1.20794e-14
1.21418e-14
1.2151e-14
1.21852e-14
1.21967e-14
1.22251e-14
1.22435e-14
1.22792e-14
1.23145e-14
1.23226e-14
1.23661e-14
1.23371e-14
1.23586e-14
1.23494e-14
1.23971e-14
1.23755e-14
1.2403e-14
1.2439e-14
1.24326e-14
1.24445e-14
1.24599e-14
1.24683e-14
1.24681e-14
1.25119e-14
1.24771e-14
1.25225e-14
1.25021e-14
1.25367e-14
1.25345e-14
1.25524e-14
1.25393e-14
1.25697e-14
1.25518e-14
1.25888e-14
1.25793e-14
1.26002e-14
1.25968e-14
1.2612e-14
1.26057e-14
1.2624e-14
1.26142e-14
1.26361e-14
1.26304e-14
1.26479e-14
1.26542e-14
1.26589e-14
1.26782e-14
1.26688e-14
1.26873e-14
1.26703e-14
1.26898e-14
1.2671e-14
1.26893e-14
1.26853e-14
1.2686e-14
1.26958e-14
1.26967e-14
1.27093e-14
1.26937e-14
1.27062e-14
1.26972e-14
1.27067e-14
1.27069e-14
1.27104e-14
1.27196e-14
1.2714e-14
1.27262e-14
1.27174e-14
1.27328e-14
1.27206e-14
1.27336e-14
1.27209e-14
1.27347e-14
1.27225e-14
1.27319e-14
1.27254e-14
1.27293e-14
1.27257e-14
1.27268e-14
1.27235e-14
1.27269e-14
1.27215e-14
1.27271e-14
1.27207e-14
1.27261e-14
1.27212e-14
1.27276e-14
1.27205e-14
1.27302e-14
1.27198e-14
1.27307e-14
1.2718e-14
1.27301e-14
1.27184e-14
1.2729e-14
1.27182e-14
1.27286e-14
1.27186e-14
1.27293e-14
1.27189e-14
1.27294e-14
1.27193e-14
1.27302e-14
1.27196e-14
1.273e-14
1.27197e-14
1.27303e-14
1.27197e-14
1.27304e-14
1.27207e-14
1.273e-14
1.27213e-14
1.27298e-14
1.27201e-14
1.273e-14
1.27195e-14
1.27306e-14
1.27192e-14
1.27307e-14
1.27189e-14
1.2731e-14
1.27184e-14
1.27317e-14
1.27181e-14
1.27321e-14
1.27177e-14
1.27323e-14
1.27173e-14
1.27325e-14
1.27171e-14
1.27325e-14
1.2717e-14
1.27326e-14
1.27168e-14
1.27328e-14
1.27167e-14
1.27329e-14
1.27166e-14
1.27327e-14
1.27164e-14
1.27327e-14
1.27167e-14
1.27326e-14
1.27167e-14
1.27327e-14
1.27168e-14
1.27328e-14
1.27168e-14
1.27328e-14
1.27167e-14
1.27327e-14
1.27168e-14
1.27327e-14
1.27168e-14
1.27327e-14
1.27168e-14
1.27327e-14
1.27168e-14
1.27327e-14
1.27168e-14
1.27327e-14
)
;

boundaryField
{
    walls
    {
        type            zeroGradient;
    }
    inlet
    {
        type            cyclic;
    }
    outlet
    {
        type            cyclic;
    }
    sides
    {
        type            empty;
    }
}


// ************************************************************************* //
