/*--------------------------------*- C++ -*----------------------------------*\
| =========                 |                                                 |
| \\      /  F ield         | OpenFOAM: The Open Source CFD Toolbox           |
|  \\    /   O peration     | Version:  2106                                  |
|   \\  /    A nd           | Website:  www.openfoam.com                      |
|    \\/     M anipulation  |                                                 |
\*---------------------------------------------------------------------------*/
FoamFile
{
    version     2.0;
    format      ascii;
    arch        "LSB;label=32;scalar=64";
    class       volScalarField;
    location    "10000";
    object      p;
}
// * * * * * * * * * * * * * * * * * * * * * * * * * * * * * * * * * * * * * //

dimensions      [0 2 -2 0 0 0 0];

internalField   nonuniform List<scalar> 
2000
(
9.57902e-15
9.56379e-14
1.94654e-14
9.56363e-14
2.2248e-14
9.56352e-14
2.34279e-14
9.5634e-14
2.47059e-14
9.56324e-14
2.61391e-14
9.56302e-14
2.75273e-14
9.56276e-14
2.88516e-14
9.56244e-14
3.01409e-14
9.56208e-14
3.1407e-14
9.56168e-14
3.26511e-14
9.56122e-14
3.38733e-14
9.56071e-14
3.50739e-14
9.56017e-14
3.62532e-14
9.55959e-14
3.74117e-14
9.55897e-14
3.85496e-14
9.55831e-14
3.96678e-14
9.55761e-14
4.07664e-14
9.55688e-14
4.18456e-14
9.55612e-14
4.29059e-14
9.5553e-14
4.39477e-14
9.55446e-14
4.49711e-14
9.55361e-14
4.59766e-14
9.55272e-14
4.69647e-14
9.5518e-14
4.79353e-14
9.55087e-14
4.88889e-14
9.54991e-14
4.98258e-14
9.54894e-14
5.07464e-14
9.54795e-14
5.16509e-14
9.54695e-14
5.25396e-14
9.5459e-14
5.34121e-14
9.54486e-14
5.42693e-14
9.54379e-14
5.51115e-14
9.54272e-14
5.59387e-14
9.54164e-14
5.67512e-14
9.54055e-14
5.75493e-14
9.53947e-14
5.83332e-14
9.53838e-14
5.91034e-14
9.53728e-14
5.98601e-14
9.53616e-14
6.06037e-14
9.53498e-14
6.13344e-14
9.5338e-14
6.2052e-14
9.53262e-14
6.27573e-14
9.53144e-14
6.34505e-14
9.53023e-14
6.4131e-14
9.52903e-14
6.47991e-14
9.52785e-14
6.54557e-14
9.52663e-14
6.61008e-14
9.52542e-14
6.6735e-14
9.52427e-14
6.73579e-14
9.52316e-14
6.79695e-14
9.52201e-14
6.85706e-14
9.52091e-14
6.916e-14
9.5199e-14
6.97389e-14
9.51893e-14
7.03078e-14
9.51799e-14
7.0865e-14
9.5171e-14
7.14123e-14
9.51626e-14
7.19506e-14
9.51547e-14
7.24788e-14
9.51474e-14
7.29974e-14
9.51399e-14
7.35072e-14
9.51325e-14
7.40074e-14
9.51255e-14
7.44982e-14
9.51204e-14
7.49798e-14
9.51164e-14
7.54536e-14
9.51126e-14
7.59181e-14
9.51098e-14
7.63741e-14
9.5108e-14
7.68218e-14
9.51068e-14
7.72612e-14
9.51064e-14
7.76931e-14
9.51073e-14
7.81168e-14
9.51097e-14
7.85331e-14
9.51136e-14
7.89412e-14
9.51195e-14
7.9342e-14
9.51256e-14
7.97377e-14
9.51311e-14
8.01262e-14
9.51378e-14
8.0508e-14
9.51459e-14
8.08844e-14
9.5155e-14
8.1253e-14
9.51652e-14
8.16168e-14
9.51759e-14
8.1975e-14
9.51873e-14
8.23273e-14
9.52002e-14
8.26742e-14
9.52151e-14
8.30151e-14
9.52299e-14
8.33531e-14
9.52446e-14
8.3686e-14
9.52624e-14
8.4014e-14
9.52818e-14
8.43401e-14
9.53009e-14
8.46621e-14
9.5321e-14
8.49804e-14
9.53446e-14
8.52949e-14
9.53687e-14
8.56058e-14
9.53943e-14
8.59133e-14
9.54228e-14
8.62138e-14
9.54521e-14
8.65126e-14
9.54837e-14
8.6809e-14
9.55186e-14
8.71009e-14
9.55566e-14
8.73901e-14
9.55972e-14
8.76757e-14
9.56397e-14
8.79594e-14
9.56828e-14
8.82398e-14
9.57288e-14
8.85156e-14
9.57804e-14
8.87891e-14
9.58358e-14
8.90573e-14
9.58919e-14
8.93204e-14
9.59534e-14
8.95813e-14
9.60174e-14
8.98357e-14
9.60868e-14
9.0088e-14
9.61589e-14
9.03338e-14
9.62308e-14
9.0576e-14
9.63084e-14
9.08101e-14
9.63829e-14
9.10391e-14
9.64604e-14
9.12644e-14
9.65425e-14
9.14878e-14
9.66248e-14
9.17059e-14
9.67103e-14
9.19155e-14
9.67962e-14
9.21197e-14
9.68904e-14
9.23216e-14
9.69852e-14
9.25162e-14
9.70807e-14
9.27133e-14
9.71738e-14
9.29028e-14
9.72762e-14
9.30879e-14
9.73831e-14
9.32701e-14
9.74898e-14
9.34594e-14
9.75964e-14
9.36473e-14
9.77015e-14
9.38285e-14
9.78087e-14
9.40097e-14
9.79146e-14
9.41873e-14
9.80196e-14
9.43577e-14
9.81202e-14
9.45311e-14
9.82201e-14
9.47076e-14
9.83231e-14
9.48799e-14
9.84259e-14
9.50367e-14
9.85286e-14
9.51925e-14
9.86316e-14
9.53321e-14
9.87461e-14
9.54661e-14
9.88653e-14
9.55941e-14
9.89785e-14
9.57192e-14
9.90975e-14
9.58409e-14
9.9219e-14
9.59586e-14
9.93322e-14
9.60792e-14
9.94338e-14
9.61985e-14
9.95397e-14
9.63275e-14
9.96464e-14
9.64618e-14
9.97468e-14
9.65853e-14
9.98449e-14
9.67131e-14
9.99454e-14
9.68447e-14
1.00045e-13
9.69796e-14
1.00143e-13
9.71173e-14
1.00234e-13
9.72533e-14
1.0032e-13
9.7379e-14
1.00399e-13
9.75019e-14
1.00469e-13
9.76214e-14
1.00541e-13
9.77779e-14
1.00614e-13
9.7922e-14
1.00688e-13
9.80532e-14
1.00763e-13
9.81959e-14
1.00848e-13
9.83415e-14
1.00927e-13
9.84727e-14
1.0099e-13
9.86059e-14
1.01054e-13
9.87489e-14
1.01128e-13
9.89015e-14
1.01203e-13
9.90464e-14
1.0127e-13
9.91832e-14
1.01345e-13
9.93457e-14
1.0143e-13
9.94994e-14
1.01497e-13
9.96526e-14
1.01555e-13
9.98228e-14
1.01628e-13
9.99926e-14
1.01715e-13
1.00153e-13
1.01807e-13
1.00322e-13
1.01877e-13
1.005e-13
1.01941e-13
1.00651e-13
1.02007e-13
1.00838e-13
1.02091e-13
1.01008e-13
1.02183e-13
1.01188e-13
1.02255e-13
1.01336e-13
1.02323e-13
1.01504e-13
1.02403e-13
1.01666e-13
1.02519e-13
1.01841e-13
1.02627e-13
1.02046e-13
1.02708e-13
1.02186e-13
1.02758e-13
1.02316e-13
1.02828e-13
1.02454e-13
1.02915e-13
1.02615e-13
1.02984e-13
1.02769e-13
1.03101e-13
1.02914e-13
1.03266e-13
1.0305e-13
1.03407e-13
1.03193e-13
1.03508e-13
1.03344e-13
1.03565e-13
1.03469e-13
1.03646e-13
1.03604e-13
1.03747e-13
1.03731e-13
1.03884e-13
1.03868e-13
1.04006e-13
1.04012e-13
1.04092e-13
1.04167e-13
1.04228e-13
1.04298e-13
1.04412e-13
1.04438e-13
1.04558e-13
1.04568e-13
1.04738e-13
1.04703e-13
1.04869e-13
1.04842e-13
1.04949e-13
1.04954e-13
1.05113e-13
1.0507e-13
1.05226e-13
1.05207e-13
1.0534e-13
1.05312e-13
1.05384e-13
1.05407e-13
1.05561e-13
1.05519e-13
1.05635e-13
1.05635e-13
1.05692e-13
1.05722e-13
1.05843e-13
1.0586e-13
1.0596e-13
1.05983e-13
1.06024e-13
1.06063e-13
1.06081e-13
1.06117e-13
1.06178e-13
1.06242e-13
1.06286e-13
1.06304e-13
1.06439e-13
1.06427e-13
1.06509e-13
1.0661e-13
1.06688e-13
1.06756e-13
1.06877e-13
1.06863e-13
1.06986e-13
1.07026e-13
1.07047e-13
1.07251e-13
1.07179e-13
1.07325e-13
1.07306e-13
1.074e-13
1.07399e-13
1.07566e-13
1.07553e-13
1.07727e-13
1.07703e-13
1.07825e-13
1.07787e-13
1.07951e-13
1.07839e-13
1.07989e-13
1.07937e-13
1.08021e-13
1.08024e-13
1.08128e-13
1.08077e-13
1.08199e-13
1.08154e-13
1.08264e-13
1.08251e-13
1.0826e-13
1.08339e-13
1.08263e-13
1.08404e-13
1.08373e-13
1.08514e-13
1.08367e-13
1.08706e-13
1.08379e-13
1.08819e-13
1.08474e-13
1.08845e-13
1.08499e-13
1.08896e-13
1.08553e-13
1.08956e-13
1.08651e-13
1.08946e-13
1.08762e-13
1.08897e-13
1.08982e-13
1.08917e-13
1.09015e-13
1.09019e-13
1.09062e-13
1.09059e-13
1.09097e-13
1.09094e-13
1.09117e-13
1.09127e-13
1.09165e-13
1.09211e-13
1.09235e-13
1.09245e-13
1.09239e-13
1.09274e-13
9.52813e-14
9.72426e-14
9.52805e-14
9.72425e-14
9.528e-14
9.72425e-14
9.52793e-14
9.72424e-14
9.52785e-14
9.72422e-14
9.52774e-14
9.7242e-14
9.52761e-14
9.72418e-14
9.52745e-14
9.72414e-14
9.52727e-14
9.7241e-14
9.52706e-14
9.72407e-14
9.52684e-14
9.72403e-14
9.52659e-14
9.72396e-14
9.52633e-14
9.7239e-14
9.52604e-14
9.72384e-14
9.52575e-14
9.72376e-14
9.52545e-14
9.72367e-14
9.52511e-14
9.72357e-14
9.52478e-14
9.72346e-14
9.52442e-14
9.72334e-14
9.52405e-14
9.72321e-14
9.52368e-14
9.72305e-14
9.52332e-14
9.72288e-14
9.52294e-14
9.72269e-14
9.52254e-14
9.72248e-14
9.52214e-14
9.72225e-14
9.52174e-14
9.72202e-14
9.52133e-14
9.72179e-14
9.52088e-14
9.72153e-14
9.52042e-14
9.72127e-14
9.51995e-14
9.72103e-14
9.51946e-14
9.72081e-14
9.51897e-14
9.72056e-14
9.51849e-14
9.72028e-14
9.518e-14
9.71998e-14
9.51753e-14
9.71961e-14
9.51708e-14
9.71924e-14
9.51664e-14
9.71884e-14
9.51618e-14
9.71843e-14
9.51571e-14
9.71802e-14
9.51524e-14
9.71756e-14
9.51473e-14
9.7171e-14
9.51422e-14
9.71667e-14
9.51368e-14
9.71621e-14
9.51311e-14
9.71576e-14
9.51255e-14
9.71531e-14
9.51202e-14
9.71488e-14
9.51154e-14
9.71437e-14
9.51107e-14
9.71381e-14
9.51062e-14
9.71332e-14
9.51021e-14
9.71283e-14
9.50986e-14
9.71223e-14
9.50955e-14
9.71157e-14
9.50924e-14
9.71099e-14
9.50894e-14
9.71037e-14
9.50868e-14
9.70973e-14
9.50844e-14
9.70917e-14
9.50825e-14
9.70854e-14
9.50802e-14
9.70795e-14
9.50781e-14
9.70737e-14
9.50762e-14
9.70676e-14
9.50748e-14
9.70611e-14
9.50738e-14
9.70544e-14
9.50731e-14
9.70474e-14
9.50739e-14
9.70398e-14
9.50754e-14
9.70318e-14
9.50772e-14
9.70236e-14
9.50792e-14
9.70153e-14
9.50818e-14
9.70066e-14
9.50853e-14
9.69964e-14
9.50889e-14
9.69864e-14
9.50909e-14
9.69788e-14
9.50945e-14
9.69715e-14
9.50984e-14
9.69633e-14
9.51021e-14
9.69547e-14
9.51071e-14
9.69465e-14
9.51116e-14
9.69375e-14
9.51161e-14
9.6931e-14
9.51204e-14
9.69258e-14
9.51271e-14
9.69166e-14
9.51355e-14
9.6906e-14
9.51448e-14
9.68973e-14
9.51547e-14
9.68893e-14
9.51663e-14
9.68794e-14
9.51782e-14
9.68673e-14
9.51918e-14
9.68553e-14
9.52058e-14
9.68464e-14
9.52216e-14
9.68391e-14
9.5237e-14
9.68297e-14
9.52507e-14
9.68214e-14
9.52656e-14
9.68139e-14
9.52831e-14
9.68068e-14
9.53003e-14
9.67999e-14
9.53167e-14
9.67955e-14
9.53363e-14
9.67915e-14
9.53558e-14
9.67858e-14
9.53773e-14
9.67826e-14
9.53993e-14
9.67798e-14
9.54226e-14
9.67761e-14
9.54471e-14
9.67736e-14
9.54722e-14
9.67687e-14
9.54979e-14
9.67658e-14
9.55263e-14
9.67685e-14
9.55575e-14
9.67703e-14
9.55899e-14
9.67697e-14
9.56222e-14
9.67711e-14
9.56572e-14
9.67789e-14
9.56935e-14
9.67874e-14
9.57326e-14
9.67949e-14
9.5773e-14
9.68044e-14
9.58147e-14
9.6822e-14
9.58638e-14
9.68387e-14
9.59096e-14
9.68528e-14
9.59582e-14
9.68705e-14
9.60066e-14
9.68917e-14
9.6061e-14
9.69134e-14
9.61198e-14
9.69354e-14
9.61753e-14
9.69657e-14
9.62336e-14
9.69963e-14
9.62966e-14
9.70223e-14
9.63625e-14
9.70483e-14
9.64333e-14
9.70826e-14
9.64988e-14
9.71268e-14
9.65692e-14
9.71708e-14
9.66444e-14
9.72079e-14
9.67162e-14
9.7253e-14
9.67911e-14
9.72994e-14
9.68694e-14
9.73503e-14
9.69546e-14
9.74091e-14
9.70397e-14
9.74725e-14
9.71212e-14
9.75295e-14
9.72061e-14
9.75871e-14
9.72947e-14
9.76561e-14
9.73832e-14
9.77292e-14
9.7468e-14
9.78025e-14
9.75601e-14
9.78724e-14
9.76561e-14
9.7946e-14
9.77559e-14
9.80195e-14
9.78561e-14
9.80962e-14
9.7953e-14
9.81724e-14
9.80543e-14
9.82515e-14
9.81563e-14
9.83333e-14
9.82633e-14
9.84408e-14
9.83791e-14
9.85471e-14
9.84766e-14
9.86482e-14
9.85792e-14
9.87477e-14
9.86871e-14
9.88496e-14
9.87845e-14
9.89658e-14
9.88992e-14
9.90883e-14
9.90114e-14
9.92134e-14
9.91249e-14
9.9333e-14
9.92481e-14
9.94351e-14
9.93689e-14
9.95437e-14
9.9504e-14
9.96589e-14
9.9621e-14
9.97807e-14
9.97446e-14
9.99093e-14
9.98664e-14
1.00028e-13
9.99784e-14
1.00163e-13
1.00105e-13
1.00321e-13
1.00239e-13
1.00471e-13
1.00388e-13
1.00596e-13
1.00535e-13
1.00747e-13
1.00664e-13
1.00906e-13
1.0081e-13
1.01034e-13
1.00945e-13
1.01162e-13
1.01089e-13
1.0131e-13
1.01241e-13
1.01469e-13
1.01392e-13
1.01647e-13
1.01551e-13
1.01813e-13
1.01702e-13
1.01958e-13
1.01853e-13
1.02109e-13
1.02012e-13
1.0223e-13
1.02172e-13
1.02341e-13
1.02334e-13
1.02466e-13
1.02472e-13
1.02614e-13
1.02613e-13
1.02769e-13
1.02765e-13
1.02898e-13
1.02903e-13
1.03016e-13
1.03036e-13
1.03144e-13
1.03173e-13
1.03272e-13
1.03314e-13
1.03444e-13
1.03458e-13
1.03602e-13
1.03598e-13
1.03737e-13
1.03732e-13
1.03833e-13
1.0388e-13
1.03925e-13
1.03992e-13
1.04048e-13
1.04084e-13
1.04221e-13
1.04242e-13
1.04377e-13
1.04361e-13
1.04533e-13
1.04476e-13
1.04692e-13
1.04603e-13
1.04821e-13
1.04742e-13
1.04905e-13
1.04878e-13
1.05049e-13
1.04994e-13
1.05149e-13
1.05108e-13
1.05275e-13
1.05221e-13
1.05376e-13
1.05314e-13
1.05523e-13
1.05403e-13
1.05649e-13
1.05556e-13
1.05704e-13
1.05656e-13
1.05788e-13
1.05738e-13
1.05916e-13
1.05834e-13
1.0604e-13
1.05943e-13
1.06111e-13
1.06032e-13
1.0623e-13
1.06152e-13
1.06313e-13
1.06254e-13
1.0636e-13
1.06322e-13
1.06455e-13
1.06374e-13
1.0653e-13
1.06491e-13
1.06587e-13
1.06577e-13
1.06659e-13
1.0665e-13
1.06776e-13
1.06705e-13
1.06859e-13
1.06791e-13
1.06879e-13
1.06828e-13
1.06898e-13
1.0695e-13
1.0698e-13
1.07063e-13
1.07122e-13
1.072e-13
1.0726e-13
1.07361e-13
1.07367e-13
1.07421e-13
1.07468e-13
1.07536e-13
1.07564e-13
1.07743e-13
1.07656e-13
1.0786e-13
1.07799e-13
1.07979e-13
1.07964e-13
1.08099e-13
1.08064e-13
1.08257e-13
1.08193e-13
1.08362e-13
1.08254e-13
1.08482e-13
1.08301e-13
1.08628e-13
1.08388e-13
1.08686e-13
1.08508e-13
1.08746e-13
1.0855e-13
1.08785e-13
1.08539e-13
1.08808e-13
1.08646e-13
1.08835e-13
1.08764e-13
1.08821e-13
1.08819e-13
1.08879e-13
1.08848e-13
1.08841e-13
1.08848e-13
1.08868e-13
1.08932e-13
1.08895e-13
1.09017e-13
1.0886e-13
1.08966e-13
1.08926e-13
1.08973e-13
1.0905e-13
1.09023e-13
1.09056e-13
1.09075e-13
1.09044e-13
1.09031e-13
1.09062e-13
1.09054e-13
1.09118e-13
1.09089e-13
1.09164e-13
1.09098e-13
1.09236e-13
1.09097e-13
1.09303e-13
1.09171e-13
1.09318e-13
1.09271e-13
1.0931e-13
1.09313e-13
1.09259e-13
1.09364e-13
1.09283e-13
1.09299e-13
1.09422e-13
1.09367e-13
1.09469e-13
1.09414e-13
1.09476e-13
1.09389e-13
1.09446e-13
1.0944e-13
1.09518e-13
1.09537e-13
1.09527e-13
1.0958e-13
1.09599e-13
1.09571e-13
1.09621e-13
1.09631e-13
1.09612e-13
1.09665e-13
1.09641e-13
1.09706e-13
1.09708e-13
1.09758e-13
1.09808e-13
1.09845e-13
1.09869e-13
1.09908e-13
1.09919e-13
1.0995e-13
1.09933e-13
1.09968e-13
1.09996e-13
1.10049e-13
1.10078e-13
1.1014e-13
1.10151e-13
1.10152e-13
1.10193e-13
1.1023e-13
1.10235e-13
1.10293e-13
1.10302e-13
1.1034e-13
1.10368e-13
1.10397e-13
1.10434e-13
1.10462e-13
1.10502e-13
1.10501e-13
1.10572e-13
1.10543e-13
1.10581e-13
1.10614e-13
1.10553e-13
1.10659e-13
1.10635e-13
1.10685e-13
1.10709e-13
1.10717e-13
1.1078e-13
1.10814e-13
1.10907e-13
1.10884e-13
1.11006e-13
1.10954e-13
1.10983e-13
1.10992e-13
1.11024e-13
1.11035e-13
1.11098e-13
1.11081e-13
1.11108e-13
1.11129e-13
1.11149e-13
1.11112e-13
1.11193e-13
1.11192e-13
1.11204e-13
1.11272e-13
1.11226e-13
1.11271e-13
1.11262e-13
1.11289e-13
1.1131e-13
1.11375e-13
1.11337e-13
1.11396e-13
1.11374e-13
1.11452e-13
1.11421e-13
1.11463e-13
1.11482e-13
1.11509e-13
1.11488e-13
1.11556e-13
1.11523e-13
1.11588e-13
1.11572e-13
1.11621e-13
1.116e-13
1.11653e-13
1.11607e-13
1.11703e-13
1.11644e-13
1.11721e-13
1.11698e-13
1.11704e-13
1.11718e-13
1.11685e-13
1.1174e-13
1.11731e-13
1.11797e-13
1.11826e-13
1.1182e-13
1.11884e-13
1.11857e-13
1.11873e-13
1.11894e-13
1.11861e-13
1.11932e-13
1.11897e-13
1.11971e-13
1.11966e-13
1.12009e-13
1.12015e-13
1.12047e-13
1.12062e-13
1.12085e-13
1.12091e-13
1.12122e-13
1.12153e-13
1.12159e-13
1.12215e-13
1.12213e-13
1.12259e-13
1.12267e-13
1.12302e-13
1.12321e-13
1.12309e-13
1.12323e-13
1.12314e-13
1.12308e-13
1.12345e-13
1.12353e-13
1.1241e-13
1.1238e-13
1.1244e-13
1.12397e-13
1.12462e-13
1.12422e-13
1.12484e-13
1.12453e-13
1.12523e-13
1.12467e-13
1.12537e-13
1.12487e-13
1.12516e-13
1.12499e-13
1.12548e-13
1.12509e-13
1.12596e-13
1.12544e-13
1.12618e-13
1.1256e-13
1.12641e-13
1.12575e-13
1.12646e-13
1.12589e-13
1.12652e-13
1.12611e-13
1.12667e-13
1.1264e-13
1.12681e-13
1.1266e-13
1.12696e-13
1.12663e-13
1.12709e-13
1.12673e-13
1.12732e-13
1.12683e-13
1.12754e-13
1.12692e-13
1.12792e-13
1.12699e-13
1.12815e-13
1.12705e-13
1.12812e-13
1.12718e-13
1.12819e-13
1.1273e-13
1.12826e-13
1.1274e-13
1.12833e-13
1.12758e-13
1.12849e-13
1.12766e-13
1.12856e-13
1.12765e-13
1.12856e-13
1.12771e-13
1.12856e-13
1.1278e-13
1.12861e-13
1.1278e-13
1.1287e-13
1.1278e-13
1.12875e-13
1.12782e-13
1.12884e-13
1.12792e-13
1.1289e-13
1.12793e-13
1.12889e-13
1.12789e-13
1.12887e-13
1.12792e-13
1.1289e-13
1.12795e-13
1.12897e-13
1.12801e-13
1.12901e-13
1.12806e-13
1.12912e-13
1.1281e-13
1.1292e-13
1.1281e-13
1.12932e-13
1.12813e-13
1.12941e-13
1.12815e-13
1.12939e-13
1.1282e-13
1.12944e-13
1.12824e-13
1.12954e-13
1.1282e-13
1.12968e-13
1.1282e-13
1.12986e-13
1.12822e-13
1.12993e-13
1.12827e-13
1.13004e-13
1.12824e-13
1.13009e-13
1.12835e-13
1.13022e-13
1.12841e-13
1.13038e-13
1.12843e-13
1.13041e-13
1.12844e-13
1.13038e-13
1.12852e-13
1.1304e-13
1.1286e-13
1.13051e-13
1.12865e-13
1.13054e-13
1.12869e-13
1.13051e-13
1.12872e-13
1.13052e-13
1.12877e-13
1.13058e-13
1.12882e-13
1.13058e-13
1.12883e-13
1.13057e-13
1.12886e-13
1.13057e-13
1.12889e-13
1.13063e-13
1.12888e-13
1.13072e-13
1.12895e-13
1.1307e-13
1.12898e-13
1.13067e-13
1.129e-13
1.13066e-13
1.12903e-13
1.1307e-13
1.12905e-13
1.13071e-13
1.12906e-13
1.13072e-13
1.12908e-13
1.13073e-13
1.12909e-13
1.13073e-13
1.12913e-13
1.13075e-13
1.12915e-13
1.13078e-13
1.12915e-13
1.13081e-13
1.12917e-13
1.13084e-13
1.1292e-13
1.13089e-13
1.12921e-13
1.13091e-13
1.12922e-13
1.13092e-13
1.12923e-13
1.13093e-13
1.12924e-13
1.13095e-13
1.12925e-13
1.13099e-13
1.12925e-13
1.13104e-13
1.12926e-13
1.13104e-13
1.12928e-13
1.13104e-13
1.12929e-13
1.13105e-13
1.1293e-13
1.13106e-13
1.1293e-13
1.13108e-13
1.1293e-13
1.1311e-13
1.12931e-13
1.13113e-13
1.12932e-13
1.13115e-13
1.12933e-13
1.13116e-13
1.12933e-13
1.13116e-13
1.12933e-13
1.13117e-13
1.12933e-13
1.13118e-13
1.12935e-13
1.1312e-13
1.12936e-13
1.13121e-13
1.12936e-13
1.13121e-13
1.12936e-13
1.13122e-13
1.12936e-13
1.13122e-13
1.12936e-13
1.13124e-13
1.12936e-13
1.13127e-13
1.12937e-13
1.13128e-13
1.12937e-13
1.13127e-13
1.12936e-13
1.13127e-13
1.12937e-13
1.13127e-13
1.12938e-13
1.13127e-13
1.12938e-13
1.13127e-13
1.12938e-13
1.13125e-13
1.12939e-13
1.13125e-13
1.12939e-13
1.13125e-13
1.1294e-13
1.13125e-13
1.12941e-13
1.13124e-13
1.12942e-13
1.13125e-13
1.12942e-13
1.13125e-13
1.12944e-13
1.13124e-13
1.12944e-13
1.13123e-13
1.12945e-13
1.13123e-13
1.12945e-13
1.13122e-13
1.12947e-13
1.13121e-13
1.12948e-13
1.1312e-13
1.12948e-13
1.1312e-13
1.12949e-13
1.1312e-13
1.1295e-13
1.13119e-13
1.12951e-13
1.13119e-13
1.12952e-13
1.13119e-13
1.12953e-13
1.13118e-13
1.12954e-13
1.13117e-13
1.12955e-13
1.13117e-13
1.12955e-13
1.13117e-13
1.12956e-13
1.13118e-13
1.12956e-13
1.13118e-13
1.12957e-13
1.13118e-13
1.12957e-13
1.13119e-13
1.12957e-13
1.13119e-13
1.12957e-13
1.1312e-13
1.12958e-13
1.1312e-13
1.12958e-13
1.1312e-13
1.12958e-13
1.13121e-13
1.12958e-13
1.13121e-13
1.12958e-13
1.13122e-13
1.12958e-13
1.13122e-13
1.12958e-13
1.13122e-13
1.12958e-13
1.13122e-13
1.12958e-13
1.13122e-13
1.12958e-13
1.13122e-13
1.12958e-13
1.13123e-13
1.12958e-13
1.13123e-13
1.12958e-13
1.13123e-13
1.12957e-13
1.13123e-13
1.12957e-13
1.13124e-13
1.12957e-13
1.13124e-13
1.12957e-13
1.13124e-13
1.12958e-13
1.13124e-13
1.12957e-13
1.13124e-13
1.12957e-13
1.13124e-13
1.12957e-13
1.13124e-13
1.12958e-13
1.13124e-13
1.12958e-13
1.13124e-13
1.12958e-13
1.13124e-13
1.12958e-13
1.13124e-13
1.12958e-13
1.13124e-13
1.12958e-13
1.13124e-13
1.12958e-13
1.13124e-13
1.12958e-13
1.13124e-13
1.12958e-13
1.13124e-13
1.12959e-13
1.13124e-13
1.12959e-13
1.13124e-13
1.12959e-13
1.13124e-13
1.12959e-13
1.13124e-13
1.12959e-13
1.13124e-13
1.12959e-13
1.13124e-13
1.12959e-13
1.13124e-13
1.12959e-13
1.13124e-13
1.12959e-13
1.13124e-13
1.12959e-13
1.13124e-13
1.09341e-13
1.09404e-13
1.09415e-13
1.09422e-13
1.09485e-13
1.09449e-13
1.09513e-13
1.09472e-13
1.09503e-13
1.09495e-13
1.09555e-13
1.09576e-13
1.09607e-13
1.09668e-13
1.096e-13
1.09646e-13
1.09639e-13
1.09642e-13
1.09679e-13
1.09695e-13
1.09722e-13
1.09726e-13
1.09858e-13
1.09789e-13
1.09878e-13
1.09871e-13
1.09906e-13
1.09898e-13
1.09968e-13
1.09952e-13
1.09979e-13
1.09974e-13
1.10023e-13
1.10055e-13
1.10095e-13
1.10113e-13
1.10166e-13
1.10082e-13
1.1013e-13
1.10094e-13
1.10186e-13
1.10183e-13
1.10269e-13
1.10264e-13
1.1032e-13
1.10341e-13
1.10336e-13
1.10418e-13
1.10492e-13
1.10471e-13
1.10588e-13
1.1052e-13
1.1063e-13
1.10592e-13
1.10678e-13
1.10628e-13
1.10707e-13
1.10658e-13
1.10776e-13
1.10713e-13
1.10886e-13
1.10795e-13
1.10881e-13
1.10837e-13
1.10911e-13
1.10839e-13
1.11008e-13
1.10897e-13
1.11018e-13
1.10974e-13
1.11063e-13
1.11013e-13
1.11145e-13
1.11112e-13
1.11131e-13
1.11142e-13
1.11182e-13
1.11208e-13
1.11231e-13
1.11309e-13
1.11276e-13
1.11317e-13
1.11321e-13
1.11328e-13
1.11383e-13
1.11409e-13
1.1143e-13
1.11458e-13
1.11478e-13
1.11426e-13
1.11514e-13
1.11459e-13
1.11538e-13
1.11574e-13
1.11563e-13
1.11625e-13
1.11569e-13
1.11646e-13
1.11641e-13
1.11741e-13
1.11659e-13
1.11757e-13
1.11605e-13
1.11814e-13
1.11576e-13
1.11847e-13
1.11605e-13
1.11824e-13
1.11693e-13
1.11864e-13
1.1174e-13
1.11914e-13
1.11746e-13
1.11974e-13
1.11812e-13
1.11991e-13
1.11873e-13
1.11999e-13
1.11913e-13
1.12013e-13
1.11967e-13
1.1205e-13
1.11984e-13
1.12109e-13
1.12016e-13
1.12122e-13
1.12062e-13
1.12174e-13
1.1207e-13
1.12212e-13
1.12093e-13
1.12292e-13
1.12109e-13
1.1236e-13
1.12155e-13
1.124e-13
1.12194e-13
1.12431e-13
1.12244e-13
1.1245e-13
1.1229e-13
1.1244e-13
1.12323e-13
1.12444e-13
1.12354e-13
1.12486e-13
1.12382e-13
1.1254e-13
1.12408e-13
1.1258e-13
1.12439e-13
1.12589e-13
1.12467e-13
1.12601e-13
1.12485e-13
1.12617e-13
1.12501e-13
1.12626e-13
1.12524e-13
1.12682e-13
1.12544e-13
1.12732e-13
1.12563e-13
1.12751e-13
1.12578e-13
1.12756e-13
1.12609e-13
1.12738e-13
1.12612e-13
1.12749e-13
1.12622e-13
1.12779e-13
1.12657e-13
1.12802e-13
1.12681e-13
1.1282e-13
1.12695e-13
1.12848e-13
1.12707e-13
1.1287e-13
1.12727e-13
1.12885e-13
1.12753e-13
1.12886e-13
1.12779e-13
1.12906e-13
1.12803e-13
1.12927e-13
1.12819e-13
1.12933e-13
1.12825e-13
1.12948e-13
1.12823e-13
1.12957e-13
1.12853e-13
1.12942e-13
1.12858e-13
1.12945e-13
1.12862e-13
1.12941e-13
1.12875e-13
1.12938e-13
1.12867e-13
1.12939e-13
1.12871e-13
1.12933e-13
1.12874e-13
1.12936e-13
1.12874e-13
1.12943e-13
1.1287e-13
1.12963e-13
1.12873e-13
1.1296e-13
1.12884e-13
1.12961e-13
1.12879e-13
1.12963e-13
1.12881e-13
1.12958e-13
1.12888e-13
1.12957e-13
1.12894e-13
1.12964e-13
1.12903e-13
1.12968e-13
1.12909e-13
1.12976e-13
1.12908e-13
1.12976e-13
1.12917e-13
1.12978e-13
1.12922e-13
1.12983e-13
1.12931e-13
1.12981e-13
1.12933e-13
1.12986e-13
1.12935e-13
1.12992e-13
1.1294e-13
1.12987e-13
1.12942e-13
1.12986e-13
1.12944e-13
1.12996e-13
1.12942e-13
1.13009e-13
1.1294e-13
1.13015e-13
1.12939e-13
1.13015e-13
1.1294e-13
1.13021e-13
1.12943e-13
1.13033e-13
1.12945e-13
1.13046e-13
1.12949e-13
1.13052e-13
1.12955e-13
1.13049e-13
1.12958e-13
1.13053e-13
1.12963e-13
1.13062e-13
1.12966e-13
1.13065e-13
1.1297e-13
1.13068e-13
1.12972e-13
1.13068e-13
1.12977e-13
1.13073e-13
1.12983e-13
1.13075e-13
1.1298e-13
1.13075e-13
1.12977e-13
1.13083e-13
1.12982e-13
1.13086e-13
1.12985e-13
1.13084e-13
1.12988e-13
1.13082e-13
1.12987e-13
1.13083e-13
1.1299e-13
1.13083e-13
1.12993e-13
1.13081e-13
1.12994e-13
1.13083e-13
1.12993e-13
1.13085e-13
1.12992e-13
1.13085e-13
1.12992e-13
1.13087e-13
1.12992e-13
1.13088e-13
1.12992e-13
1.13088e-13
1.12992e-13
1.13087e-13
1.12993e-13
1.13086e-13
1.12993e-13
1.13085e-13
1.12994e-13
1.13086e-13
1.12995e-13
1.13086e-13
1.12996e-13
1.13086e-13
1.12998e-13
1.13086e-13
1.12998e-13
1.13087e-13
1.12998e-13
1.13087e-13
1.12999e-13
1.13086e-13
1.13e-13
1.13086e-13
1.13e-13
1.13084e-13
1.12999e-13
1.13084e-13
1.12998e-13
1.13083e-13
1.13001e-13
1.13079e-13
1.13001e-13
1.13077e-13
1.13002e-13
1.13077e-13
1.13004e-13
1.13075e-13
1.13004e-13
1.13073e-13
1.13005e-13
1.13072e-13
1.13006e-13
1.13072e-13
1.13006e-13
1.13073e-13
1.13005e-13
1.13073e-13
1.13005e-13
1.13074e-13
1.13005e-13
1.13074e-13
1.13005e-13
1.13074e-13
1.13005e-13
1.13072e-13
1.13005e-13
1.13073e-13
1.13005e-13
1.13073e-13
1.13005e-13
1.13073e-13
1.13006e-13
1.13072e-13
1.13006e-13
1.13072e-13
1.13006e-13
1.13073e-13
1.13004e-13
1.13074e-13
1.13004e-13
1.13074e-13
1.13003e-13
1.13075e-13
1.13002e-13
1.13075e-13
1.13002e-13
1.13075e-13
1.13001e-13
1.13076e-13
1.13e-13
1.13077e-13
1.12999e-13
1.13077e-13
1.12998e-13
1.13076e-13
1.12998e-13
1.13077e-13
1.12997e-13
1.13078e-13
1.12996e-13
1.13078e-13
1.12995e-13
1.13078e-13
1.12995e-13
1.13079e-13
1.12995e-13
1.1308e-13
1.12994e-13
1.13081e-13
1.12993e-13
1.13082e-13
1.12993e-13
1.13082e-13
1.12993e-13
1.13082e-13
1.12993e-13
1.13083e-13
1.12992e-13
1.13083e-13
1.12992e-13
1.13084e-13
1.12992e-13
1.13084e-13
1.12992e-13
1.13084e-13
1.12992e-13
1.13084e-13
1.12993e-13
1.13085e-13
1.12993e-13
1.13085e-13
1.12993e-13
1.13085e-13
1.12993e-13
1.13085e-13
1.12993e-13
1.13085e-13
1.12993e-13
1.13086e-13
1.12993e-13
1.13086e-13
1.12994e-13
1.13086e-13
1.12994e-13
1.13086e-13
1.12994e-13
1.13086e-13
1.12994e-13
1.13086e-13
1.12994e-13
1.13086e-13
1.12995e-13
1.13086e-13
1.12995e-13
1.13086e-13
1.12995e-13
1.13086e-13
1.12994e-13
1.13087e-13
1.12994e-13
1.13087e-13
1.12994e-13
1.13087e-13
1.12994e-13
1.13087e-13
1.12994e-13
1.13087e-13
1.12994e-13
1.13087e-13
1.12994e-13
1.13087e-13
1.12994e-13
1.13088e-13
1.12994e-13
1.13088e-13
1.12994e-13
1.13088e-13
1.12994e-13
1.13088e-13
1.12994e-13
1.13088e-13
1.12994e-13
1.13088e-13
1.12994e-13
1.13088e-13
1.12994e-13
1.13088e-13
1.12994e-13
1.13088e-13
1.12994e-13
1.13088e-13
1.12994e-13
1.13088e-13
1.12994e-13
1.13088e-13
1.12994e-13
1.13088e-13
1.12994e-13
1.13088e-13
1.12994e-13
1.13088e-13
1.12994e-13
1.13088e-13
1.12994e-13
1.13088e-13
1.12994e-13
1.13088e-13
)
;

boundaryField
{
    walls
    {
        type            zeroGradient;
    }
    inlet
    {
        type            cyclic;
    }
    outlet
    {
        type            cyclic;
    }
    sides
    {
        type            empty;
    }
}


// ************************************************************************* //
