/*--------------------------------*- C++ -*----------------------------------*\
| =========                 |                                                 |
| \\      /  F ield         | OpenFOAM: The Open Source CFD Toolbox           |
|  \\    /   O peration     | Version:  2106                                  |
|   \\  /    A nd           | Website:  www.openfoam.com                      |
|    \\/     M anipulation  |                                                 |
\*---------------------------------------------------------------------------*/
FoamFile
{
    version     2.0;
    format      ascii;
    arch        "LSB;label=32;scalar=64";
    class       surfaceScalarField;
    location    "10000";
    object      phi;
}
// * * * * * * * * * * * * * * * * * * * * * * * * * * * * * * * * * * * * * //

dimensions      [0 3 -1 0 0 0 0];

oriented        oriented;

internalField   nonuniform List<scalar> 
3996
(
9.03007e-09
-6.89164e-18
-2.82841e-22
-5.61319e-22
-4.74943e-24
2.77642e-08
-6.88993e-18
-5.65622e-22
-1.69245e-21
-5.28885e-24
4.75441e-08
-6.88821e-18
-5.74865e-22
-2.83703e-21
-5.60999e-24
6.84154e-08
-6.88641e-18
-5.96953e-22
-4.01995e-21
-5.96361e-24
9.04257e-08
-6.88456e-18
-6.21009e-22
-5.2709e-21
-6.3552e-24
1.13624e-07
-6.88261e-18
-6.46332e-22
-6.55559e-21
-6.78934e-24
1.38062e-07
-6.88064e-18
-6.73359e-22
-7.88924e-21
-7.27103e-24
1.63793e-07
-6.87854e-18
-7.0197e-22
-9.26387e-21
-7.80448e-24
1.90873e-07
-6.87633e-18
-7.31938e-22
-1.07167e-20
-8.39575e-24
2.19359e-07
-6.87406e-18
-7.63207e-22
-1.22124e-20
-9.05048e-24
2.49311e-07
-6.8718e-18
-7.95815e-22
-1.37681e-20
-9.77426e-24
2.80791e-07
-6.86929e-18
-8.29811e-22
-1.54085e-20
-1.05722e-23
3.13865e-07
-6.86673e-18
-8.65255e-22
-1.71567e-20
-1.14527e-23
3.48601e-07
-6.8639e-18
-9.02201e-22
-1.89922e-20
-1.2423e-23
3.85067e-07
-6.86098e-18
-9.40716e-22
-2.09001e-20
-1.34897e-23
4.23337e-07
-6.85811e-18
-9.80863e-22
-2.2932e-20
-1.46632e-23
4.63487e-07
-6.85512e-18
-1.0227e-21
-2.49511e-20
-1.59514e-23
5.05595e-07
-6.85173e-18
-1.06631e-21
-2.71416e-20
-1.73646e-23
5.49743e-07
-6.84858e-18
-1.11176e-21
-2.92028e-20
-1.89102e-23
5.96017e-07
-6.84507e-18
-1.15913e-21
-3.15795e-20
-2.06066e-23
6.44504e-07
-6.84135e-18
-1.20848e-21
-3.4042e-20
-2.24614e-23
6.95296e-07
-6.83768e-18
-1.25992e-21
-3.65139e-20
-2.44864e-23
7.48489e-07
-6.83379e-18
-1.31351e-21
-3.91695e-20
-2.67019e-23
8.04182e-07
-6.82953e-18
-1.36933e-21
-4.20459e-20
-2.91179e-23
8.62477e-07
-6.82538e-18
-1.42749e-21
-4.48448e-20
-3.17456e-23
9.23482e-07
-6.82089e-18
-1.48806e-21
-4.78573e-20
-3.4611e-23
9.87308e-07
-6.8165e-18
-1.55115e-21
-5.08534e-20
-3.77351e-23
1.05407e-06
-6.81183e-18
-1.61684e-21
-5.3948e-20
-4.11377e-23
1.12389e-06
-6.80666e-18
-1.68524e-21
-5.72489e-20
-4.4849e-23
1.19689e-06
-6.80103e-18
-1.75647e-21
-6.07135e-20
-4.88895e-23
1.2732e-06
-6.79524e-18
-1.83065e-21
-6.41109e-20
-5.3284e-23
1.35295e-06
-6.78947e-18
-1.90791e-21
-6.76805e-20
-5.80413e-23
1.43628e-06
-6.78366e-18
-1.98836e-21
-7.16344e-20
-6.31926e-23
1.52335e-06
-6.77736e-18
-2.07211e-21
-7.5577e-20
-6.87605e-23
1.61429e-06
-6.77061e-18
-2.15932e-21
-8.00522e-20
-7.4758e-23
1.70927e-06
-6.76377e-18
-2.25011e-21
-8.44652e-20
-8.12235e-23
1.80844e-06
-6.75689e-18
-2.34459e-21
-8.87227e-20
-8.82022e-23
1.91198e-06
-6.74997e-18
-2.44285e-21
-9.28928e-20
-9.57842e-23
2.02005e-06
-6.74291e-18
-2.545e-21
-9.70336e-20
-1.04051e-22
2.13285e-06
-6.73549e-18
-2.65118e-21
-1.01978e-19
-1.13063e-22
2.25055e-06
-6.72754e-18
-2.76151e-21
-1.07219e-19
-1.22877e-22
2.37336e-06
-6.71916e-18
-2.87618e-21
-1.12496e-19
-1.33535e-22
2.50147e-06
-6.71067e-18
-2.99529e-21
-1.18174e-19
-1.45089e-22
2.63509e-06
-6.70086e-18
-3.11899e-21
-1.24348e-19
-1.57618e-22
2.77444e-06
-6.69068e-18
-3.24747e-21
-1.30823e-19
-1.71175e-22
2.91975e-06
-6.68102e-18
-3.38099e-21
-1.36888e-19
-1.85808e-22
3.07125e-06
-6.67082e-18
-3.51963e-21
-1.43111e-19
-2.01545e-22
3.22917e-06
-6.6614e-18
-3.66352e-21
-1.49106e-19
-2.18493e-22
3.39377e-06
-6.65021e-18
-3.81273e-21
-1.56111e-19
-2.36796e-22
3.56532e-06
-6.63806e-18
-3.96756e-21
-1.63337e-19
-2.56507e-22
3.74406e-06
-6.62596e-18
-4.12816e-21
-1.71547e-19
-2.77721e-22
3.93029e-06
-6.61235e-18
-4.29466e-21
-1.8023e-19
-3.0047e-22
4.12429e-06
-6.59878e-18
-4.4673e-21
-1.88786e-19
-3.24898e-22
4.32635e-06
-6.5847e-18
-4.64609e-21
-1.97571e-19
-3.51042e-22
4.53677e-06
-6.56789e-18
-4.83121e-21
-2.07138e-19
-3.79069e-22
4.75588e-06
-6.55357e-18
-5.02308e-21
-2.15764e-19
-4.09027e-22
4.98399e-06
-6.53962e-18
-5.22143e-21
-2.23547e-19
-4.41154e-22
5.22144e-06
-6.52312e-18
-5.42611e-21
-2.32926e-19
-4.75741e-22
5.46858e-06
-6.50759e-18
-5.63752e-21
-2.42721e-19
-5.12859e-22
5.72575e-06
-6.49052e-18
-5.85553e-21
-2.54333e-19
-5.52731e-22
5.99331e-06
-6.47223e-18
-6.08033e-21
-2.6461e-19
-5.95132e-22
6.27164e-06
-6.45362e-18
-6.31214e-21
-2.76615e-19
-6.40268e-22
6.56112e-06
-6.43461e-18
-6.55102e-21
-2.88309e-19
-6.87923e-22
6.86213e-06
-6.41546e-18
-6.79696e-21
-3.00731e-19
-7.38349e-22
7.17507e-06
-6.39306e-18
-7.04978e-21
-3.13808e-19
-7.91774e-22
7.50035e-06
-6.37116e-18
-7.3098e-21
-3.26658e-19
-8.48123e-22
7.83836e-06
-6.34785e-18
-7.57666e-21
-3.41231e-19
-9.07495e-22
8.18954e-06
-6.32513e-18
-7.85018e-21
-3.56207e-19
-9.70087e-22
8.55428e-06
-6.29967e-18
-8.12954e-21
-3.71234e-19
-1.0355e-21
8.93303e-06
-6.27458e-18
-8.41483e-21
-3.86353e-19
-1.10399e-21
9.32621e-06
-6.24815e-18
-8.70519e-21
-4.03751e-19
-1.17648e-21
9.73424e-06
-6.21957e-18
-9.001e-21
-4.21044e-19
-1.25212e-21
1.01576e-05
-6.194e-18
-9.30164e-21
-4.35272e-19
-1.33096e-21
1.05966e-05
-6.1702e-18
-9.6057e-21
-4.5061e-19
-1.41407e-21
1.10517e-05
-6.14166e-18
-9.91188e-21
-4.64994e-19
-1.50171e-21
1.15235e-05
-6.1129e-18
-1.02196e-20
-4.81546e-19
-1.59372e-21
1.20121e-05
-6.08489e-18
-1.05284e-20
-4.97788e-19
-1.69079e-21
1.25182e-05
-6.05183e-18
-1.08368e-20
-5.16559e-19
-1.79308e-21
1.30421e-05
-6.02138e-18
-1.11463e-20
-5.33876e-19
-1.89749e-21
1.35841e-05
-5.98755e-18
-1.14549e-20
-5.52208e-19
-2.00549e-21
1.41447e-05
-5.95456e-18
-1.17616e-20
-5.69552e-19
-2.11804e-21
1.47242e-05
-5.92062e-18
-1.20654e-20
-5.90259e-19
-2.23446e-21
1.5323e-05
-5.88243e-18
-1.23658e-20
-6.12156e-19
-2.3528e-21
1.59414e-05
-5.85194e-18
-1.26614e-20
-6.2986e-19
-2.47347e-21
1.65798e-05
-5.81736e-18
-1.29493e-20
-6.49304e-19
-2.59862e-21
1.72385e-05
-5.78158e-18
-1.32277e-20
-6.67283e-19
-2.72748e-21
1.79178e-05
-5.7502e-18
-1.34962e-20
-6.85743e-19
-2.85997e-21
1.8618e-05
-5.71768e-18
-1.37512e-20
-7.04497e-19
-2.99694e-21
1.93394e-05
-5.68065e-18
-1.399e-20
-7.25325e-19
-3.13832e-21
2.00822e-05
-5.64869e-18
-1.42135e-20
-7.41978e-19
-3.28305e-21
2.08468e-05
-5.60871e-18
-1.44202e-20
-7.61809e-19
-3.43225e-21
2.16334e-05
-5.57168e-18
-1.46103e-20
-7.83653e-19
-3.5847e-21
2.24423e-05
-5.52521e-18
-1.47811e-20
-8.02752e-19
-3.73889e-21
2.32737e-05
-5.4876e-18
-1.49393e-20
-8.23687e-19
-3.89468e-21
2.41279e-05
-5.4494e-18
-1.50791e-20
-8.43204e-19
-4.04766e-21
2.50051e-05
-5.40847e-18
-1.52027e-20
-8.66027e-19
-4.19961e-21
2.59056e-05
-5.37108e-18
-1.53077e-20
-8.88655e-19
-4.34657e-21
2.68297e-05
-5.32952e-18
-1.53919e-20
-9.07503e-19
-4.48973e-21
2.77776e-05
-5.29349e-18
-1.5456e-20
-9.20228e-19
-4.63317e-21
2.87496e-05
-5.25147e-18
-1.54953e-20
-9.4064e-19
-4.77537e-21
2.9746e-05
-5.21163e-18
-1.55122e-20
-9.59703e-19
-4.91404e-21
3.07672e-05
-5.16987e-18
-1.5509e-20
-9.80542e-19
-5.04549e-21
3.18134e-05
-5.12308e-18
-1.54859e-20
-1.00744e-18
-5.16693e-21
3.28849e-05
-5.08007e-18
-1.54466e-20
-1.02677e-18
-5.2759e-21
3.39821e-05
-5.0452e-18
-1.53928e-20
-1.04541e-18
-5.37444e-21
3.51053e-05
-5.00162e-18
-1.53212e-20
-1.06935e-18
-5.4686e-21
3.6255e-05
-4.96447e-18
-1.52409e-20
-1.09413e-18
-5.54997e-21
3.74315e-05
-4.91524e-18
-1.51496e-20
-1.10858e-18
-5.61913e-21
3.86353e-05
-4.8707e-18
-1.5054e-20
-1.12868e-18
-5.68838e-21
3.98667e-05
-4.81854e-18
-1.49447e-20
-1.12742e-18
-5.75832e-21
4.11262e-05
-4.77236e-18
-1.48328e-20
-1.14521e-18
-5.8372e-21
4.24144e-05
-4.73245e-18
-1.4708e-20
-1.16443e-18
-5.90248e-21
4.37315e-05
-4.69018e-18
-1.45754e-20
-1.17722e-18
-5.95856e-21
4.50783e-05
-4.6434e-18
-1.44297e-20
-1.1994e-18
-6.01056e-21
4.64552e-05
-4.58959e-18
-1.42819e-20
-1.21818e-18
-6.05558e-21
4.78627e-05
-4.55125e-18
-1.41436e-20
-1.23747e-18
-6.09293e-21
4.93014e-05
-4.50825e-18
-1.39933e-20
-1.25484e-18
-6.11775e-21
5.07719e-05
-4.47025e-18
-1.38443e-20
-1.26766e-18
-6.10977e-21
5.22749e-05
-4.43683e-18
-1.37012e-20
-1.27316e-18
-6.07487e-21
5.38108e-05
-4.39755e-18
-1.3555e-20
-1.28256e-18
-6.02208e-21
5.53805e-05
-4.36902e-18
-1.34171e-20
-1.291e-18
-5.94542e-21
5.69845e-05
-4.33885e-18
-1.32638e-20
-1.29941e-18
-5.85261e-21
5.86235e-05
-4.32005e-18
-1.31129e-20
-1.30547e-18
-5.7349e-21
6.02983e-05
-4.2969e-18
-1.29496e-20
-1.31079e-18
-5.59183e-21
6.20095e-05
-4.25975e-18
-1.27414e-20
-1.31531e-18
-5.46105e-21
6.37579e-05
-4.23488e-18
-1.25237e-20
-1.31113e-18
-5.32754e-21
6.55443e-05
-4.20282e-18
-1.22841e-20
-1.30995e-18
-5.20329e-21
6.73695e-05
-4.15847e-18
-1.20187e-20
-1.32027e-18
-5.11027e-21
6.92342e-05
-4.1266e-18
-1.17478e-20
-1.33206e-18
-5.02317e-21
7.11393e-05
-4.11346e-18
-1.14294e-20
-1.32903e-18
-4.93258e-21
7.30856e-05
-4.06875e-18
-1.10558e-20
-1.33402e-18
-4.84587e-21
7.5074e-05
-4.0213e-18
-1.06839e-20
-1.34789e-18
-4.75998e-21
7.71054e-05
-3.98566e-18
-1.03109e-20
-1.35773e-18
-4.66156e-21
7.91807e-05
-3.92591e-18
-9.95123e-21
-1.37459e-18
-4.52508e-21
8.13008e-05
-3.89215e-18
-9.69766e-21
-1.38664e-18
-4.31583e-21
8.34667e-05
-3.85208e-18
-9.47187e-21
-1.38674e-18
-4.05882e-21
8.56794e-05
-3.83142e-18
-9.33671e-21
-1.41026e-18
-3.78547e-21
8.79398e-05
-3.79644e-18
-9.2442e-21
-1.42193e-18
-3.43454e-21
9.02489e-05
-3.77887e-18
-9.1913e-21
-1.42436e-18
-3.03882e-21
9.26078e-05
-3.77546e-18
-9.13676e-21
-1.41754e-18
-2.67373e-21
9.50177e-05
-3.7651e-18
-9.05262e-21
-1.41202e-18
-2.32763e-21
9.74794e-05
-3.7653e-18
-8.98143e-21
-1.40498e-18
-2.06902e-21
9.99942e-05
-3.75115e-18
-8.87982e-21
-1.39969e-18
-1.81785e-21
0.000102563
-3.72003e-18
-8.705e-21
-1.41465e-18
-1.58475e-21
0.000105188
-3.70075e-18
-8.59004e-21
-1.4213e-18
-1.29097e-21
0.000107868
-3.68645e-18
-8.49524e-21
-1.42639e-18
-9.28144e-22
0.000110607
-3.67128e-18
-8.34662e-21
-1.43825e-18
-5.64036e-22
0.000113405
-3.64341e-18
-8.22881e-21
-1.44085e-18
-2.00463e-22
0.000116262
-3.6153e-18
-8.08053e-21
-1.44997e-18
1.51909e-22
0.000119182
-3.57725e-18
-7.9271e-21
-1.46542e-18
5.0348e-22
0.000122164
-3.56084e-18
-7.79288e-21
-1.47324e-18
9.18596e-22
0.00012521
-3.53815e-18
-7.64235e-21
-1.4978e-18
1.28454e-21
0.000128322
-3.55425e-18
-7.60821e-21
-1.55066e-18
1.70136e-21
0.000131501
-3.52376e-18
-7.34514e-21
-1.57791e-18
2.10513e-21
0.000134748
-3.50881e-18
-7.12556e-21
-1.59214e-18
2.42015e-21
0.000138065
-3.50555e-18
-6.92003e-21
-1.63863e-18
2.62735e-21
0.000141453
-3.48904e-18
-6.66995e-21
-1.66994e-18
2.72761e-21
0.000144914
-3.4392e-18
-6.42948e-21
-1.70211e-18
2.68348e-21
0.000148449
-3.39922e-18
-6.41346e-21
-1.71341e-18
2.59096e-21
0.000152061
-3.3775e-18
-6.69951e-21
-1.74545e-18
2.50942e-21
0.000155749
-3.35783e-18
-6.91258e-21
-1.77888e-18
2.33152e-21
0.000159517
-3.32783e-18
-6.96063e-21
-1.77486e-18
2.08847e-21
0.000163366
-3.29577e-18
-7.19441e-21
-1.81309e-18
1.84325e-21
0.000167297
-3.31375e-18
-7.49839e-21
-1.84445e-18
1.60913e-21
0.000171312
-3.28734e-18
-7.56437e-21
-1.83085e-18
1.51428e-21
0.000175414
-3.24927e-18
-7.79698e-21
-1.85156e-18
1.00948e-21
0.000179603
-3.23824e-18
-8.11088e-21
-1.87315e-18
2.80978e-22
0.000183882
-3.20723e-18
-8.45956e-21
-1.90986e-18
-2.08918e-22
0.000188252
-3.18821e-18
-8.84885e-21
-1.91704e-18
-3.8396e-22
0.000192716
-3.16655e-18
-9.13686e-21
-1.92583e-18
-7.06975e-22
0.000197275
-3.13976e-18
-9.53455e-21
-1.94139e-18
-8.59603e-22
0.000201932
-3.06259e-18
-9.85599e-21
-1.94866e-18
-9.65284e-22
0.000206688
-3.07093e-18
-1.03581e-20
-1.94469e-18
-1.14548e-21
0.000211545
-3.02589e-18
-1.04043e-20
-1.93882e-18
-1.49508e-21
0.000216506
-2.99957e-18
-1.05629e-20
-1.96099e-18
-1.97404e-21
0.000221573
-2.93754e-18
-1.06996e-20
-1.9627e-18
-2.20118e-21
0.000226748
-2.92315e-18
-1.09624e-20
-1.96957e-18
-2.67605e-21
0.000232032
-2.8927e-18
-1.09781e-20
-2.01963e-18
-3.07642e-21
0.000237429
-2.87502e-18
-1.10332e-20
-2.00586e-18
-2.89746e-21
0.000242941
-2.86029e-18
-1.13615e-20
-1.99836e-18
-3.29029e-21
0.00024857
-2.76075e-18
-1.14212e-20
-1.98405e-18
-3.69364e-21
0.000254318
-2.66845e-18
-1.20752e-20
-2.05428e-18
-4.45401e-21
0.000260187
-2.65981e-18
-1.3279e-20
-2.11308e-18
-4.44658e-21
0.000266182
-2.68366e-18
-1.37925e-20
-2.12243e-18
-4.84557e-21
0.000272302
-2.62498e-18
-1.36832e-20
-2.16175e-18
-6.03963e-21
0.000278553
-2.60634e-18
-1.39565e-20
-2.2125e-18
-7.06771e-21
0.000284935
-2.57394e-18
-1.47163e-20
-2.24536e-18
-7.59278e-21
0.000291452
-2.55014e-18
-1.52203e-20
-2.24536e-18
-8.68641e-21
0.000298106
-2.51965e-18
-1.56677e-20
-2.21766e-18
-1.06932e-20
0.0003049
-2.4847e-18
-1.68251e-20
-2.2372e-18
-1.27697e-20
0.000311837
-2.48226e-18
-1.86959e-20
-2.2485e-18
-1.43386e-20
0.00031892
-2.43598e-18
-2.00359e-20
-2.28843e-18
-1.69395e-20
0.000326151
-2.41789e-18
-2.07803e-20
-2.29098e-18
-1.82868e-20
0.000333533
-2.39989e-18
-2.15166e-20
-2.25268e-18
-1.96052e-20
0.00034107
-2.37448e-18
-2.15671e-20
-2.31654e-18
-2.03718e-20
0.000348765
-2.36233e-18
-2.12296e-20
-2.32552e-18
-2.02711e-20
0.000356619
-2.34125e-18
-1.99146e-20
-2.30448e-18
-1.94161e-20
0.000364638
-2.29211e-18
-2.03735e-20
-2.41134e-18
-1.75967e-20
0.000372823
-2.25957e-18
-2.01133e-20
-2.28624e-18
-1.44231e-20
0.000381177
-2.23508e-18
-1.86964e-20
-2.1847e-18
-1.48652e-20
0.000389705
-2.18772e-18
-1.74227e-20
-2.21056e-18
-1.75156e-20
0.00039841
-2.13118e-18
-1.77113e-20
-2.06795e-18
-1.61323e-20
0.000407294
-2.12317e-18
-1.82755e-20
-2.12005e-18
-1.74104e-20
0.000416361
-2.01891e-18
-1.90037e-20
-1.97975e-18
-1.661e-20
0.000425614
-1.99213e-18
-2.00304e-20
-1.9876e-18
-1.70244e-20
0.000435057
-1.9435e-18
-1.95774e-20
-1.92036e-18
-1.57207e-20
0.000444693
-1.8971e-18
-1.80978e-20
-1.90915e-18
-1.79866e-20
0.000454526
-1.84284e-18
-1.80033e-20
-1.87709e-18
-2.0031e-20
0.000464559
-1.82095e-18
-1.7369e-20
-1.79985e-18
-1.96221e-20
0.000474796
-1.7415e-18
-1.52323e-20
-1.66887e-18
-1.91646e-20
0.000485241
-1.71406e-18
-1.20524e-20
-1.63487e-18
-2.15485e-20
0.000495896
-1.63558e-18
-9.86529e-21
-1.69748e-18
-1.97982e-20
0.000506765
-1.72819e-18
-1.05125e-20
-1.78898e-18
-1.65469e-20
0.000517853
-1.73345e-18
-1.0343e-20
-1.85014e-18
-1.46453e-20
0.000529162
-1.84926e-18
-1.34549e-20
-1.78984e-18
-1.27703e-20
0.000540697
-1.91372e-18
-1.7059e-20
-1.83553e-18
-1.59007e-20
0.00055246
-1.94553e-18
-2.15313e-20
-1.84345e-18
-1.56273e-20
0.000564456
-1.89847e-18
-1.99847e-20
-1.75513e-18
-1.33918e-20
0.000576688
-1.89946e-18
-2.2021e-20
-1.78661e-18
-1.62776e-20
0.000589159
-1.93193e-18
-2.52347e-20
-1.85599e-18
-2.03313e-20
0.000601873
-1.79121e-18
-2.43771e-20
-1.8575e-18
-2.30828e-20
0.000614834
-1.79818e-18
-2.6974e-20
-1.78641e-18
-2.65671e-20
0.000628044
-1.75136e-18
-2.9226e-20
-1.77821e-18
-2.80108e-20
0.000641507
-1.81984e-18
-3.5959e-20
-1.66621e-18
-3.12096e-20
0.000655227
-1.69622e-18
-3.64092e-20
-1.70937e-18
-3.0422e-20
0.000669205
-1.74873e-18
-4.16391e-20
-1.66249e-18
-3.22879e-20
0.000683445
-1.52677e-18
-4.75028e-20
-1.60595e-18
-3.88637e-20
0.00069795
-1.52985e-18
-5.93059e-20
-1.59039e-18
-4.56517e-20
0.000712723
-1.5266e-18
-6.54706e-20
-1.60895e-18
-4.87618e-20
0.000727765
-1.49678e-18
-6.79013e-20
-1.54011e-18
-4.70188e-20
0.000743078
-1.438e-18
-6.03779e-20
-1.53728e-18
-5.82118e-20
0.000758665
-1.3572e-18
-5.40707e-20
-1.54097e-18
-6.28593e-20
0.000774526
-1.34421e-18
-5.45815e-20
-1.51153e-18
-5.76405e-20
0.000790663
-1.46893e-18
-6.04158e-20
-1.60927e-18
-5.61766e-20
0.000807075
-1.36358e-18
-4.86101e-20
-1.68367e-18
-4.04431e-20
0.000823764
-1.32213e-18
-5.3022e-20
-1.61919e-18
-2.59314e-20
0.000840729
-1.45839e-18
-6.39718e-20
-1.39767e-18
-1.8242e-20
0.000857968
-1.34938e-18
-5.3014e-20
-1.33696e-18
-8.84347e-21
0.000875479
-1.528e-18
-6.47843e-20
-1.47506e-18
-5.0653e-21
0.000893259
-1.55883e-18
-6.71072e-20
-1.24706e-18
7.36923e-21
0.000911306
-1.48617e-18
-5.14631e-20
-1.23711e-18
-8.97517e-21
0.000929614
-1.67776e-18
-3.36533e-20
-1.2464e-18
-8.74407e-21
0.000948176
-1.34123e-18
2.06614e-21
-1.30884e-18
-1.31003e-20
0.000966988
-1.2308e-18
-7.74049e-22
-1.20411e-18
-9.69744e-21
0.000986039
-1.13386e-18
-3.22869e-21
-1.3201e-18
-5.28802e-21
0.00100532
-1.2254e-18
-2.41497e-20
-1.16126e-18
1.57506e-20
0.00102482
-1.11269e-18
-1.71801e-20
-1.1177e-18
-1.1363e-21
0.00104453
-1.02589e-18
-1.25427e-20
-1.13309e-18
-1.56097e-20
0.00106443
-9.8189e-19
-1.28751e-20
-1.09675e-18
-1.60882e-20
0.00108452
-1.58173e-20
-1.14733e-18
-4.26187e-20
-9.78514e-19
9.03007e-09
-2.71714e-22
-1.52586e-23
2.77642e-08
-8.15487e-22
-3.93048e-23
4.75441e-08
-1.37399e-21
-6.56141e-23
6.84154e-08
-1.95594e-21
-8.91805e-23
9.04257e-08
-2.54828e-21
-1.18857e-22
1.13624e-07
-3.17778e-21
-1.53614e-22
1.38062e-07
-3.83528e-21
-1.6586e-22
1.63793e-07
-4.50765e-21
-2.12553e-22
1.90873e-07
-5.17778e-21
-2.6613e-22
2.19359e-07
-5.90442e-21
-2.97644e-22
2.49311e-07
-6.65751e-21
-2.65452e-22
2.80791e-07
-7.51408e-21
-3.07883e-22
3.13865e-07
-8.36046e-21
-3.67457e-22
3.48601e-07
-9.3128e-21
-3.85708e-22
3.85067e-07
-1.02582e-20
-4.39962e-22
4.23337e-07
-1.11656e-20
-4.63276e-22
4.63487e-07
-1.22095e-20
-4.84883e-22
5.05595e-07
-1.32867e-20
-4.41716e-22
5.49743e-07
-1.44267e-20
-3.50706e-22
5.96017e-07
-1.56052e-20
-2.93663e-22
6.44504e-07
-1.7011e-20
-1.35254e-22
6.95296e-07
-1.83091e-20
-6.54811e-23
7.48489e-07
-1.95642e-20
-3.7086e-23
8.04182e-07
-2.09072e-20
-5.25345e-23
8.62477e-07
-2.22936e-20
-1.16201e-22
9.23482e-07
-2.37905e-20
-3.96494e-22
9.87308e-07
-2.49935e-20
-5.97801e-22
1.05407e-06
-2.6253e-20
-9.94474e-22
1.12389e-06
-2.77945e-20
-1.33158e-21
1.19689e-06
-2.91774e-20
-1.84978e-21
1.2732e-06
-3.09414e-20
-1.90013e-21
1.35295e-06
-3.28607e-20
-1.9077e-21
1.43628e-06
-3.48484e-20
-1.96027e-21
1.52335e-06
-3.73721e-20
-1.57441e-21
1.61429e-06
-3.96343e-20
-1.60728e-21
1.70927e-06
-4.20354e-20
-1.37168e-21
1.80844e-06
-4.38477e-20
-1.55913e-21
1.91198e-06
-4.56947e-20
-2.02565e-21
2.02005e-06
-4.80128e-20
-2.24425e-21
2.13285e-06
-4.99001e-20
-2.73194e-21
2.25055e-06
-5.21684e-20
-3.21683e-21
2.37336e-06
-5.43365e-20
-3.68104e-21
2.50147e-06
-5.65468e-20
-4.23217e-21
2.63509e-06
-5.8752e-20
-4.81841e-21
2.77444e-06
-6.23817e-20
-5.19584e-21
2.91975e-06
-6.61928e-20
-4.58883e-21
3.07125e-06
-6.96655e-20
-4.81794e-21
3.22917e-06
-7.32679e-20
-5.03313e-21
3.39377e-06
-7.75603e-20
-5.12422e-21
3.56532e-06
-8.16606e-20
-5.45908e-21
3.74406e-06
-8.56286e-20
-5.78273e-21
3.93029e-06
-8.9644e-20
-7.30184e-21
4.12429e-06
-9.25966e-20
-8.67137e-21
4.32635e-06
-9.63727e-20
-1.01643e-20
4.53677e-06
-1.00639e-19
-1.1255e-20
4.75588e-06
-1.04474e-19
-1.28043e-20
4.98399e-06
-1.0732e-19
-1.44769e-20
5.22144e-06
-1.11349e-19
-1.65121e-20
5.46858e-06
-1.15521e-19
-1.89676e-20
5.72575e-06
-1.20941e-19
-1.94171e-20
5.99331e-06
-1.2744e-19
-1.93715e-20
6.27164e-06
-1.34137e-19
-1.92935e-20
6.56112e-06
-1.41007e-19
-1.91673e-20
6.86213e-06
-1.47569e-19
-2.0251e-20
7.17507e-06
-1.54196e-19
-2.15618e-20
7.50035e-06
-1.60894e-19
-2.2152e-20
7.83836e-06
-1.67552e-19
-2.55351e-20
8.18954e-06
-1.72643e-19
-2.78883e-20
8.55428e-06
-1.78301e-19
-3.03744e-20
8.93303e-06
-1.82305e-19
-3.5713e-20
9.32621e-06
-1.90315e-19
-3.98087e-20
9.73424e-06
-1.96695e-19
-4.44902e-20
1.01576e-05
-2.03583e-19
-4.90791e-20
1.05966e-05
-2.11449e-19
-5.57112e-20
1.10517e-05
-2.16488e-19
-6.01156e-20
1.15235e-05
-2.24152e-19
-6.58714e-20
1.20121e-05
-2.31283e-19
-7.13899e-20
1.25182e-05
-2.44301e-19
-6.98834e-20
1.30421e-05
-2.56137e-19
-7.1201e-20
1.35841e-05
-2.66263e-19
-7.43281e-20
1.41447e-05
-2.76322e-19
-7.68106e-20
1.47242e-05
-2.89396e-19
-7.70906e-20
1.5323e-05
-2.97738e-19
-8.00591e-20
1.59414e-05
-3.07746e-19
-8.81632e-20
1.65798e-05
-3.14635e-19
-9.5144e-20
1.72385e-05
-3.2445e-19
-9.99788e-20
1.79178e-05
-3.3164e-19
-1.07812e-19
1.8618e-05
-3.35655e-19
-1.15317e-19
1.93394e-05
-3.44613e-19
-1.22978e-19
2.00822e-05
-3.58947e-19
-1.30419e-19
2.08468e-05
-3.67185e-19
-1.40035e-19
2.16334e-05
-3.73292e-19
-1.50249e-19
2.24423e-05
-3.86809e-19
-1.60699e-19
2.32737e-05
-3.96624e-19
-1.6445e-19
2.41279e-05
-4.10727e-19
-1.7079e-19
2.50051e-05
-4.18644e-19
-1.75658e-19
2.59056e-05
-4.28823e-19
-1.85909e-19
2.68297e-05
-4.38893e-19
-1.99462e-19
2.77776e-05
-4.47557e-19
-2.0643e-19
2.87496e-05
-4.56505e-19
-2.18056e-19
2.9746e-05
-4.71517e-19
-2.21504e-19
3.07672e-05
-4.83889e-19
-2.2815e-19
3.18134e-05
-4.93418e-19
-2.39539e-19
3.28849e-05
-5.0439e-19
-2.45095e-19
3.39821e-05
-5.13973e-19
-2.62514e-19
3.51053e-05
-5.27329e-19
-2.75758e-19
3.6255e-05
-5.42842e-19
-2.8519e-19
3.74315e-05
-5.56829e-19
-2.966e-19
3.86353e-05
-5.65153e-19
-3.18502e-19
3.98667e-05
-5.77682e-19
-3.33367e-19
4.11262e-05
-5.7713e-19
-3.37931e-19
4.24144e-05
-5.85997e-19
-3.50594e-19
4.37315e-05
-5.89128e-19
-3.59827e-19
4.50783e-05
-6.00843e-19
-3.7013e-19
4.64552e-05
-6.13136e-19
-3.81285e-19
4.78627e-05
-6.12692e-19
-3.94957e-19
4.93014e-05
-6.17376e-19
-3.96901e-19
5.07719e-05
-6.31751e-19
-4.08463e-19
5.22749e-05
-6.40857e-19
-4.21018e-19
5.38108e-05
-6.47004e-19
-4.32436e-19
5.53805e-05
-6.40307e-19
-4.4547e-19
5.69845e-05
-6.49661e-19
-4.53456e-19
5.86235e-05
-6.62992e-19
-4.60281e-19
6.02983e-05
-6.53354e-19
-4.85412e-19
6.20095e-05
-6.60724e-19
-4.91696e-19
6.37579e-05
-6.73347e-19
-4.93106e-19
6.55443e-05
-6.77248e-19
-5.03533e-19
6.73695e-05
-6.82857e-19
-4.99915e-19
6.92342e-05
-6.72541e-19
-5.05153e-19
7.11393e-05
-6.75799e-19
-5.12319e-19
7.30856e-05
-6.81264e-19
-5.12651e-19
7.5074e-05
-6.75931e-19
-5.10906e-19
7.71054e-05
-6.78024e-19
-5.12134e-19
7.91807e-05
-6.96989e-19
-5.21017e-19
8.13008e-05
-6.9783e-19
-5.29772e-19
8.34667e-05
-7.19519e-19
-5.29231e-19
8.56794e-05
-7.38172e-19
-5.23673e-19
8.79398e-05
-7.41251e-19
-5.26628e-19
9.02489e-05
-7.39003e-19
-5.53169e-19
9.26078e-05
-7.43035e-19
-5.55368e-19
9.50177e-05
-7.57254e-19
-5.8645e-19
9.74794e-05
-7.63003e-19
-5.89958e-19
9.99942e-05
-7.42463e-19
-5.98235e-19
0.000102563
-7.50131e-19
-6.00936e-19
0.000105188
-7.53225e-19
-6.03757e-19
0.000107868
-7.44631e-19
-6.24521e-19
0.000110607
-7.69708e-19
-6.37584e-19
0.000113405
-7.6635e-19
-6.39072e-19
0.000116262
-7.78098e-19
-6.51678e-19
0.000119182
-7.96068e-19
-6.58484e-19
0.000122164
-8.14267e-19
-6.62088e-19
0.00012521
-8.44179e-19
-6.21181e-19
0.000128322
-8.16412e-19
-6.2837e-19
0.000131501
-8.03141e-19
-6.48997e-19
0.000134748
-7.97899e-19
-6.65655e-19
0.000138065
-8.0061e-19
-6.91771e-19
0.000141453
-7.98511e-19
-6.94916e-19
0.000144914
-8.06911e-19
-6.91586e-19
0.000148449
-8.43508e-19
-6.73032e-19
0.000152061
-8.20805e-19
-6.82606e-19
0.000155749
-7.82898e-19
-6.98228e-19
0.000159517
-7.97836e-19
-6.98004e-19
0.000163366
-7.86712e-19
-7.18709e-19
0.000167297
-7.71785e-19
-6.99589e-19
0.000171312
-7.83773e-19
-7.23196e-19
0.000175414
-7.74762e-19
-7.38668e-19
0.000179603
-7.89384e-19
-7.23006e-19
0.000183882
-7.92126e-19
-7.13128e-19
0.000188252
-7.90334e-19
-7.02177e-19
0.000192716
-8.1509e-19
-6.65694e-19
0.000197275
-8.11345e-19
-6.72525e-19
0.000201932
-7.90452e-19
-6.69818e-19
0.000206688
-7.66139e-19
-6.739e-19
0.000211545
-7.70565e-19
-6.80491e-19
0.000216506
-7.85614e-19
-6.71707e-19
0.000221573
-7.69426e-19
-6.93729e-19
0.000226748
-7.50562e-19
-6.86202e-19
0.000232032
-7.35351e-19
-6.75671e-19
0.000237429
-7.72661e-19
-7.02544e-19
0.000242941
-7.72961e-19
-6.76298e-19
0.00024857
-7.56182e-19
-6.61484e-19
0.000254318
-7.44352e-19
-6.31249e-19
0.000260187
-7.04426e-19
-6.7968e-19
0.000266182
-6.94275e-19
-6.73593e-19
0.000272302
-6.69125e-19
-6.76504e-19
0.000278553
-6.8903e-19
-7.09752e-19
0.000284935
-6.64482e-19
-7.47891e-19
0.000291452
-6.68586e-19
-7.49862e-19
0.000298106
-7.11313e-19
-7.17045e-19
0.0003049
-7.58016e-19
-7.06995e-19
0.000311837
-7.62124e-19
-7.79491e-19
0.00031892
-7.12398e-19
-7.58221e-19
0.000326151
-7.21576e-19
-7.75003e-19
0.000333533
-7.04766e-19
-6.98713e-19
0.00034107
-7.19532e-19
-7.23203e-19
0.000348765
-6.98886e-19
-7.2821e-19
0.000356619
-7.99971e-19
-6.65625e-19
0.000364638
-7.60732e-19
-6.90214e-19
0.000372823
-7.19961e-19
-7.22241e-19
0.000381177
-7.49499e-19
-7.69757e-19
0.000389705
-8.15976e-19
-7.08954e-19
0.00039841
-8.04847e-19
-7.31072e-19
0.000407294
-8.41659e-19
-7.60013e-19
0.000416361
-8.0093e-19
-7.52746e-19
0.000425614
-7.92515e-19
-7.70933e-19
0.000435057
-8.04536e-19
-8.47622e-19
0.000444693
-8.87093e-19
-8.36116e-19
0.000454526
-8.70921e-19
-7.9952e-19
0.000464559
-8.68468e-19
-8.13795e-19
0.000474796
-8.12629e-19
-8.85871e-19
0.000485241
-8.4855e-19
-8.07545e-19
0.000495896
-8.94265e-19
-8.3614e-19
0.000506765
-9.89984e-19
-9.43422e-19
0.000517853
-1.06645e-18
-9.61263e-19
0.000529162
-1.14066e-18
-1.04862e-18
0.000540697
-1.1987e-18
-1.11047e-18
0.00055246
-1.10862e-18
-1.10789e-18
0.000564456
-1.16882e-18
-1.11691e-18
0.000576688
-1.20226e-18
-1.15045e-18
0.000589159
-1.17084e-18
-1.11953e-18
0.000601873
-1.12569e-18
-1.11717e-18
0.000614834
-1.12517e-18
-1.07888e-18
0.000628044
-1.1493e-18
-1.09698e-18
0.000641507
-1.07696e-18
-8.36693e-19
0.000655227
-1.02356e-18
-9.23228e-19
0.000669205
-1.07489e-18
-9.64169e-19
0.000683445
-9.39518e-19
-9.65152e-19
0.00069795
-8.31565e-19
-9.17579e-19
0.000712723
-7.89541e-19
-7.55909e-19
0.000727765
-6.50998e-19
-8.86792e-19
0.000743078
-6.25892e-19
-8.44674e-19
0.000758665
-6.06953e-19
-6.51851e-19
0.000774526
-6.38755e-19
-6.60151e-19
0.000790663
-5.15996e-19
-5.94598e-19
0.000807075
-5.83275e-19
-6.68805e-19
0.000823764
-6.82744e-19
-7.16845e-19
0.000840729
-6.62906e-19
-6.03328e-19
0.000857968
-8.125e-19
-6.76539e-19
0.000875479
-9.08068e-19
-6.83649e-19
0.000893259
-8.28504e-19
-8.18683e-19
0.000911306
-7.84872e-19
-8.00995e-19
0.000929614
-8.16903e-19
-8.68215e-19
0.000948176
-8.84763e-19
-8.04076e-19
0.000966988
-8.9256e-19
-8.16657e-19
0.000986039
-1.01981e-18
-8.92559e-19
0.00100532
-8.59095e-19
-1.0189e-18
0.00102482
-7.80425e-19
-9.36266e-19
0.00104453
-7.27666e-19
-8.45451e-19
0.00106443
-6.45074e-19
-9.40758e-19
0.00108452
-8.15236e-19
-7.88079e-19
0.00108452
-1.04233e-18
-1.22808e-20
-9.48098e-19
-5.78317e-20
0.00106443
-8.55289e-19
-2.49998e-21
-8.5848e-19
-4.03956e-20
0.00104453
-7.56815e-19
-9.57472e-22
-6.84994e-19
-2.46619e-20
0.00102482
-5.26584e-19
-1.25313e-20
-8.05882e-19
-2.98518e-20
0.00100532
-7.50625e-19
-2.20686e-20
-6.32261e-19
-1.24841e-20
0.000986039
-6.65224e-19
-1.33993e-20
-6.02881e-19
-1.43136e-20
0.000966988
-7.81459e-19
-1.52182e-20
-5.61957e-19
-2.64195e-20
0.000948176
-6.48146e-19
7.42258e-21
-8.27677e-19
-1.91859e-20
0.000929614
-5.65161e-19
-1.13263e-21
-7.69459e-19
3.54115e-21
0.000911306
-6.0016e-19
-1.33362e-20
-7.60224e-19
9.12145e-21
0.00089326
-7.14299e-19
-1.80224e-20
-6.64386e-19
8.95886e-21
0.000875479
-7.59799e-19
-1.96524e-20
-5.84223e-19
5.47409e-21
0.000857968
-6.14797e-19
-9.03018e-21
-5.83285e-19
9.67129e-22
0.000840729
-6.50592e-19
-1.15862e-20
-6.21675e-19
1.40681e-21
0.000823764
-5.82704e-19
-1.43942e-20
-6.07427e-19
-1.13768e-21
0.000807075
-5.13083e-19
-1.27976e-20
-6.09163e-19
-1.5816e-21
0.000790663
-5.11245e-19
-1.24779e-20
-6.25378e-19
-6.26499e-21
0.000774526
-5.08985e-19
-1.48856e-20
-4.59485e-19
2.83479e-21
0.000758665
-4.80363e-19
-1.10104e-20
-5.3745e-19
3.45586e-21
0.000743078
-4.54961e-19
-4.27008e-21
-4.87427e-19
1.15775e-20
0.000727765
-4.93622e-19
-2.0821e-21
-4.54393e-19
1.4148e-20
0.000712723
-4.55167e-19
2.40476e-21
-5.31934e-19
1.3506e-20
0.00069795
-4.61215e-19
1.2049e-20
-3.16771e-19
2.04662e-20
0.000683445
-4.089e-19
2.32505e-20
-1.90283e-19
1.69487e-20
0.000669205
-3.95715e-19
1.92038e-20
-2.18921e-19
1.06103e-20
0.000655227
-2.21987e-19
1.78667e-20
-3.30812e-19
4.96452e-21
0.000641507
-1.92344e-19
7.93302e-21
-3.83686e-19
2.88005e-21
0.000628044
-4.2787e-19
-5.39761e-21
-4.63679e-19
4.55211e-21
0.000614834
-4.34371e-19
-3.94029e-21
-4.45702e-19
2.23846e-21
0.000601873
-4.37908e-19
-1.50777e-21
-4.44406e-19
-6.34644e-22
0.000589159
-5.70721e-19
-9.3839e-22
-3.89577e-19
1.61772e-21
0.000576688
-5.18649e-19
1.10524e-20
-3.93772e-19
7.63855e-22
0.000564456
-3.25865e-19
1.48303e-20
-3.65336e-19
3.71322e-21
0.00055246
-3.49233e-19
9.46492e-21
-3.6042e-19
1.9023e-21
0.000540697
-4.04093e-19
9.18694e-21
-4.18781e-19
-1.47805e-21
0.000529162
-3.13942e-19
1.04049e-20
-3.44412e-19
1.39292e-21
0.000517853
-3.76057e-19
6.65731e-21
-3.60243e-19
-1.59227e-21
0.000506765
-4.12425e-19
8.74615e-21
-4.18569e-19
-5.03556e-21
0.000495896
-3.50939e-19
7.45159e-21
-3.9546e-19
-4.74976e-21
0.000485241
-3.43211e-19
4.01092e-21
-4.27848e-19
-6.62567e-21
0.000474796
-3.17841e-19
1.05939e-21
-4.61816e-19
-6.55769e-21
0.000464559
-3.35885e-19
-1.80318e-21
-4.34724e-19
-4.57107e-21
0.000454526
-3.40772e-19
-4.39424e-21
-3.33587e-19
-3.15118e-21
0.000444693
-3.27352e-19
-6.04324e-21
-3.68471e-19
-2.84595e-21
0.000435057
-3.62753e-19
-7.62162e-21
-2.8507e-19
5.17622e-22
0.000425614
-3.63188e-19
-8.06463e-21
-3.12689e-19
1.49276e-22
0.000416361
-2.95275e-19
-6.57131e-21
-3.2836e-19
-2.88612e-21
0.000407294
-2.96926e-19
-5.93391e-21
-3.33529e-19
-3.17805e-21
0.00039841
-2.87713e-19
-4.60799e-21
-2.94136e-19
-2.20741e-21
0.000389705
-2.7446e-19
-4.77676e-21
-3.01272e-19
-4.44538e-21
0.000381177
-2.1727e-19
-2.81281e-21
-3.13858e-19
-4.12291e-21
0.000372823
-2.98084e-19
-3.94186e-23
-2.45885e-19
-4.38178e-21
0.000364638
-2.79066e-19
1.94425e-21
-2.48202e-19
-4.20625e-21
0.000356619
-2.25172e-19
2.42098e-21
-2.72722e-19
-3.81069e-21
0.000348765
-2.29149e-19
1.36908e-21
-2.30222e-19
-4.01356e-21
0.00034107
-2.78106e-19
1.21599e-21
-2.35342e-19
-4.72729e-21
0.000333533
-2.56557e-19
2.44172e-21
-2.11809e-19
-4.90984e-21
0.000326151
-2.324e-19
1.64797e-21
-1.5768e-19
-4.5795e-21
0.00031892
-2.34323e-19
8.14561e-22
-1.72055e-19
-4.78745e-21
0.000311837
-2.02391e-19
4.89725e-22
-2.0788e-19
-5.29541e-21
0.0003049
-2.13618e-19
-4.32308e-22