/*--------------------------------*- C++ -*----------------------------------*\
| =========                 |                                                 |
| \\      /  F ield         | OpenFOAM: The Open Source CFD Toolbox           |
|  \\    /   O peration     | Version:  2106                                  |
|   \\  /    A nd           | Website:  www.openfoam.com                      |
|    \\/     M anipulation  |                                                 |
\*---------------------------------------------------------------------------*/
FoamFile
{
    version     2.0;
    format      ascii;
    arch        "LSB;label=32;scalar=64";
    class       surfaceScalarField;
    location    "10000";
    object      phi;
}
// * * * * * * * * * * * * * * * * * * * * * * * * * * * * * * * * * * * * * //

dimensions      [0 3 -1 0 0 0 0];

oriented        oriented;

internalField   nonuniform List<scalar> 
1596
(
7.04068e-08
-4.14961e-18
-4.674e-22
-1.03355e-21
2.85773e-23
2.24721e-07
-4.14585e-18
-1.21836e-21
-3.51698e-21
-1.17801e-24
4.01021e-07
-4.14172e-18
-1.36144e-21
-6.33602e-21
-2.00199e-24
6.0177e-07
-4.13691e-18
-1.54527e-21
-9.60417e-21
-3.23291e-24
8.29684e-07
-4.13152e-18
-1.72859e-21
-1.31806e-20
-4.98858e-24
1.08776e-06
-4.12581e-18
-1.90923e-21
-1.6845e-20
-7.42516e-24
1.37929e-06
-4.11952e-18
-2.09938e-21
-2.09655e-20
-1.08032e-23
1.70791e-06
-4.11231e-18
-2.3044e-21
-2.58359e-20
-1.52953e-23
2.07764e-06
-4.10468e-18
-2.52684e-21
-3.11567e-20
-2.10365e-23
2.49288e-06
-4.09658e-18
-2.76867e-21
-3.69606e-20
-2.8239e-23
2.95847e-06
-4.08746e-18
-3.03168e-21
-4.30585e-20
-3.72175e-23
3.47977e-06
-4.07726e-18
-3.3177e-21
-4.90848e-20
-4.82357e-23
4.06263e-06
-4.0645e-18
-3.62832e-21
-5.63128e-20
-6.17607e-23
4.7135e-06
-4.05331e-18
-3.96565e-21
-6.4191e-20
-7.76734e-23
5.43946e-06
-4.03927e-18
-4.33088e-21
-7.38463e-20
-9.63045e-23
6.24824e-06
-4.02467e-18
-4.72622e-21
-8.17904e-20
-1.17617e-22
7.14832e-06
-4.00859e-18
-5.1536e-21
-9.168e-20
-1.42416e-22
8.14895e-06
-3.98834e-18
-5.61474e-21
-1.03517e-19
-1.70093e-22
9.26015e-06
-3.96749e-18
-6.11275e-21
-1.15192e-19
-1.98725e-22
1.04928e-05
-3.94692e-18
-6.65055e-21
-1.29277e-19
-2.29327e-22
1.18585e-05
-3.92379e-18
-7.22685e-21
-1.44446e-19
-2.61118e-22
1.33698e-05
-3.90407e-18
-7.84245e-21
-1.58735e-19
-2.94733e-22
1.50398e-05
-3.87806e-18
-8.49392e-21
-1.76675e-19
-3.2994e-22
1.6882e-05
-3.85818e-18
-9.18295e-21
-1.90491e-19
-3.62247e-22
1.89104e-05
-3.82491e-18
-9.89798e-21
-2.14737e-19
-3.98334e-22
2.1139e-05
-3.79155e-18
-1.06393e-20
-2.34202e-19
-4.28116e-22
2.35813e-05
-3.76018e-18
-1.13981e-20
-2.58549e-19
-4.50759e-22
2.62503e-05
-3.71956e-18
-1.21538e-20
-2.85665e-19
-4.6854e-22
2.91579e-05
-3.67891e-18
-1.29077e-20
-3.13855e-19
-4.68234e-22
3.23146e-05
-3.6349e-18
-1.36441e-20
-3.44864e-19
-4.44615e-22
3.57297e-05
-3.58779e-18
-1.43488e-20
-3.74586e-19
-4.01246e-22
3.94111e-05
-3.54967e-18
-1.50123e-20
-4.03588e-19
-3.21763e-22
4.33659e-05
-3.50451e-18
-1.56132e-20
-4.43918e-19
-2.13871e-22
4.76004e-05
-3.45013e-18
-1.61568e-20
-4.79167e-19
-6.57494e-23
5.21208e-05
-3.40027e-18
-1.66622e-20
-5.13113e-19
1.36352e-22
5.69339e-05
-3.3393e-18
-1.71155e-20
-5.43987e-19
3.61447e-22
6.20472e-05
-3.25956e-18
-1.75529e-20
-5.80423e-19
5.90949e-22
6.74693e-05
-3.19706e-18
-1.79409e-20
-6.18648e-19
7.69674e-22
7.32104e-05
-3.1332e-18
-1.83116e-20
-6.64322e-19
9.21519e-22
7.92821e-05
-3.09756e-18
-1.87238e-20
-6.98759e-19
1.13338e-21
8.56977e-05
-3.05976e-18
-1.90822e-20
-7.34203e-19
1.31697e-21
9.24721e-05
-3.00141e-18
-1.93424e-20
-7.7494e-19
1.45119e-21
9.96218e-05
-2.93391e-18
-1.95586e-20
-8.10433e-19
1.50765e-21
0.000107165
-2.88079e-18
-1.97798e-20
-8.56376e-19
1.54721e-21
0.000115121
-2.82145e-18
-1.99836e-20
-8.70726e-19
1.5887e-21
0.000123512
-2.75535e-18
-2.01587e-20
-9.24795e-19
1.51008e-21
0.000132359
-2.69734e-18
-2.03183e-20
-9.71511e-19
1.29637e-21
0.000141688
-2.6338e-18
-2.05585e-20
-1.04409e-18
1.12547e-21
0.000151523
-2.56138e-18
-2.06783e-20
-1.0904e-18
9.34354e-22
0.000161893
-2.52358e-18
-2.09978e-20
-1.15106e-18
3.73575e-22
0.000172825
-2.4557e-18
-2.13204e-20
-1.1914e-18
-3.09934e-22
0.00018435
-2.3885e-18
-2.15206e-20
-1.20044e-18
-1.46736e-21
0.000196501
-2.29265e-18
-2.16965e-20
-1.27233e-18
-2.99816e-21
0.000209311
-2.21612e-18
-2.23841e-20
-1.31745e-18
-4.35535e-21
0.000222815
-2.1544e-18
-2.3386e-20
-1.34571e-18
-5.78458e-21
0.000237051
-2.08712e-18
-2.41204e-20
-1.37804e-18
-7.51613e-21
0.000252058
-2.00857e-18
-2.52001e-20
-1.42696e-18
-9.31222e-21
0.000267877
-1.95364e-18
-2.66813e-20
-1.42316e-18
-1.05111e-20
0.000284552
-1.92623e-18
-2.83273e-20
-1.35118e-18
-1.19448e-20
0.000302128
-1.85342e-18
-2.98001e-20
-1.38868e-18
-1.40317e-20
0.000320653
-1.80983e-18
-3.08275e-20
-1.38136e-18
-1.58399e-20
0.000340176
-1.747e-18
-3.03595e-20
-1.35425e-18
-1.69819e-20
0.000360751
-1.74243e-18
-3.20705e-20
-1.35459e-18
-1.69546e-20
0.000382433
-1.69414e-18
-3.24958e-20
-1.34503e-18
-1.67488e-20
0.000405279
-1.63319e-18
-3.09827e-20
-1.25418e-18
-1.64481e-20
0.000429351
-1.58132e-18
-3.00754e-20
-1.28851e-18
-1.97442e-20
0.000454711
-1.44018e-18
-3.06514e-20
-1.27968e-18
-2.12833e-20
0.000481427
-1.44299e-18
-3.12804e-20
-1.31535e-18
-2.28053e-20
0.000509568
-1.40647e-18
-3.14522e-20
-1.43334e-18
-2.40006e-20
0.000539208
-1.54978e-18
-3.1516e-20
-1.38556e-18
-2.02624e-20
0.000570422
-1.49187e-18
-2.64076e-20
-1.45881e-18
-2.0969e-20
0.000603292
-1.42456e-18
-2.07506e-20
-1.48152e-18
-1.88779e-20
0.000637901
-1.45957e-18
-1.99046e-20
-1.59945e-18
-2.15018e-20
0.000674336
-1.5256e-18
-2.71143e-20
-1.57703e-18
-1.98143e-20
0.000712689
-1.54851e-18
-3.57372e-20
-1.59796e-18
-2.32463e-20
0.000753056
-1.61574e-18
-3.68195e-20
-1.50901e-18
-2.03147e-20
0.000795537
-1.5995e-18
-3.12507e-20
-1.46836e-18
-2.59627e-20
0.000840234
-1.50967e-18
-2.06204e-20
-1.54945e-18
-3.4556e-20
0.000887257
-1.5192e-18
-8.2034e-21
-1.51708e-18
-3.5393e-20
0.000936717
-1.47044e-18
1.0046e-20
-1.45362e-18
-3.12461e-20
0.000988732
-1.49523e-18
2.60648e-20
-1.34803e-18
-2.0521e-20
0.00104342
-1.45842e-18
3.35916e-20
-1.29172e-18
1.53812e-20
0.00110091
-1.26192e-18
2.27941e-20
-1.35268e-18
-6.57181e-21
0.00116133
-1.15223e-18
9.46608e-22
-1.25133e-18
1.93566e-20
0.00122481
-1.10652e-18
-1.41293e-20
-1.24441e-18
7.16749e-21
0.00129149
-1.13529e-18
-4.78661e-20
-8.79209e-19
2.03911e-20
0.0013615
-1.08957e-18
-4.25754e-20
-1.07173e-18
-3.33454e-20
0.00143498
-1.02944e-18
-4.65523e-20
-1.1694e-18
-3.26637e-20
0.00151207
-1.1481e-18
-4.16418e-20
-1.17179e-18
-4.28743e-20
0.00159292
-1.07329e-18
-4.07376e-20
-1.04927e-18
-1.23031e-20
0.00167764
-1.11372e-18
-1.1048e-20
-1.08047e-18
-1.93115e-20
0.00176637
-1.14748e-18
1.32454e-20
-1.12293e-18
1.08462e-20
0.00185923
-1.10066e-18
-1.16356e-21
-1.1629e-18
2.53998e-20
0.00195629
-9.08574e-19
-4.46242e-20
-8.9517e-19
6.09468e-20
0.00205764
-9.16597e-19
-2.57618e-20
-9.73413e-19
-1.84299e-20
0.0021633
-8.45524e-19
5.83768e-20
-8.72188e-19
2.48793e-20
0.00227324
-9.38743e-19
-4.79637e-22
-9.4278e-19
-9.92614e-20
0.00238736
-8.66747e-19
-5.38778e-20
-8.05124e-19
-3.87206e-20
0.00250547
-7.20019e-19
9.33143e-21
-7.15608e-19
-2.83599e-21
0.00262728
1.10445e-20
-6.09169e-19
1.43929e-20
-6.67697e-19
7.04068e-08
-4.35132e-22
-4.62378e-24
2.24721e-07
-1.51476e-21
-8.129e-23
4.01021e-07
-2.83617e-21
-1.17425e-22
6.0177e-07
-4.23785e-21
-2.12769e-22
8.29684e-07
-5.61908e-21
-3.83926e-22
1.08776e-06
-6.93425e-21
-8.35686e-22
1.37929e-06
-8.74025e-21
-1.07345e-21
1.70791e-06
-1.0348e-20
-1.32968e-21
2.07764e-06
-1.20158e-20
-1.76872e-21
2.49288e-06
-1.41541e-20
-2.40559e-21
2.95847e-06
-1.70904e-20
-2.85608e-21
3.47977e-06
-1.98942e-20
-3.81829e-21
4.06263e-06
-2.29647e-20
-3.7377e-21
4.7135e-06
-2.62769e-20
-4.44741e-21
5.43946e-06
-2.8857e-20
-6.18081e-21
6.24824e-06
-3.26226e-20
-7.27469e-21
7.14832e-06
-3.66329e-20
-8.25514e-21
8.14895e-06
-4.101e-20
-6.97978e-21
9.26015e-06
-4.83225e-20
-7.56786e-21
1.04928e-05
-5.18627e-20
-9.06956e-21
1.18585e-05
-5.60156e-20
-1.25212e-20
1.33698e-05
-6.10662e-20
-1.61659e-20
1.50398e-05
-6.76055e-20
-1.95096e-20
1.6882e-05
-7.3286e-20
-2.57333e-20
1.89104e-05
-7.90023e-20
-2.6823e-20
2.1139e-05
-8.77431e-20
-2.49307e-20
2.35813e-05
-9.02782e-20
-3.16755e-20
2.62503e-05
-9.85127e-20
-3.39069e-20
2.91579e-05
-1.075e-19
-3.74066e-20
3.23146e-05
-1.15191e-19
-4.54601e-20
3.57297e-05
-1.23923e-19
-4.73573e-20
3.94111e-05
-1.39017e-19
-5.53071e-20
4.33659e-05
-1.53416e-19
-6.07861e-20
4.76004e-05
-1.65769e-19
-5.61982e-20
5.21208e-05
-1.75082e-19
-6.44892e-20
5.69339e-05
-1.86734e-19
-6.95486e-20
6.20472e-05
-1.62692e-19
-9.45351e-20
6.74693e-05
-1.67703e-19
-1.05879e-19
7.32104e-05
-1.82516e-19
-9.63359e-20
7.92821e-05
-1.90559e-19
-9.7584e-20
8.56977e-05
-1.87955e-19
-9.7632e-20
9.24721e-05
-1.85872e-19
-1.12943e-19
9.96218e-05
-1.98682e-19
-1.07897e-19
0.000107165
-2.21321e-19
-1.1817e-19
0.000115121
-2.3344e-19
-1.13887e-19
0.000123512
-2.40791e-19
-1.28319e-19
0.000132359
-2.64303e-19
-1.04564e-19
0.000141688
-2.44664e-19
-1.26158e-19
0.000151523
-2.5071e-19
-1.58526e-19
0.000161893
-2.69643e-19
-1.49849e-19
0.000172825
-2.61636e-19
-1.88064e-19
0.00018435
-2.66114e-19
-1.92486e-19
0.000196501
-2.8799e-19
-1.81823e-19
0.000209311
-3.10323e-19
-2.01655e-19
0.000222815
-2.91205e-19
-2.27075e-19
0.000237051
-2.88861e-19
-2.24513e-19
0.000252058
-2.74646e-19
-2.36291e-19
0.000267877
-2.88746e-19
-2.61032e-19
0.000284552
-3.32144e-19
-2.42546e-19
0.000302128
-3.32337e-19
-2.87752e-19
0.000320653
-3.28084e-19
-3.03549e-19
0.000340176
-4.46883e-19
-3.0414e-19
0.000360751
-4.83624e-19
-3.57249e-19
0.000382433
-4.69459e-19
-3.78827e-19
0.000405279
-4.815e-19
-4.03638e-19
0.000429351
-4.90321e-19
-4.35608e-19
0.000454711
-3.96096e-19
-4.15965e-19
0.000481427
-4.44483e-19
-3.97063e-19
0.000509568
-4.23392e-19
-4.29427e-19
0.000539208
-4.82759e-19
-4.51866e-19
0.000570422
-4.52551e-19
-4.61102e-19
0.000603292
-4.63632e-19
-5.51578e-19
0.000637901
-5.7888e-19
-5.66485e-19
0.000674336
-6.30538e-19
-5.99213e-19
0.000712689
-5.92323e-19
-6.03616e-19
0.000753056
-6.32603e-19
-6.38875e-19
0.000795537
-6.15295e-19
-5.92179e-19
0.000840234
-6.20995e-19
-7.14776e-19
0.000887257
-7.14544e-19
-8.62067e-19
0.000936717
-8.46417e-19
-8.9807e-19
0.000988732
-1.06153e-18
-7.66824e-19
0.00104342
-1.20159e-18
-1.20866e-18
0.00110091
-1.11854e-18
-1.05186e-18
0.00116133
-9.72016e-19
-1.09348e-18
0.00122481
-9.44113e-19
-8.52301e-19
0.00129149
-8.60766e-19
-8.47889e-19
0.0013615
-1.00197e-18
-9.53101e-19
0.00143498
-9.59075e-19
-1.14569e-18
0.00151207
-1.14613e-18
-1.12532e-18
0.00159292
-1.04281e-18
-1.17928e-18
0.00167764
-1.06581e-18
-1.02124e-18
0.00176637
-1.10291e-18
-9.74445e-19
0.00185923
-1.08536e-18
-9.4788e-19
0.00195629
-8.24611e-19
-9.907e-19
0.00205764
-7.41419e-19
-8.67065e-19
0.0021633
-8.78984e-19
-9.86544e-19
0.00227324
-9.68637e-19
-7.80816e-19
0.00238736
-7.97239e-19
-8.00879e-19
0.00250547
-7.53505e-19
-7.56074e-19
0.00262728
-6.29572e-19
-6.77995e-19
0.00262728
-4.77194e-19
2.51105e-20
-4.14896e-19
6.19382e-20
0.00250547
-7.15673e-19
1.82831e-20
-6.49314e-19
1.94137e-20
0.00238736
-4.35276e-19
3.65629e-20
-4.6604e-19
1.20791e-20
0.00227324
-4.17714e-19
-6.51434e-20
-3.92335e-19
-1.02268e-20
0.0021633
-6.13742e-19
-3.73258e-20
-7.63715e-19
-5.29706e-20
0.00205764
-7.92265e-19
-3.66954e-20
-5.76334e-19
6.96595e-20
0.00195629
-7.63351e-19
-6.291e-21
-7.08576e-19
-1.45489e-20
0.00185923
-6.17455e-19
2.1258e-20
-8.2535e-19
-4.83091e-20
0.00176637
-6.60142e-19
3.92664e-21
-6.88107e-19
3.43989e-21
0.00167764
-6.31727e-19
1.64467e-20
-6.61469e-19
1.74925e-20
0.00159292
-5.82215e-19
1.54585e-20
-4.7304e-19
7.08986e-20
0.00151207
-4.94932e-19
3.65141e-20
-5.12647e-19
4.0441e-20
0.00143498
-4.70506e-19
2.99904e-20
-3.19228e-19
5.1209e-20
0.0013615
-4.9236e-19
2.8731e-20
-5.37545e-19
8.66546e-21
0.00129149
-5.15603e-19
2.99982e-20
-4.96643e-19
1.74616e-20
0.00122481
-4.64417e-19
2.13831e-20
-4.53226e-19
-5.59531e-22
0.00116133
-3.79787e-19
1.42271e-21
-3.43466e-19
-2.44868e-20
0.00110091
-2.73162e-19
-2.11242e-20
-4.33089e-19
-2.42921e-20
0.00104342
-1.60793e-19
-8.53016e-22
-5.16878e-19
1.22417e-20
0.000988732
-3.23368e-19
2.81888e-21
-3.72176e-19
4.41819e-20
0.000936717
-4.59192e-19
-4.29726e-21
-2.19535e-19
3.61801e-20
0.000887257
-4.13806e-19
1.29095e-20
-2.13728e-19
2.01959e-20
0.000840234
-2.59237e-19
2.86313e-20
-4.09743e-19
7.80479e-21
0.000795537
-2.35633e-19
2.99448e-20
-3.30033e-19
1.31139e-20
0.000753056
-1.98461e-19
2.65373e-20
-1.71352e-19
1.09084e-20
0.000712689
-2.11576e-19
1.69727e-20
-2.06177e-19
5.48282e-21
0.000674336
-2.13362e-19
1.55447e-20
-2.10435e-19
-5.29135e-23
0.000637901
-2.64177e-19
1.10523e-20
-2.12061e-19
5.07448e-21
0.000603292
-2.57186e-19
9.32236e-21
-2.24352e-19
2.44873e-21
0.000570422
-2.38528e-19
1.33804e-20
-1.52461e-19
-2.15751e-21
0.000539208
-1.89702e-19
1.01252e-20
-2.58361e-19
-3.35917e-21
0.000509568
-1.83314e-19
4.39752e-21
-2.56435e-19
7.46596e-22
0.000481427
-1.90106e-19
3.04215e-21
-1.76234e-19
3.96192e-21
0.000454711
-2.68373e-19
2.68634e-21
-1.93575e-19
3.4029e-21
0.000429351
-1.99116e-19
3.6803e-21
-2.26339e-19
5.74023e-21
0.000405279
-2.17323e-19
2.29402e-21
-1.64261e-19
6.94862e-21
0.000382433
-2.05695e-19
1.93769e-21
-1.20318e-19
5.05842e-21
0.000360751
-1.94414e-19
2.00253e-21
-1.33757e-19
2.39779e-21
0.000340176
-2.00215e-19
2.12491e-21
-1.25054e-19
1.48037e-21
0.000320653
-2.01941e-19
2.34083e-21
-1.35355e-19
7.32655e-22
0.000302128
-1.7366e-19
2.67235e-21
-1.36602e-19
1.70767e-22
0.000284552
-1.12494e-19
2.82628e-21
-1.76575e-19
2.16926e-22
0.000267877
-1.09893e-19
2.19871e-21
-7.6016e-20
4.51138e-22
0.000252058
-7.18599e-20
1.77707e-21
-1.43704e-19
9.95034e-23
0.000237051
-6.16234e-20
9.68291e-22
-1.40426e-19
2.18066e-22
0.000222815
-7.91198e-20
2.15773e-22
-8.25746e-20
6.19586e-22
0.000209311
-8.15694e-20
-1.72765e-22
-8.24469e-20
4.37271e-22
0.000196501
-7.25166e-20
-3.43738e-22
-6.60442e-20
-1.34855e-22
0.00018435
-1.03194e-20
-5.77752e-22
-8.1377e-20
-4.06313e-22
0.000172825
-2.91129e-21
-8.59727e-22
-5.9443e-20
-4.69624e-22
0.000161893
7.7732e-21
-1.04923e-21
-5.13281e-20
-7.21001e-22
0.000151523
9.88881e-21
-1.22552e-21
-5.42186e-20
-8.56584e-22
0.000141688
-2.78782e-20
-1.39087e-21
-2.72855e-20
-8.09151e-22
0.000132359
1.58692e-21
-1.21459e-21
-1.55384e-20
-9.34454e-22
0.000123512
-1.33309e-21
-1.27273e-21
-2.48891e-20
-9.37151e-22
0.000115121
-3.52849e-21
-1.29045e-21
-3.31999e-20
-8.01837e-22
0.000107165
-2.87936e-21
-1.27099e-21
-3.85487e-20
-5.64776e-22
9.96218e-05
4.90909e-21
-1.28151e-21
-3.52467e-21
-3.58089e-22
9.24721e-05
-5.44661e-21
-1.21102e-21
-4.60068e-22
-2.96012e-22
8.56976e-05
-2.50099e-20
-1.01512e-21
4.04256e-23
-3.1345e-22
7.92821e-05
-1.40252e-20
-7.82923e-22
9.24908e-21
-3.50004e-22
7.32104e-05
-1.43143e-20
-6.22572e-22
8.11008e-21
-4.21973e-22
6.74693e-05
-1.8488e-20
-5.22068e-22
-3.18733e-21
-4.705e-22
6.20472e-05
-1.31208e-20
-4.48472e-22
-9.67945e-21
-4.44253e-22
5.69339e-05
-2.16745e-20
-4.05145e-22
-3.67221e-21
-3.90164e-22
5.21208e-05
-1.82342e-20
-3.44587e-22
-2.61551e-21
-3.58587e-22
4.76004e-05
-1.71344e-20
-3.23413e-22
-3.21823e-21
-3.3459e-22
4.33659e-05
-1.75692e-20
-2.9968e-22
-8.60491e-21
-3.051e-22
3.94111e-05
-1.18017e-20
-2.74075e-22
2.71883e-21
-2.73652e-22
3.57297e-05
-7.06991e-21
-2.55641e-22
3.73229e-21
-2.59664e-22
3.23146e-05
-7.01543e-21
-2.36784e-22
-2.63731e-21
-2.5121e-22
2.91579e-05
-7.57424e-21
-2.16244e-22
-3.72323e-21
-2.23762e-22
2.62503e-05
-7.21659e-21
-1.96183e-22
-4.12449e-21
-2.0114e-22
2.35813e-05
-7.88308e-21
-1.77497e-22
-4.54864e-21
-1.82233e-22
2.1139e-05
-7.45075e-21
-1.62809e-22
-4.8431e-21
-1.62139e-22
1.89104e-05
-6.92256e-21
-1.49007e-22
-4.03238e-21
-1.45823e-22
1.6882e-05
-6.48162e-21
-1.27805e-22
-2.4595e-22
-1.34073e-22
1.50398e-05
-2.73711e-21
-1.09317e-22
-1.03449e-21
-1.25046e-22
1.33698e-05
-3.18734e-21
-9.42502e-23
-1.5173e-22
-1.1324e-22
1.18585e-05
-7.45534e-22
-8.05977e-23
-9.1339e-22
-1.02549e-22
1.04928e-05
-4.59056e-22
-6.9121e-23
-1.22525e-21
-9.19944e-23
9.26015e-06
-9.3853e-22
-5.94204e-23
-9.46054e-22
-8.1617e-23
8.14895e-06
-6.02275e-22
-5.13017e-23
-2.43949e-22
-7.17971e-23
7.14833e-06
2.63396e-22
-4.38356e-23
1.60351e-22
-6.34616e-23
6.24824e-06
-7.38002e-23
-3.78595e-23
5.15907e-22
-5.56454e-23
5.43946e-06
2.86224e-22
-3.25066e-23
1.95514e-22
-4.89897e-23
4.7135e-06
4.90846e-22
-2.79832e-23
1.31866e-22
-4.30104e-23
4.06263e-06
3.10224e-22
-2.42256e-23
5.24181e-23
-3.76475e-23
3.47977e-06
5.16573e-22
-2.09692e-23
-3.79664e-22
-3.28641e-23
2.95847e-06
5.41441e-22
-1.82981e-23
-9.33179e-23
-2.85585e-23
2.49288e-06
-2.88345e-22
-1.61163e-23
-3.767e-22
-2.48286e-23
2.07764e-06
-3.58024e-22
-1.4019e-23
-3.02483e-22
-2.15442e-23
1.70792e-06
-1.44314e-22
-1.21493e-23
-5.01651e-23
-1.87003e-23
1.37929e-06
-2.10586e-22
-1.05495e-23
1.44177e-23
-1.62519e-23
1.08776e-06
-1.06167e-22
-9.15505e-24
4.40628e-24
-1.41483e-23
8.29683e-07
-6.71634e-23
-7.97512e-24
1.52872e-23
-1.22813e-23
6.01771e-07
-5.0156e-23
-6.94155e-24
8.57977e-24
-1.06584e-23
4.01021e-07
-8.49087e-25
-6.03634e-24
-2.57948e-23
-9.26835e-24
2.2472e-07
-8.59625e-24
-5.25096e-24
-3.57501e-24
-8.0597e-24
7.04069e-08
-1.2125e-24
-1.47664e-24
0.00262728
-4.97291e-19
-4.83898e-19
0.00250547
-6.20048e-19
-5.75462e-19
0.00238736
-4.96385e-19
-4.21934e-19
0.00227324
-2.75798e-19
-3.77593e-19
0.0021633
-5.40129e-19
-4.51932e-19
0.00205764
-6.76326e-19
-6.59987e-19
0.00195629
-6.26746e-19
-6.66018e-19
0.00185923
-6.39855e-19
-6.45942e-19
0.00176637
-6.37467e-19
-6.82757e-19
0.00167764
-6.30313e-19
-5.23994e-19
0.00159292
-5.56189e-19
-6.10425e-19
0.00151207
-5.81134e-19
-5.72779e-19
0.00143498
-5.06835e-19
-5.31607e-19
0.0013615
-4.76953e-19
-4.67886e-19
0.00129149
-5.13451e-19
-4.89922e-19
0.00122481
-5.4013e-19
-5.14094e-19
0.00116133
-5.24074e-19
-3.82161e-19
0.00110091
-1.81368e-19
-2.75001e-19
0.00104342
-1.5212e-19
-3.18152e-19
0.000988732
-4.12187e-19
-4.33856e-19
0.000936717
-4.08466e-19
-4.04929e-19
0.000887257
-4.04941e-19
-4.60381e-19
0.000840234
-3.91046e-19
-5.01778e-19
0.000795537
-3.64294e-19
-4.28006e-19
0.000753056
-3.64048e-19
-2.61057e-19
0.000712689
-2.75886e-19
-3.08939e-19
0.000674336
-3.00312e-19
-2.02491e-19
0.000637901
-3.15301e-19
-3.05942e-19
0.000603292
-1.8956e-19
-2.92144e-19
0.000570422
-2.55198e-19
-1.35931e-19
0.000539208
-2.40427e-19
-1.61991e-19
0.000509568
-1.4685e-19
-1.8443e-19
0.000481427
-1.38342e-19
-1.86491e-19
0.000454711
-1.71443e-19
-1.20367e-19
0.000429351
-1.55292e-19
-1.56487e-19
0.000405279
-1.46908e-19
-1.57732e-19
0.000382433
-1.35497e-19
-1.60836e-19
0.000360751
-1.28665e-19
-1.71307e-19
0.000340176
-1.28838e-19
-1.72813e-19
0.000320653
-1.39207e-19
-1.62409e-19
0.000302128
-1.37513e-19
-1.45732e-19
0.000284552
-1.17701e-19
-1.92447e-19
0.000267877
-1.02838e-19
-9.53266e-20
0.000252058
-9.73124e-20
-1.02382e-19
0.000237051
-9.40868e-20
-9.23222e-20
0.000222815
-1.04601e-19
-7.58743e-20
0.000209311
-1.12932e-19
-1.06523e-19
0.000196501
-1.20583e-19
-8.77719e-20
0.00018435
-6.93003e-20
-8.37971e-20
0.000172825
-6.44597e-20
-8.50534e-20
0.000161893
-6.53006e-20
-8.63074e-20
0.000151523
-7.07186e-20
-8.31564e-20
0.000141688
-5.93734e-20
-9.51019e-20
0.000132359
-6.53403e-20
-5.41667e-20
0.000123512
-6.08982e-20
-2.58931e-20
0.000115121
-5.13001e-20
-4.60051e-21
0.000107165
-5.15178e-20
-3.32497e-21
9.96218e-05
-2.65445e-20
-2.82451e-21
9.24721e-05
-2.06817e-21
-2.24553e-20
8.56976e-05
-3.14326e-21
-2.62582e-20
7.92821e-05
-3.47708e-21
-2.8008e-20
7.32104e-05
-1.12795e-20
-2.46092e-20
6.74693e-05
-1.16403e-20
-1.60148e-20
6.20472e-05
-4.47559e-21
-1.16919e-20
5.69339e-05
4.18776e-21
-1.25103e-20
5.21208e-05
-7.99959e-21
-1.67466e-20
4.76004e-05
-7.18895e-21
-1.18764e-20
4.33659e-05
-1.1139e-20
-1.23613e-20
3.94111e-05
-1.22067e-20
-1.00649e-20
3.57297e-05
-8.77939e-21
-1.00966e-20
3.23146e-05
-9.97011e-21
-1.94886e-21
2.91579e-05
-1.16599e-20
-5.51893e-21
2.62503e-05
-1.09436e-20
-5.32486e-21
2.35813e-05
-1.24106e-20
-3.63481e-21
2.1139e-05
-1.07485e-20
-5.42806e-21
1.89104e-05
1.5356e-22
-4.14459e-21
1.6882e-05
-1.05844e-21
-2.96619e-21
1.50398e-05
7.87432e-23
-2.22148e-21
1.33698e-05
-6.1206e-22
-3.4703e-21
1.18585e-05
5.85665e-23
-3.21278e-21
1.04928e-05
-2.61462e-23
-2.13064e-21
9.26015e-06
-7.06048e-22
-1.01544e-21
8.14895e-06
4.39191e-22
-2.25125e-21
7.14833e-06
-7.71204e-22
-4.16447e-22
6.24824e-06
-7.10729e-22
-3.32606e-22
5.43946e-06
-3.90304e-22
-3.20729e-22
4.7135e-06
-4.13737e-22
1.20923e-22
4.06263e-06
-3.81228e-22
1.4103e-22
3.47977e-06
-4.54399e-22
9.20321e-23
2.95847e-06
-7.78171e-22
4.10116e-22
2.49288e-06
-5.71282e-22
2.55462e-22
2.07764e-06
-2.49877e-22
1.20745e-22
1.70792e-06
1.60488e-23
2.35098e-22
1.37929e-06
5.89817e-24
4.11527e-23
1.08776e-06
-1.52331e-22
2.08197e-22
8.29683e-07
-7.57434e-23
1.93749e-22
6.01771e-07
-3.51992e-23
2.36873e-23
4.01021e-07
-1.84498e-23
2.13733e-23
2.2472e-07
-6.83491e-24
6.71104e-24
7.04069e-08
)
;

boundaryField
{
    walls
    {
        type            calculated;
        value           uniform 0;
    }
    inlet
    {
        type            cyclic;
        value           nonuniform List<scalar> 
400
(
-7.04068e-08
-2.24721e-07
-4.01021e-07
-6.0177e-07
-8.29684e-07
-1.08776e-06
-1.37929e-06
-1.70791e-06
-2.07764e-06
-2.49288e-06
-2.95847e-06
-3.47977e-06
-4.06263e-06
-4.7135e-06
-5.43946e-06
-6.24824e-06
-7.14832e-06
-8.14895e-06
-9.26015e-06
-1.04928e-05
-1.18585e-05
-1.33698e-05
-1.50398e-05
-1.6882e-05
-1.89104e-05
-2.1139e-05
-2.35813e-05
-2.62503e-05
-2.91579e-05
-3.23146e-05
-3.57297e-05
-3.94111e-05
-4.33659e-05
-4.76004e-05
-5.21208e-05
-5.69339e-05
-6.20472e-05
-6.74693e-05
-7.32104e-05
-7.92821e-05
-8.56977e-05
-9.24721e-05
-9.96218e-05
-0.000107165
-0.000115121
-0.000123512
-0.000132359
-0.000141688
-0.000151523
-0.000161893
-0.000172825
-0.00018435
-0.000196501
-0.000209311
-0.000222815
-0.000237051
-0.000252058
-0.000267877
-0.000284552
-0.000302128
-0.000320653
-0.000340176
-0.000360751
-0.000382433
-0.000405279
-0.000429351
-0.000454711
-0.000481427
-0.000509568
-0.000539208
-0.000570422
-0.000603292
-0.000637901
-0.000674336
-0.000712689
-0.000753056
-0.000795537
-0.000840234
-0.000887257
-0.000936717
-0.000988732
-0.00104342
-0.00110091
-0.00116133
-0.00122481
-0.00129149
-0.0013615
-0.00143498
-0.00151207
-0.00159292
-0.00167764
-0.00176637
-0.00185923
-0.00195629
-0.00205764
-0.0021633
-0.00227324
-0.00238736
-0.00250547
-0.00262728
-7.04068e-08
-2.24721e-07
-4.01021e-07
-6.0177e-07
-8.29684e-07
-1.08776e-06
-1.37929e-06
-1.70791e-06
-2.07764e-06
-2.49288e-06
-2.95847e-06
-3.47977e-06
-4.06263e-06
-4.7135e-06
-5.43946e-06
-6.24824e-06
-7.14832e-06
-8.14895e-06
-9.26015e-06
-1.04928e-05
-1.18585e-05
-1.33698e-05
-1.50398e-05
-1.6882e-05
-1.89104e-05
-2.1139e-05
-2.35813e-05
-2.62503e-05
-2.91579e-05
-3.23146e-05
-3.57297e-05
-3.94111e-05
-4.33659e-05
-4.76004e-05
-5.21208e-05
-5.69339e-05
-6.20472e-05
-6.74693e-05
-7.32104e-05
-7.92821e-05
-8.56977e-05
-9.24721e-05
-9.96218e-05
-0.000107165
-0.000115121
-0.000123512
-0.000132359
-0.000141688
-0.000151523
-0.000161893
-0.000172825
-0.00018435
-0.000196501
-0.000209311
-0.000222815
-0.000237051
-0.000252058
-0.000267877
-0.000284552
-0.000302128
-0.000320653
-0.000340176
-0.000360751
-0.000382433
-0.000405279
-0.000429351
-0.000454711
-0.000481427
-0.000509568
-0.000539208
-0.000570422
-0.000603292
-0.000637901
-0.000674336
-0.000712689
-0.000753056
-0.000795537
-0.000840234
-0.000887257
-0.000936717
-0.000988732
-0.00104342
-0.00110091
-0.00116133
-0.00122481
-0.00129149
-0.0013615
-0.00143498
-0.00151207
-0.00159292
-0.00167764
-0.00176637
-0.00185923
-0.00195629
-0.00205764
-0.0021633
-0.00227324
-0.00238736
-0.00250547
-0.00262728
-0.00262728
-0.00250547
-0.00238736
-0.00227324
-0.0021633
-0.00205764
-0.00195629
-0.00185923
-0.00176637
-0.00167764
-0.00159292
-0.00151207
-0.00143498
-0.0013615
-0.00129149
-0.00122481
-0.00116133
-0.00110091
-0.00104342
-0.000988732
-0.000936717
-0.000887257
-0.000840234
-0.000795537
-0.000753056
-0.000712689
-0.000674336
-0.000637901
-0.000603292
-0.000570422
-0.000539208
-0.000509568
-0.000481427
-0.000454711
-0.000429351
-0.000405279
-0.000382433
-0.000360751
-0.000340176
-0.000320653
-0.000302128
-0.000284552
-0.000267877
-0.000252058
-0.000237051
-0.000222815
-0.000209311
-0.000196501
-0.00018435
-0.000172825
-0.000161893
-0.000151523
-0.000141688
-0.000132359
-0.000123512
-0.000115121
-0.000107165
-9.96218e-05
-9.24721e-05
-8.56976e-05
-7.92821e-05
-7.32104e-05
-6.74693e-05
-6.20472e-05
-5.69339e-05
-5.21208e-05
-4.76004e-05
-4.33659e-05
-3.94111e-05
-3.57297e-05
-3.23146e-05
-2.91579e-05
-2.62503e-05
-2.35813e-05
-2.1139e-05
-1.89104e-05
-1.6882e-05
-1.50398e-05
-1.33698e-05
-1.18585e-05
-1.04928e-05
-9.26015e-06
-8.14895e-06
-7.14833e-06
-6.24824e-06
-5.43946e-06
-4.7135e-06
-4.06263e-06
-3.47977e-06
-2.95847e-06
-2.49288e-06
-2.07764e-06
-1.70792e-06
-1.37929e-06
-1.08776e-06
-8.29683e-07
-6.01771e-07
-4.01021e-07
-2.2472e-07
-7.04069e-08
-0.00262728
-0.00250547
-0.00238736
-0.00227324
-0.0021633
-0.00205764
-0.00195629
-0.00185923
-0.00176637
-0.00167764
-0.00159292
-0.00151207
-0.00143498
-0.0013615
-0.00129149
-0.00122481
-0.00116133
-0.00110091
-0.00104342
-0.000988732
-0.000936717
-0.000887257
-0.000840234
-0.000795537
-0.000753056
-0.000712689
-0.000674336
-0.000637901
-0.000603292
-0.000570422
-0.000539208
-0.000509568
-0.000481427
-0.000454711
-0.000429351
-0.000405279
-0.000382433
-0.000360751
-0.000340176
-0.000320653
-0.000302128
-0.000284552
-0.000267877
-0.000252058
-0.000237051
-0.000222815
-0.000209311
-0.000196501
-0.00018435
-0.000172825
-0.000161893
-0.000151523
-0.000141688
-0.000132359
-0.000123512
-0.000115121
-0.000107165
-9.96218e-05
-9.24721e-05
-8.56976e-05
-7.92821e-05
-7.32104e-05
-6.74693e-05
-6.20472e-05
-5.69339e-05
-5.21208e-05
-4.76004e-05
-4.33659e-05
-3.94111e-05
-3.57297e-05
-3.23146e-05
-2.91579e-05
-2.62503e-05
-2.35813e-05
-2.1139e-05
-1.89104e-05
-1.6882e-05
-1.50398e-05
-1.33698e-05
-1.18585e-05
-1.04928e-05
-9.26015e-06
-8.14895e-06
-7.14833e-06
-6.24824e-06
-5.43946e-06
-4.7135e-06
-4.06263e-06
-3.47977e-06
-2.95847e-06
-2.49288e-06
-2.07764e-06
-1.70792e-06
-1.37929e-06
-1.08776e-06
-8.29683e-07
-6.01771e-07
-4.01021e-07
-2.2472e-07
-7.04069e-08
)
;
    }
    outlet
    {
        type            cyclic;
        value           nonuniform List<scalar> 
400
(
7.04068e-08
2.24721e-07
4.01021e-07
6.0177e-07
8.29684e-07
1.08776e-06
1.37929e-06
1.70791e-06
2.07764e-06
2.49288e-06
2.95847e-06
3.47977e-06
4.06263e-06
4.7135e-06
5.43946e-06
6.24824e-06
7.14832e-06
8.14895e-06
9.26015e-06
1.04928e-05
1.18585e-05
1.33698e-05
1.50398e-05
1.6882e-05
1.89104e-05
2.1139e-05
2.35813e-05
2.62503e-05
2.91579e-05
3.23146e-05
3.57297e-05
3.94111e-05
4.33659e-05
4.76004e-05
5.21208e-05
5.69339e-05
6.20472e-05
6.74693e-05
7.32104e-05
7.92821e-05
8.56977e-05
9.24721e-05
9.96218e-05
0.000107165
0.000115121
0.000123512
0.000132359
0.000141688
0.000151523
0.000161893
0.000172825
0.00018435
0.000196501
0.000209311
0.000222815
0.000237051
0.000252058
0.000267877
0.000284552
0.000302128
0.000320653
0.000340176
0.000360751
0.000382433
0.000405279
0.000429351
0.000454711
0.000481427
0.000509568
0.000539208
0.000570422
0.000603292
0.000637901
0.000674336
0.000712689
0.000753056
0.000795537
0.000840234
0.000887257
0.000936717
0.000988732
0.00104342
0.00110091
0.00116133
0.00122481
0.00129149
0.0013615
0.00143498
0.00151207
0.00159292
0.00167764
0.00176637
0.00185923
0.00195629
0.00205764
0.0021633
0.00227324
0.00238736
0.00250547
0.00262728
7.04068e-08
2.24721e-07
4.01021e-07
6.0177e-07
8.29684e-07
1.08776e-06
1.37929e-06
1.70791e-06
2.07764e-06
2.49288e-06
2.95847e-06
3.47977e-06
4.06263e-06
4.7135e-06
5.43946e-06
6.24824e-06
7.14832e-06
8.14895e-06
9.26015e-06
1.04928e-05
1.18585e-05
1.33698e-05
1.50398e-05
1.6882e-05
1.89104e-05
2.1139e-05
2.35813e-05
2.62503e-05
2.91579e-05
3.23146e-05
3.57297e-05
3.94111e-05
4.33659e-05
4.76004e-05
5.21208e-05
5.69339e-05
6.20472e-05
6.74693e-05
7.32104e-05
7.92821e-05
8.56977e-05
9.24721e-05
9.96218e-05
0.000107165
0.000115121
0.000123512
0.000132359
0.000141688
0.000151523
0.000161893
0.000172825
0.00018435
0.000196501
0.000209311
0.000222815
0.000237051
0.000252058
0.000267877
0.000284552
0.000302128
0.000320653
0.000340176
0.000360751
0.000382433
0.000405279
0.000429351
0.000454711
0.000481427
0.000509568
0.000539208
0.000570422
0.000603292
0.000637901
0.000674336
0.000712689
0.000753056
0.000795537
0.000840234
0.000887257
0.000936717
0.000988732
0.00104342
0.00110091
0.00116133
0.00122481
0.00129149
0.0013615
0.00143498
0.00151207
0.00159292
0.00167764
0.00176637
0.00185923
0.00195629
0.00205764
0.0021633
0.00227324
0.00238736
0.00250547
0.00262728
0.00262728
0.00250547
0.00238736
0.00227324
0.0021633
0.00205764
0.00195629
0.00185923
0.00176637
0.00167764
0.00159292
0.00151207
0.00143498
0.0013615
0.00129149
0.00122481
0.00116133
0.00110091
0.00104342
0.000988732
0.000936717
0.000887257
0.000840234
0.000795537
0.000753056
0.000712689
0.000674336
0.000637901
0.000603292
0.000570422
0.000539208
0.000509568
0.000481427
0.000454711
0.000429351
0.000405279
0.000382433
0.000360751
0.000340176
0.000320653
0.000302128
0.000284552
0.000267877
0.000252058
0.000237051
0.000222815
0.000209311
0.000196501
0.00018435
0.000172825
0.000161893
0.000151523
0.000141688
0.000132359
0.000123512
0.000115121
0.000107165
9.96218e-05
9.24721e-05
8.56976e-05
7.92821e-05
7.32104e-05
6.74693e-05
6.20472e-05
5.69339e-05
5.21208e-05
4.76004e-05
4.33659e-05
3.94111e-05
3.57297e-05
3.23146e-05
2.91579e-05
2.62503e-05
2.35813e-05
2.1139e-05
1.89104e-05
1.6882e-05
1.50398e-05
1.33698e-05
1.18585e-05
1.04928e-05
9.26015e-06
8.14895e-06
7.14833e-06
6.24824e-06
5.43946e-06
4.7135e-06
4.06263e-06
3.47977e-06
2.95847e-06
2.49288e-06
2.07764e-06
1.70792e-06
1.37929e-06
1.08776e-06
8.29683e-07
6.01771e-07
4.01021e-07
2.2472e-07
7.04069e-08
0.00262728
0.00250547
0.00238736
0.00227324
0.0021633
0.00205764
0.00195629
0.00185923
0.00176637
0.00167764
0.00159292
0.00151207
0.00143498