/*--------------------------------*- C++ -*----------------------------------*\
| =========                 |                                                 |
| \\      /  F ield         | OpenFOAM: The Open Source CFD Toolbox           |
|  \\    /   O peration     | Version:  2106                                  |
|   \\  /    A nd           | Website:  www.openfoam.com                      |
|    \\/     M anipulation  |                                                 |
\*---------------------------------------------------------------------------*/
FoamFile
{
    version     2.0;
    format      ascii;
    arch        "LSB;label=32;scalar=64";
    class       volSymmTensorField;
    location    "10000";
    object      turbulenceProperties:R;
}
// * * * * * * * * * * * * * * * * * * * * * * * * * * * * * * * * * * * * * //

dimensions      [0 2 -2 0 0 0 0];

internalField   nonuniform List<symmTensor> 
2000
(
(2.06327e-08 -7.27726e-14 -1.34688e-16 2.06327e-08 1.24016e-27 2.06327e-08)
(2.06327e-08 -7.27726e-14 -1.34688e-16 2.06327e-08 4.00575e-29 2.06327e-08)
(3.0962e-09 -6.29088e-14 -3.5149e-16 3.0962e-09 1.84252e-28 3.0962e-09)
(3.0962e-09 -6.29088e-14 -3.5149e-16 3.0962e-09 2.27425e-30 3.0962e-09)
(1.44202e-09 -8.67504e-14 -6.7253e-16 1.44202e-09 2.00129e-28 1.44202e-09)
(1.44202e-09 -8.67504e-14 -6.7253e-16 1.44202e-09 2.1569e-30 1.44202e-09)
(2.40226e-09 -3.07717e-13 -2.4301e-15 2.40226e-09 5.09657e-28 2.40226e-09)
(2.40226e-09 -3.07717e-13 -2.4301e-15 2.40226e-09 8.39943e-30 2.40226e-09)
(5.52754e-09 -1.25445e-12 -1.00916e-14 5.52754e-09 1.56187e-27 5.52754e-09)
(5.52754e-09 -1.25445e-12 -1.00916e-14 5.52754e-09 3.76161e-29 5.52754e-09)
(1.16041e-08 -4.16415e-12 -3.41243e-14 1.16041e-08 4.95118e-27 1.16041e-08)
(1.16041e-08 -4.16415e-12 -3.41243e-14 1.16041e-08 1.36876e-28 1.16041e-08)
(2.17787e-08 -1.14508e-11 -9.55887e-14 2.17787e-08 1.37192e-26 2.17787e-08)
(2.17787e-08 -1.14508e-11 -9.55887e-14 2.17787e-08 4.10868e-28 2.17787e-08)
(3.74384e-08 -2.73184e-11 -2.32304e-13 3.74384e-08 3.35348e-26 3.74384e-08)
(3.74384e-08 -2.73184e-11 -2.32304e-13 3.74384e-08 1.06695e-27 3.74384e-08)
(6.01947e-08 -5.85438e-11 -5.07124e-13 6.01947e-08 7.32349e-26 6.01947e-08)
(6.01947e-08 -5.85438e-11 -5.07124e-13 6.01947e-08 2.48285e-27 6.01947e-08)
(9.1891e-08 -1.15461e-10 -1.01883e-12 9.1891e-08 1.47298e-25 9.1891e-08)
(9.1891e-08 -1.15461e-10 -1.01883e-12 9.1891e-08 5.29933e-27 9.1891e-08)
(1.34617e-07 -2.13181e-10 -1.91622e-12 1.34617e-07 2.77853e-25 1.34617e-07)
(1.34617e-07 -2.13181e-10 -1.91622e-12 1.34617e-07 1.05413e-26 1.34617e-07)
(1.90727e-07 -3.73087e-10 -3.41617e-12 1.90727e-07 4.97125e-25 1.90727e-07)
(1.90727e-07 -3.73087e-10 -3.41617e-12 1.90727e-07 1.98267e-26 1.90727e-07)
(2.6286e-07 -6.24657e-10 -5.82644e-12 2.6286e-07 8.50943e-25 2.6286e-07)
(2.6286e-07 -6.24657e-10 -5.82644e-12 2.6286e-07 3.56419e-26 2.6286e-07)
(3.53965e-07 -1.00766e-09 -9.57433e-12 3.53965e-07 1.40328e-24 3.53965e-07)
(3.53965e-07 -1.00766e-09 -9.57433e-12 3.53965e-07 6.15534e-26 3.53965e-07)
(4.67323e-07 -1.5748e-09 -1.52423e-11 4.67323e-07 2.24172e-24 4.67323e-07)
(4.67323e-07 -1.5748e-09 -1.52423e-11 4.67323e-07 1.02774e-25 4.67323e-07)
(6.06575e-07 -2.39485e-09 -2.36122e-11 6.06575e-07 3.48414e-24 6.06575e-07)
(6.06575e-07 -2.39485e-09 -2.36122e-11 6.06575e-07 1.66705e-25 6.06575e-07)
(7.75754e-07 -3.55641e-09 -3.57192e-11 7.75754e-07 5.28784e-24 7.75754e-07)
(7.75754e-07 -3.55641e-09 -3.57192e-11 7.75754e-07 2.63545e-25 7.75754e-07)
(9.79311e-07 -5.17233e-09 -5.29184e-11 9.79311e-07 7.86062e-24 9.79311e-07)
(9.79311e-07 -5.17233e-09 -5.29184e-11 9.79311e-07 4.06587e-25 9.79311e-07)
(1.22216e-06 -7.38488e-09 -7.69654e-11 1.22216e-06 1.14695e-23 1.22216e-06)
(1.22216e-06 -7.38488e-09 -7.69654e-11 1.22216e-06 6.15499e-25 1.22216e-06)
(1.50969e-06 -1.03719e-08 -1.10114e-10 1.50969e-06 1.64618e-23 1.50969e-06)
(1.50969e-06 -1.03719e-08 -1.10114e-10 1.50969e-06 9.16482e-25 1.50969e-06)
(1.84784e-06 -1.4354e-08 -1.55234e-10 1.84784e-06 2.32852e-23 1.84784e-06)
(1.84784e-06 -1.4354e-08 -1.55234e-10 1.84784e-06 1.3399e-24 1.84784e-06)
(2.24311e-06 -1.96027e-08 -2.15955e-10 2.24311e-06 3.24935e-23 2.24311e-06)
(2.24311e-06 -1.96027e-08 -2.15955e-10 2.24311e-06 1.93296e-24 2.24311e-06)
(2.70263e-06 -2.64505e-08 -2.96832e-10 2.70263e-06 4.48012e-23 2.70263e-06)
(2.70263e-06 -2.64505e-08 -2.96832e-10 2.70263e-06 2.75399e-24 2.70263e-06)
(3.23418e-06 -3.53015e-08 -4.03555e-10 3.23418e-06 6.11031e-23 3.23418e-06)
(3.23418e-06 -3.53015e-08 -4.03555e-10 3.23418e-06 3.86877e-24 3.23418e-06)
(3.84628e-06 -4.66453e-08 -5.43186e-10 3.84628e-06 8.24898e-23 3.84628e-06)
(3.84628e-06 -4.66453e-08 -5.43186e-10 3.84628e-06 5.38119e-24 3.84628e-06)
(4.5482e-06 -6.10712e-08 -7.24449e-10 4.5482e-06 1.10342e-22 4.5482e-06)
(4.5482e-06 -6.10712e-08 -7.24449e-10 4.5482e-06 7.42445e-24 4.5482e-06)
(5.35006e-06 -7.92857e-08 -9.58071e-10 5.35006e-06 1.46342e-22 5.35006e-06)
(5.35006e-06 -7.92857e-08 -9.58071e-10 5.35006e-06 1.01493e-23 5.35006e-06)
(6.26287e-06 -1.02133e-07 -1.25718e-09 6.26287e-06 2.11901e-22 6.26287e-06)
(6.26287e-06 -1.02133e-07 -1.25718e-09 6.26287e-06 1.37698e-23 6.26287e-06)
(7.29861e-06 -1.30616e-07 -1.6378e-09 7.29861e-06 4.14526e-22 7.29861e-06)
(7.29861e-06 -1.30616e-07 -1.6378e-09 7.29861e-06 1.85348e-23 7.29861e-06)
(8.47028e-06 -1.65926e-07 -2.11938e-09 8.47028e-06 6.83478e-22 8.47028e-06)
(8.47028e-06 -1.65926e-07 -2.11938e-09 8.47028e-06 2.4756e-23 8.47028e-06)
(9.79202e-06 -2.09467e-07 -2.72547e-09 9.79202e-06 8.86974e-22 9.79202e-06)
(9.79202e-06 -2.09467e-07 -2.72547e-09 9.79202e-06 3.27331e-23 9.79202e-06)
(1.12791e-05 -2.62896e-07 -3.48449e-09 1.12791e-05 1.14424e-21 1.12791e-05)
(1.12791e-05 -2.62896e-07 -3.48449e-09 1.12791e-05 4.28782e-23 1.12791e-05)
(1.29482e-05 -3.28155e-07 -4.43062e-09 1.29482e-05 1.46718e-21 1.29482e-05)
(1.29482e-05 -3.28155e-07 -4.43062e-09 1.29482e-05 5.58439e-23 1.29482e-05)
(1.48173e-05 -4.07519e-07 -5.60485e-09 1.48173e-05 1.87131e-21 1.48173e-05)
(1.48173e-05 -4.07519e-07 -5.60485e-09 1.48173e-05 7.21545e-23 1.48173e-05)
(1.69058e-05 -5.03648e-07 -7.05623e-09 1.69058e-05 2.09607e-21 1.69058e-05)
(1.69058e-05 -5.03648e-07 -7.05623e-09 1.69058e-05 9.26246e-23 1.69058e-05)
(1.92347e-05 -6.19634e-07 -8.84323e-09 1.92347e-05 1.60899e-21 1.92347e-05)
(1.92347e-05 -6.19634e-07 -8.84323e-09 1.92347e-05 1.18568e-22 1.92347e-05)
(2.18267e-05 -7.59075e-07 -1.10354e-08 2.18267e-05 1.15529e-21 2.18267e-05)
(2.18267e-05 -7.59075e-07 -1.10354e-08 2.18267e-05 1.51763e-22 2.18267e-05)
(2.47064e-05 -9.26138e-07 -1.37154e-08 2.47064e-05 1.4067e-21 2.47064e-05)
(2.47064e-05 -9.26138e-07 -1.37154e-08 2.47064e-05 1.94367e-22 2.47064e-05)
(2.79003e-05 -1.12564e-06 -1.6981e-08 2.79003e-05 1.7044e-21 2.79003e-05)
(2.79003e-05 -1.12564e-06 -1.6981e-08 2.79003e-05 2.48568e-22 2.79003e-05)
(3.14367e-05 -1.36315e-06 -2.09477e-08 3.14367e-05 2.05777e-21 3.14367e-05)
(3.14367e-05 -1.36315e-06 -2.09477e-08 3.14367e-05 3.16483e-22 3.14367e-05)
(3.53464e-05 -1.64507e-06 -2.57516e-08 3.53464e-05 2.47668e-21 3.53464e-05)
(3.53464e-05 -1.64507e-06 -2.57516e-08 3.53464e-05 4.00569e-22 3.53464e-05)
(3.96624e-05 -1.97875e-06 -3.15529e-08 3.96624e-05 2.97068e-21 3.96624e-05)
(3.96624e-05 -1.97875e-06 -3.15529e-08 3.96624e-05 5.04669e-22 3.96624e-05)
(4.44202e-05 -2.37263e-06 -3.85394e-08 4.44202e-05 3.55011e-21 4.44202e-05)
(4.44202e-05 -2.37263e-06 -3.85394e-08 4.44202e-05 6.33007e-22 4.44202e-05)
(4.9658e-05 -2.83636e-06 -4.69314e-08 4.9658e-05 4.23141e-21 4.9658e-05)
(4.9658e-05 -2.83636e-06 -4.69314e-08 4.9658e-05 7.91233e-22 4.9658e-05)
(5.54166e-05 -3.38096e-06 -5.69859e-08 5.54166e-05 5.03133e-21 5.54166e-05)
(5.54166e-05 -3.38096e-06 -5.69859e-08 5.54166e-05 9.83284e-22 5.54166e-05)
(6.17401e-05 -4.01897e-06 -6.90029e-08 6.17401e-05 5.95313e-21 6.17401e-05)
(6.17401e-05 -4.01897e-06 -6.90029e-08 6.17401e-05 1.21314e-21 6.17401e-05)
(6.86753e-05 -4.76465e-06 -8.33315e-08 6.86753e-05 7.01531e-21 6.86753e-05)
(6.86753e-05 -4.76465e-06 -8.33315e-08 6.86753e-05 1.49265e-21 6.86753e-05)
(7.62727e-05 -5.6342e-06 -1.00377e-07 7.62727e-05 8.23467e-21 7.62727e-05)
(7.62727e-05 -5.6342e-06 -1.00377e-07 7.62727e-05 1.83383e-21 7.62727e-05)
(8.4586e-05 -6.64592e-06 -1.20609e-07 8.4586e-05 9.64806e-21 8.4586e-05)
(8.4586e-05 -6.64592e-06 -1.20609e-07 8.4586e-05 2.24641e-21 8.4586e-05)
(9.36727e-05 -7.8205e-06 -1.44571e-07 9.36727e-05 1.12836e-20 9.36727e-05)
(9.36727e-05 -7.8205e-06 -1.44571e-07 9.36727e-05 2.7459e-21 9.36727e-05)
(0.000103594 -9.18122e-06 -1.72889e-07 0.000103594 1.31522e-20 0.000103594)
(0.000103594 -9.18122e-06 -1.72889e-07 0.000103594 3.34334e-21 0.000103594)
(0.000114415 -1.07543e-05 -2.06286e-07 0.000114415 1.53067e-20 0.000114415)
(0.000114415 -1.07543e-05 -2.06286e-07 0.000114415 4.05533e-21 0.000114415)
(0.000126206 -1.2569e-05 -2.45588e-07 0.000126206 1.77642e-20 0.000126206)
(0.000126206 -1.2569e-05 -2.45588e-07 0.000126206 4.9095e-21 0.000126206)
(0.00013904 -1.46583e-05 -2.91747e-07 0.00013904 2.05339e-20 0.00013904)
(0.00013904 -1.46583e-05 -2.91747e-07 0.00013904 5.92727e-21 0.00013904)
(0.000152995 -1.70587e-05 -3.45845e-07 0.000152995 2.37141e-20 0.000152995)
(0.000152995 -1.70587e-05 -3.45845e-07 0.000152995 7.12961e-21 0.000152995)
(0.000168154 -1.98108e-05 -4.09121e-07 0.000168154 2.72417e-20 0.000168154)
(0.000168154 -1.98108e-05 -4.09121e-07 0.000168154 8.56633e-21 0.000168154)
(0.000184605 -2.29598e-05 -4.82978e-07 0.000184605 3.10286e-20 0.000184605)
(0.000184605 -2.29598e-05 -4.82978e-07 0.000184605 1.02985e-20 0.000184605)
(0.000202439 -2.65554e-05 -5.69012e-07 0.000202439 3.53582e-20 0.000202439)
(0.000202439 -2.65554e-05 -5.69012e-07 0.000202439 1.23574e-20 0.000202439)
(0.000221753 -3.06525e-05 -6.69021e-07 0.000221753 4.01466e-20 0.000221753)
(0.000221753 -3.06525e-05 -6.69021e-07 0.000221753 1.48069e-20 0.000221753)
(0.00024265 -3.53112e-05 -7.85034e-07 0.00024265 4.53935e-20 0.00024265)
(0.00024265 -3.53112e-05 -7.85034e-07 0.00024265 1.76218e-20 0.00024265)
(0.000265234 -4.05971e-05 -9.19327e-07 0.000265234 5.1259e-20 0.000265234)
(0.000265234 -4.05971e-05 -9.19327e-07 0.000265234 2.08158e-20 0.000265234)
(0.000289618 -4.65817e-05 -1.07445e-06 0.000289618 5.76668e-20 0.000289618)
(0.000289618 -4.65817e-05 -1.07445e-06 0.000289618 2.4432e-20 0.000289618)
(0.000315916 -5.33422e-05 -1.25324e-06 0.000315916 6.46618e-20 0.000315916)
(0.000315916 -5.33422e-05 -1.25324e-06 0.000315916 2.85509e-20 0.000315916)
(0.000344247 -6.09618e-05 -1.45884e-06 0.000344247 7.215e-20 0.000344247)
(0.000344247 -6.09618e-05 -1.45884e-06 0.000344247 3.34006e-20 0.000344247)
(0.000374733 -6.95298e-05 -1.69475e-06 0.000374733 8.03977e-20 0.000374733)
(0.000374733 -6.95298e-05 -1.69475e-06 0.000374733 3.89736e-20 0.000374733)
(0.000407502 -7.91412e-05 -1.96478e-06 0.000407502 8.92737e-20 0.000407502)
(0.000407502 -7.91412e-05 -1.96478e-06 0.000407502 4.52385e-20 0.000407502)
(0.000442681 -8.98964e-05 -2.27315e-06 0.000442681 9.85246e-20 0.000442681)
(0.000442681 -8.98964e-05 -2.27315e-06 0.000442681 5.24618e-20 0.000442681)
(0.0004804 -0.000101901 -2.62441e-06 0.0004804 1.08084e-19 0.0004804)
(0.0004804 -0.000101901 -2.62441e-06 0.0004804 6.05946e-20 0.0004804)
(0.000520791 -0.000115265 -3.02352e-06 0.000520791 1.18076e-19 0.000520791)
(0.000520791 -0.000115265 -3.02352e-06 0.000520791 6.95951e-20 0.000520791)
(0.000563984 -0.000130102 -3.47581e-06 0.000563984 1.282e-19 0.000563984)
(0.000563984 -0.000130102 -3.47581e-06 0.000563984 8.03423e-20 0.000563984)
(0.00061011 -0.000146528 -3.98698e-06 0.00061011 1.38341e-19 0.00061011)
(0.00061011 -0.000146528 -3.98698e-06 0.00061011 9.25668e-20 0.00061011)
(0.000659296 -0.000164663 -4.5631e-06 0.000659296 1.49322e-19 0.000659296)
(0.000659296 -0.000164663 -4.5631e-06 0.000659296 1.05646e-19 0.000659296)
(0.000711665 -0.000184622 -5.21057e-06 0.000711665 1.57905e-19 0.000711665)
(0.000711665 -0.000184622 -5.21057e-06 0.000711665 1.20857e-19 0.000711665)
(0.000767336 -0.000206523 -5.93609e-06 0.000767336 1.62981e-19 0.000767336)
(0.000767336 -0.000206523 -5.93609e-06 0.000767336 1.38988e-19 0.000767336)
(0.000826418 -0.000230479 -6.74661e-06 0.000826418 1.67439e-19 0.000826418)
(0.000826418 -0.000230479 -6.74661e-06 0.000826418 1.59019e-19 0.000826418)
(0.000889014 -0.000256596 -7.6493e-06 0.000889014 1.70455e-19 0.000889014)
(0.000889014 -0.000256596 -7.6493e-06 0.000889014 1.81637e-19 0.000889014)
(0.000955214 -0.000284976 -8.65145e-06 0.000955214 1.69834e-19 0.000955214)
(0.000955214 -0.000284976 -8.65145e-06 0.000955214 1.90325e-19 0.000955214)
(0.0010251 -0.000315708 -9.76041e-06 0.0010251 1.66211e-19 0.0010251)
(0.0010251 -0.000315708 -9.76041e-06 0.0010251 1.71373e-19 0.0010251)
(0.00109872 -0.000348869 -1.09835e-05 0.00109872 1.58329e-19 0.00109872)
(0.00109872 -0.000348869 -1.09835e-05 0.00109872 1.61492e-19 0.00109872)
(0.00117614 -0.000384524 -1.2328e-05 0.00117614 1.45288e-19 0.00117614)
(0.00117614 -0.000384524 -1.2328e-05 0.00117614 1.77042e-19 0.00117614)
(0.00125739 -0.00042272 -1.38009e-05 0.00125739 1.26984e-19 0.00125739)
(0.00125739 -0.00042272 -1.38009e-05 0.00125739 1.9555e-19 0.00125739)
(0.00134246 -0.000463486 -1.54088e-05 0.00134246 1.0378e-19 0.00134246)
(0.00134246 -0.000463486 -1.54088e-05 0.00134246 2.09767e-19 0.00134246)
(0.00143134 -0.000506831 -1.71581e-05 0.00143134 7.83842e-20 0.00143134)
(0.00143134 -0.000506831 -1.71581e-05 0.00143134 2.20897e-19 0.00143134)
(0.00152401 -0.000552741 -1.90546e-05 0.00152401 3.39013e-20 0.00152401)
(0.00152401 -0.000552741 -1.90546e-05 0.00152401 2.32387e-19 0.00152401)
(0.0016204 -0.000601183 -2.11033e-05 0.0016204 -1.66642e-20 0.0016204)
(0.0016204 -0.000601183 -2.11033e-05 0.0016204 2.49687e-19 0.0016204)
(0.00172043 -0.000652099 -2.33089e-05 0.00172043 -7.21256e-20 0.00172043)
(0.00172043 -0.000652099 -2.33089e-05 0.00172043 2.75853e-19 0.00172043)
(0.00182399 -0.000705408 -2.56751e-05 0.00182399 -1.49883e-19 0.00182399)
(0.00182399 -0.000705408 -2.56751e-05 0.00182399 2.96738e-19 0.00182399)
(0.00193095 -0.000761009 -2.82049e-05 0.00193095 -2.46166e-19 0.00193095)
(0.00193095 -0.000761009 -2.82049e-05 0.00193095 3.08184e-19 0.00193095)
(0.00204115 -0.000818778 -3.09003e-05 0.00204115 -3.39061e-19 0.00204115)
(0.00204115 -0.000818778 -3.09003e-05 0.00204115 3.22387e-19 0.00204115)
(0.00215443 -0.000878572 -3.37627e-05 0.00215443 -4.54359e-19 0.00215443)
(0.00215443 -0.000878572 -3.37627e-05 0.00215443 3.45207e-19 0.00215443)
(0.00227058 -0.00094023 -3.67926e-05 0.00227058 -5.81523e-19 0.00227058)
(0.00227058 -0.00094023 -3.67926e-05 0.00227058 3.67288e-19 0.00227058)
(0.00238939 -0.00100358 -3.99893e-05 0.00238939 -6.98599e-19 0.00238939)
(0.00238939 -0.00100358 -3.99893e-05 0.00238939 3.93182e-19 0.00238939)
(0.00251061 -0.00106842 -4.33519e-05 0.00251061 -8.16814e-19 0.00251061)
(0.00251061 -0.00106842 -4.33519e-05 0.00251061 4.25979e-19 0.00251061)
(0.00263402 -0.00113457 -4.68783e-05 0.00263402 -9.47601e-19 0.00263402)
(0.00263402 -0.00113457 -4.68783e-05 0.00263402 4.29106e-19 0.00263402)
(0.00275933 -0.00120181 -5.0566e-05 0.00275933 -1.09957e-18 0.00275933)
(0.00275933 -0.00120181 -5.0566e-05 0.00275933 4.30174e-19 0.00275933)
(0.00288629 -0.00126994 -5.44115e-05 0.00288629 -1.24356e-18 0.00288629)
(0.00288629 -0.00126994 -5.44115e-05 0.00288629 4.4443e-19 0.00288629)
(0.00301461 -0.00133875 -5.84113e-05 0.00301461 -1.39247e-18 0.00301461)
(0.00301461 -0.00133875 -5.84113e-05 0.00301461 4.41921e-19 0.00301461)
(0.00314402 -0.00140802 -6.2561e-05 0.00314402 -1.56003e-18 0.00314402)
(0.00314402 -0.00140802 -6.2561e-05 0.00314402 4.46335e-19 0.00314402)
(0.00327423 -0.00147754 -6.6856e-05 0.00327423 -1.75981e-18 0.00327423)
(0.00327423 -0.00147754 -6.6856e-05 0.00327423 4.47644e-19 0.00327423)
(0.00340496 -0.00154713 -7.12917e-05 0.00340496 -1.95953e-18 0.00340496)
(0.00340496 -0.00154713 -7.12917e-05 0.00340496 4.36631e-19 0.00340496)
(0.00353594 -0.00161658 -7.58628e-05 0.00353594 -2.13252e-18 0.00353594)
(0.00353594 -0.00161658 -7.58628e-05 0.00353594 4.64143e-19 0.00353594)
(0.00366689 -0.00168572 -8.05643e-05 0.00366689 -2.28824e-18 0.00366689)
(0.00366689 -0.00168572 -8.05643e-05 0.00366689 5.12409e-19 0.00366689)
(0.00379756 -0.00175438 -8.53911e-05 0.00379756 -2.39295e-18 0.00379756)
(0.00379756 -0.00175438 -8.53911e-05 0.00379756 4.76058e-19 0.00379756)
(0.00392768 -0.00182238 -9.0338e-05 0.00392768 -2.47803e-18 0.00392768)
(0.00392768 -0.00182238 -9.0338e-05 0.00392768 4.32216e-19 0.00392768)
(0.00405702 -0.0018896 -9.54e-05 0.00405702 -2.60195e-18 0.00405702)
(0.00405702 -0.0018896 -9.54e-05 0.00405702 4.90728e-19 0.00405702)
(0.00418535 -0.0019559 -0.000100572 0.00418535 -2.66899e-18 0.00418535)
(0.00418535 -0.0019559 -0.000100572 0.00418535 5.4265e-19 0.00418535)
(0.00431244 -0.00202114 -0.00010585 0.00431244 -2.68913e-18 0.00431244)
(0.00431244 -0.00202114 -0.00010585 0.00431244 5.22287e-19 0.00431244)
(0.00443811 -0.00208524 -0.000111229 0.00443811 -2.7423e-18 0.00443811)
(0.00443811 -0.00208524 -0.000111229 0.00443811 5.09203e-19 0.00443811)
(0.00456217 -0.00214809 -0.000116705 0.00456217 -2.77457e-18 0.00456217)
(0.00456217 -0.00214809 -0.000116705 0.00456217 6.36992e-19 0.00456217)
(0.00468443 -0.00220961 -0.000122274 0.00468443 -2.85967e-18 0.00468443)
(0.00468443 -0.00220961 -0.000122274 0.00468443 8.00942e-19 0.00468443)
(0.00480475 -0.00226974 -0.000127932 0.00480475 -2.97627e-18 0.00480475)
(0.00480475 -0.00226974 -0.000127932 0.00480475 7.62317e-19 0.00480475)
(0.00492299 -0.0023284 -0.000133676 0.00492299 -3.1117e-18 0.00492299)
(0.00492299 -0.0023284 -0.000133676 0.00492299 7.44806e-19 0.00492299)
(0.00503901 -0.00238556 -0.000139503 0.00503901 -3.27097e-18 0.00503901)
(0.00503901 -0.00238556 -0.000139503 0.00503901 8.56461e-19 0.00503901)
(0.00515271 -0.00244118 -0.00014541 0.00515271 -3.39131e-18 0.00515271)
(0.00515271 -0.00244118 -0.00014541 0.00515271 9.96604e-19 0.00515271)
(0.00526398 -0.00249522 -0.000151395 0.00526398 -3.42201e-18 0.00526398)
(0.00526398 -0.00249522 -0.000151395 0.00526398 1.0602e-18 0.00526398)
(0.00537275 -0.00254767 -0.000157455 0.00537275 -3.42038e-18 0.00537275)
(0.00537275 -0.00254767 -0.000157455 0.00537275 1.62897e-18 0.00537275)
(0.00547893 -0.00259851 -0.000163588 0.00547893 -3.3012e-18 0.00547893)
(0.00547893 -0.00259851 -0.000163588 0.00547893 3.92443e-18 0.00547893)
(0.00558247 -0.00264773 -0.000169794 0.00558247 -3.10989e-18 0.00558247)
(0.00558247 -0.00264773 -0.000169794 0.00558247 4.32589e-18 0.00558247)
(0.00568331 -0.00269533 -0.000176069 0.00568331 -2.99884e-18 0.00568331)
(0.00568331 -0.00269533 -0.000176069 0.00568331 4.6242e-18 0.00568331)
(0.00578143 -0.00274132 -0.000182413 0.00578143 -2.7775e-18 0.00578143)
(0.00578143 -0.00274132 -0.000182413 0.00578143 4.90308e-18 0.00578143)
(0.00587678 -0.0027857 -0.000188825 0.00587678 -2.63212e-18 0.00587678)
(0.00587678 -0.0027857 -0.000188825 0.00587678 5.09879e-18 0.00587678)
(0.00596934 -0.00282849 -0.000195304 0.00596934 -2.55717e-18 0.00596934)
(0.00596934 -0.00282849 -0.000195304 0.00596934 5.3224e-18 0.00596934)
(0.00605911 -0.0028697 -0.000201849 0.00605911 -2.62044e-18 0.00605911)
(0.00605911 -0.0028697 -0.000201849 0.00605911 5.56423e-18 0.00605911)
(0.00614607 -0.00290935 -0.00020846 0.00614607 -2.83326e-18 0.00614607)
(0.00614607 -0.00290935 -0.00020846 0.00614607 5.86585e-18 0.00614607)
(0.00623023 -0.00294746 -0.000215137 0.00623023 -2.75501e-18 0.00623023)
(0.00623023 -0.00294746 -0.000215137 0.00623023 6.0647e-18 0.00623023)
(0.0063116 -0.00298406 -0.000221878 0.0063116 -2.92359e-18 0.0063116)
(0.0063116 -0.00298406 -0.000221878 0.0063116 6.22484e-18 0.0063116)
(0.00639018 -0.00301916 -0.000228684 0.00639018 -3.36134e-18 0.00639018)
(0.00639018 -0.00301916 -0.000228684 0.00639018 6.53562e-18 0.00639018)
(0.00646599 -0.0030528 -0.000235555 0.00646599 -3.49802e-18 0.00646599)
(0.00646599 -0.0030528 -0.000235555 0.00646599 6.8608e-18 0.00646599)
(0.00653905 -0.00308501 -0.000242491 0.00653905 -3.76527e-18 0.00653905)
(0.00653905 -0.00308501 -0.000242491 0.00653905 7.1808e-18 0.00653905)
(0.0066094 -0.0031158 -0.000249492 0.0066094 -4.5059e-18 0.0066094)
(0.0066094 -0.0031158 -0.000249492 0.0066094 7.49388e-18 0.0066094)
(0.00667704 -0.00314522 -0.000256557 0.00667704 -4.84776e-18 0.00667704)
(0.00667704 -0.00314522 -0.000256557 0.00667704 7.91422e-18 0.00667704)
(0.00674202 -0.00317328 -0.000263688 0.00674202 -4.48281e-18 0.00674202)
(0.00674202 -0.00317328 -0.000263688 0.00674202 8.38771e-18 0.00674202)
(0.00680437 -0.00320002 -0.000270885 0.00680437 -4.1805e-18 0.00680437)
(0.00680437 -0.00320002 -0.000270885 0.00680437 9.04835e-18 0.00680437)
(0.00686412 -0.00322546 -0.000278147 0.00686412 -3.11454e-18 0.00686412)
(0.00686412 -0.00322546 -0.000278147 0.00686412 9.59997e-18 0.00686412)
(0.00692131 -0.00324963 -0.000285475 0.00692131 -1.67393e-18 0.00692131)
(0.00692131 -0.00324963 -0.000285475 0.00692131 9.74198e-18 0.00692131)
(0.00697597 -0.00327256 -0.00029287 0.00697597 -8.26848e-19 0.00697597)
(0.00697597 -0.00327256 -0.00029287 0.00697597 1.00264e-17 0.00697597)
(0.00702814 -0.00329429 -0.000300331 0.00702814 -6.82311e-21 0.00702814)
(0.00702814 -0.00329429 -0.000300331 0.00702814 1.06481e-17 0.00702814)
(0.00707786 -0.00331482 -0.000307859 0.00707786 1.07179e-18 0.00707786)
(0.00707786 -0.00331482 -0.000307859 0.00707786 1.07191e-17 0.00707786)
(0.00712516 -0.0033342 -0.000315454 0.00712516 1.59546e-18 0.00712516)
(0.00712516 -0.0033342 -0.000315454 0.00712516 1.07793e-17 0.00712516)
(0.0071701 -0.00335244 -0.000323117 0.0071701 1.07931e-18 0.0071701)
(0.0071701 -0.00335244 -0.000323117 0.0071701 1.15027e-17 0.0071701)
(0.0072127 -0.00336958 -0.000330847 0.0072127 7.31684e-19 0.0072127)
(0.0072127 -0.00336958 -0.000330847 0.0072127 1.19198e-17 0.0072127)
(0.00725301 -0.00338563 -0.000338645 0.00725301 3.01232e-19 0.00725301)
(0.00725301 -0.00338563 -0.000338645 0.00725301 1.21266e-17 0.00725301)
(0.00729105 -0.00340062 -0.000346511 0.00729105 1.87226e-19 0.00729105)
(0.00729105 -0.00340062 -0.000346511 0.00729105 1.28466e-17 0.00729105)
(0.00732688 -0.00341457 -0.000354445 0.00732688 7.27133e-19 0.00732688)
(0.00732688 -0.00341457 -0.000354445 0.00732688 1.34934e-17 0.00732688)
(0.00736053 -0.0034275 -0.000362447 0.00736053 1.27341e-18 0.00736053)
(0.00736053 -0.0034275 -0.000362447 0.00736053 1.38946e-17 0.00736053)
(0.00739203 -0.00343944 -0.000370517 0.00739203 1.18355e-18 0.00739203)
(0.00739203 -0.00343944 -0.000370517 0.00739203 1.44158e-17 0.00739203)
(0.00742142 -0.0034504 -0.000378655 0.00742142 9.91202e-19 0.00742142)
(0.00742142 -0.0034504 -0.000378655 0.00742142 1.4926e-17 0.00742142)
(0.00744874 -0.0034604 -0.000386861 0.00744874 1.07752e-18 0.00744874)
(0.00744874 -0.0034604 -0.000386861 0.00744874 1.54658e-17 0.00744874)
(0.00747401 -0.00346946 -0.000395134 0.00747401 1.30388e-18 0.00747401)
(0.00747401 -0.00346946 -0.000395134 0.00747401 1.59221e-17 0.00747401)
(0.00749728 -0.00347761 -0.000403474 0.00749728 1.55318e-18 0.00749728)
(0.00749728 -0.00347761 -0.000403474 0.00749728 1.64247e-17 0.00749728)
(0.00751858 -0.00348484 -0.000411881 0.00751858 1.22503e-18 0.00751858)
(0.00751858 -0.00348484 -0.000411881 0.00751858 1.71695e-17 0.00751858)
(0.00753793 -0.00349119 -0.000420354 0.00753793 7.38507e-19 0.00753793)
(0.00753793 -0.00349119 -0.000420354 0.00753793 1.79169e-17 0.00753793)
(0.00755536 -0.00349666 -0.000428892 0.00755536 5.65699e-19 0.00755536)
(0.00755536 -0.00349666 -0.000428892 0.00755536 1.86726e-17 0.00755536)
(0.00757091 -0.00350128 -0.000437494 0.00757091 1.13923e-18 0.00757091)
(0.00757091 -0.00350128 -0.000437494 0.00757091 1.90315e-17 0.00757091)
(0.0075846 -0.00350504 -0.00044616 0.0075846 1.71085e-18 0.0075846)
(0.0075846 -0.00350504 -0.00044616 0.0075846 2.00092e-17 0.0075846)
(0.00759646 -0.00350797 -0.000454889 0.00759646 1.09948e-18 0.00759646)
(0.00759646 -0.00350797 -0.000454889 0.00759646 2.14444e-17 0.00759646)
(0.00760652 -0.00351008 -0.000463679 0.00760652 5.41607e-19 0.00760652)
(0.00760652 -0.00351008 -0.000463679 0.00760652 2.18634e-17 0.00760652)
(0.0076148 -0.00351137 -0.000472529 0.0076148 1.55829e-18 0.0076148)
(0.0076148 -0.00351137 -0.000472529 0.0076148 2.25177e-17 0.0076148)
(0.00762131 -0.00351187 -0.000481437 0.00762131 2.03339e-18 0.00762131)
(0.00762131 -0.00351187 -0.000481437 0.00762131 2.3981e-17 0.00762131)
(0.0076261 -0.00351157 -0.000490403 0.0076261 1.58407e-18 0.0076261)
(0.0076261 -0.00351157 -0.000490403 0.0076261 2.49189e-17 0.0076261)
(0.00762917 -0.00351049 -0.000499423 0.00762917 9.67135e-19 0.00762917)
(0.00762917 -0.00351049 -0.000499423 0.00762917 2.52249e-17 0.00762917)
(0.00763054 -0.00350864 -0.000508496 0.00763054 1.93244e-19 0.00763054)
(0.00763054 -0.00350864 -0.000508496 0.00763054 2.68265e-17 0.00763054)
(0.00763024 -0.00350601 -0.00051762 0.00763024 4.60333e-19 0.00763024)
(0.00763024 -0.00350601 -0.00051762 0.00763024 2.9143e-17 0.00763024)
(0.00762829 -0.00350263 -0.000526793 0.00762829 4.02602e-19 0.00762829)
(0.00762829 -0.00350263 -0.000526793 0.00762829 2.85915e-17 0.00762829)
(0.00762469 -0.00349849 -0.000536011 0.00762469 -1.45627e-18 0.00762469)
(0.00762469 -0.00349849 -0.000536011 0.00762469 2.85028e-17 0.00762469)
(0.00761947 -0.00349361 -0.000545273 0.00761947 -8.65738e-19 0.00761947)
(0.00761947 -0.00349361 -0.000545273 0.00761947 2.84982e-17 0.00761947)
(0.00761264 -0.00348798 -0.000554574 0.00761264 -2.90859e-18 0.00761264)
(0.00761264 -0.00348798 -0.000554574 0.00761264 3.13476e-17 0.00761264)
(0.00760422 -0.00348161 -0.000563913 0.00760422 -8.63831e-18 0.00760422)
(0.00760422 -0.00348161 -0.000563913 0.00760422 3.50664e-17 0.00760422)
(0.00759421 -0.00347451 -0.000573284 0.00759421 -3.40429e-18 0.00759421)
(0.00759421 -0.00347451 -0.000573284 0.00759421 3.50765e-17 0.00759421)
(0.00758263 -0.00346668 -0.000582685 0.00758263 1.2022e-18 0.00758263)
(0.00758263 -0.00346668 -0.000582685 0.00758263 3.53788e-17 0.00758263)
(0.00756949 -0.00345811 -0.000592111 0.00756949 2.55288e-18 0.00756949)
(0.00756949 -0.00345811 -0.000592111 0.00756949 3.55949e-17 0.00756949)
(0.0075548 -0.00344882 -0.000601559 0.0075548 4.65609e-18 0.0075548)
(0.0075548 -0.00344882 -0.000601559 0.0075548 3.65601e-17 0.0075548)
(0.00753857 -0.00343881 -0.000611023 0.00753857 1.94515e-18 0.00753857)
(0.00753857 -0.00343881 -0.000611023 0.00753857 3.79252e-17 0.00753857)
(0.00752081 -0.00342808 -0.000620499 0.00752081 -5.7749e-20 0.00752081)
(0.00752081 -0.00342808 -0.000620499 0.00752081 3.9671e-17 0.00752081)
(0.00750151 -0.00341662 -0.000629981 0.00750151 2.20041e-18 0.00750151)
(0.00750151 -0.00341662 -0.000629981 0.00750151 4.00218e-17 0.00750151)
(0.0074807 -0.00340444 -0.000639465 0.0074807 2.44317e-18 0.0074807)
(0.0074807 -0.00340444 -0.000639465 0.0074807 4.12651e-17 0.0074807)
(0.00745838 -0.00339153 -0.000648943 0.00745838 2.29995e-18 0.00745838)
(0.00745838 -0.00339153 -0.000648943 0.00745838 4.2835e-17 0.00745838)
(0.00743454 -0.00337791 -0.00065841 0.00743454 5.85117e-19 0.00743454)
(0.00743454 -0.00337791 -0.00065841 0.00743454 4.15086e-17 0.00743454)
(0.0074092 -0.00336356 -0.00066786 0.0074092 7.7622e-19 0.0074092)
(0.0074092 -0.00336356 -0.00066786 0.0074092 4.25889e-17 0.0074092)
(0.00738236 -0.00334848 -0.000677284 0.00738236 1.3872e-18 0.00738236)
(0.00738236 -0.00334848 -0.000677284 0.00738236 4.48522e-17 0.00738236)
(0.00735402 -0.00333268 -0.000686677 0.00735402 4.73041e-18 0.00735402)
(0.00735402 -0.00333268 -0.000686677 0.00735402 4.6367e-17 0.00735402)
(0.00732417 -0.00331615 -0.000696029 0.00732417 1.01123e-17 0.00732417)
(0.00732417 -0.00331615 -0.000696029 0.00732417 4.62502e-17 0.00732417)
(0.00729284 -0.00329889 -0.000705333 0.00729284 6.90236e-18 0.00729284)
(0.00729284 -0.00329889 -0.000705333 0.00729284 4.00454e-17 0.00729284)
(0.00726 -0.00328089 -0.000714581 0.00726 -5.47442e-33 0.00726)
(0.00726 -0.00328089 -0.000714581 0.00726 4.09331e-17 0.00726)
(0.00722567 -0.00326216 -0.000723762 0.00722567 -4.07318e-21 0.00722567)
(0.00722567 -0.00326216 -0.000723762 0.00722567 4.10588e-17 0.00722567)
(0.00718984 -0.00324268 -0.000732867 0.00718984 3.61459e-18 0.00718984)
(0.00718984 -0.00324268 -0.000732867 0.00718984 3.53197e-17 0.00718984)
(0.00715251 -0.00322246 -0.000741886 0.00715251 3.93222e-18 0.00715251)
(0.00715251 -0.00322246 -0.000741886 0.00715251 3.0917e-17 0.00715251)
(0.00711368 -0.00320148 -0.000750808 0.00711368 3.27182e-18 0.00711368)
(0.00711368 -0.00320148 -0.000750808 0.00711368 3.06592e-17 0.00711368)
(0.00707335 -0.00317975 -0.000759623 0.00707335 4.52208e-18 0.00707335)
(0.00707335 -0.00317975 -0.000759623 0.00707335 3.18489e-17 0.00707335)
(0.00703151 -0.00315726 -0.000768317 0.00703151 8.66897e-18 0.00703151)
(0.00703151 -0.00315726 -0.000768317 0.00703151 2.97444e-17 0.00703151)
(0.00698816 -0.003134 -0.000776879 0.00698816 8.26234e-18 0.00698816)
(0.00698816 -0.003134 -0.000776879 0.00698816 2.70945e-17 0.00698816)
(0.0069433 -0.00310997 -0.000785295 0.0069433 5.19657e-18 0.0069433)
(0.0069433 -0.00310997 -0.000785295 0.0069433 2.30253e-17 0.0069433)
(0.00689692 -0.00308516 -0.000793551 0.00689692 4.50808e-18 0.00689692)
(0.00689692 -0.00308516 -0.000793551 0.00689692 1.63499e-17 0.00689692)
(0.00684902 -0.00305956 -0.000801634 0.00684902 7.81472e-19 0.00684902)
(0.00684902 -0.00305956 -0.000801634 0.00684902 1.45998e-17 0.00684902)
(0.00679959 -0.00303318 -0.000809528 0.00679959 -4.07151e-19 0.00679959)
(0.00679959 -0.00303318 -0.000809528 0.00679959 6.57631e-18 0.00679959)
(0.00674863 -0.00300599 -0.000817217 0.00674863 -3.41776e-18 0.00674863)
(0.00674863 -0.00300599 -0.000817217 0.00674863 1.10952e-18 0.00674863)
(0.00669614 -0.00297799 -0.000824684 0.00669614 -3.1806e-18 0.00669614)
(0.00669614 -0.00297799 -0.000824684 0.00669614 -1.6194e-18 0.00669614)
(0.00664211 -0.00294918 -0.000831912 0.00664211 5.08139e-18 0.00664211)
(0.00664211 -0.00294918 -0.000831912 0.00664211 -1.21854e-17 0.00664211)
(0.00658653 -0.00291955 -0.000838882 0.00658653 3.48452e-19 0.00658653)