/*--------------------------------*- C++ -*----------------------------------*\
| =========                 |                                                 |
| \\      /  F ield         | OpenFOAM: The Open Source CFD Toolbox           |
|  \\    /   O peration     | Version:  2106                                  |
|   \\  /    A nd           | Website:  www.openfoam.com                      |
|    \\/     M anipulation  |                                                 |
\*---------------------------------------------------------------------------*/
FoamFile
{
    version     2.0;
    format      ascii;
    arch        "LSB;label=32;scalar=64";
    class       volVectorField;
    location    "10000";
    object      U;
}
// * * * * * * * * * * * * * * * * * * * * * * * * * * * * * * * * * * * * * //

dimensions      [0 1 -1 0 0 0 0];

internalField   nonuniform List<vector> 
800
(
(0.00306853 -5.02341e-16 -1.51201e-17)
(0.00306853 -8.47902e-19 2.61505e-21)
(0.00934882 -1.91711e-15 -4.43854e-17)
(0.00934882 -4.4251e-19 1.46626e-20)
(0.015925 -1.72938e-15 -4.94743e-17)
(0.015925 -1.95122e-18 4.88273e-20)
(0.0228108 -1.64299e-15 -5.46497e-17)
(0.0228108 -3.18935e-18 9.04698e-20)
(0.0300207 -1.63108e-15 -6.08105e-17)
(0.0300207 -4.5509e-18 1.3624e-19)
(0.0375697 -1.64466e-15 -6.80406e-17)
(0.0375697 -6.02166e-18 1.73163e-19)
(0.0454735 -1.64743e-15 -7.61886e-17)
(0.0454735 -7.58167e-18 2.12586e-19)
(0.0537487 -1.64584e-15 -8.52581e-17)
(0.0537487 -9.41136e-18 2.49728e-19)
(0.0624123 -1.6433e-15 -9.53137e-17)
(0.0624123 -1.14277e-17 2.86043e-19)
(0.0714823 -1.64041e-15 -1.06442e-16)
(0.0714823 -1.35623e-17 3.26793e-19)
(0.0809773 -1.63705e-15 -1.18747e-16)
(0.0809773 -1.6066e-17 3.7332e-19)
(0.0909168 -1.63324e-15 -1.32342e-16)
(0.0909168 -1.85383e-17 4.20125e-19)
(0.101321 -1.62864e-15 -1.47353e-16)
(0.101321 -2.10536e-17 4.55148e-19)
(0.11221 -1.62376e-15 -1.63909e-16)
(0.11221 -2.41177e-17 4.89133e-19)
(0.123607 -1.61876e-15 -1.82163e-16)
(0.123607 -2.76707e-17 4.98743e-19)
(0.135532 -1.61309e-15 -2.02255e-16)
(0.135532 -3.1231e-17 5.23462e-19)
(0.148009 -1.60688e-15 -2.24349e-16)
(0.148009 -3.4698e-17 5.13167e-19)
(0.161058 -1.59968e-15 -2.40827e-16)
(0.161058 -3.88049e-17 4.87158e-19)
(0.174702 -1.59146e-15 -2.52501e-16)
(0.174702 -4.38203e-17 4.74183e-19)
(0.188959 -1.58319e-15 -2.64669e-16)
(0.188959 -4.87888e-17 4.18991e-19)
(0.203848 -1.57454e-15 -2.77291e-16)
(0.203848 -5.44953e-17 3.6948e-19)
(0.219381 -1.56573e-15 -2.90083e-16)
(0.219381 -6.12066e-17 3.02592e-19)
(0.235566 -1.5568e-15 -3.02943e-16)
(0.235566 -6.68925e-17 1.0897e-19)
(0.252402 -1.54769e-15 -3.16005e-16)
(0.252402 -7.28689e-17 5.71152e-20)
(0.269879 -1.53718e-15 -3.28387e-16)
(0.269879 -8.01723e-17 -1.02409e-31)
(0.287972 -1.52395e-15 -3.39758e-16)
(0.287972 -9.11452e-17 1.66588e-19)
(0.306642 -1.51375e-15 -3.49982e-16)
(0.306642 -9.85947e-17 2.7936e-19)
(0.325834 -1.49652e-15 -3.57835e-16)
(0.325834 -1.09285e-16 5.26156e-19)
(0.345474 -1.48078e-15 -3.63698e-16)
(0.345474 -1.19044e-16 9.34586e-19)
(0.365473 -1.46353e-15 -3.66687e-16)
(0.365473 -1.31578e-16 1.35315e-18)
(0.385731 -1.44507e-15 -3.66851e-16)
(0.385731 -1.44467e-16 1.72122e-18)
(0.406137 -1.42855e-15 -3.63541e-16)
(0.406137 -1.54539e-16 2.11467e-18)
(0.426579 -1.41074e-15 -3.55861e-16)
(0.426579 -1.69549e-16 2.40296e-18)
(0.446951 -1.39163e-15 -3.44997e-16)
(0.446951 -1.85315e-16 2.86753e-18)
(0.467152 -1.37103e-15 -3.43587e-16)
(0.467152 -1.97326e-16 3.26477e-18)
(0.487098 -1.34858e-15 -3.40706e-16)
(0.487098 -2.11396e-16 3.50844e-18)
(0.506717 -1.32014e-15 -3.36297e-16)
(0.506717 -2.25414e-16 3.33515e-18)
(0.525954 -1.29117e-15 -3.31362e-16)
(0.525954 -2.39646e-16 3.3694e-18)
(0.544768 -1.26491e-15 -3.25466e-16)
(0.544768 -2.56793e-16 3.4645e-18)
(0.563135 -1.24606e-15 -3.19362e-16)
(0.563135 -2.72943e-16 3.80491e-18)
(0.581037 -1.23095e-15 -3.11725e-16)
(0.581037 -2.87543e-16 3.66889e-18)
(0.598472 -1.2124e-15 -3.0305e-16)
(0.598472 -3.00348e-16 3.76955e-18)
(0.615439 -1.18833e-15 -2.94543e-16)
(0.615439 -3.18657e-16 3.92206e-18)
(0.631948 -1.16229e-15 -2.86037e-16)
(0.631948 -3.33461e-16 3.69485e-18)
(0.648011 -1.14017e-15 -2.77522e-16)
(0.648011 -3.43264e-16 4.39793e-18)
(0.663641 -1.11467e-15 -2.67041e-16)
(0.663641 -3.59723e-16 2.58155e-18)
(0.678855 -1.0914e-15 -2.56827e-16)
(0.678855 -3.78565e-16 2.35334e-18)
(0.69367 -1.06548e-15 -2.45616e-16)
(0.69367 -4.06307e-16 1.4088e-18)
(0.708105 -1.03847e-15 -2.35919e-16)
(0.708105 -4.23912e-16 2.74534e-18)
(0.722177 -1.01992e-15 -2.27036e-16)
(0.722177 -4.48007e-16 2.29544e-18)
(0.735904 -9.9501e-16 -2.15114e-16)
(0.735904 -4.74493e-16 1.38206e-18)
(0.749302 -9.68025e-16 -2.0142e-16)
(0.749302 -4.76291e-16 -1.19283e-17)
(0.762388 -9.36678e-16 -1.85101e-16)
(0.762388 -4.9354e-16 -2.32646e-17)
(0.775176 -9.00838e-16 -1.65798e-16)
(0.775176 -5.22077e-16 -3.22598e-17)
(0.787683 -8.74818e-16 -1.65346e-16)
(0.787683 -5.32002e-16 -4.08986e-17)
(0.79992 -8.46596e-16 -1.62787e-16)
(0.79992 -5.47288e-16 -5.07258e-17)
(0.811901 -8.19445e-16 -1.62344e-16)
(0.811901 -5.64556e-16 -5.9991e-17)
(0.823638 -7.92855e-16 -1.64073e-16)
(0.823638 -5.62349e-16 -6.46369e-17)
(0.835142 -7.73208e-16 -1.66278e-16)
(0.835142 -5.59241e-16 -7.01142e-17)
(0.846423 -7.57087e-16 -1.66973e-16)
(0.846423 -5.51885e-16 -7.86206e-17)
(0.857491 -7.31774e-16 -1.64878e-16)
(0.857491 -5.5335e-16 -8.47185e-17)
(0.868353 -7.09413e-16 -1.54995e-16)
(0.868353 -5.4113e-16 -8.66979e-17)
(0.879019 -6.98539e-16 -1.56288e-16)
(0.879019 -5.43415e-16 -8.26241e-17)
(0.889496 -6.88027e-16 -1.51163e-16)
(0.889496 -5.41762e-16 -7.79117e-17)
(0.89979 -6.63775e-16 -1.37574e-16)
(0.89979 -5.22565e-16 -7.30354e-17)
(0.909907 -6.42318e-16 -1.27475e-16)
(0.909907 -5.05065e-16 -8.36861e-17)
(0.919852 -6.06146e-16 -1.24012e-16)
(0.919852 -5.03868e-16 -8.61095e-17)
(0.929632 -5.738e-16 -1.20804e-16)
(0.929632 -5.28126e-16 -8.80738e-17)
(0.939249 -5.63919e-16 -1.15947e-16)
(0.939249 -5.42318e-16 -8.84769e-17)
(0.948708 -5.94555e-16 -1.10902e-16)
(0.948708 -5.66198e-16 -7.13013e-17)
(0.958012 -6.06286e-16 -8.8702e-17)
(0.958012 -5.76197e-16 -7.0434e-17)
(0.967164 -5.83484e-16 -6.65324e-17)
(0.967164 -5.81329e-16 -6.05281e-17)
(0.976166 -5.76769e-16 -6.09191e-17)
(0.976166 -6.14078e-16 -6.58074e-17)
(0.985019 -5.98915e-16 -7.9213e-17)
(0.985019 -6.4628e-16 -5.78866e-17)
(0.993726 -6.20334e-16 -9.96591e-17)
(0.993726 -6.3749e-16 -6.4826e-17)
(1.00229 -6.27519e-16 -9.80104e-17)
(1.00229 -6.07067e-16 -5.40762e-17)
(1.0107 -6.50139e-16 -7.94058e-17)
(1.0107 -6.09516e-16 -6.59694e-17)
(1.01897 -6.42252e-16 -5.00136e-17)
(1.01897 -5.30458e-16 -8.38135e-17)
(1.02709 -6.01978e-16 -1.89925e-17)
(1.02709 -5.9059e-16 -8.19418e-17)
(1.03506 -6.02652e-16 -9.59067e-18)
(1.03506 -6.08182e-16 -6.9053e-17)
(1.04288 -5.94864e-16 2.55445e-17)
(1.04288 -5.63053e-16 -4.32895e-17)
(1.05054 -5.68181e-16 -1.20581e-16)
(1.05054 -5.05413e-16 -5.06915e-17)
(1.05804 -5.46045e-16 -5.75288e-17)
(1.05804 -5.34021e-16 -3.56394e-17)
(1.06538 -4.81312e-16 -5.29517e-18)
(1.06538 -5.17561e-16 -1.71277e-17)
(1.07254 -4.43229e-16 -2.47456e-17)
(1.07254 -5.0108e-16 1.25529e-17)
(1.07953 -3.57562e-16 -8.00208e-17)
(1.07953 -4.35602e-16 3.4089e-17)
(1.08632 -4.41037e-16 -6.79408e-17)
(1.08632 -3.81393e-16 -5.32118e-17)
(1.09291 -4.16178e-16 -1.06027e-16)
(1.09291 -4.43887e-16 -1.28362e-16)
(1.09929 -4.33929e-16 -1.3802e-16)
(1.09929 -4.63154e-16 -1.40784e-16)
(1.10542 -4.37612e-16 -1.0582e-16)
(1.10542 -4.41529e-16 -3.74466e-17)
(1.1113 -4.32395e-16 -8.54249e-17)
(1.1113 -4.1522e-16 -9.73724e-17)
(1.1169 -4.71512e-16 -1.45653e-16)
(1.1169 -4.63038e-16 -1.67064e-16)
(1.12218 -4.61087e-16 -1.97966e-16)
(1.12218 -4.62058e-16 -2.6061e-16)
(1.1271 -3.87238e-16 -6.31375e-17)
(1.1271 -2.78813e-16 -2.6922e-17)
(1.13161 -3.54202e-16 -1.84698e-16)
(1.13161 -2.64471e-16 -7.9165e-17)
(1.13564 -2.82379e-16 -3.92261e-17)
(1.13564 -2.85542e-16 -3.49914e-19)
(1.13911 -3.10663e-16 -1.75533e-16)
(1.13911 -2.33022e-16 -1.81075e-16)
(1.14193 -3.6126e-16 -2.71535e-16)
(1.14193 -3.38432e-16 -2.62209e-16)
(1.14395 -3.38492e-16 -1.94017e-16)
(1.14395 -3.08729e-16 -2.12299e-16)
(1.14504 -2.68792e-16 -1.77877e-16)
(1.14504 -2.77746e-16 -2.63376e-16)
(0.00306853 -3.56581e-19 1.17515e-18)
(0.00306853 -8.24493e-20 2.49096e-18)
(0.00934882 -1.39859e-19 2.96879e-18)
(0.00934882 6.57346e-20 -9.80152e-20)
(0.015925 -8.69351e-19 3.27901e-18)
(0.015925 -4.11763e-20 -1.59003e-19)
(0.0228108 -1.41299e-18 3.62504e-18)
(0.0228108 -6.0903e-20 -2.45095e-19)
(0.0300207 -1.97582e-18 4.01178e-18)
(0.0300207 -1.16369e-19 -3.61006e-19)
(0.0375697 -2.52258e-18 4.44555e-18)
(0.0375697 -2.49183e-19 -5.1291e-19)
(0.0454735 -3.15083e-18 4.93621e-18)
(0.0454735 -3.77372e-19 -7.1234e-19)
(0.0537487 -3.83337e-18 5.48352e-18)
(0.0537487 -4.79704e-19 -9.62698e-19)
(0.0624123 -4.4807e-18 6.09548e-18)
(0.0624123 -6.26274e-19 -1.26387e-18)
(0.0714823 -5.2457e-18 6.78127e-18)
(0.0714823 -7.98713e-19 -1.61949e-18)
(0.0809773 -6.24482e-18 7.54461e-18)
(0.0809773 -1.03674e-18 -2.03738e-18)
(0.0909168 -7.3946e-18 8.37819e-18)
(0.0909168 -1.40141e-18 -2.52053e-18)
(0.101321 -8.59614e-18 9.30058e-18)
(0.101321 -1.51636e-18 -3.08059e-18)
(0.11221 -9.87569e-18 1.03068e-17)
(0.11221 -1.54953e-18 -3.69821e-18)
(0.123607 -1.10802e-17 1.14019e-17)
(0.123607 -2.18801e-18 -4.37688e-18)
(0.135532 -1.22734e-17 1.26112e-17)
(0.135532 -2.84083e-18 -5.10251e-18)
(0.148009 -1.3818e-17 1.39307e-17)
(0.148009 -2.9489e-18 -5.89758e-18)
(0.161058 -1.55901e-17 1.53675e-17)
(0.161058 -2.98384e-18 -6.72355e-18)
(0.174702 -1.78623e-17 1.68587e-17)
(0.174702 -3.11928e-18 -7.49827e-18)
(0.188959 -2.00926e-17 1.83776e-17)
(0.188959 -3.23554e-18 -8.25968e-18)
(0.203848 -2.15977e-17 2.00019e-17)
(0.203848 -4.30575e-18 -8.97721e-18)
(0.219381 -2.34332e-17 2.17386e-17)
(0.219381 -5.88012e-18 -9.67234e-18)
(0.235566 -2.57167e-17 2.35784e-17)
(0.235566 -7.12976e-18 -1.03356e-17)
(0.252402 -2.80914e-17 2.54875e-17)
(0.252402 -9.06934e-18 -1.08319e-17)
(0.269879 -3.04197e-17 2.7548e-17)
(0.269879 -1.04958e-17 -1.13696e-17)
(0.287972 -3.33331e-17 2.96478e-17)
(0.287972 -1.03471e-17 -1.16642e-17)
(0.306642 -3.56109e-17 3.16041e-17)
(0.306642 -1.15078e-17 -1.1723e-17)
(0.325834 -3.76067e-17 3.37709e-17)
(0.325834 -1.27797e-17 -1.16316e-17)
(0.345474 -4.1359e-17 3.58825e-17)
(0.345474 -1.41789e-17 -1.10956e-17)
(0.365473 -4.47119e-17 3.78527e-17)
(0.365473 -1.652e-17 -1.00571e-17)
(0.385731 -4.749e-17 3.97414e-17)
(0.385731 -1.81438e-17 -8.66356e-18)
(0.406137 -5.26615e-17 4.12464e-17)
(0.406137 -2.08043e-17 -6.63161e-18)
(0.426579 -5.89915e-17 4.23107e-17)
(0.426579 -2.34965e-17 -4.20759e-18)
(0.446951 -6.38697e-17 4.28189e-17)
(0.446951 -2.38183e-17 -1.23473e-18)
(0.467152 -6.87564e-17 4.24594e-17)
(0.467152 -2.38069e-17 2.44422e-18)
(0.487098 -7.28834e-17 4.16575e-17)
(0.487098 -2.70504e-17 6.18472e-18)
(0.506717 -6.97109e-17 3.99484e-17)
(0.506717 -3.34608e-17 9.65212e-18)
(0.525954 -6.58407e-17 3.9647e-17)
(0.525954 -3.92802e-17 1.19999e-17)
(0.544768 -6.95833e-17 3.92331e-17)
(0.544768 -4.02728e-17 1.37143e-17)
(0.563135 -7.37316e-17 3.72746e-17)
(0.563135 -4.05698e-17 1.61006e-17)
(0.581037 -7.56085e-17 3.51087e-17)
(0.581037 -3.88733e-17 1.78584e-17)
(0.598472 -7.38182e-17 3.39012e-17)
(0.598472 -3.98163e-17 1.8784e-17)
(0.615439 -7.69417e-17 3.42582e-17)
(0.615439 -4.54735e-17 1.86278e-17)
(0.631948 -8.4572e-17 3.45071e-17)
(0.631948 -4.32727e-17 1.82478e-17)
(0.648011 -9.01161e-17 3.46627e-17)
(0.648011 -4.71101e-17 1.78854e-17)
(0.663641 -9.52197e-17 3.41845e-17)
(0.663641 -4.92661e-17 1.62277e-17)
(0.678855 -1.02382e-16 3.51087e-17)
(0.678855 -4.48694e-17 1.32979e-17)
(0.69367 -1.02125e-16 3.32966e-17)
(0.69367 -4.8194e-17 1.10201e-17)
(0.708105 -9.95377e-17 3.39156e-17)
(0.708105 -5.59688e-17 8.73294e-18)
(0.722177 -1.04604e-16 3.63672e-17)
(0.722177 -6.1922e-17 3.33292e-18)
(0.735904 -1.05002e-16 3.6185e-17)
(0.735904 -6.57389e-17 9.72735e-18)
(0.749302 -1.0581e-16 3.84053e-17)
(0.749302 -8.13423e-17 9.24282e-18)
(0.762388 -1.1068e-16 4.00096e-17)
(0.762388 -7.41166e-17 8.8565e-18)
(0.775176 -1.1813e-16 3.86327e-17)
(0.775176 -7.01355e-17 7.36205e-18)
(0.787683 -1.24056e-16 3.56895e-17)
(0.787683 -9.11913e-17 8.11694e-18)
(0.79992 -1.16361e-16 3.55513e-17)
(0.79992 -8.90576e-17 1.00105e-17)
(0.811901 -1.10839e-16 3.42196e-17)
(0.811901 -9.24408e-17 1.35066e-17)
(0.823638 -1.1112e-16 3.44352e-17)
(0.823638 -9.06293e-17 1.4307e-17)
(0.835142 -1.20161e-16 3.35569e-17)
(0.835142 -8.354e-17 -3.84381e-20)
(0.846423 -1.33992e-16 2.35073e-17)
(0.846423 -1.12749e-16 4.82965e-18)
(0.857491 -1.31641e-16 2.24347e-17)
(0.857491 -1.09878e-16 1.64775e-17)
(0.868353 -1.55589e-16 2.7543e-17)
(0.868353 -1.2136e-16 9.79295e-18)
(0.879019 -1.84949e-16 1.57395e-17)
(0.879019 -1.39401e-16 9.05019e-18)
(0.889496 -1.94018e-16 3.45489e-18)
(0.889496 -1.55913e-16 9.75423e-18)
(0.89979 -1.96156e-16 1.56592e-17)
(0.89979 -1.56063e-16 1.72463e-17)
(0.909907 -1.91747e-16 2.32123e-17)
(0.909907 -1.64852e-16 1.92808e-17)
(0.919852 -1.23169e-16 -3.58388e-18)
(0.919852 -1.5121e-16 2.50546e-18)
(0.929632 -1.67862e-16 -7.20776e-18)
(0.929632 -1.58955e-16 4.87467e-18)
(0.939249 -1.73265e-16 3.28528e-18)
(0.939249 -1.59783e-16 8.96988e-18)
(0.948708 -1.80864e-16 1.51548e-17)
(0.948708 -1.8381e-16 6.4954e-18)
(0.958012 -1.82009e-16 3.93725e-18)
(0.958012 -1.83244e-16 1.53089e-17)
(0.967164 -1.87693e-16 3.06519e-18)
(0.967164 -2.00597e-16 2.73078e-17)
(0.976166 -2.07714e-16 2.83522e-17)
(0.976166 -2.22555e-16 2.82396e-17)
(0.985019 -2.41075e-16 4.07078e-17)
(0.985019 -2.37101e-16 3.5245e-17)
(0.993726 -2.33264e-16 1.53528e-17)
(0.993726 -2.35738e-16 -1.02036e-17)
(1.00229 -2.48635e-16 3.50435e-17)
(1.00229 -2.48303e-16 -2.68088e-18)
(1.0107 -2.49031e-16 3.27026e-17)
(1.0107 -2.56529e-16 -7.16132e-18)
(1.01897 -2.37897e-16 1.3866e-17)
(1.01897 -2.46737e-16 5.80043e-17)
(1.02709 -2.64108e-16 5.59447e-17)
(1.02709 -3.027e-16 6.88718e-17)
(1.03506 -3.10834e-16 9.93671e-17)
(1.03506 -3.70058e-16 2.75304e-17)
(1.04288 -3.91437e-16 9.79157e-17)
(1.04288 -3.39371e-16 -1.89799e-18)
(1.05054 -3.80422e-16 1.16907e-16)
(1.05054 -3.78205e-16 1.54857e-16)
(1.05804 -4.668e-16 1.96807e-17)
(1.05804 -4.31692e-16 5.0224e-17)
(1.06538 -4.26626e-16 3.81613e-17)
(1.06538 -4.42086e-16 9.65009e-17)
(1.07254 -3.77926e-16 4.51064e-17)
(1.07254 -3.82981e-16 1.07182e-16)
(1.07953 -3.47487e-16 -1.58486e-17)
(1.07953 -3.05772e-16 7.49709e-17)
(1.08632 -3.82542e-16 1.8842e-17)
(1.08632 -3.72806e-16 1.46654e-17)
(1.09291 -3.91425e-16 9.33169e-17)
(1.09291 -4.12725e-16 8.02873e-17)
(1.09929 -3.95697e-16 1.69466e-16)
(1.09929 -4.43009e-16 7.54946e-17)
(1.10542 -4.40228e-16 7.25223e-17)
(1.10542 -4.75459e-16 -6.33853e-18)
(1.1113 -3.61214e-16 -1.71643e-17)
(1.1113 -4.01953e-16 -3.12719e-17)
(1.1169 -3.3257e-16 6.267e-17)
(1.1169 -4.30039e-16 1.44207e-16)
(1.12218 -4.42362e-16 2.60155e-16)
(1.12218 -3.71002e-16 2.21696e-16)
(1.1271 -3.54647e-16 1.16062e-17)
(1.1271 -3.73556e-16 1.48275e-16)
(1.13161 -3.16535e-16 1.00314e-16)
(1.13161 -3.77317e-16 4.12032e-17)
(1.13564 -3.35681e-16 2.03788e-16)
(1.13564 -3.65828e-16 1.94021e-16)
(1.13911 -3.55647e-16 2.14533e-16)
(1.13911 -3.42516e-16 1.54491e-16)
(1.14193 -3.41365e-16 1.7273e-16)
(1.14193 -3.11318e-16 2.27698e-16)
(1.14395 -3.26382e-16 1.88408e-16)
(1.14395 -3.29559e-16 2.32896e-16)
(1.14504 -2.71583e-16 2.14492e-16)
(1.14504 -2.75556e-16 2.36372e-16)
(1.14504 -1.99894e-16 -8.69915e-17)
(1.14504 -1.74897e-16 -5.02971e-18)
(1.14395 -2.38114e-16 -2.45302e-16)
(1.14395 -1.76164e-16 -1.99235e-16)
(1.14193 -2.08186e-16 -3.15184e-17)
(1.14193 -2.26733e-16 -5.20566e-17)
(1.13911 -1.56091e-16 -1.70864e-17)
(1.13911 -1.66247e-16 -1.50649e-17)
(1.13564 -1.63355e-16 -9.96131e-17)
(1.13564 -1.89649e-16 -2.16926e-16)
(1.13161 -2.74445e-16 -1.5335e-16)
(1.13161 -1.87363e-16 -9.6681e-18)
(1.1271 -3.34058e-16 -1.12582e-16)
(1.1271 -2.73783e-16 -4.31943e-17)
(1.12218 -2.84617e-16 -5.42668e-17)
(1.12218 -3.18278e-16 -1.31283e-16)
(1.1169 -2.5758e-16 -1.3278e-16)
(1.1169 -3.11235e-16 -1.36997e-16)
(1.1113 -2.6303e-16 -1.50632e-16)
(1.1113 -2.69335e-16 -1.86181e-16)
(1.10542 -2.35503e-16 -9.1646e-17)
(1.10542 -2.34243e-16 -1.12624e-16)
(1.09929 -2.18819e-16 -1.09638e-16)
(1.09929 -1.83212e-16 -1.23163e-16)
(1.09291 -1.9069e-16 -1.09507e-17)
(1.09291 -6.0893e-17 -3.65122e-31)
(1.08632 -1.52233e-16 -3.53127e-17)
(1.08632 -1.87159e-16 -3.06317e-17)
(1.07953 -1.99785e-16 -4.26295e-18)
(1.07953 -1.80615e-16 -1.62822e-18)
(1.07254 -1.97708e-16 1.16254e-17)
(1.07254 -2.0847e-16 3.18111e-17)
(1.06538 -1.6782e-16 2.61032e-18)
(1.06538 -1.47638e-16 -2.94791e-17)
(1.05804 -1.29779e-16 -2.36452e-17)
(1.05804 -1.4681e-16 -4.51972e-17)
(1.05054 -1.31425e-16 2.04025e-17)
(1.05054 -1.64321e-16 -6.98206e-18)
(1.04288 -1.56669e-16 -3.1369e-17)
(1.04288 -1.64897e-16 3.80457e-17)
(1.03506 -9.97953e-17 -6.64679e-17)
(1.03506 -1.16186e-16 9.95257e-18)
(1.02709 -1.73825e-16 -6.2581e-17)
(1.02709 -8.81427e-17 -2.73698e-17)
(1.01897 -1.30973e-16 -3.57673e-17)
(1.01897 -1.11341e-16 -9.37446e-17)
(1.0107 -9.30413e-17 -8.70943e-18)
(1.0107 -1.62081e-16 -4.73591e-17)
(1.00229 -9.37574e-17 -5.57067e-18)
(1.00229 -8.03369e-17 5.37124e-18)
(0.993726 -7.87758e-17 2.87665e-17)
(0.993726 -7.62834e-17 8.87725e-18)
(0.985019 -8.47198e-17 2.42799e-17)
(0.985019 -8.10835e-17 -9.09368e-18)
(0.976166 -9.77296e-17 -3.29561e-18)
(0.976166 -8.23875e-17 -3.41584e-17)
(0.967164 -9.49519e-17 2.05107e-17)
(0.967164 -8.58458e-17 -2.86689e-17)
(0.958012 -1.03254e-16 1.22729e-17)
(0.958012 -4.73093e-17 8.68444e-47)
(0.948708 -8.2094e-17 3.56296e-17)
(0.948708 -8.85834e-17 7.6693e-18)
(0.939249 -7.56238e-17 1.62112e-17)
(0.939249 -1.04909e-16 -1.35422e-17)
(0.929632 -7.14577e-17 1.17488e-17)
(0.929632 -8.1466e-17 -6.38645e-18)
(0.919852 -9.10203e-17 1.08686e-17)
(0.919852 -7.14922e-17 1.17822e-18)
(0.909907 -9.68622e-17 1.5599e-17)
(0.909907 -8.9461e-17 -1.41266e-17)
(0.89979 -8.51428e-17 -2.68003e-19)
(0.89979 -7.01338e-17 -4.82341e-18)
(0.889496 -8.58776e-17 6.26543e-18)
(0.889496 -5.42802e-17 1.25986e-17)
(0.879019 -7.99096e-17 3.92292e-18)
(0.879019 -4.41469e-17 9.82599e-18)
(0.868353 -7.63695e-17 -2.48007e-18)
(0.868353 -4.59142e-17 3.92727e-18)
(0.857491 -8.42961e-17 -8.12954e-18)
(0.857491 -5.76529e-17 -7.27115e-18)
(0.846423 -7.46767e-17 -7.46473e-18)
(0.846423 -2.75543e-17 -1.42073e-17)
(0.835142 -5.66717e-17 -2.72263e-18)
(0.835142 -5.50829e-17 -7.1114e-18)
(0.823638 -4.33667e-17 -3.65191e-18)
(0.823638 -4.74013e-17 2.77422e-18)
(0.811901 -2.97949e-17 4.15564e-19)
(0.811901 -4.71339e-17 6.41019e-19)
(0.79992 -2.71079e-17 1.73892e-18)
(0.79992 -5.14166e-17 1.47171e-18)
(0.787683 -2.90909e-17 -2.3382e-18)
(0.787683 -4.21142e-17 4.38065e-18)
(0.775176 -3.25658e-17 -2.952e-18)
(0.775176 -3.29414e-17 9.7497e-19)
(0.762388 -3.11624e-17 -2.84255e-18)
(0.762388 -2.4883e-17 -2.5996e-18)
(0.749302 -1.26935e-17 -7.13743e-20)
(0.749302 -2.84628e-17 -4.3192e-18)
(0.735904 -3.94024e-18 -1.02355e-18)
(0.735904 -2.69671e-17 3.24516e-19)
(0.722177 -1.48511e-18 -4.25481e-18)
(0.722177 -2.23306e-17 -3.36764e-18)
(0.708105 4.81284e-18 -7.6752e-18)
(0.708105 -2.24221e-17 -7.96936e-18)
(0.69367 6.46287e-18 -8.90808e-18)
(0.69367 -1.59064e-17 -7.05309e-18)
(0.678855 -4.43387e-18 -6.79242e-18)
(0.678855 -9.64905e-18 -9.44699e-18)
(0.663641 -1.1556e-18 -9.30055e-18)
(0.663641 -9.31003e-18 -9.53505e-18)
(0.648011 -1.61699e-18 -9.09443e-18)
(0.648011 -9.90148e-18 -9.00365e-18)
(0.631948 -1.26822e-18 -8.99954e-18)
(0.631948 -1.58064e-17 -5.57876e-18)
(0.615439 -1.65441e-19 -9.73445e-18)
(0.615439 -8.8295e-18 -2.85516e-18)
(0.598472 4.47244e-19 -9.87416e-18)
(0.598472 -1.14087e-19 -2.14486e-18)
(0.581037 -1.02185e-18 -8.63322e-18)
(0.581037 2.62216e-18 -2.93402e-18)
(0.563135 -7.61765e-18 -7.43086e-18)
(0.563135 5.08913e-19 -4.14782e-18)
(0.544768 -5.30983e-18 -6.88811e-18)
(0.544768 2.56925e-18 -5.67193e-18)
(0.525954 -6.17396e-18 -5.78707e-18)
(0.525954 1.86256e-18 -5.59095e-18)
(0.506717 -5.19647e-18 -3.47391e-18)
(0.506717 -1.26652e-18 -5.9286e-18)
(0.487098 -6.04259e-18 -2.38251e-18)
(0.487098 -4.67886e-18 -5.72663e-18)
(0.467152 -8.81189e-18 -1.64493e-18)
(0.467152 -2.41066e-18 -5.50489e-18)
(0.446951 -7.53294e-18 -2.03601e-18)
(0.446951 -9.74521e-19 -5.39767e-18)
(0.426579 -6.31099e-18 -1.69053e-18)
(0.426579 -1.82702e-18 -4.89112e-18)
(0.406137 -5.42802e-18 -1.44061e-18)
(0.406137 -8.70904e-19 -4.75439e-18)
(0.385731 -3.96984e-18 -1.7385e-18)
(0.385731 1.32989e-18 -4.8006e-18)
(0.365473 -2.9079e-18 -1.83838e-18)
(0.365473 -2.32145e-19 -5.14813e-18)
(0.345474 -3.67957e-18 -1.85563e-18)
(0.345474 -9.97288e-19 -4.63222e-18)
(0.325834 -2.92131e-18 -1.59416e-18)
(0.325834 -2.68651e-18 -4.47699e-18)
(0.306642 -2.85029e-18 -1.57682e-18)
(0.306642 -2.18292e-18 -4.25366e-18)
(0.287972 -3.22664e-18 -1.72825e-18)
(0.287972 -1.49465e-18 -3.76522e-18)
(0.269879 -3.45482e-18 -1.74449e-18)
(0.269879 -1.96086e-18 -3.41866e-18)
(0.252402 -1.69167e-18 -1.3479e-18)
(0.252402 -7.68351e-19 -3.22897e-18)
(0.235566 -1.77484e-18 -1.1805e-18)
(0.235566 -1.3127e-19 -3.15899e-18)
(0.219381 -1.24427e-18 -1.08091e-18)
(0.219381 -2.91796e-19 -2.9773e-18)
(0.203848 -6.53554e-19 -9.25017e-19)
(0.203848 -1.00026e-19 -2.77124e-18)
(0.188959 -1.73675e-19 -7.74092e-19)
(0.188959 -3.10015e-19 -2.6099e-18)
(0.174702 -3.44916e-19 -6.65553e-19)
(0.174702 -6.63118e-19 -2.40313e-18)
(0.161058 -3.55506e-19 -5.58648e-19)
(0.161058 -2.1398e-19 -2.16768e-18)
(0.148009 -7.68268e-20 -4.44046e-19)
(0.148009 -2.3726e-19 -1.98925e-18)
(0.135532 5.73755e-20 -4.12214e-19)
(0.135532 3.98809e-20 -1.79733e-18)
(0.123607 4.2787e-20 -3.81951e-19)
(0.123607 1.5766e-19 -1.64924e-18)
(0.11221 1.05071e-19 -3.34409e-19)
(0.11221 4.66393e-20 -1.52199e-18)
(0.101321 1.81848e-19 -3.05936e-19)
(0.101321 -4.03132e-20 -1.39904e-18)
(0.0909168 2.03818e-19 -2.7231e-19)
(0.0909168 -3.56569e-20 -1.26629e-18)
(0.0809773 2.13134e-19 -2.47636e-19)
(0.0809773 -1.85849e-19 -1.1462e-18)
(0.0714823 -1.13327e-20 -2.37515e-19)
(0.0714823 -1.08266e-19 -1.02757e-18)
(0.0624123 -1.06335e-19 -2.18691e-19)
(0.0624123 -6.84581e-20 -9.26786e-19)
(0.0537487 -1.20911e-19 -2.0514e-19)
(0.0537487 -8.30511e-20 -8.42735e-19)
(0.0454735 -6.84526e-20 -1.90372e-19)
(0.0454735 -3.86549e-20 -7.63483e-19)
(0.0375697 -5.74438e-20 -1.74316e-19)
(0.0375697 1.21515e-20 -6.97614e-19)
(0.0300207 -3.97302e-20 -1.60604e-19)
(0.0300207 1.26923e-20 -6.32493e-19)
(0.0228108 -2.62779e-20 -1.47541e-19)
(0.0228108 -2.29445e-20 -5.7393e-19)
(0.015925 -9.84599e-21 -1.34864e-19)
(0.015925 -6.30512e-21 -5.22137e-19)
(0.00934882 -1.1021e-21 -1.23438e-19)
(0.00934882 -7.58429e-21 -4.75598e-19)
(0.00306853 -2.28962e-21 -8.33905e-20)
(0.00306853 -1.49619e-21 -1.13461e-19)
(1.14504 -2.212e-16 7.1479e-17)
(1.14504 -2.01882e-16 5.69668e-17)
(1.14395 -2.11176e-16 2.26193e-16)
(1.14395 -1.46889e-16 2.05135e-16)
(1.14193 -2.62521e-16 1.12805e-16)
(1.14193 -1.64389e-16 3.53521e-17)
(1.13911 -1.15946e-16 -1.99774e-17)
(1.13911 -1.68992e-16 6.18876e-17)
(1.13564 -1.21727e-16 6.10609e-17)
(1.13564 -1.45691e-16 8.2661e-17)
(1.13161 -2.90353e-16 1.20429e-16)
(1.13161 -2.42347e-16 1.11675e-16)
(1.1271 -2.98272e-16 7.25242e-17)
(1.1271 -2.87885e-16 8.24388e-17)
(1.12218 -2.50699e-16 8.73592e-17)
(1.12218 -2.54107e-16 7.84162e-17)
(1.1169 -2.67765e-16 9.27135e-17)
(1.1169 -2.87158e-16 1.17575e-16)
(1.1113 -2.63541e-16 1.5991e-16)
(1.1113 -2.4902e-16 1.08437e-16)
(1.10542 -2.23183e-16 1.08076e-16)
(1.10542 -2.08707e-16 1.82822e-16)
(1.09929 -2.32429e-16 5.57432e-17)
(1.09929 -2.29485e-16 8.19078e-17)
(1.09291 -2.12373e-16 2.9518e-17)
(1.09291 -2.23281e-16 3.5797e-17)
(1.08632 -1.99655e-16 -1.53005e-17)
(1.08632 -2.12318e-16 -2.31866e-17)
(1.07953 -1.71431e-16 5.81158e-17)
(1.07953 -1.58854e-16 3.63414e-17)
(1.07254 -2.05811e-16 9.71809e-17)
(1.07254 -2.06417e-16 6.14281e-17)
(1.06538 -2.16098e-16 6.27279e-17)
(1.06538 -1.84105e-16 2.56305e-17)
(1.05804 -1.34717e-16 -1.52017e-17)
(1.05804 -1.13432e-16 4.97746e-17)
(1.05054 -6.37937e-17 3.73264e-17)
(1.05054 -1.50103e-16 2.46504e-17)
(1.04288 -1.13502e-16 3.89887e-17)
(1.04288 -1.05886e-16 6.90484e-17)
(1.03506 -1.60417e-16 3.78669e-17)
(1.03506 -1.78746e-16 5.82948e-17)
(1.02709 -1.61765e-16 3.54719e-17)
(1.02709 -1.69895e-16 6.13159e-17)
(1.01897 -1.61542e-16 4.07203e-17)
(1.01897 -1.91886e-16 7.84356e-17)
(1.0107 -1.54297e-16 3.89858e-17)
(1.0107 -1.85777e-16 5.00321e-17)
(1.00229 -1.32466e-16 5.25447e-17)
(1.00229 -1.45359e-16 3.51321e-18)
(0.993726 -1.28526e-16 -2.78135e-18)
(0.993726 -1.08812e-16 1.45909e-17)
(0.985019 -1.13717e-16 3.68671e-17)
(0.985019 -7.51126e-17 5.20638e-18)
(0.976166 -1.22904e-16 4.80033e-17)
(0.976166 -1.07911e-16 2.14287e-17)
(0.967164 -5.38422e-17 5.89503e-18)
(0.967164 -1.15704e-16 -2.78475e-18)
(0.958012 -9.148e-17 9.8238e-18)
(0.958012 -8.28209e-17 -1.38218e-17)
(0.948708 -1.01191e-16 3.32154e-17)
(0.948708 -5.8638e-17 -1.63039e-17)
(0.939249 -6.50904e-17 1.06089e-17)
(0.939249 -7.46091e-17 -7.28181e-18)
(0.929632 -5.55038e-17 5.46854e-18)
(0.929632 -6.96969e-17 2.70933e-18)
(0.919852 -6.23673e-17 1.15876e-17)
(0.919852 -3.88426e-17 -1.17065e-17)
(0.909907 -6.8268e-17 1.00473e-17)
(0.909907 -6.32326e-17 -2.10641e-18)
(0.89979 -5.6796e-17 1.37909e-17)
(0.89979 -5.77761e-17 1.16553e-17)
(0.889496 -5.43005e-17 8.98513e-18)
(0.889496 -5.91075e-17 7.49388e-18)
(0.879019 -5.42159e-17 5.32429e-18)
(0.879019 -6.95897e-17 5.00939e-18)
(0.868353 -4.89718e-17 6.12217e-18)
(0.868353 -7.05728e-17 2.96405e-18)
(0.857491 -5.40835e-17 6.58886e-18)
(0.857491 -7.10305e-17 9.16179e-18)
(0.846423 -5.71518e-17 8.18006e-18)
(0.846423 -5.95006e-17 1.30101e-17)
(0.835142 -5.28049e-17 5.01669e-18)
(0.835142 -6.2138e-17 1.63757e-17)
(0.823638 -4.13662e-17 2.3165e-18)
(0.823638 -6.26063e-17 4.48823e-18)
(0.811901 -3.80279e-17 -3.16881e-18)
(0.811901 -3.17765e-17 1.74487e-18)
(0.79992 -3.92507e-17 -4.65815e-18)
(0.79992 -3.37736e-17 -4.45268e-18)
(0.787683 -1.91187e-17 -5.23291e-18)
(0.787683 -4.02718e-17 -4.98564e-18)
(0.775176 -4.43101e-17 2.17497e-19)
(0.775176 -3.21221e-17 9.99229e-19)
(0.762388 -4.91152e-17 3.90355e-18)
(0.762388 -1.70394e-17 -2.87444e-31)
(0.749302 -2.14472e-17 -4.62523e-18)
(0.749302 -3.97323e-17 4.76466e-18)
(0.735904 -2.73877e-17 -1.70442e-18)
(0.735904 -2.43133e-17 3.41118e-18)
(0.722177 -2.42819e-17 -9.35899e-19)
(0.722177 -3.85918e-17 4.41785e-18)
(0.708105 -2.63267e-17 1.46476e-18)
(0.708105 -3.65359e-17 3.19601e-18)
(0.69367 -2.55992e-17 1.77378e-18)
(0.69367 -3.64331e-17 3.12575e-18)
(0.678855 -2.47606e-17 3.27197e-18)
(0.678855 -2.55265e-17 3.64382e-19)
(0.663641 -2.58605e-17 2.60611e-18)
(0.663641 -1.40894e-17 -1.62155e-19)
(0.648011 -2.10442e-17 1.39315e-18)
(0.648011 -1.12166e-17 -1.07288e-31)
(0.631948 -2.02083e-17 -6.37867e-19)
(0.631948 -1.91001e-18 1.26445e-18)
(0.615439 -1.53507e-17 -2.80215e-18)
(0.615439 -6.67725e-19 1.42436e-19)
(0.598472 -5.78083e-18 -3.55884e-18)
(0.598472 -5.08989e-18 -3.8594e-19)
(0.581037 -1.1547e-18 -2.21853e-18)
(0.581037 -9.40892e-18 -1.10392e-18)
(0.563135 -2.10023e-18 -1.02153e-18)
(0.563135 -1.38085e-17 -3.67017e-46)
(0.544768 -2.62131e-18 1.28143e-19)
(0.544768 -1.04589e-17 2.4947e-19)
(0.525954 -4.81316e-18 9.7012e-19)
(0.525954 -6.66385e-18 1.51683e-19)
(0.506717 -3.46076e-18 1.33058e-18)
(0.506717 -2.45497e-18 -4.003e-19)
(0.487098 6.38477e-19 1.3662e-18)
(0.487098 -4.99863e-18 -9.49458e-19)
(0.467152 -7.03783e-19 1.40425e-18)
(0.467152 -6.75293e-18 -3.2732e-19)
(0.446951 -2.75773e-18 1.09488e-18)
(0.446951 -6.54194e-18 -1.36763e-19)
(0.426579 -3.1752e-18 9.44623e-19)
(0.426579 -3.48609e-18 -6.1896e-19)
(0.406137 -4.71682e-18 8.70345e-19)
(0.406137 -4.9483e-18 -8.08903e-19)
(0.385731 -4.87444e-18 7.41323e-19)
(0.385731 -3.74332e-18 -2.97047e-19)
(0.365473 -3.85684e-18 8.13988e-19)
(0.365473 -8.67669e-19 -4.53298e-19)
(0.345474 -4.39576e-18 6.41104e-19)
(0.345474 -2.0211e-18 -3.4254e-19)
(0.325834 -4.67233e-18 5.62187e-19)
(0.325834 -1.77134e-18 -4.85042e-19)
(0.306642 -5.85249e-18 5.22931e-19)
(0.306642 -2.57048e-18 -4.53212e-19)
(0.287972 -4.42236e-18 3.68604e-19)
(0.287972 -2.26973e-18 -4.40261e-19)
(0.269879 -2.11611e-18 3.28113e-19)
(0.269879 -2.16485e-18 -6.54552e-19)
(0.252402 5.2435e-20 5.9065e-19)
(0.252402 -7.77894e-19 -6.52382e-19)
(0.235566 -3.26135e-19 7.99073e-19)
(0.235566 -3.38075e-19 -6.7942e-19)
(0.219381 -5.55514e-20 9.30931e-19)
(0.219381 -1.54799e-18 -6.60755e-19)
(0.203848 -9.57099e-20 1.03143e-18)
(0.203848 -1.1166e-18 -6.08969e-19)
(0.188959 -1.0886e-19 1.12246e-18)
(0.188959 -1.0249e-18 -6.20639e-19)
(0.174702 -1.17639e-19 1.154e-18)
(0.174702 -7.40604e-19 -6.22006e-19)
(0.161058 1.52363e-20 1.13289e-18)
(0.161058 -6.47679e-19 -5.94723e-19)
(0.148009 -1.25729e-19 1.14737e-18)
(0.148009 -2.31756e-19 -6.38746e-19)
(0.135532 -3.32261e-19 1.1129e-18)
(0.135532 -1.13816e-19 -6.04083e-19)
(0.123607 -2.6035e-19 1.07166e-18)
(0.123607 -1.4435e-19 -5.49554e-19)
(0.11221 -1.70007e-19 1.02382e-18)
(0.11221 9.09465e-22 -5.15517e-19)
(0.101321 -1.29635e-19 9.57949e-19)
(0.101321 8.02414e-21 -4.77288e-19)
(0.0909168 -1.89761e-19 8.8458e-19)
(0.0909168 9.92847e-21 -4.37426e-19)
(0.0809773 -2.07114e-19 8.09316e-19)
(0.0809773 5.80592e-20 -4.13005e-19)
(0.0714823 -2.4993e-19 7.32971e-19)
(0.0714823 1.62154e-19 -3.813e-19)
(0.0624123 -1.92467e-19 6.70804e-19)
(0.0624123 1.13955e-19 -3.53414e-19)
(0.0537487 -3.89775e-20 6.17463e-19)
(0.0537487 1.59947e-19 -3.34275e-19)
(0.0454735 9.03514e-21 5.66377e-19)
(0.0454735 4.40396e-20 -3.01795e-19)
(0.0375697 -2.84028e-20 5.19239e-19)
(0.0375697 5.20152e-20 -2.75519e-19)
(0.0300207 -4.40205e-20 4.72225e-19)
(0.0300207 8.13084e-20 -2.54223e-19)
(0.0228108 -2.21409e-20 4.29322e-19)
(0.0228108 3.2479e-20 -2.3267e-19)
(0.015925 -1.2154e-20 3.91557e-19)
(0.015925 1.12238e-20 -2.13523e-19)
(0.00934882 -5.83849e-21 3.57137e-19)
(0.00934882 6.08377e-21 -1.9464e-19)
(0.00306853 5.59125e-22 1.06415e-19)
(0.00306853 2.69522e-21 -1.52519e-20)
)
;

boundaryField
{
    walls
    {
        type            fixedValue;
        value           uniform (0 0 0);
    }
    inlet
    {
        type            cyclic;
    }
    outlet
    {
        type            cyclic;
    }
    sides
    {