/*--------------------------------*- C++ -*----------------------------------*\
| =========                 |                                                 |
| \\      /  F ield         | OpenFOAM: The Open Source CFD Toolbox           |
|  \\    /   O peration     | Version:  2106                                  |
|   \\  /    A nd           | Website:  www.openfoam.com                      |
|    \\/     M anipulation  |                                                 |
\*---------------------------------------------------------------------------*/
FoamFile
{
    version     2.0;
    format      ascii;
    arch        "LSB;label=32;scalar=64";
    class       volTensorField;
    location    "10010";
    object      grad(U);
}
// * * * * * * * * * * * * * * * * * * * * * * * * * * * * * * * * * * * * * //

dimensions      [0 0 -1 0 0 0 0];

internalField   nonuniform List<tensor> 
2000
(
(0 -1.04224e-25 4.06518e-31 61.4898 -5.69691e-12 -6.15856e-13 0.113806 -5.27441e-15 -2.79064e-16)
(0 -4.87821e-30 -4.03561e-27 61.4898 -5.11581e-15 -1.13895e-13 0.113806 -8.37871e-18 -1.63673e-16)
(-5.61639e-17 -5.60519e-45 1.03332e-30 61.4781 0 -8.32416e-14 0.343499 0 -3.13851e-16)
(0 -2.55404e-29 -7.98137e-31 61.4781 -8.21558e-15 -8.79725e-14 0.343499 -1.48566e-17 -1.11748e-15)
(9.62637e-17 1.44227e-30 1.24974e-31 61.4663 1.02342e-12 -4.09196e-14 0.476513 -1.2738e-14 -3.14804e-16)
(-1.10269e-16 6.26809e-30 7.83511e-31 61.4663 -1.21181e-14 -8.30247e-15 0.476513 -4.59515e-17 -1.15943e-15)
(6.2399e-17 2.70954e-30 -2.54277e-31 61.4541 2.59982e-13 -4.11897e-14 0.485309 -2.8937e-15 -3.29943e-16)
(7.51503e-17 3.07662e-30 3.84577e-31 61.4541 -1.15104e-14 -8.42913e-15 0.485309 -7.34352e-17 -1.20291e-15)
(0 6.04048e-30 3.7753e-31 61.4408 5.59559e-14 -4.2361e-14 0.494255 -1.15891e-15 -3.45515e-16)
(0 -3.02024e-30 -3.7753e-31 61.4408 -1.19366e-14 -8.55581e-15 0.494255 -1.02293e-16 -1.24797e-15)
(0 -3.93219e-28 1.48245e-30 61.4251 7.60462e-28 -4.33689e-14 0.503339 3.15544e-30 -3.58897e-16)
(-4.45274e-16 -2.07542e-29 -1.48245e-30 61.4251 -1.24005e-14 -8.67833e-15 0.503339 -1.32622e-16 -1.29466e-15)
(0 -5.82112e-30 -1.09146e-30 61.4043 1.76116e-14 -4.41626e-14 0.512532 -8.68991e-17 -3.71786e-16)
(5.79875e-16 5.82112e-30 1.09146e-30 61.4043 -1.27828e-14 -8.78323e-15 0.512532 -1.65108e-16 -1.34297e-15)
(0 5.71445e-30 0 61.3739 2.40567e-14 -4.48429e-14 0.521789 -2.0554e-16 -3.83991e-16)
(1.43399e-15 0 7.14307e-31 61.3739 -1.30488e-14 -8.86102e-15 0.521789 -1.99087e-16 -1.39281e-15)
(-2.14172e-16 3.04451e-30 1.64053e-31 61.327 2.32431e-14 -4.53555e-14 0.531033 -1.99796e-16 -3.94678e-16)
(0 2.80487e-30 3.50609e-31 61.327 -1.33013e-14 -8.91039e-15 0.531033 -2.33467e-16 -1.44408e-15)
(0 -1.10139e-29 -1.72092e-30 61.2533 2.31588e-14 -4.56075e-14 0.54015 -1.99187e-16 -4.02909e-16)
(0 1.10139e-29 1.03255e-30 61.2533 -1.3717e-14 -8.90027e-15 0.54015 -2.6882e-16 -1.49664e-15)
(7.60831e-16 -2.97332e-29 -3.37877e-30 61.1387 2.37872e-14 -4.54941e-14 0.548982 -2.05837e-16 -4.07511e-16)
(0 2.97332e-29 3.37877e-30 61.1387 -1.43216e-14 -8.79469e-15 0.548982 -3.06984e-16 -1.55003e-15)
(3.22946e-16 7.58734e-30 1.13539e-30 60.9646 2.50495e-14 -4.4893e-14 0.557316 -2.17991e-16 -4.07083e-16)
(1.29178e-15 -7.96045e-30 0 60.9646 -1.4918e-14 -8.58456e-15 0.557316 -3.47252e-16 -1.60363e-15)
(0 0 0 60.7081 2.65414e-14 -4.36748e-14 0.564883 -2.36713e-16 -4.00138e-16)
(0 0 0 60.7081 -1.54082e-14 -8.24883e-15 0.564883 -3.90068e-16 -1.65681e-15)
(-3.98864e-16 2.60239e-29 3.41036e-30 60.3424 2.74902e-14 -4.17228e-14 0.571368 -2.54039e-16 -3.85327e-16)
(0 -2.0457e-29 -3.19641e-30 60.3424 -1.54645e-14 -7.73892e-15 0.571368 -4.33637e-16 -1.70867e-15)
(-1.14439e-15 1.55536e-29 1.48182e-30 59.8388 2.78718e-14 -3.89499e-14 0.576419 -2.63663e-16 -3.61533e-16)
(0 -5.02053e-30 -6.27567e-31 59.8388 -1.55479e-14 -7.04869e-15 0.576419 -4.75844e-16 -1.7579e-15)
(1.17098e-15 -7.92332e-30 -1.47234e-30 59.1686 2.79527e-14 -3.53255e-14 0.579681 -2.71001e-16 -3.28371e-16)
(-1.90942e-15 2.46427e-30 6.16067e-31 59.1686 -1.61878e-14 -6.19027e-15 0.579681 -5.20741e-16 -1.80328e-15)
(0 -9.67644e-30 -1.20955e-30 58.3069 2.83018e-14 -3.08994e-14 0.580828 -2.75194e-16 -2.8624e-16)
(0 9.67644e-30 1.20955e-30 58.3069 -1.64717e-14 -5.14983e-15 0.580828 -5.70499e-16 -1.84351e-15)
(1.11578e-15 -2.97049e-29 -2.91155e-30 57.2357 2.91518e-14 -2.58051e-14 0.579605 -2.88225e-16 -2.36493e-16)
(2.23156e-15 1.89982e-29 1.78109e-30 57.2357 -1.6536e-14 -3.9858e-15 0.579605 -6.2117e-16 -1.8771e-15)
(-5.98628e-16 2.96901e-30 8.64947e-31 55.9477 2.99344e-14 -2.02632e-14 0.575865 -3.02958e-16 -1.81499e-16)
(0 0 0 55.9477 -1.70725e-14 -2.74613e-15 0.575865 -6.73302e-16 -1.90333e-15)
(6.39457e-16 -2.95956e-30 -8.67093e-31 54.4478 3.04329e-14 -1.45537e-14 0.569594 -3.154e-16 -1.24163e-16)
(2.55783e-15 4.57709e-30 1.71641e-30 54.4478 -1.71036e-14 -1.43814e-15 0.569594 -7.28581e-16 -1.92142e-15)
(-6.80186e-16 7.44345e-30 -2.55267e-31 52.7534 3.03025e-14 -8.96908e-15 0.560912 -3.24961e-16 -6.75344e-17)
(5.44148e-15 -4.49321e-30 5.61652e-31 52.7534 -1.67669e-14 -1.66908e-16 0.560912 -7.82691e-16 -1.93074e-15)
(0 4.41088e-30 -5.60694e-29 50.8929 2.92209e-14 -2.65553e-15 0.550061 -3.24463e-16 -1.44936e-17)
(1.6409e-15 0 0 50.8929 -1.67607e-14 9.87333e-16 0.550061 -8.37978e-16 -1.93176e-15)
(1.2188e-15 -8.6601e-30 -5.60519e-45 48.9026 2.83231e-14 9.86076e-32 0.537372 -3.13373e-16 0)
(3.04217e-15 8.6601e-30 1.08251e-30 48.9026 -1.59883e-14 2.00063e-15 0.537372 -8.97227e-16 -1.92494e-15)
(0 8.5014e-30 1.06268e-30 46.8227 2.83325e-14 4.6289e-15 0.523231 -3.16539e-16 -3.26541e-17)
(2.0027e-15 -4.2507e-30 0 46.8227 -1.53755e-14 2.83801e-15 0.523231 -9.56537e-16 -1.91128e-15)
(-8.38207e-16 -1.25482e-30 3.07987e-31 44.6938 2.78544e-14 7.66298e-15 0.508033 -3.25394e-16 -7.25794e-17)
(0 8.34562e-30 1.0432e-30 44.6938 -1.51766e-14 3.49233e-15 0.508033 -1.01858e-15 -1.89175e-15)
(0 -1.63854e-29 -2.56021e-30 42.5533 2.6682e-14 9.9098e-15 0.49216 -3.17331e-16 -1.04556e-16)
(3.50265e-15 1.63854e-29 2.56021e-30 42.5533 -1.44329e-14 3.96857e-15 0.49216 -1.07881e-15 -1.86763e-15)
(1.35172e-15 -5.13824e-30 -7.09126e-31 40.4339 2.59166e-14 1.14309e-14 0.475949 -3.09838e-16 -1.28625e-16)
(-1.13189e-15 8.04256e-30 1.00532e-30 40.4339 -1.46399e-14 4.3343e-15 0.475949 -1.13512e-15 -1.84028e-15)
(-9.47344e-16 6.84374e-30 7.84665e-31 38.3619 2.60408e-14 1.23247e-14 0.45969 -3.10789e-16 -1.45262e-16)
(0 0 0 38.3619 -1.45767e-14 4.58253e-15 0.45969 -1.19573e-15 -1.81008e-15)
(0 1.16258e-29 9.68813e-31 36.3575 2.63461e-14 1.26992e-14 0.443613 -3.24572e-16 -1.55479e-16)
(0 -7.75051e-30 -4.84407e-31 36.3575 -1.42645e-14 4.68403e-15 0.443613 -1.25214e-15 -1.7783e-15)
(-4.22683e-15 2.18973e-29 4.08744e-30 34.4351 2.58831e-14 1.26596e-14 0.427896 -3.30157e-16 -1.60129e-16)
(-2.98694e-15 -1.5217e-29 -3.32871e-30 34.4351 -1.41178e-14 4.71508e-15 0.427896 -1.31032e-15 -1.74584e-15)
(1.04624e-15 -2.8683e-30 -2.80144e-31 32.6038 2.47508e-14 1.23007e-14 0.412668 -3.24973e-16 -1.60324e-16)
(4.18496e-15 0 0 32.6038 -1.29633e-14 4.69607e-15 0.412668 -1.36871e-15 -1.71311e-15)
(0 7.33219e-30 9.16524e-31 30.8687 2.35187e-14 1.17048e-14 0.398018 -3.1313e-16 -1.56821e-16)
(0 -3.66609e-30 -4.58262e-31 30.8687 -1.27422e-14 4.62979e-15 0.398018 -1.42298e-15 -1.68069e-15)
(-1.10647e-15 1.00532e-29 7.25608e-31 29.2314 2.2514e-14 1.09476e-14 0.384001 -3.04553e-16 -1.50568e-16)
(0 -7.19783e-30 -4.49864e-31 29.2314 -1.31328e-14 4.52664e-15 0.384001 -1.48005e-15 -1.64884e-15)
(-1.13497e-15 -6.84168e-31 -6.08946e-31 27.6913 2.19092e-14 1.00856e-14 0.370646 -2.97795e-16 -1.42282e-16)
(0 7.06593e-30 8.83241e-31 27.6913 -1.23919e-14 4.43835e-15 0.370646 -1.53849e-15 -1.61817e-15)
(0 -1.73411e-29 -2.16764e-30 26.2459 2.17179e-14 9.16125e-15 0.357963 -2.99389e-16 -1.32528e-16)
(4.6498e-15 1.73411e-29 2.16764e-30 26.2459 -1.10895e-14 4.3212e-15 0.357963 -1.59116e-15 -1.58791e-15)
(-1.91666e-15 1.0214e-29 4.25584e-31 24.8914 2.15104e-14 8.20907e-15 0.345946 -3.03656e-16 -1.21737e-16)
(0 -6.80934e-30 0 24.8914 -1.07771e-14 4.15064e-15 0.345946 -1.64068e-15 -1.55929e-15)
(1.21454e-15 -2.82466e-30 1.45325e-31 23.6235 2.05896e-14 7.25844e-15 0.334581 -3.04748e-16 -1.10339e-16)
(4.85815e-15 0 -4.17785e-31 23.6235 -1.0444e-14 4.01712e-15 0.334581 -1.69197e-15 -1.53193e-15)
(-3.0863e-15 -1.35859e-29 -1.36797e-30 22.4374 1.96131e-14 6.32253e-15 0.323843 -2.8832e-16 -9.86801e-17)
(4.95697e-15 1.64052e-29 2.46078e-30 22.4374 -9.96119e-15 3.86998e-15 0.323843 -1.73812e-15 -1.50579e-15)
(-1.26312e-15 -1.32918e-29 -1.7401e-30 21.3278 1.974e-14 5.41024e-15 0.313707 -2.87303e-16 -8.67723e-17)
(0 1.61046e-29 2.01307e-30 21.3278 -1.00226e-14 3.76745e-15 0.313707 -1.79015e-15 -1.4816e-15)
(-1.77999e-15 1.58094e-29 2.37142e-30 20.2899 1.92813e-14 4.53308e-15 0.304142 -3.03015e-16 -7.48692e-17)
(6.92485e-15 -1.58094e-29 -2.37142e-30 20.2899 -9.3891e-15 3.70351e-15 0.304142 -1.83715e-15 -1.45785e-15)
(-4.36451e-15 1.18089e-29 9.37577e-31 19.3188 1.79593e-14 3.69362e-15 0.295118 -2.8403e-16 -6.30786e-17)
(5.23429e-15 -3.10395e-30 0 19.3188 -9.1447e-15 3.60792e-15 0.295118 -1.87184e-15 -1.43538e-15)
(0 -9.14121e-30 -7.61767e-31 18.4096 1.7589e-14 2.90025e-15 0.286602 -2.73034e-16 -5.14039e-17)
(0 9.14121e-30 7.61767e-31 18.4096 -8.55251e-15 3.53478e-15 0.286602 -1.92004e-15 -1.41445e-15)
(1.68391e-15 -1.19649e-29 -7.47808e-31 17.5579 1.7194e-14 2.15288e-15 0.278565 -2.82922e-16 -4.01486e-17)
(-1.68391e-15 1.19649e-29 7.47808e-31 17.5579 -7.7779e-15 3.41434e-15 0.278565 -1.96308e-15 -1.39409e-15)
(-1.37162e-15 1.74643e-29 1.38086e-30 16.7596 1.67742e-14 1.44785e-15 0.270976 -2.70489e-16 -2.90562e-17)
(-5.48647e-15 -8.80926e-30 -7.34105e-31 16.7596 -7.20771e-15 3.25699e-15 0.270976 -2.00763e-15 -1.37532e-15)
(1.39142e-15 5.87302e-30 1.88015e-30 16.0105 1.72123e-14 7.90911e-16 0.263806 -2.79686e-16 -1.83251e-17)
(5.56566e-15 -2.88261e-30 -1.44131e-30 16.0105 -7.03016e-15 3.14795e-15 0.263806 -2.04189e-15 -1.35782e-15)
(1.41066e-15 1.13824e-29 1.8382e-30 15.3072 1.64847e-14 1.70265e-16 0.25703 -2.95455e-16 -8.00062e-18)
(-5.64264e-15 -1.41489e-29 -2.12234e-30 15.3072 -8.69527e-15 3.10394e-15 0.25703 -2.07236e-15 -1.34172e-15)
(-1.42939e-15 -2.78944e-30 -4.09688e-31 14.6463 1.49704e-14 -4.13628e-16 0.25062 -2.65234e-16 -1.21274e-17)
(5.71754e-15 2.77793e-30 6.94483e-31 14.6463 -8.30218e-15 3.16674e-15 0.25062 -2.12873e-15 -1.32633e-15)
(0 -1.63622e-29 -1.36351e-30 14.0245 1.48644e-14 -9.51011e-16 0.244554 -2.53606e-16 -2.15417e-17)
(1.15809e-14 1.63622e-29 2.04527e-30 14.0245 -6.21785e-15 3.15431e-15 0.244554 -2.17004e-15 -1.31013e-15)
(2.97243e-15 -2.14923e-29 -2.29327e-30 13.439 1.5548e-14 -1.45398e-15 0.238808 -2.71448e-16 -3.08457e-17)
(5.86154e-15 1.60623e-29 2.00779e-30 13.439 -6.67945e-15 2.96495e-15 0.238808 -2.20222e-15 -1.29545e-15)
(-4.44158e-15 1.32556e-29 9.433e-31 12.8872 1.60738e-14 -1.919e-15 0.233362 -2.87982e-16 -3.95518e-17)
(-5.93084e-15 -7.884e-30 -6.57e-31 12.8872 -7.64848e-15 2.94349e-15 0.233362 -2.25096e-15 -1.28396e-15)
(0 -1.03194e-29 -1.28992e-30 12.3667 1.64906e-14 -2.34689e-15 0.228195 -3.01122e-16 -4.81286e-17)
(0 1.03194e-29 1.28992e-30 12.3667 -7.57767e-15 3.0736e-15 0.228195 -2.30518e-15 -1.27131e-15)
(-2.94184e-15 1.79182e-29 2.82512e-30 11.8751 1.63905e-14 -2.74278e-15 0.223291 -3.14539e-16 -5.62359e-17)
(0 -7.5977e-30 -1.26628e-30 11.8751 -7.28646e-15 3.07116e-15 0.223291 -2.34609e-15 -1.2583e-15)
(2.79917e-15 -7.45848e-30 -6.2154e-31 11.4106 1.49174e-14 -3.12051e-15 0.218631 -3.08626e-16 -6.47094e-17)
(-2.79917e-15 7.45848e-30 6.2154e-31 11.4106 -7.01789e-15 3.068e-15 0.218631 -2.3933e-15 -1.24701e-15)
(0 1.2203e-29 1.83045e-30 10.971 1.4113e-14 -3.49277e-15 0.214201 -2.68804e-16 -7.318e-17)
(-6.19225e-15 -1.46436e-29 -2.4406e-30 10.971 -6.51602e-15 3.06803e-15 0.214201 -2.44884e-15 -1.23521e-15)
(2.1475e-16 6.88099e-30 8.9469e-31 10.5549 1.45969e-14 -3.83627e-15 0.209987 -2.88219e-16 -8.10825e-17)
(0 -4.79176e-30 0 10.5549 -5.93682e-15 2.96848e-15 0.209987 -2.49324e-15 -1.22379e-15)
(-1.57864e-15 -2.01182e-30 -2.8103e-31 10.1604 1.36015e-14 -4.15876e-15 0.205973 -2.98563e-16 -8.92648e-17)
(0 9.4079e-30 1.17599e-30 10.1604 -6.17026e-15 2.95339e-15 0.205973 -2.54636e-15 -1.21441e-15)
(-1.88714e-15 -8.47042e-30 -1.10995e-30 9.78628 1.31315e-14 -4.47573e-15 0.202149 -2.57945e-16 -9.74808e-17)
(6.37384e-15 6.92663e-30 5.77219e-31 9.78628 -6.8397e-15 3.00122e-15 0.202149 -2.59596e-15 -1.20435e-15)
(-1.60799e-15 2.67947e-30 3.14952e-31 9.43106 1.50704e-14 -4.77369e-15 0.198502 -2.90028e-16 -1.05406e-16)
(0 0 0 9.43106 -9.55366e-15 3.02194e-15 0.198502 -2.64737e-15 -1.19517e-15)
(-3.2445e-15 1.86726e-29 3.41976e-30 9.09354 1.75956e-14 -5.04111e-15 0.195022 -3.5081e-16 -1.12836e-16)
(-6.489e-15 -1.33502e-29 -2.78129e-30 9.09354 -1.25946e-14 3.10421e-15 0.195022 -2.72271e-15 -1.18657e-15)
(1.63624e-15 6.09668e-30 7.68469e-31 8.77257 1.83511e-14 -5.28601e-15 0.1917 -4.11266e-16 -1.20275e-16)
(-6.54497e-15 -1.31056e-29 -2.18426e-30 8.77257 -1.19689e-14 3.24119e-15 0.1917 -2.80974e-15 -1.17763e-15)
(-2.41419e-15 4.28847e-30 1.07212e-30 8.46709 1.63006e-14 -5.52711e-15 0.188524 -3.97646e-16 -1.28017e-16)
(-2.41419e-15 0 0 8.46709 -9.40563e-15 3.27924e-15 0.188524 -2.88833e-15 -1.16659e-15)
(-3.32698e-15 -7.36784e-30 -1.43965e-30 8.17614 1.45456e-14 -5.76685e-15 0.185488 -3.33815e-16 -1.35877e-16)
(1.33079e-14 8.41976e-30 1.57871e-30 8.17614 -7.20581e-15 3.37445e-15 0.185488 -2.94454e-15 -1.15807e-15)
(6.4976e-16 1.50226e-29 1.37047e-30 7.89881 1.43498e-14 -6.01164e-15 0.182584 -3.31596e-16 -1.44355e-16)
(4.38053e-15 -1.23982e-29 -1.03318e-30 7.89881 -7.68822e-15 3.50672e-15 0.182584 -2.98773e-15 -1.14824e-15)
(0 -1.2171e-29 -1.52138e-30 7.63427 1.41522e-14 -6.24959e-15 0.179803 -3.37182e-16 -1.52399e-16)
(0 1.2171e-29 1.52138e-30 7.63427 -8.78296e-15 3.64728e-15 0.179803 -3.03806e-15 -1.13952e-15)
(-3.9447e-15 6.59256e-30 8.45328e-31 7.38176 1.28812e-14 -6.45987e-15 0.177139 -3.34625e-16 -1.60058e-16)
(6.81066e-15 3.98266e-30 0 7.38176 -5.57274e-15 3.8479e-15 0.177139 -3.09128e-15 -1.12915e-15)
(0 3.90968e-30 4.8871e-31 7.14054 1.06763e-14 -6.65945e-15 0.174585 -2.87851e-16 -1.68065e-16)
(-2.20095e-15 -3.90968e-30 0 7.14054 -2.18307e-15 3.7602e-15 0.174585 -3.11129e-15 -1.11748e-15)
(-1.72776e-15 6.44772e-30 8.38106e-31 6.90998 9.47626e-15 -6.8586e-15 0.172136 -2.37606e-16 -1.76175e-16)
(-2.16062e-15 0 0 6.90998 -2.4997e-15 3.64465e-15 0.172136 -3.12776e-15 -1.10957e-15)
(0 1.13031e-29 1.41289e-30 6.68945 9.50548e-15 -7.04921e-15 0.169785 -2.37916e-16 -1.84232e-16)
(-2.12103e-15 -7.53541e-30 -4.70963e-31 6.68945 -2.61931e-15 2.16879e-15 0.169785 -3.15777e-15 -1.10244e-15)
(0 -1.84933e-29 -2.31166e-30 6.47837 9.06016e-15 -7.22375e-15 0.167529 -2.48067e-16 -1.91987e-16)
(7.00852e-15 1.84933e-29 0 6.47837 -2.00266e-15 0 0.167529 -3.18613e-15 -1.1102e-15)
(0 1.81544e-29 4.08475e-30 6.27623 8.03176e-15 -7.37528e-15 0.165361 -2.23477e-16 -1.99287e-16)
(0 -1.81544e-29 -5.74442e-30 6.27623 -2.67584e-15 -5.76959e-17 0.165361 -3.21057e-15 -1.12471e-15)
(-1.77582e-15 2.59492e-30 3.8342e-31 6.08252 7.40946e-15 -7.50424e-15 0.163277 -2.02356e-16 -2.06255e-16)
(7.10327e-15 0 8.91088e-31 6.08252 -2.10558e-15 -1.38622e-16 0.163277 -3.23859e-15 -1.12517e-15)
(1.96978e-15 -1.04971e-29 -2.1869e-30 5.89679 7.80093e-15 -7.62456e-15 0.161274 -1.97959e-16 -2.13481e-16)
(5.17992e-15 1.04971e-29 2.1869e-30 5.89679 -1.65763e-15 -1.25555e-16 0.161274 -3.26456e-15 -1.11979e-15)
(-3.73257e-15 1.97562e-29 -2.10068e-29 5.7186 8.55623e-15 3.03711e-29 0.159346 -2.3173e-16 3.9443e-31)
(-5.26185e-15 -1.71746e-29 -2.57619e-30 5.7186 -4.08948e-15 -1.31474e-16 0.159346 -3.29341e-15 -1.11289e-15)
(3.79651e-15 -6.74395e-30 -1.37672e-29 5.54756 8.36118e-15 5.61785e-15 0.15749 -2.48163e-16 -8.0217e-17)
(-1.10373e-14 6.74395e-30 1.68599e-30 5.54756 -4.07478e-15 -1.37462e-16 0.15749 -3.36183e-15 -1.10577e-15)
(-3.64275e-15 5.14531e-30 3.41347e-31 5.38328 7.91099e-15 9.46282e-15 0.155703 -2.29217e-16 -2.80479e-16)
(7.2855e-15 0 4.13773e-31 5.38328 -2.74345e-15 -1.79254e-16 0.155703 -3.40586e-15 -1.09941e-15)
(-3.66483e-15 5.14015e-30 3.34467e-31 5.22543 8.33051e-15 8.9658e-15 0.153982 -2.31078e-16 -2.6999e-16)
(0 0 4.06191e-31 5.22543 -3.16567e-15 -1.72285e-16 0.153982 -3.44681e-15 -1.09183e-15)
(0 -6.37996e-30 -1.99374e-30 5.07367 9.89614e-15 8.58549e-15 0.152322 -2.6295e-16 -2.61315e-16)
(7.37333e-15 6.37996e-30 1.99374e-30 5.07367 -4.02877e-15 -1.9261e-16 0.152322 -3.46878e-15 -1.08595e-15)
(-3.61701e-15 1.81993e-29 4.66045e-30 4.92769 1.05938e-14 8.00767e-15 0.150722 -3.35191e-16 -2.56988e-16)
(-7.41649e-15 -1.25261e-29 -3.52296e-30 4.92769 -5.14126e-15 -1.88612e-16 0.150722 -3.53155e-15 -1.08249e-15)
(1.8648e-15 -1.48324e-29 -1.88688e-30 4.78721 9.27702e-15 7.62096e-15 0.149179 -3.16165e-16 -2.35294e-16)
(0 1.22966e-29 1.53707e-30 4.78721 -4.20933e-15 -1.26836e-16 0.149179 -3.61349e-15 -1.07294e-15)
(1.87535e-15 -1.15902e-29 -1.84991e-30 4.65196 8.78808e-15 7.54744e-15 0.14769 -2.64557e-16 -2.42219e-16)
(-7.50142e-15 9.05342e-30 1.5089e-30 4.65196 -3.98526e-15 -1.68318e-16 0.14769 -3.63762e-15 -1.06325e-15)
(-3.7716e-15 1.39375e-29 1.40708e-30 4.52168 9.80155e-15 7.13416e-15 0.146252 -2.96584e-16 -2.39424e-16)
(0 -2.96251e-30 -3.70313e-31 4.52168 -4.24362e-15 -2.023e-16 0.146252 -3.6978e-15 -1.05753e-15)
(-1.63718e-15 8.72466e-30 1.09058e-30 4.39614 1.01834e-14 6.54012e-15 0.144864 -3.41027e-16 -2.24228e-16)
(1.63718e-15 -8.72466e-30 -2.18116e-30 4.39614 -4.15388e-15 -1.1054e-16 0.144864 -3.74524e-15 -1.05174e-15)
(1.90638e-15 3.52423e-31 -3.22063e-31 4.27511 9.57197e-15 6.18345e-15 0.143522 -3.33283e-16 -2.08739e-16)
(-1.5251e-14 -2.85493e-30 -2.20233e-30 4.27511 -5.05529e-15 -5.73154e-17 0.143522 -3.78701e-15 -1.04106e-15)
(1.91652e-15 -1.09043e-29 -1.01544e-30 4.15838 8.17849e-15 5.95419e-15 0.142226 -3.12246e-16 -2.08392e-16)
(0 8.40784e-30 7.00653e-31 4.15838 -3.78664e-15 -2.45319e-16 0.142226 -3.84882e-15 -1.03127e-15)
(0 -1.1005e-29 -2.40735e-30 4.04575 6.45228e-15 5.53041e-15 0.140973 -2.4919e-16 -2.00704e-16)
(7.70625e-15 1.1005e-29 2.40735e-30 4.04575 -1.22005e-15 -2.39572e-16 0.140973 -3.89659e-15 -1.0208e-15)
(1.93651e-15 -5.19922e-30 -1.31665e-30 3.93703 4.82969e-15 5.12061e-15 0.139761 -2.02046e-16 -1.86303e-16)
(7.74605e-15 5.40168e-30 6.7521e-31 3.93703 -3.64236e-16 -1.7613e-16 0.139761 -3.90729e-15 -1.0108e-15)
(-9.07595e-16 -1.35569e-29 -2.71843e-30 3.83206 3.11906e-15 5.05677e-15 0.138588 -1.41795e-16 -1.78771e-16)
(0 1.06054e-29 2.98277e-30 3.83206 -2.95213e-16 -1.61019e-16 0.138588 -3.9554e-15 -1.00285e-15)
(-9.81845e-16 -5.40425e-30 -2.02354e-30 3.73066 3.01131e-15 5.02166e-15 0.137454 -8.42398e-17 -1.88642e-16)
(4.89414e-15 1.30138e-29 2.60276e-30 3.73066 1.08809e-15 -2.50065e-16 0.137454 -3.97372e-15 -9.93326e-16)
(1.96584e-15 -2.03752e-29 -2.8385e-30 3.63267 4.7023e-15 4.73299e-15 0.136355 -1.39091e-16 -1.82886e-16)
(1.57267e-14 1.78855e-29 2.55507e-30 3.63267 7.88178e-16 -2.53019e-16 0.136355 -3.95498e-15 -9.86214e-16)
(-1.97545e-15 -5.04952e-30 -3.55769e-32 3.53794 5.45075e-15 4.49093e-15 0.135292 -2.16066e-16 -1.73788e-16)
(0 1.25412e-29 9.40592e-31 3.53794 -6.08948e-16 -1.68304e-16 0.135292 -4.00066e-15 -9.76597e-16)
(-3.96995e-15 4.94964e-30 1.1613e-30 3.44635 4.39224e-15 4.40123e-15 0.134262 -2.02338e-16 -1.71018e-16)
(7.93991e-15 0 -6.15571e-31 3.44635 6.29356e-16 -1.86451e-16 0.134262 -4.03859e-15 -9.67453e-16)
(-1.99443e-15 2.48064e-30 2.6744e-31 3.35774 4.80013e-15 4.30814e-15 0.133264 -1.40641e-16 -1.73255e-16)
(7.97773e-15 2.41716e-30 6.04291e-31 3.35774 6.23243e-16 -1.72057e-16 0.133264 -4.03106e-15 -9.60579e-16)
(-2.67161e-15 4.74574e-30 1.48304e-30 3.272 5.45352e-15 4.10467e-15 0.132297 -2.42764e-16 -1.69975e-16)
(-2.67161e-15 0 -5.93217e-31 3.272 5.76322e-17 -1.0265e-16 0.132297 -4.05573e-15 -9.54033e-16)
(4.63578e-15 -9.45145e-30 -1.42382e-30 3.18901 4.15542e-15 4.12537e-15 0.13136 -1.99468e-16 -1.63115e-16)
(5.42984e-15 6.98816e-30 1.16469e-30 3.18901 8.55744e-16 -1.52776e-16 0.13136 -4.08195e-15 -9.25948e-16)
(2.02236e-15 -1.39021e-29 -1.68118e-30 3.10865 3.79739e-15 4.18972e-15 0.130451 -1.43584e-16 -1.78108e-16)
(8.08946e-15 1.14335e-29 1.42919e-30 3.10865 6.09627e-17 -2.09327e-16 0.130451 -4.066e-15 -8.96606e-16)
(-2.03154e-15 2.45967e-30 2.47495e-31 3.03082 4.54261e-15 3.99653e-15 0.12957 -1.76548e-16 -1.74732e-16)
(8.12615e-15 4.4896e-30 5.612e-31 3.03082 -1.64954e-15 -1.95707e-16 0.12957 -4.05506e-15 -8.65505e-16)
(2.04065e-15 -6.85635e-30 -1.621e-30 2.95541 4.90129e-15 3.79816e-15 0.128715 -2.13528e-16 -1.6809e-16)
(0 4.40733e-30 1.37729e-30 2.95541 -1.10453e-15 -7.22697e-17 0.128715 -4.10845e-15 -8.32563e-16)
(-2.04969e-15 1.10953e-29 1.59183e-30 2.88233 5.07769e-15 3.82132e-15 0.127886 -2.14841e-16 -1.63818e-16)
(5.76314e-15 -4.32656e-30 -1.1028e-31 2.88233 3.21039e-16 -4.95503e-30 0.127886 -4.12608e-15 -7.94649e-16)
(2.05868e-15 -6.67896e-30 -1.29479e-30 2.81148 5.32302e-15 3.80235e-15 0.12708 -2.37425e-16 -1.76504e-16)
(0 4.24728e-30 1.06182e-30 2.81148 -7.84126e-16 -1.27942e-16 0.12708 -4.12122e-15 -7.59859e-16)
(-2.06761e-15 1.07634e-29 1.79324e-30 2.74279 4.99235e-15 3.74291e-15 0.126299 -2.45394e-16 -1.68255e-16)
(5.92323e-15 -4.16945e-30 -1.04236e-30 2.74279 -1.22779e-15 -1.4073e-16 0.126299 -4.1832e-15 -7.20471e-16)
(-2.27705e-16 5.76263e-30 7.99471e-31 2.67616 5.41653e-15 3.56805e-15 0.12554 -2.15538e-16 -1.77613e-16)
(8.3059e-15 -4.09305e-30 -5.11631e-31 2.67616 -1.92668e-16 -1.81315e-16 0.12554 -4.1926e-15 -6.81213e-16)
(-2.26196e-15 8.03609e-30 1.00451e-30 2.61151 5.67803e-15 3.24655e-15 0.124803 -2.94932e-16 -1.57986e-16)
(8.34116e-15 -4.01804e-30 -5.02255e-31 2.61151 -8.68958e-16 -8.57267e-17 0.124803 -4.20552e-15 -6.4142e-16)
(0 3.94441e-30 4.93052e-31 2.54877 4.64319e-15 3.30441e-15 0.124087 -2.48962e-16 -1.53197e-16)
(-8.37619e-15 0 -8.3046e-32 2.54877 -1.15057e-15 -3.39888e-30 0.124087 -4.28394e-15 -5.98409e-16)
(2.17982e-15 1.16164e-29 1.69406e-30 2.48788 3.9167e-15 3.60842e-15 0.123391 -2.04046e-16 -1.69642e-16)
(6.2312e-15 -1.16164e-29 -2.09389e-30 2.48788 -3.89651e-16 -6.40313e-17 0.123391 -4.31015e-15 -5.54139e-16)
(2.84624e-17 -9.00942e-30 -1.9334e-30 2.42875 4.00671e-15 3.66159e-15 0.122715 -1.85401e-16 -1.89494e-16)
(0 1.14035e-29 2.37574e-30 2.42875 -1.45272e-15 -1.32615e-16 0.122715 -4.31641e-15 -5.12366e-16)
(-2.12002e-15 2.38467e-30 -3.22039e-32 2.37133 4.39608e-15 3.37022e-15 0.122058 -2.20941e-16 -1.81473e-16)
(8.48007e-15 3.73152e-30 6.99661e-31 2.37133 -2.31703e-15 -8.01259e-17 0.122058 -4.37979e-15 -4.70121e-16)
(4.12433e-15 -3.66314e-30 -9.15786e-31 2.31555 4.2697e-15 3.16464e-15 0.121419 -2.32956e-16 -1.66277e-16)
(0 3.66314e-30 1.14473e-30 2.31555 -2.82259e-15 -1.56228e-17 0.121419 -4.43645e-15 -4.248e-16)
(0 3.59602e-30 8.99004e-31 2.26135 3.99687e-15 3.19889e-15 0.120798 -2.15853e-16 -1.66492e-16)
(0 0 -3.54006e-31 2.26135 -2.5748e-15 -9.21083e-18 0.120798 -4.50643e-15 -3.80255e-16)
(4.13283e-15 -1.29619e-29 -1.7328e-30 2.20868 4.8732e-15 3.40505e-15 0.120194 -2.12237e-16 -1.76246e-16)
(6.59493e-15 1.05904e-29 2.3547e-30 2.20868 -1.37114e-15 -5.20074e-17 0.120194 -4.53412e-15 -3.37691e-16)
(-3.69862e-15 4.57945e-30 9.02518e-31 2.15748 6.83995e-15 3.21388e-15 0.119606 -3.20499e-16 -1.95471e-16)
(8.6159e-15 0 -4.33179e-31 2.15748 -2.43099e-15 -2.3559e-16 0.119606 -4.55651e-15 -2.98086e-16)
(0 0 2.12621e-31 2.1077 6.52061e-15 2.61224e-15 0.119034 -4.40881e-16 -1.6144e-16)
(8.64941e-15 3.40193e-30 2.12621e-31 2.1077 -3.86463e-15 -3.11594e-16 0.119034 -4.60998e-15 -2.56092e-16)
(-4.34138e-15 4.64642e-30 1.56046e-31 2.05929 5.13323e-15 2.1397e-15 0.118478 -2.96081e-16 -1.3408e-16)
(8.68276e-15 0 2.08724e-31 2.05929 -3.3516e-15 -3.35237e-16 0.118478 -4.64776e-15 -2.11388e-16)
(2.17899e-15 -1.21436e-29 -1.82264e-30 2.01221 5.49283e-15 1.60562e-15 0.117936 -2.95981e-16 -1.12513e-16)
(8.71594e-15 9.83518e-30 1.6392e-30 2.01221 -3.20953e-15 -2.61923e-16 0.117936 -4.68011e-15 -1.62369e-16)
(1.81175e-15 1.28733e-29 1.00572e-30 1.9664 5.78542e-15 1.36896e-15 0.117409 -3.49882e-16 -7.57956e-17)
(-1.05607e-14 -1.28733e-29 -1.00572e-30 1.9664 -4.13361e-15 -2.26741e-16 0.117409 -4.74583e-15 -1.07755e-16)
(0 3.15934e-30 3.94918e-31 1.92183 4.71491e-15 1.36124e-15 0.116895 -3.4248e-16 -8.81639e-17)
(-3.55711e-15 0 -3.94918e-31 1.92183 -2.17088e-15 -1.31763e-16 0.116895 -4.83148e-15 -5.32747e-17)
(-4.40728e-15 1.69778e-29 1.53131e-30 1.87845 2.92943e-15 1.22532e-15 0.116395 -2.31332e-16 -7.77011e-17)
(0 -1.24058e-29 -1.16304e-30 1.87845 7.12305e-16 -8.51086e-17 0.116395 -4.8086e-15 7.74353e-18)
(-2.21179e-15 5.33949e-30 5.63918e-31 1.83622 2.81526e-15 1.25906e-15 0.115908 -1.31567e-16 -7.44478e-17)
(0 -3.04462e-30 0 1.83622 3.31872e-16 5.73214e-18 0.115908 -4.70426e-15 6.7213e-17)
(0 1.19553e-29 1.49441e-30 1.7951 4.6769e-15 1.49252e-15 0.115433 -2.2547e-16 -8.49377e-17)
(-1.22447e-14 -8.96648e-30 -1.12081e-30 1.7951 -2.96337e-16 1.8574e-16 0.115433 -4.72646e-15 1.36382e-16)
(7.75939e-15 -4.49885e-30 1.81057e-32 1.75507 5.9736e-15 1.90927e-15 0.11497 -3.78684e-16 -1.07621e-16)
(-3.30345e-15 0 -3.66757e-31 1.75507 4.10311e-17 7.86194e-18 0.11497 -4.76503e-15 2.00305e-16)
(1.2291e-15 9.94553e-30 1.46914e-30 1.71607 4.84926e-15 1.92821e-15 0.114519 -4.05788e-16 -1.43361e-16)
(8.94403e-15 -1.15212e-29 -1.80018e-30 1.71607 1.5597e-17 -6.36218e-17 0.114519 -4.76407e-15 2.55607e-16)
(-2.24402e-15 2.23756e-30 1.66339e-31 1.67809 3.28711e-15 1.50364e-15 0.114079 -2.4119e-16 -1.14233e-16)
(8.97606e-15 0 3.53439e-31 1.67809 1.95562e-16 1.70337e-16 0.114079 -4.75582e-15 3.14156e-16)
(4.50398e-15 -4.46992e-30 1.31638e-32 1.64108 3.58117e-15 1.89052e-15 0.113651 -2.06283e-16 -9.03847e-17)
(0 0 -3.46962e-31 1.64108 3.09846e-16 1.2434e-16 0.113651 -4.72332e-15 3.73311e-16)
(5.32782e-15 -2.21595e-30 -4.91002e-31 1.60501 4.10661e-15 2.68476e-15 0.113232 -2.91466e-16 -1.72725e-16)
(9.03974e-15 0 3.40604e-31 1.60501 -9.96405e-16 8.85891e-17 0.113232 -4.72427e-15 4.22545e-16)
(-2.26785e-15 1.02339e-29 6.41143e-31 1.56986 4.32107e-15 3.06766e-15 0.112824 -2.89027e-16 -2.07113e-16)
(0 -2.6749e-30 -1.67181e-31 1.56986 -1.98349e-15 1.92341e-17 0.112824 -4.77791e-15 4.76299e-16)
(-2.95648e-15 -2.62588e-30 -4.92353e-31 1.5356 5.51859e-15 2.40495e-15 0.112426 -3.3362e-16 -2.34887e-16)
(2.11623e-14 5.25177e-30 4.92353e-31 1.5356 -2.70438e-15 -9.57177e-17 0.112426 -4.79922e-15 5.14724e-16)
(-2.28359e-15 -5.57217e-30 -8.25802e-31 1.5022 5.67172e-15 5.32122e-16 0.112038 -4.7722e-16 -1.16799e-16)
(0 7.7333e-30 9.66662e-31 1.5022 -2.94044e-15 3.80485e-17 0.112038 -4.8792e-15 5.53322e-16)
(-2.84912e-15 -7.59159e-30 -6.32632e-31 1.46962 4.33224e-15 -5.32257e-16 0.111658 -3.69287e-16 -4.23268e-17)
(1.83313e-14 1.01221e-29 6.32632e-31 1.46962 -1.95977e-15 9.7211e-17 0.111658 -4.94778e-15 5.88144e-16)
(-2.29921e-15 1.21015e-29 1.0858e-30 1.43786 3.30053e-15 -5.98867e-16 0.111288 -2.89408e-16 -5.06083e-17)
(0 -9.93663e-30 -9.31559e-31 1.43786 -3.08794e-15 1.57299e-16 0.111288 -4.93084e-15 6.18365e-16)
(0 -2.43864e-30 -3.0483e-31 1.40687 3.15458e-15 -5.06105e-16 0.110926 -2.21735e-16 -2.91331e-17)
(9.22795e-15 4.87727e-30 3.0483e-31 1.40687 -2.81538e-15 3.26533e-17 0.110926 -5.00875e-15 6.46497e-16)
(2.31473e-15 -9.3208e-30 -1.05511e-30 1.37665 3.38765e-15 -5.02258e-16 0.110573 -2.77046e-16 -5.18906e-17)
(1.85179e-14 7.18185e-30 8.97731e-31 1.37665 -1.97449e-15 -6.95019e-18 0.110573 -5.06478e-15 6.62203e-16)
(-2.32245e-15 -2.24916e-31 1.62958e-31 1.34716 4.0156e-15 -5.12838e-16 0.110227 -2.67942e-16 -3.19812e-17)
(9.28981e-15 4.70016e-30 2.9376e-31 1.34716 -3.41943e-15 1.05928e-16 0.110227 -5.13495e-15 6.88035e-16)
(2.33015e-15 4.83533e-30 7.01847e-31 1.31838 5.0744e-15 -4.1832e-16 0.10989 -3.9137e-16 -3.79175e-17)
(9.32059e-15 -2.30702e-30 -5.76754e-31 1.31838 -3.23336e-15 2.76208e-16 0.10989 -5.20681e-15 7.04036e-16)
(-4.67564e-15 8.64127e-30 4.37906e-47 1.29029 4.19424e-15 -2.46519e-32 0.109559 -4.56467e-16 -1.97215e-31)
(6.80141e-15 0 -2.83093e-31 1.29029 -1.28649e-15 1.99026e-16 0.109559 -5.22572e-15 7.24138e-16)
(-5.00629e-15 -4.44648e-30 -5.5581e-31 1.26288 3.88329e-15 1.31218e-16 0.109236 -2.55024e-16 -1.09019e-17)
(2.12669e-14 8.89296e-30 1.11162e-30 1.26288 -9.44251e-16 2.30554e-17 0.109236 -5.22763e-15 7.22992e-16)
(0 4.365e-30 8.18438e-31 1.23611 4.60843e-15 2.43992e-16 0.10892 -4.19292e-16 -1.18409e-17)
(6.95508e-15 -4.365e-30 -5.45625e-31 1.23611 -3.506e-15 1.72843e-16 0.10892 -5.25579e-15 7.27749e-16)
(-2.36069e-15 6.32551e-30 4.31626e-31 1.20998 3.28869e-15 5.24611e-16 0.108611 -3.93807e-16 -3.14017e-17)
(-2.41225e-15 -2.14251e-30 0 1.20998 -5.0679e-15 1.84669e-16 0.108611 -5.32423e-15 7.29185e-16)
(4.73631e-15 2.13508e-30 6.29828e-31 1.18447 2.60883e-15 9.67409e-16 0.108308 -1.95611e-16 -6.32084e-17)
(-2.36804e-15 -8.41298e-30 -1.05162e-30 1.18447 -3.95117e-15 1.22614e-16 0.108308 -5.40425e-15 7.22295e-16)
(2.32465e-15 2.0647e-30 5.16176e-31 1.15955 3.6148e-15 1.34996e-15 0.108012 -2.82974e-16 -1.14435e-16)
(-2.32465e-15 0 -2.58088e-31 1.15955 -2.61924e-15 1.49551e-16 0.108012 -5.46991e-15 7.06294e-16)
(-1.01308e-16 1.21389e-29 1.66158e-30 1.13521 3.85721e-15 1.54488e-15 0.107721 -3.92406e-16 -1.37623e-16)
(-2.28205e-15 -1.01343e-29 -1.52015e-30 1.13521 -4.38637e-15 1.01952e-16 0.107721 -5.49976e-15 6.8484e-16)
(-2.39088e-15 3.98597e-30 3.82607e-31 1.11144 3.88792e-15 1.61762e-15 0.107436 -3.40134e-16 -1.56138e-16)
(-9.5635e-15 0 0 1.11144 -5.76709e-15 -1.64512e-16 0.107436 -5.69535e-15 6.57051e-16)
(-4.59755e-15 -1.93534e-30 -3.59811e-31 1.08821 4.44635e-15 1.27228e-15 0.107157 -4.13193e-16 -1.57021e-16)
(2.13861e-14 5.8598e-30 4.88317e-31 1.08821 -4.22407e-15 -4.25954e-16 0.107157 -5.842e-15 6.17119e-16)
(-2.15888e-15 -7.6699e-30 -9.58737e-31 1.06552 3.49845e-15 6.29711e-16 0.106883 -4.64102e-16 -9.32842e-17)
(1.17823e-14 7.6699e-30 9.58737e-31 1.06552 -3.52113e-15 -9.35547e-17 0.106883 -5.9182e-15 5.70684e-16)
(-2.4133e-15 5.72342e-30 8.45596e-31 1.04334 1.69246e-15 5.19783e-16 0.106614 -2.36571e-16 -3.26528e-17)
(7.53386e-15 0 -4.70584e-31 1.04334 -2.05755e-15 1.67641e-16 0.106614 -6.02453e-15 5.57639e-16)