/*--------------------------------*- C++ -*----------------------------------*\
| =========                 |                                                 |
| \\      /  F ield         | OpenFOAM: The Open Source CFD Toolbox           |
|  \\    /   O peration     | Version:  2106                                  |
|   \\  /    A nd           | Website:  www.openfoam.com                      |
|    \\/     M anipulation  |                                                 |
\*---------------------------------------------------------------------------*/
FoamFile
{
    version     2.0;
    format      ascii;
    arch        "LSB;label=32;scalar=64";
    class       volVectorField;
    location    "10010";
    object      grad(T);
}
// * * * * * * * * * * * * * * * * * * * * * * * * * * * * * * * * * * * * * //

dimensions      [0 -1 0 1 0 0 0];

internalField   nonuniform List<vector> 
2000
(
(0 874.937 1.61919)
(0 874.937 1.61919)
(-8.98622e-16 874.935 4.88779)
(0 874.935 4.88779)
(-1.98998e-16 874.93 6.78347)
(0 874.93 6.78347)
(-6.52138e-16 874.92 6.90998)
(2.60855e-15 874.92 6.90998)
(0 874.896 7.0387)
(0 874.896 7.0387)
(-3.33817e-15 874.843 7.16948)
(-2.99786e-15 874.843 7.16948)
(6.554e-15 874.727 7.30201)
(8.2524e-15 874.727 7.30201)
(0 874.497 7.43572)
(2.04098e-14 874.497 7.43572)
(-3.04858e-15 874.069 7.56974)
(0 874.069 7.56974)
(6.20026e-15 873.32 7.7027)
(-6.20026e-15 873.32 7.7027)
(1.21733e-14 872.081 7.83271)
(-6.08665e-15 872.081 7.83271)
(-1.37706e-15 870.131 7.95723)
(1.83922e-14 870.131 7.95723)
(0 867.192 8.07303)
(0 867.192 8.07303)
(-2.29544e-14 862.939 8.17626)
(1.15163e-14 862.939 8.17626)
(-2.88458e-14 857.018 8.26261)
(0 857.018 8.26261)
(6.79964e-15 849.07 8.32761)
(-2.71986e-14 849.07 8.32761)
(1.08947e-14 838.769 8.36702)
(0 838.769 8.36702)
(1.59023e-14 825.865 8.37733)
(3.18047e-14 825.865 8.37733)
(-8.5354e-15 810.219 8.35617)
(0 810.219 8.35617)
(9.12265e-15 791.836 8.30264)
(3.64906e-14 791.836 8.30264)
(-9.71059e-15 770.867 8.21744)
(7.76847e-14 770.867 8.21744)
(0 747.599 8.10279)
(2.1322e-14 747.599 8.10279)
(0 722.428 7.96209)
(4.35139e-14 722.428 7.96209)
(0 695.814 7.79957)
(2.66706e-14 695.814 7.79957)
(-1.20196e-14 668.24 7.61985)
(0 668.24 7.61985)
(0 640.175 7.42754)
(5.03003e-14 640.175 7.42754)
(4.99194e-15 612.041 7.22697)
(0 612.041 7.22697)
(-1.36482e-14 584.201 7.02197)
(0 584.201 7.02197)
(-1.74526e-14 556.948 6.81577)
(0 556.948 6.81577)
(-3.17982e-14 530.507 6.61103)
(-5.86617e-14 530.507 6.61103)
(1.51521e-14 505.04 6.40979)
(4.37895e-14 505.04 6.40979)
(0 480.654 6.21362)
(0 480.654 6.21362)
(-1.60816e-14 457.412 6.02363)
(0 457.412 6.02363)
(1.52971e-14 435.34 5.84055)
(-3.18221e-14 435.34 5.84055)
(0 414.438 5.66485)
(6.78186e-14 414.438 5.66485)
(-1.53333e-14 394.686 5.49676)
(0 394.686 5.49676)
(1.77747e-14 376.049 5.33632)
(7.10989e-14 376.049 5.33632)
(-1.81662e-14 358.481 5.18347)
(7.26649e-14 358.481 5.18347)
(1.04653e-14 341.933 5.03804)
(-2.90114e-14 341.933 5.03804)
(0 326.351 4.8998)
(7.56594e-14 326.351 4.8998)
(-6.6504e-14 311.679 4.76848)
(7.70922e-14 311.679 4.76848)
(0 297.864 4.64376)
(0 297.864 4.64376)
(0 284.852 4.52535)
(0 284.852 4.52535)
(-2.02895e-14 272.591 4.41291)
(-8.11581e-14 272.591 4.41291)
(2.06105e-14 261.031 4.30612)
(8.24422e-14 261.031 4.30612)
(-4.56504e-15 250.128 4.20469)
(-5.82052e-14 250.128 4.20469)
(3.79283e-15 239.836 4.1083)
(8.49142e-14 239.836 4.1083)
(0 230.116 4.01667)
(1.72211e-13 230.116 4.01667)
(2.18172e-14 220.928 3.92952)
(8.72686e-14 220.928 3.92952)
(-2.21013e-14 212.237 3.84659)
(-8.84053e-14 212.237 3.84659)
(0 204.009 3.76764)
(0 204.009 3.76764)
(-6.82737e-14 196.215 3.69242)
(0 196.215 3.69242)
(0 188.826 3.62073)
(0 188.826 3.62073)
(0 181.815 3.55235)
(-9.27118e-14 181.815 3.55235)
(1.85336e-15 175.158 3.4871)
(0 175.158 3.4871)
(-2.36841e-14 168.832 3.42479)
(0 168.832 3.42479)
(-2.70635e-14 162.816 3.36526)
(9.57201e-14 162.816 3.36526)
(-2.41714e-14 157.092 3.30835)
(0 157.092 3.30835)
(-4.88171e-14 151.64 3.25391)
(-9.76342e-14 151.64 3.25391)
(2.46416e-14 146.444 3.20181)
(-9.85663e-14 146.444 3.20181)
(-3.86271e-14 141.488 3.15191)
(0 141.488 3.15191)
(-5.0192e-14 136.76 3.1041)
(2.00768e-13 136.76 3.1041)
(-2.53178e-14 132.244 3.05827)
(1.01271e-13 132.244 3.05827)
(3.65423e-14 127.928 3.0143)
(0 127.928 3.0143)
(-2.57511e-14 123.802 2.9721)
(1.03004e-13 123.802 2.9721)
(0 119.854 2.93159)
(0 119.854 2.93159)
(-2.61718e-14 116.074 2.89266)
(0 116.074 2.89266)
(0 112.453 2.85525)
(0 112.453 2.85525)
(0 108.983 2.81927)
(1.06323e-13 108.983 2.81927)
(0 105.655 2.78466)
(0 105.655 2.78466)
(-2.69791e-14 102.462 2.75135)
(1.07916e-13 102.462 2.75135)
(0 99.3959 2.71927)
(1.08698e-13 99.3959 2.71927)
(-2.73674e-14 96.4511 2.68837)
(-1.0947e-13 96.4511 2.68837)
(0 93.6211 2.6586)
(-1.10232e-13 93.6211 2.6586)
(-5.54931e-14 90.9001 2.62989)
(1.10986e-13 90.9001 2.62989)
(-5.58657e-14 88.2826 2.6022)
(0 88.2826 2.6022)
(0 85.7636 2.57548)
(1.12469e-13 85.7636 2.57548)
(-8.47119e-14 83.3382 2.54969)
(-1.13198e-13 83.3382 2.54969)
(5.61692e-14 81.0019 2.5248)
(-2.76894e-14 81.0019 2.5248)
(2.86583e-14 78.7505 2.50075)
(-1.14633e-13 78.7505 2.50075)
(-8.4354e-14 76.58 2.47751)
(0 76.58 2.47751)
(0 74.4867 2.45506)
(0 74.4867 2.45506)
(2.91835e-14 72.4669 2.43335)
(-2.33468e-13 72.4669 2.43335)
(2.93552e-14 70.5174 2.41235)
(0 70.5174 2.41235)
(0 68.635 2.39204)
(1.18102e-13 68.635 2.39204)
(2.96942e-14 66.8168 2.37239)
(1.18777e-13 66.8168 2.37239)
(-1.19604e-14 65.0598 2.35336)
(0 65.0598 2.35336)
(-1.31673e-14 63.3615 2.33494)
(1.20109e-13 63.3615 2.33494)
(3.01918e-14 61.7194 2.31711)
(2.41534e-13 61.7194 2.31711)
(1.48296e-14 60.131 2.29983)
(-4.51845e-14 60.131 2.29983)
(-6.10337e-14 58.5942 2.28309)
(1.22067e-13 58.5942 2.28309)
(-3.06775e-14 57.1067 2.26687)
(1.2271e-13 57.1067 2.26687)
(-4.27458e-14 55.6665 2.25114)
(0 55.6665 2.25114)
(7.29578e-14 54.2717 2.23589)
(8.20188e-14 54.2717 2.23589)
(3.11525e-14 52.9206 2.2211)
(1.2461e-13 52.9206 2.2211)
(-3.13086e-14 51.6113 2.20676)
(1.25234e-13 51.6113 2.20676)
(3.14637e-14 50.3421 2.19285)
(0 50.3421 2.19285)
(-3.16177e-14 49.1116 2.17935)
(1.26471e-13 49.1116 2.17935)
(3.17708e-14 47.9183 2.16624)
(0 47.9183 2.16624)
(-3.19228e-14 46.7606 2.15352)
(1.27691e-13 46.7606 2.15352)
(3.2074e-14 45.6374 2.14118)
(9.1429e-14 45.6374 2.14118)
(0 44.5471 2.12918)
(1.28897e-13 44.5471 2.12918)
(0 43.4888 2.11754)
(-1.65022e-13 43.4888 2.11754)
(0 42.4611 2.10623)
(1.30088e-13 42.4611 2.10623)
(1.56822e-15 41.4629 2.09524)
(0 41.4629 2.09524)
(-3.28166e-14 40.4932 2.08456)
(1.31266e-13 40.4932 2.08456)
(3.29947e-14 39.5509 2.07419)
(0 39.5509 2.07419)
(0 38.6352 2.06411)
(-3.23901e-14 38.6352 2.06411)
(3.32526e-14 37.745 2.05431)
(1.3301e-13 37.745 2.05431)
(-2.90312e-14 36.8794 2.04478)
(1.33586e-13 36.8794 2.04478)
(0 36.0376 2.03552)
(1.34159e-13 36.0376 2.03552)
(-6.73643e-14 35.2188 2.02651)
(1.34729e-13 35.2188 2.02651)
(3.3824e-14 34.4222 2.01775)
(1.35296e-13 34.4222 2.01775)
(-2.8988e-14 33.647 2.00923)
(-1.06873e-13 33.647 2.00923)
(0 32.8926 2.00094)
(0 32.8926 2.00094)
(-6.84914e-14 32.1582 1.99288)
(0 32.1582 1.99288)
(-3.43851e-14 31.4431 1.98504)
(0 31.4431 1.98504)
(-5.38419e-14 30.7468 1.9774)
(-1.38095e-13 30.7468 1.9774)
(6.93242e-14 30.0687 1.96997)
(0 30.0687 1.96997)
(1.77129e-14 29.408 1.96274)
(1.39199e-13 29.408 1.96274)
(-3.4937e-14 28.7644 1.95571)
(1.39748e-13 28.7644 1.95571)
(7.01473e-14 28.1372 1.94885)
(0 28.1372 1.94885)
(8.4296e-14 27.5259 1.94218)
(1.40839e-13 27.5259 1.94218)
(-8.35322e-14 26.9301 1.93569)
(0 26.9301 1.93569)
(0 26.3492 1.92936)
(2.83845e-13 26.3492 1.92936)
(-8.20523e-14 25.7828 1.9232)
(0 25.7828 1.9232)
(0 25.2304 1.9172)
(2.85997e-13 25.2304 1.9172)
(-3.58835e-14 24.6916 1.91135)
(0 24.6916 1.91135)
(4.39306e-14 24.166 1.90565)
(1.44068e-13 24.166 1.90565)
(3.61499e-14 23.6533 1.9001)
(2.89199e-13 23.6533 1.9001)
(-3.62825e-14 23.1529 1.89469)
(1.4513e-13 23.1529 1.89469)
(-5.14479e-15 22.6646 1.88941)
(1.45659e-13 22.6646 1.88941)
(-1.13891e-13 22.188 1.88427)
(1.46186e-13 22.188 1.88427)
(-4.00503e-14 21.7228 1.87925)
(2.93424e-13 21.7228 1.87925)
(-3.93164e-14 21.2686 1.87436)
(1.47236e-13 21.2686 1.87436)
(-3.69398e-14 20.825 1.86958)
(-3.8596e-14 20.825 1.86958)
(3.70702e-14 20.3919 1.86492)
(0 20.3919 1.86492)
(0 19.9689 1.86037)
(0 19.9689 1.86037)
(-3.73299e-14 19.5556 1.85593)
(-3.65128e-14 19.5556 1.85593)
(-3.74593e-14 19.1519 1.8516)
(-1.85681e-13 19.1519 1.8516)
(-2.40143e-15 18.7575 1.84736)
(2.6552e-13 18.7575 1.84736)
(0 18.3721 1.84322)
(1.50868e-13 18.3721 1.84322)
(-3.78456e-14 17.9954 1.83917)
(1.17473e-13 17.9954 1.83917)
(0 17.6272 1.83521)
(1.18607e-13 17.6272 1.83521)
(-3.81016e-14 17.2673 1.83134)
(1.52407e-13 17.2673 1.83134)
(0 16.9155 1.82755)
(1.52917e-13 16.9155 1.82755)
(-3.83566e-14 16.5715 1.82384)
(0 16.5715 1.82384)
(2.33446e-14 16.235 1.8202)
(-6.18282e-14 16.235 1.8202)
(-3.86104e-14 15.9061 1.81664)
(0 15.9061 1.81664)
(-8.0429e-14 15.5843 1.81314)
(-9.53648e-14 15.5843 1.81314)
(0 15.2695 1.80971)
(0 15.2695 1.80971)
(0 14.9615 1.80634)
(0 14.9615 1.80634)
(9.54822e-14 14.6602 1.80303)
(0 14.6602 1.80303)
(-3.92406e-14 14.3654 1.79978)
(1.56963e-13 14.3654 1.79978)
(-3.9366e-14 14.0769 1.79657)
(1.57464e-13 14.0769 1.79657)
(-3.94911e-14 13.7945 1.79342)
(0 13.7945 1.79342)
(0 13.5181 1.79031)
(1.58464e-13 13.5181 1.79031)
(-9.1129e-14 13.2475 1.78724)
(-1.58962e-13 13.2475 1.78724)
(3.9865e-14 12.9825 1.7842)
(1.5946e-13 12.9825 1.7842)
(3.99893e-14 12.7231 1.78121)
(1.59957e-13 12.7231 1.78121)
(4.01133e-14 12.4691 1.77824)
(0 12.4691 1.77824)
(0 12.2203 1.7753)
(1.60948e-13 12.2203 1.7753)
(-4.03607e-14 11.9766 1.77238)
(0 11.9766 1.77238)
(4.5991e-14 11.7378 1.76949)
(1.15945e-13 11.7378 1.76949)
(-4.06072e-14 11.504 1.76661)
(0 11.504 1.76661)
(4.43209e-14 11.2748 1.76374)
(0 11.2748 1.76374)
(4.35087e-14 11.0502 1.76088)
(1.63412e-13 11.0502 1.76088)
(0 10.8302 1.75803)
(1.63902e-13 10.8302 1.75803)
(-4.1098e-14 10.6144 1.75517)
(0 10.6144 1.75517)
(-4.12201e-14 10.403 1.75231)
(0 10.403 1.75231)
(-4.13421e-14 10.1957 1.74945)
(0 10.1957 1.74945)
(4.32621e-14 9.99244 1.74657)
(1.65856e-13 9.99244 1.74657)
(-8.58177e-14 9.79313 1.74367)
(1.66342e-13 9.79313 1.74367)
(-7.64506e-14 9.59766 1.74075)
(2.05053e-13 9.59766 1.74075)
(-4.18281e-14 9.40593 1.73781)
(0 9.40593 1.73781)
(-7.87863e-14 9.21786 1.73483)
(0 9.21786 1.73483)
(0 9.03334 1.73182)
(0 9.03334 1.73182)
(0 8.85229 1.72877)
(1.68762e-13 8.85229 1.72877)
(-4.23109e-14 8.67462 1.72566)
(-1.69244e-13 8.67462 1.72566)
(0 8.50024 1.72251)
(0 8.50024 1.72251)
(-1.09718e-13 8.32907 1.7193)
(-4.07575e-13 8.32907 1.7193)
(-4.26708e-14 8.16102 1.71602)
(0 8.16102 1.71602)
(0 7.99602 1.71267)
(0 7.99602 1.71267)
(0 7.83399 1.70924)
(1.71639e-13 7.83399 1.70924)
(-8.60575e-14 7.67485 1.70573)
(3.4423e-13 7.67485 1.70573)
(6.12344e-14 7.51852 1.70213)
(1.11356e-13 7.51852 1.70213)
(-4.32662e-14 7.36493 1.69843)
(-6.01123e-14 7.36493 1.69843)
(0 7.21401 1.69462)
(-1.73538e-13 7.21401 1.69462)
(-4.35027e-14 7.06568 1.6907)
(0 7.06568 1.6907)
(0 6.91988 1.68666)
(1.74482e-13 6.91988 1.68666)
(0 6.77654 1.68248)
(1.74953e-13 6.77654 1.68248)
(4.38556e-14 6.63559 1.67816)
(3.50844e-13 6.63559 1.67816)
(4.39726e-14 6.49696 1.67369)
(1.75891e-13 6.49696 1.67369)
(0 6.36059 1.66906)
(1.76358e-13 6.36059 1.66906)
(1.47896e-13 6.22641 1.66425)
(7.31336e-14 6.22641 1.66425)
(-4.43221e-14 6.09436 1.65927)
(3.54576e-13 6.09436 1.65927)
(-4.44379e-14 5.96438 1.65408)
(-1.77752e-13 5.96438 1.65408)
(4.90467e-14 5.83641 1.64869)
(0 5.83641 1.64869)
(-9.28166e-14 5.71038 1.64308)
(0 5.71038 1.64308)
(-8.95669e-14 5.58623 1.63724)
(0 5.58623 1.63724)
(4.79012e-14 5.46391 1.63114)
(8.67925e-14 5.46391 1.63114)
(0 5.34335 1.62478)
(0 5.34335 1.62478)
(-4.51256e-14 5.22449 1.61814)
(0 5.22449 1.61814)
(-4.38952e-14 5.10728 1.6112)
(-8.77904e-14 5.10728 1.6112)
(4.53517e-14 4.99164 1.60394)
(3.62813e-13 4.99164 1.60394)
(9.0928e-14 4.87754 1.59634)
(-1.81856e-13 4.87754 1.59634)
(9.11518e-14 4.76489 1.58839)
(0 4.76489 1.58839)
(9.13745e-14 4.65366 1.58005)
(3.65498e-13 4.65366 1.58005)
(4.57981e-14 4.54376 1.57131)
(1.43174e-13 4.54376 1.57131)
(4.59084e-14 4.43516 1.56214)
(1.83634e-13 4.43516 1.56214)
(-4.60182e-14 4.32777 1.55251)
(1.84073e-13 4.32777 1.55251)
(-4.61273e-14 4.22154 1.5424)
(0 4.22154 1.5424)
(3.71645e-14 4.11641 1.53177)
(1.47779e-13 4.11641 1.53177)
(-9.26872e-14 4.01231 1.52058)
(1.85374e-13 4.01231 1.52058)
(2.51791e-14 3.90918 1.50881)
(-7.16298e-14 3.90918 1.50881)
(0 3.80694 1.49642)
(3.72457e-13 3.80694 1.49642)
(0 3.70553 1.48336)
(0 3.70553 1.48336)
(4.67677e-14 3.60488 1.46958)
(-1.87071e-13 3.60488 1.46958)
(4.68717e-14 3.5049 1.45505)
(0 3.5049 1.45505)
(-2.86465e-14 3.40553 1.4397)
(0 3.40553 1.4397)
(3.00475e-14 3.30668 1.42348)
(-6.41064e-14 3.30668 1.42348)
(0 3.20827 1.40633)
(1.88712e-13 3.20827 1.40633)
(6.17784e-14 3.1102 1.38818)
(1.89113e-13 3.1102 1.38818)
(4.73772e-14 3.01239 1.36896)
(1.89509e-13 3.01239 1.36896)
(0 2.91473 1.34858)
(-2.49435e-13 2.91473 1.34858)
(-4.75715e-14 2.81712 1.32697)
(0 2.81712 1.32697)
(-1.0504e-13 2.71945 1.30401)
(1.90667e-13 2.71945 1.30401)
(0 2.62159 1.27962)
(1.91043e-13 2.62159 1.27962)
(7.4366e-15 2.52342 1.25367)
(-1.91412e-13 2.52342 1.25367)
(4.79439e-14 2.42481 1.22604)
(3.83551e-13 2.42481 1.22604)
(0 2.3256 1.19658)
(1.92132e-13 2.3256 1.19658)
(-4.81205e-14 2.22563 1.16516)
(0 2.22563 1.16516)
(1.509e-13 2.12475 1.13159)
(9.01297e-14 2.12475 1.13159)
(2.11668e-15 2.02277 1.0957)
(1.93158e-13 2.02277 1.0957)
(-4.83708e-14 1.91949 1.05729)
(1.93483e-13 1.91949 1.05729)
(4.85757e-14 1.81472 1.01614)
(0 1.81472 1.01614)
(4.85265e-14 1.70823 0.972017)
(0 1.70823 0.972017)
(-9.72011e-14 1.59981 0.924662)
(1.94402e-13 1.59981 0.924662)
(9.19079e-14 1.48922 0.873803)
(-9.19079e-14 1.48922 0.873803)
(0 1.37621 0.819154)
(0 1.37621 0.819154)
(4.8805e-14 1.26056 0.760411)
(1.9522e-13 1.26056 0.760411)
(3.80809e-14 1.14204 0.697265)
(1.08519e-13 1.14204 0.697265)
(-9.16013e-14 1.02043 0.629403)
(0 1.02043 0.629403)
(0 0.895538 0.556517)
(0 0.895538 0.556517)
(0 0.767227 0.478317)
(-1.9611e-13 0.767227 0.478317)
(-4.90724e-14 0.635399 0.394541)
(0 0.635399 0.394541)
(6.97892e-14 0.500024 0.304965)
(1.56815e-13 0.500024 0.304965)
(0 0.361148 0.209417)
(1.96586e-13 0.361148 0.209417)
(-4.91752e-14 0.218896 0.107781)
(0 0.218896 0.107781)
(2.57916e-14 4.78309e-07 1.77035e-07)
(3.18702e-13 4.78233e-07 1.77007e-07)
(0 874.937 -1.61919)
(-2.28849e-16 874.937 -1.61919)
(-8.98622e-16 874.935 -4.88779)
(0 874.935 -4.88779)
(-3.97996e-16 874.93 -6.78347)
(0 874.93 -6.78347)
(6.52138e-16 874.92 -6.90998)
(-1.73198e-15 874.92 -6.90998)
(-2.2275e-15 874.896 -7.0387)
(0 874.896 -7.0387)
(1.58401e-15 874.843 -7.16948)
(-3.33817e-15 874.843 -7.16948)
(-9.831e-15 874.727 -7.30201)
(0 874.727 -7.30201)
(5.10244e-15 874.497 -7.43572)
(0 874.497 -7.43572)
(-3.04858e-15 874.069 -7.56974)
(1.21943e-14 874.069 -7.56974)
(-2.64488e-15 873.32 -7.7027)
(-1.42215e-14 873.32 -7.7027)
(2.057e-15 872.081 -7.83271)
(-1.62873e-14 872.081 -7.83271)
(4.59805e-15 870.131 -7.95723)
(0 870.131 -7.95723)
(-5.13412e-15 867.192 -8.07303)
(-2.05365e-14 867.192 -8.07303)
(1.15163e-14 862.939 -8.17626)
(-3.42362e-14 862.939 -8.17626)
(6.23533e-15 857.018 -8.26261)
(-2.49413e-14 857.018 -8.26261)
(-1.10981e-14 849.07 -8.32761)
(0 849.07 -8.32761)
(7.37202e-15 838.769 -8.36702)
(-2.94881e-14 838.769 -8.36702)
(7.95117e-15 825.865 -8.37733)
(3.18047e-14 825.865 -8.37733)
(8.5354e-15 810.219 -8.35617)
(0 810.219 -8.35617)
(1.82453e-14 791.836 -8.30264)
(0 791.836 -8.30264)
(9.71059e-15 770.867 -8.21744)
(3.88423e-14 770.867 -8.21744)
(1.02967e-14 747.599 -8.10279)
(4.11868e-14 747.599 -8.10279)
(-1.08785e-14 722.428 -7.96209)
(0 722.428 -7.96209)
(2.2907e-14 695.814 -7.79957)
(0 695.814 -7.79957)
(1.20196e-14 668.24 -7.61985)
(0 668.24 -7.61985)
(1.84483e-14 640.175 -7.42754)
(-1.84483e-14 640.175 -7.42754)
(0 612.041 -7.22697)
(0 612.041 -7.22697)
(2.72964e-14 584.201 -7.02197)
(0 584.201 -7.02197)
(3.16167e-14 556.948 -6.81577)
(3.92037e-14 556.948 -6.81577)
(2.93309e-14 530.507 -6.61103)
(0 530.507 -6.61103)
(1.51521e-14 505.04 -6.40979)
(0 505.04 -6.40979)
(1.56241e-14 480.654 -6.21362)
(-1.65106e-14 480.654 -6.21362)
(3.22897e-14 457.412 -6.02363)
(-6.43264e-14 457.412 -6.02363)
(-3.18221e-14 435.34 -5.84055)
(-6.60999e-14 435.34 -5.84055)
(0 414.438 -5.66485)
(0 414.438 -5.66485)
(1.7371e-14 394.686 -5.49676)
(-6.94842e-14 394.686 -5.49676)
(2.04972e-14 376.049 -5.33632)
(0 376.049 -5.33632)
(-1.81662e-14 358.481 -5.18347)
(-7.26649e-14 358.481 -5.18347)
(-1.85461e-14 341.933 -5.03804)
(-1.48369e-13 341.933 -5.03804)
(-4.73946e-14 326.351 -4.8998)
(0 326.351 -4.8998)
(-1.92731e-14 311.679 -4.76848)
(0 311.679 -4.76848)
(-1.96212e-14 297.864 -4.64376)
(-1.5697e-13 297.864 -4.64376)
(3.99198e-14 284.852 -4.52535)
(0 284.852 -4.52535)
(2.02895e-14 272.591 -4.41291)
(-8.11581e-14 272.591 -4.41291)
(4.12211e-14 261.031 -4.30612)
(8.24422e-14 261.031 -4.30612)
(2.09234e-14 250.128 -4.20469)
(-8.36937e-14 250.128 -4.20469)
(-4.24571e-14 239.836 -4.1083)
(-8.49142e-14 239.836 -4.1083)
(4.30527e-14 230.116 -4.01667)
(8.61054e-14 230.116 -4.01667)
(2.41128e-14 220.928 -3.92952)
(0 220.928 -3.92952)
(-2.21013e-14 212.237 -3.84659)
(-2.24152e-13 212.237 -3.84659)
(2.23792e-14 204.009 -3.76764)
(-8.95168e-14 204.009 -3.76764)
(6.82737e-14 196.215 -3.69242)
(-4.56227e-14 196.215 -3.69242)
(0 188.826 -3.62073)
(-1.83338e-13 188.826 -3.62073)
(2.3178e-14 181.815 -3.55235)
(0 181.815 -3.55235)
(4.6867e-14 175.158 -3.4871)
(0 175.158 -3.4871)
(0 168.832 -3.42479)
(-9.47365e-14 168.832 -3.42479)
(3.13352e-15 162.816 -3.36526)
(0 162.816 -3.36526)
(2.41714e-14 157.092 -3.30835)
(-9.66857e-14 157.092 -3.30835)
(0 151.64 -3.25391)
(-9.76342e-14 151.64 -3.25391)
(0 146.444 -3.20181)
(-9.85663e-14 146.444 -3.20181)
(2.48707e-14 141.488 -3.15191)
(0 141.488 -3.15191)
(0 136.76 -3.1041)
(0 136.76 -3.1041)
(6.25421e-14 132.244 -3.05827)
(0 132.244 -3.05827)
(2.55361e-14 127.928 -3.0143)
(0 127.928 -3.0143)
(0 123.802 -2.9721)
(-1.03004e-13 123.802 -2.9721)
(0 119.854 -2.93159)
(0 119.854 -2.93159)
(2.61718e-14 116.074 -2.89266)
(-1.04687e-13 116.074 -2.89266)
(0 112.453 -2.85525)
(-1.05511e-13 112.453 -2.85525)
(3.33146e-14 108.983 -2.81927)
(0 108.983 -2.81927)
(-2.67812e-14 105.655 -2.78466)
(2.1425e-13 105.655 -2.78466)
(3.21048e-14 102.462 -2.75135)
(-3.21048e-14 102.462 -2.75135)
(2.71744e-14 99.3959 -2.71927)
(-1.08698e-13 99.3959 -2.71927)
(2.73674e-14 96.4511 -2.68837)
(-1.0947e-13 96.4511 -2.68837)
(9.11161e-14 93.6211 -2.6586)
(-2.20465e-13 93.6211 -2.6586)
(-2.77465e-14 90.9001 -2.62989)
(0 90.9001 -2.62989)
(2.92691e-14 88.2826 -2.6022)
(0 88.2826 -2.6022)
(0 85.7636 -2.57548)
(1.12469e-13 85.7636 -2.57548)
(-9.31661e-17 83.3382 -2.54969)
(-4.52791e-13 83.3382 -2.54969)
(5.69596e-14 81.0019 -2.5248)
(-1.13919e-13 81.0019 -2.5248)
(-2.86583e-14 78.7505 -2.50075)
(0 78.7505 -2.50075)
(-5.5519e-14 76.58 -2.47751)
(-8.86564e-14 76.58 -2.47751)
(-5.80202e-14 74.4867 -2.45506)
(-1.1604e-13 74.4867 -2.45506)
(-2.91835e-14 72.4669 -2.43335)
(-2.33468e-13 72.4669 -2.43335)
(5.87105e-14 70.5174 -2.41235)
(-1.17421e-13 70.5174 -2.41235)
(2.95254e-14 68.635 -2.39204)
(1.18102e-13 68.635 -2.39204)
(0 66.8168 -2.37239)
(7.01226e-14 66.8168 -2.37239)
(-1.7901e-14 65.0598 -2.35336)
(-1.67208e-13 65.0598 -2.35336)
(-1.06942e-13 63.3615 -2.33494)
(1.20109e-13 63.3615 -2.33494)
(3.01918e-14 61.7194 -2.31711)
(0 61.7194 -2.31711)
(-3.03549e-14 60.131 -2.29983)
(0 60.131 -2.29983)
(0 58.5942 -2.28309)
(0 58.5942 -2.28309)
(3.06775e-14 57.1067 -2.26687)
(1.2271e-13 57.1067 -2.26687)
(4.27458e-14 55.6665 -2.25114)
(-1.66094e-13 55.6665 -2.25114)
(0 54.2717 -2.23589)
(0 54.2717 -2.23589)
(3.11525e-14 52.9206 -2.2211)
(1.2461e-13 52.9206 -2.2211)
(0 51.6113 -2.20676)
(0 51.6113 -2.20676)
(0 50.3421 -2.19285)
(-2.51709e-13 50.3421 -2.19285)
(0 49.1116 -2.17935)
(0 49.1116 -2.17935)
(3.17708e-14 47.9183 -2.16624)
(-1.27083e-13 47.9183 -2.16624)
(3.19228e-14 46.7606 -2.15352)
(0 46.7606 -2.15352)
(6.89409e-14 45.6374 -2.14118)
(2.19725e-13 45.6374 -2.14118)
(3.22242e-14 44.5471 -2.12918)
(0 44.5471 -2.12918)
(3.23736e-14 43.4888 -2.11754)
(-1.65022e-13 43.4888 -2.11754)
(-3.72321e-14 42.4611 -2.10623)
(1.64965e-13 42.4611 -2.10623)
(3.4238e-14 41.4629 -2.09524)
(0 41.4629 -2.09524)
(-3.28166e-14 40.4932 -2.08456)
(-1.31266e-13 40.4932 -2.08456)
(0 39.5509 -2.07419)
(-3.29947e-14 39.5509 -2.07419)
(-3.23901e-14 38.6352 -2.06411)
(0 38.6352 -2.06411)
(0 37.745 -2.05431)
(0 37.745 -2.05431)
(3.12139e-14 36.8794 -2.04478)
(-1.33586e-13 36.8794 -2.04478)
(-3.06419e-14 36.0376 -2.03552)
(0 36.0376 -2.03552)
(0 35.2188 -2.02651)
(0 35.2188 -2.02651)
(4.29483e-15 34.4222 -2.01775)
(0 34.4222 -2.01775)
(-3.39652e-14 33.647 -2.00923)
(0 33.647 -2.00923)
(-3.41057e-14 32.8926 -2.00094)
(0 32.8926 -2.00094)
(-2.16251e-14 32.1582 -1.99288)
(0 32.1582 -1.99288)
(0 31.4431 -1.98504)
(0 31.4431 -1.98504)
(-6.90477e-14 30.7468 -1.9774)
(-2.76191e-13 30.7468 -1.9774)
(0 30.0687 -1.96997)
(0 30.0687 -1.96997)
(-1.70869e-14 29.408 -1.96274)
(5.18867e-14 29.408 -1.96274)
(-5.09359e-14 28.7644 -1.95571)
(1.39748e-13 28.7644 -1.95571)
(0 28.1372 -1.94885)
(-1.40295e-13 28.1372 -1.94885)
(0 27.5259 -1.94218)
(-1.40839e-13 27.5259 -1.94218)
(-8.35322e-14 26.9301 -1.93569)
(-9.31951e-14 26.9301 -1.93569)
(0 26.3492 -1.92936)
(1.41923e-13 26.3492 -1.92936)
(3.56154e-14 25.7828 -1.9232)
(0 25.7828 -1.9232)
(7.14993e-14 25.2304 -1.9172)
(1.42999e-13 25.2304 -1.9172)
(-3.58835e-14 24.6916 -1.91135)
(9.87834e-14 24.6916 -1.91135)
(-4.39306e-14 24.166 -1.90565)
(0 24.166 -1.90565)
(3.61499e-14 23.6533 -1.9001)
(0 23.6533 -1.9001)
(3.62825e-14 23.1529 -1.89469)
(1.4513e-13 23.1529 -1.89469)
(3.64147e-14 22.6646 -1.88941)
(1.45659e-13 22.6646 -1.88941)
(3.65465e-14 22.188 -1.88427)
(0 22.188 -1.88427)
(4.00503e-14 21.7228 -1.87925)
(-1.46712e-13 21.7228 -1.87925)
(7.61255e-14 21.2686 -1.87436)
(0 21.2686 -1.87436)
(1.65619e-15 20.825 -1.86958)
(-3.8596e-14 20.825 -1.86958)
(-3.78887e-14 20.3919 -1.86492)
(3.78887e-14 20.3919 -1.86492)
(3.72002e-14 19.9689 -1.86037)
(0 19.9689 -1.86037)
(1.11173e-13 19.5556 -1.85593)
(0 19.5556 -1.85593)
(3.58438e-14 19.1519 -1.8516)
(0 19.1519 -1.8516)
(7.27753e-14 18.7575 -1.84736)
(3.00707e-13 18.7575 -1.84736)
(0 18.3721 -1.84322)
(0 18.3721 -1.84322)
(-1.39573e-13 17.9954 -1.83917)
(3.39092e-14 17.9954 -1.83917)
(-3.79737e-14 17.6272 -1.83521)
(0 17.6272 -1.83521)
(3.26778e-14 17.2673 -1.83134)
(0 17.2673 -1.83134)
(3.82292e-14 16.9155 -1.82755)
(0 16.9155 -1.82755)
(6.29823e-14 16.5715 -1.82384)
(0 16.5715 -1.82384)
(7.69672e-14 16.235 -1.8202)
(-1.53934e-13 16.235 -1.8202)
(7.72208e-14 15.9061 -1.81664)
(-1.54442e-13 15.9061 -1.81664)
(2.0846e-14 15.5843 -1.81314)
(-4.64843e-13 15.5843 -1.81314)
(-9.73544e-14 15.2695 -1.80971)
(0 15.2695 -1.80971)
(0 14.9615 -1.80634)
(1.55957e-13 14.9615 -1.80634)
(0 14.6602 -1.80303)
(-5.63671e-14 14.6602 -1.80303)
(9.45749e-14 14.3654 -1.79978)
(-5.53342e-14 14.3654 -1.79978)
(-3.9366e-14 14.0769 -1.79657)
(-1.57464e-13 14.0769 -1.79657)
(0 13.7945 -1.79342)
(0 13.7945 -1.79342)
(9.19636e-14 13.5181 -1.79031)
(1.58464e-13 13.5181 -1.79031)
(7.94812e-14 13.2475 -1.78724)
(-1.58962e-13 13.2475 -1.78724)
(0 12.9825 -1.7842)
(-1.5946e-13 12.9825 -1.7842)
(3.99893e-14 12.7231 -1.78121)
(0 12.7231 -1.78121)
(-4.86148e-14 12.4691 -1.77824)
(-1.60453e-13 12.4691 -1.77824)
(0 12.2203 -1.7753)
(-3.6962e-13 12.2203 -1.7753)
(-4.68495e-14 11.9766 -1.77238)
(0 11.9766 -1.77238)
(8.09681e-14 11.7378 -1.76949)
(1.61936e-13 11.7378 -1.76949)
(4.06072e-14 11.504 -1.76661)
(0 11.504 -1.76661)
(0 11.2748 -1.76374)
(1.62921e-13 11.2748 -1.76374)
(4.0853e-14 11.0502 -1.76088)
(-1.63412e-13 11.0502 -1.76088)
(0 10.8302 -1.75803)
(-1.63902e-13 10.8302 -1.75803)
(0 10.6144 -1.75517)
(0 10.6144 -1.75517)
(5.97311e-17 10.403 -1.75231)
(-1.64881e-13 10.403 -1.75231)
(8.26843e-14 10.1957 -1.74945)
(-1.65369e-13 10.1957 -1.74945)
(4.14639e-14 9.99244 -1.74657)
(1.65856e-13 9.99244 -1.74657)
(4.42322e-14 9.79313 -1.74367)
(1.66342e-13 9.79313 -1.74367)
(4.17069e-14 9.59766 -1.74075)
(0 9.59766 -1.74075)
(-4.30325e-15 9.40593 -1.73781)
(0 9.40593 -1.73781)
(4.19491e-14 9.21786 -1.73483)
(-1.67796e-13 9.21786 -1.73483)
(4.20699e-14 9.03334 -1.73182)
(1.6828e-13 9.03334 -1.73182)
(4.88815e-14 8.85229 -1.72877)
(0 8.85229 -1.72877)
(3.4849e-14 8.67462 -1.72566)
(1.69244e-13 8.67462 -1.72566)
(-7.66415e-14 8.50024 -1.72251)
(-1.69724e-13 8.50024 -1.72251)
(8.51021e-14 8.32907 -1.7193)
(-1.70204e-13 8.32907 -1.7193)
(-4.26708e-14 8.16102 -1.71602)
(-3.41366e-13 8.16102 -1.71602)
(4.27903e-14 7.99602 -1.71267)
(-1.71161e-13 7.99602 -1.71267)
(-6.35418e-14 7.83399 -1.70924)
(1.71639e-13 7.83399 -1.70924)
(2.368e-14 7.67485 -1.70573)
(1.72115e-13 7.67485 -1.70573)
(1.04382e-13 7.51852 -1.70213)
(-2.33825e-13 7.51852 -1.70213)
(-1.68461e-14 7.36493 -1.69843)
(0 7.36493 -1.69843)
(0 7.21401 -1.69462)
(-1.73538e-13 7.21401 -1.69462)
(0 7.06568 -1.6907)
(-1.74011e-13 7.06568 -1.6907)
(0 6.91988 -1.68666)
(-1.74482e-13 6.91988 -1.68666)
(5.58258e-14 6.77654 -1.68248)
(-5.58258e-14 6.77654 -1.68248)
(4.38556e-14 6.63559 -1.67816)
(0 6.63559 -1.67816)
(4.39726e-14 6.49696 -1.67369)
(1.75891e-13 6.49696 -1.67369)
(4.40894e-14 6.36059 -1.66906)
(0 6.36059 -1.66906)
(0 6.22641 -1.66425)
(1.76824e-13 6.22641 -1.66425)
(0 6.09436 -1.65927)
(0 6.09436 -1.65927)
(0 5.96438 -1.65408)
(-1.77752e-13 5.96438 -1.65408)
(-4.90467e-14 5.83641 -1.64869)
(0 5.83641 -1.64869)
(-9.28166e-14 5.71038 -1.64308)
(0 5.71038 -1.64308)
(-4.47834e-14 5.58623 -1.63724)
(-1.79134e-13 5.58623 -1.63724)
(-1.37697e-13 5.46391 -1.63114)
(-1.79592e-13 5.46391 -1.63114)
(0 5.34335 -1.62478)
(0 5.34335 -1.62478)
(4.47146e-14 5.22449 -1.61814)
(-4.50434e-13 5.22449 -1.61814)
(0 5.10728 -1.6112)
(-1.80955e-13 5.10728 -1.6112)
(0 4.99164 -1.60394)
(0 4.99164 -1.60394)
(0 4.87754 -1.59634)
(-2.66459e-13 4.87754 -1.59634)
(-4.04982e-15 4.76489 -1.58839)
(-8.30522e-14 4.76489 -1.58839)
(5.06094e-14 4.65366 -1.58005)
(1.82749e-13 4.65366 -1.58005)
(9.15962e-14 4.54376 -1.57131)
(0 4.54376 -1.57131)
(1.32473e-14 4.43516 -1.56214)
(-1.83634e-13 4.43516 -1.56214)
(8.45831e-14 4.32777 -1.55251)
(-3.85649e-14 4.32777 -1.55251)
(-4.61273e-14 4.22154 -1.5424)
(0 4.22154 -1.5424)
(7.4329e-14 4.11641 -1.53177)
(1.84943e-13 4.11641 -1.53177)
(-4.63436e-14 4.01231 -1.52058)
(1.85374e-13 4.01231 -1.52058)
(0 3.90918 -1.50881)
(-2.57433e-13 3.90918 -1.50881)
(0 3.80694 -1.49642)
(-1.86229e-13 3.80694 -1.49642)
(-1.15692e-13 3.70553 -1.48336)
(-1.86651e-13 3.70553 -1.48336)
(9.35353e-14 3.60488 -1.46958)
(-1.87071e-13 3.60488 -1.46958)
(4.68717e-14 3.5049 -1.45505)
(0 3.5049 -1.45505)
(-6.5303e-14 3.40553 -1.4397)
(1.87899e-13 3.40553 -1.4397)
(0 3.30668 -1.42348)
(0 3.30668 -1.42348)
(0 3.20827 -1.40633)
(-1.88712e-13 3.20827 -1.40633)
(0 3.1102 -1.38818)
(0 3.1102 -1.38818)
(-1.32692e-14 3.01239 -1.36896)
(1.89509e-13 3.01239 -1.36896)
(4.7475e-14 2.91473 -1.34858)
(-3.798e-13 2.91473 -1.34858)
(0 2.81712 -1.32697)
(0 2.81712 -1.32697)
(-9.70629e-15 2.71945 -1.30401)
(0 2.71945 -1.30401)
(4.77607e-14 2.62159 -1.27962)
(-1.91043e-13 2.62159 -1.27962)
(-1.03143e-13 2.52342 -1.25367)
(1.91412e-13 2.52342 -1.25367)
(-1.26652e-14 2.42481 -1.22604)
(1.91776e-13 2.42481 -1.22604)
(4.27842e-14 2.3256 -1.19658)
(0 2.3256 -1.19658)
(-5.64906e-14 2.22563 -1.16516)
(0 2.22563 -1.16516)
(4.8206e-14 2.12475 -1.13159)
(-5.13471e-14 2.12475 -1.13159)
(-2.11668e-15 2.02277 -1.0957)
(-1.93158e-13 2.02277 -1.0957)
(4.83708e-14 1.91949 -1.05729)
(1.93483e-13 1.91949 -1.05729)
(0 1.81472 -1.01614)
(-2.90951e-13 1.81472 -1.01614)
(4.85265e-14 1.70823 -0.972017)
(-1.94106e-13 1.70823 -0.972017)
(9.54123e-14 1.59981 -0.924662)
(0 1.59981 -0.924662)
(4.59539e-14 1.48922 -0.873803)
(1.94687e-13 1.48922 -0.873803)
(0 1.37621 -0.819154)
(-3.8992e-13 1.37621 -0.819154)
(0 1.26056 -0.760411)
(-1.9522e-13 1.26056 -0.760411)
(4.88665e-14 1.14204 -0.697265)
(-1.95466e-13 1.14204 -0.697265)
(4.89243e-14 1.02043 -0.629403)
(1.10343e-13 1.02043 -0.629403)
(-3.48119e-14 0.895538 -0.556517)
(-3.08035e-13 0.895538 -0.556517)
(9.80551e-14 0.767227 -0.478317)
(-1.9611e-13 0.767227 -0.478317)
(0 0.635399 -0.394541)
(0 0.635399 -0.394541)
(-1.68014e-13 0.500024 -0.304965)
(1.96449e-13 0.500024 -0.304965)
(0 0.361148 -0.209417)
(-1.96586e-13 0.361148 -0.209417)
(-4.91752e-14 0.218896 -0.107781)
(1.20312e-13 0.218896 -0.107781)
(1.24187e-13 4.78427e-07 -1.77079e-07)
(1.97011e-13 4.78301e-07 -1.77032e-07)
(9.83954e-14 6.2973e-12 0)
(1.96791e-13 -7.05762e-08 2.61221e-08)
(-7.63891e-14 -0.218895 0.107781)
(3.93402e-13 -0.218895 0.107781)
(-4.91466e-14 -0.361147 0.209417)
(0 -0.361147 0.209417)
(0 -0.500024 0.304965)
(1.96449e-13 -0.500024 0.304965)
(0 -0.635398 0.39454)
(3.92579e-13 -0.635398 0.39454)
(-4.90276e-14 -0.767226 0.478317)
(-1.9611e-13 -0.767226 0.478317)
(8.379e-14 -0.895537 0.556517)
(0 -0.895537 0.556517)
(-4.89243e-14 -1.02043 0.629403)
(-1.95697e-13 -1.02043 0.629403)
(0 -1.14204 0.697265)
(0 -1.14204 0.697265)
(1.37375e-13 -1.26056 0.760411)
(-8.85704e-14 -1.26056 0.760411)
(0 -1.37621 0.819154)
(1.9496e-13 -1.37621 0.819154)
(0 -1.48922 0.873803)
(1.94687e-13 -1.48922 0.873803)
(0 -1.59981 0.924662)
(0 -1.59981 0.924662)
(-4.85265e-14 -1.70823 0.972017)
(-1.94106e-13 -1.70823 0.972017)
(-2.5163e-16 -1.81472 1.01614)
(0 -1.81472 1.01614)
(0 -1.91949 1.05729)
(0 -1.91949 1.05729)
(9.65789e-14 -2.02277 1.0957)
(9.23456e-14 -2.02277 1.0957)
(-4.8206e-14 -2.12475 1.13159)
(-1.92824e-13 -2.12475 1.13159)
(-9.62409e-14 -2.22563 1.16516)
(0 -2.22563 1.16516)
(-4.80331e-14 -2.3256 1.19658)
(1.92132e-13 -2.3256 1.19658)
(-9.58878e-14 -2.42481 1.22604)
(-1.91776e-13 -2.42481 1.22604)
(-1.03143e-13 -2.52342 1.25367)
(1.91412e-13 -2.52342 1.25367)
(-1.51843e-13 -2.62159 1.27962)
(1.91043e-13 -2.62159 1.27962)
(0 -2.71945 1.30402)
(1.33294e-13 -2.71945 1.30402)
(-4.75715e-14 -2.81712 1.32697)
(-1.90286e-13 -2.81712 1.32697)