/*--------------------------------*- C++ -*----------------------------------*\
| =========                 |                                                 |
| \\      /  F ield         | OpenFOAM: The Open Source CFD Toolbox           |
|  \\    /   O peration     | Version:  2106                                  |
|   \\  /    A nd           | Website:  www.openfoam.com                      |
|    \\/     M anipulation  |                                                 |
\*---------------------------------------------------------------------------*/
FoamFile
{
    version     2.0;
    format      ascii;
    arch        "LSB;label=32;scalar=64";
    class       volScalarField;
    location    "10010";
    object      p;
}
// * * * * * * * * * * * * * * * * * * * * * * * * * * * * * * * * * * * * * //

dimensions      [0 2 -2 0 0 0 0];

internalField   nonuniform List<scalar> 
2000
(
6.47879e-16
1.97021e-14
1.33513e-15
1.97018e-14
1.53627e-15
1.97018e-14
1.63221e-15
1.97019e-14
1.7495e-15
1.97022e-14
1.87908e-15
1.97026e-14
2.00599e-15
1.97031e-14
2.12932e-15
1.97037e-14
2.2502e-15
1.97044e-14
2.36886e-15
1.97053e-14
2.48528e-15
1.97063e-14
2.59966e-15
1.97074e-14
2.71199e-15
1.97086e-14
2.82246e-15
1.971e-14
2.93124e-15
1.97116e-14
3.03855e-15
1.97134e-14
3.1449e-15
1.97152e-14
3.25061e-15
1.97173e-14
3.35604e-15
1.97197e-14
3.46156e-15
1.97224e-14
3.56768e-15
1.97253e-14
3.67479e-15
1.97287e-14
3.78332e-15
1.97324e-14
3.89394e-15
1.97367e-14
4.00673e-15
1.97414e-14
4.12209e-15
1.97466e-14
4.24041e-15
1.97524e-14
4.36203e-15
1.9759e-14
4.48702e-15
1.97664e-14
4.61551e-15
1.97745e-14
4.74742e-15
1.97835e-14
4.88326e-15
1.97935e-14
5.02308e-15
1.98046e-14
5.16681e-15
1.98167e-14
5.31458e-15
1.98299e-14
5.46635e-15
1.98442e-14
5.62203e-15
1.98595e-14
5.78179e-15
1.98761e-14
5.9456e-15
1.98939e-14
6.11308e-15
1.99127e-14
6.28435e-15
1.99326e-14
6.45915e-15
1.99543e-14
6.6378e-15
1.99772e-14
6.82043e-15
2.0001e-14
7.00635e-15
2.00258e-14
7.19546e-15
2.00517e-14
7.38765e-15
2.00789e-14
7.58326e-15
2.01076e-14
7.78173e-15
2.01388e-14
7.98364e-15
2.01714e-14
8.18746e-15
2.02047e-14
8.39451e-15
2.02397e-14
8.6024e-15
2.02769e-14
8.81407e-15
2.03151e-14
9.02863e-15
2.03551e-14
9.24438e-15
2.03956e-14
9.46252e-15
2.04384e-14
9.68433e-15
2.04832e-14
9.90719e-15
2.05306e-14
1.01309e-14
2.05808e-14
1.03554e-14
2.06326e-14
1.05804e-14
2.06865e-14
1.08071e-14
2.07446e-14
1.1034e-14
2.0805e-14
1.12629e-14
2.08678e-14
1.14912e-14
2.09337e-14
1.17212e-14
2.09994e-14
1.19529e-14
2.10651e-14
1.21854e-14
2.1132e-14
1.24174e-14
2.12022e-14
1.26513e-14
2.12715e-14
1.28851e-14
2.13442e-14
1.31193e-14
2.14196e-14
1.33509e-14
2.14957e-14
1.35848e-14
2.15717e-14
1.38165e-14
2.16506e-14
1.40474e-14
2.17331e-14
1.4278e-14
2.18179e-14
1.45023e-14
2.19064e-14
1.47283e-14
2.19951e-14
1.49537e-14
2.20854e-14
1.51752e-14
2.21798e-14
1.53943e-14
2.2279e-14
1.56099e-14
2.23754e-14
1.58236e-14
2.24745e-14
1.60351e-14
2.25788e-14
1.62443e-14
2.26852e-14
1.64543e-14
2.27905e-14
1.66617e-14
2.28964e-14
1.6868e-14
2.30063e-14
1.70715e-14
2.3117e-14
1.72737e-14
2.3227e-14
1.7476e-14
2.33395e-14
1.76716e-14
2.34497e-14
1.78705e-14
2.35594e-14
1.80693e-14
2.3672e-14
1.8266e-14
2.3786e-14
1.84605e-14
2.39015e-14
1.86544e-14
2.40133e-14
1.88441e-14
2.41252e-14
1.90347e-14
2.42371e-14
1.92225e-14
2.43545e-14
1.94074e-14
2.44723e-14
1.95909e-14
2.45853e-14
1.97765e-14
2.46954e-14
1.99605e-14
2.48081e-14
2.01409e-14
2.49236e-14
2.03212e-14
2.50402e-14
2.04993e-14
2.51526e-14
2.06825e-14
2.52666e-14
2.0854e-14
2.53823e-14
2.1021e-14
2.55017e-14
2.11852e-14
2.5627e-14
2.13443e-14
2.57584e-14
2.15018e-14
2.5887e-14
2.16519e-14
2.6013e-14
2.18037e-14
2.61424e-14
2.1953e-14
2.62678e-14
2.20996e-14
2.6386e-14
2.2247e-14
2.6497e-14
2.2391e-14
2.66128e-14
2.25314e-14
2.67297e-14
2.26754e-14
2.68329e-14
2.28227e-14
2.69341e-14
2.29653e-14
2.70259e-14
2.30991e-14
2.7124e-14
2.32275e-14
2.72173e-14
2.33539e-14
2.73098e-14
2.34819e-14
2.73904e-14
2.36109e-14
2.74631e-14
2.37368e-14
2.75477e-14
2.3867e-14
2.76289e-14
2.39931e-14
2.76993e-14
2.41227e-14
2.77552e-14
2.42436e-14
2.7828e-14
2.43672e-14
2.78984e-14
2.44931e-14
2.79589e-14
2.46207e-14
2.80255e-14
2.47498e-14
2.80904e-14
2.4872e-14
2.815e-14
2.49947e-14
2.81967e-14
2.51098e-14
2.8262e-14
2.52206e-14
2.83462e-14
2.53383e-14
2.84182e-14
2.54624e-14
2.84783e-14
2.55766e-14
2.85504e-14
2.56962e-14
2.86269e-14
2.58166e-14
2.87002e-14
2.59451e-14
2.87707e-14
2.60655e-14
2.88464e-14
2.6177e-14
2.89197e-14
2.63026e-14
2.89831e-14
2.64182e-14
2.90447e-14
2.65704e-14
2.91047e-14
2.67037e-14
2.91787e-14
2.68256e-14
2.92589e-14
2.6959e-14
2.93456e-14
2.70955e-14
2.94313e-14
2.72345e-14
2.94925e-14
2.73677e-14
2.95605e-14
2.75027e-14
2.96431e-14
2.76545e-14
2.9717e-14
2.77992e-14
2.97896e-14
2.79366e-14
2.98689e-14
2.80741e-14
2.99548e-14
2.8219e-14
3.00161e-14
2.83633e-14
3.00757e-14
2.85225e-14
3.01486e-14
2.86811e-14
3.02338e-14
2.88313e-14
3.03154e-14
2.89731e-14
3.03852e-14
2.91221e-14
3.04581e-14
2.92551e-14
3.05256e-14
2.94107e-14
3.0618e-14
2.9558e-14
3.07115e-14
2.97203e-14
3.07824e-14
2.9852e-14
3.08449e-14
2.99919e-14
3.09133e-14
3.01326e-14
3.10017e-14
3.02971e-14
3.10863e-14
3.04635e-14
3.11804e-14
3.05871e-14
3.12216e-14
3.06992e-14
3.12832e-14
3.083e-14
3.13336e-14
3.09651e-14
3.13857e-14
3.11055e-14
3.14671e-14
3.12227e-14
3.15906e-14
3.13449e-14
3.16815e-14
3.14723e-14
3.17686e-14
3.15906e-14
3.18204e-14
3.17012e-14
3.18787e-14
3.18053e-14
3.19711e-14
3.19029e-14
3.20672e-14
3.20079e-14
3.2167e-14
3.21051e-14
3.22407e-14
3.22234e-14
3.23601e-14
3.23329e-14
3.25099e-14
3.2446e-14
3.26055e-14
3.2576e-14
3.27037e-14
3.27093e-14
3.27881e-14
3.28191e-14
3.28563e-14
3.29206e-14
3.29762e-14
3.30129e-14
3.30919e-14
3.31228e-14
3.32034e-14
3.31932e-14
3.33111e-14
3.33049e-14
3.34457e-14
3.33994e-14
3.35677e-14
3.35162e-14
3.36385e-14
3.36574e-14
3.37525e-14
3.37845e-14
3.38804e-14
3.38978e-14
3.39947e-14
3.39981e-14
3.41095e-14
3.40566e-14
3.42268e-14
3.41628e-14
3.43392e-14
3.42599e-14
3.43939e-14
3.43497e-14
3.44668e-14
3.4485e-14
3.46086e-14
3.45597e-14
3.47174e-14
3.4624e-14
3.47462e-14
3.46794e-14
3.47703e-14
3.48018e-14
3.48376e-14
3.47933e-14
3.48646e-14
3.48284e-14
3.48778e-14
3.4908e-14
3.49504e-14
3.49816e-14
3.50315e-14
3.5024e-14
3.50476e-14
3.50621e-14
3.50695e-14
3.50971e-14
3.51173e-14
3.51281e-14
3.51666e-14
3.51972e-14
3.51972e-14
3.52603e-14
3.52548e-14
3.53199e-14
3.53383e-14
3.5325e-14
3.54264e-14
3.53563e-14
3.54847e-14
3.54522e-14
3.55908e-14
3.54287e-14
3.57276e-14
3.54632e-14
3.57855e-14
3.55476e-14
3.58366e-14
3.55779e-14
3.58802e-14
3.56386e-14
3.59216e-14
3.57232e-14
3.5935e-14
3.58236e-14
3.59287e-14
3.59867e-14
3.59962e-14
3.60452e-14
3.60765e-14
3.61074e-14
3.6132e-14
3.61542e-14
3.6162e-14
3.61668e-14
3.62079e-14
3.62588e-14
3.6275e-14
3.63348e-14
3.62943e-14
3.63331e-14
3.63392e-14
1.85793e-14
2.0712e-14
1.85792e-14
2.07119e-14
1.85793e-14
2.0712e-14
1.85795e-14
2.0712e-14
1.85799e-14
2.07122e-14
1.85803e-14
2.07123e-14
1.85809e-14
2.07126e-14
1.85816e-14
2.07128e-14
1.85824e-14
2.07132e-14
1.85833e-14
2.07136e-14
1.85844e-14
2.0714e-14
1.85856e-14
2.07144e-14
1.85869e-14
2.07149e-14
1.85883e-14
2.07155e-14
1.859e-14
2.07161e-14
1.85919e-14
2.07167e-14
1.85939e-14
2.07173e-14
1.85961e-14
2.07179e-14
1.85985e-14
2.07188e-14
1.86011e-14
2.07197e-14
1.8604e-14
2.07205e-14
1.86072e-14
2.07216e-14
1.86107e-14
2.07228e-14
1.86145e-14
2.07241e-14
1.86186e-14
2.07256e-14
1.86231e-14
2.07274e-14
1.86279e-14
2.07295e-14
1.86331e-14
2.07316e-14
1.86387e-14
2.0734e-14
1.86447e-14
2.07367e-14
1.86512e-14
2.07397e-14
1.86582e-14
2.0743e-14
1.86658e-14
2.07466e-14
1.86738e-14
2.07505e-14
1.86824e-14
2.07544e-14
1.86917e-14
2.0759e-14
1.87018e-14
2.07638e-14
1.87124e-14
2.0769e-14
1.87236e-14
2.07747e-14
1.87358e-14
2.07801e-14
1.87489e-14
2.0786e-14
1.87631e-14
2.07924e-14
1.87779e-14
2.07986e-14
1.87932e-14
2.08056e-14
1.88097e-14
2.08131e-14
1.88272e-14
2.08211e-14
1.88464e-14
2.0829e-14
1.88666e-14
2.08368e-14
1.88874e-14
2.08461e-14
1.89091e-14
2.0857e-14
1.89319e-14
2.08665e-14
1.89555e-14
2.08762e-14
1.89801e-14
2.08869e-14
1.90055e-14
2.08976e-14
1.90317e-14
2.09092e-14
1.90584e-14
2.09227e-14
1.90867e-14
2.09365e-14
1.91156e-14
2.09518e-14
1.91458e-14
2.09678e-14
1.91771e-14
2.09841e-14
1.92102e-14
2.10005e-14
1.92433e-14
2.10201e-14
1.92777e-14
2.10399e-14
1.93157e-14
2.10605e-14
1.93556e-14
2.10808e-14
1.93975e-14
2.11012e-14
1.94393e-14
2.11237e-14
1.9483e-14
2.11459e-14
1.95287e-14
2.11655e-14
1.9577e-14
2.11867e-14
1.96253e-14
2.12121e-14
1.96749e-14
2.12391e-14
1.97265e-14
2.12649e-14
1.97787e-14
2.12908e-14
1.98343e-14
2.13177e-14
1.98905e-14
2.13439e-14
1.99495e-14
2.13762e-14
2.00083e-14
2.14123e-14
2.00706e-14
2.14434e-14
2.01343e-14
2.14746e-14
2.01993e-14
2.1512e-14
2.02663e-14
2.15525e-14
2.03339e-14
2.15917e-14
2.0402e-14
2.16278e-14
2.04737e-14
2.16648e-14
2.05483e-14
2.17073e-14
2.06243e-14
2.17554e-14
2.07015e-14
2.18011e-14
2.07752e-14
2.18493e-14
2.08501e-14
2.18998e-14
2.09329e-14
2.19527e-14
2.10153e-14
2.2008e-14
2.10973e-14
2.20673e-14
2.11839e-14
2.21273e-14
2.12717e-14
2.21862e-14
2.13609e-14
2.22509e-14
2.14495e-14
2.23178e-14
2.15411e-14
2.23818e-14
2.16322e-14
2.2448e-14
2.17245e-14
2.25111e-14
2.18197e-14
2.25762e-14
2.19162e-14
2.26523e-14
2.20157e-14
2.27303e-14
2.21181e-14
2.28033e-14
2.22164e-14
2.28817e-14
2.23176e-14
2.29674e-14
2.24218e-14
2.30512e-14
2.25272e-14
2.31351e-14
2.26319e-14
2.32243e-14
2.27396e-14
2.33206e-14
2.28595e-14
2.3413e-14
2.29695e-14
2.35069e-14
2.30843e-14
2.36005e-14
2.31928e-14
2.3699e-14
2.33043e-14
2.38026e-14
2.34207e-14
2.39074e-14
2.35345e-14
2.40152e-14
2.36494e-14
2.41184e-14
2.37692e-14
2.42207e-14
2.38902e-14
2.43219e-14
2.40124e-14
2.44333e-14
2.41282e-14
2.45549e-14
2.42528e-14
2.46714e-14
2.43787e-14
2.47827e-14
2.45058e-14
2.48963e-14
2.46342e-14
2.50122e-14
2.47717e-14
2.51342e-14
2.49107e-14
2.52661e-14
2.50512e-14
2.54001e-14
2.51817e-14
2.55284e-14
2.53177e-14
2.56472e-14
2.54516e-14
2.57836e-14
2.55834e-14
2.5922e-14
2.57092e-14
2.60586e-14
2.58368e-14
2.61896e-14
2.59703e-14
2.63189e-14
2.61136e-14
2.64466e-14
2.62511e-14
2.65766e-14
2.63792e-14
2.6705e-14
2.65096e-14
2.6824e-14
2.66385e-14
2.69453e-14
2.677e-14
2.70888e-14
2.69041e-14
2.72272e-14
2.70174e-14
2.73525e-14
2.71335e-14
2.74728e-14
2.72564e-14
2.75963e-14
2.73703e-14
2.77268e-14
2.74991e-14
2.78647e-14
2.76309e-14
2.80023e-14
2.77578e-14
2.8124e-14
2.7888e-14
2.82378e-14
2.80139e-14
2.83438e-14
2.81593e-14
2.84656e-14
2.82853e-14
2.86033e-14
2.84076e-14
2.87415e-14
2.85262e-14
2.8849e-14
2.86413e-14
2.89653e-14
2.87609e-14
2.91064e-14
2.88848e-14
2.92333e-14
2.90132e-14
2.93464e-14
2.91541e-14
2.94695e-14
2.92765e-14
2.96027e-14
2.94117e-14
2.96993e-14
2.9529e-14
2.97986e-14
2.96522e-14
2.99238e-14
2.97813e-14
3.00441e-14
2.99166e-14
3.0191e-14
3.00425e-14
3.03264e-14
3.01667e-14
3.04354e-14
3.02895e-14
3.05648e-14
3.0403e-14
3.06764e-14
3.05228e-14
3.07785e-14
3.06492e-14
3.08868e-14
3.07595e-14
3.10092e-14
3.08689e-14
3.11387e-14
3.1e-14
3.12455e-14
3.11148e-14
3.13452e-14
3.12215e-14
3.14459e-14
3.1343e-14
3.15633e-14
3.14642e-14
3.17132e-14
3.15768e-14
3.18744e-14
3.16947e-14
3.20034e-14
3.18177e-14
3.21022e-14
3.19618e-14
3.21865e-14
3.20835e-14
3.22711e-14
3.21691e-14
3.2386e-14
3.23223e-14
3.2503e-14
3.24253e-14
3.26217e-14
3.25226e-14
3.27287e-14
3.26139e-14
3.28254e-14
3.26991e-14
3.28839e-14
3.2779e-14
3.29634e-14
3.28683e-14
3.30351e-14
3.29678e-14
3.31282e-14
3.30779e-14
3.31993e-14
3.31717e-14
3.33061e-14
3.32777e-14
3.34062e-14
3.34111e-14
3.34993e-14
3.35165e-14
3.3599e-14
3.36233e-14
3.36917e-14
3.37322e-14
3.37779e-14
3.38022e-14
3.3858e-14
3.38614e-14
3.39891e-14
3.39629e-14
3.40628e-14
3.40518e-14
3.41065e-14
3.41597e-14
3.41735e-14
3.42337e-14
3.42326e-14
3.43169e-14
3.42823e-14
3.43697e-14
3.43758e-14
3.4457e-14
3.4488e-14
3.45084e-14
3.45796e-14
3.46017e-14
3.464e-14
3.46582e-14
3.46933e-14
3.47867e-14
3.4792e-14
3.48832e-14
3.48801e-14
3.49761e-14
3.49591e-14
3.50677e-14
3.50026e-14
3.51087e-14
3.50564e-14
3.51768e-14
3.50936e-14
3.53017e-14
3.51385e-14
3.53134e-14
3.52108e-14
3.53328e-14
3.52906e-14
3.53568e-14
3.53098e-14
3.5412e-14
3.53459e-14
3.54495e-14
3.53955e-14
3.54929e-14
3.54336e-14
3.55193e-14
3.54864e-14
3.55264e-14
3.55347e-14
3.56076e-14
3.55351e-14
3.56543e-14
3.5525e-14
3.56744e-14
3.55681e-14
3.57126e-14
3.56419e-14
3.57403e-14
3.57025e-14
3.58034e-14
3.57298e-14
3.5793e-14
3.57644e-14
3.58373e-14
3.58546e-14
3.58652e-14
3.59574e-14
3.58419e-14
3.5974e-14
3.58903e-14
3.60027e-14
3.60146e-14
3.60628e-14
3.60513e-14
3.60997e-14
3.6088e-14
3.6072e-14
3.61098e-14
3.61005e-14
3.61465e-14
3.616e-14
3.61911e-14
3.62093e-14
3.62409e-14
3.62272e-14
3.63258e-14
3.62933e-14
3.63506e-14
3.63399e-14
3.63463e-14
3.63483e-14
3.6343e-14
3.63645e-14
3.63283e-14
3.63823e-14
3.6426e-14
3.64331e-14
3.64732e-14
3.64811e-14
3.65127e-14
3.64842e-14
3.65517e-14
3.6521e-14
3.66423e-14
3.659e-14
3.6656e-14
3.66638e-14
3.66838e-14
3.66888e-14
3.66851e-14
3.67108e-14
3.66554e-14
3.67355e-14
3.66943e-14
3.67494e-14
3.66987e-14
3.67721e-14
3.67504e-14
3.68066e-14
3.67922e-14
3.68481e-14
3.67794e-14
3.68323e-14
3.67568e-14
3.68024e-14
3.67957e-14
3.67792e-14
3.68394e-14
3.67759e-14
3.68499e-14
3.67147e-14
3.68131e-14
3.67046e-14
3.67506e-14
3.6704e-14
3.67232e-14
3.6673e-14
3.66802e-14
3.66338e-14
3.66431e-14
3.66341e-14
3.6632e-14
3.66551e-14
3.66173e-14
3.66537e-14
3.65976e-14
3.66577e-14
3.65449e-14
3.66192e-14
3.65067e-14
3.65641e-14
3.65378e-14
3.65406e-14
3.65425e-14
3.65434e-14
3.65451e-14
3.65722e-14
3.65453e-14
3.65792e-14
3.64913e-14
3.65921e-14
3.64793e-14
3.65902e-14
3.65109e-14
3.65717e-14
3.65114e-14
3.65842e-14
3.64768e-14
3.65753e-14
3.6513e-14
3.65739e-14
3.65297e-14
3.65899e-14
3.65274e-14
3.65675e-14
3.65361e-14
3.65601e-14
3.65707e-14
3.65808e-14
3.6563e-14
3.66013e-14
3.65653e-14
3.6637e-14
3.65901e-14
3.66353e-14
3.6598e-14
3.6663e-14
3.65603e-14
3.6692e-14
3.65712e-14
3.66839e-14
3.65902e-14
3.67086e-14
3.65883e-14
3.67374e-14
3.65644e-14
3.67439e-14
3.65463e-14
3.67439e-14
3.65625e-14
3.67092e-14
3.65585e-14
3.66664e-14
3.65499e-14
3.6685e-14
3.65501e-14
3.67372e-14
3.65434e-14
3.67375e-14
3.65442e-14
3.67001e-14
3.65395e-14
3.66526e-14
3.65305e-14
3.66375e-14
3.65174e-14
3.66544e-14
3.64996e-14
3.666e-14
3.65064e-14
3.66398e-14
3.64939e-14
3.66077e-14
3.6478e-14
3.66077e-14
3.64733e-14
3.66103e-14
3.64799e-14
3.66004e-14
3.64837e-14
3.65775e-14
3.65006e-14
3.65407e-14
3.64714e-14
3.65186e-14
3.64561e-14
3.65116e-14
3.64699e-14
3.65354e-14
3.64669e-14
3.65291e-14
3.64627e-14
3.65077e-14
3.64652e-14
3.65012e-14
3.64592e-14
3.65174e-14
3.64599e-14
3.65106e-14
3.64674e-14
3.64729e-14
3.64592e-14
3.64887e-14
3.64505e-14
3.65118e-14
3.6464e-14
3.65272e-14
3.64688e-14
3.65197e-14
3.64651e-14
3.65045e-14
3.64844e-14
3.64897e-14
3.64803e-14
3.64902e-14
3.64841e-14
3.64985e-14
3.64801e-14
3.64989e-14
3.64604e-14
3.64993e-14
3.6456e-14
3.64999e-14
3.64435e-14
3.65085e-14
3.64226e-14
3.65333e-14
3.64084e-14
3.65435e-14
3.6393e-14
3.65234e-14
3.63762e-14
3.65202e-14
3.6366e-14
3.65183e-14
3.63464e-14
3.65098e-14
3.63332e-14
3.65105e-14
3.63184e-14
3.65206e-14
3.63097e-14
3.65086e-14
3.62914e-14
3.64982e-14
3.62792e-14
3.64971e-14
3.6273e-14
3.64977e-14
3.6265e-14
3.64999e-14
3.62592e-14
3.65076e-14
3.62594e-14
3.6513e-14
3.62617e-14
3.65002e-14
3.62505e-14
3.64968e-14
3.62456e-14
3.64947e-14
3.62429e-14
3.64938e-14
3.62466e-14
3.64943e-14
3.6241e-14
3.65039e-14
3.62379e-14
3.65107e-14
3.62372e-14
3.65109e-14
3.62351e-14
3.65123e-14
3.62317e-14
3.64993e-14
3.62388e-14
3.64872e-14
3.62447e-14
3.6484e-14
3.62496e-14
3.64854e-14
3.62456e-14
3.64955e-14
3.62445e-14
3.64907e-14
3.62464e-14
3.64907e-14
3.62434e-14
3.64875e-14
3.62512e-14
3.64927e-14
3.62542e-14
3.65063e-14
3.62564e-14
3.65013e-14
3.62502e-14
3.6493e-14
3.62509e-14
3.6493e-14
3.62508e-14
3.65013e-14
3.62425e-14
3.65062e-14
3.62372e-14
3.6504e-14
3.6235e-14
3.65024e-14
3.62359e-14
3.65051e-14
3.62361e-14
3.65008e-14
3.6232e-14
3.64932e-14
3.6231e-14
3.64898e-14
3.62275e-14
3.64925e-14
3.62217e-14
3.64993e-14
3.62246e-14
3.64935e-14
3.6225e-14
3.64826e-14
3.62269e-14
3.64722e-14
3.62246e-14
3.64713e-14
3.62274e-14
3.6467e-14
3.6228e-14
3.64612e-14
3.623e-14
3.64558e-14
3.62316e-14
3.64506e-14
3.62329e-14
3.64476e-14
3.62338e-14
3.64447e-14
3.62327e-14
3.64439e-14
3.6233e-14
3.64451e-14
3.62348e-14
3.64482e-14
3.62311e-14
3.64462e-14
3.62271e-14
3.64428e-14
3.62264e-14
3.64395e-14
3.62237e-14
3.64399e-14
3.62242e-14
3.64422e-14
3.62227e-14
3.64447e-14
3.62227e-14
3.64405e-14
3.62242e-14
3.64349e-14
3.62239e-14
3.64329e-14
3.62216e-14
3.64293e-14
3.62193e-14
3.64275e-14
3.62151e-14
3.64243e-14
3.6214e-14
3.64228e-14
3.62128e-14
3.64183e-14
3.62099e-14
3.64124e-14
3.62084e-14
3.6405e-14
3.62044e-14
3.64009e-14
3.62004e-14
3.64001e-14
3.61993e-14
3.63978e-14
3.61988e-14
3.63949e-14
3.61945e-14
3.63898e-14
3.61916e-14
3.63856e-14
3.61887e-14
3.63838e-14
3.61871e-14
3.63828e-14
3.61869e-14
3.63811e-14
3.6188e-14
3.63767e-14
3.61883e-14
3.63709e-14
3.61878e-14
3.63674e-14
3.61894e-14
3.63633e-14
3.61901e-14
3.63606e-14
3.61901e-14
3.63567e-14
3.619e-14
3.63509e-14
3.61899e-14
3.63484e-14
3.61891e-14
3.63474e-14
3.61895e-14
3.63444e-14
3.61892e-14
3.63409e-14
3.61889e-14
3.63399e-14
3.61885e-14
3.63403e-14
3.61887e-14
3.6337e-14
3.61888e-14
3.63338e-14
3.61883e-14
3.63324e-14
3.61895e-14
3.6331e-14
3.61907e-14
3.63292e-14
3.61918e-14
3.63271e-14
3.61917e-14
3.63256e-14
3.61917e-14
3.63244e-14
3.61926e-14
3.63232e-14
3.6193e-14
3.63213e-14
3.61938e-14
3.63202e-14
3.61946e-14
3.63192e-14
3.61954e-14
3.6316e-14
3.61952e-14
3.63145e-14
3.61954e-14
3.63149e-14
3.61961e-14
3.63151e-14
3.61961e-14
3.63144e-14
3.61962e-14
3.63139e-14
3.61964e-14
3.63135e-14
3.61965e-14
3.63135e-14
3.61968e-14
3.63132e-14
3.61969e-14
3.63125e-14
3.61971e-14
3.63121e-14
3.61977e-14
3.63123e-14
3.61984e-14
3.63121e-14
3.61986e-14
3.63119e-14
3.61988e-14
3.63121e-14
3.61989e-14
3.6312e-14
3.61993e-14
3.63119e-14
3.61996e-14
3.63118e-14
3.61997e-14
3.63118e-14
3.61999e-14
3.63119e-14
3.62e-14
3.63118e-14
3.62001e-14
3.63118e-14
3.62001e-14
3.6312e-14
3.62002e-14
3.63123e-14
3.62003e-14
3.63123e-14
3.62004e-14
3.63124e-14
3.62004e-14
3.63124e-14
3.62004e-14
3.63124e-14
3.62004e-14
3.63125e-14
3.62004e-14
3.63125e-14
3.62005e-14
3.63125e-14
3.62005e-14
3.63126e-14
3.62006e-14
3.63126e-14
3.62005e-14
3.63126e-14
3.62005e-14
3.63127e-14
3.62005e-14
3.63127e-14
3.62005e-14
3.63127e-14
3.62006e-14
3.63127e-14
3.62006e-14
3.63127e-14
3.62006e-14
3.63127e-14
3.62006e-14
3.63127e-14
3.62006e-14
3.63127e-14
3.62006e-14
3.63127e-14
3.62006e-14
3.63127e-14
3.62005e-14
3.63127e-14
3.62005e-14
3.63127e-14
3.62005e-14
3.63127e-14
3.62005e-14
3.63127e-14
3.62005e-14
3.63127e-14
3.6422e-14
3.64333e-14
3.64673e-14
3.64689e-14
3.65176e-14
3.65097e-14
3.65759e-14
3.65086e-14
3.65493e-14
3.65596e-14
3.66517e-14
3.66398e-14
3.67143e-14
3.67234e-14
3.67149e-14
3.67273e-14
3.67163e-14
3.67379e-14
3.67165e-14
3.67782e-14
3.67105e-14
3.67673e-14
3.67863e-14
3.67915e-14
3.67551e-14
3.68416e-14
3.67781e-14
3.6818e-14
3.67932e-14
3.68218e-14
3.67815e-14
3.68059e-14
3.67677e-14
3.67942e-14
3.67715e-14
3.67874e-14
3.6768e-14
3.6736e-14
3.66909e-14
3.67052e-14
3.66757e-14
3.67006e-14
3.66768e-14
3.66989e-14
3.66721e-14
3.67016e-14
3.66385e-14
3.66874e-14
3.66486e-14
3.66569e-14
3.66336e-14
3.66274e-14
3.66201e-14
3.66207e-14
3.66077e-14
3.65868e-14
3.65493e-14
3.65489e-14
3.65442e-14
3.65357e-14
3.65918e-14
3.65472e-14
3.6542e-14
3.65289e-14
3.6519e-14
3.65075e-14
3.65484e-14
3.65082e-14
3.65041e-14
3.65553e-14
3.65098e-14
3.65786e-14
3.65904e-14
3.65807e-14
3.65676e-14
3.65552e-14
3.65757e-14
3.6582e-14
3.65719e-14
3.66367e-14
3.65381e-14
3.6602e-14
3.65415e-14
3.65859e-14
3.65837e-14
3.66145e-14
3.66247e-14
3.66321e-14
3.66256e-14
3.66233e-14
3.66142e-14
3.66698e-14
3.66005e-14
3.67483e-14
3.66216e-14
3.67382e-14
3.66104e-14
3.67206e-14
3.66517e-14
3.67657e-14
3.66467e-14
3.67461e-14
3.66101e-14
3.67309e-14
3.65979e-14
3.6706e-14
3.6568e-14
3.66702e-14
3.6592e-14
3.66954e-14
3.65984e-14
3.67105e-14
3.65725e-14
3.67447e-14
3.65848e-14
3.67412e-14
3.65779e-14
3.67136e-14
3.6582e-14
3.66906e-14
3.65981e-14
3.66861e-14
3.65682e-14
3.6685e-14
3.65504e-14
3.66877e-14
3.65593e-14
3.66797e-14
3.65358e-14
3.66605e-14
3.65246e-14
3.666e-14
3.65106e-14
3.66636e-14
3.64933e-14
3.66564e-14
3.64724e-14
3.66536e-14
3.64776e-14
3.66556e-14
3.64939e-14
3.66171e-14
3.64928e-14
3.65973e-14
3.64899e-14
3.66109e-14
3.6485e-14
3.66352e-14
3.64774e-14
3.66403e-14
3.64747e-14
3.66265e-14
3.64772e-14
3.66163e-14
3.64775e-14
3.66014e-14
3.6476e-14
3.65815e-14
3.64807e-14
3.66027e-14
3.6476e-14
3.66189e-14
3.64695e-14
3.66145e-14
3.64688e-14
3.65817e-14
3.64743e-14
3.65428e-14
3.64557e-14
3.65285e-14
3.64438e-14
3.65309e-14
3.64541e-14
3.65345e-14
3.64476e-14
3.65315e-14
3.64401e-14
3.65452e-14
3.64313e-14
3.65446e-14
3.64291e-14
3.65453e-14
3.64257e-14
3.65396e-14
3.64212e-14
3.65349e-14
3.64237e-14
3.65233e-14
3.64175e-14
3.65048e-14
3.64107e-14
3.65026e-14
3.63955e-14
3.64933e-14
3.64112e-14
3.64846e-14
3.64031e-14
3.64843e-14
3.64025e-14
3.64687e-14
3.64097e-14
3.64534e-14
3.64012e-14
3.64461e-14
3.64007e-14
3.6439e-14
3.64004e-14
3.64398e-14
3.63963e-14
3.64485e-14
3.63923e-14
3.64653e-14
3.63962e-14
3.64626e-14
3.6404e-14
3.64681e-14
3.63843e-14
3.64777e-14
3.63763e-14
3.64681e-14
3.63721e-14
3.64707e-14
3.63678e-14
3.64776e-14
3.63593e-14
3.64849e-14
3.63545e-14
3.64927e-14
3.63494e-14
3.64893e-14
3.63517e-14
3.64903e-14
3.63499e-14
3.64997e-14
3.63516e-14
3.64979e-14
3.63491e-14
3.65045e-14
3.63539e-14
3.65077e-14
3.63585e-14
3.64998e-14
3.63511e-14
3.65079e-14
3.63512e-14
3.65204e-14
3.63471e-14
3.65296e-14
3.63425e-14
3.65316e-14
3.63415e-14
3.65264e-14
3.63439e-14
3.65295e-14
3.63459e-14
3.65407e-14
3.63438e-14
3.65525e-14
3.63488e-14
3.65534e-14
3.63498e-14
3.65434e-14
3.63466e-14
3.65452e-14
3.63469e-14
3.65551e-14
3.63393e-14
3.65541e-14
3.63352e-14
3.65499e-14
3.63271e-14
3.65424e-14
3.6328e-14
3.65428e-14
3.63305e-14
3.65399e-14
3.63216e-14
3.65337e-14
3.63124e-14
3.65372e-14
3.6314e-14
3.65374e-14
3.63154e-14
3.65288e-14
3.63165e-14
3.65206e-14
3.63119e-14
3.65164e-14
3.63162e-14
3.65071e-14
3.63238e-14
3.64981e-14
3.63259e-14
3.6493e-14
3.6326e-14
3.649e-14
3.63242e-14
3.64872e-14
3.63258e-14
3.64863e-14
3.63256e-14
3.64875e-14
3.63234e-14
3.64836e-14
3.63195e-14
3.64799e-14
3.63188e-14
3.64746e-14
3.63147e-14
3.64696e-14
3.63105e-14
3.64664e-14
3.63079e-14
3.64634e-14
3.63069e-14
3.64589e-14
3.63058e-14
3.64546e-14
3.62996e-14
3.64537e-14
3.62951e-14
3.64513e-14
3.62922e-14
3.64474e-14
3.62924e-14
3.64437e-14
3.62877e-14
3.64417e-14
3.6283e-14
3.64414e-14
3.62782e-14
3.64413e-14
3.62782e-14
3.64396e-14
3.62749e-14
3.64397e-14
3.62724e-14
3.64414e-14
3.62713e-14
3.64401e-14
3.62687e-14
3.6439e-14
3.62668e-14
3.64379e-14
3.62648e-14
3.64399e-14
3.62613e-14
3.64435e-14
3.62592e-14
3.6445e-14
3.62571e-14
3.64472e-14
3.6255e-14
3.64495e-14
3.62528e-14
3.64505e-14
3.62506e-14
3.64502e-14
3.6249e-14
3.6452e-14
3.62474e-14
3.64546e-14
3.62464e-14
3.64552e-14
3.62461e-14
3.64539e-14
3.62463e-14
3.64546e-14
3.62439e-14
3.64574e-14
3.62389e-14
3.64602e-14
3.62365e-14
3.64631e-14
3.62352e-14
3.64647e-14
3.62346e-14
3.64664e-14
3.62333e-14
3.6467e-14
3.62325e-14
3.64682e-14
3.62318e-14
3.64695e-14
3.62298e-14
3.64696e-14
3.62289e-14
3.64688e-14
3.62283e-14
3.64688e-14
3.62271e-14
3.64694e-14
3.62259e-14
3.64693e-14
3.62247e-14
3.64687e-14
3.6224e-14
3.64685e-14
3.62232e-14
3.6469e-14
3.62212e-14
3.64699e-14
3.62202e-14
3.64701e-14
3.62201e-14
3.64687e-14
3.62201e-14
3.64676e-14
3.62202e-14
3.64672e-14
3.62193e-14
3.64671e-14
3.62193e-14
3.64671e-14
3.6219e-14
3.64662e-14
3.62189e-14
3.64655e-14
3.62188e-14
3.64652e-14
3.62188e-14
3.64651e-14
3.62188e-14
3.64647e-14
3.62186e-14
3.64642e-14
3.62186e-14
3.64637e-14
3.62187e-14
3.64635e-14
3.62188e-14
3.64636e-14
3.62189e-14
3.64638e-14
3.62193e-14
3.64638e-14
3.62196e-14
3.64637e-14
3.62193e-14
3.64636e-14
3.62194e-14
3.64637e-14
3.62195e-14
3.64638e-14
3.62195e-14
3.64639e-14
3.62195e-14
3.6464e-14
3.62193e-14
3.64642e-14
3.62192e-14
3.64642e-14
3.62192e-14
3.64641e-14
3.62191e-14
3.6464e-14
3.6219e-14
3.64641e-14
3.6219e-14
3.64641e-14
3.62189e-14
3.6464e-14
3.62189e-14
3.6464e-14
3.62189e-14
3.64641e-14
3.62188e-14
3.6464e-14
3.62188e-14
3.6464e-14
3.62188e-14
3.6464e-14
3.62188e-14
3.6464e-14
3.62188e-14
3.6464e-14
3.62188e-14
3.6464e-14
3.62187e-14
3.64639e-14
3.62187e-14
3.64639e-14
3.62187e-14
3.64639e-14
3.62187e-14
3.64639e-14
3.62187e-14
3.64639e-14
3.62187e-14
3.64639e-14
3.62186e-14
3.64639e-14
3.62186e-14
3.64639e-14
3.62186e-14
3.64639e-14
3.62186e-14
3.64639e-14
3.62186e-14
3.64639e-14
)
;

boundaryField
{
    walls
    {
        type            zeroGradient;
    }
    inlet
    {
        type            cyclic;
    }
    outlet
    {
        type            cyclic;
    }
    sides
    {
        type            empty;
    }
}


// ************************************************************************* //
