/*--------------------------------*- C++ -*----------------------------------*\
| =========                 |                                                 |
| \\      /  F ield         | OpenFOAM: The Open Source CFD Toolbox           |
|  \\    /   O peration     | Version:  2106                                  |
|   \\  /    A nd           | Website:  www.openfoam.com                      |
|    \\/     M anipulation  |                                                 |
\*---------------------------------------------------------------------------*/
FoamFile
{
    version     2.0;
    format      ascii;
    arch        "LSB;label=32;scalar=64";
    class       volSymmTensorField;
    location    "10010";
    object      turbulenceProperties:R;
}
// * * * * * * * * * * * * * * * * * * * * * * * * * * * * * * * * * * * * * //

dimensions      [0 2 -2 0 0 0 0];

internalField   nonuniform List<symmTensor> 
2000
(
(7.04318e-07 -1.73818e-10 -3.21704e-13 7.04318e-07 1.7558e-24 7.04318e-07)
(7.04318e-07 -1.73818e-10 -3.21704e-13 7.04318e-07 3.21979e-25 7.04318e-07)
(1.47809e-07 -2.10132e-10 -1.17408e-12 1.47809e-07 2.84519e-25 1.47809e-07)
(1.47809e-07 -2.10132e-10 -1.17408e-12 1.47809e-07 3.0074e-25 1.47809e-07)
(3.54732e-07 -1.49311e-09 -1.15753e-11 3.54732e-07 1.30343e-24 3.54732e-07)
(3.54732e-07 -1.49311e-09 -1.15753e-11 3.54732e-07 2.02796e-25 3.54732e-07)
(1.21623e-06 -1.08989e-08 -8.60694e-11 1.21623e-06 7.81817e-24 1.21623e-06)
(1.21623e-06 -1.08989e-08 -8.60694e-11 1.21623e-06 1.50793e-24 1.21623e-06)
(3.18066e-06 -5.04802e-08 -4.06083e-10 3.18066e-06 3.57562e-23 3.18066e-06)
(3.18066e-06 -5.04802e-08 -4.06083e-10 3.18066e-06 7.11356e-24 3.18066e-06)
(6.84526e-06 -1.71656e-07 -1.40661e-09 6.84526e-06 1.21197e-22 6.84526e-06)
(6.84526e-06 -1.71656e-07 -1.40661e-09 6.84526e-06 2.46227e-23 6.84526e-06)
(1.29243e-05 -4.74183e-07 -3.95793e-09 1.29243e-05 3.41708e-22 1.29243e-05)
(1.29243e-05 -4.74183e-07 -3.95793e-09 1.29243e-05 6.91018e-23 1.29243e-05)
(2.22455e-05 -1.12994e-06 -9.6065e-09 2.22455e-05 8.29373e-22 2.22455e-05)
(2.22455e-05 -1.12994e-06 -9.6065e-09 2.22455e-05 1.66803e-22 2.22455e-05)
(3.57485e-05 -2.41084e-06 -2.08755e-08 3.57485e-05 1.79083e-21 3.57485e-05)
(3.57485e-05 -2.41084e-06 -2.08755e-08 3.57485e-05 3.59456e-22 3.57485e-05)
(5.44792e-05 -4.71897e-06 -4.16133e-08 5.44792e-05 3.52896e-21 5.44792e-05)
(5.44792e-05 -4.71897e-06 -4.16133e-08 5.44792e-05 7.06389e-22 5.44792e-05)
(7.95774e-05 -8.61495e-06 -7.73562e-08 7.95774e-05 6.4395e-21 7.95774e-05)
(7.95774e-05 -8.61495e-06 -7.73562e-08 7.95774e-05 1.2825e-21 7.95774e-05)
(0.000112251 -1.48381e-05 -1.35645e-07 0.000112251 1.09795e-20 0.000112251)
(0.000112251 -1.48381e-05 -1.35645e-07 0.000112251 2.17391e-21 0.000112251)
(0.000153739 -2.43096e-05 -2.26199e-07 0.000153739 1.75837e-20 0.000153739)
(0.000153739 -2.43096e-05 -2.26199e-07 0.000153739 3.45932e-21 0.000153739)
(0.000205248 -3.81079e-05 -3.60835e-07 0.000205248 2.65096e-20 0.000205248)
(0.000205248 -3.81079e-05 -3.60835e-07 0.000205248 5.1612e-21 0.000205248)
(0.000267881 -5.74078e-05 -5.53002e-07 0.000267881 3.76204e-20 0.000267881)
(0.000267881 -5.74078e-05 -5.53002e-07 0.000267881 7.21884e-21 0.000267881)
(0.000342539 -8.33791e-05 -8.16874e-07 0.000342539 5.01618e-20 0.000342539)
(0.000342539 -8.33791e-05 -8.16874e-07 0.000342539 9.457e-21 0.000342539)
(0.000429823 -0.000117052 -1.16602e-06 0.000429823 6.25837e-20 0.000429823)
(0.000429823 -0.000117052 -1.16602e-06 0.000429823 1.14837e-20 0.000429823)
(0.000529939 -0.00015917 -1.61185e-06 0.000529939 7.25641e-20 0.000529939)
(0.000529939 -0.00015917 -1.61185e-06 0.000529939 1.28118e-20 0.000529939)
(0.000642628 -0.000210052 -2.16205e-06 0.000642628 7.72141e-20 0.000642628)
(0.000642628 -0.000210052 -2.16205e-06 0.000642628 1.2838e-20 0.000642628)
(0.000767137 -0.000269515 -2.81948e-06 0.000767137 7.36017e-20 0.000767137)
(0.000767137 -0.000269515 -2.81948e-06 0.000767137 1.07252e-20 0.000767137)
(0.00090224 -0.000336859 -3.58173e-06 0.00090224 5.93475e-20 0.00090224)
(0.00090224 -0.000336859 -3.58173e-06 0.00090224 6.06371e-21 0.00090224)
(0.00104631 -0.000410932 -4.44143e-06 0.00104631 2.40618e-20 0.00104631)
(0.00104631 -0.000410932 -4.44143e-06 0.00104631 -1.20596e-21 0.00104631)
(0.00119744 -0.000490258 -5.38727e-06 0.00119744 3.14162e-21 0.00119744)
(0.00119744 -0.000490258 -5.38727e-06 0.00119744 -1.10618e-20 0.00119744)
(0.00135356 -0.0005732 -6.40535e-06 0.00135356 -5.27917e-20 0.00135356)
(0.00135356 -0.0005732 -6.40535e-06 0.00135356 -2.30328e-20 0.00135356)
(0.00151261 -0.000658112 -7.48075e-06 0.00151261 -1.08045e-19 0.00151261)
(0.00151261 -0.000658112 -7.48075e-06 0.00151261 -3.64256e-20 0.00151261)
(0.00167261 -0.000743469 -8.59875e-06 0.00167261 -1.67594e-19 0.00167261)
(0.00167261 -0.000743469 -8.59875e-06 0.00167261 -5.04883e-20 0.00167261)
(0.00183179 -0.000827953 -9.74588e-06 0.00183179 -2.27723e-19 0.00183179)
(0.00183179 -0.000827953 -9.74588e-06 0.00183179 -6.55086e-20 0.00183179)
(0.00198862 -0.000910496 -1.09105e-05 0.00198862 -2.85143e-19 0.00198862)
(0.00198862 -0.000910496 -1.09105e-05 0.00198862 -8.03836e-20 0.00198862)
(0.00214185 -0.000990287 -1.20829e-05 0.00214185 -3.37055e-19 0.00214185)
(0.00214185 -0.000990287 -1.20829e-05 0.00214185 -9.34759e-20 0.00214185)
(0.0022905 -0.00106675 -1.32556e-05 0.0022905 -3.81949e-19 0.0022905)
(0.0022905 -0.00106675 -1.32556e-05 0.0022905 -1.05475e-19 0.0022905)
(0.00243385 -0.00113953 -1.4423e-05 0.00243385 -4.18559e-19 0.00243385)
(0.00243385 -0.00113953 -1.4423e-05 0.00243385 -1.16294e-19 0.00243385)
(0.00257139 -0.00120841 -1.55812e-05 0.00257139 -4.45947e-19 0.00257139)
(0.00257139 -0.00120841 -1.55812e-05 0.00257139 -1.25537e-19 0.00257139)
(0.00270283 -0.00127335 -1.67274e-05 0.00270283 -4.63621e-19 0.00270283)
(0.00270283 -0.00127335 -1.67274e-05 0.00270283 -1.32712e-19 0.00270283)
(0.002828 -0.00133436 -1.78603e-05 0.002828 -4.71647e-19 0.002828)
(0.002828 -0.00133436 -1.78603e-05 0.002828 -1.39735e-19 0.002828)
(0.0029469 -0.00139156 -1.89792e-05 0.0029469 -4.69856e-19 0.0029469)
(0.0029469 -0.00139156 -1.89792e-05 0.0029469 -1.44747e-19 0.0029469)
(0.00305959 -0.00144509 -2.00842e-05 0.00305959 -4.58955e-19 0.00305959)
(0.00305959 -0.00144509 -2.00842e-05 0.00305959 -1.45718e-19 0.00305959)
(0.00316623 -0.00149514 -2.11757e-05 0.00316623 -4.40101e-19 0.00316623)
(0.00316623 -0.00149514 -2.11757e-05 0.00316623 -1.47159e-19 0.00316623)
(0.003267 -0.0015419 -2.22546e-05 0.003267 -4.14673e-19 0.003267)
(0.003267 -0.0015419 -2.22546e-05 0.003267 -1.46502e-19 0.003267)
(0.00336215 -0.00158558 -2.3322e-05 0.00336215 -3.80856e-19 0.00336215)
(0.00336215 -0.00158558 -2.3322e-05 0.00336215 -1.46998e-19 0.00336215)
(0.00345193 -0.00162638 -2.43791e-05 0.00345193 -3.39069e-19 0.00345193)
(0.00345193 -0.00162638 -2.43791e-05 0.00345193 -1.49601e-19 0.00345193)
(0.00353661 -0.00166449 -2.54271e-05 0.00353661 -2.93768e-19 0.00353661)
(0.00353661 -0.00166449 -2.54271e-05 0.00353661 -1.49579e-19 0.00353661)
(0.00361646 -0.00170011 -2.64675e-05 0.00361646 -2.42621e-19 0.00361646)
(0.00361646 -0.00170011 -2.64675e-05 0.00361646 -1.4912e-19 0.00361646)
(0.00369176 -0.00173342 -2.75015e-05 0.00369176 -1.84613e-19 0.00369176)
(0.00369176 -0.00173342 -2.75015e-05 0.00369176 -1.43277e-19 0.00369176)
(0.00376275 -0.00176459 -2.85306e-05 0.00376275 -1.23962e-19 0.00376275)
(0.00376275 -0.00176459 -2.85306e-05 0.00376275 -1.31543e-19 0.00376275)
(0.00382971 -0.00179377 -2.9556e-05 0.00382971 -5.7276e-20 0.00382971)
(0.00382971 -0.00179377 -2.9556e-05 0.00382971 -1.23919e-19 0.00382971)
(0.00389288 -0.00182111 -3.0579e-05 0.00389288 1.4894e-20 0.00389288)
(0.00389288 -0.00182111 -3.0579e-05 0.00389288 -1.22729e-19 0.00389288)
(0.00395248 -0.00184675 -3.16008e-05 0.00395248 8.55979e-20 0.00395248)
(0.00395248 -0.00184675 -3.16008e-05 0.00395248 -1.30882e-19 0.00395248)
(0.00400875 -0.00187081 -3.26226e-05 0.00400875 1.60691e-19 0.00400875)
(0.00400875 -0.00187081 -3.26226e-05 0.00400875 -1.31299e-19 0.00400875)
(0.00406188 -0.00189341 -3.36454e-05 0.00406188 2.43094e-19 0.00406188)
(0.00406188 -0.00189341 -3.36454e-05 0.00406188 -1.0746e-19 0.00406188)
(0.00411208 -0.00191465 -3.46704e-05 0.00411208 3.2789e-19 0.00411208)
(0.00411208 -0.00191465 -3.46704e-05 0.00411208 -1.02888e-19 0.00411208)
(0.00415952 -0.00193462 -3.56985e-05 0.00415952 4.1425e-19 0.00415952)
(0.00415952 -0.00193462 -3.56985e-05 0.00415952 -1.2021e-19 0.00415952)
(0.00420438 -0.00195343 -3.67308e-05 0.00420438 5.02921e-19 0.00420438)
(0.00420438 -0.00195343 -3.67308e-05 0.00420438 -1.19272e-19 0.00420438)
(0.00424681 -0.00197114 -3.7768e-05 0.00424681 5.92375e-19 0.00424681)
(0.00424681 -0.00197114 -3.7768e-05 0.00424681 -1.16553e-19 0.00424681)
(0.00428697 -0.00198784 -3.88112e-05 0.00428697 6.81561e-19 0.00428697)
(0.00428697 -0.00198784 -3.88112e-05 0.00428697 -1.12192e-19 0.00428697)
(0.00432499 -0.0020036 -3.98611e-05 0.00432499 7.82939e-19 0.00432499)
(0.00432499 -0.0020036 -3.98611e-05 0.00432499 -9.02134e-20 0.00432499)
(0.004361 -0.00201847 -4.09186e-05 0.004361 8.85492e-19 0.004361)
(0.004361 -0.00201847 -4.09186e-05 0.004361 -8.08617e-20 0.004361)
(0.00439512 -0.00203251 -4.19843e-05 0.00439512 9.83137e-19 0.00439512)
(0.00439512 -0.00203251 -4.19843e-05 0.00439512 -8.41694e-20 0.00439512)
(0.00442747 -0.00204579 -4.30591e-05 0.00442747 1.09842e-18 0.00442747)
(0.00442747 -0.00204579 -4.30591e-05 0.00442747 -8.12527e-20 0.00442747)
(0.00445814 -0.00205834 -4.41437e-05 0.00445814 1.22047e-18 0.00445814)
(0.00445814 -0.00205834 -4.41437e-05 0.00445814 -8.63523e-20 0.00445814)
(0.00448723 -0.00207021 -4.52386e-05 0.00448723 1.34448e-18 0.00448723)
(0.00448723 -0.00207021 -4.52386e-05 0.00448723 -1.01816e-19 0.00448723)
(0.00451483 -0.00208145 -4.63446e-05 0.00451483 1.45647e-18 0.00451483)
(0.00451483 -0.00208145 -4.63446e-05 0.00451483 -9.60975e-20 0.00451483)
(0.00454103 -0.00209209 -4.74624e-05 0.00454103 1.56102e-18 0.00454103)
(0.00454103 -0.00209209 -4.74624e-05 0.00454103 -1.10003e-19 0.00454103)
(0.00456589 -0.00210217 -4.85924e-05 0.00456589 1.68817e-18 0.00456589)
(0.00456589 -0.00210217 -4.85924e-05 0.00456589 -1.38123e-19 0.00456589)
(0.0045895 -0.00211172 -4.97353e-05 0.0045895 1.82197e-18 0.0045895)
(0.0045895 -0.00211172 -4.97353e-05 0.0045895 -1.68515e-19 0.0045895)
(0.00461192 -0.00212077 -5.08917e-05 0.00461192 1.95205e-18 0.00461192)
(0.00461192 -0.00212077 -5.08917e-05 0.00461192 -2.17376e-19 0.00461192)
(0.00463321 -0.00212935 -5.20621e-05 0.00463321 2.07172e-18 0.00463321)
(0.00463321 -0.00212935 -5.20621e-05 0.00463321 -1.93506e-19 0.00463321)
(0.00465343 -0.00213748 -5.32471e-05 0.00465343 2.19508e-18 0.00465343)
(0.00465343 -0.00213748 -5.32471e-05 0.00465343 -1.5989e-19 0.00465343)
(0.00467263 -0.00214519 -5.44472e-05 0.00467263 2.33685e-18 0.00467263)
(0.00467263 -0.00214519 -5.44472e-05 0.00467263 3.17149e-19 0.00467263)
(0.00469087 -0.0021525 -5.56629e-05 0.00469087 2.48258e-18 0.00469087)
(0.00469087 -0.0021525 -5.56629e-05 0.00469087 1.05862e-18 0.00469087)
(0.00470819 -0.00215943 -5.68948e-05 0.00470819 2.61446e-18 0.00470819)
(0.00470819 -0.00215943 -5.68948e-05 0.00470819 1.12449e-18 0.00470819)
(0.00472464 -0.002166 -5.81433e-05 0.00472464 2.74433e-18 0.00472464)
(0.00472464 -0.002166 -5.81433e-05 0.00472464 1.20263e-18 0.00472464)
(0.00474024 -0.00217222 -5.9409e-05 0.00474024 2.88162e-18 0.00474024)
(0.00474024 -0.00217222 -5.9409e-05 0.00474024 1.24883e-18 0.00474024)
(0.00475506 -0.00217812 -6.06923e-05 0.00475506 8.82622e-20 0.00475506)
(0.00475506 -0.00217812 -6.06923e-05 0.00475506 1.30448e-18 0.00475506)
(0.00476911 -0.00218371 -6.19937e-05 0.00476911 -2.1137e-18 0.00476911)
(0.00476911 -0.00218371 -6.19937e-05 0.00476911 1.37745e-18 0.00476911)
(0.00478244 -0.00218901 -6.33137e-05 0.00478244 -3.75467e-18 0.00478244)
(0.00478244 -0.00218901 -6.33137e-05 0.00478244 1.45782e-18 0.00478244)
(0.00479507 -0.00219402 -6.46528e-05 0.00479507 -3.66747e-18 0.00479507)
(0.00479507 -0.00219402 -6.46528e-05 0.00479507 1.51956e-18 0.00479507)
(0.00480703 -0.00219875 -6.60113e-05 0.00480703 -3.6067e-18 0.00480703)
(0.00480703 -0.00219875 -6.60113e-05 0.00480703 1.58672e-18 0.00480703)
(0.00481835 -0.00220323 -6.73899e-05 0.00481835 -3.43046e-18 0.00481835)
(0.00481835 -0.00220323 -6.73899e-05 0.00481835 1.66333e-18 0.00481835)
(0.00482906 -0.00220746 -6.87889e-05 0.00482906 -3.36836e-18 0.00482906)
(0.00482906 -0.00220746 -6.87889e-05 0.00482906 1.72472e-18 0.00482906)
(0.00483918 -0.00221145 -7.02087e-05 0.00483918 -3.46213e-18 0.00483918)
(0.00483918 -0.00221145 -7.02087e-05 0.00483918 1.80927e-18 0.00483918)
(0.00484873 -0.0022152 -7.165e-05 0.00484873 -3.34978e-18 0.00484873)
(0.00484873 -0.0022152 -7.165e-05 0.00484873 1.91069e-18 0.00484873)
(0.00485773 -0.00221874 -7.3113e-05 0.00485773 -3.1287e-18 0.00485773)
(0.00485773 -0.00221874 -7.3113e-05 0.00485773 1.94602e-18 0.00485773)
(0.00486621 -0.00222206 -7.45982e-05 0.00486621 -3.04073e-18 0.00486621)
(0.00486621 -0.00222206 -7.45982e-05 0.00486621 1.99816e-18 0.00486621)
(0.00487417 -0.00222518 -7.61061e-05 0.00487417 -3.01905e-18 0.00487417)
(0.00487417 -0.00222518 -7.61061e-05 0.00487417 2.1908e-18 0.00487417)
(0.00488165 -0.0022281 -7.76372e-05 0.00488165 -2.9085e-18 0.00488165)
(0.00488165 -0.0022281 -7.76372e-05 0.00488165 2.27789e-18 0.00488165)
(0.00488864 -0.00223082 -7.91918e-05 0.00488864 -2.78698e-18 0.00488864)
(0.00488864 -0.00223082 -7.91918e-05 0.00488864 2.31377e-18 0.00488864)
(0.00489518 -0.00223336 -8.07704e-05 0.00489518 -2.86449e-18 0.00489518)
(0.00489518 -0.00223336 -8.07704e-05 0.00489518 2.39909e-18 0.00489518)
(0.00490127 -0.00223571 -8.23734e-05 0.00490127 -2.95891e-18 0.00490127)
(0.00490127 -0.00223571 -8.23734e-05 0.00490127 2.53124e-18 0.00490127)
(0.00490693 -0.00223789 -8.40013e-05 0.00490693 -2.83006e-18 0.00490693)
(0.00490693 -0.00223789 -8.40013e-05 0.00490693 2.59232e-18 0.00490693)
(0.00491217 -0.0022399 -8.56546e-05 0.00491217 -2.70645e-18 0.00491217)
(0.00491217 -0.0022399 -8.56546e-05 0.00491217 2.6394e-18 0.00491217)
(0.004917 -0.00224175 -8.73335e-05 0.004917 -2.73125e-18 0.004917)
(0.004917 -0.00224175 -8.73335e-05 0.004917 2.74827e-18 0.004917)
(0.00492143 -0.00224343 -8.90387e-05 0.00492143 -2.78445e-18 0.00492143)
(0.00492143 -0.00224343 -8.90387e-05 0.00492143 2.80825e-18 0.00492143)
(0.00492547 -0.00224495 -9.07705e-05 0.00492547 -2.64969e-18 0.00492547)
(0.00492547 -0.00224495 -9.07705e-05 0.00492547 2.8531e-18 0.00492547)
(0.00492914 -0.00224632 -9.25293e-05 0.00492914 -2.76538e-18 0.00492914)
(0.00492914 -0.00224632 -9.25293e-05 0.00492914 2.98291e-18 0.00492914)
(0.00493243 -0.00224753 -9.43156e-05 0.00493243 -2.92533e-18 0.00493243)
(0.00493243 -0.00224753 -9.43156e-05 0.00493243 3.09103e-18 0.00493243)
(0.00493536 -0.0022486 -9.61298e-05 0.00493536 -2.83409e-18 0.00493536)
(0.00493536 -0.0022486 -9.61298e-05 0.00493536 3.1537e-18 0.00493536)
(0.00493794 -0.00224953 -9.79723e-05 0.00493794 -2.72847e-18 0.00493794)
(0.00493794 -0.00224953 -9.79723e-05 0.00493794 3.18218e-18 0.00493794)
(0.00494018 -0.00225031 -9.98436e-05 0.00494018 -2.81567e-18 0.00494018)
(0.00494018 -0.00225031 -9.98436e-05 0.00494018 3.22134e-18 0.00494018)
(0.00494207 -0.00225095 -0.000101744 0.00494207 -2.85417e-18 0.00494207)
(0.00494207 -0.00225095 -0.000101744 0.00494207 3.402e-18 0.00494207)
(0.00494363 -0.00225145 -0.000103674 0.00494363 -2.87099e-18 0.00494363)
(0.00494363 -0.00225145 -0.000103674 0.00494363 3.54936e-18 0.00494363)
(0.00494487 -0.00225182 -0.000105634 0.00494487 -2.82094e-18 0.00494487)
(0.00494487 -0.00225182 -0.000105634 0.00494487 3.68038e-18 0.00494487)
(0.00494578 -0.00225206 -0.000107625 0.00494578 -2.54535e-18 0.00494578)
(0.00494578 -0.00225206 -0.000107625 0.00494578 3.7006e-18 0.00494578)
(0.00494638 -0.00225216 -0.000109647 0.00494638 -2.69987e-18 0.00494638)
(0.00494638 -0.00225216 -0.000109647 0.00494638 3.7854e-18 0.00494638)
(0.00494666 -0.00225213 -0.000111699 0.00494666 -3.08179e-18 0.00494666)
(0.00494666 -0.00225213 -0.000111699 0.00494666 3.9597e-18 0.00494666)
(0.00494664 -0.00225198 -0.000113784 0.00494664 -3.22319e-18 0.00494664)
(0.00494664 -0.00225198 -0.000113784 0.00494664 4.12521e-18 0.00494664)
(0.00494632 -0.00225169 -0.000115901 0.00494632 -2.9904e-18 0.00494632)
(0.00494632 -0.00225169 -0.000115901 0.00494632 4.23492e-18 0.00494632)
(0.00494569 -0.00225128 -0.00011805 0.00494569 -2.85032e-18 0.00494569)
(0.00494569 -0.00225128 -0.00011805 0.00494569 4.32852e-18 0.00494569)
(0.00494477 -0.00225075 -0.000120232 0.00494477 -2.96905e-18 0.00494477)
(0.00494477 -0.00225075 -0.000120232 0.00494477 4.49448e-18 0.00494477)
(0.00494356 -0.00225009 -0.000122448 0.00494356 -3.25268e-18 0.00494356)
(0.00494356 -0.00225009 -0.000122448 0.00494356 4.67211e-18 0.00494356)
(0.00494206 -0.00224931 -0.000124697 0.00494206 -3.01653e-18 0.00494206)
(0.00494206 -0.00224931 -0.000124697 0.00494206 4.99606e-18 0.00494206)
(0.00494026 -0.0022484 -0.00012698 0.00494026 -2.31631e-18 0.00494026)
(0.00494026 -0.0022484 -0.00012698 0.00494026 5.25011e-18 0.00494026)
(0.00493819 -0.00224737 -0.000129298 0.00493819 -2.012e-18 0.00493819)
(0.00493819 -0.00224737 -0.000129298 0.00493819 5.4381e-18 0.00493819)
(0.00493583 -0.00224622 -0.000131651 0.00493583 -1.46194e-18 0.00493583)
(0.00493583 -0.00224622 -0.000131651 0.00493583 5.51677e-18 0.00493583)
(0.00493319 -0.00224495 -0.00013404 0.00493319 -1.16344e-18 0.00493319)
(0.00493319 -0.00224495 -0.00013404 0.00493319 5.67695e-18 0.00493319)
(0.00493027 -0.00224355 -0.000136464 0.00493027 -1.18931e-18 0.00493027)
(0.00493027 -0.00224355 -0.000136464 0.00493027 5.79411e-18 0.00493027)
(0.00492707 -0.00224204 -0.000138924 0.00492707 -1.18638e-18 0.00492707)
(0.00492707 -0.00224204 -0.000138924 0.00492707 5.84093e-18 0.00492707)
(0.00492359 -0.0022404 -0.000141421 0.00492359 -1.37567e-18 0.00492359)
(0.00492359 -0.0022404 -0.000141421 0.00492359 5.73275e-18 0.00492359)
(0.00491984 -0.00223864 -0.000143954 0.00491984 -1.58011e-18 0.00491984)
(0.00491984 -0.00223864 -0.000143954 0.00491984 5.66265e-18 0.00491984)
(0.00491582 -0.00223676 -0.000146525 0.00491582 -1.95067e-18 0.00491582)
(0.00491582 -0.00223676 -0.000146525 0.00491582 6.06282e-18 0.00491582)
(0.00491152 -0.00223476 -0.000149133 0.00491152 -1.98258e-18 0.00491152)
(0.00491152 -0.00223476 -0.000149133 0.00491152 6.28687e-18 0.00491152)
(0.00490694 -0.00223263 -0.000151778 0.00490694 -1.67964e-18 0.00490694)
(0.00490694 -0.00223263 -0.000151778 0.00490694 6.10082e-18 0.00490694)
(0.00490209 -0.00223039 -0.000154462 0.00490209 -2.28904e-18 0.00490209)
(0.00490209 -0.00223039 -0.000154462 0.00490209 6.25047e-18 0.00490209)
(0.00489697 -0.00222802 -0.000157185 0.00489697 -3.32228e-18 0.00489697)
(0.00489697 -0.00222802 -0.000157185 0.00489697 6.43507e-18 0.00489697)
(0.00489157 -0.00222553 -0.000159946 0.00489157 -3.93915e-18 0.00489157)
(0.00489157 -0.00222553 -0.000159946 0.00489157 6.74617e-18 0.00489157)
(0.0048859 -0.00222291 -0.000162746 0.0048859 -2.99843e-18 0.0048859)
(0.0048859 -0.00222291 -0.000162746 0.0048859 7.08583e-18 0.0048859)
(0.00487996 -0.00222017 -0.000165586 0.00487996 -8.11427e-20 0.00487996)
(0.00487996 -0.00222017 -0.000165586 0.00487996 7.15498e-18 0.00487996)
(0.00487374 -0.0022173 -0.000168465 0.00487374 1.36021e-18 0.00487374)
(0.00487374 -0.0022173 -0.000168465 0.00487374 7.31833e-18 0.00487374)
(0.00486724 -0.00221431 -0.000171384 0.00486724 1.36795e-18 0.00486724)
(0.00486724 -0.00221431 -0.000171384 0.00486724 7.35129e-18 0.00486724)
(0.00486047 -0.00221119 -0.000174344 0.00486047 1.14395e-18 0.00486047)
(0.00486047 -0.00221119 -0.000174344 0.00486047 7.82096e-18 0.00486047)
(0.00485343 -0.00220795 -0.000177343 0.00485343 1.24989e-18 0.00485343)
(0.00485343 -0.00220795 -0.000177343 0.00485343 8.13433e-18 0.00485343)
(0.0048461 -0.00220457 -0.000180383 0.0048461 1.27772e-18 0.0048461)
(0.0048461 -0.00220457 -0.000180383 0.0048461 8.22981e-18 0.0048461)
(0.0048385 -0.00220107 -0.000183464 0.0048385 1.3518e-18 0.0048385)
(0.0048385 -0.00220107 -0.000183464 0.0048385 8.23177e-18 0.0048385)
(0.00483061 -0.00219743 -0.000186585 0.00483061 7.77386e-19 0.00483061)
(0.00483061 -0.00219743 -0.000186585 0.00483061 8.56071e-18 0.00483061)
(0.00482245 -0.00219366 -0.000189747 0.00482245 2.15055e-19 0.00482245)
(0.00482245 -0.00219366 -0.000189747 0.00482245 9.04052e-18 0.00482245)
(0.004814 -0.00218976 -0.000192951 0.004814 3.10541e-19 0.004814)
(0.004814 -0.00218976 -0.000192951 0.004814 9.00436e-18 0.004814)
(0.00480526 -0.00218572 -0.000196196 0.00480526 -2.36285e-19 0.00480526)
(0.00480526 -0.00218572 -0.000196196 0.00480526 9.28412e-18 0.00480526)
(0.00479624 -0.00218155 -0.000199482 0.00479624 -1.42149e-18 0.00479624)
(0.00479624 -0.00218155 -0.000199482 0.00479624 9.72768e-18 0.00479624)
(0.00478693 -0.00217724 -0.000202809 0.00478693 -2.00342e-18 0.00478693)
(0.00478693 -0.00217724 -0.000202809 0.00478693 9.9898e-18 0.00478693)
(0.00477734 -0.00217279 -0.000206178 0.00477734 -2.20584e-18 0.00477734)
(0.00477734 -0.00217279 -0.000206178 0.00477734 1.03314e-17 0.00477734)
(0.00476744 -0.0021682 -0.000209588 0.00476744 -2.49213e-18 0.00476744)
(0.00476744 -0.0021682 -0.000209588 0.00476744 1.14314e-17 0.00476744)
(0.00475726 -0.00216347 -0.000213039 0.00475726 -1.70795e-18 0.00475726)
(0.00475726 -0.00216347 -0.000213039 0.00475726 1.24613e-17 0.00475726)
(0.00474678 -0.00215859 -0.000216531 0.00474678 -3.35503e-19 0.00474678)
(0.00474678 -0.00215859 -0.000216531 0.00474678 1.2179e-17 0.00474678)
(0.004736 -0.00215357 -0.000220065 0.004736 -5.84584e-19 0.004736)
(0.004736 -0.00215357 -0.000220065 0.004736 1.20893e-17 0.004736)
(0.00472491 -0.00214841 -0.000223639 0.00472491 -1.54219e-18 0.00472491)
(0.00472491 -0.00214841 -0.000223639 0.00472491 1.28211e-17 0.00472491)
(0.00471353 -0.00214309 -0.000227255 0.00471353 -1.1844e-18 0.00471353)
(0.00471353 -0.00214309 -0.000227255 0.00471353 1.32532e-17 0.00471353)
(0.00470183 -0.00213763 -0.00023091 0.00470183 -6.97285e-19 0.00470183)
(0.00470183 -0.00213763 -0.00023091 0.00470183 1.34186e-17 0.00470183)
(0.00468983 -0.00213201 -0.000234607 0.00468983 -9.16867e-19 0.00468983)
(0.00468983 -0.00213201 -0.000234607 0.00468983 1.38134e-17 0.00468983)
(0.00467751 -0.00212623 -0.000238343 0.00467751 -1.04452e-18 0.00467751)
(0.00467751 -0.00212623 -0.000238343 0.00467751 1.44461e-17 0.00467751)
(0.00466488 -0.0021203 -0.000242118 0.00466488 -1.04081e-18 0.00466488)
(0.00466488 -0.0021203 -0.000242118 0.00466488 1.50559e-17 0.00466488)
(0.00465193 -0.00211421 -0.000245933 0.00465193 1.20228e-19 0.00465193)
(0.00465193 -0.00211421 -0.000245933 0.00465193 1.57866e-17 0.00465193)
(0.00463866 -0.00210797 -0.000249787 0.00463866 5.41295e-19 0.00463866)
(0.00463866 -0.00210797 -0.000249787 0.00463866 1.64425e-17 0.00463866)
(0.00462507 -0.00210155 -0.000253679 0.00462507 1.00898e-18 0.00462507)
(0.00462507 -0.00210155 -0.000253679 0.00462507 1.64e-17 0.00462507)
(0.00461114 -0.00209498 -0.000257609 0.00461114 8.34023e-19 0.00461114)
(0.00461114 -0.00209498 -0.000257609 0.00461114 1.6957e-17 0.00461114)
(0.00459689 -0.00208823 -0.000261576 0.00459689 1.34726e-18 0.00459689)
(0.00459689 -0.00208823 -0.000261576 0.00459689 1.81372e-17 0.00459689)
(0.0045823 -0.00208132 -0.000265579 0.0045823 3.27276e-18 0.0045823)
(0.0045823 -0.00208132 -0.000265579 0.0045823 1.84283e-17 0.0045823)
(0.00456737 -0.00207423 -0.000269618 0.00456737 3.89743e-18 0.00456737)
(0.00456737 -0.00207423 -0.000269618 0.00456737 1.87412e-17 0.00456737)
(0.00455209 -0.00206697 -0.000273692 0.00455209 3.85229e-18 0.00455209)
(0.00455209 -0.00206697 -0.000273692 0.00455209 1.88616e-17 0.00455209)
(0.00453647 -0.00205953 -0.000277799 0.00453647 3.42538e-18 0.00453647)
(0.00453647 -0.00205953 -0.000277799 0.00453647 1.91393e-17 0.00453647)
(0.0045205 -0.00205191 -0.00028194 0.0045205 3.13319e-18 0.0045205)
(0.0045205 -0.00205191 -0.00028194 0.0045205 1.95828e-17 0.0045205)
(0.00450418 -0.00204411 -0.000286113 0.00450418 3.03082e-18 0.00450418)
(0.00450418 -0.00204411 -0.000286113 0.00450418 1.92336e-17 0.00450418)
(0.0044875 -0.00203613 -0.000290316 0.0044875 1.95421e-18 0.0044875)
(0.0044875 -0.00203613 -0.000290316 0.0044875 1.65573e-17 0.0044875)
(0.00447045 -0.00202795 -0.000294549 0.00447045 8.60479e-19 0.00447045)
(0.00447045 -0.00202795 -0.000294549 0.00447045 1.77678e-17 0.00447045)
(0.00445304 -0.00201959 -0.000298811 0.00445304 -4.89902e-19 0.00445304)
(0.00445304 -0.00201959 -0.000298811 0.00445304 2.21927e-17 0.00445304)
(0.00443525 -0.00201103 -0.000303099 0.00443525 5.03762e-19 0.00443525)
(0.00443525 -0.00201103 -0.000303099 0.00443525 1.97042e-17 0.00443525)
(0.00441709 -0.00200228 -0.000307413 0.00441709 2.28623e-19 0.00441709)
(0.00441709 -0.00200228 -0.000307413 0.00441709 1.7066e-17 0.00441709)
(0.00439854 -0.00199332 -0.000311751 0.00439854 -2.38404e-18 0.00439854)
(0.00439854 -0.00199332 -0.000311751 0.00439854 2.4417e-17 0.00439854)
(0.00437962 -0.00198417 -0.000316111 0.00437962 -4.02298e-18 0.00437962)
(0.00437962 -0.00198417 -0.000316111 0.00437962 2.78062e-17 0.00437962)
(0.0043603 -0.0019748 -0.000320491 0.0043603 -6.43334e-18 0.0043603)
(0.0043603 -0.0019748 -0.000320491 0.0043603 3.0107e-17 0.0043603)
(0.00434058 -0.00196523 -0.00032489 0.00434058 -5.66386e-18 0.00434058)
(0.00434058 -0.00196523 -0.00032489 0.00434058 3.02827e-17 0.00434058)
(0.00432046 -0.00195545 -0.000329305 0.00432046 -3.47641e-18 0.00432046)
(0.00432046 -0.00195545 -0.000329305 0.00432046 3.17684e-17 0.00432046)
(0.00429994 -0.00194545 -0.000333735 0.00429994 3.35216e-19 0.00429994)
(0.00429994 -0.00194545 -0.000333735 0.00429994 3.24852e-17 0.00429994)
(0.00427901 -0.00193523 -0.000338176 0.00427901 4.37778e-18 0.00427901)
(0.00427901 -0.00193523 -0.000338176 0.00427901 3.22644e-17 0.00427901)
(0.00425766 -0.00192478 -0.000342626 0.00425766 3.39388e-18 0.00425766)
(0.00425766 -0.00192478 -0.000342626 0.00425766 3.11269e-17 0.00425766)
(0.00423589 -0.00191411 -0.000347084 0.00423589 5.0133e-19 0.00423589)
(0.00423589 -0.00191411 -0.000347084 0.00423589 3.12881e-17 0.00423589)
(0.00421369 -0.00190321 -0.000351546 0.00421369 1.41796e-18 0.00421369)
(0.00421369 -0.00190321 -0.000351546 0.00421369 3.15881e-17 0.00421369)
(0.00419105 -0.00189208 -0.000356008 0.00419105 2.30794e-18 0.00419105)
(0.00419105 -0.00189208 -0.000356008 0.00419105 3.20462e-17 0.00419105)
(0.00416798 -0.00188071 -0.000360469 0.00416798 3.18122e-18 0.00416798)
(0.00416798 -0.00188071 -0.000360469 0.00416798 3.28733e-17 0.00416798)
(0.00414446 -0.0018691 -0.000364925 0.00414446 2.5527e-18 0.00414446)
(0.00414446 -0.0018691 -0.000364925 0.00414446 3.35722e-17 0.00414446)
(0.00412049 -0.00185724 -0.000369372 0.00412049 4.06378e-19 0.00412049)
(0.00412049 -0.00185724 -0.000369372 0.00412049 3.61229e-17 0.00412049)
(0.00409607 -0.00184514 -0.000373807 0.00409607 -4.1256e-19 0.00409607)
(0.00409607 -0.00184514 -0.000373807 0.00409607 3.9696e-17 0.00409607)
(0.00407118 -0.00183278 -0.000378226 0.00407118 5.82048e-18 0.00407118)
(0.00407118 -0.00183278 -0.000378226 0.00407118 4.47088e-17 0.00407118)
(0.00404582 -0.00182016 -0.000382624 0.00404582 9.14708e-18 0.00404582)
(0.00404582 -0.00182016 -0.000382624 0.00404582 4.53665e-17 0.00404582)
(0.00401998 -0.00180728 -0.000386999 0.00401998 8.94563e-18 0.00401998)
(0.00401998 -0.00180728 -0.000386999 0.00401998 4.22098e-17 0.00401998)
(0.00399367 -0.00179413 -0.000391344 0.00399367 8.8956e-18 0.00399367)
(0.00399367 -0.00179413 -0.000391344 0.00399367 3.89103e-17 0.00399367)
(0.00396686 -0.00178071 -0.000395656 0.00396686 1.5699e-18 0.00396686)
(0.00396686 -0.00178071 -0.000395656 0.00396686 3.69618e-17 0.00396686)
(0.00393956 -0.00176702 -0.00039993 0.00393956 3.38925e-18 0.00393956)
(0.00393956 -0.00176702 -0.00039993 0.00393956 3.41452e-17 0.00393956)
(0.00391176 -0.00175305 -0.00040416 0.00391176 2.46259e-18 0.00391176)
(0.00391176 -0.00175305 -0.00040416 0.00391176 2.86801e-17 0.00391176)
(0.00388345 -0.00173879 -0.000408341 0.00388345 -1.25261e-18 0.00388345)
(0.00388345 -0.00173879 -0.000408341 0.00388345 2.25974e-17 0.00388345)
(0.00385462 -0.00172424 -0.000412467 0.00385462 -1.49167e-18 0.00385462)
(0.00385462 -0.00172424 -0.000412467 0.00385462 2.09765e-17 0.00385462)
(0.00382528 -0.0017094 -0.000416532 0.00382528 -6.21171e-19 0.00382528)
(0.00382528 -0.0017094 -0.000416532 0.00382528 1.71067e-17 0.00382528)
(0.0037954 -0.00169426 -0.00042053 0.0037954 -1.29488e-18 0.0037954)
(0.0037954 -0.00169426 -0.00042053 0.0037954 1.15723e-17 0.0037954)
(0.00376499 -0.00167881 -0.000424454 0.00376499 8.57766e-19 0.00376499)
(0.00376499 -0.00167881 -0.000424454 0.00376499 8.97583e-18 0.00376499)
(0.00373404 -0.00166305 -0.000428298 0.00373404 4.92999e-18 0.00373404)
(0.00373404 -0.00166305 -0.000428298 0.00373404 4.93776e-18 0.00373404)
(0.00370254 -0.00164698 -0.000432053 0.00370254 7.407e-18 0.00370254)
(0.00370254 -0.00164698 -0.000432053 0.00370254 3.25497e-18 0.00370254)
(0.00367048 -0.00163059 -0.000435712 0.00367048 2.32618e-18 0.00367048)
(0.00367048 -0.00163059 -0.000435712 0.00367048 3.39112e-18 0.00367048)
(0.00363787 -0.00161387 -0.000439268 0.00363787 1.31149e-18 0.00363787)
(0.00363787 -0.00161387 -0.000439268 0.00363787 6.88329e-18 0.00363787)
(0.00360468 -0.00159682 -0.000442711 0.00360468 2.56832e-18 0.00360468)
(0.00360468 -0.00159682 -0.000442711 0.00360468 9.08358e-18 0.00360468)
(0.00357092 -0.00157944 -0.000446033 0.00357092 7.5523e-33 0.00357092)
(0.00357092 -0.00157944 -0.000446033 0.00357092 1.5141e-17 0.00357092)
(0.00353658 -0.00156171 -0.000449225 0.00353658 2.94755e-19 0.00353658)
(0.00353658 -0.00156171 -0.000449225 0.00353658 1.39329e-17 0.00353658)
(0.00350166 -0.00154363 -0.000452277 0.00350166 2.44376e-18 0.00350166)
(0.00350166 -0.00154363 -0.000452277 0.00350166 1.11673e-17 0.00350166)
(0.00346615 -0.00152519 -0.000455178 0.00346615 2.62254e-18 0.00346615)
(0.00346615 -0.00152519 -0.000455178 0.00346615 7.67981e-18 0.00346615)
(0.00343003 -0.00150639 -0.000457919 0.00343003 5.15847e-18 0.00343003)