/*--------------------------------*- C++ -*----------------------------------*\
| =========                 |                                                 |
| \\      /  F ield         | OpenFOAM: The Open Source CFD Toolbox           |
|  \\    /   O peration     | Version:  2106                                  |
|   \\  /    A nd           | Website:  www.openfoam.com                      |
|    \\/     M anipulation  |                                                 |
\*---------------------------------------------------------------------------*/
FoamFile
{
    version     2.0;
    format      ascii;
    arch        "LSB;label=32;scalar=64";
    class       volVectorField;
    location    "10010";
    object      U;
}
// * * * * * * * * * * * * * * * * * * * * * * * * * * * * * * * * * * * * * //

dimensions      [0 1 -1 0 0 0 0];

internalField   nonuniform List<vector> 
2000
(
(0.0056903 -5.27145e-16 -4.83673e-17)
(0.0056903 -6.23703e-19 -1.05389e-17)
(0.0171749 -2.62977e-15 -1.80802e-16)
(0.0171749 -1.27583e-18 -4.18646e-17)
(0.0288717 -2.31132e-15 -1.88649e-16)
(0.0288717 -3.73801e-18 -4.34325e-17)
(0.0407846 -2.23898e-15 -1.96519e-16)
(0.0407846 -5.92755e-18 -4.50539e-17)
(0.0529173 -2.21e-15 -2.04767e-16)
(0.0529173 -8.24252e-18 -4.67309e-17)
(0.0652737 -2.21701e-15 -2.13405e-16)
(0.0652737 -1.0686e-17 -4.84643e-17)
(0.0778571 -2.21484e-15 -2.22378e-16)
(0.0778571 -1.32783e-17 -5.02547e-17)
(0.0906705 -2.2097e-15 -2.31672e-16)
(0.0906705 -1.59735e-17 -5.20972e-17)
(0.103715 -2.2047e-15 -2.41272e-16)
(0.103715 -1.87766e-17 -5.39881e-17)
(0.116991 -2.19972e-15 -2.51139e-16)
(0.116991 -2.16827e-17 -5.59215e-17)
(0.130495 -2.19458e-15 -2.61212e-16)
(0.130495 -2.47748e-17 -5.78792e-17)
(0.144219 -2.18913e-15 -2.714e-16)
(0.144219 -2.80622e-17 -5.98379e-17)
(0.158152 -2.18321e-15 -2.81577e-16)
(0.158152 -3.15439e-17 -6.17732e-17)
(0.172274 -2.17686e-15 -2.9158e-16)
(0.172274 -3.51838e-17 -6.36492e-17)
(0.186558 -2.17027e-15 -3.01213e-16)
(0.186558 -3.88234e-17 -6.54151e-17)
(0.200969 -2.16349e-15 -3.10252e-16)
(0.200969 -4.26409e-17 -6.70277e-17)
(0.215461 -2.15661e-15 -3.18461e-16)
(0.215461 -4.67331e-17 -6.8437e-17)
(0.229982 -2.14941e-15 -3.25617e-16)
(0.229982 -5.0837e-17 -6.95878e-17)
(0.244472 -2.14183e-15 -3.31529e-16)
(0.244472 -5.51163e-17 -7.04546e-17)
(0.258868 -2.13395e-15 -3.36067e-16)
(0.258868 -5.96545e-17 -7.10028e-17)
(0.273108 -2.12582e-15 -3.39171e-16)
(0.273108 -6.41116e-17 -7.12079e-17)
(0.287131 -2.11771e-15 -3.40859e-16)
(0.287131 -6.86386e-17 -7.10892e-17)
(0.300883 -2.10988e-15 -3.41221e-16)
(0.300883 -7.32603e-17 -7.06662e-17)
(0.314317 -2.10196e-15 -3.40405e-16)
(0.314317 -7.75244e-17 -6.99744e-17)
(0.327398 -2.09383e-15 -3.38591e-16)
(0.327398 -8.197e-17 -6.90568e-17)
(0.340098 -2.0859e-15 -3.35977e-16)
(0.340098 -8.6279e-17 -6.79579e-17)
(0.352402 -2.07815e-15 -3.32761e-16)
(0.352402 -9.04509e-17 -6.67232e-17)
(0.364301 -2.07038e-15 -3.29129e-16)
(0.364301 -9.50474e-17 -6.53619e-17)
(0.375793 -2.06227e-15 -3.25242e-16)
(0.375793 -9.93376e-17 -6.39279e-17)
(0.386884 -2.05401e-15 -3.21239e-16)
(0.386884 -1.03911e-16 -6.24517e-17)
(0.397581 -2.04589e-15 -3.17231e-16)
(0.397581 -1.0827e-16 -6.09438e-17)
(0.407898 -2.03806e-15 -3.13311e-16)
(0.407898 -1.12265e-16 -5.94243e-17)
(0.417848 -2.03044e-15 -3.09546e-16)
(0.417848 -1.16641e-16 -5.79035e-17)
(0.427448 -2.023e-15 -3.05989e-16)
(0.427448 -1.2105e-16 -5.63964e-17)
(0.436714 -2.01552e-15 -3.02676e-16)
(0.436714 -1.25081e-16 -5.48791e-17)
(0.445664 -2.00792e-15 -2.99633e-16)
(0.445664 -1.28744e-16 -5.33973e-17)
(0.454312 -2.00031e-15 -2.96874e-16)
(0.454312 -1.32704e-16 -5.19445e-17)
(0.462677 -1.9931e-15 -2.94407e-16)
(0.462677 -1.36263e-16 -5.05039e-17)
(0.470773 -1.98591e-15 -2.92238e-16)
(0.470773 -1.40015e-16 -4.91053e-17)
(0.478616 -1.97834e-15 -2.90366e-16)
(0.478616 -1.43754e-16 -4.76878e-17)
(0.486219 -1.97124e-15 -2.88789e-16)
(0.486219 -1.47161e-16 -4.62857e-17)
(0.493597 -1.96441e-15 -2.87504e-16)
(0.493597 -1.50849e-16 -4.48896e-17)
(0.500762 -1.95734e-15 -2.865e-16)
(0.500762 -1.53912e-16 -4.34929e-17)
(0.507726 -1.95058e-15 -2.85774e-16)
(0.507726 -1.5711e-16 -4.21421e-17)
(0.514501 -1.94359e-15 -2.85316e-16)
(0.514501 -1.59817e-16 -4.0823e-17)
(0.521096 -1.9362e-15 -2.85116e-16)
(0.521096 -1.62986e-16 -3.95132e-17)
(0.527521 -1.92957e-15 -2.85173e-16)
(0.527521 -1.67224e-16 -3.81821e-17)
(0.533787 -1.92323e-15 -2.85477e-16)
(0.533787 -1.70169e-16 -3.6768e-17)
(0.539901 -1.91644e-15 -2.86015e-16)
(0.539901 -1.72709e-16 -3.53979e-17)
(0.545871 -1.90924e-15 -2.86786e-16)
(0.545871 -1.76184e-16 -3.41024e-17)
(0.551705 -1.90171e-15 -2.87775e-16)
(0.551705 -1.79716e-16 -3.27005e-17)
(0.55741 -1.89385e-15 -2.88978e-16)
(0.55741 -1.83255e-16 -3.12336e-17)
(0.562992 -1.88614e-15 -2.90384e-16)
(0.562992 -1.86641e-16 -2.97813e-17)
(0.568458 -1.87941e-15 -2.92002e-16)
(0.568458 -1.90051e-16 -2.82622e-17)
(0.573813 -1.87221e-15 -2.93831e-16)
(0.573813 -1.93065e-16 -2.67551e-17)
(0.579063 -1.86475e-15 -2.95859e-16)
(0.579063 -1.96016e-16 -2.52797e-17)
(0.584212 -1.8583e-15 -2.9809e-16)
(0.584212 -1.99384e-16 -2.37314e-17)
(0.589266 -1.85105e-15 -3.00527e-16)
(0.589266 -2.03151e-16 -2.21501e-17)
(0.594228 -1.84228e-15 -3.03162e-16)
(0.594228 -2.09556e-16 -2.05212e-17)
(0.599104 -1.83199e-15 -3.05983e-16)
(0.599104 -2.16786e-16 -1.87905e-17)
(0.603896 -1.82205e-15 -3.0899e-16)
(0.603896 -2.22736e-16 -1.69479e-17)
(0.608609 -1.81371e-15 -3.1219e-16)
(0.608609 -2.27333e-16 -1.51088e-17)
(0.613247 -1.80542e-15 -3.15587e-16)
(0.613247 -2.30968e-16 -1.30868e-17)
(0.617811 -1.79699e-15 -3.19196e-16)
(0.617811 -2.36306e-16 -1.10229e-17)
(0.622306 -1.78862e-15 -3.23006e-16)
(0.622306 -2.4139e-16 -8.75639e-18)
(0.626735 -1.78143e-15 -3.27008e-16)
(0.626735 -2.43012e-16 -6.36992e-18)
(0.631099 -1.77549e-15 -3.31209e-16)
(0.631099 -2.44073e-16 -4.12699e-18)
(0.635403 -1.76954e-15 -3.35614e-16)
(0.635403 -2.46157e-16 -1.79689e-18)
(0.639647 -1.76334e-15 -3.40219e-16)
(0.639647 -2.47413e-16 -1.10401e-18)
(0.643836 -1.75775e-15 -3.45019e-16)
(0.643836 -2.48765e-16 -1.12314e-18)
(0.64797 -1.75269e-15 -3.50001e-16)
(0.64797 -2.50969e-16 -1.23394e-18)
(0.652052 -1.74774e-15 -3.55158e-16)
(0.652052 -2.51594e-16 -1.31007e-18)
(0.656083 -1.74195e-15 -3.60495e-16)
(0.656083 -2.53259e-16 -1.4069e-18)
(0.660067 -1.73574e-15 -3.58489e-16)
(0.660067 -2.57349e-16 -1.49428e-18)
(0.664004 -1.73001e-15 -3.51477e-16)
(0.664004 -2.59056e-16 -1.60339e-18)
(0.667897 -1.72424e-15 -3.44728e-16)
(0.667897 -2.61345e-16 -1.75541e-18)
(0.671747 -1.71766e-15 -3.38195e-16)
(0.671747 -2.63747e-16 -1.85821e-18)
(0.675555 -1.70928e-15 -3.3177e-16)
(0.675555 -2.67438e-16 -2.04692e-18)
(0.679323 -1.70138e-15 -3.25888e-16)
(0.679323 -2.71657e-16 -2.14739e-18)
(0.683052 -1.69477e-15 -3.19832e-16)
(0.683052 -2.74013e-16 -2.24555e-18)
(0.686744 -1.68735e-15 -3.13847e-16)
(0.686744 -2.78031e-16 -2.41661e-18)
(0.690401 -1.67883e-15 -3.08241e-16)
(0.690401 -2.809e-16 -2.57422e-18)
(0.694022 -1.67049e-15 -3.03022e-16)
(0.694022 -2.84919e-16 -2.59838e-18)
(0.69761 -1.66269e-15 -2.97813e-16)
(0.69761 -2.8943e-16 -2.78523e-18)
(0.701166 -1.65646e-15 -2.92795e-16)
(0.701166 -2.914e-16 -3.02028e-18)
(0.70469 -1.65141e-15 -2.88137e-16)
(0.70469 -2.91548e-16 -3.20401e-18)
(0.708184 -1.64786e-15 -2.83668e-16)
(0.708184 -2.92053e-16 -3.33377e-18)
(0.711649 -1.64576e-15 -2.78952e-16)
(0.711649 -2.9208e-16 -3.49673e-18)
(0.715085 -1.64228e-15 -2.7438e-16)
(0.715085 -2.90021e-16 -3.79764e-18)
(0.718494 -1.63688e-15 -2.70035e-16)
(0.718494 -2.90619e-16 -3.97236e-18)
(0.721876 -1.63182e-15 -2.6576e-16)
(0.721876 -2.9119e-16 -4.12047e-18)
(0.725233 -1.6283e-15 -2.61428e-16)
(0.725233 -2.89367e-16 -4.33759e-18)
(0.728565 -1.62223e-15 -2.57179e-16)
(0.728565 -2.89971e-16 -4.46234e-18)
(0.731872 -1.61725e-15 -2.53101e-16)
(0.731872 -2.89237e-16 -4.54549e-18)
(0.735156 -1.61366e-15 -2.48649e-16)
(0.735156 -2.88199e-16 -4.77953e-18)
(0.738417 -1.60924e-15 -2.4428e-16)
(0.738417 -2.89127e-16 -4.98599e-18)
(0.741657 -1.6039e-15 -2.40078e-16)
(0.741657 -2.91753e-16 -5.19936e-18)
(0.744875 -1.59853e-15 -2.35983e-16)
(0.744875 -2.91514e-16 -5.14139e-18)
(0.748072 -1.5926e-15 -2.3157e-16)
(0.748072 -2.91036e-16 -5.32694e-18)
(0.751249 -1.58646e-15 -2.27364e-16)
(0.751249 -2.93317e-16 -5.43071e-18)
(0.754406 -1.58107e-15 -2.22923e-16)
(0.754406 -2.93855e-16 -5.65307e-18)
(0.757545 -1.5737e-15 -2.18974e-16)
(0.757545 -2.93765e-16 -5.85711e-18)
(0.760665 -1.56748e-15 -2.15144e-16)
(0.760665 -2.95959e-16 -5.85663e-18)
(0.763767 -1.56238e-15 -2.10903e-16)
(0.763767 -2.96559e-16 -5.89644e-18)
(0.766852 -1.55774e-15 -2.06165e-16)
(0.766852 -2.96926e-16 -6.06157e-18)
(0.76992 -1.55222e-15 -2.01628e-16)
(0.76992 -3.00267e-16 -6.23245e-18)
(0.772971 -1.54639e-15 -1.97472e-16)
(0.772971 -3.02899e-16 -6.26709e-18)
(0.776007 -1.541e-15 -1.93309e-16)
(0.776007 -3.07707e-16 -6.27326e-18)
(0.779026 -1.53569e-15 -1.88903e-16)
(0.779026 -3.09768e-16 -6.30872e-18)
(0.782031 -1.52768e-15 -1.84016e-16)
(0.782031 -3.11443e-16 -6.55527e-18)
(0.785021 -1.51666e-15 -1.7998e-16)
(0.785021 -3.16555e-16 -6.96488e-18)
(0.787997 -1.50925e-15 -1.76628e-16)
(0.787997 -3.22389e-16 -7.43786e-18)
(0.790959 -1.50186e-15 -1.73815e-16)
(0.790959 -3.26201e-16 -7.93173e-18)
(0.793908 -1.49311e-15 -1.71921e-16)
(0.793908 -3.31834e-16 -8.20517e-18)
(0.796843 -1.48455e-15 -1.69716e-16)
(0.796843 -3.3858e-16 -8.61139e-18)
(0.799765 -1.47876e-15 -1.67774e-16)
(0.799765 -3.38386e-16 -8.60295e-18)
(0.802675 -1.47547e-15 -1.65913e-16)
(0.802675 -3.36351e-16 -8.87827e-18)
(0.805573 -1.46984e-15 -1.63789e-16)
(0.805573 -3.37365e-16 -8.57951e-18)
(0.808459 -1.46037e-15 -1.61099e-16)
(0.808459 -3.37296e-16 -8.27983e-18)
(0.811333 -1.45023e-15 -1.57515e-16)
(0.811333 -3.3723e-16 -8.55906e-18)
(0.814196 -1.4442e-15 -1.54659e-16)
(0.814196 -3.37244e-16 -8.48931e-18)
(0.817048 -1.43904e-15 -1.52399e-16)
(0.817048 -3.36558e-16 -7.97483e-18)
(0.819889 -1.43175e-15 -1.48081e-16)
(0.819889 -3.36172e-16 -8.06352e-18)
(0.82272 -1.42453e-15 -1.42903e-16)
(0.82272 -3.40119e-16 -7.65718e-18)
(0.825541 -1.41619e-15 -1.37031e-16)
(0.825541 -3.43306e-16 -8.00121e-18)
(0.828351 -1.40426e-15 -1.34111e-16)
(0.828351 -3.5007e-16 -8.00505e-18)
(0.831152 -1.39502e-15 -1.35079e-16)
(0.831152 -3.54266e-16 -7.85768e-18)
(0.833944 -1.38779e-15 -1.36138e-16)
(0.833944 -3.57519e-16 -7.63442e-18)
(0.836726 -1.38224e-15 -1.37403e-16)
(0.836726 -3.66288e-16 -7.2464e-18)
(0.839499 -1.37532e-15 -1.38131e-16)
(0.839499 -3.68576e-16 -7.51152e-18)
(0.842263 -1.36862e-15 -1.39428e-16)
(0.842263 -3.74261e-16 -7.26967e-18)
(0.845019 -1.35884e-15 -1.40228e-16)
(0.845019 -3.82612e-16 -7.07793e-18)
(0.847766 -1.34742e-15 -1.41176e-16)
(0.847766 -3.87728e-16 -6.10957e-18)
(0.850505 -1.34105e-15 -1.40903e-16)
(0.850505 -3.88038e-16 -6.24186e-18)
(0.853236 -1.33057e-15 -1.40607e-16)
(0.853236 -3.9185e-16 -6.00631e-18)
(0.855959 -1.32072e-15 -1.39822e-16)
(0.855959 -4.0358e-16 -5.47652e-18)
(0.858674 -1.31583e-15 -1.38242e-16)
(0.858674 -4.14622e-16 -5.17845e-18)
(0.861382 -1.30876e-15 -1.35381e-16)
(0.861382 -4.21633e-16 -4.91546e-18)
(0.864082 -1.29895e-15 -1.3194e-16)
(0.864082 -4.26821e-16 -4.47935e-18)
(0.866775 -1.29044e-15 -1.28037e-16)
(0.866775 -4.42571e-16 -4.4347e-18)
(0.869461 -1.28011e-15 -1.24112e-16)
(0.869461 -4.54698e-16 -5.2838e-18)
(0.87214 -1.26851e-15 -1.21779e-16)
(0.87214 -4.63363e-16 -6.53841e-18)
(0.874812 -1.2626e-15 -1.20963e-16)
(0.874812 -4.72385e-16 -5.7346e-18)
(0.877478 -1.25988e-15 -1.19111e-16)
(0.877478 -4.73819e-16 -5.6878e-18)
(0.880136 -1.25455e-15 -1.16569e-16)
(0.880136 -4.80048e-16 -6.26546e-18)
(0.882789 -1.24859e-15 -1.15052e-16)
(0.882789 -4.84388e-16 -6.51174e-18)
(0.885435 -1.24457e-15 -1.13552e-16)
(0.885435 -4.92138e-16 -6.40552e-18)
(0.888074 -1.24088e-15 -1.11893e-16)
(0.888074 -5.02427e-16 -6.28832e-18)
(0.890708 -1.23743e-15 -1.10131e-16)
(0.890708 -5.07967e-16 -6.53221e-18)
(0.893335 -1.22909e-15 -1.08523e-16)
(0.893335 -5.1913e-16 -7.28689e-18)
(0.895957 -1.22386e-15 -1.08502e-16)
(0.895957 -5.28147e-16 -7.69466e-18)
(0.898572 -1.22552e-15 -1.08628e-16)
(0.898572 -5.32121e-16 -8.52499e-18)
(0.901182 -1.22747e-15 -1.10557e-16)
(0.901182 -5.42095e-16 -8.48029e-18)
(0.903786 -1.22732e-15 -1.11076e-16)
(0.903786 -5.51016e-16 -9.26009e-18)
(0.906384 -1.22396e-15 -1.13896e-16)
(0.906384 -5.59443e-16 -1.0655e-17)
(0.908977 -1.21968e-15 -1.18395e-16)
(0.908977 -5.75923e-16 -1.11787e-17)
(0.911564 -1.21334e-15 -1.22511e-16)
(0.911564 -5.797e-16 -1.13503e-17)
(0.914145 -1.20825e-15 -1.26348e-16)
(0.914145 -6.02983e-16 -1.12896e-17)
(0.916722 -1.19951e-15 -1.29711e-16)
(0.916722 -6.03359e-16 -9.94018e-18)
(0.919292 -1.18659e-15 -1.31788e-16)
(0.919292 -6.02318e-16 -1.01064e-17)
(0.921858 -1.17785e-15 -1.33705e-16)
(0.921858 -6.18504e-16 -7.42702e-18)
(0.924418 -1.17038e-15 -1.34311e-16)
(0.924418 -6.30279e-16 1.18607e-18)
(0.926973 -1.16371e-15 -1.33286e-16)
(0.926973 -6.3858e-16 2.83788e-18)
(0.929523 -1.1507e-15 -1.31086e-16)
(0.929523 -6.47814e-16 2.1876e-18)
(0.932067 -1.14319e-15 -1.30653e-16)
(0.932067 -6.47614e-16 1.15765e-17)
(0.934606 -1.13688e-15 -1.26032e-16)
(0.934606 -6.5722e-16 1.86741e-17)
(0.93714 -1.13088e-15 -1.22622e-16)
(0.93714 -6.67652e-16 1.70243e-17)
(0.939668 -1.12779e-15 -1.13803e-16)
(0.939668 -6.7176e-16 1.02901e-17)
(0.942192 -1.11802e-15 -1.0516e-16)
(0.942192 -6.73425e-16 6.39005e-18)
(0.94471 -1.10324e-15 -9.60365e-17)
(0.94471 -6.79655e-16 -2.59203e-19)
(0.947223 -1.09008e-15 -9.12715e-17)
(0.947223 -6.91212e-16 -6.43382e-18)
(0.949731 -1.0726e-15 -9.24371e-17)
(0.949731 -6.9258e-16 -1.16713e-17)
(0.952233 -1.06089e-15 -9.65163e-17)
(0.952233 -6.92163e-16 -1.6421e-17)
(0.95473 -1.06168e-15 -9.76764e-17)
(0.95473 -6.86955e-16 -1.89437e-17)
(0.957222 -1.05487e-15 -9.8003e-17)
(0.957222 -6.80016e-16 -2.31653e-17)
(0.959708 -1.04283e-15 -9.88723e-17)
(0.959708 -6.77216e-16 -2.58288e-17)
(0.962189 -1.0249e-15 -9.95235e-17)
(0.962189 -6.78041e-16 -2.9819e-17)
(0.964664 -1.01151e-15 -1.00376e-16)
(0.964664 -6.75865e-16 -3.32102e-17)
(0.967134 -1.0088e-15 -1.01038e-16)
(0.967134 -6.84322e-16 -3.75781e-17)
(0.969597 -1.00294e-15 -9.97355e-17)
(0.969597 -6.95478e-16 -4.48886e-17)
(0.972056 -9.72615e-16 -9.7555e-17)
(0.972056 -6.92716e-16 -5.54098e-17)
(0.974508 -9.43495e-16 -1.02867e-16)
(0.974508 -6.92754e-16 -7.43944e-17)
(0.976954 -9.28944e-16 -1.09932e-16)
(0.976954 -6.93999e-16 -8.63126e-17)
(0.979395 -9.11779e-16 -1.20852e-16)
(0.979395 -7.05088e-16 -9.54119e-17)
(0.981829 -9.02145e-16 -1.26555e-16)
(0.981829 -7.05221e-16 -1.0172e-16)
(0.984257 -8.90152e-16 -1.25442e-16)
(0.984257 -7.06944e-16 -1.08715e-16)
(0.986678 -8.75438e-16 -1.30476e-16)
(0.986678 -7.21188e-16 -1.12354e-16)
(0.989093 -8.65708e-16 -1.26944e-16)
(0.989093 -7.42953e-16 -1.16623e-16)
(0.991501 -8.56174e-16 -1.22416e-16)
(0.991501 -7.51164e-16 -1.17263e-16)
(0.993902 -8.42418e-16 -1.18218e-16)
(0.993902 -7.44094e-16 -1.24883e-16)
(0.996296 -8.32346e-16 -1.13959e-16)
(0.996296 -7.56975e-16 -1.21113e-16)
(0.998683 -8.20442e-16 -1.09555e-16)
(0.998683 -7.62062e-16 -1.20092e-16)
(1.00106 -8.04514e-16 -1.10415e-16)
(1.00106 -7.66269e-16 -1.14298e-16)
(1.00343 -7.97142e-16 -1.15461e-16)
(1.00343 -7.81103e-16 -1.14523e-16)
(1.0058 -8.06027e-16 -1.27104e-16)
(1.0058 -7.95126e-16 -1.15232e-16)
(1.00815 -8.18603e-16 -1.27088e-16)
(1.00815 -7.85215e-16 -1.18526e-16)
(1.0105 -8.19685e-16 -1.30366e-16)
(1.0105 -7.8441e-16 -1.17037e-16)
(1.01284 -8.2216e-16 -1.33246e-16)
(1.01284 -7.83724e-16 -1.25678e-16)
(1.01517 -8.18127e-16 -1.30681e-16)
(1.01517 -7.74457e-16 -1.40089e-16)
(1.01749 -8.07474e-16 -1.31832e-16)
(1.01749 -7.77229e-16 -1.44166e-16)
(1.0198 -7.85536e-16 -1.31745e-16)
(1.0198 -7.59134e-16 -1.55901e-16)
(1.0221 -7.55234e-16 -1.26592e-16)
(1.0221 -7.5419e-16 -1.57757e-16)
(1.02439 -7.39341e-16 -1.29072e-16)
(1.02439 -7.55153e-16 -1.6117e-16)
(1.02667 -7.20691e-16 -1.3432e-16)
(1.02667 -7.66796e-16 -1.54937e-16)
(1.02894 -7.06039e-16 -1.48344e-16)
(1.02894 -7.23018e-16 -1.27249e-16)
(1.03119 -7.01235e-16 -1.51204e-16)
(1.03119 -6.9741e-16 -1.12526e-16)
(1.03344 -7.03505e-16 -1.43502e-16)
(1.03344 -7.15298e-16 -9.68405e-17)
(1.03567 -6.96908e-16 -1.24809e-16)
(1.03567 -6.78078e-16 -9.5897e-17)
(1.03789 -6.782e-16 -1.06836e-16)
(1.03789 -6.69487e-16 -9.43213e-17)
(1.0401 -6.48452e-16 -1.00765e-16)
(1.0401 -6.64475e-16 -8.76865e-17)
(1.04229 -6.1285e-16 -9.53957e-17)
(1.04229 -6.35386e-16 -8.94035e-17)
(1.04446 -6.02216e-16 -9.88589e-17)
(1.04446 -6.36747e-16 -8.47249e-17)
(1.04662 -5.89984e-16 -1.02883e-16)
(1.04662 -6.42308e-16 -6.59883e-17)
(1.04877 -5.90493e-16 -1.23615e-16)
(1.04877 -5.83119e-16 -6.50356e-17)
(1.0509 -6.2568e-16 -1.317e-16)
(1.0509 -5.64e-16 -8.13464e-17)
(1.05301 -6.32107e-16 -1.19718e-16)
(1.05301 -5.83371e-16 -9.04105e-17)
(1.0551 -5.8262e-16 -1.10292e-16)
(1.0551 -5.52369e-16 -6.62272e-17)
(1.05717 -5.5584e-16 -1.14946e-16)
(1.05717 -5.39401e-16 -4.81458e-17)
(1.05922 -5.36814e-16 -1.29894e-16)
(1.05922 -5.17364e-16 -5.12542e-17)
(1.06125 -5.45462e-16 -1.51051e-16)
(1.06125 -5.0556e-16 -6.49857e-17)
(1.06326 -5.27832e-16 -1.12097e-16)
(1.06326 -5.0982e-16 -7.16992e-17)
(1.06524 -4.69513e-16 -8.98383e-17)
(1.06524 -4.9444e-16 -8.7435e-17)
(1.0672 -5.02278e-16 -7.96458e-17)
(1.0672 -5.03372e-16 -8.10099e-17)
(1.06913 -5.17797e-16 -8.70048e-17)
(1.06913 -5.01432e-16 -7.87863e-17)
(1.07104 -5.02325e-16 -8.65936e-17)
(1.07104 -4.94928e-16 -7.79037e-17)
(1.07291 -5.04087e-16 -1.04981e-16)
(1.07291 -5.07445e-16 -9.08402e-17)
(1.07475 -5.14354e-16 -8.94598e-17)
(1.07475 -5.0676e-16 -1.06843e-16)
(1.07657 -5.01878e-16 -7.75472e-17)
(1.07657 -4.82216e-16 -1.19075e-16)
(1.07834 -5.11522e-16 -1.06682e-16)
(1.07834 -5.24231e-16 -1.10237e-16)
(1.08008 -5.12721e-16 -1.25882e-16)
(1.08008 -5.39016e-16 -9.33627e-17)
(1.08178 -4.87581e-16 -1.23989e-16)
(1.08178 -5.09699e-16 -8.38292e-17)
(1.08344 -4.87635e-16 -1.14707e-16)
(1.08344 -5.36452e-16 -5.67968e-17)
(1.08505 -4.79463e-16 -1.22748e-16)
(1.08505 -5.36032e-16 -4.71869e-17)
(1.08662 -4.99951e-16 -1.39148e-16)
(1.08662 -5.47252e-16 -4.24728e-17)
(1.08813 -4.97583e-16 -1.02443e-16)
(1.08813 -5.45028e-16 -3.15678e-17)
(1.0896 -4.80389e-16 -1.21755e-16)
(1.0896 -5.24425e-16 -3.87046e-17)
(1.091 -4.99081e-16 -1.32989e-16)
(1.091 -5.35481e-16 -7.67448e-17)
(1.09234 -4.93428e-16 -5.55769e-17)
(1.09234 -5.17662e-16 -7.87181e-17)
(1.09362 -5.22336e-16 -9.41704e-17)
(1.09362 -4.86687e-16 -7.59029e-17)
(1.09483 -5.60144e-16 -1.71569e-16)
(1.09483 -5.11534e-16 -8.65029e-17)
(1.09596 -5.43011e-16 -1.69364e-16)
(1.09596 -5.07502e-16 -8.50334e-17)
(1.09701 -5.571e-16 -1.4673e-16)
(1.09701 -4.85773e-16 -8.63574e-17)
(1.09797 -5.59466e-16 -8.68908e-17)
(1.09797 -4.86729e-16 -4.88385e-17)
(1.09883 -5.06696e-16 -6.23103e-17)
(1.09883 -4.58284e-16 -5.1448e-17)
(1.0996 -4.43348e-16 -4.42028e-17)
(1.0996 -4.4917e-16 -4.65764e-17)
(1.10026 -4.23725e-16 -5.59236e-17)
(1.10026 -4.54913e-16 -3.43985e-17)
(1.1008 -4.28971e-16 -8.144e-17)
(1.1008 -4.27985e-16 -3.42966e-17)
(1.10122 -4.32541e-16 -2.88424e-17)
(1.10122 -3.80859e-16 -3.6549e-17)
(1.10151 -3.50884e-16 3.17664e-17)
(1.10151 -4.10237e-16 -1.98003e-17)
(1.10166 -3.39123e-16 6.72423e-17)
(1.10166 -4.37101e-16 -8.52836e-19)
(0.0056903 -2.9628e-19 2.04609e-17)
(0.0056903 -2.14168e-19 -5.82842e-18)
(0.0171749 -5.56799e-19 6.46851e-17)
(0.0171749 -2.09838e-19 -6.98835e-17)
(0.0288717 -1.74917e-18 6.7115e-17)
(0.0288717 -8.57144e-19 -7.25108e-17)
(0.0407846 -2.82612e-18 6.96334e-17)
(0.0407846 -1.41597e-18 -7.52371e-17)
(0.0529173 -3.97683e-18 7.22429e-17)
(0.0529173 -1.98681e-18 -7.80665e-17)
(0.0652737 -5.14825e-18 7.49452e-17)
(0.0652737 -2.57616e-18 -8.10012e-17)
(0.0778571 -6.35566e-18 7.77401e-17)
(0.0778571 -3.2325e-18 -8.4042e-17)
(0.0906705 -7.66619e-18 8.06252e-17)
(0.0906705 -3.93512e-18 -8.71839e-17)
(0.103715 -9.07804e-18 8.35915e-17)
(0.103715 -4.5701e-18 -9.04197e-17)
(0.116991 -1.05344e-17 8.66277e-17)
(0.116991 -5.19926e-18 -9.37424e-17)
(0.130495 -1.2011e-17 8.97102e-17)
(0.130495 -5.92365e-18 -9.71236e-17)
(0.144219 -1.35636e-17 9.28091e-17)
(0.144219 -6.66299e-18 -1.00525e-16)
(0.158152 -1.53038e-17 9.58825e-17)
(0.158152 -7.46292e-18 -1.03908e-16)
(0.172274 -1.73287e-17 9.88767e-17)
(0.172274 -8.17983e-18 -1.07218e-16)
(0.186558 -1.94899e-17 1.01717e-16)
(0.186558 -8.76097e-18 -1.10375e-16)
(0.200969 -2.15785e-17 1.0433e-16)
(0.200969 -9.43317e-18 -1.133e-16)
(0.215461 -2.36724e-17 1.06641e-16)
(0.215461 -1.03168e-17 -1.15914e-16)
(0.229982 -2.57042e-17 1.08576e-16)
(0.229982 -1.128e-17 -1.18123e-16)
(0.244472 -2.78632e-17 1.10082e-16)
(0.244472 -1.22138e-17 -1.19879e-16)
(0.258868 -3.01825e-17 1.11111e-16)
(0.258868 -1.32036e-17 -1.2114e-16)
(0.273108 -3.25407e-17 1.11644e-16)
(0.273108 -1.41575e-17 -1.21866e-16)
(0.287131 -3.49161e-17 1.11696e-16)
(0.287131 -1.51591e-17 -1.22086e-16)
(0.300883 -3.7199e-17 1.11301e-16)
(0.300883 -1.64624e-17 -1.21828e-16)
(0.314317 -3.93321e-17 1.10517e-16)
(0.314317 -1.81293e-17 -1.21153e-16)
(0.327398 -4.1346e-17 1.09404e-16)
(0.327398 -1.98884e-17 -1.20118e-16)
(0.340098 -4.33866e-17 1.08033e-16)
(0.340098 -2.16025e-17 -1.18805e-16)
(0.352402 -4.56148e-17 1.06468e-16)
(0.352402 -2.30614e-17 -1.17305e-16)
(0.364301 -4.75957e-17 1.0476e-16)
(0.364301 -2.45258e-17 -1.15646e-16)
(0.375793 -4.9445e-17 1.02976e-16)
(0.375793 -2.58768e-17 -1.13902e-16)
(0.386884 -5.14745e-17 1.01156e-16)
(0.386884 -2.71204e-17 -1.12133e-16)
(0.397581 -5.3438e-17 9.93333e-17)
(0.397581 -2.8601e-17 -1.10367e-16)
(0.407898 -5.54205e-17 9.75396e-17)
(0.407898 -3.00333e-17 -1.08645e-16)
(0.417848 -5.74868e-17 9.57952e-17)
(0.417848 -3.13641e-17 -1.0698e-16)
(0.427448 -5.9554e-17 9.41103e-17)
(0.427448 -3.27989e-17 -1.05421e-16)
(0.436714 -6.17439e-17 9.24971e-17)
(0.436714 -3.40344e-17 -1.03912e-16)
(0.445664 -6.38827e-17 9.09659e-17)
(0.445664 -3.53238e-17 -1.02532e-16)
(0.454312 -6.55516e-17 8.95121e-17)
(0.454312 -3.64931e-17 -1.01248e-16)
(0.462677 -6.72615e-17 8.81464e-17)
(0.462677 -3.75484e-17 -1.00075e-16)
(0.470773 -6.96245e-17 8.68659e-17)
(0.470773 -3.90004e-17 -9.90546e-17)
(0.478616 -7.23028e-17 8.56372e-17)
(0.478616 -3.9961e-17 -9.80974e-17)
(0.486219 -7.51298e-17 8.44731e-17)
(0.486219 -4.00238e-17 -9.72528e-17)
(0.493597 -7.74289e-17 8.33527e-17)
(0.493597 -4.11542e-17 -9.65553e-17)
(0.500762 -7.91175e-17 8.23022e-17)
(0.500762 -4.23962e-17 -9.59159e-17)
(0.507726 -8.12588e-17 8.13239e-17)
(0.507726 -4.36522e-17 -9.53897e-17)
(0.514501 -8.38443e-17 8.04168e-17)
(0.514501 -4.43726e-17 -9.49593e-17)
(0.521096 -8.68745e-17 7.9573e-17)
(0.521096 -4.42497e-17 -9.46592e-17)
(0.527521 -9.03779e-17 7.87443e-17)
(0.527521 -4.56493e-17 -9.44509e-17)
(0.533787 -9.27911e-17 7.79532e-17)
(0.533787 -4.68348e-17 -9.42452e-17)
(0.539901 -9.4394e-17 7.72202e-17)
(0.539901 -4.75127e-17 -9.41467e-17)
(0.545871 -9.65237e-17 7.65301e-17)
(0.545871 -4.89121e-17 -9.42939e-17)
(0.551705 -9.80929e-17 7.45362e-17)
(0.551705 -5.08021e-17 -9.44306e-17)
(0.55741 -9.96098e-17 7.2549e-17)
(0.55741 -5.13537e-17 -9.45964e-17)
(0.562992 -1.01533e-16 7.07315e-17)
(0.562992 -5.26884e-17 -9.49198e-17)
(0.568458 -1.03091e-16 6.89163e-17)
(0.568458 -5.48329e-17 -9.52589e-17)
(0.573813 -1.03983e-16 6.72095e-17)
(0.573813 -5.62595e-17 -9.56235e-17)
(0.579063 -1.04994e-16 6.57413e-17)
(0.579063 -5.86197e-17 -9.61614e-17)
(0.584212 -1.06867e-16 6.43487e-17)
(0.584212 -6.02114e-17 -9.67037e-17)
(0.589266 -1.08719e-16 6.30399e-17)
(0.589266 -6.15856e-17 -9.73669e-17)
(0.594228 -1.1042e-16 6.18442e-17)
(0.594228 -6.27149e-17 -9.8136e-17)
(0.599104 -1.11709e-16 6.07336e-17)
(0.599104 -6.4188e-17 -9.8972e-17)
(0.603896 -1.13208e-16 5.97003e-17)
(0.603896 -6.60968e-17 -9.97107e-17)
(0.608609 -1.15437e-16 5.89052e-17)
(0.608609 -6.71209e-17 -1.00698e-16)
(0.613247 -1.1882e-16 5.81151e-17)
(0.613247 -6.78048e-17 -1.01737e-16)
(0.617811 -1.2244e-16 5.73671e-17)
(0.617811 -6.74999e-17 -1.0293e-16)
(0.622306 -1.25468e-16 5.66034e-17)
(0.622306 -6.77387e-17 -1.04158e-16)
(0.626735 -1.27679e-16 5.59019e-17)
(0.626735 -6.81178e-17 -1.05378e-16)
(0.631099 -1.28751e-16 5.53725e-17)
(0.631099 -6.87034e-17 -1.0683e-16)
(0.635403 -1.30775e-16 5.48295e-17)
(0.635403 -6.96202e-17 -1.08447e-16)
(0.639647 -1.33486e-16 5.41422e-17)
(0.639647 -7.12007e-17 -1.09916e-16)
(0.643836 -1.35514e-16 5.35329e-17)
(0.643836 -7.22919e-17 -1.11348e-16)
(0.64797 -1.37382e-16 5.30923e-17)
(0.64797 -7.28899e-17 -1.11283e-16)
(0.652052 -1.39399e-16 5.27096e-17)
(0.652052 -7.48618e-17 -1.10669e-16)
(0.656083 -1.41437e-16 5.22517e-17)
(0.656083 -7.60814e-17 -1.09882e-16)
(0.660067 -1.43715e-16 5.1843e-17)
(0.660067 -7.88342e-17 -1.09083e-16)
(0.664004 -1.46699e-16 5.13687e-17)
(0.664004 -8.15301e-17 -1.08338e-16)
(0.667897 -1.50805e-16 5.08787e-17)
(0.667897 -8.33357e-17 -1.07428e-16)
(0.671747 -1.53706e-16 5.06173e-17)
(0.671747 -8.31305e-17 -1.06737e-16)
(0.675555 -1.55701e-16 5.05507e-17)
(0.675555 -8.57174e-17 -1.06202e-16)
(0.679323 -1.57485e-16 5.02965e-17)
(0.679323 -8.96918e-17 -1.05146e-16)
(0.683052 -1.59609e-16 4.98862e-17)
(0.683052 -8.97487e-17 -1.04079e-16)
(0.686744 -1.61757e-16 4.97873e-17)
(0.686744 -9.17489e-17 -1.03336e-16)
(0.690401 -1.63624e-16 4.99494e-17)
(0.690401 -9.36243e-17 -1.026e-16)
(0.694022 -1.6608e-16 5.00774e-17)
(0.694022 -9.37824e-17 -1.01507e-16)
(0.69761 -1.67397e-16 5.01441e-17)
(0.69761 -9.54517e-17 -1.00342e-16)
(0.701166 -1.67949e-16 5.02292e-17)
(0.701166 -9.82591e-17 -9.90594e-17)
(0.70469 -1.69072e-16 5.05716e-17)
(0.70469 -9.91805e-17 -9.78755e-17)
(0.708184 -1.68668e-16 5.11474e-17)
(0.708184 -1.03487e-16 -9.69514e-17)
(0.711649 -1.66559e-16 5.14012e-17)
(0.711649 -1.05292e-16 -9.58359e-17)
(0.715085 -1.65686e-16 5.18595e-17)
(0.715085 -1.05477e-16 -9.48238e-17)
(0.718494 -1.68312e-16 5.23696e-17)
(0.718494 -1.09446e-16 -9.36873e-17)
(0.721876 -1.71711e-16 5.2038e-17)
(0.721876 -1.1267e-16 -9.26249e-17)
(0.725233 -1.73252e-16 5.13919e-17)
(0.725233 -1.13739e-16 -9.17203e-17)
(0.728565 -1.75283e-16 5.07655e-17)
(0.728565 -1.15603e-16 -9.0941e-17)
(0.731872 -1.7769e-16 5.00714e-17)
(0.731872 -1.18958e-16 -8.80493e-17)
(0.735156 -1.79502e-16 4.92611e-17)
(0.735156 -1.18401e-16 -8.48811e-17)
(0.738417 -1.80788e-16 4.84684e-17)
(0.738417 -1.16379e-16 -8.15645e-17)
(0.741657 -1.82159e-16 4.76591e-17)
(0.741657 -1.19092e-16 -7.80569e-17)
(0.744875 -1.82704e-16 4.68208e-17)
(0.744875 -1.21094e-16 -7.43235e-17)
(0.748072 -1.83352e-16 4.60503e-17)
(0.748072 -1.21086e-16 -7.0659e-17)
(0.751249 -1.8512e-16 4.50272e-17)
(0.751249 -1.25003e-16 -6.66164e-17)
(0.754406 -1.86766e-16 4.39037e-17)
(0.754406 -1.25404e-16 -6.24682e-17)
(0.757545 -1.87937e-16 4.29076e-17)
(0.757545 -1.26787e-16 -5.82849e-17)
(0.760665 -1.88617e-16 4.19003e-17)
(0.760665 -1.32435e-16 -5.39843e-17)
(0.763767 -1.86858e-16 4.06252e-17)
(0.763767 -1.34456e-16 -4.95175e-17)
(0.766852 -1.85942e-16 3.96703e-17)
(0.766852 -1.34715e-16 -4.51751e-17)
(0.76992 -1.8821e-16 3.86337e-17)
(0.76992 -1.37713e-16 -4.07797e-17)
(0.772971 -1.89892e-16 3.74963e-17)
(0.772971 -1.40746e-16 -3.62129e-17)
(0.776007 -1.90299e-16 3.64407e-17)
(0.776007 -1.42936e-16 -3.17523e-17)
(0.779026 -1.9438e-16 3.55446e-17)
(0.779026 -1.43643e-16 -2.74604e-17)
(0.782031 -1.98746e-16 3.44558e-17)
(0.782031 -1.44207e-16 -2.32534e-17)
(0.785021 -1.97176e-16 3.29803e-17)
(0.785021 -1.44443e-16 -1.86443e-17)
(0.787997 -1.94402e-16 3.17979e-17)
(0.787997 -1.42387e-16 -1.37009e-17)
(0.790959 -1.91159e-16 3.0382e-17)
(0.790959 -1.4181e-16 -8.30521e-18)
(0.793908 -1.89379e-16 2.92675e-17)
(0.793908 -1.4275e-16 -2.57038e-18)
(0.796843 -1.90355e-16 2.82197e-17)
(0.796843 -1.44568e-16 3.28392e-18)
(0.799765 -1.91602e-16 2.73225e-17)
(0.799765 -1.42474e-16 9.3773e-18)
(0.802675 -1.91311e-16 2.63573e-17)
(0.802675 -1.34075e-16 1.55996e-17)
(0.805573 -1.94208e-16 2.54902e-17)
(0.805573 -1.35281e-16 2.22177e-17)
(0.808459 -1.98379e-16 2.47219e-17)
(0.808459 -1.39208e-16 2.83103e-17)
(0.811333 -1.95769e-16 2.39085e-17)
(0.811333 -1.39177e-16 3.41198e-17)
(0.814196 -1.92258e-16 2.33755e-17)
(0.814196 -1.38338e-16 3.99049e-17)
(0.817048 -1.92047e-16 2.30974e-17)
(0.817048 -1.35774e-16 4.5306e-17)
(0.819889 -1.94152e-16 2.24356e-17)
(0.819889 -1.36255e-16 5.03181e-17)
(0.82272 -1.96253e-16 2.16003e-17)
(0.82272 -1.37672e-16 5.52871e-17)
(0.825541 -1.97232e-16 2.10936e-17)
(0.825541 -1.36616e-16 5.94737e-17)
(0.828351 -2.00721e-16 2.09307e-17)
(0.828351 -1.3785e-16 6.33372e-17)
(0.831152 -2.02855e-16 2.04273e-17)
(0.831152 -1.40512e-16 6.66721e-17)
(0.833944 -2.01081e-16 1.99372e-17)
(0.833944 -1.35565e-16 6.94709e-17)
(0.836726 -1.97424e-16 1.9498e-17)
(0.836726 -1.34587e-16 7.18961e-17)
(0.839499 -1.93662e-16 1.95421e-17)
(0.839499 -1.37901e-16 7.37318e-17)
(0.842263 -1.89517e-16 1.88067e-17)
(0.842263 -1.39234e-16 7.60732e-17)
(0.845019 -1.83223e-16 1.87771e-17)
(0.845019 -1.38069e-16 7.74815e-17)
(0.847766 -1.79649e-16 1.89365e-17)
(0.847766 -1.34845e-16 7.85234e-17)
(0.850505 -1.79828e-16 1.89649e-17)
(0.850505 -1.34725e-16 7.8541e-17)
(0.853236 -1.81376e-16 1.87586e-17)
(0.853236 -1.33729e-16 7.87812e-17)
(0.855959 -1.88989e-16 1.86425e-17)
(0.855959 -1.28842e-16 7.8395e-17)
(0.858674 -1.96341e-16 1.74296e-17)
(0.858674 -1.25803e-16 7.7408e-17)
(0.861382 -1.92384e-16 1.6514e-17)
(0.861382 -1.25357e-16 7.55449e-17)
(0.864082 -1.84696e-16 1.62677e-17)
(0.864082 -1.23155e-16 7.29633e-17)
(0.866775 -1.82017e-16 1.59446e-17)
(0.866775 -1.26964e-16 7.01398e-17)
(0.869461 -1.816e-16 1.58111e-17)
(0.869461 -1.29502e-16 6.69957e-17)
(0.87214 -1.78715e-16 1.65371e-17)
(0.87214 -1.28457e-16 6.36068e-17)
(0.874812 -1.7249e-16 1.70191e-17)
(0.874812 -1.30068e-16 6.14985e-17)
(0.877478 -1.67991e-16 1.8323e-17)
(0.877478 -1.25803e-16 5.89357e-17)
(0.880136 -1.70764e-16 1.90192e-17)
(0.880136 -1.23084e-16 5.67432e-17)
(0.882789 -1.72115e-16 1.92645e-17)
(0.882789 -1.27993e-16 5.48126e-17)
(0.885435 -1.74617e-16 2.07722e-17)
(0.885435 -1.33592e-16 5.21997e-17)
(0.888074 -1.82269e-16 2.16926e-17)
(0.888074 -1.33839e-16 4.89114e-17)
(0.890708 -1.83058e-16 2.08955e-17)
(0.890708 -1.28175e-16 4.61312e-17)
(0.893335 -1.83837e-16 1.96653e-17)
(0.893335 -1.33931e-16 4.41354e-17)