/*--------------------------------*- C++ -*----------------------------------*\
| =========                 |                                                 |
| \\      /  F ield         | OpenFOAM: The Open Source CFD Toolbox           |
|  \\    /   O peration     | Version:  2106                                  |
|   \\  /    A nd           | Website:  www.openfoam.com                      |
|    \\/     M anipulation  |                                                 |
\*---------------------------------------------------------------------------*/
FoamFile
{
    version     2.0;
    format      ascii;
    arch        "LSB;label=32;scalar=64";
    class       volVectorField;
    location    "10030";
    object      grad(T);
}
// * * * * * * * * * * * * * * * * * * * * * * * * * * * * * * * * * * * * * //

dimensions      [0 -1 0 1 0 0 0];

internalField   nonuniform List<vector> 
2000
(
(0 874.935 1.61919)
(0 874.935 1.61919)
(0 874.933 4.88778)
(-8.98622e-16 874.933 4.88778)
(-1.98998e-16 874.929 6.78345)
(0 874.929 6.78345)
(-6.52137e-16 874.918 6.90997)
(2.60855e-15 874.918 6.90997)
(1.70024e-15 874.895 7.03869)
(-1.70024e-15 874.895 7.03869)
(0 874.841 7.16947)
(-6.33603e-15 874.841 7.16947)
(0 874.726 7.30199)
(8.25239e-15 874.726 7.30199)
(0 874.495 7.43571)
(2.04097e-14 874.495 7.43571)
(-3.04858e-15 874.066 7.56972)
(0 874.066 7.56972)
(0 873.317 7.70267)
(0 873.317 7.70267)
(6.08665e-15 872.077 7.83267)
(0 872.077 7.83267)
(4.59804e-15 870.125 7.95716)
(1.24171e-14 870.125 7.95716)
(0 867.183 8.07293)
(0 867.183 8.07293)
(-1.14381e-14 862.927 8.17612)
(0 862.927 8.17612)
(-1.75406e-14 857.001 8.26241)
(-1.13052e-14 857.001 8.26241)
(2.89958e-14 849.047 8.32734)
(-2.71985e-14 849.047 8.32734)
(1.08947e-14 838.738 8.36667)
(0 838.738 8.36667)
(1.59023e-14 825.825 8.37688)
(3.18046e-14 825.825 8.37688)
(-8.53535e-15 810.17 8.35561)
(0 810.17 8.35561)
(9.12258e-15 791.778 8.30197)
(3.64903e-14 791.778 8.30197)
(-9.71049e-15 770.8 8.21667)
(7.76839e-14 770.8 8.21667)
(0 747.524 8.10191)
(2.13214e-14 747.524 8.10191)
(0 722.346 7.96113)
(6.30139e-14 722.346 7.96113)
(0 695.727 7.79854)
(2.66696e-14 695.727 7.79854)
(-1.20193e-14 668.149 7.61877)
(0 668.149 7.61877)
(0 640.081 7.42643)
(5.02987e-14 640.081 7.42643)
(4.9924e-15 611.947 7.22584)
(0 611.947 7.22584)
(-1.36477e-14 584.108 7.02083)
(0 584.108 7.02083)
(0 556.857 6.81465)
(0 556.857 6.81465)
(-3.17975e-14 530.419 6.60993)
(-5.86589e-14 530.419 6.60993)
(1.51513e-14 504.956 6.40873)
(6.06052e-14 504.956 6.40873)
(0 480.575 6.2126)
(-1.65106e-14 480.575 6.2126)
(-1.60807e-14 457.337 6.02265)
(0 457.337 6.02265)
(-1.6524e-14 435.27 5.83963)
(0 435.27 5.83963)
(0 414.374 5.66398)
(6.78142e-14 414.374 5.66398)
(1.53333e-14 394.626 5.49594)
(-1.53333e-14 394.626 5.49594)
(1.77735e-14 375.994 5.33556)
(5.60418e-14 375.994 5.33556)
(-4.77179e-14 358.431 5.18276)
(1.02213e-13 358.431 5.18276)
(-1.85447e-14 341.887 5.03739)
(0 341.887 5.03739)
(0 326.309 4.8992)
(7.56539e-14 326.309 4.8992)
(-1.05854e-14 311.642 4.76793)
(4.91286e-14 311.642 4.76793)
(0 297.831 4.64326)
(0 297.831 4.64326)
(0 284.822 4.52489)
(0 284.822 4.52489)
(-2.0288e-14 272.564 4.4125)
(-1.07601e-13 272.564 4.4125)
(2.0609e-14 261.008 4.30576)
(5.64716e-14 261.008 4.30576)
(2.09218e-14 250.108 4.20437)
(-8.36872e-14 250.108 4.20437)
(-2.12269e-14 239.819 4.10802)
(8.49076e-14 239.819 4.10802)
(0 230.101 4.01643)
(1.72197e-13 230.101 4.01643)
(7.0041e-14 220.915 3.92932)
(8.72618e-14 220.915 3.92932)
(-2.20996e-14 212.227 3.84643)
(-1.3574e-13 212.227 3.84643)
(0 204.002 3.76751)
(0 204.002 3.76751)
(-4.54607e-14 196.21 3.69233)
(-4.56227e-14 196.21 3.69233)
(0 188.822 3.62066)
(2.23933e-14 188.822 3.62066)
(0 181.813 3.55232)
(-9.27048e-14 181.813 3.55232)
(1.85158e-15 175.157 3.48709)
(-4.31603e-14 175.157 3.48709)
(-4.4867e-14 168.833 3.42482)
(2.11847e-14 168.833 3.42482)
(-2.706e-14 162.818 3.36531)
(9.5713e-14 162.818 3.36531)
(-2.41697e-14 157.095 3.30843)
(0 157.095 3.30843)
(-4.88135e-14 151.644 3.25401)
(-9.76271e-14 151.644 3.25401)
(2.46398e-14 146.449 3.20193)
(-9.85592e-14 146.449 3.20193)
(0 141.494 3.15206)
(-3.86271e-14 141.494 3.15206)
(-5.01885e-14 136.766 3.10427)
(2.00754e-13 136.766 3.10427)
(-2.5316e-14 132.251 3.05845)
(1.01264e-13 132.251 3.05845)
(0 127.936 3.0145)
(0 127.936 3.0145)
(-2.57494e-14 123.811 2.97233)
(1.02997e-13 123.811 2.97233)
(0 119.863 2.93183)
(-3.52153e-14 119.863 2.93183)
(-2.61701e-14 116.084 2.89292)
(-3.457e-14 116.084 2.89292)
(0 112.464 2.85552)
(0 112.464 2.85552)
(0 108.994 2.81956)
(1.06316e-13 108.994 2.81956)
(0 105.666 2.78496)
(0 105.666 2.78496)
(-2.69774e-14 102.473 2.75166)
(1.0791e-13 102.473 2.75166)
(0 99.4075 2.7196)
(1.08691e-13 99.4075 2.7196)
(-2.73658e-14 96.4629 2.68871)
(-1.09463e-13 96.4629 2.68871)
(0 93.633 2.65894)
(-1.10226e-13 93.633 2.65894)
(-5.549e-14 90.9121 2.63024)
(1.1098e-13 90.9121 2.63024)
(-5.58627e-14 88.2948 2.60256)
(0 88.2948 2.60256)
(0 85.7758 2.57585)
(1.12463e-13 85.7758 2.57585)
(-5.65042e-14 83.3504 2.55007)
(-1.13192e-13 83.3504 2.55007)
(2.84784e-14 81.0142 2.52518)
(0 81.0142 2.52518)
(-2.57071e-14 78.7628 2.50114)
(-6.02637e-14 78.7628 2.50114)
(-4.29959e-15 76.5923 2.47792)
(-5.33678e-14 76.5923 2.47792)
(0 74.4989 2.45547)
(0 74.4989 2.45547)
(2.91821e-14 72.479 2.43376)
(-2.33457e-13 72.479 2.43376)
(2.93539e-14 70.5295 2.41277)
(0 70.5295 2.41277)
(0 68.647 2.39246)
(1.18097e-13 68.647 2.39246)
(2.96929e-14 66.8286 2.37281)
(1.18772e-13 66.8286 2.37281)
(-1.19579e-14 65.0716 2.35379)
(0 65.0716 2.35379)
(-6.00521e-14 63.3731 2.33537)
(1.20104e-13 63.3731 2.33537)
(3.01906e-14 61.7309 2.31754)
(2.41525e-13 61.7309 2.31754)
(-3.03538e-14 60.1423 2.30026)
(0 60.1423 2.30026)
(-6.10315e-14 58.6053 2.28352)
(1.22063e-13 58.6053 2.28352)
(-3.06764e-14 57.1176 2.2673)
(1.22706e-13 57.1176 2.2673)
(4.27458e-14 55.6773 2.25158)
(-4.27458e-14 55.6773 2.25158)
(3.09943e-14 54.2823 2.23633)
(1.23977e-13 54.2823 2.23633)
(-1.0042e-14 52.9309 2.22154)
(1.658e-13 52.9309 2.22154)
(-3.13077e-14 51.6214 2.2072)
(1.25231e-13 51.6214 2.2072)
(3.14628e-14 50.3521 2.19328)
(0 50.3521 2.19328)
(-3.16168e-14 49.1214 2.17978)
(8.7497e-14 49.1214 2.17978)
(-6.48622e-15 47.9278 2.16667)
(3.82561e-14 47.9278 2.16667)
(-3.1922e-14 46.77 2.15395)
(9.01329e-14 46.77 2.15395)
(3.20732e-14 45.6465 2.1416)
(9.14258e-14 45.6465 2.1416)
(0 44.556 2.12961)
(9.27024e-14 44.556 2.12961)
(0 43.4974 2.11796)
(-1.65019e-13 43.4974 2.11796)
(0 42.4695 2.10665)
(1.30085e-13 42.4695 2.10665)
(-3.26691e-14 41.4711 2.09566)
(6.84759e-14 41.4711 2.09566)
(-3.2816e-14 40.5012 2.08498)
(1.31264e-13 40.5012 2.08498)
(0 39.5587 2.0746)
(3.29947e-14 39.5587 2.0746)
(0 38.6427 2.06451)
(-3.23901e-14 38.6427 2.06451)
(6.50486e-14 37.7523 2.0547)
(1.33008e-13 37.7523 2.0547)
(-2.90318e-14 36.8865 2.04517)
(1.0237e-13 36.8865 2.04517)
(0 36.0445 2.0359)
(1.34157e-13 36.0445 2.0359)
(-6.73633e-14 35.2254 2.02689)
(1.34727e-13 35.2254 2.02689)
(4.29437e-15 34.4286 2.01812)
(1.64823e-13 34.4286 2.01812)
(0 33.6532 2.0096)
(-1.35859e-13 33.6532 2.0096)
(0 32.8986 2.00131)
(-2.84568e-14 32.8986 2.00131)
(-6.84906e-14 32.164 1.99324)
(0 32.164 1.99324)
(-3.43847e-14 31.4487 1.98539)
(0 31.4487 1.98539)
(0 30.7522 1.97775)
(-1.38094e-13 30.7522 1.97775)
(6.93236e-14 30.0738 1.97031)
(-5.28553e-14 30.0738 1.97031)
(1.77124e-14 29.413 1.96307)
(1.39198e-13 29.413 1.96307)
(-3.49367e-14 28.7692 1.95603)
(1.39747e-13 28.7692 1.95603)
(7.01468e-14 28.1418 1.94917)
(-5.00025e-14 28.1418 1.94917)
(3.52096e-14 27.5303 1.94249)
(1.40838e-13 27.5303 1.94249)
(-3.53453e-14 26.9343 1.93599)
(0 26.9343 1.93599)
(-4.73037e-14 26.3532 1.92966)
(2.83844e-13 26.3532 1.92966)
(-8.20521e-14 25.7866 1.92349)
(0 25.7866 1.92349)
(0 25.2341 1.91748)
(2.85996e-13 25.2341 1.91748)
(-3.58834e-14 24.6951 1.91162)
(0 24.6951 1.91162)
(4.39306e-14 24.1694 1.90591)
(1.44067e-13 24.1694 1.90591)
(3.61499e-14 23.6565 1.90035)
(2.89199e-13 23.6565 1.90035)
(-3.62825e-14 23.156 1.89493)
(1.4513e-13 23.156 1.89493)
(-5.14482e-15 22.6675 1.88965)
(1.45659e-13 22.6675 1.88965)
(-7.30931e-14 22.1907 1.88449)
(1.46186e-13 22.1907 1.88449)
(-4.00503e-14 21.7253 1.87947)
(2.93424e-13 21.7253 1.87947)
(0 21.271 1.87457)
(1.0792e-13 21.271 1.87457)
(-3.69398e-14 20.8273 1.86978)
(-3.8596e-14 20.8273 1.86978)
(7.49589e-14 20.394 1.86511)
(-3.78887e-14 20.394 1.86511)
(0 19.9709 1.86056)
(-3.71944e-14 19.9709 1.86056)
(-3.733e-14 19.5575 1.85611)
(-3.65128e-14 19.5575 1.85611)
(-3.74594e-14 19.1537 1.85176)
(-1.85681e-13 19.1537 1.85176)
(-3.75885e-14 18.7591 1.84752)
(3.00708e-13 18.7591 1.84752)
(0 18.3736 1.84337)
(1.50869e-13 18.3736 1.84337)
(-3.78457e-14 17.9968 1.83931)
(1.17474e-13 17.9968 1.83931)
(0 17.6285 1.83534)
(1.18608e-13 17.6285 1.83534)
(-3.81018e-14 17.2685 1.83146)
(1.52407e-13 17.2685 1.83146)
(0 16.9165 1.82766)
(1.52918e-13 16.9165 1.82766)
(-3.83567e-14 16.5724 1.82394)
(0 16.5724 1.82394)
(-3.84838e-14 16.2359 1.8203)
(0 16.2359 1.8203)
(-3.86106e-14 15.9068 1.81672)
(0 15.9068 1.81672)
(-2.08458e-14 15.5849 1.81322)
(-1.54949e-13 15.5849 1.81322)
(0 15.2701 1.80978)
(0 15.2701 1.80978)
(0 14.9621 1.8064)
(0 14.9621 1.8064)
(1.5185e-13 14.6607 1.80308)
(0 14.6607 1.80308)
(-9.45751e-14 14.3658 1.79982)
(1.56963e-13 14.3658 1.79982)
(-3.93662e-14 14.0772 1.7966)
(1.57465e-13 14.0772 1.7966)
(-3.94913e-14 13.7947 1.79344)
(0 13.7947 1.79344)
(0 13.5182 1.79032)
(1.58465e-13 13.5182 1.79032)
(-3.97408e-14 13.2475 1.78724)
(-2.10352e-13 13.2475 1.78724)
(3.98653e-14 12.9825 1.7842)
(1.59461e-13 12.9825 1.7842)
(3.99895e-14 12.7231 1.78119)
(2.0948e-13 12.7231 1.78119)
(4.01135e-14 12.469 1.77822)
(0 12.469 1.77822)
(-4.7724e-14 12.2201 1.77527)
(1.60949e-13 12.2201 1.77527)
(-4.03609e-14 11.9763 1.77235)
(0 11.9763 1.77235)
(0 11.7376 1.76944)
(1.61937e-13 11.7376 1.76944)
(-4.06074e-14 11.5036 1.76655)
(-4.51482e-14 11.5036 1.76655)
(0 11.2744 1.76368)
(0 11.2744 1.76368)
(0 11.0498 1.76081)
(1.63413e-13 11.0498 1.76081)
(0 10.8297 1.75795)
(1.63903e-13 10.8297 1.75795)
(-4.10982e-14 10.614 1.75509)
(0 10.614 1.75509)
(-4.12203e-14 10.4025 1.75222)
(0 10.4025 1.75222)
(-4.13423e-14 10.1951 1.74935)
(0 10.1951 1.74935)
(4.32625e-14 9.99184 1.74646)
(1.65856e-13 9.99184 1.74646)
(-8.58182e-14 9.79249 1.74355)
(1.66343e-13 9.79249 1.74355)
(-3.82253e-14 9.59699 1.74063)
(1.66828e-13 9.59699 1.74063)
(-4.18283e-14 9.40524 1.73768)
(-3.75249e-14 9.40524 1.73768)
(-7.87865e-14 9.21714 1.73469)
(0 9.21714 1.73469)
(0 9.0326 1.73167)
(0 9.0326 1.73167)
(0 8.85153 1.72861)
(1.68763e-13 8.85153 1.72861)
(-4.2311e-14 8.67383 1.72551)
(-1.69244e-13 8.67383 1.72551)
(0 8.49943 1.72234)
(0 8.49943 1.72234)
(-4.25511e-14 8.32825 1.71912)
(-4.07576e-13 8.32825 1.71912)
(-4.26709e-14 8.16018 1.71584)
(0 8.16018 1.71584)
(0 7.99517 1.71248)
(0 7.99517 1.71248)
(0 7.83312 1.70905)
(1.71639e-13 7.83312 1.70905)
(-8.60576e-14 7.67397 1.70554)
(3.4423e-13 7.67397 1.70554)
(0 7.51762 1.70193)
(1.72591e-13 7.51762 1.70193)
(-4.32663e-14 7.36402 1.69822)
(-6.01123e-14 7.36402 1.69822)
(0 7.21309 1.69441)
(-1.73538e-13 7.21309 1.69441)
(-4.35027e-14 7.06476 1.69048)
(-5.79294e-14 7.06476 1.69048)
(-5.68679e-14 6.91895 1.68643)
(2.3135e-13 6.91895 1.68643)
(0 6.7756 1.68224)
(1.74953e-13 6.7756 1.68224)
(4.38555e-14 6.63464 1.67792)
(3.50844e-13 6.63464 1.67792)
(4.39726e-14 6.49601 1.67344)
(1.7589e-13 6.49601 1.67344)
(0 6.35963 1.6688)
(1.76357e-13 6.35963 1.6688)
(4.42058e-14 6.22545 1.66399)
(1.76823e-13 6.22545 1.66399)
(-4.4322e-14 6.0934 1.659)
(3.54576e-13 6.0934 1.659)
(-4.44378e-14 5.96342 1.65381)
(-1.77751e-13 5.96342 1.65381)
(4.90467e-14 5.83544 1.64842)
(0 5.83544 1.64842)
(-4.46685e-14 5.70941 1.6428)
(-9.62959e-14 5.70941 1.6428)
(4.96479e-15 5.58527 1.63695)
(-9.45313e-14 5.58527 1.63695)
(-4.48977e-14 5.46294 1.63085)
(1.79591e-13 5.46294 1.63085)
(0 5.34238 1.62448)
(0 5.34238 1.62448)
(-4.51254e-14 5.22352 1.61784)
(0 5.22352 1.61784)
(-4.38952e-14 5.10631 1.61089)
(-8.77904e-14 5.10631 1.61089)
(4.53514e-14 4.99068 1.60363)
(3.62811e-13 4.99068 1.60363)
(9.09275e-14 4.87657 1.59602)
(-1.81855e-13 4.87657 1.59602)
(9.11512e-14 4.76393 1.58806)
(0 4.76393 1.58806)
(9.84362e-15 4.6527 1.57972)
(4.47026e-13 4.6527 1.57972)
(4.57978e-14 4.54281 1.57098)
(1.03155e-13 4.54281 1.57098)
(4.5908e-14 4.4342 1.5618)
(1.83632e-13 4.4342 1.5618)
(-4.60178e-14 4.32682 1.55217)
(1.84071e-13 4.32682 1.55217)
(2.95896e-14 4.22059 1.54205)
(-7.57164e-14 4.22059 1.54205)
(7.4329e-14 4.11546 1.53141)
(1.84941e-13 4.11546 1.53141)
(-1.97194e-14 4.01137 1.52022)
(1.12406e-13 4.01137 1.52022)
(-4.64503e-14 3.90824 1.50845)
(0 3.90824 1.50845)
(0 3.806 1.49605)
(4.42771e-13 3.806 1.49605)
(0 3.7046 1.48298)
(-6.90287e-14 3.7046 1.48298)
(4.67671e-14 3.60395 1.4692)
(-2.54832e-13 3.60395 1.4692)
(4.68711e-14 3.50398 1.45466)
(0 3.50398 1.45466)
(-2.86453e-14 3.40461 1.43931)
(0 3.40461 1.43931)
(3.00462e-14 3.30577 1.42308)
(-6.41064e-14 3.30577 1.42308)
(0 3.20736 1.40593)
(1.8871e-13 3.20736 1.40593)
(0 3.1093 1.38777)
(1.8911e-13 3.1093 1.38777)
(-1.32699e-14 3.01149 1.36855)
(2.50152e-13 3.01149 1.36855)
(0 2.91384 1.34817)
(-2.49432e-13 2.91384 1.34817)
(-4.75708e-14 2.81624 1.32655)
(0 2.81624 1.32655)
(-4.7666e-14 2.71857 1.30359)
(1.33291e-13 2.71857 1.30359)
(0 2.62072 1.27919)
(1.91039e-13 2.62072 1.27919)
(7.43748e-15 2.52256 1.25324)
(-1.91409e-13 2.52256 1.25324)
(4.7943e-14 2.42395 1.2256)
(2.74991e-13 2.42395 1.2256)
(0 2.32475 1.19614)
(1.38847e-13 2.32475 1.19614)
(4.18605e-15 2.2248 1.16472)
(-5.23055e-14 2.2248 1.16472)
(4.8205e-14 2.12393 1.13115)
(1.9282e-13 2.12393 1.13115)
(2.1177e-15 2.02196 1.09526)
(1.93154e-13 2.02196 1.09526)
(-4.83698e-14 1.9187 1.05685)
(1.93479e-13 1.9187 1.05685)
(0 1.81394 1.0157)
(0 1.81394 1.0157)
(4.85254e-14 1.70748 0.971581)
(0 1.70748 0.971581)
(-9.71988e-14 1.59908 0.924232)
(1.94398e-13 1.59908 0.924232)
(0 1.48851 0.873383)
(0 1.48851 0.873383)
(0 1.37554 0.818746)
(0 1.37554 0.818746)
(4.88037e-14 1.25993 0.76002)
(1.95215e-13 1.25993 0.76002)
(-4.88652e-14 1.14144 0.696894)
(1.95461e-13 1.14144 0.696894)
(-6.24596e-15 1.01988 0.629057)
(-8.53541e-14 1.01988 0.629057)
(0 0.895039 0.556202)
(-8.379e-14 0.895039 0.556202)
(8.22546e-14 0.766788 0.478039)
(-2.78359e-13 0.766788 0.478039)
(-4.9071e-14 0.635026 0.394306)
(0 0.635026 0.394306)
(-8.87446e-14 0.499725 0.304781)
(2.75711e-13 0.499725 0.304781)
(0 0.360928 0.209289)
(1.96581e-13 0.360928 0.209289)
(-4.91738e-14 0.218761 0.107715)
(0 0.218761 0.107715)
(-4.91962e-14 4.54947e-07 1.68388e-07)
(3.9368e-13 4.54981e-07 1.68401e-07)
(2.28849e-16 874.935 -1.61919)
(-2.28849e-16 874.935 -1.61919)
(-8.98622e-16 874.933 -4.88778)
(0 874.933 -4.88778)
(-3.97995e-16 874.929 -6.78345)
(0 874.929 -6.78345)
(6.52137e-16 874.918 -6.90997)
(0 874.918 -6.90997)
(-2.2275e-15 874.895 -7.03869)
(0 874.895 -7.03869)
(1.58401e-15 874.841 -7.16947)
(0 874.841 -7.16947)
(-3.277e-15 874.726 -7.30199)
(-6.554e-15 874.726 -7.30199)
(1.15363e-14 874.495 -7.43571)
(-6.4339e-15 874.495 -7.43571)
(-9.36458e-15 874.066 -7.56972)
(1.21943e-14 874.066 -7.56972)
(3.55538e-15 873.317 -7.70267)
(-1.42215e-14 873.317 -7.70267)
(2.05699e-15 872.077 -7.83267)
(-1.62873e-14 872.077 -7.83267)
(1.65483e-14 870.125 -7.95716)
(-1.19502e-14 870.125 -7.95716)
(7.31504e-16 867.183 -8.07293)
(-2.64021e-14 867.183 -8.07293)
(1.15163e-14 862.927 -8.17612)
(-2.8478e-14 862.927 -8.17612)
(6.23532e-15 857.001 -8.26241)
(-3.62465e-14 857.001 -8.26241)
(0 849.047 -8.32734)
(0 849.047 -8.32734)
(7.372e-15 838.738 -8.36667)
(-2.9488e-14 838.738 -8.36667)
(7.95114e-15 825.825 -8.37688)
(3.18046e-14 825.825 -8.37688)
(8.53535e-15 810.17 -8.35561)
(0 810.17 -8.35561)
(1.82452e-14 791.778 -8.30197)
(0 791.778 -8.30197)
(1.98283e-14 770.8 -8.21667)
(2.87241e-14 770.8 -8.21667)
(1.02966e-14 747.524 -8.10191)
(4.11862e-14 747.524 -8.10191)
(-1.08783e-14 722.346 -7.96113)
(0 722.346 -7.96113)
(4.205e-14 695.727 -7.79854)
(-1.91435e-14 695.727 -7.79854)
(1.20193e-14 668.149 -7.61877)
(0 668.149 -7.61877)
(0 640.081 -7.42643)
(1.84483e-14 640.081 -7.42643)
(-1.81102e-14 611.947 -7.22584)
(-1.81102e-14 611.947 -7.22584)
(2.72954e-14 584.108 -7.02083)
(0 584.108 -7.02083)
(1.41635e-14 556.857 -6.81465)
(5.66538e-14 556.857 -6.81465)
(2.93295e-14 530.419 -6.60993)
(0 530.419 -6.60993)
(3.19701e-14 504.956 -6.40873)
(-1.68188e-14 504.956 -6.40873)
(1.56232e-14 480.575 -6.2126)
(-1.65106e-14 480.575 -6.2126)
(1.60807e-14 457.337 -6.02265)
(-4.81146e-14 457.337 -6.02265)
(0 435.27 -5.83963)
(-8.2007e-14 435.27 -5.83963)
(0 414.374 -5.66398)
(0 414.374 -5.66398)
(1.73699e-14 394.626 -5.49594)
(-6.94796e-14 394.626 -5.49594)
(5.44243e-15 375.994 -5.33556)
(0 375.994 -5.33556)
(-1.81649e-14 358.431 -5.18276)
(-7.26598e-14 358.431 -5.18276)
(-1.85447e-14 341.887 -5.03739)
(-1.48358e-13 341.887 -5.03739)
(-1.89135e-14 326.309 -4.8992)
(0 326.309 -4.8992)
(-1.92716e-14 311.642 -4.76793)
(0 311.642 -4.76793)
(7.82579e-15 297.831 -4.64326)
(-1.84404e-13 297.831 -4.64326)
(3.99168e-14 284.822 -4.52489)
(0 284.822 -4.52489)
(2.0288e-14 272.564 -4.4125)
(-1.07601e-13 272.564 -4.4125)
(6.71822e-14 261.008 -4.30576)
(5.64716e-14 261.008 -4.30576)
(4.64103e-14 250.108 -4.20437)
(-1.09176e-13 250.108 -4.20437)
(-4.24538e-14 239.819 -4.10802)
(-8.49076e-14 239.819 -4.10802)
(4.30493e-14 230.101 -4.01643)
(8.60987e-14 230.101 -4.01643)
(4.82256e-14 220.915 -3.92932)
(0 220.915 -3.92932)
(2.52422e-14 212.227 -3.84643)
(-2.24139e-13 212.227 -3.84643)
(2.23775e-14 204.002 -3.76751)
(-8.95099e-14 204.002 -3.76751)
(2.26493e-14 196.21 -3.69233)
(0 196.21 -3.69233)
(0 188.822 -3.62066)
(-1.83324e-13 188.822 -3.62066)
(2.31762e-14 181.813 -3.55232)
(0 181.813 -3.55232)
(2.52833e-14 175.157 -3.48709)
(2.15801e-14 175.157 -3.48709)
(0 168.833 -3.42482)
(-1.37099e-13 168.833 -3.42482)
(4.47247e-14 162.818 -3.36531)
(-4.1593e-14 162.818 -3.36531)
(2.41697e-14 157.095 -3.30843)
(-1.37509e-13 157.095 -3.30843)
(4.00826e-14 151.644 -3.25401)
(-1.3771e-13 151.644 -3.25401)
(0 146.449 -3.20193)
(-9.85592e-14 146.449 -3.20193)
(2.48689e-14 141.494 -3.15206)
(0 141.494 -3.15206)
(0 136.766 -3.10427)
(-3.79192e-14 136.766 -3.10427)
(9.97648e-14 132.251 -3.05845)
(-3.72244e-14 132.251 -3.05845)
(2.55343e-14 127.936 -3.0145)
(-3.65423e-14 127.936 -3.0145)
(0 123.811 -2.97233)
(-1.02997e-13 123.811 -2.97233)
(0 119.863 -2.93183)
(0 119.863 -2.93183)
(2.61701e-14 116.084 -2.89292)
(-1.0468e-13 116.084 -2.89292)
(0 112.464 -2.85552)
(-1.05504e-13 112.464 -2.85552)
(0 108.994 -2.81956)
(3.33146e-14 108.994 -2.81956)
(-2.67796e-14 105.666 -2.78496)
(2.14236e-13 105.666 -2.78496)
(0 102.473 -2.75166)
(0 102.473 -2.75166)
(2.71728e-14 99.4075 -2.7196)
(-1.08691e-13 99.4075 -2.7196)
(2.73658e-14 96.4629 -2.68871)
(-1.09463e-13 96.4629 -2.68871)
(3.0372e-14 93.633 -2.65894)
(-2.20452e-13 93.633 -2.65894)
(-2.7745e-14 90.9121 -2.63024)
(-5.9631e-14 90.9121 -2.63024)
(5.85383e-14 88.2948 -2.60256)
(0 88.2948 -2.60256)
(0 85.7758 -2.57585)
(1.12463e-13 85.7758 -2.57585)
(-9.16928e-17 83.3504 -2.55007)
(-4.80973e-13 83.3504 -2.55007)
(5.69567e-14 81.0142 -2.52518)
(-1.13913e-13 81.0142 -2.52518)
(-2.86569e-14 78.7628 -2.50114)
(0 78.7628 -2.50114)
(-2.88337e-14 76.5923 -2.47792)
(-1.15335e-13 76.5923 -2.47792)
(-5.80175e-14 74.4989 -2.45547)
(-1.4223e-13 74.4989 -2.45547)
(-2.91821e-14 72.479 -2.43376)
(-2.84887e-13 72.479 -2.43376)
(5.87078e-14 70.5295 -2.41277)
(-1.17416e-13 70.5295 -2.41277)
(2.95242e-14 68.647 -2.39246)
(1.18097e-13 68.647 -2.39246)
(-4.8654e-14 66.8286 -2.37281)
(1.18772e-13 66.8286 -2.37281)
(2.98602e-14 65.0716 -2.35379)
(-1.19441e-13 65.0716 -2.35379)
(-1.06939e-13 63.3731 -2.33537)
(1.20104e-13 63.3731 -2.33537)
(3.01906e-14 61.7309 -2.31754)
(0 61.7309 -2.31754)
(1.48307e-14 60.1423 -2.30026)
(0 60.1423 -2.30026)
(0 58.6053 -2.28352)
(0 58.6053 -2.28352)
(3.06764e-14 57.1176 -2.2673)
(1.22706e-13 57.1176 -2.2673)
(4.27458e-14 55.6773 -2.25158)
(-1.23344e-13 55.6773 -2.25158)
(0 54.2823 -2.23633)
(0 54.2823 -2.23633)
(7.23451e-14 52.9309 -2.22154)
(8.34125e-14 52.9309 -2.22154)
(0 51.6214 -2.2072)
(-4.04387e-14 51.6214 -2.2072)
(0 50.3521 -2.19328)
(-2.51702e-13 50.3521 -2.19328)
(0 49.1214 -2.17978)
(0 49.1214 -2.17978)
(3.17699e-14 47.9278 -2.16667)
(-1.2708e-13 47.9278 -2.16667)
(3.1922e-14 46.77 -2.15395)
(0 46.77 -2.15395)
(3.20732e-14 45.6465 -2.1416)
(2.56585e-13 45.6465 -2.1416)
(3.22234e-14 44.556 -2.12961)
(0 44.556 -2.12961)
(3.23728e-14 43.4974 -2.11796)
(-1.29491e-13 43.4974 -2.11796)
(-2.35572e-15 42.4695 -2.10665)
(1.30085e-13 42.4695 -2.10665)
(0 41.4711 -2.09566)
(0 41.4711 -2.09566)
(3.44052e-14 40.5012 -2.08498)
(-1.98485e-13 40.5012 -2.08498)
(0 39.5587 -2.0746)
(0 39.5587 -2.0746)
(0 38.6427 -2.06451)
(0 38.6427 -2.06451)
(3.17965e-14 37.7523 -2.0547)
(0 37.7523 -2.0547)
(6.24277e-14 36.8865 -2.04517)
(-1.33584e-13 36.8865 -2.04517)
(-6.12837e-14 36.0445 -2.0359)
(-3.06419e-14 36.0445 -2.0359)
(0 35.2254 -2.02689)
(0 35.2254 -2.02689)
(4.29437e-15 34.4286 -2.01812)
(0 34.4286 -2.01812)
(-3.39647e-14 33.6532 -2.0096)
(0 33.6532 -2.0096)
(-3.41053e-14 32.8986 -2.00131)
(0 32.8986 -2.00131)
(6.30994e-15 32.164 -1.99324)
(0 32.164 -1.99324)
(0 31.4487 -1.98539)
(0 31.4487 -1.98539)
(-6.90471e-14 30.7522 -1.97775)
(-2.76188e-13 30.7522 -1.97775)
(0 30.0738 -1.97031)
(0 30.0738 -1.97031)
(3.47995e-14 29.413 -1.96307)
(0 29.413 -1.96307)
(-5.09359e-14 28.7692 -1.95603)
(1.39747e-13 28.7692 -1.95603)
(0 28.1418 -1.94917)
(-1.90296e-13 28.1418 -1.94917)
(0 27.5303 -1.94249)
(-1.89925e-13 27.5303 -1.94249)
(-3.53453e-14 26.9343 -1.93599)
(-1.41381e-13 26.9343 -1.93599)
(4.73037e-14 26.3532 -1.92966)
(9.46182e-14 26.3532 -1.92966)
(3.56152e-14 25.7866 -1.92349)
(0 25.7866 -1.92349)
(7.14991e-14 25.2341 -1.91748)
(1.42998e-13 25.2341 -1.91748)
(-3.58834e-14 24.6951 -1.91162)
(9.8783e-14 24.6951 -1.91162)
(0 24.1694 -1.90591)
(-4.39306e-14 24.1694 -1.90591)
(3.61499e-14 23.6565 -1.90035)
(0 23.6565 -1.90035)
(3.62825e-14 23.156 -1.89493)
(1.4513e-13 23.156 -1.89493)
(3.64147e-14 22.6675 -1.88965)
(1.04099e-13 22.6675 -1.88965)
(7.73445e-14 22.1907 -1.88449)
(-4.0798e-14 22.1907 -1.88449)
(4.00503e-14 21.7253 -1.87947)
(-1.46712e-13 21.7253 -1.87947)
(7.61255e-14 21.271 -1.87457)
(-3.93164e-14 21.271 -1.87457)
(1.65615e-15 20.8273 -1.86978)
(-3.8596e-14 20.8273 -1.86978)
(0 20.394 -1.86511)
(0 20.394 -1.86511)
(3.72003e-14 19.9709 -1.86056)
(0 19.9709 -1.86056)
(7.466e-14 19.5575 -1.85611)
(0 19.5575 -1.85611)
(0 19.1537 -1.85176)
(0 19.1537 -1.85176)
(7.27754e-14 18.7591 -1.84752)
(3.00708e-13 18.7591 -1.84752)
(3.45421e-14 18.3736 -1.84337)
(-3.45421e-14 18.3736 -1.84337)
(-7.17549e-14 17.9968 -1.83931)
(0 17.9968 -1.83931)
(-3.79739e-14 17.6285 -1.83534)
(0 17.6285 -1.83534)
(3.26778e-14 17.2685 -1.83146)
(0 17.2685 -1.83146)
(3.82294e-14 16.9165 -1.82766)
(0 16.9165 -1.82766)
(6.29823e-14 16.5724 -1.82394)
(0 16.5724 -1.82394)
(7.69676e-14 16.2359 -1.8203)
(-1.53935e-13 16.2359 -1.8203)
(7.72212e-14 15.9068 -1.81672)
(-1.54442e-13 15.9068 -1.81672)
(2.08458e-14 15.5849 -1.81322)
(-4.64846e-13 15.5849 -1.81322)
(1.96277e-14 15.2701 -1.80978)
(-5.84911e-14 15.2701 -1.80978)
(0 14.9621 -1.8064)
(9.85386e-14 14.9621 -1.8064)
(-5.63671e-14 14.6607 -1.80308)
(-5.63671e-14 14.6607 -1.80308)
(-1.60933e-14 14.3658 -1.79982)
(5.53342e-14 14.3658 -1.79982)
(-3.93662e-14 14.0772 -1.7966)
(-2.11785e-13 14.0772 -1.7966)
(0 13.7947 -1.79344)
(0 13.7947 -1.79344)
(3.96162e-14 13.5182 -1.79032)
(1.58465e-13 13.5182 -1.79032)
(7.94817e-14 13.2475 -1.78724)
(-1.58963e-13 13.2475 -1.78724)
(0 12.9825 -1.7842)
(-1.59461e-13 12.9825 -1.7842)
(3.99895e-14 12.7231 -1.78119)
(0 12.7231 -1.78119)
(-4.86148e-14 12.469 -1.77822)
(-1.60454e-13 12.469 -1.77822)
(0 12.2201 -1.77527)
(-3.69622e-13 12.2201 -1.77527)
(0 11.9763 -1.77235)
(-4.68495e-14 11.9763 -1.77235)
(8.09685e-14 11.7376 -1.76944)
(1.61937e-13 11.7376 -1.76944)
(4.06074e-14 11.5036 -1.76655)
(-4.51482e-14 11.5036 -1.76655)
(0 11.2744 -1.76368)
(1.62922e-13 11.2744 -1.76368)
(8.43619e-14 11.0498 -1.76081)
(-2.06922e-13 11.0498 -1.76081)
(0 10.8297 -1.75795)
(-1.63903e-13 10.8297 -1.75795)
(0 10.614 -1.75509)
(4.19287e-14 10.614 -1.75509)
(4.12203e-14 10.4025 -1.75222)
(-2.06042e-13 10.4025 -1.75222)
(8.26847e-14 10.1951 -1.74935)
(-1.65369e-13 10.1951 -1.74935)
(4.14641e-14 9.99184 -1.74646)
(1.26191e-13 9.99184 -1.74646)
(4.42325e-14 9.79249 -1.74355)
(1.27404e-13 9.79249 -1.74355)
(4.17071e-14 9.59699 -1.74063)
(0 9.59699 -1.74063)
(-4.30343e-15 9.40524 -1.73768)
(-3.75249e-14 9.40524 -1.73768)
(7.87865e-14 9.21714 -1.73469)
(-2.04634e-13 9.21714 -1.73469)
(4.20701e-14 9.0326 -1.73167)
(1.6828e-13 9.0326 -1.73167)
(1.19881e-13 8.85153 -1.72861)
(-3.54995e-14 8.85153 -1.72861)
(3.4849e-14 8.67383 -1.72551)
(1.69244e-13 8.67383 -1.72551)
(-4.24312e-14 8.49943 -1.72234)
(-2.03935e-13 8.49943 -1.72234)
(8.51023e-14 8.32825 -1.71912)
(-2.37372e-13 8.32825 -1.71912)
(2.32653e-14 8.16018 -1.71584)
(-4.07303e-13 8.16018 -1.71584)
(4.27904e-14 7.99517 -1.71248)
(-1.71162e-13 7.99517 -1.71248)
(-6.35418e-14 7.83312 -1.70905)
(1.08097e-13 7.83312 -1.70905)
(2.36801e-14 7.67397 -1.70554)
(1.72115e-13 7.67397 -1.70554)
(1.65616e-13 7.51762 -1.70193)
(-2.33825e-13 7.51762 -1.70193)
(-1.68461e-14 7.36402 -1.69822)
(0 7.36402 -1.69822)
(0 7.21309 -1.69441)
(-2.32549e-13 7.21309 -1.69441)
(0 7.06476 -1.69048)
(-1.74011e-13 7.06476 -1.69048)
(0 6.91895 -1.68643)
(-2.3135e-13 6.91895 -1.68643)
(0 6.7756 -1.68224)
(0 6.7756 -1.68224)
(4.38555e-14 6.63464 -1.67792)
(0 6.63464 -1.67792)
(4.39726e-14 6.49601 -1.67344)
(1.7589e-13 6.49601 -1.67344)
(4.40893e-14 6.35963 -1.6688)
(0 6.35963 -1.6688)
(0 6.22545 -1.66399)
(1.76823e-13 6.22545 -1.66399)
(0 6.0934 -1.659)
(0 6.0934 -1.659)
(0 5.96342 -1.65381)
(-1.77751e-13 5.96342 -1.65381)
(-4.90467e-14 5.83544 -1.64842)
(0 5.83544 -1.64842)
(5.16275e-14 5.70941 -1.6428)
(-9.62959e-14 5.70941 -1.6428)
(-4.47833e-14 5.58527 -1.63695)
(-1.79133e-13 5.58527 -1.63695)
(1.50184e-15 5.46294 -1.63085)
(-2.2599e-13 5.46294 -1.63085)
(0 5.34238 -1.62448)
(0 5.34238 -1.62448)
(4.47146e-14 5.22352 -1.61784)
(-3.61003e-13 5.22352 -1.61784)
(0 5.10631 -1.61089)
(-2.2485e-13 5.10631 -1.61089)
(0 4.99068 -1.60363)
(0 4.99068 -1.60363)
(0 4.87657 -1.59602)
(-2.66457e-13 4.87657 -1.59602)
(-4.04951e-15 4.76393 -1.58806)
(-8.30522e-14 4.76393 -1.58806)
(5.06087e-14 4.6527 -1.57972)
(1.01217e-13 4.6527 -1.57972)
(9.15955e-14 4.54281 -1.57098)
(0 4.54281 -1.57098)
(9.18161e-14 4.4342 -1.5618)
(-2.62202e-13 4.4342 -1.5618)
(8.45827e-14 4.32682 -1.55217)
(0 4.32682 -1.55217)
(-4.61269e-14 4.22059 -1.54205)
(0 4.22059 -1.54205)
(0 4.11546 -1.53141)
(1.84941e-13 4.11546 -1.53141)
(2.66238e-14 4.01137 -1.52022)
(1.12406e-13 4.01137 -1.52022)
(7.16298e-14 3.90824 -1.50845)
(-2.57431e-13 3.90824 -1.50845)
(0 3.806 -1.49605)
(-2.56544e-13 3.806 -1.49605)
(-1.15691e-13 3.7046 -1.48298)
(-1.86649e-13 3.7046 -1.48298)
(9.35342e-14 3.60395 -1.4692)
(-1.87068e-13 3.60395 -1.4692)
(4.68711e-14 3.50398 -1.45466)
(0 3.50398 -1.45466)
(-6.5303e-14 3.40461 -1.43931)
(1.87897e-13 3.40461 -1.43931)
(0 3.30577 -1.42308)
(0 3.30577 -1.42308)
(6.29316e-14 3.20736 -1.40593)
(-2.51641e-13 3.20736 -1.40593)
(0 3.1093 -1.38777)
(0 3.1093 -1.38777)
(-1.32699e-14 3.01149 -1.36855)
(1.28859e-13 3.01149 -1.36855)
(1.07009e-13 2.91384 -1.34817)
(-4.39329e-13 2.91384 -1.34817)
(0 2.81624 -1.32655)
(0 2.81624 -1.32655)
(4.7666e-14 2.71857 -1.30359)
(-5.73731e-14 2.71857 -1.30359)
(4.77598e-14 2.62072 -1.27919)
(-1.91039e-13 2.62072 -1.27919)
(-4.78522e-14 2.52256 -1.25324)
(1.36119e-13 2.52256 -1.25324)
(4.16095e-14 2.42395 -1.2256)
(1.91772e-13 2.42395 -1.2256)
(4.27823e-14 2.32475 -1.19614)
(0 2.32475 -1.19614)
(-4.18605e-15 2.2248 -1.16472)
(-5.23055e-14 2.2248 -1.16472)
(4.8205e-14 2.12393 -1.13115)
(0 2.12393 -1.13115)
(4.82884e-14 2.02196 -1.09526)
(-2.4356e-13 2.02196 -1.09526)
(-1.1127e-15 1.9187 -1.05685)
(2.42962e-13 1.9187 -1.05685)
(0 1.81394 -1.0157)
(-2.42371e-13 1.81394 -1.0157)
(4.85254e-14 1.70748 -0.971581)
(-1.94102e-13 1.70748 -0.971581)
(9.54111e-14 1.59908 -0.924232)
(0 1.59908 -0.924232)
(4.59539e-14 1.48851 -0.873383)
(1.94682e-13 1.48851 -0.873383)
(0 1.37554 -0.818746)
(-3.8991e-13 1.37554 -0.818746)
(0 1.25993 -0.76002)
(-1.95215e-13 1.25993 -0.76002)
(4.88652e-14 1.14144 -0.696894)
(-1.95461e-13 1.14144 -0.696894)
(4.8923e-14 1.01988 -0.629057)
(1.10338e-13 1.01988 -0.629057)
(4.89768e-14 0.895039 -0.556202)
(-3.91814e-13 0.895039 -0.556202)
(9.80524e-14 0.766788 -0.478039)
(-1.96105e-13 0.766788 -0.478039)
(0 0.635026 -0.394306)
(0 0.635026 -0.394306)
(-8.87446e-14 0.499725 -0.304781)
(1.96443e-13 0.499725 -0.304781)
(0 0.360928 -0.209289)
(-2.74396e-13 0.360928 -0.209289)
(-4.91738e-14 0.218761 -0.107715)
(1.20306e-13 0.218761 -0.107715)
(1.24186e-13 4.54893e-07 -1.68368e-07)
(1.97005e-13 4.54949e-07 -1.68389e-07)
(4.92513e-14 -3.01522e-08 1.11625e-08)
(1.96785e-13 -1.85478e-08 6.86498e-09)
(7.63891e-14 -0.218761 0.107714)
(3.17001e-13 -0.218761 0.107714)
(-4.91452e-14 -0.360928 0.209289)
(-7.78151e-14 -0.360928 0.209289)
(0 -0.499724 0.30478)
(1.96443e-13 -0.499724 0.30478)
(-4.03736e-14 -0.635026 0.394306)
(4.32942e-13 -0.635026 0.394306)
(3.32284e-14 -0.766788 0.478039)
(-2.78359e-13 -0.766788 0.478039)
(0 -0.895039 0.556202)
(8.379e-14 -0.895039 0.556202)
(3.64311e-14 -1.01988 0.629057)
(-2.81046e-13 -1.01988 0.629057)
(0 -1.14144 0.696894)
(0 -1.14144 0.696894)
(1.37374e-13 -1.25993 0.76002)
(0 -1.25993 0.76002)
(0 -1.37554 0.818746)
(1.94955e-13 -1.37554 0.818746)
(4.59539e-14 -1.48851 0.873383)
(1.94682e-13 -1.48851 0.873383)
(0 -1.59908 0.924232)
(0 -1.59908 0.924232)
(-8.39835e-16 -1.70748 0.971581)
(-2.41787e-13 -1.70748 0.971581)
(1.94049e-13 -1.81394 1.0157)
(-9.71514e-14 -1.81394 1.0157)
(0 -1.9187 1.05685)
(0 -1.9187 1.05685)
(9.65769e-14 -2.02196 1.09526)
(1.42748e-13 -2.02196 1.09526)
(3.14209e-15 -2.12393 1.13115)
(-2.44167e-13 -2.12393 1.13115)
(-4.39334e-14 -2.2248 1.16472)
(-5.23055e-14 -2.2248 1.16472)
(5.24978e-15 -2.32475 1.19614)
(1.38847e-13 -2.32475 1.19614)
(-9.5886e-14 -2.42395 1.2256)