/*--------------------------------*- C++ -*----------------------------------*\
| =========                 |                                                 |
| \\      /  F ield         | OpenFOAM: The Open Source CFD Toolbox           |
|  \\    /   O peration     | Version:  2106                                  |
|   \\  /    A nd           | Website:  www.openfoam.com                      |
|    \\/     M anipulation  |                                                 |
\*---------------------------------------------------------------------------*/
FoamFile
{
    version     2.0;
    format      ascii;
    arch        "LSB;label=32;scalar=64";
    class       volScalarField;
    location    "10030";
    object      p;
}
// * * * * * * * * * * * * * * * * * * * * * * * * * * * * * * * * * * * * * //

dimensions      [0 2 -2 0 0 0 0];

internalField   nonuniform List<scalar> 
2000
(
7.56418e-16
1.77436e-14
1.58326e-15
1.7744e-14
1.78879e-15
1.77446e-14
1.85679e-15
1.77456e-14
1.96676e-15
1.77471e-14
2.09994e-15
1.7749e-14
2.23321e-15
1.77514e-14
2.36262e-15
1.77543e-14
2.48883e-15
1.77576e-14
2.61212e-15
1.77614e-14
2.73244e-15
1.77656e-14
2.8499e-15
1.77702e-14
2.96451e-15
1.77753e-14
3.07648e-15
1.77808e-14
3.1859e-15
1.77868e-14
3.29308e-15
1.77933e-14
3.39859e-15
1.78002e-14
3.50261e-15
1.78075e-14
3.60556e-15
1.78155e-14
3.70778e-15
1.7824e-14
3.80966e-15
1.78333e-14
3.91168e-15
1.78433e-14
4.01409e-15
1.78541e-14
4.11756e-15
1.78658e-14
4.22211e-15
1.78785e-14
4.32805e-15
1.78923e-14
4.43563e-15
1.79073e-14
4.5452e-15
1.79236e-14
4.65688e-15
1.79413e-14
4.77071e-15
1.79603e-14
4.88643e-15
1.79809e-14
5.00468e-15
1.80032e-14
5.12535e-15
1.80272e-14
5.24814e-15
1.80528e-14
5.3733e-15
1.80804e-14
5.50078e-15
1.81099e-14
5.63035e-15
1.81411e-14
5.76209e-15
1.81745e-14
5.89606e-15
1.821e-14
6.03164e-15
1.82471e-14
6.16905e-15
1.82867e-14
6.30815e-15
1.83286e-14
6.44922e-15
1.83726e-14
6.59252e-15
1.84183e-14
6.73691e-15
1.84659e-14
6.88265e-15
1.85158e-14
7.02958e-15
1.85678e-14
7.17823e-15
1.86215e-14
7.32824e-15
1.86781e-14
7.47993e-15
1.87369e-14
7.63246e-15
1.87968e-14
7.78666e-15
1.88583e-14
7.94063e-15
1.8922e-14
8.09728e-15
1.89872e-14
8.25494e-15
1.90545e-14
8.41241e-15
1.91232e-14
8.57113e-15
1.91935e-14
8.73239e-15
1.92659e-14
8.89324e-15
1.93405e-14
9.0541e-15
1.94162e-14
9.21537e-15
1.94929e-14
9.37572e-15
1.95707e-14
9.53615e-15
1.96515e-14
9.69653e-15
1.97346e-14
9.85857e-15
1.98183e-14
1.0019e-14
1.99046e-14
1.01782e-14
1.99927e-14
1.03366e-14
2.00816e-14
1.04935e-14
2.01725e-14
1.06507e-14
2.02655e-14
1.08066e-14
2.03593e-14
1.0963e-14
2.04547e-14
1.11193e-14
2.05518e-14
1.12765e-14
2.06463e-14
1.14346e-14
2.0739e-14
1.15927e-14
2.08328e-14
1.17513e-14
2.09277e-14
1.19104e-14
2.10238e-14
1.20659e-14
2.11191e-14
1.2223e-14
2.12142e-14
1.23791e-14
2.13108e-14
1.25349e-14
2.14067e-14
1.26894e-14
2.15051e-14
1.28432e-14
2.15998e-14
1.29999e-14
2.16916e-14
1.31571e-14
2.17871e-14
1.33146e-14
2.18847e-14
1.34753e-14
2.1983e-14
1.36359e-14
2.20821e-14
1.37978e-14
2.21838e-14
1.39591e-14
2.22865e-14
1.4118e-14
2.23922e-14
1.42774e-14
2.2501e-14
1.44287e-14
2.26098e-14
1.45869e-14
2.27203e-14
1.47466e-14
2.28311e-14
1.49058e-14
2.29441e-14
1.50677e-14
2.30543e-14
1.52303e-14
2.31619e-14
1.53916e-14
2.32723e-14
1.55547e-14
2.33786e-14
1.57229e-14
2.34864e-14
1.58906e-14
2.35942e-14
1.60575e-14
2.36984e-14
1.6225e-14
2.3803e-14
1.63945e-14
2.39082e-14
1.65603e-14
2.40141e-14
1.67293e-14
2.41174e-14
1.68974e-14
2.42166e-14
1.70753e-14
2.43191e-14
1.72461e-14
2.44179e-14
1.74186e-14
2.45187e-14
1.75923e-14
2.46236e-14
1.77707e-14
2.47294e-14
1.79495e-14
2.48324e-14
1.81302e-14
2.49311e-14
1.83086e-14
2.50408e-14
1.84879e-14
2.51543e-14
1.8664e-14
2.52605e-14
1.88477e-14
2.53637e-14
1.90271e-14
2.54754e-14
1.92093e-14
2.55923e-14
1.93938e-14
2.57032e-14
1.95876e-14
2.58123e-14
1.97789e-14
2.59238e-14
1.99708e-14
2.60379e-14
2.01629e-14
2.6159e-14
2.03546e-14
2.62758e-14
2.05569e-14
2.6381e-14
2.07653e-14
2.64826e-14
2.09757e-14
2.65925e-14
2.11951e-14
2.67033e-14
2.14116e-14
2.67956e-14
2.16285e-14
2.68853e-14
2.18376e-14
2.6992e-14
2.20462e-14
2.71043e-14
2.22538e-14
2.72068e-14
2.24637e-14
2.73193e-14
2.26793e-14
2.74304e-14
2.28961e-14
2.75362e-14
2.31138e-14
2.76253e-14
2.33318e-14
2.77292e-14
2.35497e-14
2.78479e-14
2.37749e-14
2.79619e-14
2.40029e-14
2.80636e-14
2.42256e-14
2.81726e-14
2.44466e-14
2.8289e-14
2.46731e-14
2.83972e-14
2.48971e-14
2.85129e-14
2.51103e-14
2.86361e-14
2.53122e-14
2.87354e-14
2.55259e-14
2.88347e-14
2.57433e-14
2.89337e-14
2.59879e-14
2.90323e-14
2.62283e-14
2.9138e-14
2.64409e-14
2.92502e-14
2.66571e-14
2.93611e-14
2.68767e-14
2.94781e-14
2.70919e-14
2.95697e-14
2.72948e-14
2.96823e-14
2.75166e-14
2.98078e-14
2.77415e-14
2.99304e-14
2.79538e-14
3.00496e-14
2.81693e-14
3.01731e-14
2.83881e-14
3.03085e-14
2.86025e-14
3.04087e-14
2.88128e-14
3.05118e-14
2.9035e-14
3.06248e-14
2.92387e-14
3.07542e-14
2.94316e-14
3.0892e-14
2.96293e-14
3.10145e-14
2.98239e-14
3.1129e-14
3.00003e-14
3.12347e-14
3.02046e-14
3.13695e-14
3.03908e-14
3.15093e-14
3.05973e-14
3.16306e-14
3.07786e-14
3.17553e-14
3.09728e-14
3.1875e-14
3.11729e-14
3.20189e-14
3.13865e-14
3.21557e-14
3.16145e-14
3.22835e-14
3.17825e-14
3.23695e-14
3.19522e-14
3.24723e-14
3.21241e-14
3.25901e-14
3.23133e-14
3.26917e-14
3.24916e-14
3.28496e-14
3.26596e-14
3.30179e-14
3.28314e-14
3.31521e-14
3.30075e-14
3.32807e-14
3.31738e-14
3.3358e-14
3.3318e-14
3.34543e-14
3.34558e-14
3.35675e-14
3.36022e-14
3.36962e-14
3.37571e-14
3.38249e-14
3.39063e-14
3.39381e-14
3.40651e-14
3.40628e-14
3.4206e-14
3.42256e-14
3.43276e-14
3.43552e-14
3.44578e-14
3.44945e-14
3.46104e-14
3.46013e-14
3.47589e-14
3.46736e-14
3.48789e-14
3.48066e-14
3.4984e-14
3.49439e-14
3.51013e-14
3.50728e-14
3.51875e-14
3.51516e-14
3.52984e-14
3.52914e-14
3.5376e-14
3.53822e-14
3.54741e-14
3.54525e-14
3.55792e-14
3.55689e-14
3.56902e-14
3.56625e-14
3.58083e-14
3.5744e-14
3.59084e-14
3.58095e-14
3.5951e-14
3.58837e-14
3.60543e-14
3.59812e-14
3.6084e-14
3.60739e-14
3.61132e-14
3.6139e-14
3.62155e-14
3.62577e-14
3.62829e-14
3.63536e-14
3.63412e-14
3.64299e-14
3.64137e-14
3.64621e-14
3.65526e-14
3.65243e-14
3.6587e-14
3.65817e-14
3.66163e-14
3.66334e-14
3.67116e-14
3.67076e-14
3.67996e-14
3.67767e-14
3.68601e-14
3.67903e-14
3.68748e-14
3.68436e-14
3.6861e-14
3.69188e-14
3.68809e-14
3.69539e-14
3.69294e-14
3.69535e-14
3.69653e-14
3.69608e-14
3.69949e-14
3.69917e-14
3.69709e-14
3.70205e-14
3.6933e-14
3.70552e-14
3.69819e-14
3.70862e-14
3.69382e-14
3.71841e-14
3.69385e-14
3.72111e-14
3.69523e-14
3.72426e-14
3.69336e-14
3.72664e-14
3.69392e-14
3.72706e-14
3.70051e-14
3.72576e-14
3.70589e-14
3.72371e-14
3.71865e-14
3.72241e-14
3.72069e-14
3.72362e-14
3.72112e-14
3.72285e-14
3.72036e-14
3.72197e-14
3.71614e-14
3.71916e-14
3.72261e-14
3.72078e-14
3.72888e-14
3.72135e-14
3.72435e-14
3.72362e-14
1.55566e-14
1.6813e-14
1.55569e-14
1.68131e-14
1.55574e-14
1.68134e-14
1.55581e-14
1.68139e-14
1.55591e-14
1.68145e-14
1.55605e-14
1.68153e-14
1.55621e-14
1.68163e-14
1.55641e-14
1.68176e-14
1.55664e-14
1.6819e-14
1.5569e-14
1.68207e-14
1.55719e-14
1.68226e-14
1.55752e-14
1.68247e-14
1.55787e-14
1.68271e-14
1.55826e-14
1.68299e-14
1.55868e-14
1.68328e-14
1.55915e-14
1.6836e-14
1.55964e-14
1.68395e-14
1.56019e-14
1.68433e-14
1.56078e-14
1.68475e-14
1.56142e-14
1.68521e-14
1.56211e-14
1.68571e-14
1.56287e-14
1.68625e-14
1.56369e-14
1.68684e-14
1.56458e-14
1.68749e-14
1.56555e-14
1.68817e-14
1.56662e-14
1.68893e-14
1.56777e-14
1.68975e-14
1.56901e-14
1.69063e-14
1.57035e-14
1.69157e-14
1.5718e-14
1.69262e-14
1.57337e-14
1.69375e-14
1.57504e-14
1.69497e-14
1.57687e-14
1.69627e-14
1.57883e-14
1.69767e-14
1.58092e-14
1.69915e-14
1.58314e-14
1.70075e-14
1.58553e-14
1.70244e-14
1.58802e-14
1.70426e-14
1.59066e-14
1.7062e-14
1.59344e-14
1.70821e-14
1.59637e-14
1.71036e-14
1.59944e-14
1.71268e-14
1.60268e-14
1.71506e-14
1.60607e-14
1.71763e-14
1.60962e-14
1.72037e-14
1.61338e-14
1.72323e-14
1.61735e-14
1.72617e-14
1.62146e-14
1.72919e-14
1.62572e-14
1.73248e-14
1.63019e-14
1.73602e-14
1.63486e-14
1.73958e-14
1.63972e-14
1.74319e-14
1.64473e-14
1.74707e-14
1.64997e-14
1.75098e-14
1.65544e-14
1.75506e-14
1.66108e-14
1.75941e-14
1.66698e-14
1.76382e-14
1.673e-14
1.76843e-14
1.67926e-14
1.77319e-14
1.68575e-14
1.77803e-14
1.69249e-14
1.78302e-14
1.69929e-14
1.78833e-14
1.70628e-14
1.79379e-14
1.71352e-14
1.79939e-14
1.72095e-14
1.80515e-14
1.72863e-14
1.81098e-14
1.73639e-14
1.81716e-14
1.74446e-14
1.82336e-14
1.75281e-14
1.8295e-14
1.76143e-14
1.83585e-14
1.77005e-14
1.84275e-14
1.77887e-14
1.84993e-14
1.78784e-14
1.85712e-14
1.79694e-14
1.86432e-14
1.80641e-14
1.87165e-14
1.81587e-14
1.87905e-14
1.82541e-14
1.8871e-14
1.83487e-14
1.89572e-14
1.84477e-14
1.90397e-14
1.85483e-14
1.91228e-14
1.86504e-14
1.92118e-14
1.87533e-14
1.93052e-14
1.8857e-14
1.93992e-14
1.8963e-14
1.94913e-14
1.90715e-14
1.95848e-14
1.91825e-14
1.9685e-14
1.92959e-14
1.97906e-14
1.94071e-14
1.98949e-14
1.95143e-14
2.00014e-14
1.96224e-14
2.01115e-14
1.97364e-14
2.02253e-14
1.98514e-14
2.03395e-14
1.9964e-14
2.04608e-14
2.00811e-14
2.05858e-14
2.01992e-14
2.07112e-14
2.032e-14
2.08421e-14
2.0442e-14
2.09751e-14
2.05652e-14
2.11067e-14
2.0693e-14
2.12369e-14
2.08202e-14
2.13656e-14
2.09505e-14
2.14947e-14
2.10838e-14
2.16345e-14
2.12203e-14
2.17747e-14
2.13583e-14
2.1908e-14
2.14923e-14
2.20451e-14
2.16278e-14
2.21914e-14
2.17667e-14
2.23326e-14
2.1909e-14
2.24703e-14
2.20512e-14
2.26101e-14
2.21933e-14
2.27557e-14
2.23446e-14
2.28977e-14
2.24867e-14
2.30364e-14
2.26383e-14
2.31752e-14
2.27845e-14
2.33179e-14
2.29329e-14
2.34645e-14
2.30873e-14
2.36076e-14
2.32309e-14
2.37546e-14
2.33789e-14
2.39019e-14
2.35351e-14
2.40455e-14
2.36884e-14
2.41932e-14
2.38463e-14
2.4345e-14
2.39938e-14
2.45084e-14
2.41425e-14
2.46645e-14
2.42922e-14
2.48095e-14
2.44394e-14
2.4951e-14
2.4588e-14
2.5093e-14
2.47458e-14
2.52391e-14
2.49014e-14
2.53934e-14
2.50587e-14
2.55482e-14
2.52102e-14
2.56996e-14
2.53676e-14
2.5836e-14
2.55194e-14
2.59923e-14
2.56734e-14
2.61533e-14
2.58257e-14
2.63111e-14
2.59843e-14
2.6466e-14
2.61454e-14
2.6618e-14
2.63131e-14
2.67711e-14
2.64757e-14
2.69254e-14
2.66257e-14
2.7077e-14
2.67866e-14
2.72221e-14
2.69507e-14
2.73725e-14
2.71183e-14
2.75363e-14
2.72895e-14
2.77019e-14
2.74408e-14
2.78535e-14
2.76e-14
2.79953e-14
2.77592e-14
2.81431e-14
2.79107e-14
2.82932e-14
2.80744e-14
2.84495e-14
2.82307e-14
2.86084e-14
2.83796e-14
2.87543e-14
2.85371e-14
2.88873e-14
2.86876e-14
2.90154e-14
2.88393e-14
2.91623e-14
2.89767e-14
2.93125e-14
2.91152e-14
2.94664e-14
2.92546e-14
2.96008e-14
2.93872e-14
2.97473e-14
2.95364e-14
2.99066e-14
2.96786e-14
3.00631e-14
2.9837e-14
3.01941e-14
2.99965e-14
3.0331e-14
3.01414e-14
3.04659e-14
3.02877e-14
3.05757e-14
3.04121e-14
3.06913e-14
3.05537e-14
3.08286e-14
3.0697e-14
3.09642e-14
3.08417e-14
3.1122e-14
3.09878e-14
3.12713e-14
3.11273e-14
3.14051e-14
3.12679e-14
3.15625e-14
3.14249e-14
3.16976e-14
3.15831e-14
3.1826e-14
3.1743e-14
3.19632e-14
3.18899e-14
3.21171e-14
3.20389e-14
3.22806e-14
3.21975e-14
3.24238e-14
3.23583e-14
3.25624e-14
3.25142e-14
3.27043e-14
3.26809e-14
3.2865e-14
3.28432e-14
3.30602e-14
3.30004e-14
3.32382e-14
3.31518e-14
3.33857e-14
3.33129e-14
3.34887e-14
3.3485e-14
3.3592e-14
3.36102e-14
3.37246e-14
3.37033e-14
3.38874e-14
3.38668e-14
3.40229e-14
3.39969e-14
3.41607e-14
3.41382e-14
3.42867e-14
3.42614e-14
3.44162e-14
3.4381e-14
3.45213e-14
3.44976e-14
3.46321e-14
3.46408e-14
3.47346e-14
3.47684e-14
3.48424e-14
3.48959e-14
3.49554e-14
3.50094e-14
3.51028e-14
3.51366e-14
3.52145e-14
3.52638e-14
3.53335e-14
3.53489e-14
3.54168e-14
3.54494e-14
3.55075e-14
3.55508e-14
3.55913e-14
3.56392e-14
3.56686e-14
3.57152e-14
3.57811e-14
3.58195e-14
3.58741e-14
3.59104e-14
3.59474e-14
3.60177e-14
3.60429e-14
3.61008e-14
3.61178e-14
3.62165e-14
3.61861e-14
3.62999e-14
3.62873e-14
3.63779e-14
3.64226e-14
3.64741e-14
3.65154e-14
3.66022e-14
3.65539e-14
3.66481e-14
3.66139e-14
3.67473e-14
3.66966e-14
3.68211e-14
3.67743e-14
3.68991e-14
3.68477e-14
3.69847e-14
3.68913e-14
3.69768e-14
3.69527e-14
3.70262e-14
3.70106e-14
3.71324e-14
3.704e-14
3.71751e-14
3.71129e-14
3.72268e-14
3.72069e-14
3.72856e-14
3.72266e-14
3.73329e-14
3.727e-14
3.73431e-14
3.72855e-14
3.73638e-14
3.7272e-14
3.7423e-14
3.72505e-14
3.741e-14
3.72822e-14
3.74459e-14
3.72711e-14
3.74412e-14
3.72579e-14
3.74209e-14
3.73137e-14
3.7422e-14
3.73543e-14
3.73907e-14
3.73626e-14
3.74181e-14
3.73442e-14
3.73514e-14
3.73366e-14
3.73399e-14
3.73932e-14
3.73292e-14
3.74286e-14
3.72655e-14
3.73833e-14
3.7255e-14
3.73942e-14
3.73168e-14
3.73964e-14
3.73082e-14
3.73802e-14
3.72928e-14
3.73003e-14
3.72773e-14
3.72735e-14
3.72946e-14
3.72734e-14
3.72818e-14
3.72728e-14
3.72791e-14
3.72313e-14
3.72965e-14
3.72457e-14
3.72775e-14
3.72542e-14
3.72711e-14
3.72627e-14
3.72211e-14
3.72754e-14
3.72032e-14
3.72515e-14
3.73122e-14
3.73157e-14
3.7372e-14
3.73756e-14
3.73815e-14
3.73885e-14
3.74022e-14
3.74427e-14
3.74748e-14
3.75077e-14
3.75104e-14
3.75831e-14
3.75895e-14
3.7588e-14
3.76261e-14
3.76362e-14
3.76167e-14
3.76869e-14
3.76782e-14
3.77281e-14
3.77254e-14
3.78021e-14
3.78376e-14
3.78687e-14
3.79191e-14
3.79412e-14
3.79506e-14
3.79749e-14
3.79741e-14
3.80152e-14
3.8058e-14
3.80631e-14
3.814e-14
3.81578e-14
3.81947e-14
3.82091e-14
3.82478e-14
3.82667e-14
3.83029e-14
3.8285e-14
3.83656e-14
3.83287e-14
3.83892e-14
3.83684e-14
3.84205e-14
3.84278e-14
3.84823e-14
3.84844e-14
3.85199e-14
3.85405e-14
3.85543e-14
3.85989e-14
3.85582e-14
3.86365e-14
3.85769e-14
3.8657e-14
3.86364e-14
3.86859e-14
3.86635e-14
3.87448e-14
3.87297e-14
3.88114e-14
3.87611e-14
3.886e-14
3.87583e-14
3.88928e-14
3.87942e-14
3.88859e-14
3.88488e-14
3.89125e-14
3.88733e-14
3.89437e-14
3.88651e-14
3.89529e-14
3.8905e-14
3.89676e-14
3.89421e-14
3.89856e-14
3.89104e-14
3.89646e-14
3.89044e-14
3.89592e-14
3.89253e-14
3.89699e-14
3.88901e-14
3.89964e-14
3.89193e-14
3.89872e-14
3.89183e-14
3.89554e-14
3.89164e-14
3.89543e-14
3.88859e-14
3.89542e-14
3.88812e-14
3.89288e-14
3.88902e-14
3.89188e-14
3.88854e-14
3.89365e-14
3.88655e-14
3.89695e-14
3.88714e-14
3.89636e-14
3.8904e-14
3.89328e-14
3.89088e-14
3.89032e-14
3.89155e-14
3.89303e-14
3.89377e-14
3.90152e-14
3.893e-14
3.90582e-14
3.89488e-14
3.90466e-14
3.89653e-14
3.90231e-14
3.89805e-14
3.90304e-14
3.89943e-14
3.90533e-14
3.90068e-14
3.90622e-14
3.90331e-14
3.90716e-14
3.90437e-14
3.90806e-14
3.90532e-14
3.91191e-14
3.90611e-14
3.91278e-14
3.9082e-14
3.91361e-14
3.91014e-14
3.91436e-14
3.91197e-14
3.91499e-14
3.91069e-14
3.91548e-14
3.90926e-14
3.9159e-14
3.91146e-14
3.92014e-14
3.91191e-14
3.9214e-14
3.91214e-14
3.9212e-14
3.91295e-14
3.92182e-14
3.91357e-14
3.92406e-14
3.91477e-14
3.92334e-14
3.91581e-14
3.92039e-14
3.91601e-14
3.92131e-14
3.91533e-14
3.92458e-14
3.91607e-14
3.92716e-14
3.91665e-14
3.92752e-14
3.91631e-14
3.92723e-14
3.91817e-14
3.92629e-14
3.91994e-14
3.92623e-14
3.92166e-14
3.92625e-14
3.92178e-14
3.92633e-14
3.9211e-14
3.92645e-14
3.92115e-14
3.92662e-14
3.92039e-14
3.92762e-14
3.91958e-14
3.93026e-14
3.91948e-14
3.92986e-14
3.91931e-14
3.9272e-14
3.91987e-14
3.92617e-14
3.91961e-14
3.92598e-14
3.91933e-14
3.92426e-14
3.91982e-14
3.92335e-14
3.92031e-14
3.92246e-14
3.92003e-14
3.92077e-14
3.91898e-14
3.91986e-14
3.91873e-14
3.91972e-14
3.91928e-14
3.91956e-14
3.91907e-14
3.92018e-14
3.91886e-14
3.92158e-14
3.91905e-14
3.92299e-14
3.91964e-14
3.92204e-14
3.91904e-14
3.92229e-14
3.91884e-14
3.92254e-14
3.91862e-14
3.9232e-14
3.91919e-14
3.9231e-14
3.91858e-14
3.92458e-14
3.91835e-14
3.92529e-14
3.9181e-14
3.92564e-14
3.91705e-14
3.92602e-14
3.91676e-14
3.92447e-14
3.91684e-14
3.92372e-14
3.91574e-14
3.92417e-14
3.915e-14
3.92543e-14
3.91385e-14
3.9271e-14
3.91305e-14
3.92726e-14
3.91221e-14
3.92786e-14
3.91093e-14
3.92812e-14
3.91115e-14
3.92882e-14
3.91094e-14
3.93034e-14
3.91067e-14
3.93e-14
3.91035e-14
3.92855e-14
3.91075e-14
3.92793e-14
3.91149e-14
3.9285e-14
3.91104e-14
3.92873e-14
3.91094e-14
3.92786e-14
3.91155e-14
3.9274e-14
3.91213e-14
3.92774e-14
3.91268e-14
3.92736e-14
3.91282e-14
3.92701e-14
3.91293e-14
3.92706e-14
3.9132e-14
3.92732e-14
3.91327e-14
3.92779e-14
3.91368e-14
3.92718e-14
3.91388e-14
3.92621e-14
3.91406e-14
3.92545e-14
3.91404e-14
3.92545e-14
3.91419e-14
3.92545e-14
3.91415e-14
3.92529e-14
3.9139e-14
3.9255e-14
3.91401e-14
3.92537e-14
3.91391e-14
3.9256e-14
3.91363e-14
3.92603e-14
3.91333e-14
3.92629e-14
3.91319e-14
3.92673e-14
3.91322e-14
3.92719e-14
3.91305e-14
3.92695e-14
3.91287e-14
3.92656e-14
3.91284e-14
3.92635e-14
3.91263e-14
3.92633e-14
3.91257e-14
3.92665e-14
3.91234e-14
3.92699e-14
3.91208e-14
3.92682e-14
3.91215e-14
3.9265e-14
3.91204e-14
3.92653e-14
3.91175e-14
3.92656e-14
3.91178e-14
3.9266e-14
3.91179e-14
3.92648e-14
3.91196e-14
3.92637e-14
3.91195e-14
3.92643e-14
3.91193e-14
3.92634e-14
3.91205e-14
3.92593e-14
3.91201e-14
3.92585e-14
3.91173e-14
3.92616e-14
3.91167e-14
3.9264e-14
3.91152e-14
3.92656e-14
3.91107e-14
3.92651e-14
3.91076e-14
3.92645e-14
3.91037e-14
3.92663e-14
3.9102e-14
3.92688e-14
3.91009e-14
3.92721e-14
3.90997e-14
3.92725e-14
3.90978e-14
3.92715e-14
3.9095e-14
3.9272e-14
3.90957e-14
3.92719e-14
3.90963e-14
3.92725e-14
3.90962e-14
3.92725e-14
3.90966e-14
3.92698e-14
3.90983e-14
3.92699e-14
3.90992e-14
3.92726e-14
3.90994e-14
3.92727e-14
3.91002e-14
3.92729e-14
3.91009e-14
3.92749e-14
3.91015e-14
3.9277e-14
3.91021e-14
3.92767e-14
3.91014e-14
3.92752e-14
3.91013e-14
3.92755e-14
3.91016e-14
3.92765e-14
3.91025e-14
3.92763e-14
3.91031e-14
3.92761e-14
3.91022e-14
3.92768e-14
3.91013e-14
3.92773e-14
3.91009e-14
3.92778e-14
3.91e-14
3.92777e-14
3.90998e-14
3.9278e-14
3.90998e-14
3.92778e-14
3.90995e-14
3.92764e-14
3.90988e-14
3.92763e-14
3.90986e-14
3.92777e-14
3.90985e-14
3.92787e-14
3.90979e-14
3.92791e-14
3.90973e-14
3.92795e-14
3.90969e-14
3.928e-14
3.90963e-14
3.9281e-14
3.90958e-14
3.92814e-14
3.90953e-14
3.92813e-14
3.90949e-14
3.92815e-14
3.90947e-14
3.92822e-14
3.90946e-14
3.92825e-14
3.90942e-14
3.92826e-14
3.90939e-14
3.92828e-14
3.90934e-14
3.92829e-14
3.90933e-14
3.92828e-14
3.90932e-14
3.92827e-14
3.90932e-14
3.92826e-14
3.90931e-14
3.92826e-14
3.9093e-14
3.92826e-14
3.90931e-14
3.92824e-14
3.90931e-14
3.92824e-14
3.90931e-14
3.92825e-14
3.90931e-14
3.92826e-14
3.90931e-14
3.92825e-14
3.90931e-14
3.92825e-14
3.9093e-14
3.92825e-14
3.9093e-14
3.92826e-14
3.9093e-14
3.92826e-14
3.9093e-14
3.92826e-14
3.90931e-14
3.92826e-14
3.90931e-14
3.92827e-14
3.90931e-14
3.92828e-14
3.90931e-14
3.92828e-14
3.90932e-14
3.92828e-14
3.90932e-14
3.92829e-14
3.90932e-14
3.92829e-14
3.90932e-14
3.92829e-14
3.90932e-14
3.92829e-14
3.90932e-14
3.92829e-14
3.90933e-14
3.92829e-14
3.90933e-14
3.92829e-14
3.90933e-14
3.92829e-14
3.90933e-14
3.9283e-14
3.90933e-14
3.9283e-14
3.90933e-14
3.9283e-14
3.90933e-14
3.9283e-14
3.90933e-14
3.9283e-14
3.72834e-14
3.73084e-14
3.73498e-14
3.73559e-14
3.74197e-14
3.74105e-14
3.74545e-14
3.74238e-14
3.74405e-14
3.74339e-14
3.75424e-14
3.74854e-14
3.75771e-14
3.75657e-14
3.75775e-14
3.75977e-14
3.7617e-14
3.76351e-14
3.76747e-14
3.76989e-14
3.77337e-14
3.77238e-14
3.78685e-14
3.77921e-14
3.78708e-14
3.78689e-14
3.79226e-14
3.78997e-14
3.80023e-14
3.79466e-14
3.80255e-14
3.80058e-14
3.80797e-14
3.80852e-14
3.81588e-14
3.8144e-14
3.81942e-14
3.8152e-14
3.81875e-14
3.81743e-14
3.8227e-14
3.82372e-14
3.82849e-14
3.83231e-14
3.83087e-14
3.84141e-14
3.83149e-14
3.84965e-14
3.84681e-14
3.85051e-14
3.8542e-14
3.85442e-14
3.85668e-14
3.86093e-14
3.86135e-14
3.8629e-14
3.8636e-14
3.865e-14
3.8686e-14
3.86978e-14
3.87891e-14
3.87476e-14
3.87723e-14
3.87941e-14
3.87553e-14
3.88158e-14
3.88381e-14
3.88409e-14
3.88186e-14
3.88906e-14
3.88209e-14
3.89199e-14
3.88949e-14
3.8957e-14
3.88581e-14
3.89724e-14
3.88669e-14
3.89966e-14
3.88793e-14
3.9017e-14
3.88535e-14
3.90065e-14
3.88162e-14
3.89932e-14
3.88619e-14
3.89915e-14
3.88568e-14
3.89979e-14
3.88708e-14
3.89289e-14
3.88803e-14
3.8917e-14
3.88589e-14
3.89902e-14
3.88435e-14
3.89725e-14
3.88067e-14
3.89614e-14
3.88176e-14
3.9015e-14
3.8818e-14
3.89943e-14
3.87951e-14
3.89824e-14
3.87916e-14
3.89497e-14
3.87945e-14
3.8923e-14
3.88193e-14
3.89588e-14
3.88374e-14
3.90011e-14
3.88191e-14
3.90652e-14
3.88486e-14
3.90803e-14
3.88986e-14
3.90596e-14
3.89427e-14
3.90589e-14
3.89683e-14
3.90772e-14
3.89757e-14
3.91142e-14
3.89789e-14
3.91414e-14
3.90219e-14
3.91742e-14
3.90459e-14
3.91976e-14
3.9066e-14
3.92415e-14
3.90971e-14
3.92914e-14
3.9109e-14
3.93179e-14
3.91164e-14
3.93362e-14
3.91343e-14
3.93464e-14
3.91478e-14
3.93176e-14
3.91583e-14
3.9294e-14
3.91668e-14
3.92972e-14
3.91656e-14
3.93268e-14
3.91619e-14
3.93299e-14
3.91633e-14
3.93139e-14
3.91701e-14
3.93013e-14
3.9175e-14
3.92913e-14
3.91705e-14
3.92758e-14
3.91723e-14
3.93013e-14
3.91723e-14
3.93215e-14
3.91702e-14
3.93212e-14
3.91584e-14
3.93077e-14
3.91679e-14
3.92808e-14
3.91683e-14
3.92553e-14
3.91675e-14
3.92543e-14
3.91811e-14
3.9262e-14
3.91779e-14
3.92707e-14
3.91735e-14
3.92804e-14
3.91678e-14
3.92836e-14
3.91606e-14
3.92879e-14
3.9152e-14
3.92858e-14
3.9142e-14
3.92927e-14
3.91539e-14
3.92852e-14
3.91408e-14
3.92789e-14
3.91343e-14
3.92738e-14
3.91263e-14
3.927e-14
3.91406e-14
3.92673e-14
3.91222e-14
3.92737e-14
3.9126e-14
3.92734e-14
3.91286e-14
3.92665e-14
3.91221e-14
3.92608e-14
3.91303e-14
3.92483e-14
3.91296e-14
3.92445e-14
3.91281e-14
3.92456e-14
3.91257e-14
3.92553e-14
3.91343e-14
3.92461e-14
3.9146e-14
3.92455e-14
3.91334e-14
3.92494e-14
3.9128e-14
3.9246e-14
3.91258e-14
3.92511e-14
3.91228e-14
3.92569e-14
3.91192e-14
3.92672e-14
3.91147e-14
3.92782e-14
3.91094e-14
3.92781e-14
3.91073e-14
3.92787e-14
3.91122e-14
3.92801e-14
3.91124e-14
3.92704e-14
3.91081e-14
3.92692e-14
3.91149e-14
3.92647e-14
3.91172e-14
3.92529e-14
3.91112e-14
3.92571e-14
3.91088e-14
3.92655e-14
3.91058e-14
3.92744e-14
3.91062e-14
3.9276e-14
3.91061e-14
3.92665e-14
3.91095e-14
3.92651e-14
3.91086e-14
3.92755e-14
3.91073e-14
3.92825e-14
3.91094e-14
3.92823e-14
3.91148e-14
3.92673e-14
3.91162e-14
3.92678e-14
3.9121e-14
3.92724e-14
3.91217e-14
3.92735e-14
3.91221e-14
3.92749e-14
3.91147e-14
3.92766e-14
3.912e-14
3.92824e-14
3.91251e-14
3.92847e-14
3.91206e-14
3.92835e-14
3.91158e-14
3.92901e-14
3.91218e-14
3.92951e-14
3.91275e-14
3.9293e-14
3.91311e-14
3.92894e-14
3.91326e-14
3.92914e-14
3.91375e-14
3.9292e-14
3.91458e-14
3.92909e-14
3.91503e-14
3.92954e-14
3.91545e-14
3.92984e-14
3.91569e-14
3.93015e-14
3.91608e-14
3.93083e-14
3.91646e-14
3.93153e-14
3.91682e-14
3.93172e-14
3.91699e-14
3.93192e-14
3.91749e-14
3.93197e-14
3.91764e-14
3.93203e-14
3.91794e-14
3.93228e-14
3.9184e-14
3.93254e-14
3.91902e-14
3.93265e-14
3.91929e-14
3.93293e-14
3.91905e-14
3.93373e-14
3.91897e-14
3.93437e-14
3.91888e-14
3.93469e-14
3.91911e-14
3.93502e-14
3.91885e-14
3.93521e-14
3.91842e-14
3.93556e-14
3.91814e-14
3.93577e-14
3.91817e-14
3.93567e-14
3.91796e-14
3.93575e-14
3.91789e-14
3.93599e-14
3.91798e-14
3.93586e-14
3.91805e-14
3.93574e-14
3.91812e-14
3.93556e-14
3.91832e-14
3.93554e-14
3.91823e-14
3.93582e-14
3.91827e-14
3.93589e-14
3.91838e-14
3.93583e-14
3.91849e-14
3.93578e-14
3.91851e-14
3.93566e-14
3.91853e-14
3.93535e-14
3.91848e-14
3.93539e-14
3.91856e-14
3.93544e-14
3.91877e-14
3.93516e-14
3.91904e-14
3.93483e-14
3.9193e-14
3.9347e-14
3.91943e-14
3.93464e-14
3.91923e-14
3.93465e-14
3.91929e-14
3.93455e-14
3.91934e-14
3.93445e-14
3.91944e-14
3.93429e-14
3.91949e-14
3.93415e-14
3.91953e-14
3.93412e-14
3.91956e-14
3.93405e-14
3.91948e-14
3.93386e-14
3.91946e-14
3.93369e-14
3.91949e-14
3.93357e-14
3.91946e-14
3.93357e-14
3.9194e-14
3.93349e-14
3.91932e-14
3.9334e-14
3.91929e-14
3.93333e-14
3.91928e-14
3.93331e-14
3.91915e-14
3.93335e-14
3.91909e-14
3.93334e-14
3.91906e-14
3.93322e-14
3.91904e-14
3.93313e-14
3.91901e-14
3.93311e-14
3.91888e-14
3.93311e-14
3.91887e-14
3.93314e-14
3.91879e-14
3.93312e-14
3.91875e-14
3.93307e-14
3.91873e-14
3.93309e-14
3.91869e-14
3.93314e-14
3.91864e-14
3.93315e-14
3.91857e-14
3.93316e-14
3.91851e-14
3.93316e-14
3.91847e-14
3.93318e-14
3.91844e-14
3.93322e-14
3.91841e-14
3.93326e-14
3.91841e-14
3.93328e-14
3.91841e-14
3.93328e-14
3.91837e-14
3.93328e-14
3.91836e-14
3.93327e-14
3.91837e-14
3.93328e-14
3.91838e-14
3.93328e-14
3.91837e-14
3.9333e-14
3.91836e-14
3.93332e-14
3.91835e-14
3.93332e-14
3.91835e-14
3.93331e-14
3.91835e-14
3.93331e-14
3.91836e-14
3.93332e-14
3.91835e-14
3.93332e-14
3.91836e-14
3.93332e-14
3.91836e-14
3.93332e-14
3.91836e-14
3.93332e-14
3.91836e-14
3.93332e-14
3.91837e-14
3.93331e-14
3.91837e-14
3.93331e-14
3.91837e-14
3.93331e-14
3.91837e-14
3.93331e-14
3.91838e-14
3.9333e-14
3.91838e-14
3.9333e-14
3.91838e-14
3.93329e-14
3.91839e-14
3.93329e-14
3.91839e-14
3.93329e-14
3.91839e-14
3.93328e-14
3.91839e-14
3.93328e-14
3.91839e-14
3.93328e-14
3.9184e-14
3.93328e-14
3.9184e-14
3.93327e-14
3.9184e-14
3.93327e-14
3.9184e-14
3.93327e-14
)
;

boundaryField
{
    walls
    {
        type            zeroGradient;
    }
    inlet
    {
        type            cyclic;
    }
    outlet
    {
        type            cyclic;
    }
    sides
    {
        type            empty;
    }
}


// ************************************************************************* //
