/*--------------------------------*- C++ -*----------------------------------*\
| =========                 |                                                 |
| \\      /  F ield         | OpenFOAM: The Open Source CFD Toolbox           |
|  \\    /   O peration     | Version:  2106                                  |
|   \\  /    A nd           | Website:  www.openfoam.com                      |
|    \\/     M anipulation  |                                                 |
\*---------------------------------------------------------------------------*/
FoamFile
{
    version     2.0;
    format      ascii;
    arch        "LSB;label=32;scalar=64";
    class       surfaceScalarField;
    location    "10030";
    object      phi;
}
// * * * * * * * * * * * * * * * * * * * * * * * * * * * * * * * * * * * * * //

dimensions      [0 3 -1 0 0 0 0];

oriented        oriented;

internalField   nonuniform List<scalar> 
3996
(
5.26781e-08
-6.52816e-18
-7.39455e-22
-1.55555e-21
-2.18467e-23
1.61966e-07
-6.51945e-18
-3.11509e-21
-6.48395e-21
-6.33726e-22
2.77353e-07
-6.51034e-18
-3.25061e-21
-1.16805e-20
-6.6964e-22
3.99105e-07
-6.50085e-18
-3.39482e-21
-1.70459e-20
-7.07463e-22
5.27498e-07
-6.49082e-18
-3.54016e-21
-2.26484e-20
-7.47276e-22
6.62817e-07
-6.48058e-18
-3.68915e-21
-2.84101e-20
-7.89158e-22
8.05352e-07
-6.46977e-18
-3.84389e-21
-3.45619e-20
-8.33173e-22
9.554e-07
-6.45851e-18
-4.00496e-21
-4.09955e-20
-8.79344e-22
1.11325e-06
-6.44686e-18
-4.17228e-21
-4.75317e-20
-9.2765e-22
1.27919e-06
-6.43518e-18
-4.34542e-21
-5.38885e-20
-9.78011e-22
1.45348e-06
-6.4234e-18
-4.52355e-21
-6.08835e-20
-1.03024e-21
1.63633e-06
-6.40977e-18
-4.70525e-21
-6.81021e-20
-1.08401e-21
1.8279e-06
-6.39604e-18
-4.8885e-21
-7.57595e-20
-1.13884e-21
2.02829e-06
-6.38116e-18
-5.07054e-21
-8.36463e-20
-1.19406e-21
2.23746e-06
-6.36602e-18
-5.24795e-21
-9.10596e-20
-1.24881e-21
2.45528e-06
-6.3521e-18
-5.41672e-21
-9.88737e-20
-1.3021e-21
2.68146e-06
-6.33661e-18
-5.57251e-21
-1.06997e-19
-1.35282e-21
2.91559e-06
-6.32153e-18
-5.71112e-21
-1.15318e-19
-1.39984e-21
3.15713e-06
-6.30503e-18
-5.82879e-21
-1.24812e-19
-1.44213e-21
3.40544e-06
-6.28807e-18
-5.92273e-21
-1.3388e-19
-1.47885e-21
3.65981e-06
-6.27204e-18
-5.99137e-21
-1.42003e-19
-1.50944e-21
3.91953e-06
-6.25542e-18
-6.03443e-21
-1.50227e-19
-1.53374e-21
4.1839e-06
-6.24064e-18
-6.05297e-21
-1.59265e-19
-1.55185e-21
4.45227e-06
-6.22424e-18
-6.049e-21
-1.69063e-19
-1.56413e-21
4.72409e-06
-6.20731e-18
-6.02539e-21
-1.77834e-19
-1.57118e-21
4.99893e-06
-6.19126e-18
-5.98531e-21
-1.87332e-19
-1.57376e-21
5.27644e-06
-6.17583e-18
-5.93198e-21
-1.9716e-19
-1.57261e-21
5.55639e-06
-6.1601e-18
-5.86847e-21
-2.05637e-19
-1.56842e-21
5.83863e-06
-6.14357e-18
-5.79759e-21
-2.14055e-19
-1.56195e-21
6.12312e-06
-6.12615e-18
-5.72177e-21
-2.23391e-19
-1.55384e-21
6.40985e-06
-6.11062e-18
-5.64306e-21
-2.3267e-19
-1.5445e-21
6.69891e-06
-6.09472e-18
-5.56297e-21
-2.40347e-19
-1.53434e-21
6.99039e-06
-6.07893e-18
-5.48289e-21
-2.49036e-19
-1.52366e-21
7.28445e-06
-6.06388e-18
-5.40375e-21
-2.5863e-19
-1.5127e-21
7.58126e-06
-6.04882e-18
-5.32615e-21
-2.6622e-19
-1.50157e-21
7.88101e-06
-6.03258e-18
-5.25055e-21
-2.72658e-19
-1.49048e-21
8.18389e-06
-6.0173e-18
-5.17734e-21
-2.82064e-19
-1.47959e-21
8.49012e-06
-6.00327e-18
-5.10654e-21
-2.89191e-19
-1.46878e-21
8.79992e-06
-5.98613e-18
-5.03824e-21
-2.96561e-19
-1.45826e-21
9.1135e-06
-5.97112e-18
-4.97261e-21
-3.06281e-19
-1.44792e-21
9.43108e-06
-5.95644e-18
-4.90955e-21
-3.14027e-19
-1.43779e-21
9.75289e-06
-5.94343e-18
-4.84895e-21
-3.20372e-19
-1.42794e-21
1.00791e-05
-5.93233e-18
-4.79068e-21
-3.26558e-19
-1.41822e-21
1.041e-05
-5.91723e-18
-4.73443e-21
-3.33256e-19
-1.40883e-21
1.07458e-05
-5.90217e-18
-4.68036e-21
-3.42091e-19
-1.39963e-21
1.10867e-05
-5.88708e-18
-4.62853e-21
-3.51069e-19
-1.39024e-21
1.14329e-05
-5.87665e-18
-4.57869e-21
-3.55995e-19
-1.38064e-21
1.17846e-05
-5.86492e-18
-4.5302e-21
-3.61172e-19
-1.37096e-21
1.21421e-05
-5.85202e-18
-4.48308e-21
-3.67665e-19
-1.36129e-21
1.25055e-05
-5.84103e-18
-4.43732e-21
-3.71192e-19
-1.3515e-21
1.28751e-05
-5.83031e-18
-4.39275e-21
-3.76504e-19
-1.34154e-21
1.3251e-05
-5.81645e-18
-4.34936e-21
-3.83136e-19
-1.33098e-21
1.36335e-05
-5.80857e-18
-4.30719e-21
-3.88793e-19
-1.3201e-21
1.40228e-05
-5.7975e-18
-4.2658e-21
-3.94517e-19
-1.30841e-21
1.44192e-05
-5.78584e-18
-4.22524e-21
-4.00651e-19
-1.29654e-21
1.48227e-05
-5.77772e-18
-4.18555e-21
-4.03395e-19
-1.28451e-21
1.52336e-05
-5.77212e-18
-4.14628e-21
-4.08064e-19
-1.27197e-21
1.56522e-05
-5.7587e-18
-4.10707e-21
-4.12835e-19
-1.25875e-21
1.60786e-05
-5.74702e-18
-4.06879e-21
-4.18173e-19
-1.24464e-21
1.65131e-05
-5.73428e-18
-4.03162e-21
-4.24277e-19
-1.22939e-21
1.69559e-05
-5.71779e-18
-3.99519e-21
-4.30089e-19
-1.21329e-21
1.74072e-05
-5.7056e-18
-3.95909e-21
-4.33107e-19
-1.19668e-21
1.78672e-05
-5.6969e-18
-3.92364e-21
-4.39092e-19
-1.17867e-21
1.83362e-05
-5.68697e-18
-3.88868e-21
-4.44161e-19
-1.15895e-21
1.88144e-05
-5.6724e-18
-3.85437e-21
-4.51566e-19
-1.13783e-21
1.93019e-05
-5.65581e-18
-3.82167e-21
-4.5906e-19
-1.11491e-21
1.97991e-05
-5.64429e-18
-3.7905e-21
-4.66226e-19
-1.09049e-21
2.03062e-05
-5.62832e-18
-3.76077e-21
-4.74678e-19
-1.06356e-21
2.08234e-05
-5.61671e-18
-3.73303e-21
-4.83076e-19
-1.03381e-21
2.1351e-05
-5.60084e-18
-3.70659e-21
-4.90817e-19
-1.00129e-21
2.18892e-05
-5.59489e-18
-3.68168e-21
-4.93263e-19
-9.67511e-22
2.24382e-05
-5.58454e-18
-3.65716e-21
-4.96728e-19
-9.31891e-22
2.29984e-05
-5.58223e-18
-3.63266e-21
-4.98634e-19
-8.94453e-22
2.35699e-05
-5.5723e-18
-3.60591e-21
-4.99568e-19
-8.56799e-22
2.4153e-05
-5.56473e-18
-3.57939e-21
-5.04912e-19
-8.1971e-22
2.47481e-05
-5.55788e-18
-3.55179e-21
-5.07803e-19
-7.81178e-22
2.53553e-05
-5.54771e-18
-3.52417e-21
-5.12579e-19
-7.42994e-22
2.5975e-05
-5.5308e-18
-3.49613e-21
-5.17807e-19
-7.05038e-22
2.66074e-05
-5.52164e-18
-3.4713e-21
-5.22738e-19
-6.64375e-22
2.72529e-05
-5.50876e-18
-3.44726e-21
-5.28811e-19
-6.22095e-22
2.79116e-05
-5.49889e-18
-3.42628e-21
-5.27523e-19
-5.7885e-22
2.8584e-05
-5.48846e-18
-3.40756e-21
-5.34766e-19
-5.36199e-22
2.92702e-05
-5.47517e-18
-3.39176e-21
-5.4126e-19
-4.91056e-22
2.99707e-05
-5.46933e-18
-3.37889e-21
-5.42716e-19
-4.44738e-22
3.06857e-05
-5.46805e-18
-3.36638e-21
-5.49497e-19
-3.98888e-22
3.14156e-05
-5.46092e-18
-3.35307e-21
-5.5867e-19
-3.54826e-22
3.21606e-05
-5.45647e-18
-3.34057e-21
-5.78239e-19
-3.11299e-22
3.29212e-05
-5.45065e-18
-3.32397e-21
-5.90544e-19
-2.61516e-22
3.36976e-05
-5.44629e-18
-3.30203e-21
-5.96059e-19
-2.08037e-22
3.44902e-05
-5.43192e-18
-3.27926e-21
-6.13802e-19
-1.54045e-22
3.52993e-05
-5.41585e-18
-3.26427e-21
-6.27341e-19
-9.4971e-23
3.61254e-05
-5.40527e-18
-3.25455e-21
-6.40246e-19
-3.17001e-23
3.69687e-05
-5.37671e-18
-3.2475e-21
-6.57966e-19
3.47011e-23
3.78297e-05
-5.37734e-18
-3.25335e-21
-6.68314e-19
1.04477e-22
3.87087e-05
-5.37156e-18
-3.25751e-21
-6.66914e-19
1.76375e-22
3.96061e-05
-5.36571e-18
-3.26581e-21
-6.74503e-19
2.44634e-22
4.05223e-05
-5.3587e-18
-3.27887e-21
-6.82552e-19
3.13902e-22
4.14577e-05
-5.34904e-18
-3.29532e-21
-6.85864e-19
3.87907e-22
4.24128e-05
-5.33719e-18
-3.32369e-21
-6.97072e-19
4.67074e-22
4.33879e-05
-5.32734e-18
-3.35821e-21
-7.00436e-19
5.50125e-22
4.43835e-05
-5.32288e-18
-3.40236e-21
-7.02753e-19
6.34419e-22
4.54e-05
-5.31044e-18
-3.44954e-21
-7.14054e-19
7.1115e-22
4.64378e-05
-5.29643e-18
-3.50106e-21
-7.2977e-19
7.88296e-22
4.74975e-05
-5.27783e-18
-3.55629e-21
-7.43751e-19
8.68436e-22
4.85794e-05
-5.26695e-18
-3.61363e-21
-7.56094e-19
9.43648e-22
4.96841e-05
-5.24653e-18
-3.67616e-21
-7.6808e-19
1.01254e-21
5.0812e-05
-5.23893e-18
-3.7568e-21
-7.84412e-19
1.08564e-21
5.19637e-05
-5.21998e-18
-3.8485e-21
-8.00685e-19
1.16256e-21
5.31396e-05
-5.21395e-18
-3.9527e-21
-8.22298e-19
1.23429e-21
5.43402e-05
-5.19186e-18
-4.0579e-21
-8.28987e-19
1.30353e-21
5.5566e-05
-5.16979e-18
-4.17963e-21
-8.53845e-19
1.36421e-21
5.68177e-05
-5.15617e-18
-4.30247e-21
-8.73254e-19
1.42853e-21
5.80957e-05
-5.13712e-18
-4.44021e-21
-8.96e-19
1.49537e-21
5.94007e-05
-5.10418e-18
-4.58085e-21
-9.21844e-19
1.55807e-21
6.0733e-05
-5.08467e-18
-4.74072e-21
-9.46599e-19
1.61706e-21
6.20935e-05
-5.04469e-18
-4.91051e-21
-9.86489e-19
1.68276e-21
6.34825e-05
-5.01636e-18
-5.087e-21
-1.02401e-18
1.76918e-21
6.49008e-05
-4.98794e-18
-5.27415e-21
-1.04966e-18
1.86511e-21
6.6349e-05
-4.94558e-18
-5.48243e-21
-1.06818e-18
1.95317e-21
6.78276e-05
-4.90291e-18
-5.69811e-21
-1.10726e-18
2.01796e-21
6.93374e-05
-4.8813e-18
-5.93515e-21
-1.13518e-18
2.09352e-21
7.08789e-05
-4.84467e-18
-6.14447e-21
-1.15741e-18
2.15576e-21
7.24529e-05
-4.82227e-18
-6.35059e-21
-1.17859e-18
2.2258e-21
7.406e-05
-4.77624e-18
-6.53099e-21
-1.22599e-18
2.3035e-21
7.57009e-05
-4.74057e-18
-6.7199e-21
-1.25299e-18
2.39768e-21
7.73763e-05
-4.70471e-18
-6.90587e-21
-1.29344e-18
2.47894e-21
7.9087e-05
-4.66886e-18
-7.10123e-21
-1.31225e-18
2.57397e-21
8.08337e-05
-4.64524e-18
-7.28967e-21
-1.33283e-18
2.66088e-21
8.26171e-05
-4.62942e-18
-7.45876e-21
-1.34686e-18
2.71003e-21
8.4438e-05
-4.60419e-18
-7.58521e-21
-1.35576e-18
2.72226e-21
8.62971e-05
-4.57963e-18
-7.72396e-21
-1.37779e-18
2.75069e-21
8.81954e-05
-4.55253e-18
-7.84182e-21
-1.37298e-18
2.73656e-21
9.01336e-05
-4.51377e-18
-7.95666e-21
-1.37526e-18
2.65093e-21
9.21125e-05
-4.47715e-18
-8.08886e-21
-1.39772e-18
2.54933e-21
9.41329e-05
-4.43843e-18
-8.27252e-21
-1.41753e-18
2.46968e-21
9.61959e-05
-4.40032e-18
-8.48974e-21
-1.43239e-18
2.39045e-21
9.83021e-05
-4.37932e-18
-8.75394e-21
-1.46247e-18
2.26974e-21
0.000100453
-4.3582e-18
-8.995e-21
-1.48504e-18
2.16829e-21
0.000102648
-4.33634e-18
-9.18387e-21
-1.48695e-18
2.09205e-21
0.00010489
-4.31747e-18
-9.40434e-21
-1.49828e-18
1.9557e-21
0.000107179
-4.28986e-18
-9.64136e-21
-1.52239e-18
1.76247e-21
0.000109515
-4.25342e-18
-9.8977e-21
-1.55063e-18
1.56742e-21
0.000111901
-4.24299e-18
-1.02015e-20
-1.5635e-18
1.40238e-21
0.000114337
-4.20714e-18
-1.04458e-20
-1.57424e-18
1.26045e-21
0.000116824
-4.17112e-18
-1.07703e-20
-1.60001e-18
1.13708e-21
0.000119363
-4.13452e-18
-1.11032e-20
-1.61339e-18
1.01965e-21
0.000121955
-4.09168e-18
-1.1411e-20
-1.64421e-18
8.64708e-22
0.000124602
-4.04278e-18
-1.17911e-20
-1.66874e-18
6.64295e-22
0.000127304
-3.97751e-18
-1.21217e-20
-1.70388e-18
4.18221e-22
0.000130062
-3.93356e-18
-1.24908e-20
-1.68497e-18
2.40586e-22
0.000132878
-3.90865e-18
-1.28298e-20
-1.71656e-18
-1.07724e-22
0.000135753
-3.90079e-18
-1.31267e-20
-1.73183e-18
-3.11377e-22
0.000138689
-3.89414e-18
-1.32968e-20
-1.75579e-18
-6.61507e-22
0.000141685
-3.87419e-18
-1.33142e-20
-1.77868e-18
-1.11411e-21
0.000144745
-3.78737e-18
-1.32799e-20
-1.78565e-18
-1.57604e-21
0.000147868
-3.74392e-18
-1.3448e-20
-1.80449e-18
-2.03167e-21
0.000151057
-3.71696e-18
-1.35792e-20
-1.83062e-18
-2.58026e-21
0.000154312
-3.66501e-18
-1.36914e-20
-1.85365e-18
-3.11576e-21
0.000157635
-3.58771e-18
-1.37924e-20
-1.90174e-18
-3.63075e-21
0.000161027
-3.59226e-18
-1.42241e-20
-1.92217e-18
-3.77055e-21
0.00016449
-3.54132e-18
-1.43964e-20
-1.94738e-18
-3.79267e-21
0.000168026
-3.5025e-18
-1.43824e-20
-1.94635e-18
-3.82526e-21
0.000171635
-3.46352e-18
-1.42344e-20
-1.98274e-18
-3.84073e-21
0.000175319
-3.44201e-18
-1.3919e-20
-2.0003e-18
-3.76203e-21
0.00017908
-3.40108e-18
-1.35399e-20
-1.96102e-18
-3.74055e-21
0.000182919
-3.34965e-18
-1.32657e-20
-1.98073e-18
-4.16977e-21
0.000186838
-3.33253e-18
-1.30981e-20
-2.00114e-18
-4.77104e-21
0.000190839
-3.2462e-18
-1.29315e-20
-2.02644e-18
-5.18677e-21
0.000194923
-3.19088e-18
-1.29242e-20
-2.05987e-18
-5.42561e-21
0.000199092
-3.16559e-18
-1.32273e-20
-2.05728e-18
-5.68464e-21
0.000203347
-3.11957e-18
-1.37422e-20
-2.05191e-18
-5.9286e-21
0.000207691
-3.05454e-18
-1.41516e-20
-2.02865e-18
-6.2168e-21
0.000212124
-3.04836e-18
-1.47305e-20
-2.04174e-18
-6.53468e-21
0.00021665
-2.98918e-18
-1.51312e-20
-2.06544e-18
-6.61744e-21
0.00022127
-2.98399e-18
-1.57379e-20
-2.04865e-18
-6.57211e-21
0.000225985
-2.95582e-18
-1.61385e-20
-2.06315e-18
-6.6363e-21
0.000230798
-2.93079e-18
-1.65208e-20
-2.04651e-18
-6.91806e-21
0.00023571
-2.90563e-18
-1.67873e-20
-2.04707e-18
-7.4201e-21
0.000240724
-2.88405e-18
-1.73549e-20
-2.06222e-18
-8.3968e-21
0.000245842
-2.84529e-18
-1.78146e-20
-2.06981e-18
-9.65064e-21
0.000251065
-2.69481e-18
-1.81453e-20
-2.02847e-18
-1.08481e-20
0.000256396
-2.68892e-18
-1.96416e-20
-2.08845e-18
-1.22038e-20
0.000261837
-2.63783e-18
-2.06042e-20
-2.15246e-18
-1.28237e-20
0.000267391
-2.65516e-18
-2.14501e-20
-2.14166e-18
-1.32065e-20
0.000273058
-2.58367e-18
-2.07169e-20
-2.21007e-18
-1.36565e-20
0.000278842
-2.57879e-18
-2.02612e-20
-2.24597e-18
-1.36648e-20
0.000284746
-2.58272e-18
-2.06012e-20
-2.21173e-18
-1.2468e-20
0.00029077
-2.56074e-18
-2.00827e-20
-2.26063e-18
-1.25538e-20
0.000296918
-2.49591e-18
-1.98196e-20
-2.21185e-18
-1.28505e-20
0.000303192
-2.45848e-18
-1.95778e-20
-2.23266e-18
-1.49445e-20
0.000309595
-2.43539e-18
-1.97858e-20
-2.24129e-18
-1.62452e-20
0.000316129
-2.42761e-18
-1.9599e-20
-2.24387e-18
-1.7251e-20
0.000322797
-2.43001e-18
-1.98288e-20
-2.24599e-18
-1.7725e-20
0.0003296
-2.41778e-18
-1.90253e-20
-2.28524e-18
-1.75326e-20
0.000336543
-2.371e-18
-1.82818e-20
-2.24511e-18
-1.75827e-20
0.000343627
-2.34059e-18
-1.76537e-20
-2.27586e-18
-1.86435e-20
0.000350856
-2.31376e-18
-1.75928e-20
-2.25027e-18
-1.80069e-20
0.000358231
-2.273e-18
-1.78638e-20
-2.25114e-18
-1.87921e-20
0.000365757
-2.32838e-18
-1.68045e-20
-2.17233e-18
-1.84031e-20
0.000373435
-2.3189e-18
-1.4418e-20
-2.10747e-18
-1.88191e-20
0.000381269
-2.16838e-18
-1.15368e-20
-2.18426e-18
-1.9917e-20
0.000389261
-2.06627e-18
-1.08208e-20
-2.14821e-18
-1.75999e-20
0.000397415
-2.07094e-18
-1.12721e-20
-2.14559e-18
-1.58525e-20
0.000405733
-2.02046e-18
-1.16712e-20
-1.97853e-18
-1.42839e-20
0.000414219
-2.02278e-18
-1.21334e-20
-1.97491e-18
-1.59804e-20
0.000422876
-1.85077e-18
-1.17463e-20
-1.94406e-18
-1.72524e-20
0.000431706
-1.85379e-18
-1.39349e-20
-1.91136e-18
-2.0483e-20
0.000440714
-1.83613e-18
-1.68678e-20
-1.88609e-18
-2.347e-20
0.000449901
-1.81837e-18
-1.88368e-20
-1.71951e-18
-2.53743e-20
0.000459272
-1.77424e-18
-2.08601e-20
-1.6992e-18
-3.10878e-20
0.00046883
-1.74563e-18
-2.38838e-20
-1.59578e-18
-3.55058e-20
0.000478578
-1.6292e-18
-2.84931e-20
-1.65973e-18
-3.8295e-20
0.000488519
-1.65917e-18
-3.32288e-20
-1.73481e-18
-3.89333e-20
0.000498657
-1.53046e-18
-3.51882e-20
-1.65912e-18
-3.76909e-20
0.000508994
-1.5582e-18
-3.97158e-20
-1.63951e-18
-3.68659e-20
0.000519535
-1.61865e-18
-4.53406e-20
-1.62153e-18
-3.73035e-20
0.000530284
-1.61949e-18
-4.60199e-20
-1.55244e-18
-3.65772e-20
0.000541242
-1.58047e-18
-4.45103e-20
-1.64757e-18
-3.48252e-20
0.000552414
-1.57231e-18
-4.75385e-20
-1.52723e-18
-3.03371e-20
0.000563803
-1.67445e-18
-5.16987e-20
-1.56801e-18
-3.20222e-20
0.000575412
-1.56363e-18
-5.06038e-20
-1.59285e-18
-3.69972e-20
0.000587246
-1.55249e-18
-5.50751e-20
-1.52443e-18
-4.30241e-20
0.000599306
-1.56976e-18
-5.94949e-20
-1.50738e-18
-4.82315e-20
0.000611597
-1.57792e-18
-5.73866e-20
-1.47019e-18
-5.02784e-20
0.000624122
-1.49095e-18
-5.08152e-20
-1.45236e-18
-4.35313e-20
0.000636884
-1.29456e-18
-4.83484e-20
-1.58989e-18
-3.84132e-20
0.000649886
-1.28883e-18
-6.32623e-20
-1.54525e-18
-2.40571e-20
0.000663132
-1.40876e-18
-6.80342e-20
-1.3618e-18
-1.58609e-20
0.000676623
-1.38914e-18
-6.77355e-20
-1.40002e-18
-1.46978e-20
0.000690364
-1.30048e-18
-5.82561e-20
-1.23118e-18
-1.54959e-20
0.000704356
-1.32761e-18
-4.76159e-20
-1.22341e-18
-2.73861e-20
0.000718603
-1.19475e-18
-4.09933e-20
-1.32816e-18
-2.89899e-20
0.000733106
-1.08432e-18
-3.67472e-20
-1.37389e-18
-2.04551e-20
0.000747867
-1.26577e-18
-4.59261e-20
-1.25177e-18
-1.01504e-20
0.000762889
-1.16763e-18
-3.18995e-20
-1.32858e-18
-6.89551e-21
0.000778172
-1.22423e-18
-3.3951e-20
-1.29583e-18
-1.01571e-20
0.000793719
-1.17723e-18
-2.93456e-20
-1.34203e-18
-2.33394e-20
0.000809529
-1.09446e-18
-2.38425e-20
-1.25285e-18
-1.57873e-20
0.000825603
-1.20243e-18
-3.06179e-20
-1.15619e-18
-1.79164e-20
0.000841941
-1.33718e-18
-4.71662e-20
-1.17938e-18
-1.70642e-20
0.000858542
-1.28212e-18
-3.75115e-20
-1.1298e-18
-1.67442e-20
0.000875404
-1.25238e-18
-2.55901e-20
-1.05709e-18
-8.89166e-21
0.000892525
-1.09729e-18
-1.35425e-20
-1.05218e-18
7.04165e-21
0.000909904
-1.05045e-18
-1.7522e-20
-9.0777e-19
2.20153e-20
0.000927535
-9.64255e-19
-1.00658e-20
-9.13237e-19
1.38632e-20
0.000945414
-8.84698e-19
-1.00276e-20
-9.13612e-19
1.26792e-20
0.000963537
-1.07749e-18
-2.20053e-20
-9.86398e-19
-5.24596e-21
0.000981897
-1.04836e-18
2.2015e-21
-9.35583e-19
-3.71069e-21
0.00100049
-7.61325e-19
3.04916e-20
-9.46957e-19
-4.5883e-21
0.0010193
1.94023e-20
-7.83355e-19
-7.46879e-21
-9.10742e-19
5.26781e-08
-6.0196e-22
-1.52897e-22
1.61966e-07
-3.02948e-21
-1.43875e-21
2.77353e-07
-5.66019e-21
-2.70554e-21
3.99105e-07
-8.40443e-21
-3.98393e-21
5.27498e-07
-1.12609e-20
-5.44002e-21
6.62817e-07
-1.41715e-20
-6.99822e-21
8.05352e-07
-1.7033e-20
-8.46903e-21
9.554e-07
-2.04176e-20
-9.93432e-21
1.11325e-06
-2.35601e-20
-1.18096e-20
1.27919e-06
-2.68572e-20
-1.36974e-20
1.45348e-06
-2.9841e-20
-1.58339e-20
1.63633e-06
-3.3344e-20
-1.81418e-20
1.8279e-06
-3.68308e-20
-2.05345e-20
2.02829e-06
-4.11664e-20
-2.24514e-20
2.23746e-06
-4.54745e-20
-2.46729e-20
2.45528e-06
-4.99827e-20
-2.64398e-20
2.68146e-06
-5.47907e-20
-2.86469e-20
2.91559e-06
-5.94464e-20
-3.14964e-20
3.15713e-06
-6.39755e-20
-3.40706e-20
3.40544e-06
-6.88442e-20
-3.65557e-20
3.65981e-06
-7.37505e-20
-3.9263e-20
3.91953e-06
-7.85266e-20
-4.11724e-20
4.1839e-06
-8.36679e-20
-4.38684e-20
4.45227e-06
-8.90986e-20
-4.65386e-20
4.72409e-06
-9.40407e-20
-4.93688e-20
4.99893e-06
-9.88725e-20
-5.24182e-20
5.27644e-06
-1.02444e-19
-5.48854e-20
5.55639e-06
-1.07044e-19
-5.78072e-20
5.83863e-06
-1.10805e-19
-6.10796e-20
6.12312e-06
-1.15256e-19
-6.38297e-20
6.40985e-06
-1.18984e-19
-6.73675e-20
6.69891e-06
-1.24969e-19
-6.85444e-20
6.99039e-06
-1.29929e-19
-7.12771e-20
7.28445e-06
-1.33822e-19
-7.40712e-20
7.58126e-06
-1.37749e-19
-7.63177e-20
7.88101e-06
-1.41777e-19
-7.85435e-20
8.18389e-06
-1.43819e-19
-8.0379e-20
8.49012e-06
-1.47033e-19
-8.37978e-20
8.79992e-06
-1.50396e-19
-8.47775e-20
9.1135e-06
-1.54063e-19
-8.73099e-20
9.43108e-06
-1.5746e-19
-9.05794e-20
9.75289e-06
-1.61484e-19
-9.19339e-20
1.00791e-05
-1.64286e-19
-9.64148e-20
1.041e-05
-1.67962e-19
-9.83453e-20
1.07458e-05
-1.75123e-19
-9.69985e-20
1.10867e-05
-1.80189e-19
-9.79595e-20
1.14329e-05
-1.82353e-19
-1.00014e-19
1.17846e-05
-1.855e-19
-1.03366e-19
1.21421e-05
-1.8938e-19
-1.06609e-19
1.25055e-05
-1.93953e-19
-1.08796e-19
1.28751e-05
-1.9799e-19
-1.07547e-19
1.3251e-05
-1.99591e-19
-1.11247e-19
1.36335e-05
-2.04605e-19
-1.10411e-19
1.40228e-05
-2.08235e-19
-1.13257e-19
1.44192e-05
-2.11354e-19
-1.16286e-19
1.48227e-05
-2.13691e-19
-1.16514e-19
1.52336e-05
-2.15457e-19
-1.19053e-19
1.56522e-05
-2.17373e-19
-1.20827e-19
1.60786e-05
-2.23536e-19
-1.21433e-19
1.65131e-05
-2.26964e-19
-1.25052e-19
1.69559e-05
-2.23442e-19
-1.31852e-19
1.74072e-05
-2.25602e-19
-1.31991e-19
1.78672e-05
-2.28967e-19
-1.31401e-19
1.83362e-05
-2.31254e-19
-1.31576e-19
1.88144e-05
-2.35241e-19
-1.34075e-19
1.93019e-05
-2.36905e-19
-1.37758e-19
1.97991e-05
-2.42494e-19
-1.37158e-19
2.03062e-05
-2.47038e-19
-1.41297e-19
2.08234e-05
-2.51616e-19
-1.44213e-19
2.1351e-05
-2.52395e-19
-1.5026e-19
2.18892e-05
-2.57125e-19
-1.51003e-19
2.24382e-05
-2.58238e-19
-1.53347e-19
2.29984e-05
-2.59139e-19
-1.54561e-19
2.35699e-05
-2.65733e-19
-1.58532e-19
2.4153e-05
-2.65634e-19
-1.59126e-19
2.47481e-05
-2.69341e-19
-1.60586e-19
2.53553e-05
-2.68686e-19
-1.65759e-19
2.5975e-05
-2.74637e-19
-1.67901e-19
2.66074e-05
-2.75509e-19
-1.70907e-19
2.72529e-05
-2.79423e-19
-1.71449e-19
2.79116e-05
-2.8075e-19
-1.75268e-19
2.8584e-05
-2.85122e-19
-1.77631e-19
2.92702e-05
-2.87719e-19
-1.80523e-19
2.99707e-05
-2.8892e-19
-1.81576e-19
3.06857e-05
-2.93266e-19
-1.86692e-19
3.14156e-05
-2.97515e-19
-1.89021e-19
3.21606e-05
-2.88097e-19
-1.84949e-19
3.29212e-05
-2.73886e-19
-1.86633e-19
3.36976e-05
-2.74377e-19
-1.94032e-19
3.44902e-05
-2.87802e-19
-1.99207e-19
3.52993e-05
-2.91064e-19
-2.02849e-19
3.61254e-05
-2.91362e-19
-2.08389e-19
3.69687e-05
-2.98338e-19
-2.19161e-19
3.78297e-05
-3.00685e-19
-2.23335e-19
3.87087e-05
-3.07212e-19
-2.22431e-19
3.96061e-05
-3.1127e-19
-2.24439e-19
4.05223e-05
-3.11465e-19
-2.23662e-19
4.14577e-05
-3.24892e-19
-2.14332e-19
4.24128e-05
-3.22807e-19
-2.15947e-19
4.33879e-05
-3.31722e-19
-2.10677e-19
4.43835e-05
-3.39084e-19
-2.13289e-19
4.54e-05
-3.41866e-19
-2.12224e-19
4.64378e-05
-3.41691e-19
-2.08149e-19
4.74975e-05
-3.35639e-19
-2.0832e-19
4.85794e-05
-3.40143e-19
-2.13282e-19
4.96841e-05
-3.50252e-19
-2.07832e-19
5.0812e-05
-3.58471e-19
-1.98708e-19
5.19637e-05
-3.60105e-19
-1.92985e-19
5.31396e-05
-3.63969e-19
-1.91138e-19
5.43402e-05
-3.73283e-19
-1.83415e-19
5.5566e-05
-3.6194e-19
-1.74425e-19
5.68177e-05
-3.72223e-19
-1.65029e-19
5.80957e-05
-3.6506e-19
-1.69163e-19
5.94007e-05
-3.6567e-19
-1.70964e-19
6.0733e-05
-3.6874e-19
-1.63688e-19
6.20935e-05
-3.49383e-19
-1.60109e-19
6.34825e-05
-3.51633e-19
-1.67834e-19
6.49008e-05
-3.73769e-19
-1.80752e-19
6.6349e-05
-3.71154e-19
-1.94554e-19
6.78276e-05
-3.73917e-19
-1.95838e-19
6.93374e-05
-3.55273e-19
-2.02866e-19
7.08789e-05
-3.50959e-19
-1.89182e-19
7.24529e-05
-3.49769e-19
-1.75368e-19
7.406e-05
-3.57155e-19
-1.71675e-19
7.57009e-05
-3.65707e-19
-1.71477e-19
7.73763e-05
-3.77723e-19
-1.74854e-19
7.9087e-05
-3.76095e-19
-1.69547e-19
8.08337e-05
-3.78641e-19
-1.70046e-19
8.26171e-05
-3.68357e-19
-1.75327e-19
8.4438e-05
-3.7471e-19
-1.60197e-19
8.62971e-05
-3.61487e-19
-1.80289e-19
8.81954e-05
-3.62455e-19
-1.82259e-19
9.01336e-05
-3.66887e-19
-1.76796e-19
9.21125e-05
-3.91878e-19
-1.85534e-19
9.41329e-05
-4.03401e-19
-1.88355e-19
9.61959e-05
-4.21991e-19
-1.92508e-19
9.83021e-05
-4.26919e-19
-1.90724e-19
0.000100453
-4.14797e-19
-1.91362e-19
0.000102648
-4.32592e-19
-2.08441e-19
0.00010489
-4.47927e-19
-2.22292e-19
0.000107179
-4.51616e-19
-2.32367e-19
0.000109515
-4.52117e-19
-2.44094e-19
0.000111901
-4.43212e-19
-2.38665e-19
0.000114337
-4.65256e-19
-2.2989e-19
0.000116824
-4.63324e-19
-2.4516e-19
0.000119363
-4.59999e-19
-2.55413e-19
0.000121955
-4.89414e-19
-2.67837e-19
0.000124602
-4.7672e-19
-2.75008e-19
0.000127304
-4.82132e-19
-2.80549e-19
0.000130062
-4.88397e-19
-3.19143e-19
0.000132878
-4.95137e-19
-2.93284e-19
0.000135753
-4.86026e-19
-3.00429e-19
0.000138689
-4.74232e-19
-3.06119e-19
0.000141685
-4.71983e-19
-3.18331e-19
0.000144745
-4.75406e-19
-3.27882e-19
0.000147868
-4.80022e-19
-3.5368e-19
0.000151057
-5.07423e-19
-3.47032e-19
0.000154312
-5.09335e-19
-3.51274e-19
0.000157635
-5.54686e-19
-3.29917e-19
0.000161027
-5.62067e-19
-3.16891e-19
0.00016449
-5.31813e-19
-3.34763e-19
0.000168026
-5.2003e-19
-3.4723e-19
0.000171635
-5.01791e-19
-3.58236e-19
0.000175319
-5.10852e-19
-3.71457e-19
0.00017908
-5.21887e-19
-3.90462e-19
0.000182919
-5.25904e-19
-4.11438e-19
0.000186838
-5.50956e-19
-4.24115e-19
0.000190839
-5.31873e-19
-4.49911e-19
0.000194923
-5.65213e-19
-4.76059e-19
0.000199092
-6.16316e-19
-4.80674e-19
0.000203347
-6.06314e-19
-5.09274e-19
0.000207691
-6.09469e-19
-4.98007e-19
0.000212124
-6.13802e-19
-4.8879e-19
0.00021665
-6.17915e-19
-5.11558e-19
0.00022127
-6.3959e-19
-5.17463e-19
0.000225985
-6.57383e-19
-5.48339e-19
0.000230798
-6.55666e-19
-5.42853e-19
0.00023571
-6.78515e-19
-5.76161e-19
0.000240724
-6.8113e-19
-5.83588e-19
0.000245842
-6.90902e-19
-5.56088e-19
0.000251065
-6.9254e-19
-5.05503e-19
0.000256396
-6.80559e-19
-5.10845e-19
0.000261837
-6.7293e-19
-5.57732e-19
0.000267391
-5.96704e-19
-5.07641e-19
0.000273058
-5.55027e-19
-5.50365e-19
0.000278842
-6.19529e-19
-5.32908e-19
0.000284746
-5.98282e-19
-5.54029e-19
0.00029077
-6.32655e-19
-5.44455e-19
0.000296918
-5.94452e-19
-6.07496e-19
0.000303192
-6.24189e-19
-5.95185e-19
0.000309595
-6.31822e-19
-6.10027e-19
0.000316129
-7.07978e-19
-6.12417e-19
0.000322797
-6.84856e-19
-5.94166e-19
0.0003296
-7.03989e-19
-6.50705e-19
0.000336543
-6.97407e-19
-6.74834e-19
0.000343627
-7.1082e-19
-6.35687e-19
0.000350856
-7.06103e-19
-6.68335e-19
0.000358231
-6.24638e-19
-5.80411e-19
0.000365757
-6.45813e-19
-5.48213e-19
0.000373435
-6.50689e-19
-5.92602e-19
0.000381269
-6.56959e-19
-6.14804e-19
0.000389261
-6.6775e-19
-6.48825e-19
0.000397415
-7.21057e-19
-6.96834e-19
0.000405733
-7.28883e-19
-7.11518e-19
0.000414219
-7.66611e-19
-7.45474e-19
0.000422876
-7.49413e-19
-7.95108e-19
0.000431706
-8.14985e-19
-7.56494e-19
0.000440714
-7.87276e-19
-7.60905e-19
0.000449901
-8.06933e-19
-8.03136e-19
0.000459272
-8.40478e-19
-8.47614e-19
0.00046883
-8.92372e-19
-7.78361e-19
0.000478578
-8.14306e-19
-7.91648e-19
0.000488519
-8.3132e-19
-8.04501e-19
0.000498657
-8.17761e-19
-7.18963e-19
0.000508994
-8.79635e-19
-7.74783e-19
0.000519535
-8.62105e-19
-8.7921e-19
0.000530284
-8.45248e-19
-8.5782e-19
0.000541242
-8.76842e-19
-8.60081e-19
0.000552414
-8.61026e-19
-8.35725e-19
0.000563803
-8.29889e-19
-8.50437e-19
0.000575412
-8.3158e-19
-8.5629e-19
0.000587246
-8.43993e-19
-8.35387e-19
0.000599306
-7.59601e-19
-7.82984e-19
0.000611597
-7.06723e-19
-5.69642e-19
0.000624122
-7.11027e-19
-5.96948e-19
0.000636884
-8.15413e-19
-5.83349e-19
0.000649886
-6.3912e-19
-7.48249e-19
0.000663132
-7.04317e-19
-7.49153e-19
0.000676623
-5.79356e-19
-7.19456e-19
0.000690364
-5.06542e-19
-7.03567e-19
0.000704356
-5.93162e-19
-5.87796e-19
0.000718603
-4.60578e-19
-4.9773e-19
0.000733106
-5.13393e-19
-4.85435e-19
0.000747867
-3.55454e-19
-4.37037e-19
0.000762889
-3.89881e-19
-5.31698e-19
0.000778172
-3.80822e-19
-6.14961e-19
0.000793719
-3.8076e-19
-5.08362e-19
0.000809529
-4.28555e-19
-5.75633e-19
0.000825603
-6.68952e-19
-4.25158e-19
0.000841941
-6.11374e-19
-5.18111e-19
0.000858542
-6.27014e-19
-5.54492e-19
0.000875404
-6.83603e-19
-4.99758e-19
0.000892525
-7.28476e-19
-5.52241e-19
0.000909904
-6.21519e-19
-7.2066e-19
0.000927535
-6.2137e-19
-6.84234e-19
0.000945414
-6.6634e-19
-7.36341e-19
0.000963537
-6.31039e-19
-6.64212e-19
0.000981897
-6.18601e-19
-7.07662e-19
0.00100049
-6.34921e-19
-7.04597e-19
0.0010193
-7.81312e-19
-7.19706e-19
0.0010193
-1.02843e-18
-6.88149e-21
-9.73658e-19
-1.95874e-20
0.00100049
-9.79339e-19
3.92992e-21
-9.04592e-19
-3.05041e-20
0.000981897
-7.7882e-19
-3.86151e-21
-9.18287e-19
-3.77086e-20
0.000963537
-8.04584e-19
-2.23038e-20
-9.00365e-19
-2.46572e-20
0.000945414
-9.14998e-19
-2.86811e-20
-7.12133e-19
-2.28268e-21
0.000927535
-7.94493e-19
-2.85575e-20
-8.45926e-19
-7.46722e-22
0.000909904
-8.61035e-19
-2.17393e-20
-7.38819e-19
7.7844e-21
0.000892526
-8.81889e-19
-1.06e-21
-8.00735e-19
8.6538e-21
0.000875404
-7.96216e-19
1.03352e-20
-8.15192e-19
4.3602e-21
0.000858542
-8.44438e-19
-3.85709e-22
-8.66128e-19
-3.11035e-21
0.000841941
-8.0371e-19
-4.72138e-21
-9.15908e-19
-8.70957e-22
0.000825603
-8.17048e-19
-1.91403e-20
-7.75926e-19
5.67978e-21
0.000809529
-8.201e-19
-8.76917e-21
-7.41584e-19
4.70948e-21
0.000793719
-6.94097e-19
-4.77654e-21
-7.55503e-19
5.9622e-21
0.000778172
-6.44852e-19
-1.7721e-20
-7.57066e-19
1.88779e-21
0.000762889
-7.59675e-19
-9.98633e-21
-6.41844e-19
-1.05181e-21
0.000747867
-7.24287e-19
-7.83037e-22
-6.99785e-19
-1.07599e-20
0.000733106
-6.25437e-19
6.67571e-21
-7.09283e-19
-1.00865e-20
0.000718603
-5.59231e-19
8.46573e-21
-6.91629e-19
2.75557e-21
0.000704356
-6.03756e-19
1.12877e-20
-4.64859e-19
1.71276e-20
0.000690364
-6.04082e-19
1.52901e-20
-5.61905e-19
1.49833e-20
0.000676623
-5.5717e-19
1.88757e-20
-5.54288e-19
1.00608e-20
0.000663132
-4.17209e-19
2.35387e-20
-4.34904e-19
5.65611e-21
0.000649886
-4.45081e-19
1.93591e-20
-4.84715e-19
-4.74199e-22
0.000636884
-4.69663e-19
4.6456e-21
-4.28794e-19
7.43178e-21
0.000624122
-4.54659e-19
3.00943e-21
-4.44136e-19
5.83921e-21
0.000611597
-4.33036e-19
4.90994e-21
-4.82904e-19
3.56825e-21
0.000599306
-4.00417e-19
4.01315e-21
-5.26762e-19
3.32764e-21
0.000587246
-4.79186e-19
3.10961e-21
-6.00694e-19
5.45977e-21
0.000575412
-3.95949e-19
3.86195e-21
-5.44573e-19
6.63023e-21
0.000563803
-5.31923e-19
-3.16261e-21
-5.11887e-19
6.59487e-21
0.000552414
-4.98838e-19
2.40993e-21
-4.80202e-19
7.97227e-21
0.000541242
-3.89059e-19
5.92816e-21
-4.39403e-19
7.19069e-21
0.000530284
-5.16265e-19
-3.12923e-21
-3.53265e-19
8.88839e-21
0.000519536
-4.8226e-19
8.1105e-22
-4.78268e-19
5.32905e-21
0.000508994
-4.67492e-19
4.172e-21
-4.77676e-19
5.20662e-21
0.000498657
-4.23325e-19
6.45751e-23
-4.47222e-19
5.53657e-21
0.000488519
-4.7119e-19
1.92581e-21
-3.76982e-19
6.59923e-21
0.000478578
-4.87153e-19
3.45868e-21
-3.96026e-19
5.78401e-21
0.00046883
-3.47656e-19
5.64384e-21
-4.19766e-19
3.62051e-21
0.000459272
-3.51948e-19
5.43296e-21
-4.23538e-19
2.89658e-21
0.000449901
-3.43247e-19
8.96079e-21
-4.01309e-19
2.08244e-21
0.000440714
-2.99897e-19
8.58022e-21
-3.97133e-19
2.61685e-21
0.000431706
-3.49032e-19
9.63095e-21
-3.62899e-19
2.31664e-21
0.000422876
-3.01167e-19
9.75226e-21
-2.41675e-19
6.13404e-21
0.000414219
-3.05977e-19
7.73738e-21
-2.6337e-19
4.31456e-21
0.000405733
-2.58724e-19
7.23128e-21
-2.78774e-19
1.02176e-22
0.000397415
-2.65473e-19
6.27097e-21
-2.6167e-19
-1.39515e-21
0.000389261
-2.59385e-19
7.14977e-21
-2.61044e-19
-3.07215e-21
0.000381269
-2.37467e-19
6.79217e-21
-3.00213e-19
-6.30142e-21
0.000373435
-2.36709e-19
6.14146e-21
-3.13515e-19
-5.68287e-21
0.000365757
-2.288e-19
5.48928e-21
-2.06564e-19
-2.34491e-21
0.000358231
-2.577e-19
3.89449e-21
-2.30146e-19
1.46914e-23
0.000350856
-1.85122e-19
3.75679e-21
-2.22532e-19
1.42266e-21
0.000343627
-1.9094e-19
2.64319e-21
-2.03021e-19
7.42952e-23
0.000336543
-1.88702e-19
2.47411e-21
-2.49749e-19
-1.45661e-21
0.0003296
-1.74778e-19
3.37585e-21
-2.00327e-19
-2.21622e-21
0.000322797
-1.84695e-19
2.88304e-21
-1.09758e-19
-2.27522e-21
0.000316129
-1.6899e-19
1.46564e-21
-1.38591e-19
-2.21762e-21
0.000309595
-1.52594e-19
8.95851e-22
-1.37984e-19
-2.25972e-21
0.000303192
-1.42223e-19
7.29397e-22
-1.23812e-19
-2.21486e-21
0.000296918
-1.28335e-19
9.1257e-22
-1.14028e-19