/*--------------------------------*- C++ -*----------------------------------*\
| =========                 |                                                 |
| \\      /  F ield         | OpenFOAM: The Open Source CFD Toolbox           |
|  \\    /   O peration     | Version:  2106                                  |
|   \\  /    A nd           | Website:  www.openfoam.com                      |
|    \\/     M anipulation  |                                                 |
\*---------------------------------------------------------------------------*/
FoamFile
{
    version     2.0;
    format      ascii;
    arch        "LSB;label=32;scalar=64";
    class       volSymmTensorField;
    location    "10030";
    object      turbulenceProperties:R;
}
// * * * * * * * * * * * * * * * * * * * * * * * * * * * * * * * * * * * * * //

dimensions      [0 2 -2 0 0 0 0];

internalField   nonuniform List<symmTensor> 
2000
(
(7.04981e-07 -1.74064e-10 -3.22158e-13 7.04981e-07 1.72793e-24 7.04981e-07)
(7.04981e-07 -1.74064e-10 -3.22158e-13 7.04981e-07 9.65581e-29 7.04981e-07)
(1.47952e-07 -2.10434e-10 -1.17576e-12 1.47952e-07 3.27639e-25 1.47952e-07)
(1.47952e-07 -2.10434e-10 -1.17576e-12 1.47952e-07 2.326e-28 1.47952e-07)
(3.55093e-07 -1.49533e-09 -1.15925e-11 3.55093e-07 1.45855e-24 3.55093e-07)
(3.55093e-07 -1.49533e-09 -1.15925e-11 3.55093e-07 2.07899e-27 3.55093e-07)
(1.21747e-06 -1.09151e-08 -8.61978e-11 1.21747e-06 9.69449e-24 1.21747e-06)
(1.21747e-06 -1.09151e-08 -8.61978e-11 1.21747e-06 1.77289e-26 1.21747e-06)
(3.18391e-06 -5.05555e-08 -4.06689e-10 3.18391e-06 4.25585e-23 3.18391e-06)
(3.18391e-06 -5.05555e-08 -4.06689e-10 3.18391e-06 9.96516e-26 3.18391e-06)
(6.85225e-06 -1.71911e-07 -1.4087e-09 6.85225e-06 1.47897e-22 6.85225e-06)
(6.85225e-06 -1.71911e-07 -1.4087e-09 6.85225e-06 4.15254e-25 6.85225e-06)
(1.29375e-05 -4.74888e-07 -3.96381e-09 1.29375e-05 4.171e-22 1.29375e-05)
(1.29375e-05 -4.74888e-07 -3.96381e-09 1.29375e-05 1.40905e-24 1.29375e-05)
(2.22682e-05 -1.13161e-06 -9.62074e-09 2.22682e-05 1.01477e-21 2.22682e-05)
(2.22682e-05 -1.13161e-06 -9.62074e-09 2.22682e-05 3.93687e-24 2.22682e-05)
(3.57849e-05 -2.4144e-06 -2.09063e-08 3.57849e-05 2.19734e-21 3.57849e-05)
(3.57849e-05 -2.4144e-06 -2.09063e-08 3.57849e-05 9.27903e-24 3.57849e-05)
(5.45346e-05 -4.72589e-06 -4.16743e-08 5.45346e-05 4.34146e-21 5.45346e-05)
(5.45346e-05 -4.72589e-06 -4.16743e-08 5.45346e-05 2.01331e-23 5.45346e-05)
(7.96579e-05 -8.62749e-06 -7.74686e-08 7.96579e-05 7.94887e-21 7.96579e-05)
(7.96579e-05 -8.62749e-06 -7.74686e-08 7.96579e-05 4.1846e-23 7.96579e-05)
(0.000112364 -1.48595e-05 -1.3584e-07 0.000112364 1.36155e-20 0.000112364)
(0.000112364 -1.48595e-05 -1.3584e-07 0.000112364 8.18906e-23 0.000112364)
(0.000153893 -2.43441e-05 -2.26519e-07 0.000153893 2.1937e-20 0.000153893)
(0.000153893 -2.43441e-05 -2.26519e-07 0.000153893 1.54733e-22 0.000153893)
(0.000205452 -3.8161e-05 -3.61336e-07 0.000205452 3.33396e-20 0.000205452)
(0.000205452 -3.8161e-05 -3.61336e-07 0.000205452 2.67932e-22 0.000205452)
(0.000268144 -5.74859e-05 -5.53751e-07 0.000268144 4.78396e-20 0.000268144)
(0.000268144 -5.74859e-05 -5.53751e-07 0.000268144 4.22031e-22 0.000268144)
(0.00034287 -8.34895e-05 -8.1795e-07 0.00034287 6.47554e-20 0.00034287)
(0.00034287 -8.34895e-05 -8.1795e-07 0.00034287 6.68361e-22 0.00034287)
(0.000430231 -0.000117202 -1.16751e-06 0.000430231 8.25371e-20 0.000430231)
(0.000430231 -0.000117202 -1.16751e-06 0.000430231 1.07202e-21 0.000430231)
(0.000530432 -0.000159366 -1.61382e-06 0.000530432 9.87017e-20 0.000530432)
(0.000530432 -0.000159366 -1.61382e-06 0.000530432 1.63206e-21 0.000530432)
(0.000643211 -0.0002103 -2.16458e-06 0.000643211 1.10057e-19 0.000643211)
(0.000643211 -0.0002103 -2.16458e-06 0.000643211 2.39128e-21 0.000643211)
(0.000767814 -0.000269819 -2.82262e-06 0.000767814 1.13319e-19 0.000767814)
(0.000767814 -0.000269819 -2.82262e-06 0.000767814 3.43821e-21 0.000767814)
(0.000903011 -0.000337219 -3.58552e-06 0.000903011 1.05632e-19 0.000903011)
(0.000903011 -0.000337219 -3.58552e-06 0.000903011 4.76597e-21 0.000903011)
(0.00104717 -0.000411347 -4.44588e-06 0.00104717 8.5409e-20 0.00104717)
(0.00104717 -0.000411347 -4.44588e-06 0.00104717 6.42636e-21 0.00104717)
(0.00119839 -0.000490726 -5.39236e-06 0.00119839 2.59311e-21 0.00119839)
(0.00119839 -0.000490726 -5.39236e-06 0.00119839 8.58976e-21 0.00119839)
(0.0013546 -0.000573716 -6.41106e-06 0.0013546 -1.35569e-19 0.0013546)
(0.0013546 -0.000573716 -6.41106e-06 0.0013546 1.10905e-20 0.0013546)
(0.00151372 -0.00065867 -7.48704e-06 0.00151372 -3.13297e-19 0.00151372)
(0.00151372 -0.00065867 -7.48704e-06 0.00151372 1.40907e-20 0.00151372)
(0.00167379 -0.000744063 -8.60557e-06 0.00167379 -4.08756e-19 0.00167379)
(0.00167379 -0.000744063 -8.60557e-06 0.00167379 1.80185e-20 0.00167379)
(0.00183302 -0.000828577 -9.75318e-06 0.00183302 -5.05141e-19 0.00183302)
(0.00183302 -0.000828577 -9.75318e-06 0.00183302 2.22895e-20 0.00183302)
(0.0019899 -0.000911144 -1.09182e-05 0.0019899 -5.98311e-19 0.0019899)
(0.0019899 -0.000911144 -1.09182e-05 0.0019899 2.64757e-20 0.0019899)
(0.00214317 -0.000990954 -1.2091e-05 0.00214317 -6.85475e-19 0.00214317)
(0.00214317 -0.000990954 -1.2091e-05 0.00214317 3.13802e-20 0.00214317)
(0.00229186 -0.00106743 -1.3264e-05 0.00229186 -6.76323e-19 0.00229186)
(0.00229186 -0.00106743 -1.3264e-05 0.00229186 3.80435e-20 0.00229186)
(0.00243523 -0.00114022 -1.44318e-05 0.00243523 -5.14515e-19 0.00243523)
(0.00243523 -0.00114022 -1.44318e-05 0.00243523 4.46904e-20 0.00243523)
(0.00257279 -0.00120911 -1.55901e-05 0.00257279 -4.08791e-19 0.00257279)
(0.00257279 -0.00120911 -1.55901e-05 0.00257279 5.09388e-20 0.00257279)
(0.00270423 -0.00127405 -1.67366e-05 0.00270423 -4.23628e-19 0.00270423)
(0.00270423 -0.00127405 -1.67366e-05 0.00270423 5.88556e-20 0.00270423)
(0.00282941 -0.00133506 -1.78697e-05 0.00282941 -4.30022e-19 0.00282941)
(0.00282941 -0.00133506 -1.78697e-05 0.00282941 6.75215e-20 0.00282941)
(0.00294831 -0.00139226 -1.89887e-05 0.00294831 -4.24914e-19 0.00294831)
(0.00294831 -0.00139226 -1.89887e-05 0.00294831 7.51962e-20 0.00294831)
(0.003061 -0.00144579 -2.00938e-05 0.003061 -4.10124e-19 0.003061)
(0.003061 -0.00144579 -2.00938e-05 0.003061 8.57423e-20 0.003061)
(0.00316762 -0.00149583 -2.11855e-05 0.00316762 -3.88035e-19 0.00316762)
(0.00316762 -0.00149583 -2.11855e-05 0.00316762 9.79391e-20 0.00316762)
(0.00326839 -0.00154258 -2.22644e-05 0.00326839 -3.57953e-19 0.00326839)
(0.00326839 -0.00154258 -2.22644e-05 0.00326839 1.06553e-19 0.00326839)
(0.00336352 -0.00158625 -2.33319e-05 0.00336352 -3.19352e-19 0.00336352)
(0.00336352 -0.00158625 -2.33319e-05 0.00336352 1.19382e-19 0.00336352)
(0.00345328 -0.00162704 -2.4389e-05 0.00345328 -2.75249e-19 0.00345328)
(0.00345328 -0.00162704 -2.4389e-05 0.00345328 1.3657e-19 0.00345328)
(0.00353794 -0.00166514 -2.5437e-05 0.00353794 -2.28498e-19 0.00353794)
(0.00353794 -0.00166514 -2.5437e-05 0.00353794 1.49023e-19 0.00353794)
(0.00361777 -0.00170075 -2.64774e-05 0.00361777 -1.75652e-19 0.00361777)
(0.00361777 -0.00170075 -2.64774e-05 0.00361777 1.5794e-19 0.00361777)
(0.00369303 -0.00173405 -2.75114e-05 0.00369303 -1.12136e-19 0.00369303)
(0.00369303 -0.00173405 -2.75114e-05 0.00369303 1.68688e-19 0.00369303)
(0.003764 -0.0017652 -2.85405e-05 0.003764 -4.33776e-20 0.003764)
(0.003764 -0.0017652 -2.85405e-05 0.003764 1.87897e-19 0.003764)
(0.00383092 -0.00179436 -2.95658e-05 0.00383092 2.92406e-20 0.00383092)
(0.00383092 -0.00179436 -2.95658e-05 0.00383092 2.05643e-19 0.00383092)
(0.00389405 -0.00182169 -3.05887e-05 0.00389405 1.05611e-19 0.00389405)
(0.00389405 -0.00182169 -3.05887e-05 0.00389405 2.1629e-19 0.00389405)
(0.00395362 -0.00184731 -3.16103e-05 0.00395362 1.79474e-19 0.00395362)
(0.00395362 -0.00184731 -3.16103e-05 0.00395362 2.55265e-19 0.00395362)
(0.00400985 -0.00187135 -3.2632e-05 0.00400985 2.55222e-19 0.00400985)
(0.00400985 -0.00187135 -3.2632e-05 0.00400985 3.97319e-19 0.00400985)
(0.00406294 -0.00189393 -3.36546e-05 0.00406294 3.52193e-19 0.00406294)
(0.00406294 -0.00189393 -3.36546e-05 0.00406294 5.13688e-19 0.00406294)
(0.0041131 -0.00191515 -3.46794e-05 0.0041131 4.42211e-19 0.0041131)
(0.0041131 -0.00191515 -3.46794e-05 0.0041131 5.43556e-19 0.0041131)
(0.0041605 -0.0019351 -3.57073e-05 0.0041605 5.37333e-19 0.0041605)
(0.0041605 -0.0019351 -3.57073e-05 0.0041605 5.93452e-19 0.0041605)
(0.00420531 -0.00195389 -3.67393e-05 0.00420531 6.27746e-19 0.00420531)
(0.00420531 -0.00195389 -3.67393e-05 0.00420531 6.25631e-19 0.00420531)
(0.0042477 -0.00197158 -3.77763e-05 0.0042477 7.17175e-19 0.0042477)
(0.0042477 -0.00197158 -3.77763e-05 0.0042477 6.62191e-19 0.0042477)
(0.00428781 -0.00198826 -3.88192e-05 0.00428781 8.44431e-19 0.00428781)
(0.00428781 -0.00198826 -3.88192e-05 0.00428781 7.05283e-19 0.00428781)
(0.00432578 -0.00200399 -3.98688e-05 0.00432578 9.48105e-19 0.00432578)
(0.00432578 -0.00200399 -3.98688e-05 0.00432578 7.40802e-19 0.00432578)
(0.00436174 -0.00201883 -4.09259e-05 0.00436174 1.03307e-18 0.00436174)
(0.00436174 -0.00201883 -4.09259e-05 0.00436174 7.91455e-19 0.00436174)
(0.00439582 -0.00203285 -4.19913e-05 0.00439582 1.14699e-18 0.00439582)
(0.00439582 -0.00203285 -4.19913e-05 0.00439582 8.43836e-19 0.00439582)
(0.00442811 -0.0020461 -4.30657e-05 0.00442811 1.2901e-18 0.00442811)
(0.00442811 -0.0020461 -4.30657e-05 0.00442811 8.78576e-19 0.00442811)
(0.00445873 -0.00205863 -4.41498e-05 0.00445873 1.41249e-18 0.00445873)
(0.00445873 -0.00205863 -4.41498e-05 0.00445873 9.17871e-19 0.00445873)
(0.00448777 -0.00207048 -4.52443e-05 0.00448777 1.53945e-18 0.00448777)
(0.00448777 -0.00207048 -4.52443e-05 0.00448777 9.75247e-19 0.00448777)
(0.00451531 -0.00208169 -4.63498e-05 0.00451531 1.66624e-18 0.00451531)
(0.00451531 -0.00208169 -4.63498e-05 0.00451531 1.05751e-18 0.00451531)
(0.00454146 -0.0020923 -4.74669e-05 0.00454146 1.77746e-18 0.00454146)
(0.00454146 -0.0020923 -4.74669e-05 0.00454146 1.12767e-18 0.00454146)
(0.00456627 -0.00210235 -4.85964e-05 0.00456627 1.87059e-18 0.00456627)
(0.00456627 -0.00210235 -4.85964e-05 0.00456627 1.15357e-18 0.00456627)
(0.00458982 -0.00211187 -4.97387e-05 0.00458982 2.00738e-18 0.00458982)
(0.00458982 -0.00211187 -4.97387e-05 0.00458982 1.21846e-18 0.00458982)
(0.00461218 -0.00212089 -5.08944e-05 0.00461218 2.17342e-18 0.00461218)
(0.00461218 -0.00212089 -5.08944e-05 0.00461218 1.30786e-18 0.00461218)
(0.00463342 -0.00212944 -5.20642e-05 0.00463342 2.31376e-18 0.00463342)
(0.00463342 -0.00212944 -5.20642e-05 0.00463342 1.35447e-18 0.00463342)
(0.00465358 -0.00213754 -5.32484e-05 0.00465358 2.45383e-18 0.00465358)
(0.00465358 -0.00213754 -5.32484e-05 0.00465358 1.42839e-18 0.00465358)
(0.00467272 -0.00214522 -5.44478e-05 0.00467272 2.5846e-18 0.00467272)
(0.00467272 -0.00214522 -5.44478e-05 0.00467272 1.53644e-18 0.00467272)
(0.0046909 -0.0021525 -5.56627e-05 0.0046909 2.73592e-18 0.0046909)
(0.0046909 -0.0021525 -5.56627e-05 0.0046909 1.60702e-18 0.0046909)
(0.00470816 -0.0021594 -5.68938e-05 0.00470816 2.88964e-18 0.00470816)
(0.00470816 -0.0021594 -5.68938e-05 0.00470816 1.67595e-18 0.00470816)
(0.00472455 -0.00216594 -5.81415e-05 0.00472455 3.02237e-18 0.00472455)
(0.00472455 -0.00216594 -5.81415e-05 0.00472455 1.75772e-18 0.00472455)
(0.0047401 -0.00217213 -5.94062e-05 0.0047401 3.17967e-18 0.0047401)
(0.0047401 -0.00217213 -5.94062e-05 0.0047401 1.77523e-18 0.0047401)
(0.00475485 -0.002178 -6.06886e-05 0.00475485 3.32078e-18 0.00475485)
(0.00475485 -0.002178 -6.06886e-05 0.00475485 1.81977e-18 0.00475485)
(0.00476885 -0.00218356 -6.1989e-05 0.00476885 3.49805e-18 0.00476885)
(0.00476885 -0.00218356 -6.1989e-05 0.00476885 1.9798e-18 0.00476885)
(0.00478211 -0.00218882 -6.3308e-05 0.00478211 3.70179e-18 0.00478211)
(0.00478211 -0.00218882 -6.3308e-05 0.00478211 2.12508e-18 0.00478211)
(0.00479468 -0.0021938 -6.46459e-05 0.00479468 3.83909e-18 0.00479468)
(0.00479468 -0.0021938 -6.46459e-05 0.00479468 2.21363e-18 0.00479468)
(0.00480659 -0.0021985 -6.60034e-05 0.00480659 4.05873e-18 0.00480659)
(0.00480659 -0.0021985 -6.60034e-05 0.00480659 2.24842e-18 0.00480659)
(0.00481785 -0.00220294 -6.73808e-05 0.00481785 4.2455e-18 0.00481785)
(0.00481785 -0.00220294 -6.73808e-05 0.00481785 2.35494e-18 0.00481785)
(0.0048285 -0.00220714 -6.87785e-05 0.0048285 4.39167e-18 0.0048285)
(0.0048285 -0.00220714 -6.87785e-05 0.0048285 2.55621e-18 0.0048285)
(0.00483856 -0.00221109 -7.01972e-05 0.00483856 4.59426e-18 0.00483856)
(0.00483856 -0.00221109 -7.01972e-05 0.00483856 2.65136e-18 0.00483856)
(0.00484805 -0.00221482 -7.16371e-05 0.00484805 4.78819e-18 0.00484805)
(0.00484805 -0.00221482 -7.16371e-05 0.00484805 2.77389e-18 0.00484805)
(0.00485699 -0.00221832 -7.30988e-05 0.00485699 4.97939e-18 0.00485699)
(0.00485699 -0.00221832 -7.30988e-05 0.00485699 2.839e-18 0.00485699)
(0.00486541 -0.00222161 -7.45826e-05 0.00486541 5.1702e-18 0.00486541)
(0.00486541 -0.00222161 -7.45826e-05 0.00486541 2.91164e-18 0.00486541)
(0.00487332 -0.00222469 -7.60891e-05 0.00487332 5.43197e-18 0.00487332)
(0.00487332 -0.00222469 -7.60891e-05 0.00487332 3.22833e-18 0.00487332)
(0.00488073 -0.00222758 -7.76186e-05 0.00488073 5.67473e-18 0.00488073)
(0.00488073 -0.00222758 -7.76186e-05 0.00488073 3.44274e-18 0.00488073)
(0.00488768 -0.00223027 -7.91717e-05 0.00488768 5.85113e-18 0.00488768)
(0.00488768 -0.00223027 -7.91717e-05 0.00488768 3.4867e-18 0.00488768)
(0.00489416 -0.00223277 -8.07487e-05 0.00489416 6.09027e-18 0.00489416)
(0.00489416 -0.00223277 -8.07487e-05 0.00489416 3.62921e-18 0.00489416)
(0.00490019 -0.0022351 -8.23502e-05 0.00490019 6.28987e-18 0.00490019)
(0.00490019 -0.0022351 -8.23502e-05 0.00490019 3.86853e-18 0.00490019)
(0.00490579 -0.00223724 -8.39764e-05 0.00490579 6.48472e-18 0.00490579)
(0.00490579 -0.00223724 -8.39764e-05 0.00490579 4.03553e-18 0.00490579)
(0.00491098 -0.00223922 -8.56279e-05 0.00491098 4.79845e-18 0.00491098)
(0.00491098 -0.00223922 -8.56279e-05 0.00491098 4.23808e-18 0.00491098)
(0.00491575 -0.00224103 -8.73051e-05 0.00491575 2.42953e-18 0.00491575)
(0.00491575 -0.00224103 -8.73051e-05 0.00491575 4.51726e-18 0.00491575)
(0.00492013 -0.00224268 -8.90084e-05 0.00492013 2.10419e-18 0.00492013)
(0.00492013 -0.00224268 -8.90084e-05 0.00492013 4.63832e-18 0.00492013)
(0.00492411 -0.00224417 -9.07383e-05 0.00492411 2.45174e-18 0.00492411)
(0.00492411 -0.00224417 -9.07383e-05 0.00492411 4.83572e-18 0.00492411)
(0.00492772 -0.00224551 -9.24952e-05 0.00492772 2.47205e-18 0.00492772)
(0.00492772 -0.00224551 -9.24952e-05 0.00492772 5.11848e-18 0.00492772)
(0.00493097 -0.00224669 -9.42796e-05 0.00493097 2.42988e-18 0.00493097)
(0.00493097 -0.00224669 -9.42796e-05 0.00493097 5.30029e-18 0.00493097)
(0.00493385 -0.00224773 -9.60917e-05 0.00493385 2.51123e-18 0.00493385)
(0.00493385 -0.00224773 -9.60917e-05 0.00493385 5.3719e-18 0.00493385)
(0.00493638 -0.00224862 -9.79322e-05 0.00493638 2.49274e-18 0.00493638)
(0.00493638 -0.00224862 -9.79322e-05 0.00493638 5.49405e-18 0.00493638)
(0.00493856 -0.00224937 -9.98014e-05 0.00493856 2.46478e-18 0.00493856)
(0.00493856 -0.00224937 -9.98014e-05 0.00493856 5.85313e-18 0.00493856)
(0.0049404 -0.00224998 -0.0001017 0.0049404 2.56524e-18 0.0049404)
(0.0049404 -0.00224998 -0.0001017 0.0049404 6.0243e-18 0.0049404)
(0.00494192 -0.00225046 -0.000103628 0.00494192 2.51426e-18 0.00494192)
(0.00494192 -0.00225046 -0.000103628 0.00494192 6.24974e-18 0.00494192)
(0.0049431 -0.0022508 -0.000105585 0.0049431 2.37582e-18 0.0049431)
(0.0049431 -0.0022508 -0.000105585 0.0049431 6.50919e-18 0.0049431)
(0.00494397 -0.002251 -0.000107574 0.00494397 2.49816e-18 0.00494397)
(0.00494397 -0.002251 -0.000107574 0.00494397 6.53451e-18 0.00494397)
(0.00494452 -0.00225108 -0.000109593 0.00494452 2.49901e-18 0.00494452)
(0.00494452 -0.00225108 -0.000109593 0.00494452 6.89491e-18 0.00494452)
(0.00494476 -0.00225102 -0.000111643 0.00494476 2.49206e-18 0.00494476)
(0.00494476 -0.00225102 -0.000111643 0.00494476 7.31471e-18 0.00494476)
(0.0049447 -0.00225084 -0.000113725 0.0049447 2.56806e-18 0.0049447)
(0.0049447 -0.00225084 -0.000113725 0.0049447 7.51554e-18 0.0049447)
(0.00494433 -0.00225052 -0.00011584 0.00494433 2.68478e-18 0.00494433)
(0.00494433 -0.00225052 -0.00011584 0.00494433 7.6794e-18 0.00494433)
(0.00494366 -0.00225009 -0.000117986 0.00494366 2.63526e-18 0.00494366)
(0.00494366 -0.00225009 -0.000117986 0.00494366 7.83738e-18 0.00494366)
(0.0049427 -0.00224952 -0.000120166 0.0049427 2.25384e-18 0.0049427)
(0.0049427 -0.00224952 -0.000120166 0.0049427 8.35338e-18 0.0049427)
(0.00494144 -0.00224884 -0.000122379 0.00494144 2.22236e-18 0.00494144)
(0.00494144 -0.00224884 -0.000122379 0.00494144 8.65044e-18 0.00494144)
(0.0049399 -0.00224803 -0.000124625 0.0049399 2.3245e-18 0.0049399)
(0.0049399 -0.00224803 -0.000124625 0.0049399 8.89679e-18 0.0049399)
(0.00493807 -0.0022471 -0.000126906 0.00493807 2.43373e-18 0.00493807)
(0.00493807 -0.0022471 -0.000126906 0.00493807 9.50873e-18 0.00493807)
(0.00493596 -0.00224604 -0.000129221 0.00493596 2.4546e-18 0.00493596)
(0.00493596 -0.00224604 -0.000129221 0.00493596 9.78538e-18 0.00493596)
(0.00493356 -0.00224487 -0.000131571 0.00493356 2.35719e-18 0.00493356)
(0.00493356 -0.00224487 -0.000131571 0.00493356 9.86746e-18 0.00493356)
(0.00493088 -0.00224357 -0.000133957 0.00493088 2.51729e-18 0.00493088)
(0.00493088 -0.00224357 -0.000133957 0.00493088 1.00986e-17 0.00493088)
(0.00492793 -0.00224215 -0.000136378 0.00492793 2.28118e-18 0.00492793)
(0.00492793 -0.00224215 -0.000136378 0.00492793 1.10356e-17 0.00492793)
(0.0049247 -0.00224061 -0.000138835 0.0049247 2.58442e-18 0.0049247)
(0.0049247 -0.00224061 -0.000138835 0.0049247 1.17467e-17 0.0049247)
(0.00492119 -0.00223895 -0.000141328 0.00492119 3.46856e-18 0.00492119)
(0.00492119 -0.00223895 -0.000141328 0.00492119 1.15533e-17 0.00492119)
(0.00491741 -0.00223717 -0.000143859 0.00491741 3.0684e-18 0.00491741)
(0.00491741 -0.00223717 -0.000143859 0.00491741 1.19792e-17 0.00491741)
(0.00491335 -0.00223527 -0.000146426 0.00491335 2.68515e-18 0.00491335)
(0.00491335 -0.00223527 -0.000146426 0.00491335 1.32084e-17 0.00491335)
(0.00490902 -0.00223325 -0.000149031 0.00490902 3.31435e-18 0.00490902)
(0.00490902 -0.00223325 -0.000149031 0.00490902 1.40298e-17 0.00490902)
(0.00490441 -0.00223111 -0.000151673 0.00490441 3.37132e-18 0.00490441)
(0.00490441 -0.00223111 -0.000151673 0.00490441 1.38989e-17 0.00490441)
(0.00489954 -0.00222884 -0.000154354 0.00489954 2.98357e-18 0.00489954)
(0.00489954 -0.00222884 -0.000154354 0.00489954 1.41425e-17 0.00489954)
(0.00489439 -0.00222645 -0.000157073 0.00489439 2.44197e-18 0.00489439)
(0.00489439 -0.00222645 -0.000157073 0.00489439 1.50666e-17 0.00489439)
(0.00488897 -0.00222394 -0.000159831 0.00488897 2.4495e-18 0.00488897)
(0.00488897 -0.00222394 -0.000159831 0.00488897 1.59594e-17 0.00488897)
(0.00488327 -0.00222131 -0.000162628 0.00488327 2.9632e-18 0.00488327)
(0.00488327 -0.00222131 -0.000162628 0.00488327 1.67992e-17 0.00488327)
(0.00487731 -0.00221855 -0.000165464 0.00487731 3.24056e-18 0.00487731)
(0.00487731 -0.00221855 -0.000165464 0.00487731 1.70777e-17 0.00487731)
(0.00487107 -0.00221567 -0.00016834 0.00487107 3.0376e-18 0.00487107)
(0.00487107 -0.00221567 -0.00016834 0.00487107 1.67863e-17 0.00487107)
(0.00486455 -0.00221266 -0.000171256 0.00486455 1.16424e-18 0.00486455)
(0.00486455 -0.00221266 -0.000171256 0.00486455 1.73004e-17 0.00486455)
(0.00485776 -0.00220953 -0.000174211 0.00485776 5.08564e-19 0.00485776)
(0.00485776 -0.00220953 -0.000174211 0.00485776 1.89457e-17 0.00485776)
(0.0048507 -0.00220627 -0.000177207 0.0048507 -3.19454e-19 0.0048507)
(0.0048507 -0.00220627 -0.000177207 0.0048507 1.97074e-17 0.0048507)
(0.00484335 -0.00220288 -0.000180243 0.00484335 -2.92741e-19 0.00484335)
(0.00484335 -0.00220288 -0.000180243 0.00484335 1.89596e-17 0.00484335)
(0.00483573 -0.00219936 -0.00018332 0.00483573 -9.72415e-19 0.00483573)
(0.00483573 -0.00219936 -0.00018332 0.00483573 1.93792e-17 0.00483573)
(0.00482783 -0.00219571 -0.000186438 0.00482783 -2.09465e-18 0.00482783)
(0.00482783 -0.00219571 -0.000186438 0.00482783 2.16895e-17 0.00482783)
(0.00481965 -0.00219193 -0.000189597 0.00481965 -1.15997e-18 0.00481965)
(0.00481965 -0.00219193 -0.000189597 0.00481965 2.26956e-17 0.00481965)
(0.00481119 -0.00218802 -0.000192796 0.00481119 -5.74949e-20 0.00481119)
(0.00481119 -0.00218802 -0.000192796 0.00481119 2.20424e-17 0.00481119)
(0.00480245 -0.00218397 -0.000196037 0.00480245 -1.97145e-19 0.00480245)
(0.00480245 -0.00218397 -0.000196037 0.00480245 2.31247e-17 0.00480245)
(0.00479342 -0.00217979 -0.000199319 0.00479342 -6.52989e-19 0.00479342)
(0.00479342 -0.00217979 -0.000199319 0.00479342 1.87503e-17 0.00479342)
(0.0047841 -0.00217547 -0.000202643 0.0047841 -8.25762e-19 0.0047841)
(0.0047841 -0.00217547 -0.000202643 0.0047841 1.16788e-17 0.0047841)
(0.00477449 -0.00217101 -0.000206008 0.00477449 -1.60386e-18 0.00477449)
(0.00477449 -0.00217101 -0.000206008 0.00477449 1.016e-17 0.00477449)
(0.00476459 -0.00216641 -0.000209414 0.00476459 -3.27484e-18 0.00476459)
(0.00476459 -0.00216641 -0.000209414 0.00476459 1.1153e-17 0.00476459)
(0.0047544 -0.00216167 -0.000212861 0.0047544 -3.87813e-18 0.0047544)
(0.0047544 -0.00216167 -0.000212861 0.0047544 1.30388e-17 0.0047544)
(0.00474391 -0.00215679 -0.00021635 0.00474391 -2.29982e-18 0.00474391)
(0.00474391 -0.00215679 -0.00021635 0.00474391 1.30811e-17 0.00474391)
(0.00473313 -0.00215177 -0.000219879 0.00473313 -2.81061e-18 0.00473313)
(0.00473313 -0.00215177 -0.000219879 0.00473313 1.21072e-17 0.00473313)
(0.00472204 -0.00214659 -0.00022345 0.00472204 -4.23532e-18 0.00472204)
(0.00472204 -0.00214659 -0.00022345 0.00472204 1.18156e-17 0.00472204)
(0.00471065 -0.00214127 -0.000227061 0.00471065 -3.91803e-18 0.00471065)
(0.00471065 -0.00214127 -0.000227061 0.00471065 1.27767e-17 0.00471065)
(0.00469896 -0.0021358 -0.000230713 0.00469896 -3.54758e-18 0.00469896)
(0.00469896 -0.0021358 -0.000230713 0.00469896 1.32484e-17 0.00469896)
(0.00468695 -0.00213018 -0.000234405 0.00468695 -3.87902e-18 0.00468695)
(0.00468695 -0.00213018 -0.000234405 0.00468695 1.34236e-17 0.00468695)
(0.00467464 -0.00212441 -0.000238137 0.00467464 -3.43173e-18 0.00467464)
(0.00467464 -0.00212441 -0.000238137 0.00467464 1.47141e-17 0.00467464)
(0.00466201 -0.00211847 -0.000241908 0.00466201 -5.80731e-19 0.00466201)
(0.00466201 -0.00211847 -0.000241908 0.00466201 1.56453e-17 0.00466201)
(0.00464906 -0.00211238 -0.000245719 0.00464906 -4.79755e-19 0.00464906)
(0.00464906 -0.00211238 -0.000245719 0.00464906 1.86377e-17 0.00464906)
(0.0046358 -0.00210613 -0.000249569 0.0046358 -4.83582e-18 0.0046358)
(0.0046358 -0.00210613 -0.000249569 0.0046358 2.04028e-17 0.0046358)
(0.00462221 -0.00209972 -0.000253457 0.00462221 -7.96956e-18 0.00462221)
(0.00462221 -0.00209972 -0.000253457 0.00462221 2.05398e-17 0.00462221)
(0.00460829 -0.00209314 -0.000257382 0.00460829 -1.02779e-17 0.00460829)
(0.00460829 -0.00209314 -0.000257382 0.00460829 2.13165e-17 0.00460829)
(0.00459404 -0.0020864 -0.000261345 0.00459404 -9.34526e-18 0.00459404)
(0.00459404 -0.0020864 -0.000261345 0.00459404 2.1351e-17 0.00459404)
(0.00457945 -0.00207949 -0.000265344 0.00457945 -5.63963e-18 0.00457945)
(0.00457945 -0.00207949 -0.000265344 0.00457945 2.22246e-17 0.00457945)
(0.00456453 -0.0020724 -0.000269379 0.00456453 -2.30825e-18 0.00456453)
(0.00456453 -0.0020724 -0.000269379 0.00456453 2.35183e-17 0.00456453)
(0.00454927 -0.00206514 -0.000273449 0.00454927 -1.6354e-18 0.00454927)
(0.00454927 -0.00206514 -0.000273449 0.00454927 2.55235e-17 0.00454927)
(0.00453366 -0.00205771 -0.000277552 0.00453366 -8.02551e-19 0.00453366)
(0.00453366 -0.00205771 -0.000277552 0.00453366 2.72892e-17 0.00453366)
(0.0045177 -0.00205009 -0.000281689 0.0045177 1.50119e-18 0.0045177)
(0.0045177 -0.00205009 -0.000281689 0.0045177 2.58486e-17 0.0045177)
(0.00450138 -0.0020423 -0.000285857 0.00450138 1.55499e-18 0.00450138)
(0.00450138 -0.0020423 -0.000285857 0.00450138 2.32555e-17 0.00450138)
(0.00448471 -0.00203431 -0.000290057 0.00448471 -1.38103e-18 0.00448471)
(0.00448471 -0.00203431 -0.000290057 0.00448471 2.33963e-17 0.00448471)
(0.00446768 -0.00202615 -0.000294286 0.00446768 -1.06949e-18 0.00446768)
(0.00446768 -0.00202615 -0.000294286 0.00446768 2.34035e-17 0.00446768)
(0.00445028 -0.00201779 -0.000298543 0.00445028 -3.55589e-18 0.00445028)
(0.00445028 -0.00201779 -0.000298543 0.00445028 2.3373e-17 0.00445028)
(0.00443251 -0.00200923 -0.000302828 0.00443251 -4.40454e-18 0.00443251)
(0.00443251 -0.00200923 -0.000302828 0.00443251 2.5243e-17 0.00443251)
(0.00441436 -0.00200049 -0.000307137 0.00441436 -3.42367e-18 0.00441436)
(0.00441436 -0.00200049 -0.000307137 0.00441436 2.88296e-17 0.00441436)
(0.00439583 -0.00199154 -0.000311471 0.00439583 -3.14779e-18 0.00439583)
(0.00439583 -0.00199154 -0.000311471 0.00439583 3.26723e-17 0.00439583)
(0.00437692 -0.00198239 -0.000315827 0.00437692 -3.98776e-18 0.00437692)
(0.00437692 -0.00198239 -0.000315827 0.00437692 3.30278e-17 0.00437692)
(0.00435762 -0.00197303 -0.000320203 0.00435762 -2.08701e-18 0.00435762)
(0.00435762 -0.00197303 -0.000320203 0.00435762 3.00884e-17 0.00435762)
(0.00433792 -0.00196347 -0.000324598 0.00433792 6.04769e-20 0.00433792)
(0.00433792 -0.00196347 -0.000324598 0.00433792 3.07034e-17 0.00433792)
(0.00431782 -0.00195369 -0.000329009 0.00431782 3.42999e-19 0.00431782)
(0.00431782 -0.00195369 -0.000329009 0.00431782 3.12599e-17 0.00431782)
(0.00429732 -0.0019437 -0.000333434 0.00429732 2.96934e-18 0.00429732)
(0.00429732 -0.0019437 -0.000333434 0.00429732 3.00724e-17 0.00429732)
(0.00427641 -0.00193349 -0.000337872 0.00427641 3.33648e-18 0.00427641)
(0.00427641 -0.00193349 -0.000337872 0.00427641 3.24101e-17 0.00427641)
(0.00425507 -0.00192306 -0.000342318 0.00425507 1.98963e-18 0.00425507)
(0.00425507 -0.00192306 -0.000342318 0.00425507 3.34146e-17 0.00425507)
(0.00423332 -0.0019124 -0.000346772 0.00423332 -8.11095e-19 0.00423332)
(0.00423332 -0.0019124 -0.000346772 0.00423332 3.43135e-17 0.00423332)
(0.00421114 -0.00190151 -0.00035123 0.00421114 2.35409e-18 0.00421114)
(0.00421114 -0.00190151 -0.00035123 0.00421114 3.43455e-17 0.00421114)
(0.00418853 -0.00189039 -0.000355689 0.00418853 1.9111e-18 0.00418853)
(0.00418853 -0.00189039 -0.000355689 0.00418853 3.56956e-17 0.00418853)
(0.00416548 -0.00187903 -0.000360146 0.00416548 1.48148e-18 0.00416548)
(0.00416548 -0.00187903 -0.000360146 0.00416548 3.87184e-17 0.00416548)
(0.00414199 -0.00186743 -0.000364598 0.00414199 -6.64536e-19 0.00414199)
(0.00414199 -0.00186743 -0.000364598 0.00414199 3.98674e-17 0.00414199)
(0.00411804 -0.00185558 -0.000369041 0.00411804 -3.94837e-18 0.00411804)
(0.00411804 -0.00185558 -0.000369041 0.00411804 4.38231e-17 0.00411804)
(0.00409364 -0.00184349 -0.000373472 0.00409364 -2.54401e-18 0.00409364)
(0.00409364 -0.00184349 -0.000373472 0.00409364 4.33459e-17 0.00409364)
(0.00406878 -0.00183114 -0.000377888 0.00406878 7.21962e-18 0.00406878)
(0.00406878 -0.00183114 -0.000377888 0.00406878 4.22609e-17 0.00406878)
(0.00404344 -0.00181854 -0.000382283 0.00404344 8.46833e-18 0.00404344)
(0.00404344 -0.00181854 -0.000382283 0.00404344 3.92374e-17 0.00404344)
(0.00401764 -0.00180567 -0.000386654 0.00401764 6.69779e-18 0.00401764)
(0.00401764 -0.00180567 -0.000386654 0.00401764 2.84529e-17 0.00401764)
(0.00399135 -0.00179254 -0.000390996 0.00399135 1.61992e-18 0.00399135)
(0.00399135 -0.00179254 -0.000390996 0.00399135 2.6993e-17 0.00399135)
(0.00396457 -0.00177913 -0.000395305 0.00396457 -8.7297e-18 0.00396457)
(0.00396457 -0.00177913 -0.000395305 0.00396457 2.94809e-17 0.00396457)
(0.00393729 -0.00176546 -0.000399576 0.00393729 1.65809e-19 0.00393729)
(0.00393729 -0.00176546 -0.000399576 0.00393729 2.38588e-17 0.00393729)
(0.00390952 -0.0017515 -0.000403802 0.00390952 4.90585e-19 0.00390952)
(0.00390952 -0.0017515 -0.000403802 0.00390952 2.51067e-17 0.00390952)
(0.00388124 -0.00173726 -0.00040798 0.00388124 -3.8601e-18 0.00388124)
(0.00388124 -0.00173726 -0.00040798 0.00388124 2.63532e-17 0.00388124)
(0.00385244 -0.00172272 -0.000412104 0.00385244 3.84325e-19 0.00385244)
(0.00385244 -0.00172272 -0.000412104 0.00385244 2.48652e-17 0.00385244)
(0.00382312 -0.0017079 -0.000416166 0.00382312 3.21749e-18 0.00382312)
(0.00382312 -0.0017079 -0.000416166 0.00382312 2.52772e-17 0.00382312)
(0.00379328 -0.00169277 -0.000420161 0.00379328 1.88704e-18 0.00379328)
(0.00379328 -0.00169277 -0.000420161 0.00379328 1.93313e-17 0.00379328)
(0.0037629 -0.00167734 -0.000424083 0.0037629 2.50438e-18 0.0037629)
(0.0037629 -0.00167734 -0.000424083 0.0037629 1.34714e-17 0.0037629)
(0.00373198 -0.0016616 -0.000427924 0.00373198 2.38334e-18 0.00373198)
(0.00373198 -0.0016616 -0.000427924 0.00373198 1.66594e-17 0.00373198)
(0.00370051 -0.00164555 -0.000431676 0.00370051 -2.10503e-18 0.00370051)
(0.00370051 -0.00164555 -0.000431676 0.00370051 1.50769e-17 0.00370051)
(0.00366849 -0.00162917 -0.000435333 0.00366849 -1.19425e-18 0.00366849)
(0.00366849 -0.00162917 -0.000435333 0.00366849 1.20873e-17 0.00366849)
(0.0036359 -0.00161247 -0.000438887 0.0036359 5.22587e-18 0.0036359)
(0.0036359 -0.00161247 -0.000438887 0.0036359 8.01994e-18 0.0036359)
(0.00360275 -0.00159544 -0.000442328 0.00360275 6.11534e-18 0.00360275)
(0.00360275 -0.00159544 -0.000442328 0.00360275 3.51034e-18 0.00360275)
(0.00356903 -0.00157807 -0.000445648 0.00356903 6.68476e-19 0.00356903)
(0.00356903 -0.00157807 -0.000445648 0.00356903 -9.82087e-19 0.00356903)
(0.00353472 -0.00156036 -0.000448838 0.00353472 -5.84094e-18 0.00353472)
(0.00353472 -0.00156036 -0.000448838 0.00353472 8.47033e-18 0.00353472)
(0.00349983 -0.0015423 -0.000451888 0.00349983 -8.69151e-18 0.00349983)
(0.00349983 -0.0015423 -0.000451888 0.00349983 1.81221e-17 0.00349983)
(0.00346436 -0.00152389 -0.000454788 0.00346436 -1.11503e-18 0.00346436)
(0.00346436 -0.00152389 -0.000454788 0.00346436 7.76979e-18 0.00346436)
(0.00342828 -0.00150511 -0.000457527 0.00342828 5.00419e-18 0.00342828)
(0.00342828 -0.00150511 -0.000457527 0.00342828 -5.94696e-18 0.00342828)