/*--------------------------------*- C++ -*----------------------------------*\
| =========                 |                                                 |
| \\      /  F ield         | OpenFOAM: The Open Source CFD Toolbox           |
|  \\    /   O peration     | Version:  2106                                  |
|   \\  /    A nd           | Website:  www.openfoam.com                      |
|    \\/     M anipulation  |                                                 |
\*---------------------------------------------------------------------------*/
FoamFile
{
    version     2.0;
    format      ascii;
    arch        "LSB;label=32;scalar=64";
    class       volVectorField;
    location    "10030";
    object      U;
}
// * * * * * * * * * * * * * * * * * * * * * * * * * * * * * * * * * * * * * //

dimensions      [0 1 -1 0 0 0 0];

internalField   nonuniform List<vector> 
2000
(
(0.00569297 -5.65121e-16 -4.32791e-17)
(0.00569297 5.39032e-19 -4.04876e-21)
(0.017183 -3.03045e-15 -1.81948e-16)
(0.017183 -2.49863e-18 -8.6246e-21)
(0.0288853 -2.72242e-15 -1.90975e-16)
(0.0288853 -3.65361e-18 -1.80721e-20)
(0.0408037 -2.58555e-15 -2.00256e-16)
(0.0408037 -5.73883e-18 -2.41662e-20)
(0.0529422 -2.57664e-15 -2.10204e-16)
(0.0529422 -7.91224e-18 -2.9412e-20)
(0.0653043 -2.5881e-15 -2.20702e-16)
(0.0653043 -1.01936e-17 -3.33677e-20)
(0.0778937 -2.58939e-15 -2.31651e-16)
(0.0778937 -1.25913e-17 -3.81864e-20)
(0.090713 -2.58553e-15 -2.43021e-16)
(0.090713 -1.50749e-17 -4.38789e-20)
(0.103764 -2.58101e-15 -2.54787e-16)
(0.103764 -1.76528e-17 -4.90987e-20)
(0.117046 -2.5766e-15 -2.6691e-16)
(0.117046 -2.02597e-17 -5.0689e-20)
(0.130556 -2.57213e-15 -2.79323e-16)
(0.130556 -2.29409e-17 -5.24695e-20)
(0.144287 -2.56725e-15 -2.91928e-16)
(0.144287 -2.57545e-17 -5.41845e-20)
(0.158226 -2.56194e-15 -3.04587e-16)
(0.158226 -2.87483e-17 -5.72371e-20)
(0.172354 -2.55634e-15 -3.17119e-16)
(0.172354 -3.19031e-17 -6.39914e-20)
(0.186645 -2.55052e-15 -3.29305e-16)
(0.186645 -3.49251e-17 -6.58917e-20)
(0.201061 -2.54481e-15 -3.40891e-16)
(0.201061 -3.80047e-17 -6.16971e-20)
(0.215559 -2.53904e-15 -3.51612e-16)
(0.215559 -4.12868e-17 -6.18903e-20)
(0.230086 -2.53298e-15 -3.61206e-16)
(0.230086 -4.44916e-17 -6.68669e-20)
(0.244582 -2.52668e-15 -3.69451e-16)
(0.244582 -4.80678e-17 -7.23657e-20)
(0.258983 -2.51996e-15 -3.76185e-16)
(0.258983 -5.18994e-17 -7.97906e-20)
(0.273228 -2.51321e-15 -3.81327e-16)
(0.273228 -5.52657e-17 -8.97992e-20)
(0.287256 -2.50664e-15 -3.84883e-16)
(0.287256 -5.85083e-17 -1.01812e-19)
(0.301011 -2.50018e-15 -3.86939e-16)
(0.301011 -6.2022e-17 -1.16899e-19)
(0.31445 -2.49375e-15 -3.85335e-16)
(0.31445 -6.56981e-17 -1.38459e-19)
(0.327534 -2.48697e-15 -3.79546e-16)
(0.327534 -6.94696e-17 -1.54871e-19)
(0.340238 -2.48017e-15 -3.72903e-16)
(0.340238 -7.31e-17 -1.78604e-19)
(0.352545 -2.47375e-15 -3.65639e-16)
(0.352545 -7.6888e-17 -2.1158e-19)
(0.364447 -2.46747e-15 -3.57984e-16)
(0.364447 -8.0633e-17 -2.41196e-19)
(0.375942 -2.46082e-15 -3.50118e-16)
(0.375942 -8.38913e-17 -2.61584e-19)
(0.387035 -2.45396e-15 -3.42191e-16)
(0.387035 -8.757e-17 -2.87786e-19)
(0.397735 -2.44733e-15 -3.36152e-16)
(0.397735 -9.12525e-17 -3.26502e-19)
(0.408053 -2.44086e-15 -3.32556e-16)
(0.408053 -9.44999e-17 -3.53901e-19)
(0.418006 -2.43455e-15 -3.29129e-16)
(0.418006 -9.78364e-17 -3.81876e-19)
(0.427608 -2.42845e-15 -3.25886e-16)
(0.427608 -1.0153e-16 -4.16555e-19)
(0.436876 -2.42239e-15 -3.22886e-16)
(0.436876 -1.04821e-16 -4.45873e-19)
(0.445827 -2.41614e-15 -3.20159e-16)
(0.445827 -1.07648e-16 -4.64555e-19)
(0.454477 -2.40983e-15 -3.17718e-16)
(0.454477 -1.10903e-16 -5.10223e-19)
(0.462844 -2.40391e-15 -3.15565e-16)
(0.462844 -1.13937e-16 -5.50862e-19)
(0.470941 -2.39774e-15 -3.13726e-16)
(0.470941 -1.17083e-16 -5.72544e-19)
(0.478786 -2.39117e-15 -3.12173e-16)
(0.478786 -1.20673e-16 -6.22755e-19)
(0.486391 -2.38531e-15 -3.10915e-16)
(0.486391 -1.23876e-16 -6.86238e-19)
(0.49377 -2.37989e-15 -3.09937e-16)
(0.49377 -1.26761e-16 -7.3064e-19)
(0.500937 -2.37493e-15 -3.09244e-16)
(0.500937 -1.29193e-16 -7.47675e-19)
(0.507902 -2.36983e-15 -3.08866e-16)
(0.507902 -1.32013e-16 -7.61807e-19)
(0.514678 -2.36382e-15 -3.08741e-16)
(0.514678 -1.34897e-16 -8.08094e-19)
(0.521275 -2.35759e-15 -3.08886e-16)
(0.521275 -1.38438e-16 -8.41518e-19)
(0.527702 -2.35256e-15 -3.09286e-16)
(0.527702 -1.41718e-16 -8.49261e-19)
(0.533969 -2.34838e-15 -3.09948e-16)
(0.533969 -1.43344e-16 -1.02401e-18)
(0.540084 -2.34327e-15 -3.10829e-16)
(0.540084 -1.4526e-16 -1.85785e-18)
(0.546055 -2.33851e-15 -3.12015e-16)
(0.546055 -1.47668e-16 -2.62378e-18)
(0.55189 -2.33403e-15 -3.13383e-16)
(0.55189 -1.49719e-16 -3.46457e-18)
(0.557596 -2.3293e-15 -3.15055e-16)
(0.557596 -1.51806e-16 -4.35766e-18)
(0.56318 -2.32514e-15 -3.16832e-16)
(0.56318 -1.54056e-16 -5.22406e-18)
(0.568647 -2.32093e-15 -3.18917e-16)
(0.568647 -1.5661e-16 -6.15063e-18)
(0.574003 -2.31652e-15 -3.21266e-16)
(0.574003 -1.59188e-16 -7.07159e-18)
(0.579253 -2.31263e-15 -3.23759e-16)
(0.579253 -1.60998e-16 -8.01432e-18)
(0.584404 -2.30994e-15 -3.26431e-16)
(0.584404 -1.62301e-16 -9.02582e-18)
(0.589458 -2.30615e-15 -3.29408e-16)
(0.589458 -1.63813e-16 -1.00675e-17)
(0.594422 -2.30139e-15 -3.32589e-16)
(0.594422 -1.65972e-16 -1.10819e-17)
(0.599298 -2.29633e-15 -3.35956e-16)
(0.599298 -1.68494e-16 -1.21371e-17)
(0.604091 -2.29013e-15 -3.39558e-16)
(0.604091 -1.71339e-16 -1.3235e-17)
(0.608805 -2.28444e-15 -3.4329e-16)
(0.608805 -1.72781e-16 -1.44653e-17)
(0.613443 -2.28047e-15 -3.47245e-16)
(0.613443 -1.73894e-16 -1.56966e-17)
(0.618008 -2.27667e-15 -3.51295e-16)
(0.618008 -1.76703e-16 -1.6874e-17)
(0.622504 -2.27188e-15 -3.55681e-16)
(0.622504 -1.79178e-16 -1.8209e-17)
(0.626933 -2.26576e-15 -3.60211e-16)
(0.626933 -1.81805e-16 -1.95686e-17)
(0.631299 -2.26003e-15 -3.64937e-16)
(0.631299 -1.84994e-16 -2.08951e-17)
(0.635602 -2.25471e-15 -3.69878e-16)
(0.635602 -1.88348e-16 -2.23608e-17)
(0.639848 -2.24902e-15 -3.74967e-16)
(0.639848 -1.91354e-16 -2.39014e-17)
(0.644036 -2.24346e-15 -3.80304e-16)
(0.644036 -1.94662e-16 -2.54152e-17)
(0.648171 -2.23925e-15 -3.85812e-16)
(0.648171 -1.97229e-16 -2.69974e-17)
(0.652253 -2.23598e-15 -3.91545e-16)
(0.652253 -1.97344e-16 -2.86124e-17)
(0.656285 -2.23348e-15 -3.97514e-16)
(0.656285 -1.98349e-16 -3.00715e-17)
(0.660269 -2.23088e-15 -4.03629e-16)
(0.660269 -2.00318e-16 -3.16695e-17)
(0.664207 -2.22724e-15 -4.10059e-16)
(0.664207 -2.01112e-16 -3.35035e-17)
(0.6681 -2.22475e-15 -4.16663e-16)
(0.6681 -2.0281e-16 -3.54158e-17)
(0.671949 -2.2211e-15 -4.23463e-16)
(0.671949 -2.03899e-16 -3.73517e-17)
(0.675757 -2.2156e-15 -4.30584e-16)
(0.675757 -2.06019e-16 -3.92063e-17)
(0.679526 -2.21051e-15 -4.37727e-16)
(0.679526 -2.08435e-16 -4.12696e-17)
(0.683255 -2.20576e-15 -4.45187e-16)
(0.683255 -2.10145e-16 -4.35401e-17)
(0.686947 -2.20151e-15 -4.52847e-16)
(0.686947 -2.11826e-16 -4.57288e-17)
(0.690604 -2.19792e-15 -4.60802e-16)
(0.690604 -2.11457e-16 -4.81826e-17)
(0.694225 -2.1931e-15 -4.68948e-16)
(0.694225 -2.1476e-16 -5.03789e-17)
(0.697813 -2.18902e-15 -4.77256e-16)
(0.697813 -2.17554e-16 -5.28095e-17)
(0.701369 -2.18774e-15 -4.86116e-16)
(0.701369 -2.18276e-16 -5.57513e-17)
(0.704893 -2.18574e-15 -4.95205e-16)
(0.704893 -2.20936e-16 -5.86341e-17)
(0.708387 -2.18287e-15 -5.04387e-16)
(0.708387 -2.27545e-16 -6.14691e-17)
(0.711851 -2.18152e-15 -5.13981e-16)
(0.711851 -2.35081e-16 -6.44551e-17)
(0.715287 -2.17945e-15 -5.23708e-16)
(0.715287 -2.36815e-16 -6.76816e-17)
(0.718696 -2.17532e-15 -5.33667e-16)
(0.718696 -2.41531e-16 -7.09123e-17)
(0.722078 -2.16988e-15 -5.3789e-16)
(0.722078 -2.49004e-16 -7.43933e-17)
(0.725434 -2.1646e-15 -5.40532e-16)
(0.725434 -2.52875e-16 -7.80443e-17)
(0.728765 -2.15668e-15 -5.43749e-16)
(0.728765 -2.59502e-16 -8.1554e-17)
(0.732072 -2.15119e-15 -5.47143e-16)
(0.732072 -2.65437e-16 -8.53642e-17)
(0.735356 -2.14942e-15 -5.50552e-16)
(0.735356 -2.66996e-16 -8.92381e-17)
(0.738616 -2.1474e-15 -5.54072e-16)
(0.738616 -2.67976e-16 -9.33049e-17)
(0.741855 -2.14502e-15 -5.5764e-16)
(0.741855 -2.71458e-16 -9.71375e-17)
(0.745072 -2.14151e-15 -5.6102e-16)
(0.745072 -2.73738e-16 -1.01185e-16)
(0.748269 -2.13732e-15 -5.64355e-16)
(0.748269 -2.76287e-16 -1.0578e-16)
(0.751445 -2.13323e-15 -5.67908e-16)
(0.751445 -2.79869e-16 -1.10047e-16)
(0.754602 -2.13036e-15 -5.71049e-16)
(0.754602 -2.80883e-16 -1.14902e-16)
(0.757739 -2.12665e-15 -5.74283e-16)
(0.757739 -2.81969e-16 -1.19644e-16)
(0.760859 -2.12165e-15 -5.77638e-16)
(0.760859 -2.88636e-16 -1.24314e-16)
(0.76396 -2.11489e-15 -5.80698e-16)
(0.76396 -2.95226e-16 -1.29582e-16)
(0.767044 -2.10867e-15 -5.83814e-16)
(0.767044 -2.9995e-16 -1.34985e-16)
(0.770111 -2.10266e-15 -5.87087e-16)
(0.770111 -3.05095e-16 -1.40422e-16)
(0.773161 -2.09708e-15 -5.90494e-16)
(0.773161 -3.09678e-16 -1.45805e-16)
(0.776196 -2.09223e-15 -5.93624e-16)
(0.776196 -3.17646e-16 -1.51317e-16)
(0.779215 -2.08704e-15 -5.96033e-16)
(0.779215 -3.24709e-16 -1.57673e-16)
(0.782218 -2.08129e-15 -5.99015e-16)
(0.782218 -3.2979e-16 -1.63544e-16)
(0.785208 -2.07224e-15 -6.01587e-16)
(0.785208 -3.3673e-16 -1.7016e-16)
(0.788182 -2.06537e-15 -6.04452e-16)
(0.788182 -3.45993e-16 -1.77213e-16)
(0.791143 -2.05929e-15 -6.07282e-16)
(0.791143 -3.52926e-16 -1.84101e-16)
(0.79409 -2.0485e-15 -6.09939e-16)
(0.79409 -3.63276e-16 -1.90862e-16)
(0.797024 -2.03793e-15 -6.12589e-16)
(0.797024 -3.74982e-16 -1.97673e-16)
(0.799945 -2.02596e-15 -6.14602e-16)
(0.799945 -3.86651e-16 -2.06218e-16)
(0.802854 -2.01231e-15 -6.17838e-16)
(0.802854 -4.01072e-16 -2.14197e-16)
(0.80575 -2.00162e-15 -6.21875e-16)
(0.80575 -4.14044e-16 -2.21463e-16)
(0.808635 -1.98712e-15 -6.24375e-16)
(0.808635 -4.24923e-16 -2.29575e-16)
(0.811507 -1.96854e-15 -6.26887e-16)
(0.811507 -4.36076e-16 -2.39038e-16)
(0.814369 -1.95706e-15 -6.3041e-16)
(0.814369 -4.47198e-16 -2.48377e-16)
(0.817219 -1.94581e-15 -6.33955e-16)
(0.817219 -4.58768e-16 -2.56687e-16)
(0.820059 -1.93314e-15 -6.36457e-16)
(0.820059 -4.66366e-16 -2.659e-16)
(0.822889 -1.92005e-15 -6.38377e-16)
(0.822889 -4.81391e-16 -2.75982e-16)
(0.825708 -1.90336e-15 -6.40798e-16)
(0.825708 -4.95882e-16 -2.86574e-16)
(0.828517 -1.88878e-15 -6.43438e-16)
(0.828517 -5.09495e-16 -2.97885e-16)
(0.831316 -1.87468e-15 -6.46818e-16)
(0.831316 -5.21214e-16 -3.08149e-16)
(0.834106 -1.86253e-15 -6.48943e-16)
(0.834106 -5.27288e-16 -3.17709e-16)
(0.836886 -1.85444e-15 -6.49205e-16)
(0.836886 -5.39092e-16 -3.28665e-16)
(0.839658 -1.84614e-15 -6.4829e-16)
(0.839658 -5.41051e-16 -3.41363e-16)
(0.84242 -1.83675e-15 -6.47066e-16)
(0.84242 -5.45882e-16 -3.53589e-16)
(0.845174 -1.82623e-15 -6.46019e-16)
(0.845174 -5.50597e-16 -3.63618e-16)
(0.84792 -1.81269e-15 -6.42064e-16)
(0.84792 -5.51222e-16 -3.76095e-16)
(0.850657 -1.79852e-15 -6.38489e-16)
(0.850657 -5.54988e-16 -3.91361e-16)
(0.853386 -1.78282e-15 -6.36732e-16)
(0.853386 -5.60772e-16 -4.05491e-16)
(0.856107 -1.7678e-15 -6.3558e-16)
(0.856107 -5.70167e-16 -4.18173e-16)
(0.858821 -1.75688e-15 -6.33534e-16)
(0.858821 -5.7997e-16 -4.34029e-16)
(0.861526 -1.74713e-15 -6.31962e-16)
(0.861526 -5.89558e-16 -4.34599e-16)
(0.864225 -1.73839e-15 -6.29656e-16)
(0.864225 -5.92135e-16 -4.31992e-16)
(0.866916 -1.7305e-15 -6.2631e-16)
(0.866916 -5.99029e-16 -4.27934e-16)
(0.8696 -1.72144e-15 -6.19977e-16)
(0.8696 -6.06178e-16 -4.26404e-16)
(0.872277 -1.70843e-15 -6.14917e-16)
(0.872277 -6.11696e-16 -4.25917e-16)
(0.874947 -1.69955e-15 -6.11678e-16)
(0.874947 -6.23e-16 -4.23441e-16)
(0.87761 -1.69008e-15 -6.06112e-16)
(0.87761 -6.28246e-16 -4.19042e-16)
(0.880267 -1.67578e-15 -5.99194e-16)
(0.880267 -6.35332e-16 -4.15074e-16)
(0.882917 -1.66177e-15 -5.93375e-16)
(0.882917 -6.41e-16 -4.11954e-16)
(0.885561 -1.6454e-15 -5.87368e-16)
(0.885561 -6.50452e-16 -4.07804e-16)
(0.888198 -1.62802e-15 -5.80141e-16)
(0.888198 -6.64599e-16 -4.03637e-16)
(0.89083 -1.60437e-15 -5.74974e-16)
(0.89083 -6.74298e-16 -4.00909e-16)
(0.893455 -1.58116e-15 -5.73325e-16)
(0.893455 -6.78733e-16 -3.97734e-16)
(0.896074 -1.56657e-15 -5.6587e-16)
(0.896074 -6.81784e-16 -4.00706e-16)
(0.898687 -1.56235e-15 -5.57843e-16)
(0.898687 -6.87654e-16 -4.00288e-16)
(0.901295 -1.55921e-15 -5.44989e-16)
(0.901295 -6.97841e-16 -4.0314e-16)
(0.903897 -1.55331e-15 -5.31485e-16)
(0.903897 -7.0836e-16 -4.03019e-16)
(0.906493 -1.53367e-15 -5.2025e-16)
(0.906493 -7.10686e-16 -4.0428e-16)
(0.909083 -1.50651e-15 -5.12431e-16)
(0.909083 -7.20061e-16 -4.04868e-16)
(0.911668 -1.49227e-15 -5.07443e-16)
(0.911668 -7.25081e-16 -4.07001e-16)
(0.914248 -1.47577e-15 -5.04587e-16)
(0.914248 -7.36684e-16 -4.11492e-16)
(0.916822 -1.45085e-15 -5.0097e-16)
(0.916822 -7.55908e-16 -4.16406e-16)
(0.91939 -1.43691e-15 -5.01537e-16)
(0.91939 -7.59969e-16 -4.14635e-16)
(0.921953 -1.42579e-15 -4.98459e-16)
(0.921953 -7.74614e-16 -4.12468e-16)
(0.924511 -1.40773e-15 -4.94882e-16)
(0.924511 -7.79628e-16 -4.09295e-16)
(0.927064 -1.39378e-15 -4.90502e-16)
(0.927064 -7.86657e-16 -4.04789e-16)
(0.929611 -1.38082e-15 -4.81722e-16)
(0.929611 -7.97303e-16 -3.99244e-16)
(0.932153 -1.36743e-15 -4.75458e-16)
(0.932153 -7.89414e-16 -3.97825e-16)
(0.93469 -1.34995e-15 -4.68911e-16)
(0.93469 -7.9125e-16 -4.00052e-16)
(0.937221 -1.33704e-15 -4.61972e-16)
(0.937221 -7.98407e-16 -4.06506e-16)
(0.939747 -1.31514e-15 -4.54613e-16)
(0.939747 -8.03691e-16 -4.07661e-16)
(0.942268 -1.28735e-15 -4.49539e-16)
(0.942268 -8.15716e-16 -4.03567e-16)
(0.944784 -1.27218e-15 -4.4558e-16)
(0.944784 -8.2369e-16 -4.03665e-16)
(0.947295 -1.25839e-15 -4.45343e-16)
(0.947295 -8.23948e-16 -3.98805e-16)
(0.9498 -1.23378e-15 -4.48536e-16)
(0.9498 -8.17645e-16 -3.93194e-16)
(0.9523 -1.21929e-15 -4.48543e-16)
(0.9523 -8.13354e-16 -3.93279e-16)
(0.954795 -1.20939e-15 -4.46041e-16)
(0.954795 -8.18914e-16 -3.90133e-16)
(0.957284 -1.19334e-15 -4.42832e-16)
(0.957284 -8.21349e-16 -3.90388e-16)
(0.959768 -1.18762e-15 -4.46321e-16)
(0.959768 -8.22703e-16 -3.85075e-16)
(0.962246 -1.17745e-15 -4.47037e-16)
(0.962246 -8.2629e-16 -3.86247e-16)
(0.964719 -1.16557e-15 -4.44054e-16)
(0.964719 -8.17164e-16 -3.86735e-16)
(0.967186 -1.16055e-15 -4.40632e-16)
(0.967186 -8.21235e-16 -3.89852e-16)
(0.969648 -1.14657e-15 -4.31513e-16)
(0.969648 -8.24421e-16 -3.98406e-16)
(0.972103 -1.106e-15 -4.28231e-16)
(0.972103 -8.17212e-16 -3.99012e-16)
(0.974553 -1.07791e-15 -4.34174e-16)
(0.974553 -8.26172e-16 -4.05552e-16)
(0.976997 -1.06539e-15 -4.39187e-16)
(0.976997 -8.44398e-16 -3.98512e-16)
(0.979435 -1.05532e-15 -4.46942e-16)
(0.979435 -8.63763e-16 -3.87681e-16)
(0.981867 -1.04773e-15 -4.33867e-16)
(0.981867 -8.72957e-16 -3.88276e-16)
(0.984292 -1.03437e-15 -4.19724e-16)
(0.984292 -8.85352e-16 -3.90412e-16)
(0.986711 -1.03144e-15 -4.28477e-16)
(0.986711 -8.8737e-16 -3.8614e-16)
(0.989124 -1.02762e-15 -4.21244e-16)
(0.989124 -8.96308e-16 -3.93252e-16)
(0.991529 -1.01097e-15 -4.15992e-16)
(0.991529 -9.02309e-16 -3.9744e-16)
(0.993928 -9.91228e-16 -4.14372e-16)
(0.993928 -8.89903e-16 -4.1062e-16)
(0.99632 -9.79446e-16 -4.15407e-16)
(0.99632 -8.95274e-16 -4.18841e-16)
(0.998704 -9.72554e-16 -4.13814e-16)
(0.998704 -8.97048e-16 -4.23279e-16)
(1.00108 -9.69778e-16 -4.19089e-16)
(1.00108 -8.94296e-16 -4.22607e-16)
(1.00345 -9.71588e-16 -4.19142e-16)
(1.00345 -9.06536e-16 -4.32017e-16)
(1.00581 -9.58731e-16 -4.1298e-16)
(1.00581 -9.12852e-16 -4.34306e-16)
(1.00816 -9.39547e-16 -4.08821e-16)
(1.00816 -8.967e-16 -4.42489e-16)
(1.01051 -9.32816e-16 -4.17866e-16)
(1.01051 -9.00704e-16 -4.36811e-16)
(1.01285 -9.17272e-16 -4.22987e-16)
(1.01285 -9.09487e-16 -4.34984e-16)
(1.01517 -9.19803e-16 -4.10886e-16)
(1.01517 -8.8178e-16 -4.2588e-16)
(1.01749 -9.30505e-16 -3.99437e-16)
(1.01749 -8.62528e-16 -4.38481e-16)
(1.0198 -8.98104e-16 -3.84787e-16)
(1.0198 -8.58841e-16 -4.4209e-16)
(1.0221 -8.47654e-16 -3.76745e-16)
(1.0221 -8.60661e-16 -4.23795e-16)
(1.02438 -8.2593e-16 -3.69298e-16)
(1.02438 -8.56085e-16 -4.24142e-16)
(1.02666 -8.20216e-16 -3.83522e-16)
(1.02666 -8.36915e-16 -4.24146e-16)
(1.02893 -8.09262e-16 -3.87831e-16)
(1.02893 -7.86231e-16 -4.09843e-16)
(1.03118 -7.73402e-16 -3.94172e-16)
(1.03118 -7.67156e-16 -4.13693e-16)
(1.03342 -7.41926e-16 -4.00416e-16)
(1.03342 -7.87865e-16 -4.16942e-16)
(1.03565 -7.37363e-16 -4.18163e-16)
(1.03565 -7.63985e-16 -4.07624e-16)
(1.03787 -7.3099e-16 -4.15301e-16)
(1.03787 -7.12825e-16 -4.06003e-16)
(1.04007 -7.17235e-16 -4.00595e-16)
(1.04007 -6.86221e-16 -4.46523e-16)
(1.04226 -6.96633e-16 -4.01741e-16)
(1.04226 -6.55596e-16 -4.60914e-16)
(1.04444 -6.76874e-16 -4.38077e-16)
(1.04444 -6.4763e-16 -4.58342e-16)
(1.0466 -6.22809e-16 -4.18952e-16)
(1.0466 -6.83707e-16 -4.63863e-16)
(1.04874 -6.31017e-16 -4.45805e-16)
(1.04874 -6.65446e-16 -4.45559e-16)
(1.05086 -6.25483e-16 -4.85207e-16)
(1.05086 -6.7011e-16 -4.60328e-16)
(1.05297 -6.14312e-16 -5.07141e-16)
(1.05297 -6.62451e-16 -4.8271e-16)
(1.05506 -6.44733e-16 -5.23229e-16)
(1.05506 -6.16099e-16 -4.43377e-16)
(1.05713 -6.42208e-16 -4.88433e-16)
(1.05713 -6.41833e-16 -4.48048e-16)
(1.05918 -6.26712e-16 -4.85365e-16)
(1.05918 -6.41911e-16 -4.46879e-16)
(1.06121 -6.59964e-16 -5.10625e-16)
(1.06121 -6.13255e-16 -4.3865e-16)
(1.06321 -6.52299e-16 -4.79531e-16)
(1.06321 -6.31776e-16 -4.42434e-16)
(1.06519 -6.23745e-16 -5.0459e-16)
(1.06519 -6.24829e-16 -4.70162e-16)
(1.06715 -6.10054e-16 -5.11784e-16)
(1.06715 -6.12474e-16 -4.82965e-16)
(1.06908 -6.30237e-16 -5.09624e-16)
(1.06908 -5.85397e-16 -4.62298e-16)
(1.07098 -6.13624e-16 -4.56344e-16)
(1.07098 -5.78068e-16 -4.27685e-16)
(1.07285 -5.60289e-16 -4.32763e-16)
(1.07285 -6.07135e-16 -3.96759e-16)
(1.0747 -5.19211e-16 -4.87707e-16)
(1.0747 -6.37985e-16 -3.46688e-16)
(1.0765 -5.33134e-16 -4.8279e-16)
(1.0765 -5.61401e-16 -3.29121e-16)
(1.07828 -5.6862e-16 -5.01625e-16)
(1.07828 -5.58786e-16 -2.9884e-16)
(1.08001 -5.42831e-16 -4.84392e-16)
(1.08001 -5.42363e-16 -2.77174e-16)
(1.08171 -5.17547e-16 -4.44289e-16)
(1.08171 -4.65109e-16 -3.44561e-16)
(1.08337 -5.06085e-16 -4.28948e-16)
(1.08337 -5.10447e-16 -3.7529e-16)
(1.08498 -4.61431e-16 -4.27833e-16)
(1.08498 -5.4124e-16 -3.75038e-16)
(1.08654 -4.64284e-16 -4.89058e-16)
(1.08654 -5.29612e-16 -3.59907e-16)
(1.08806 -4.90881e-16 -4.19873e-16)
(1.08806 -5.1914e-16 -3.35689e-16)
(1.08952 -5.21297e-16 -4.37866e-16)
(1.08952 -5.1645e-16 -4.23079e-16)
(1.09092 -4.5773e-16 -4.25344e-16)
(1.09092 -5.37934e-16 -4.69096e-16)
(1.09226 -4.53088e-16 -3.57949e-16)
(1.09226 -5.19141e-16 -3.90977e-16)
(1.09354 -4.75816e-16 -3.82575e-16)
(1.09354 -4.68569e-16 -3.8899e-16)
(1.09474 -4.86128e-16 -4.4365e-16)
(1.09474 -4.73122e-16 -3.94943e-16)
(1.09587 -5.28701e-16 -3.99596e-16)
(1.09587 -4.71937e-16 -3.44385e-16)
(1.09692 -5.30623e-16 -3.15742e-16)
(1.09692 -4.35163e-16 -2.19995e-16)
(1.09788 -4.6688e-16 -2.28029e-16)
(1.09788 -4.2096e-16 -7.99094e-17)
(1.09875 -4.3403e-16 -1.33313e-16)
(1.09875 -3.82497e-16 -6.13665e-17)
(1.09951 -3.95707e-16 -1.17669e-16)
(1.09951 -3.60918e-16 -6.54471e-17)
(1.10017 -3.72468e-16 -1.58031e-16)
(1.10017 -3.75328e-16 -4.7805e-17)
(1.10071 -3.49996e-16 -1.88065e-16)
(1.10071 -3.85559e-16 -1.02569e-16)
(1.10113 -4.23315e-16 -1.15914e-16)
(1.10113 -3.69868e-16 -8.90515e-17)
(1.10142 -3.40943e-16 -5.88861e-17)
(1.10142 -3.67193e-16 -1.11627e-16)
(1.10157 -3.09876e-16 -1.2853e-16)
(1.10157 -3.67216e-16 -6.57081e-17)
(0.00569297 3.13325e-19 1.38298e-17)
(0.00569297 2.13136e-19 8.7814e-18)
(0.017183 -1.19593e-18 5.63879e-17)
(0.017183 -5.92574e-19 2.7435e-17)
(0.0288853 -1.76247e-18 5.84763e-17)
(0.0288853 -8.41608e-19 2.8487e-17)
(0.0408037 -2.81457e-18 6.20033e-17)
(0.0408037 -1.34713e-18 2.95959e-17)
(0.0529422 -3.9306e-18 6.54601e-17)
(0.0529422 -1.89251e-18 3.07656e-17)
(0.0653043 -5.07297e-18 6.88951e-17)
(0.0653043 -2.49141e-18 3.19968e-17)
(0.0778937 -6.23494e-18 7.24597e-17)
(0.0778937 -3.09704e-18 3.3292e-17)
(0.090713 -7.47345e-18 7.61719e-17)
(0.090713 -3.69572e-18 3.46548e-17)
(0.103764 -8.78035e-18 8.00111e-17)
(0.103764 -4.33268e-18 3.60839e-17)
(0.117046 -1.0074e-17 8.39664e-17)
(0.117046 -5.07666e-18 3.75725e-17)
(0.130556 -1.13247e-17 8.80102e-17)
(0.130556 -5.94176e-18 3.91135e-17)
(0.144287 -1.26148e-17 9.21146e-17)
(0.144287 -6.81007e-18 4.06969e-17)
(0.158226 -1.40224e-17 9.62361e-17)
(0.158226 -7.74055e-18 4.23025e-17)
(0.172354 -1.56052e-17 1.00322e-16)
(0.172354 -8.63458e-18 4.39082e-17)
(0.186645 -1.73242e-17 1.04133e-16)
(0.186645 -9.49118e-18 4.54957e-17)
(0.201061 -1.91212e-17 1.06689e-16)
(0.201061 -1.02092e-17 4.70202e-17)
(0.215559 -2.09988e-17 1.08927e-16)
(0.215559 -1.1037e-17 4.84498e-17)
(0.230086 -2.28845e-17 1.1077e-16)
(0.230086 -1.20808e-17 4.97567e-17)
(0.244582 -2.47747e-17 1.12163e-16)
(0.244582 -1.30738e-17 5.09003e-17)
(0.258983 -2.66626e-17 1.13062e-16)
(0.258983 -1.41966e-17 5.18652e-17)
(0.273228 -2.86246e-17 1.13449e-16)
(0.273228 -1.52103e-17 5.26541e-17)
(0.287256 -3.05106e-17 1.13333e-16)
(0.287256 -1.60657e-17 5.32551e-17)
(0.301011 -3.25091e-17 1.12745e-16)
(0.301011 -1.70232e-17 5.36842e-17)
(0.31445 -3.4628e-17 1.11737e-16)
(0.31445 -1.81277e-17 5.39592e-17)
(0.327534 -3.6659e-17 1.10371e-16)
(0.327534 -1.92217e-17 5.41282e-17)
(0.340238 -3.86099e-17 1.08719e-16)
(0.340238 -2.03402e-17 5.41968e-17)
(0.352545 -4.03394e-17 1.06849e-16)
(0.352545 -2.14491e-17 5.42053e-17)
(0.364447 -4.19302e-17 1.04824e-16)
(0.364447 -2.26503e-17 5.42018e-17)
(0.375942 -4.35642e-17 1.02695e-16)
(0.375942 -2.37761e-17 5.41932e-17)
(0.387035 -4.52018e-17 1.00516e-16)
(0.387035 -2.49443e-17 5.41775e-17)
(0.397735 -4.68243e-17 9.83154e-17)
(0.397735 -2.62923e-17 5.42024e-17)
(0.408053 -4.87747e-17 9.61307e-17)
(0.408053 -2.71431e-17 5.428e-17)
(0.418006 -5.08944e-17 9.39593e-17)
(0.418006 -2.7872e-17 5.44332e-17)
(0.427608 -5.26528e-17 9.18283e-17)
(0.427608 -2.91503e-17 5.46517e-17)
(0.436876 -5.4275e-17 8.97574e-17)
(0.436876 -3.00339e-17 5.49749e-17)
(0.445827 -5.58814e-17 8.77535e-17)
(0.445827 -3.09358e-17 5.53755e-17)
(0.454477 -5.70531e-17 8.87296e-17)
(0.454477 -3.18149e-17 5.58623e-17)
(0.462844 -5.81124e-17 9.10793e-17)
(0.462844 -3.25623e-17 5.64405e-17)
(0.470941 -5.94248e-17 9.34545e-17)
(0.470941 -3.38809e-17 5.71065e-17)
(0.478786 -6.07947e-17 9.58436e-17)
(0.478786 -3.47554e-17 5.78801e-17)
(0.486391 -6.2262e-17 9.82845e-17)
(0.486391 -3.51228e-17 5.87549e-17)
(0.49377 -6.38096e-17 1.00794e-16)
(0.49377 -3.64263e-17 5.971e-17)
(0.500937 -6.5077e-17 1.03298e-16)
(0.500937 -3.77692e-17 6.08012e-17)
(0.507902 -6.63511e-17 1.05873e-16)
(0.507902 -3.90878e-17 6.19232e-17)
(0.514678 -6.86039e-17 1.08526e-16)
(0.514678 -3.90713e-17 6.31113e-17)
(0.521275 -7.09221e-17 1.10773e-16)
(0.521275 -3.84761e-17 6.44121e-17)
(0.527702 -7.24925e-17 1.10999e-16)
(0.527702 -3.98288e-17 6.58379e-17)
(0.533969 -7.36298e-17 1.11304e-16)
(0.533969 -4.0921e-17 6.73779e-17)
(0.540084 -7.48777e-17 1.11772e-16)
(0.540084 -4.1354e-17 6.89612e-17)
(0.546055 -7.67672e-17 1.12355e-16)
(0.546055 -4.28524e-17 7.05804e-17)
(0.55189 -7.84352e-17 1.12942e-16)
(0.55189 -4.38586e-17 7.23165e-17)
(0.557596 -7.94137e-17 1.13558e-16)
(0.557596 -4.33874e-17 7.39929e-17)
(0.56318 -8.08075e-17 1.14347e-16)
(0.56318 -4.41594e-17 7.51329e-17)
(0.568647 -8.24398e-17 1.15106e-16)
(0.568647 -4.53293e-17 7.63546e-17)
(0.574003 -8.38543e-17 1.15925e-16)
(0.574003 -4.56049e-17 7.75999e-17)
(0.579253 -8.4968e-17 1.16899e-16)
(0.579253 -4.65409e-17 7.89036e-17)
(0.584404 -8.58633e-17 1.17848e-16)
(0.584404 -4.71104e-17 8.02507e-17)
(0.589458 -8.65811e-17 1.18915e-16)
(0.589458 -4.76212e-17 8.16598e-17)
(0.594422 -8.81761e-17 1.2002e-16)
(0.594422 -4.83072e-17 8.31518e-17)
(0.599298 -9.00874e-17 1.21143e-16)
(0.599298 -4.94648e-17 8.47003e-17)
(0.604091 -8.98379e-17 1.22299e-16)
(0.604091 -5.16017e-17 8.62346e-17)
(0.608805 -8.97176e-17 1.23682e-16)
(0.608805 -5.27268e-17 8.77488e-17)
(0.613443 -9.08919e-17 1.25124e-16)
(0.613443 -5.27993e-17 8.93868e-17)
(0.618008 -9.20048e-17 1.26591e-16)
(0.618008 -5.22502e-17 9.11223e-17)
(0.622504 -9.31295e-17 1.28091e-16)
(0.622504 -5.32214e-17 9.29088e-17)
(0.626933 -9.439e-17 1.2958e-16)
(0.626933 -5.43125e-17 9.47183e-17)
(0.631299 -9.58851e-17 1.31294e-16)
(0.631299 -5.4341e-17 9.6598e-17)
(0.635602 -9.78457e-17 1.32913e-16)
(0.635602 -5.56219e-17 9.86086e-17)
(0.639848 -9.97261e-17 1.34435e-16)
(0.639848 -5.77186e-17 1.00689e-16)
(0.644036 -1.00701e-16 1.35983e-16)
(0.644036 -5.908e-17 1.02726e-16)
(0.648171 -1.01775e-16 1.37913e-16)
(0.648171 -5.97685e-17 1.04644e-16)
(0.652253 -1.02734e-16 1.39959e-16)
(0.652253 -6.11204e-17 1.06706e-16)
(0.656285 -1.03359e-16 1.42003e-16)
(0.656285 -6.14947e-17 1.08915e-16)
(0.660269 -1.0502e-16 1.44042e-16)
(0.660269 -6.25037e-17 1.10993e-16)
(0.664207 -1.0653e-16 1.45998e-16)
(0.664207 -6.40618e-17 1.13311e-16)
(0.6681 -1.07103e-16 1.48073e-16)
(0.6681 -6.47866e-17 1.15805e-16)
(0.671949 -1.07455e-16 1.50551e-16)
(0.671949 -6.38311e-17 1.1829e-16)
(0.675757 -1.08891e-16 1.53491e-16)
(0.675757 -6.60791e-17 1.20781e-16)
(0.679526 -1.09966e-16 1.56043e-16)
(0.679526 -6.94312e-17 1.23112e-16)
(0.683255 -1.10885e-16 1.58593e-16)
(0.683255 -6.81462e-17 1.25365e-16)
(0.686947 -1.11947e-16 1.61466e-16)
(0.686947 -6.89855e-17 1.27597e-16)
(0.690604 -1.13109e-16 1.64622e-16)
(0.690604 -7.014e-17 1.29672e-16)
(0.694225 -1.14899e-16 1.67866e-16)
(0.694225 -7.13005e-17 1.3187e-16)
(0.697813 -1.15249e-16 1.70935e-16)
(0.697813 -7.34217e-17 1.33773e-16)
(0.701369 -1.1633e-16 1.7398e-16)
(0.701369 -7.41184e-17 1.35396e-16)
(0.704893 -1.18259e-16 1.77399e-16)
(0.704893 -7.37719e-17 1.36981e-16)
(0.708387 -1.16619e-16 1.81091e-16)
(0.708387 -7.48265e-17 1.38531e-16)
(0.711851 -1.12535e-16 1.8493e-16)
(0.711851 -7.48615e-17 1.4021e-16)
(0.715287 -1.097e-16 1.8926e-16)
(0.715287 -7.57257e-17 1.41898e-16)
(0.718696 -1.11955e-16 1.93857e-16)
(0.718696 -7.84975e-17 1.43528e-16)
(0.722078 -1.16116e-16 1.9836e-16)
(0.722078 -8.09521e-17 1.44924e-16)
(0.725434 -1.16875e-16 2.02922e-16)
(0.725434 -8.19365e-17 1.4633e-16)
(0.728765 -1.17813e-16 2.08239e-16)
(0.728765 -8.48425e-17 1.47929e-16)
(0.732072 -1.20026e-16 2.13674e-16)
(0.732072 -8.9642e-17 1.49193e-16)
(0.735356 -1.21839e-16 2.19151e-16)
(0.735356 -8.92201e-17 1.50454e-16)
(0.738616 -1.23479e-16 2.24958e-16)
(0.738616 -8.78439e-17 1.51582e-16)
(0.741855 -1.24554e-16 2.31034e-16)
(0.741855 -8.99423e-17 1.52854e-16)
(0.745072 -1.27291e-16 2.37062e-16)
(0.745072 -8.8048e-17 1.53998e-16)
(0.748269 -1.2947e-16 2.42813e-16)
(0.748269 -8.52898e-17 1.55104e-16)
(0.751445 -1.30523e-16 2.48686e-16)
(0.751445 -8.69279e-17 1.56471e-16)
(0.754602 -1.33898e-16 2.54488e-16)
(0.754602 -8.49164e-17 1.57578e-16)
(0.757739 -1.36441e-16 2.60942e-16)
(0.757739 -8.31899e-17 1.584e-16)
(0.760859 -1.3666e-16 2.67331e-16)
(0.760859 -8.49686e-17 1.5895e-16)
(0.76396 -1.35511e-16 2.73267e-16)
(0.76396 -8.39639e-17 1.59216e-16)
(0.767044 -1.35189e-16 2.79978e-16)
(0.767044 -8.28915e-17 1.59512e-16)
(0.770111 -1.38283e-16 2.87449e-16)
(0.770111 -8.44931e-17 1.59634e-16)
(0.773161 -1.41906e-16 2.94486e-16)
(0.773161 -8.21896e-17 1.5993e-16)
(0.776196 -1.43117e-16 3.01131e-16)
(0.776196 -7.89075e-17 1.60095e-16)
(0.779215 -1.45006e-16 3.08145e-16)
(0.779215 -7.62086e-17 1.59859e-16)
(0.782218 -1.47283e-16 3.15709e-16)
(0.782218 -7.46241e-17 1.59733e-16)
(0.785208 -1.47336e-16 3.22425e-16)
(0.785208 -7.20811e-17 1.58717e-16)
(0.788182 -1.47275e-16 3.29879e-16)
(0.788182 -6.72884e-17 1.58345e-16)
(0.791143 -1.47269e-16 3.36639e-16)
(0.791143 -6.64599e-17 1.57845e-16)
(0.79409 -1.46447e-16 3.44416e-16)
(0.79409 -6.79041e-17 1.57606e-16)
(0.797024 -1.46914e-16 3.5251e-16)
(0.797024 -6.72409e-17 1.5699e-16)
(0.799945 -1.43523e-16 3.59924e-16)
(0.799945 -6.53233e-17 1.55801e-16)
(0.802854 -1.39295e-16 3.6723e-16)
(0.802854 -6.37895e-17 1.56155e-16)
(0.80575 -1.44775e-16 3.69691e-16)
(0.80575 -6.96759e-17 1.56354e-16)
(0.808635 -1.49986e-16 3.71825e-16)
(0.808635 -7.65498e-17 1.55461e-16)
(0.811507 -1.48632e-16 3.73667e-16)
(0.811507 -7.90408e-17 1.54101e-16)
(0.814369 -1.4546e-16 3.76033e-16)
(0.814369 -7.91498e-17 1.52868e-16)
(0.817219 -1.41324e-16 3.80176e-16)
(0.817219 -7.71559e-17 1.5199e-16)
(0.820059 -1.39543e-16 3.83696e-16)
(0.820059 -7.34472e-17 1.50411e-16)
(0.822889 -1.41473e-16 3.85926e-16)
(0.822889 -7.04021e-17 1.48633e-16)
(0.825708 -1.45158e-16 3.88013e-16)
(0.825708 -6.77066e-17 1.4711e-16)
(0.828517 -1.49087e-16 3.90262e-16)
(0.828517 -6.83941e-17 1.45484e-16)
(0.831316 -1.50699e-16 3.92876e-16)
(0.831316 -7.04483e-17 1.43783e-16)
(0.834106 -1.51057e-16 3.96703e-16)
(0.834106 -6.7341e-17 1.41825e-16)
(0.836886 -1.50289e-16 3.99967e-16)
(0.836886 -6.7884e-17 1.38136e-16)
(0.839658 -1.48726e-16 4.03111e-16)
(0.839658 -6.81471e-17 1.34259e-16)
(0.84242 -1.46715e-16 4.0413e-16)
(0.84242 -6.92271e-17 1.31624e-16)
(0.845174 -1.44129e-16 4.06786e-16)
(0.845174 -7.1694e-17 1.28518e-16)
(0.84792 -1.45057e-16 4.1039e-16)
(0.84792 -7.06377e-17 1.22541e-16)
(0.850657 -1.52027e-16 4.13267e-16)
(0.850657 -7.28069e-17 1.1636e-16)
(0.853386 -1.58816e-16 4.15814e-16)
(0.853386 -7.56877e-17 1.11688e-16)
(0.856107 -1.64804e-16 4.17531e-16)
(0.856107 -7.58412e-17 1.07167e-16)
(0.858821 -1.70466e-16 4.18771e-16)
(0.858821 -7.63289e-17 1.00343e-16)
(0.861526 -1.69563e-16 4.20363e-16)
(0.861526 -7.55369e-17 9.50388e-17)
(0.864225 -1.69061e-16 4.21814e-16)
(0.864225 -7.877e-17 9.06822e-17)
(0.866916 -1.75392e-16 4.21707e-16)
(0.866916 -8.86865e-17 8.47723e-17)
(0.8696 -1.81125e-16 4.21926e-16)
(0.8696 -9.08246e-17 7.62626e-17)
(0.872277 -1.80209e-16 4.23629e-16)
(0.872277 -9.27027e-17 6.86402e-17)
(0.874947 -1.78602e-16 4.2491e-16)
(0.874947 -9.76499e-17 6.32375e-17)
(0.87761 -1.81756e-16 4.2417e-16)
(0.87761 -9.43055e-17 6.35716e-17)
(0.880267 -1.85178e-16 4.20313e-16)
(0.880267 -9.48442e-17 6.52918e-17)
(0.882917 -1.8408e-16 4.17929e-16)
(0.882917 -1.0054e-16 6.67923e-17)
(0.885561 -1.90067e-16 4.16478e-16)
(0.885561 -1.04682e-16 6.96947e-17)
(0.888198 -1.93827e-16 4.14054e-16)
(0.888198 -1.08851e-16 7.16088e-17)
(0.89083 -1.91542e-16 4.13115e-16)
(0.89083 -1.08047e-16 7.15202e-17)
(0.893455 -1.93821e-16 4.11281e-16)
(0.893455 -1.20416e-16 7.09724e-17)
(0.896074 -1.97627e-16 4.09584e-16)
(0.896074 -1.29217e-16 6.7627e-17)
(0.898687 -1.96505e-16 4.05595e-16)
(0.898687 -1.17795e-16 6.93998e-17)