/*--------------------------------*- C++ -*----------------------------------*\
| =========                 |                                                 |
| \\      /  F ield         | OpenFOAM: The Open Source CFD Toolbox           |
|  \\    /   O peration     | Version:  2106                                  |
|   \\  /    A nd           | Website:  www.openfoam.com                      |
|    \\/     M anipulation  |                                                 |
\*---------------------------------------------------------------------------*/
FoamFile
{
    version     2.0;
    format      ascii;
    arch        "LSB;label=32;scalar=64";
    class       volTensorField;
    location    "10000";
    object      grad(U);
}
// * * * * * * * * * * * * * * * * * * * * * * * * * * * * * * * * * * * * * //

dimensions      [0 0 -1 0 0 0 0];

internalField   nonuniform List<tensor> 
2000
(
(0 -2.70601e-25 -1.88692e-27 13.0046 -3.79854e-12 -2.54318e-13 0.0240689 -3.51182e-15 -1.86003e-16)
(0 -3.47017e-28 -4.63468e-28 13.0046 0 -2.87688e-14 0.0240689 -8.67541e-29 -2.83388e-17)
(0 -5.60519e-45 9.5728e-31 13.0021 0 -8.35547e-14 0.0726471 0 -3.15031e-16)
(0 -3.83106e-29 -7.98137e-31 13.0021 -4.95791e-15 -1.83556e-14 0.0726471 -1.16651e-17 -1.12508e-16)
(-2.962e-18 -9.40214e-30 -1.37833e-28 12.9997 3.15861e-12 -2.24342e-14 0.100779 -2.55658e-14 -8.6164e-17)
(0 1.25362e-29 3.91756e-31 12.9997 -4.04312e-15 -1.76034e-15 0.100779 -1.83289e-17 -1.16608e-16)
(-9.69663e-18 -2.4652e-27 -8.90776e-32 12.9972 3.73836e-15 -2.06885e-14 0.102641 -1.46261e-17 -2.39019e-16)
(3.87865e-17 6.15323e-30 3.84577e-31 12.9972 -4.92082e-15 -1.75221e-15 0.102641 -2.88644e-17 -1.2077e-16)
(0 1.2081e-29 3.7753e-31 12.9947 6.80263e-14 -3.09725e-14 0.104536 -1.14215e-15 -2.54887e-16)
(-2.65663e-17 -6.04048e-30 -1.88765e-31 12.9947 -4.96897e-15 -1.74243e-15 0.104536 -3.9702e-17 -1.24989e-16)
(0 -5.86965e-30 9.26529e-31 12.9921 -4.54002e-15 -3.03807e-14 0.106467 -1.84318e-17 -2.38326e-16)
(-9.41659e-17 -2.37191e-29 -9.26529e-31 12.9921 -4.99581e-15 -1.73032e-15 0.106467 -5.08192e-17 -1.29263e-16)
(1.02406e-16 -7.02732e-30 -3.6382e-31 12.9896 1.69842e-27 -2.91273e-14 0.108432 0 -2.43563e-16)
(2.02188e-17 5.82112e-30 3.6382e-31 12.9896 -4.97892e-15 -1.71521e-15 0.108432 -6.20397e-17 -1.33586e-16)
(0 0 0 12.9869 1.22106e-14 -2.9663e-14 0.110434 -1.07068e-16 -2.56419e-16)
(3.0322e-16 2.85723e-30 1.78577e-31 12.9869 -5.02507e-15 -1.69789e-15 0.110434 -7.35924e-17 -1.37942e-16)
(-4.52825e-17 3.49436e-30 -3.80445e-32 12.9843 1.00437e-14 -3.0574e-14 0.112472 -9.86199e-17 -2.68525e-16)
(0 5.60974e-30 1.75304e-31 12.9843 -5.10929e-15 -1.6798e-15 0.112472 -8.56196e-17 -1.42333e-16)
(9.68791e-17 -1.10139e-29 -5.16276e-31 12.9816 8.25001e-15 -3.13608e-14 0.114548 -7.35586e-17 -2.79969e-16)
(0 5.50694e-30 3.44184e-31 12.9816 -5.15565e-15 -1.66029e-15 0.114548 -9.80421e-17 -1.46768e-16)
(9.51039e-17 -2.70301e-29 -1.68938e-30 12.9789 8.1161e-15 -3.20889e-14 0.116661 -7.06776e-17 -2.91733e-16)
(0 2.70301e-29 1.68938e-30 12.9789 -5.16729e-15 -1.63823e-15 0.116661 -1.11028e-16 -1.51222e-16)
(-2.51109e-17 1.81432e-30 5.05086e-31 12.9761 8.35207e-15 -3.28223e-14 0.118814 -7.39229e-17 -3.0395e-16)
(2.73001e-16 0 -6.63371e-31 12.9761 -5.19213e-15 -1.61564e-15 0.118814 -1.24131e-16 -1.55692e-16)
(0 0 3.25607e-31 12.9733 8.62077e-15 -3.35666e-14 0.121005 -7.76626e-17 -3.16614e-16)
(0 0 -3.25607e-31 12.9733 -5.31336e-15 -1.59083e-15 0.121005 -1.3771e-16 -1.60186e-16)
(-2.64219e-16 3.41733e-29 2.09172e-30 12.9704 8.81708e-15 -3.43198e-14 0.123236 -8.17213e-17 -3.29717e-16)
(0 -2.55712e-29 -1.91784e-30 12.9704 -5.30166e-15 -1.56135e-15 0.123236 -1.52096e-16 -1.64689e-16)
(-3.5748e-16 1.35265e-29 8.09751e-31 12.9675 8.77328e-15 -3.50833e-14 0.125508 -8.432e-17 -3.43325e-16)
(0 0 0 12.9675 -5.24719e-15 -4.45601e-15 0.125508 -1.66145e-16 -1.69182e-16)
(2.74308e-16 -1.33405e-29 -1.11493e-30 12.9645 8.64801e-15 -3.58642e-14 0.127822 -8.39528e-17 -3.57543e-16)
(-4.03604e-16 4.92853e-30 9.241e-31 12.9645 -5.34986e-15 -7.99201e-15 0.127822 -1.80593e-16 -1.87821e-16)
(0 -1.45147e-29 -9.07166e-31 12.9615 8.66236e-15 -3.65711e-14 0.130177 -8.50269e-17 -3.70462e-16)
(0 1.45147e-29 9.07166e-31 12.9615 -5.29617e-15 -5.18122e-15 0.130177 -1.96105e-16 -2.09884e-16)
(4.03397e-16 -3.54549e-29 -2.5052e-30 12.9584 8.75107e-15 -3.58139e-14 0.132575 -8.74046e-17 -3.5552e-16)
(4.72574e-16 2.37478e-29 2.07793e-30 12.9584 -5.25472e-15 -1.7245e-15 0.132575 -2.11242e-16 -2.15053e-16)
(-1.27004e-16 8.13877e-30 5.06602e-31 12.9553 8.91266e-15 -3.76521e-14 0.135017 -9.00463e-17 -4.22742e-16)
(0 0 0 12.9553 -5.38099e-15 -1.6813e-15 0.135017 -2.26782e-16 -2.20206e-16)
(1.36028e-16 -3.4734e-30 -7.98084e-31 12.9521 9.03257e-15 -4.10062e-14 0.137503 -9.40666e-17 -4.40141e-16)
(5.44111e-16 4.57709e-30 1.14427e-30 12.9521 -5.32051e-15 -1.63457e-15 0.137503 -2.43328e-16 -2.25313e-16)
(-1.45218e-16 -1.02239e-30 2.37161e-31 12.9488 8.98586e-15 -4.19091e-14 0.140033 -9.59857e-17 -4.58202e-16)
(1.16174e-15 4.49321e-30 0 12.9488 -5.22128e-15 -1.58671e-15 0.140033 -2.59347e-16 -2.30345e-16)
(-3.10388e-16 8.82175e-30 5.5136e-31 12.9454 8.93938e-15 -4.28274e-14 0.14261 -9.66008e-17 -4.76963e-16)
(6.18307e-16 -4.41088e-30 0 12.9454 -5.25568e-15 -1.53217e-15 0.14261 -2.75179e-16 -2.3533e-16)
(3.047e-16 -8.6601e-30 0 12.942 8.92953e-15 -4.37612e-14 0.145233 -9.85784e-17 -4.96428e-16)
(3.51733e-16 8.6601e-30 0 12.942 -5.10621e-15 -1.47541e-15 0.145233 -2.91819e-16 -2.40185e-16)
(0 4.2507e-30 1.06268e-30 12.9385 8.78195e-15 -4.47107e-14 0.147903 -1.0002e-16 -5.16646e-16)
(3.96145e-16 0 -5.31338e-31 12.9385 -4.96111e-15 -1.41988e-15 0.147903 -3.08194e-16 -2.44967e-16)
(1.09934e-16 -4.88432e-30 -7.56246e-31 12.9348 8.75416e-15 -4.56769e-14 0.150621 -9.89183e-17 -5.37641e-16)
(-2.93635e-16 1.25184e-29 1.5648e-30 12.9348 -5.13754e-15 -1.36458e-15 0.150621 -3.25107e-16 -2.49608e-16)
(0 -2.04817e-29 -1.53613e-30 12.9311 8.98225e-15 -4.66586e-14 0.153388 -1.03142e-16 -5.59408e-16)
(7.75074e-16 2.04817e-29 1.53613e-30 12.9311 -5.38572e-15 -1.30651e-15 0.153388 -3.43572e-16 -2.54144e-16)
(7.89513e-17 -5.66319e-31 -1.87544e-31 12.9272 9.08788e-15 -4.76552e-14 0.156204 -1.08058e-16 -5.81987e-16)
(0 4.02128e-30 1.00532e-30 12.9272 -5.47925e-15 -1.23669e-15 0.156204 -3.62808e-16 -2.5856e-16)
(-2.14462e-16 3.45202e-30 -1.48245e-31 12.9233 9.28458e-15 -4.42434e-14 0.15907 -1.09582e-16 -4.96484e-16)
(0 3.94759e-30 9.86898e-31 12.9233 -5.49398e-15 -1.16473e-15 0.15907 -3.82806e-16 -2.62757e-16)
(0 7.75051e-30 -1.33155e-29 12.9191 9.79366e-15 -2.63787e-14 0.161986 -1.16972e-16 -1.63872e-16)
(0 -3.87525e-30 0 12.9191 -5.76668e-15 -1.09649e-15 0.161986 -4.03098e-16 -2.66729e-16)
(-1.03902e-15 3.00733e-29 4.21198e-30 12.9149 1.01517e-14 -1.38672e-14 0.164954 -1.26479e-16 -1.87365e-16)
(-6.75993e-16 -2.28254e-29 -3.32871e-30 12.9149 -5.9069e-15 -1.02714e-15 0.164954 -4.25584e-16 -2.70531e-16)
(2.4695e-16 -7.17435e-30 5.42014e-32 12.9104 9.93548e-15 -1.46934e-14 0.167974 -1.30527e-16 -1.91549e-16)
(7.25006e-16 3.73453e-30 0 12.9104 -5.55678e-15 -9.49849e-16 0.167974 -4.4803e-16 -2.7414e-16)
(0 1.46644e-29 9.16524e-31 12.9058 9.55666e-15 -1.47423e-14 0.171047 -1.25619e-16 -1.95722e-16)
(0 -1.09983e-29 0 12.9058 -5.30975e-15 -8.71464e-16 0.171047 -4.68881e-16 -2.77454e-16)
(-2.69614e-16 1.42313e-29 1.76903e-30 12.9009 9.55536e-15 -1.47904e-14 0.174173 -1.25402e-16 -2.00068e-16)
(0 -1.07967e-29 -1.34959e-30 12.9009 -5.31621e-15 -7.97598e-16 0.174173 -4.90264e-16 -2.80518e-16)
(-2.81259e-16 -3.6352e-30 -9.02659e-31 12.8958 9.72478e-15 -1.48461e-14 0.177352 -1.30317e-16 -2.04627e-16)
(0 1.05989e-29 2.2081e-30 12.8958 -5.31853e-15 -7.1529e-16 0.177352 -5.12437e-16 -2.83354e-16)
(4.88109e-16 -2.42776e-29 -2.60117e-30 12.8904 1.00041e-14 -1.49128e-14 0.180585 -1.34788e-16 -2.09477e-16)
(6.84356e-16 2.42776e-29 2.60117e-30 12.8904 -5.44735e-15 -6.31746e-16 0.180585 -5.3363e-16 -2.85786e-16)
(0 6.80934e-30 1.70234e-30 12.8847 1.02655e-14 -1.49987e-14 0.183872 -1.43055e-16 -2.1479e-16)
(0 -3.40467e-30 -8.51168e-31 12.8847 -5.72293e-15 -5.47495e-16 0.183872 -5.56629e-16 -2.87936e-16)
(-1.52899e-16 -7.55323e-32 -4.3423e-31 12.8787 1.02716e-14 -1.50892e-14 0.187214 -1.4733e-16 -2.20003e-16)
(1.26994e-15 -3.34228e-30 0 12.8787 -5.74228e-15 -4.49051e-16 0.187214 -5.81123e-16 -2.89698e-16)
(-3.30005e-16 -1.29913e-29 -2.0224e-30 12.8723 1.00312e-14 -1.5179e-14 0.190611 -1.48623e-16 -2.25543e-16)
(1.32002e-15 1.96862e-29 2.46078e-30 12.8723 -5.69571e-15 -3.49938e-16 0.190611 -6.04882e-16 -2.91012e-16)
(-3.42752e-16 -1.59147e-29 -1.97305e-30 12.8654 9.74046e-15 -1.52688e-14 0.194061 -1.4576e-16 -2.31005e-16)
(0 2.25464e-29 3.22091e-30 12.8654 -5.63053e-15 -2.5185e-16 0.194061 -6.32218e-16 -2.9198e-16)
(0 2.21332e-29 3.16189e-30 12.858 9.61889e-15 -1.53613e-14 0.197566 -1.4545e-16 -2.36884e-16)
(1.42293e-15 -2.21332e-29 -3.16189e-30 12.858 -5.40811e-15 -1.5564e-16 0.197566 -6.57423e-16 -2.9237e-16)
(-7.37893e-16 1.30148e-29 2.45464e-30 12.8501 9.62439e-15 -1.54639e-14 0.201125 -1.47516e-16 -2.42922e-16)
(1.47579e-15 -3.10395e-30 -7.75987e-31 12.8501 -5.47633e-15 -6.11808e-17 0.201125 -6.79222e-16 -2.92292e-16)
(8.57674e-16 -6.09414e-30 -2.2853e-30 12.8415 9.7098e-15 -1.55554e-14 0.204737 -1.51103e-16 -2.48728e-16)
(0 6.09414e-30 2.2853e-30 12.8415 -5.5653e-15 4.99504e-17 0.204737 -7.07417e-16 -2.91768e-16)
(8.41957e-16 -5.98247e-30 -1.49562e-30 12.8321 9.87097e-15 -1.56397e-14 0.208401 -1.55799e-16 -2.54817e-16)
(-8.41957e-16 5.98247e-30 2.24342e-30 12.8321 -5.63849e-15 1.42987e-16 0.208401 -7.36934e-16 -2.9046e-16)
(-1.23657e-15 1.2199e-29 2.66746e-30 12.822 1.02491e-14 -1.57372e-14 0.212115 -1.62034e-16 -2.61327e-16)
(-1.64018e-15 -5.87284e-30 -7.34105e-31 12.822 -5.79251e-15 2.29403e-16 0.212115 -7.65898e-16 -2.8887e-16)
(1.85491e-17 -5.0111e-31 9.71428e-31 12.8109 1.05033e-14 -1.58463e-14 0.215879 -1.74187e-16 -2.68096e-16)
(1.69696e-15 0 -7.20653e-31 12.8109 -5.82367e-15 3.36189e-16 0.215879 -7.91786e-16 -2.86581e-16)
(-3.57823e-16 1.64295e-29 3.06245e-30 12.7987 1.03387e-14 -1.59441e-14 0.21969 -1.7671e-16 -2.74536e-16)
(-9.5825e-16 -1.98085e-29 -3.53723e-30 12.7987 -5.90631e-15 4.42487e-16 0.21969 -8.20109e-16 -2.83711e-16)
(-4.534e-16 -4.95889e-30 -2.14675e-31 12.7853 9.75621e-15 -1.60303e-14 0.223546 -1.75098e-16 -2.81213e-16)
(1.8136e-15 8.3338e-30 6.94483e-31 12.7853 -5.49874e-15 5.58385e-16 0.223546 -8.55409e-16 -2.80189e-16)
(0 -1.63622e-29 -4.09054e-30 12.7706 9.21566e-15 -1.6109e-14 0.227444 -1.62987e-16 -2.87686e-16)
(3.74697e-15 2.18162e-29 4.09054e-30 12.7706 -4.64889e-15 6.45125e-16 0.227444 -8.85331e-16 -2.75451e-16)
(1.23713e-15 -3.01392e-29 -5.84437e-30 12.7544 9.374e-15 -1.61708e-14 0.23138 -1.6243e-16 -2.94053e-16)
(1.93443e-15 2.67706e-29 4.01558e-30 12.7544 -4.64225e-15 7.0058e-16 0.23138 -9.12803e-16 -2.70407e-16)
(-4.99111e-16 1.38747e-29 2.46673e-30 12.7364 9.86581e-15 -1.62005e-14 0.235351 -1.74878e-16 -2.99627e-16)
(-1.99644e-15 -5.256e-30 -6.57e-31 12.7364 -5.34887e-15 8.13967e-16 0.235351 -9.47152e-16 -2.65324e-16)
(7.26161e-16 -5.15968e-30 -6.44961e-31 12.7166 1.03539e-14 -1.6233e-14 0.239351 -1.8674e-16 -3.06357e-16)
(0 5.15968e-30 6.44961e-31 12.7166 -5.40014e-15 9.41588e-16 0.239351 -9.81869e-16 -2.58843e-16)
(-1.24379e-15 2.36097e-29 4.30566e-30 12.6946 1.06051e-14 -1.62751e-14 0.243375 -1.99857e-16 -3.12533e-16)
(0 -1.01303e-29 -1.89943e-30 12.6946 -5.4019e-15 1.01465e-15 0.243375 -1.00973e-15 -2.5135e-16)
(6.99792e-16 -4.97232e-30 -2.48616e-30 12.6702 1.07612e-14 -1.62806e-14 0.247417 -2.03418e-16 -3.18118e-16)
(0 4.97232e-30 2.48616e-30 12.6702 -6.07478e-15 1.12634e-15 0.247417 -1.04762e-15 -2.4361e-16)
(0 9.7624e-30 2.4406e-30 12.6432 1.10339e-14 -1.62793e-14 0.251469 -2.13488e-16 -3.24256e-16)
(-2.25547e-15 -1.95248e-29 -3.6609e-30 12.6432 -6.23222e-15 1.26116e-15 0.251469 -1.09058e-15 -2.34512e-16)
(-9.36247e-17 6.254e-30 2.47027e-30 12.6132 1.06775e-14 -1.62522e-14 0.255525 -2.21946e-16 -3.29005e-16)
(-6.7438e-16 -4.79176e-30 -1.19794e-30 12.6132 -5.49313e-15 1.32878e-15 0.255525 -1.1278e-15 -2.24212e-16)
(6.40982e-17 3.32638e-30 5.30976e-31 12.58 9.83863e-15 -1.61425e-14 0.259573 -2.07071e-16 -3.31944e-16)
(-6.62022e-16 4.70395e-30 1.17599e-30 12.58 -4.95197e-15 1.39403e-15 0.259573 -1.16407e-15 -2.13744e-16)
(-1.23075e-15 -7.2066e-30 -2.38881e-30 12.5432 9.78537e-15 -1.60161e-14 0.263606 -1.95645e-16 -3.36078e-16)
(2.4615e-15 9.2355e-30 1.15444e-30 12.5432 -5.21509e-15 1.17729e-15 0.263606 -1.19882e-15 -2.02013e-16)
(-6.33111e-16 -1.21747e-30 5.43598e-31 12.5026 1.04215e-14 -1.59061e-14 0.267611 -2.12631e-16 -3.39739e-16)
(0 4.53313e-30 0 12.5026 -5.93378e-15 8.16663e-16 0.267611 -1.23797e-15 -1.92666e-16)
(-1.30226e-15 2.88657e-29 5.55043e-30 12.4576 1.12143e-14 -1.57516e-14 0.271577 -2.30294e-16 -3.4199e-16)
(-2.60452e-15 -2.22503e-29 -4.45006e-30 12.4576 -6.78611e-15 7.38074e-16 0.271577 -1.28405e-15 -1.84029e-16)
(-5.60197e-16 9.80785e-30 3.81173e-30 12.4081 1.19364e-14 -1.55659e-14 0.27549 -2.55279e-16 -3.44277e-16)
(-1.4481e-15 -2.18426e-29 -5.46065e-30 12.4081 -7.19324e-15 7.68347e-16 0.27549 -1.33599e-15 -1.74619e-16)
(-6.03548e-16 1.28654e-29 3.21635e-30 12.3536 1.19101e-14 -1.53464e-14 0.279338 -2.711e-16 -3.4493e-16)
(0 -4.28847e-30 -1.07212e-30 12.3536 -6.3506e-15 7.69101e-16 0.279338 -1.38646e-15 -1.64138e-16)
(-1.41375e-15 -6.06356e-30 -9.64431e-31 12.2937 1.09109e-14 -1.50971e-14 0.283105 -2.6371e-16 -3.45737e-16)
(5.65499e-15 8.41976e-30 1.05247e-30 12.2937 -5.24141e-15 7.91039e-16 0.283105 -1.42622e-15 -1.53728e-16)
(-1.88927e-15 1.98126e-29 3.67688e-30 12.228 1.02258e-14 -1.47919e-14 0.286776 -2.35176e-16 -3.43575e-16)
(4.0673e-15 -1.65309e-29 -3.09955e-30 12.228 -5.47816e-15 8.69133e-16 0.286776 -1.46369e-15 -1.42423e-16)
(0 -4.057e-30 -2.0285e-30 12.1563 1.09051e-14 -1.43901e-14 0.290335 -2.41422e-16 -3.3951e-16)
(0 4.057e-30 2.0285e-30 12.1563 -5.82626e-15 9.09779e-16 0.290335 -1.50366e-15 -1.30294e-16)
(-7.65084e-16 7.24595e-30 5.91672e-31 12.078 1.2034e-14 -1.3949e-14 0.293765 -2.76589e-16 -3.34994e-16)
(3.06033e-15 0 9.95665e-31 12.078 -5.65573e-15 9.00532e-16 0.293765 -1.54833e-15 -1.17271e-16)
(0 1.1729e-29 1.95484e-30 11.993 1.25911e-14 -1.35099e-14 0.297049 -3.05618e-16 -3.30469e-16)
(0 -7.81936e-30 -9.7742e-31 11.993 -6.19486e-15 8.68194e-16 0.297049 -1.59872e-15 -1.0344e-16)
(-1.8855e-15 1.09177e-29 3.48397e-30 11.901 1.24371e-14 -1.30492e-14 0.300172 -3.14711e-16 -3.24285e-16)
(0 -3.83804e-30 -9.59509e-31 11.901 -6.6303e-15 8.64182e-16 0.300172 -1.65548e-15 -9.00894e-17)
(0 7.53541e-30 2.82578e-30 11.8016 1.23653e-14 -1.24945e-14 0.303115 -3.09336e-16 -3.14302e-16)
(0 -7.53541e-30 -1.88385e-30 11.8016 -6.2985e-15 9.18704e-16 0.303115 -1.71259e-15 -7.6353e-17)
(0 -2.2192e-29 -4.62333e-30 11.6947 1.186e-14 -1.19141e-14 0.305863 -3.22864e-16 -3.05999e-16)
(3.38505e-15 2.2192e-29 4.62333e-30 11.6947 -6.04565e-15 9.52454e-16 0.305863 -1.76628e-15 -6.04245e-17)
(0 2.54162e-29 5.44633e-30 11.5801 1.05865e-14 -1.13115e-14 0.308401 -2.94435e-16 -2.93886e-16)
(0 -2.54162e-29 -5.44633e-30 11.5801 -5.75564e-15 9.05807e-16 0.308401 -1.81789e-15 -4.35827e-17)
(-8.88212e-16 3.2171e-30 6.32898e-31 11.4577 1.0223e-14 -1.06478e-14 0.310715 -2.66847e-16 -2.81333e-16)
(3.55285e-15 3.56435e-30 1.78218e-30 11.4577 -5.10059e-15 4.12595e-16 0.310715 -1.8683e-15 -2.72201e-17)
(0 -1.74952e-29 -5.24855e-30 11.3275 1.06023e-14 -9.9928e-15 0.312791 -2.85708e-16 -2.6857e-16)
(3.63794e-15 1.74952e-29 5.24855e-30 11.3275 -5.43644e-15 -8.16165e-16 0.312791 -1.92176e-15 -1.698e-17)
(-9.30935e-16 2.38071e-29 6.65651e-30 11.1896 1.08189e-14 -9.2637e-15 0.314619 -2.97976e-16 -2.50672e-16)
(-3.72374e-15 -2.06095e-29 -6.01111e-30 11.1896 -6.82207e-15 -1.60885e-15 0.314619 -1.97496e-15 -1.74605e-17)
(0 -3.37197e-30 -8.42994e-31 11.0441 1.10533e-14 -8.46355e-15 0.316188 -3.08733e-16 -2.32563e-16)
(-3.81019e-15 3.37197e-30 8.42994e-31 11.0441 -6.70163e-15 -1.71088e-15 0.316188 -2.04153e-15 -1.72514e-17)
(-1.94861e-15 3.04824e-30 -3.42215e-31 10.8912 1.13555e-14 -7.74914e-15 0.317493 -3.22713e-16 -2.18165e-16)
(3.89723e-15 3.31018e-30 1.65509e-30 10.8912 -6.04815e-15 -1.84417e-15 0.317493 -2.10154e-15 -1.47508e-17)
(-1.99239e-15 3.0875e-30 5.104e-31 10.7311 1.20369e-14 -7.0856e-15 0.318526 -3.38117e-16 -2.01632e-16)
(0 3.24953e-30 8.12381e-31 10.7311 -6.54397e-15 -1.84154e-15 0.318526 -2.16634e-15 2.6584e-18)
(1.7958e-15 -6.37996e-30 -3.18998e-30 10.5642 1.20725e-14 -6.4335e-15 0.319287 -3.75632e-16 -1.86648e-16)
(2.27696e-15 6.37996e-30 3.18998e-30 10.5642 -6.7738e-15 -1.79724e-15 0.319287 -2.225e-15 1.98428e-17)
(-1.92172e-15 2.19378e-29 7.71556e-30 10.3909 1.0843e-14 -5.73465e-15 0.319773 -3.53028e-16 -1.65849e-16)
(-4.16111e-15 -1.56576e-29 -6.26305e-30 10.3909 -5.64224e-15 -1.75677e-15 0.319773 -2.29221e-15 3.68218e-17)
(2.79302e-15 -6.22131e-30 -2.21195e-30 10.2117 1.03862e-14 -4.83519e-15 0.319987 -3.13464e-16 -1.36804e-16)
(-1.73059e-15 3.07414e-30 1.53707e-30 10.2117 -4.55652e-15 -1.80102e-15 0.319987 -2.35423e-15 5.34856e-17)
(1.08465e-15 -6.15285e-30 -3.69599e-30 10.0271 1.08558e-14 -3.97157e-15 0.319933 -3.37448e-16 -1.16469e-16)
(-4.33859e-15 3.01781e-30 3.01781e-30 10.0271 -5.3874e-15 -1.8806e-15 0.319933 -2.39144e-15 6.58498e-17)
(-2.21378e-15 1.80963e-29 4.32351e-30 9.83776 1.09988e-14 -3.29288e-15 0.319618 -3.55521e-16 -9.74261e-17)
(0 -8.88752e-30 -1.48125e-30 9.83776 -5.02394e-15 -1.88361e-15 0.319618 -2.45832e-15 7.81419e-17)
(0 5.81644e-30 1.45411e-30 9.64415 1.15479e-14 -2.64785e-15 0.319048 -3.59551e-16 -7.77423e-17)
(0 -1.16329e-29 -2.90822e-30 9.64415 -4.56875e-15 -1.85189e-15 0.319048 -2.49899e-15 9.01422e-17)
(-4.55781e-16 5.46838e-30 7.43673e-31 9.44696 1.22417e-14 -1.9991e-15 0.318235 -4.05622e-16 -5.6924e-17)
(-9.2112e-15 -8.56478e-30 -1.42746e-30 9.44696 -6.3668e-15 -1.84931e-15 0.318235 -2.55312e-15 1.03197e-16)
(1.17363e-15 -5.88441e-30 -3.48764e-30 9.24682 1.17998e-14 -1.34892e-15 0.317189 -4.20339e-16 -3.55752e-17)
(0 2.80261e-30 2.80261e-30 9.24682 -6.43414e-15 -2.05396e-15 0.317189 -2.64353e-15 1.15311e-16)
(1.54882e-15 -1.65075e-29 -6.87814e-30 9.04438 1.13934e-14 -9.09461e-16 0.315923 -3.90252e-16 -2.80189e-17)
(3.23443e-15 1.65075e-29 6.87814e-30 9.04438 -5.45098e-15 -2.14208e-15 0.315923 -2.71581e-15 1.23119e-16)
(1.21794e-15 -5.76154e-30 -2.03405e-30 8.84029 1.11884e-14 -5.50616e-16 0.314452 -4.0747e-16 -1.10882e-17)
(4.87175e-15 0 2.70084e-30 8.84029 -6.08426e-15 -1.92133e-15 0.314452 -2.78118e-15 1.32559e-16)
(5.05175e-16 -1.77559e-29 2.13698e-44 8.63517 1.00506e-14 7.64722e-29 0.312789 -3.902e-16 2.27965e-46)
(-1.49258e-15 1.59081e-29 6.62837e-30 8.63517 -6.54962e-15 -1.92989e-15 0.312789 -2.87226e-15 1.44852e-16)
(-1.05867e-15 -9.51464e-30 -3.85085e-30 8.42963 9.89743e-15 4.08954e-16 0.31095 -3.39401e-16 -8.62158e-18)
(3.58256e-15 1.56166e-29 5.20552e-30 8.42963 -5.35726e-15 -2.10522e-15 0.31095 -2.9456e-15 1.52758e-16)
(1.2838e-15 -1.83617e-29 -5.78161e-30 8.22425 1.0218e-14 6.93289e-16 0.30895 -3.93465e-16 -2.17608e-17)
(1.02704e-14 1.53304e-29 5.11013e-30 8.22425 -5.09492e-15 -2.00112e-15 0.30895 -2.99128e-15 1.60758e-16)
(-1.30554e-15 -1.99335e-30 -1.84221e-30 8.01957 8.95688e-15 1.11038e-15 0.306804 -3.76578e-16 -3.05787e-17)
(0 1.0033e-29 3.76237e-30 8.01957 -5.70312e-15 -1.94419e-15 0.306804 -3.07384e-15 1.71497e-16)
(-2.65428e-15 6.05151e-30 1.31576e-30 7.8161 8.57294e-15 1.62027e-15 0.304528 -3.10557e-16 -5.49057e-17)
(5.30857e-15 0 0 7.8161 -4.48221e-15 -1.98418e-15 0.304528 -3.15602e-15 1.77688e-16)
(-1.3486e-15 3.00927e-30 1.85867e-30 7.61431 9.29168e-15 1.92841e-15 0.302137 -3.60457e-16 -7.19854e-17)
(5.39442e-15 4.83433e-30 1.20858e-30 7.61431 -4.16933e-15 -1.94421e-15 0.302137 -3.19707e-15 1.84646e-16)
(-1.33581e-15 9.49148e-30 3.5593e-30 7.41463 9.07167e-15 2.24064e-15 0.299645 -3.80061e-16 -8.17551e-17)
(0 0 -1.18643e-30 7.41463 -4.69054e-15 -1.93057e-15 0.299645 -3.26676e-15 1.91637e-16)
(1.39107e-15 -7.65448e-30 -2.96373e-30 7.21744 8.72625e-15 2.70205e-15 0.297066 -3.56015e-16 -1.00277e-16)
(5.56426e-15 4.65877e-30 2.32939e-30 7.21744 -4.02481e-15 -1.98425e-15 0.297066 -3.34618e-15 1.95521e-16)
(1.41205e-15 -1.67048e-29 -4.05436e-30 7.02308 8.64122e-15 3.01846e-15 0.294414 -3.65556e-16 -1.23341e-16)
(5.64819e-15 1.37202e-29 3.43005e-30 7.02308 -4.29741e-15 -2.07777e-15 0.294414 -3.38278e-15 1.97745e-16)
(-1.43285e-15 -1.51394e-30 6.16137e-31 6.83184 8.6553e-15 3.10443e-15 0.2917 -3.62203e-16 -1.30953e-16)
(5.73141e-15 8.97919e-30 2.2448e-30 6.83184 -5.16277e-15 -2.0618e-15 0.2917 -3.42272e-15 1.98875e-16)
(3.93458e-15 -1.17791e-29 -3.91402e-30 6.644 8.6656e-15 3.19776e-15 0.288938 -3.8055e-16 -1.35434e-16)
(-2.4811e-15 8.81465e-30 3.3055e-30 6.644 -5.1251e-15 -1.97617e-15 0.288938 -3.51351e-15 2.00693e-16)
(-1.47391e-15 1.59346e-29 3.84506e-30 6.45976 7.05905e-15 3.37703e-15 0.286137 -3.7676e-16 -1.44121e-16)
(3.46002e-15 -8.65313e-30 -1.08164e-30 6.45976 -4.11286e-15 -1.86951e-15 0.286137 -3.59035e-15 2.02462e-16)
(3.88517e-15 -1.14612e-29 -3.77611e-30 6.27931 5.632e-15 3.76233e-15 0.283308 -2.50527e-16 -1.56646e-16)
(-2.39101e-15 8.49456e-30 3.18546e-30 6.27931 -3.08086e-15 -1.9884e-15 0.283308 -3.63989e-15 2.0388e-16)
(-1.51421e-15 1.12999e-29 2.663e-30 6.10279 6.65443e-15 3.9913e-15 0.28046 -2.6033e-16 -1.84821e-16)
(6.05686e-15 -4.16945e-30 -1.04236e-30 6.10279 -3.01476e-15 -2.22144e-15 0.28046 -3.70509e-15 1.96921e-16)
(1.53407e-15 1.15342e-30 4.52906e-31 5.93032 7.54717e-15 4.01588e-15 0.277601 -3.55304e-16 -1.83898e-16)
(3.83211e-15 0 0 5.93032 -2.36233e-15 -1.9872e-15 0.277601 -3.73895e-15 1.8942e-16)
(0 4.01804e-30 1.00451e-30 5.76199 7.2482e-15 4.25523e-15 0.27474 -3.54937e-16 -1.9412e-16)
(3.95297e-15 -4.01804e-30 0 5.76199 -2.39346e-15 -1.78586e-15 0.27474 -3.75121e-15 1.89004e-16)
(-2.22051e-15 3.94441e-30 1.97221e-30 5.59786 7.55303e-15 4.45074e-15 0.271884 -3.39765e-16 -2.13987e-16)
(-6.29277e-15 0 -9.86104e-31 5.59786 -4.77229e-15 -2.16226e-15 0.271884 -3.84197e-15 1.82331e-16)
(0 1.54885e-29 4.84017e-30 5.43795 7.26096e-15 4.27927e-15 0.269038 -3.98357e-16 -2.20705e-16)
(6.36981e-15 -1.54885e-29 -4.84017e-30 5.43795 -5.2903e-15 -2.29533e-15 0.269038 -3.95452e-15 1.64431e-16)
(5.28359e-16 -1.60981e-29 -5.17184e-30 5.28229 5.99266e-15 4.09243e-15 0.266208 -3.23242e-16 -2.04834e-16)
(-2.13987e-15 1.90059e-29 5.70177e-30 5.28229 -3.74952e-15 -2.28827e-15 0.266208 -4.03487e-15 1.55402e-16)
(-1.63038e-15 -8.25897e-31 5.1909e-31 5.13088 5.90525e-15 3.87514e-15 0.2634 -2.83648e-16 -2.09913e-16)
(6.5215e-15 7.46305e-30 9.32881e-31 5.13088 -3.58469e-15 -2.24425e-15 0.2634 -4.12243e-15 1.36984e-16)
(2.06217e-15 -7.32629e-30 -9.15786e-31 4.98368 6.00292e-15 3.72121e-15 0.260617 -3.26316e-16 -1.89913e-16)
(-2.06217e-15 7.32629e-30 9.15786e-31 4.98368 -4.22243e-15 -2.10976e-15 0.260617 -4.17115e-15 1.27706e-16)
(0 3.59602e-30 2.69701e-30 4.84066 6.19261e-15 3.86638e-15 0.257863 -3.04701e-16 -2.01485e-16)
(0 0 -8.99004e-31 4.84066 -3.88211e-15 -2.36494e-15 0.257863 -4.2102e-15 1.13497e-16)
(3.67306e-15 -1.69908e-29 -5.78536e-30 4.70179 7.13788e-15 3.64841e-15 0.255142 -3.59121e-16 -2.12765e-16)
(6.7431e-15 1.05904e-29 5.29518e-30 4.70179 -2.61817e-15 -2.31706e-15 0.255142 -4.25512e-15 9.2868e-17)
(-2.19788e-15 7.54565e-30 2.98116e-30 4.56698 7.86362e-15 3.4474e-15 0.252457 -4.20288e-16 -1.85072e-16)
(4.86454e-15 -3.46543e-30 -1.73272e-30 4.56698 -1.73947e-15 -2.2504e-15 0.252457 -4.28782e-15 7.87824e-17)
(0 0 1.70097e-30 4.43619 7.76475e-15 3.50574e-15 0.249809 -4.54072e-16 -1.98232e-16)
(6.88695e-15 6.80386e-30 0 4.43619 -2.70676e-15 -2.54908e-15 0.249809 -4.31952e-15 5.16514e-17)
(-3.47887e-15 2.30426e-30 1.76246e-30 4.30934 7.53745e-15 3.29657e-15 0.247202 -4.24827e-16 -1.98713e-16)
(6.95773e-15 3.33959e-30 -8.34898e-31 4.30934 -3.34995e-15 -2.52928e-15 0.247202 -4.37462e-15 2.20345e-17)
(1.75694e-15 -1.59179e-29 -5.37477e-30 4.18633 7.33469e-15 3.11718e-15 0.244636 -4.44721e-16 -1.8135e-16)
(7.02777e-15 1.31136e-29 4.91759e-30 4.18633 -3.11508e-15 -2.33345e-15 0.244636 -4.41358e-15 -2.60286e-18)
(0 1.28733e-29 4.82748e-30 4.06709 7.14757e-15 3.20194e-15 0.242113 -4.1679e-16 -1.84927e-16)
(-7.09707e-15 -1.28733e-29 -4.82748e-30 4.06709 -4.06267e-15 -2.29703e-15 0.242113 -4.47888e-15 -2.58796e-17)
(0 0 7.89836e-31 3.95154 7.21261e-15 3.30453e-15 0.239634 -4.38874e-16 -1.98424e-16)
(-1.77855e-15 0 -7.89836e-31 3.95154 -3.76464e-15 -2.50649e-15 0.239634 -4.58267e-15 -5.43137e-17)
(-3.61675e-15 2.10221e-29 5.4991e-30 3.83956 7.26962e-15 3.20875e-15 0.2372 -4.40499e-16 -2.0452e-16)
(0 -1.55073e-29 -4.65218e-30 3.83956 -2.54839e-15 -2.551e-15 0.2372 -4.64957e-15 -9.34396e-17)
(-5.2531e-15 5.78109e-30 4.12954e-31 3.73108 8.13942e-15 2.9615e-15 0.234811 -4.62559e-16 -1.93895e-16)
(0 -3.04462e-30 0 3.73108 -3.37939e-15 -2.34916e-15 0.234811 -4.68655e-15 -1.23328e-16)
(-1.68256e-15 1.7933e-29 5.97765e-30 3.62599 8.72919e-15 2.95479e-15 0.232468 -5.68167e-16 -1.80653e-16)
(-7.36714e-15 -1.19553e-29 -4.48324e-30 3.62599 -3.55401e-15 -2.21134e-15 0.232468 -4.78257e-15 -1.54126e-16)
(3.71647e-15 -2.45174e-30 -7.81659e-31 3.5242 9.19289e-15 3.30468e-15 0.230171 -5.56704e-16 -2.00329e-16)
(0 -2.93406e-30 0 3.5242 -2.82874e-15 -2.82717e-15 0.230171 -4.84983e-15 -1.86526e-16)
(2.12758e-15 6.20693e-30 2.13183e-30 3.42561 9.73356e-15 2.94162e-15 0.22792 -6.5102e-16 -2.33823e-16)
(7.49808e-15 -1.15212e-29 -2.88029e-30 3.42561 -3.92487e-15 -3.09936e-15 0.22792 -4.92088e-15 -2.52806e-16)
(-1.89064e-15 2.63426e-30 3.74942e-31 3.33013 8.37624e-15 2.20205e-15 0.225716 -6.50662e-16 -1.58871e-16)
(7.56256e-15 5.65502e-30 1.41376e-30 3.33013 -4.66891e-15 -2.46713e-15 0.225716 -5.01993e-15 -2.9909e-16)
(2.25063e-15 -2.50525e-30 6.56547e-31 3.23766 7.01518e-15 2.42731e-15 0.223557 -4.88921e-16 -1.40943e-16)
(0 -2.7757e-30 -1.38785e-30 3.23766 -4.20794e-15 -2.43115e-15 0.223557 -5.11109e-15 -3.37744e-16)
(1.92241e-15 -2.62764e-30 -1.70749e-30 3.1481 5.8677e-15 2.76511e-15 0.221443 -4.84541e-16 -1.96409e-16)
(7.68963e-15 0 1.36242e-30 3.1481 -5.26441e-15 -2.74295e-15 0.221443 -5.2087e-15 -3.89203e-16)
(-1.93806e-15 1.06667e-29 1.67708e-30 3.06137 6.05627e-15 2.65504e-15 0.219375 -3.43621e-16 -1.94452e-16)
(-3.01167e-15 -5.3498e-30 0 3.06137 -5.82903e-15 -2.79075e-15 0.219375 -5.34756e-15 -4.45833e-16)
(0 0 0 2.97737 7.68152e-15 2.39468e-15 0.217351 -5.30208e-16 -1.87813e-16)
(1.56285e-14 2.62588e-30 1.31294e-30 2.97737 -4.74898e-15 -2.69039e-15 0.217351 -5.43558e-15 -4.94072e-16)
(-1.96892e-15 -1.03097e-29 -9.54083e-31 2.89601 6.49768e-15 2.29736e-15 0.215371 -5.97199e-16 -1.63231e-16)
(0 1.28888e-29 1.28888e-30 2.89601 -3.74223e-15 -2.5676e-15 0.215371 -5.5161e-15 -5.44255e-16)
(0 -7.59159e-30 -2.53053e-30 2.81721 5.55667e-15 2.50583e-15 0.213435 -3.71639e-16 -1.80211e-16)
(1.58731e-14 1.26526e-29 2.53053e-30 2.81721 -2.75122e-15 -2.40126e-15 0.213435 -5.62521e-15 -5.9554e-16)
(-1.99921e-15 1.00153e-29 1.55775e-30 2.74088 6.19147e-15 2.77566e-15 0.211541 -4.75129e-16 -2.0141e-16)
(0 -7.45248e-30 -1.24208e-30 2.74088 -4.63118e-15 -2.4861e-15 0.211541 -5.71957e-15 -6.57926e-16)
(2.74566e-15 -4.87727e-30 -1.21932e-30 2.66694 5.68014e-15 2.95731e-15 0.209689 -4.84993e-16 -2.29232e-16)
(8.05657e-15 7.31591e-30 1.21932e-30 2.66694 -4.91384e-15 -2.77467e-15 0.209689 -5.86501e-15 -7.40078e-16)
(4.72429e-15 -1.45231e-29 -2.68562e-30 2.59531 4.66462e-15 2.97336e-15 0.207879 -4.11513e-16 -2.3796e-16)
(1.35362e-14 1.19697e-29 2.39395e-30 2.59531 -3.22363e-15 -2.93677e-15 0.207879 -5.93624e-15 -8.2449e-16)
(-2.04361e-15 -2.14248e-30 -8.90594e-31 2.52591 6.75277e-15 2.78862e-15 0.206109 -3.38346e-16 -2.40475e-16)
(8.17445e-15 9.40033e-30 1.17504e-30 2.52591 -5.20633e-15 -2.74547e-15 0.206109 -6.01936e-15 -9.08923e-16)
(-5.39315e-16 6.75355e-30 8.73117e-31 2.45865 9.24585e-15 2.1827e-15 0.204379 -7.7247e-16 -2.16366e-16)
(8.23262e-15 0 0 2.45865 -6.78842e-15 -2.80651e-15 0.204379 -6.14136e-15 -9.8156e-16)
(-4.14514e-15 9.43023e-30 2.83319e-30 2.39348 8.5159e-15 1.60751e-15 0.202687 -7.71232e-16 -1.47426e-16)
(8.29029e-15 0 -1.13237e-30 2.39348 -5.64945e-15 -3.16431e-15 0.202687 -6.25311e-15 -1.06735e-15)
(-2.50315e-15 -4.44648e-30 0 2.33031 8.36748e-15 9.06126e-16 0.201034 -6.7627e-16 -1.25778e-16)
(1.66949e-14 8.89296e-30 1.11162e-30 2.33031 -4.65298e-15 -3.20048e-15 0.201034 -6.35981e-15 -1.14327e-15)
(0 4.365e-30 1.09125e-30 2.26908 8.19516e-15 1.54341e-16 0.199418 -7.74339e-16 -3.03293e-17)
(8.40416e-15 0 0 2.26908 -5.42264e-15 -2.96556e-15 0.199418 -6.49117e-15 -1.20276e-15)
(-4.52734e-15 6.69668e-30 2.86114e-31 2.20973 6.52458e-15 -4.39846e-16 0.197838 -6.71057e-16 -7.63493e-17)
(0 0 0 2.20973 -4.94148e-15 -2.91081e-15 0.197838 -6.66476e-15 -1.25364e-15)
(2.12904e-15 1.78535e-30 7.59691e-31 2.15217 3.99034e-15 -7.16341e-16 0.196294 -5.00372e-16 -5.46397e-17)
(0 -8.41298e-30 -1.05162e-30 2.15217 -1.91247e-15 -2.90491e-15 0.196294 -6.77678e-15 -1.31752e-15)
(0 4.12941e-30 1.03235e-30 2.09637 2.54574e-15 -5.76893e-16 0.194784 -2.27895e-16 -5.29686e-17)
(0 0 0 2.09637 7.16626e-16 -2.50814e-15 0.194784 -6.80333e-15 -1.37311e-15)
(-2.15659e-15 1.45912e-29 9.45876e-45 2.04224 3.26819e-15 8.73771e-30 0.193309 -2.4721e-16 0)
(-2.28205e-15 -1.21612e-29 -2.02687e-30 2.04224 -3.19666e-16 -2.43202e-15 0.193309 -6.80011e-15 -1.41384e-15)
(-4.41044e-15 6.38052e-30 2.28699e-30 1.98974 4.20405e-15 2.14184e-16 0.191866 -3.75058e-16 -1.55348e-17)
(-8.68081e-15 0 0 1.98974 -1.48221e-15 -3.02539e-15 0.191866 -6.91997e-15 -1.49083e-15)
(-2.18371e-15 -1.52412e-30 -6.8224e-31 1.93881 3.89722e-15 2.77571e-16 0.190456 -4.39387e-16 -2.60254e-17)
(1.74697e-14 3.90653e-30 9.76634e-31 1.93881 6.61437e-17 -3.41581e-15 0.190456 -6.92538e-15 -1.59581e-15)
(0 -7.6699e-30 -1.91747e-30 1.88939 3.10884e-15 2.67535e-16 0.189076 -3.28119e-16 -2.87369e-17)
(8.78847e-15 7.6699e-30 1.91747e-30 1.88939 -1.32882e-15 -3.09658e-15 0.189076 -6.91343e-15 -1.70833e-15)
(-2.21043e-15 6.14408e-30 1.22746e-30 1.84144 2.92465e-15 3.78101e-16 0.187727 -2.96095e-16 -2.49713e-17)
(6.72238e-15 0 0 1.84144 -2.54269e-15 -2.70213e-15 0.187727 -7.06493e-15 -1.80212e-15)