/*--------------------------------*- C++ -*----------------------------------*\
| =========                 |                                                 |
| \\      /  F ield         | OpenFOAM: The Open Source CFD Toolbox           |
|  \\    /   O peration     | Version:  2106                                  |
|   \\  /    A nd           | Website:  www.openfoam.com                      |
|    \\/     M anipulation  |                                                 |
\*---------------------------------------------------------------------------*/
FoamFile
{
    version     2.0;
    format      ascii;
    arch        "LSB;label=32;scalar=64";
    class       volScalarField;
    location    "10000";
    object      p;
}
// * * * * * * * * * * * * * * * * * * * * * * * * * * * * * * * * * * * * * //

dimensions      [0 2 -2 0 0 0 0];

internalField   nonuniform List<scalar> 
2000
(
6.42593e-15
6.50551e-14
1.40359e-14
6.50569e-14
1.63969e-14
6.50598e-14
1.74062e-14
6.50647e-14
1.84662e-14
6.50715e-14
1.96267e-14
6.50803e-14
2.0753e-14
6.50911e-14
2.18329e-14
6.51038e-14
2.28849e-14
6.51185e-14
2.39156e-14
6.51352e-14
2.4925e-14
6.51536e-14
2.59127e-14
6.5174e-14
2.6879e-14
6.51961e-14
2.78241e-14
6.52202e-14
2.87481e-14
6.5246e-14
2.96514e-14
6.52735e-14
3.05347e-14
6.53025e-14
3.13981e-14
6.53333e-14
3.2242e-14
6.53656e-14
3.30665e-14
6.53995e-14
3.38722e-14
6.54348e-14
3.46593e-14
6.54718e-14
3.54281e-14
6.55101e-14
3.61793e-14
6.55499e-14
3.6913e-14
6.55908e-14
3.76295e-14
6.56329e-14
3.83292e-14
6.56764e-14
3.90125e-14
6.57211e-14
3.96796e-14
6.57671e-14
4.03307e-14
6.58143e-14
4.09656e-14
6.58627e-14
4.15852e-14
6.59123e-14
4.219e-14
6.59629e-14
4.27799e-14
6.60143e-14
4.33554e-14
6.60666e-14
4.39167e-14
6.61198e-14
4.44639e-14
6.61741e-14
4.49973e-14
6.62293e-14
4.55175e-14
6.62854e-14
4.60247e-14
6.63421e-14
4.65191e-14
6.63996e-14
4.70009e-14
6.64581e-14
4.74707e-14
6.65171e-14
4.79289e-14
6.65765e-14
4.8375e-14
6.66365e-14
4.88096e-14
6.6697e-14
4.9233e-14
6.67578e-14
4.96455e-14
6.68192e-14
5.00477e-14
6.68813e-14
5.044e-14
6.69436e-14
5.08222e-14
6.70056e-14
5.11948e-14
6.70676e-14
5.15571e-14
6.71301e-14
5.19108e-14
6.71929e-14
5.22555e-14
6.72557e-14
5.25908e-14
6.73184e-14
5.29182e-14
6.73808e-14
5.3238e-14
6.74435e-14
5.35498e-14
6.75065e-14
5.38537e-14
6.75692e-14
5.41502e-14
6.76318e-14
5.4439e-14
6.76942e-14
5.47209e-14
6.77569e-14
5.49966e-14
6.78201e-14
5.52666e-14
6.78825e-14
5.55302e-14
6.79445e-14
5.57877e-14
6.80064e-14
5.60393e-14
6.80683e-14
5.62853e-14
6.81297e-14
5.65265e-14
6.81915e-14
5.67634e-14
6.82531e-14
5.6996e-14
6.8315e-14
5.72247e-14
6.83775e-14
5.74492e-14
6.84396e-14
5.7671e-14
6.8501e-14
5.78889e-14
6.85631e-14
5.81028e-14
6.86264e-14
5.83147e-14
6.86901e-14
5.85226e-14
6.87542e-14
5.87294e-14
6.88167e-14
5.89352e-14
6.88793e-14
5.91379e-14
6.89421e-14
5.93384e-14
6.90052e-14
5.95364e-14
6.90676e-14
5.97328e-14
6.91294e-14
5.99273e-14
6.9194e-14
6.01194e-14
6.92604e-14
6.03122e-14
6.93253e-14
6.05031e-14
6.93916e-14
6.06933e-14
6.94601e-14
6.08841e-14
6.95278e-14
6.10755e-14
6.95959e-14
6.12673e-14
6.96641e-14
6.14561e-14
6.97325e-14
6.16472e-14
6.98005e-14
6.18392e-14
6.98696e-14
6.203e-14
6.99407e-14
6.22209e-14
7.00125e-14
6.24123e-14
7.00838e-14
6.26085e-14
7.01525e-14
6.28038e-14
7.02231e-14
6.29979e-14
7.0297e-14
6.31952e-14
7.03687e-14
6.33927e-14
7.04396e-14
6.35871e-14
7.05158e-14
6.37844e-14
7.0593e-14
6.39784e-14
7.06758e-14
6.41749e-14
7.07585e-14
6.43709e-14
7.08409e-14
6.45709e-14
7.0928e-14
6.47652e-14
7.10137e-14
6.49616e-14
7.11011e-14
6.51567e-14
7.11937e-14
6.53536e-14
7.12867e-14
6.55522e-14
7.13788e-14
6.57506e-14
7.14699e-14
6.59486e-14
7.15651e-14
6.61461e-14
7.16614e-14
6.63395e-14
7.17554e-14
6.65388e-14
7.1842e-14
6.67319e-14
7.1942e-14
6.69219e-14
7.20435e-14
6.7112e-14
7.21414e-14
6.73109e-14
7.22393e-14
6.75115e-14
7.2341e-14
6.77063e-14
7.24429e-14
6.79024e-14
7.25453e-14
6.80994e-14
7.26445e-14
6.82936e-14
7.27408e-14
6.84921e-14
7.28376e-14
6.86948e-14
7.2939e-14
6.89016e-14
7.3045e-14
6.90971e-14
7.3152e-14
6.92887e-14
7.32676e-14
6.94684e-14
7.33961e-14
6.96509e-14
7.35338e-14
6.98242e-14
7.36737e-14
6.99994e-14
7.38159e-14
7.01799e-14
7.39572e-14
7.03613e-14
7.40859e-14
7.05391e-14
7.42063e-14
7.07129e-14
7.43303e-14
7.08941e-14
7.44625e-14
7.10823e-14
7.4591e-14
7.1273e-14
7.4712e-14
7.14537e-14
7.4842e-14
7.16442e-14
7.49772e-14
7.1836e-14
7.51016e-14
7.20285e-14
7.52277e-14
7.22255e-14
7.53515e-14
7.24101e-14
7.54607e-14
7.25899e-14
7.55678e-14
7.2773e-14
7.56729e-14
7.29841e-14
7.5776e-14
7.31896e-14
7.58937e-14
7.33809e-14
7.60176e-14
7.35659e-14
7.61477e-14
7.37526e-14
7.6276e-14
7.39321e-14
7.63853e-14
7.41124e-14
7.65013e-14
7.43103e-14
7.6624e-14
7.45083e-14
7.67532e-14
7.46977e-14
7.68632e-14
7.48868e-14
7.69794e-14
7.50841e-14
7.71019e-14
7.52636e-14
7.72131e-14
7.54511e-14
7.73041e-14
7.56554e-14
7.74172e-14
7.58593e-14
7.75517e-14
7.60542e-14
7.76726e-14
7.62488e-14
7.77791e-14
7.6452e-14
7.78878e-14
7.66293e-14
7.79888e-14
7.68419e-14
7.80988e-14
7.70293e-14
7.82248e-14
7.7244e-14
7.83305e-14
7.74344e-14
7.84316e-14
7.76448e-14
7.85352e-14
7.78413e-14
7.86741e-14
7.80589e-14
7.88124e-14
7.83072e-14
7.89129e-14
7.84928e-14
7.89978e-14
7.8652e-14
7.90819e-14
7.88381e-14
7.91803e-14
7.90171e-14
7.92734e-14
7.92078e-14
7.94108e-14
7.93765e-14
7.96077e-14
7.95565e-14
7.97772e-14
7.97299e-14
7.99015e-14
7.99152e-14
8.00308e-14
8.00966e-14
8.01627e-14
8.02754e-14
8.03128e-14
8.04519e-14
8.04969e-14
8.06252e-14
8.06804e-14
8.07774e-14
8.08287e-14
8.09766e-14
8.10273e-14
8.11538e-14
8.12579e-14
8.13065e-14
8.14541e-14
8.14829e-14
8.16518e-14
8.16468e-14
8.18183e-14
8.18143e-14
8.19529e-14
8.19519e-14
8.21548e-14
8.21398e-14
8.23084e-14
8.23118e-14
8.24616e-14
8.24856e-14
8.25623e-14
8.2664e-14
8.27575e-14
8.28464e-14
8.28629e-14
8.30201e-14
8.29907e-14
8.32025e-14
8.31876e-14
8.33922e-14
8.33876e-14
8.35883e-14
8.35732e-14
8.37583e-14
8.37427e-14
8.39331e-14
8.39451e-14
8.41763e-14
8.41503e-14
8.43278e-14
8.43556e-14
8.44458e-14
8.45314e-14
8.4651e-14
8.47459e-14
8.48137e-14
8.49694e-14
8.49628e-14
8.50828e-14
8.51003e-14
8.52421e-14
8.53455e-14
8.54196e-14
8.54276e-14
8.55474e-14
8.55582e-14
8.56591e-14
8.57374e-14
8.5815e-14
8.59049e-14
8.60135e-14
8.60596e-14
8.61376e-14
8.61741e-14
8.63055e-14
8.62683e-14
8.64646e-14
8.63911e-14
8.65642e-14
8.65998e-14
8.66621e-14
8.67634e-14
8.67456e-14
8.68654e-14
8.68883e-14
8.69288e-14
8.69775e-14
8.69505e-14
8.70722e-14
8.70844e-14
8.72111e-14
8.70778e-14
8.74282e-14
8.71686e-14
8.75668e-14
8.72893e-14
8.76694e-14
8.7365e-14
8.77704e-14
8.74987e-14
8.78513e-14
8.76631e-14
8.78989e-14
8.78297e-14
8.79143e-14
8.8058e-14
8.79785e-14
8.81282e-14
8.80838e-14
8.82161e-14
8.81625e-14
8.82496e-14
8.82384e-14
8.8272e-14
8.82957e-14
8.83699e-14
8.83923e-14
8.84415e-14
8.84235e-14
8.84494e-14
8.84854e-14
6.51362e-14
6.74314e-14
6.51372e-14
6.74316e-14
6.51387e-14
6.7432e-14
6.51413e-14
6.74326e-14
6.51449e-14
6.74334e-14
6.51495e-14
6.74346e-14
6.51552e-14
6.74359e-14
6.51619e-14
6.74376e-14
6.51696e-14
6.74395e-14
6.51784e-14
6.74418e-14
6.51881e-14
6.74443e-14
6.51989e-14
6.74471e-14
6.52106e-14
6.74503e-14
6.52231e-14
6.74539e-14
6.52368e-14
6.74577e-14
6.52514e-14
6.74619e-14
6.52668e-14
6.74664e-14
6.52831e-14
6.74712e-14
6.53003e-14
6.74764e-14
6.53183e-14
6.74821e-14
6.53371e-14
6.74881e-14
6.53568e-14
6.74945e-14
6.53774e-14
6.75011e-14
6.53988e-14
6.75082e-14
6.5421e-14
6.75156e-14
6.5444e-14
6.75234e-14
6.54679e-14
6.75315e-14
6.54924e-14
6.75398e-14
6.55177e-14
6.75485e-14
6.55436e-14
6.75577e-14
6.55704e-14
6.75675e-14
6.55979e-14
6.75775e-14
6.56262e-14
6.75879e-14
6.56551e-14
6.75988e-14
6.56847e-14
6.76098e-14
6.5715e-14
6.76214e-14
6.5746e-14
6.76332e-14
6.57775e-14
6.76455e-14
6.58096e-14
6.76583e-14
6.58421e-14
6.76712e-14
6.58753e-14
6.76844e-14
6.59091e-14
6.76983e-14
6.59433e-14
6.77125e-14
6.59778e-14
6.77276e-14
6.60126e-14
6.7743e-14
6.60479e-14
6.77589e-14
6.6084e-14
6.77751e-14
6.61206e-14
6.77913e-14
6.61572e-14
6.78092e-14
6.61945e-14
6.78282e-14
6.62321e-14
6.78466e-14
6.62704e-14
6.78653e-14
6.63089e-14
6.78851e-14
6.63481e-14
6.79049e-14
6.63877e-14
6.79251e-14
6.64275e-14
6.79467e-14
6.6468e-14
6.79682e-14
6.65085e-14
6.79906e-14
6.65497e-14
6.80137e-14
6.65914e-14
6.80369e-14
6.66333e-14
6.80607e-14
6.66751e-14
6.80858e-14
6.67179e-14
6.81113e-14
6.6761e-14
6.81373e-14
6.68048e-14
6.81634e-14
6.6849e-14
6.81903e-14
6.6893e-14
6.82187e-14
6.69378e-14
6.82473e-14
6.69835e-14
6.8275e-14
6.70295e-14
6.83039e-14
6.70754e-14
6.83347e-14
6.71218e-14
6.83668e-14
6.71686e-14
6.83991e-14
6.72159e-14
6.8431e-14
6.72647e-14
6.84632e-14
6.73135e-14
6.84955e-14
6.73631e-14
6.85313e-14
6.74125e-14
6.85692e-14
6.74643e-14
6.86043e-14
6.75171e-14
6.86393e-14
6.75702e-14
6.86773e-14
6.76237e-14
6.87171e-14
6.76784e-14
6.87563e-14
6.77337e-14
6.87941e-14
6.77902e-14
6.88326e-14
6.78481e-14
6.88749e-14
6.79075e-14
6.892e-14
6.79684e-14
6.89645e-14
6.80289e-14
6.90104e-14
6.80904e-14
6.90572e-14
6.8155e-14
6.91055e-14
6.822e-14
6.91554e-14
6.8285e-14
6.92075e-14
6.83559e-14
6.92592e-14
6.84261e-14
6.93126e-14
6.84971e-14
6.93676e-14
6.8571e-14
6.94237e-14
6.86457e-14
6.94802e-14
6.87206e-14
6.95384e-14
6.87971e-14
6.95963e-14
6.88768e-14
6.96538e-14
6.89568e-14
6.97197e-14
6.90417e-14
6.97867e-14
6.91299e-14
6.98504e-14
6.92156e-14
6.99198e-14
6.93049e-14
6.99964e-14
6.93948e-14
7.00727e-14
6.94883e-14
7.01472e-14
6.9581e-14
7.02245e-14
6.96743e-14
7.03077e-14
6.97762e-14
7.03875e-14
6.98725e-14
7.047e-14
6.99729e-14
7.05538e-14
7.00724e-14
7.06405e-14
7.01745e-14
7.073e-14
7.0279e-14
7.08207e-14
7.03795e-14
7.09194e-14
7.04826e-14
7.10143e-14
7.05883e-14
7.11053e-14
7.06932e-14
7.11976e-14
7.08025e-14
7.12962e-14
7.09058e-14
7.14048e-14
7.10137e-14
7.15111e-14
7.1126e-14
7.16117e-14
7.12393e-14
7.17135e-14
7.13573e-14
7.18166e-14
7.148e-14
7.19244e-14
7.16038e-14
7.20444e-14
7.17288e-14
7.21731e-14
7.18551e-14
7.22921e-14
7.19899e-14
7.24087e-14
7.21261e-14
7.25378e-14
7.22674e-14
7.26684e-14
7.24062e-14
7.27967e-14
7.25504e-14
7.29225e-14
7.27e-14
7.30496e-14
7.28515e-14
7.31779e-14
7.29971e-14
7.33151e-14
7.3133e-14
7.34533e-14
7.32788e-14
7.35888e-14
7.3423e-14
7.37252e-14
7.35734e-14
7.38786e-14
7.37303e-14
7.40292e-14
7.38697e-14
7.4173e-14
7.40117e-14
7.43139e-14
7.41563e-14
7.4456e-14
7.42914e-14
7.46035e-14
7.44497e-14
7.47524e-14
7.46067e-14
7.49028e-14
7.47626e-14
7.50464e-14
7.49258e-14
7.51748e-14
7.50884e-14
7.53045e-14
7.52592e-14
7.54604e-14
7.54133e-14
7.56091e-14
7.55759e-14
7.57593e-14
7.57219e-14
7.58939e-14
7.586e-14
7.60299e-14
7.60155e-14
7.61929e-14
7.61717e-14
7.63489e-14
7.63286e-14
7.64899e-14
7.64867e-14
7.66498e-14
7.66288e-14
7.68119e-14
7.67805e-14
7.69422e-14
7.69077e-14
7.70664e-14
7.70535e-14
7.7219e-14
7.72006e-14
7.73746e-14
7.7349e-14
7.7551e-14
7.74984e-14
7.77231e-14
7.76573e-14
7.78655e-14
7.78084e-14
7.80394e-14
7.79689e-14
7.81931e-14
7.81302e-14
7.83359e-14
7.83013e-14
7.84942e-14
7.84653e-14
7.86859e-14
7.86304e-14
7.88863e-14
7.88137e-14
7.90529e-14
7.89891e-14
7.92127e-14
7.91661e-14
7.93664e-14
7.93538e-14
7.95231e-14
7.95268e-14
7.97266e-14
7.96932e-14
7.99349e-14
7.98517e-14
8.0089e-14
8.002e-14
8.02078e-14
8.02171e-14
8.03087e-14
8.03757e-14
8.04427e-14
8.04969e-14
8.06278e-14
8.06837e-14
8.07967e-14
8.08322e-14
8.09494e-14
8.09776e-14
8.11038e-14
8.11021e-14
8.12441e-14
8.124e-14
8.13542e-14
8.14091e-14
8.15035e-14
8.15757e-14
8.16399e-14
8.17239e-14
8.18146e-14
8.18877e-14
8.19597e-14
8.2034e-14
8.21619e-14
8.21948e-14
8.23378e-14
8.2387e-14
8.25053e-14
8.25441e-14
8.26467e-14
8.27016e-14
8.28297e-14
8.28587e-14
8.30054e-14
8.30152e-14
8.31597e-14
8.31384e-14
8.33435e-14
8.32753e-14
8.34939e-14
8.34249e-14
8.35962e-14
8.35558e-14
8.37675e-14
8.36989e-14
8.38762e-14
8.39054e-14
8.39726e-14
8.40664e-14
8.41342e-14
8.4232e-14
8.43443e-14
8.43997e-14
8.45243e-14
8.46013e-14
8.46602e-14
8.47282e-14
8.47976e-14
8.49425e-14
8.49689e-14
8.51492e-14
8.51708e-14
8.53195e-14
8.53394e-14
8.54893e-14
8.5476e-14
8.55654e-14
8.56083e-14
8.57008e-14
8.57067e-14
8.58985e-14
8.58006e-14
8.59828e-14
8.59417e-14
8.61002e-14
8.61026e-14
8.62183e-14
8.61965e-14
8.63711e-14
8.63146e-14
8.64699e-14
8.64523e-14
8.66005e-14
8.65804e-14
8.6763e-14
8.67e-14
8.68757e-14
8.68345e-14
8.70294e-14
8.69257e-14
8.71461e-14
8.69962e-14
8.7258e-14
8.71275e-14
8.73616e-14
8.7266e-14
8.73964e-14
8.73875e-14
8.74951e-14
8.74789e-14
8.75221e-14
8.75407e-14
8.76086e-14
8.76875e-14
8.76685e-14
8.77825e-14
8.76668e-14
8.78023e-14
8.77299e-14
8.78851e-14
8.79079e-14
8.80334e-14
8.79899e-14
8.81393e-14
8.81012e-14
8.81343e-14
8.81787e-14
8.81854e-14
8.82937e-14
8.82326e-14
8.8333e-14
8.8309e-14
8.83643e-14
8.83697e-14
8.84603e-14
8.84468e-14
8.85298e-14
8.85387e-14
8.8565e-14
8.8547e-14
8.85694e-14
8.85667e-14
8.8483e-14
8.85461e-14
8.86331e-14
8.86619e-14
8.86651e-14
8.87292e-14
8.87249e-14
8.87584e-14
8.877e-14
8.88489e-14
8.88999e-14
8.89633e-14
8.89626e-14
8.90447e-14
8.90822e-14
8.90934e-14
8.91201e-14
8.91463e-14
8.91539e-14
8.92062e-14
8.92012e-14
8.9251e-14
8.92595e-14
8.93058e-14
8.93746e-14
8.93955e-14
8.94784e-14
8.94882e-14
8.95212e-14
8.95576e-14
8.95264e-14
8.95491e-14
8.96096e-14
8.9599e-14
8.96931e-14
8.96735e-14
8.97515e-14
8.9685e-14
8.97912e-14
8.97182e-14
8.98171e-14
8.97749e-14
8.98533e-14
8.97989e-14
8.9838e-14
8.98149e-14
8.98254e-14
8.98499e-14
8.98421e-14
8.98776e-14
8.98244e-14
8.98698e-14
8.98299e-14
8.98905e-14
8.97971e-14
8.9853e-14
8.9757e-14
8.97887e-14
8.97428e-14
8.97259e-14
8.97274e-14
8.97216e-14
8.97061e-14
8.97154e-14
8.96797e-14
8.97102e-14
8.95856e-14
8.97098e-14
8.9573e-14
8.9689e-14
8.95834e-14
8.96766e-14
8.95894e-14
8.97019e-14
8.95554e-14
8.96371e-14
8.95484e-14
8.96431e-14
8.95033e-14
8.96564e-14
8.94652e-14
8.95646e-14
8.94389e-14
8.94953e-14
8.94271e-14
8.94791e-14
8.93968e-14
8.94322e-14
8.93654e-14
8.94191e-14
8.93487e-14
8.93761e-14
8.93325e-14
8.9351e-14
8.9284e-14
8.93421e-14
8.92675e-14
8.93011e-14
8.92673e-14
8.92945e-14
8.92486e-14
8.92879e-14
8.92107e-14
8.92821e-14
8.92036e-14
8.92609e-14
8.92116e-14
8.91895e-14
8.92042e-14
8.91332e-14
8.92003e-14
8.91404e-14
8.91992e-14
8.92295e-14
8.91638e-14
8.92666e-14
8.9143e-14
8.92546e-14
8.91363e-14
8.91939e-14
8.91282e-14
8.91866e-14
8.91186e-14
8.91981e-14
8.91077e-14
8.91942e-14
8.90953e-14
8.91752e-14
8.90813e-14
8.91584e-14
8.90659e-14
8.91613e-14
8.90485e-14
8.91491e-14
8.90291e-14
8.91391e-14
8.90425e-14
8.91138e-14
8.90549e-14
8.90721e-14
8.90323e-14
8.90472e-14
8.90095e-14
8.90483e-14
8.90384e-14
8.90849e-14
8.9049e-14
8.91046e-14
8.90501e-14
8.9099e-14
8.90593e-14
8.91029e-14
8.90681e-14
8.91338e-14
8.9076e-14
8.91309e-14
8.90832e-14
8.91029e-14
8.90904e-14
8.9128e-14
8.90882e-14
8.91712e-14
8.9111e-14
8.91983e-14
8.91152e-14
8.92181e-14
8.9118e-14
8.92311e-14
8.91278e-14
8.92375e-14
8.91363e-14
8.92459e-14
8.91521e-14
8.92648e-14
8.91666e-14
8.92681e-14
8.91627e-14
8.92642e-14
8.91748e-14
8.92703e-14
8.9186e-14
8.92859e-14
8.91877e-14
8.93026e-14
8.91882e-14
8.93034e-14
8.91962e-14
8.92799e-14
8.92032e-14
8.92742e-14
8.92096e-14
8.92775e-14
8.92153e-14
8.92729e-14
8.92288e-14
8.92687e-14
8.92335e-14
8.9273e-14
8.92129e-14
8.92858e-14
8.92082e-14
8.92824e-14
8.92071e-14
8.92836e-14
8.92053e-14
8.92893e-14
8.9203e-14
8.92954e-14
8.92041e-14
8.93062e-14
8.92127e-14
8.93093e-14
8.92168e-14
8.93048e-14
8.92124e-14
8.93007e-14
8.91995e-14
8.9305e-14
8.91903e-14
8.93057e-14
8.91846e-14
8.93029e-14
8.91823e-14
8.93085e-14
8.91796e-14
8.93067e-14
8.91687e-14
8.93092e-14
8.91534e-14
8.93082e-14
8.91415e-14
8.92924e-14
8.91407e-14
8.92809e-14
8.91356e-14
8.92737e-14
8.91264e-14
8.92744e-14
8.91167e-14
8.92792e-14
8.9114e-14
8.92731e-14
8.91109e-14
8.92675e-14
8.91036e-14
8.92624e-14
8.91032e-14
8.92612e-14
8.90988e-14
8.92677e-14
8.90938e-14
8.926e-14
8.90884e-14
8.92493e-14
8.90862e-14
8.9246e-14
8.9087e-14
8.92501e-14
8.90821e-14
8.92492e-14
8.90804e-14
8.92418e-14
8.90747e-14
8.92415e-14
8.90721e-14
8.92483e-14
8.90742e-14
8.9247e-14
8.90725e-14
8.92425e-14
8.90721e-14
8.92417e-14
8.90714e-14
8.92428e-14
8.90686e-14
8.9249e-14
8.9072e-14
8.92474e-14
8.90734e-14
8.92413e-14
8.90745e-14
8.9237e-14
8.90754e-14
8.92376e-14
8.90774e-14
8.92353e-14
8.90793e-14
8.92317e-14
8.90808e-14
8.92299e-14
8.90822e-14
8.92266e-14
8.90833e-14
8.92266e-14
8.90827e-14
8.92252e-14
8.9082e-14
8.92225e-14
8.90825e-14
8.92228e-14
8.90843e-14
8.92247e-14
8.90859e-14
8.92224e-14
8.90859e-14
8.92189e-14
8.90858e-14
8.92175e-14
8.90848e-14
8.92177e-14
8.90858e-14
8.922e-14
8.90839e-14
8.92237e-14
8.90819e-14
8.92234e-14
8.90825e-14
8.92212e-14
8.90823e-14
8.92211e-14
8.90807e-14
8.92211e-14
8.90789e-14
8.92212e-14
8.90764e-14
8.9222e-14
8.90751e-14
8.92215e-14
8.90744e-14
8.92212e-14
8.90742e-14
8.92203e-14
8.90739e-14
8.92181e-14
8.90722e-14
8.92173e-14
8.90705e-14
8.92179e-14
8.90705e-14
8.92179e-14
8.90699e-14
8.92173e-14
8.90685e-14
8.92161e-14
8.90677e-14
8.9215e-14
8.90668e-14
8.92149e-14
8.90662e-14
8.92158e-14
8.90658e-14
8.92174e-14
8.90656e-14
8.92175e-14
8.90647e-14
8.92169e-14
8.90635e-14
8.92174e-14
8.90638e-14
8.92176e-14
8.90637e-14
8.92185e-14
8.90628e-14
8.92188e-14
8.90623e-14
8.92185e-14
8.9062e-14
8.92195e-14
8.90613e-14
8.92217e-14
8.90606e-14
8.92226e-14
8.90605e-14
8.92227e-14
8.90604e-14
8.92244e-14
8.90598e-14
8.92261e-14
8.90599e-14
8.9226e-14
8.90596e-14
8.92258e-14
8.90591e-14
8.9226e-14
8.90591e-14
8.92262e-14
8.90592e-14
8.92263e-14
8.90593e-14
8.92264e-14
8.9059e-14
8.92266e-14
8.90588e-14
8.92267e-14
8.9059e-14
8.92267e-14
8.90592e-14
8.92267e-14
8.90596e-14
8.92268e-14
8.90599e-14
8.92264e-14
8.90604e-14
8.92252e-14
8.90607e-14
8.92244e-14
8.90612e-14
8.92248e-14
8.90619e-14
8.9225e-14
8.9062e-14
8.92249e-14
8.90622e-14
8.92247e-14
8.90624e-14
8.92247e-14
8.90625e-14
8.92251e-14
8.90627e-14
8.92253e-14
8.90625e-14
8.92251e-14
8.90626e-14
8.92253e-14
8.90628e-14
8.92257e-14
8.90631e-14
8.92259e-14
8.9063e-14
8.9226e-14
8.90631e-14
8.92263e-14
8.90631e-14
8.92263e-14
8.90632e-14
8.92261e-14
8.90634e-14
8.92259e-14
8.90633e-14
8.92261e-14
8.90632e-14
8.92261e-14
8.90632e-14
8.92261e-14
8.90632e-14
8.9226e-14
8.90631e-14
8.92263e-14
8.90631e-14
8.92266e-14
8.90633e-14
8.92267e-14
8.90633e-14
8.92267e-14
8.90632e-14
8.92268e-14
8.90631e-14
8.92269e-14
8.9063e-14
8.92271e-14
8.90629e-14
8.92273e-14
8.90629e-14
8.92274e-14
8.90629e-14
8.92276e-14
8.90629e-14
8.92279e-14
8.90628e-14
8.92279e-14
8.90628e-14
8.9228e-14
8.90628e-14
8.92281e-14
8.90629e-14
8.92281e-14
8.9063e-14
8.9228e-14
8.9063e-14
8.9228e-14
8.9063e-14
8.92281e-14
8.90631e-14
8.9228e-14
8.90631e-14
8.9228e-14
8.90632e-14
8.9228e-14
8.90632e-14
8.9228e-14
8.90632e-14
8.92279e-14
8.90632e-14
8.9228e-14
8.90631e-14
8.9228e-14
8.90632e-14
8.9228e-14
8.90632e-14
8.9228e-14
8.86427e-14
8.86488e-14
8.86844e-14
8.86948e-14
8.87302e-14
8.87479e-14
8.87799e-14
8.8756e-14
8.879e-14
8.88105e-14
8.89034e-14
8.89184e-14
8.90145e-14
8.90253e-14
8.90762e-14
8.90796e-14
8.91099e-14
8.91335e-14
8.91923e-14
8.91914e-14
8.92793e-14
8.92481e-14
8.94631e-14
8.93266e-14
8.94696e-14
8.94104e-14
8.95231e-14
8.94577e-14
8.95637e-14
8.9548e-14
8.95822e-14
8.95788e-14
8.96344e-14
8.96404e-14
8.96881e-14
8.97064e-14
8.9739e-14
8.96618e-14
8.97125e-14
8.96628e-14
8.97462e-14
8.97419e-14
8.98355e-14
8.98187e-14
8.98367e-14
8.99551e-14
8.97933e-14
9.00249e-14
8.98418e-14
9.00418e-14
8.98679e-14
8.99991e-14
8.98516e-14
8.99468e-14
8.98263e-14
8.98762e-14
8.97972e-14
8.98115e-14
8.97999e-14
8.97802e-14
8.98699e-14
8.97494e-14
8.97997e-14
8.97087e-14
8.97093e-14
8.96596e-14
8.96878e-14
8.96678e-14
8.95757e-14
8.97049e-14
8.95175e-14
8.97205e-14
8.95709e-14
8.97208e-14
8.95479e-14
8.9635e-14
8.95184e-14
8.96202e-14
8.9481e-14
8.96442e-14
8.94156e-14
8.95631e-14
8.93888e-14
8.94909e-14
8.93876e-14
8.94909e-14
8.93624e-14
8.94806e-14
8.93296e-14
8.93945e-14
8.92755e-14
8.93781e-14
8.92307e-14
8.94176e-14
8.92416e-14
8.93837e-14
8.92276e-14
8.93406e-14
8.92755e-14
8.93546e-14
8.9269e-14
8.93224e-14
8.92264e-14
8.93444e-14
8.91962e-14
8.93041e-14
8.91615e-14
8.92517e-14
8.91567e-14
8.92727e-14
8.9164e-14
8.92835e-14
8.91145e-14
8.93011e-14
8.91262e-14
8.92918e-14
8.91145e-14
8.92711e-14
8.91147e-14
8.92208e-14
8.91112e-14
8.92091e-14
8.90523e-14
8.92179e-14
8.90399e-14
8.91969e-14
8.90572e-14
8.91628e-14
8.90363e-14
8.91488e-14
8.90293e-14
8.91551e-14
8.90188e-14
8.91644e-14
8.90044e-14
8.91599e-14
8.89861e-14
8.91591e-14
8.90161e-14
8.91627e-14
8.90249e-14
8.91178e-14
8.9023e-14
8.9093e-14
8.90198e-14
8.90964e-14
8.90237e-14
8.91102e-14
8.90259e-14
8.91168e-14
8.90262e-14
8.91076e-14
8.90336e-14
8.91087e-14
8.90482e-14
8.90932e-14
8.90618e-14
8.90695e-14
8.90839e-14
8.91068e-14
8.90969e-14
8.91442e-14
8.91092e-14
8.91559e-14
8.91209e-14
8.91419e-14
8.9141e-14
8.91189e-14
8.91355e-14
8.91297e-14
8.91301e-14
8.91571e-14
8.91589e-14
8.91842e-14
8.91702e-14
8.92025e-14
8.91725e-14
8.92293e-14
8.91742e-14
8.92479e-14
8.91752e-14
8.92671e-14
8.91838e-14
8.92699e-14
8.92086e-14
8.92734e-14
8.92243e-14
8.92774e-14
8.92227e-14
8.92818e-14
8.92291e-14
8.92867e-14
8.92351e-14
8.93005e-14
8.92574e-14
8.92981e-14
8.92543e-14
8.93129e-14
8.92509e-14
8.93032e-14
8.92556e-14
8.93022e-14
8.92395e-14
8.93099e-14
8.92312e-14
8.93058e-14
8.92227e-14
8.93063e-14
8.92096e-14
8.93196e-14
8.9196e-14
8.93376e-14
8.91896e-14
8.93361e-14
8.91946e-14
8.93396e-14
8.91746e-14
8.93439e-14
8.91618e-14
8.93412e-14
8.91521e-14
8.93473e-14
8.91454e-14
8.93545e-14
8.91377e-14
8.93626e-14
8.9129e-14
8.93718e-14
8.91154e-14
8.93705e-14
8.91084e-14
8.93703e-14
8.91005e-14
8.93752e-14
8.91028e-14
8.93697e-14
8.90966e-14
8.93693e-14
8.90969e-14
8.93662e-14
8.91001e-14
8.9353e-14
8.91023e-14
8.93445e-14
8.91075e-14
8.93406e-14
8.91119e-14
8.93413e-14
8.91156e-14
8.93354e-14
8.91188e-14
8.93231e-14
8.91249e-14
8.93187e-14
8.9127e-14
8.9322e-14
8.91252e-14
8.93258e-14
8.91264e-14
8.93198e-14
8.91289e-14
8.93108e-14
8.91276e-14
8.93093e-14
8.91277e-14
8.9315e-14
8.91258e-14
8.93144e-14
8.91269e-14
8.93109e-14
8.91211e-14
8.93063e-14
8.91233e-14
8.93053e-14
8.91268e-14
8.93015e-14
8.91187e-14
8.92964e-14
8.91136e-14
8.92997e-14
8.91162e-14
8.93018e-14
8.91154e-14
8.92994e-14
8.91144e-14
8.92959e-14
8.91116e-14
8.92942e-14
8.91116e-14
8.92928e-14
8.91145e-14
8.92887e-14
8.91156e-14
8.92879e-14
8.9115e-14
8.92888e-14
8.91143e-14
8.92885e-14
8.91148e-14
8.92914e-14
8.91151e-14
8.9293e-14
8.91139e-14
8.92934e-14
8.91111e-14
8.92926e-14
8.91109e-14
8.9292e-14
8.91092e-14
8.92903e-14
8.91073e-14
8.92901e-14
8.9106e-14
8.92902e-14
8.91052e-14
8.92897e-14
8.9105e-14
8.92881e-14
8.91026e-14
8.92887e-14
8.91008e-14
8.92887e-14
8.91002e-14
8.9287e-14
8.91014e-14
8.92861e-14
8.91012e-14
8.9284e-14
8.91009e-14
8.9284e-14
8.91011e-14
8.92835e-14
8.91025e-14
8.92819e-14
8.91019e-14
8.92816e-14
8.91018e-14
8.92828e-14
8.91016e-14
8.92815e-14
8.9102e-14
8.92804e-14
8.91023e-14
8.92793e-14
8.91026e-14
8.9279e-14
8.91014e-14
8.92794e-14
8.91012e-14
8.9279e-14
8.91012e-14
8.92783e-14
8.91015e-14
8.92774e-14
8.91013e-14
8.92759e-14
8.91008e-14
8.92738e-14
8.91002e-14
8.92731e-14
8.91003e-14
8.92725e-14
8.91002e-14
8.92713e-14
8.91005e-14
8.92694e-14
8.91007e-14
8.92686e-14
8.91002e-14
8.92682e-14
8.90989e-14
8.92679e-14
8.90986e-14
8.92676e-14
8.90983e-14
8.9267e-14
8.90987e-14
8.92661e-14
8.90987e-14
8.92649e-14
8.90988e-14
8.92646e-14
8.90991e-14
8.9264e-14
8.90989e-14
8.92632e-14
8.90989e-14
8.92625e-14
8.90993e-14
8.92618e-14
8.90993e-14
8.92617e-14
8.90994e-14
8.92617e-14
8.90993e-14
8.92614e-14
8.90996e-14
8.9261e-14
8.90997e-14
8.92613e-14
8.9099e-14
8.92618e-14
8.9099e-14
8.9262e-14
8.9099e-14
8.92614e-14
8.90992e-14
8.92612e-14
8.90994e-14
8.92614e-14
8.90989e-14
8.92619e-14
8.9099e-14
8.92624e-14
8.90986e-14
8.92626e-14
8.90983e-14
8.92627e-14
8.90985e-14
8.9263e-14
8.90988e-14
8.92637e-14
8.90987e-14
8.92638e-14
8.90985e-14
8.92636e-14
8.90985e-14
8.92634e-14
8.90985e-14
8.92633e-14
8.90984e-14
8.92634e-14
8.90982e-14
8.92635e-14
8.90984e-14
8.92635e-14
8.90984e-14
8.92633e-14
8.90981e-14
8.92632e-14
8.90979e-14
8.92631e-14
8.90979e-14
8.9263e-14
8.90979e-14
8.92631e-14
8.90979e-14
8.92632e-14
8.90977e-14
8.92633e-14
8.90975e-14
8.92634e-14
8.90977e-14
8.92632e-14
8.90978e-14
8.92631e-14
8.9098e-14
8.92631e-14
8.9098e-14
8.92632e-14
8.90981e-14
8.92631e-14
8.90982e-14
8.92631e-14
8.90981e-14
8.92632e-14
8.90982e-14
8.92632e-14
8.90983e-14
8.92631e-14
8.90983e-14
8.92631e-14
8.90983e-14
8.92632e-14
8.90983e-14
8.92632e-14
8.90984e-14
8.92631e-14
8.90983e-14
8.92631e-14
8.90983e-14
8.92631e-14
8.90984e-14
8.92631e-14
8.90985e-14
8.9263e-14
8.90986e-14
8.9263e-14
8.90985e-14
8.9263e-14
8.90985e-14
8.9263e-14
8.90985e-14
8.9263e-14
8.90986e-14
8.9263e-14
8.90986e-14
8.9263e-14
8.90986e-14
8.9263e-14
)
;

boundaryField
{
    walls
    {
        type            zeroGradient;
    }
    inlet
    {
        type            cyclic;
    }
    outlet
    {
        type            cyclic;
    }
    sides
    {
        type            empty;
    }
}


// ************************************************************************* //
