/*--------------------------------*- C++ -*----------------------------------*\
| =========                 |                                                 |
| \\      /  F ield         | OpenFOAM: The Open Source CFD Toolbox           |
|  \\    /   O peration     | Version:  v2106                                 |
|   \\  /    A nd           | Website:  www.openfoam.com                      |
|    \\/     M anipulation  |                                                 |
\*---------------------------------------------------------------------------*/
FoamFile
{
    version     2.0;
    format      ascii;
    class       volScalarField;
    object      T;
}
// * * * * * * * * * * * * * * * * * * * * * * * * * * * * * * * * * * * * * //
// need to be non dimensional scalar
dimensions      [0 0 0 1 0 0 0];

internalField   uniform 0;

boundaryField
{
    inlet
    {
        type            cyclic;
    }

    outlet
    {
        type            cyclic;
    }

    walls
    {
        type            fixedValue;
        value           uniform 0;
    }

    sides
    {
        type            empty;
    }
}

// ************************************************************************* //
