/*--------------------------------*- C++ -*----------------------------------*\
| =========                 |                                                 |
| \\      /  F ield         | OpenFOAM: The Open Source CFD Toolbox           |
|  \\    /   O peration     | Version:  2106                                  |
|   \\  /    A nd           | Website:  www.openfoam.com                      |
|    \\/     M anipulation  |                                                 |
\*---------------------------------------------------------------------------*/
FoamFile
{
    version     2.0;
    format      ascii;
    arch        "LSB;label=32;scalar=64";
    class       volVectorField;
    location    "10000";
    object      U;
}
// * * * * * * * * * * * * * * * * * * * * * * * * * * * * * * * * * * * * * //

dimensions      [0 1 -1 0 0 0 0];

internalField   nonuniform List<vector> 
2000
(
(0.00120345 -3.51291e-16 -2.10664e-17)
(0.00120345 1.9488e-19 -2.66203e-18)
(0.00363235 -3.75741e-15 -9.2351e-17)
(0.00363235 -1.0629e-18 -9.18985e-18)
(0.00610613 -2.55574e-15 -1.00227e-16)
(0.00610613 -1.6684e-18 -9.52548e-18)
(0.00862562 -2.55538e-15 -1.02381e-16)
(0.00862562 -2.61895e-18 -9.866e-18)
(0.0111916 -2.52682e-15 -1.08356e-16)
(0.0111916 -3.59387e-18 -1.02111e-17)
(0.013805 -2.52855e-15 -1.14729e-16)
(0.013805 -4.5996e-18 -1.05605e-17)
(0.0164667 -2.52901e-15 -1.20687e-16)
(0.0164667 -5.62225e-18 -1.09136e-17)
(0.0191775 -2.52633e-15 -1.26776e-16)
(0.0191775 -6.65884e-18 -1.12699e-17)
(0.0219384 -2.52386e-15 -1.33186e-16)
(0.0219384 -7.73965e-18 -1.16289e-17)
(0.0247502 -2.52202e-15 -1.39899e-16)
(0.0247502 -8.85178e-18 -1.19908e-17)
(0.0276139 -2.52026e-15 -1.46899e-16)
(0.0276139 -9.99377e-18 -1.23547e-17)
(0.0305304 -2.51841e-15 -1.54192e-16)
(0.0305304 -1.1153e-17 -1.27203e-17)
(0.0335008 -2.51647e-15 -1.61791e-16)
(0.0335008 -1.23494e-17 -1.30877e-17)
(0.0365259 -2.51443e-15 -1.69706e-16)
(0.0365259 -1.36089e-17 -1.34554e-17)
(0.0396068 -2.51232e-15 -1.77949e-16)
(0.0396068 -1.48448e-17 -1.38226e-17)
(0.0427445 -2.51022e-15 -1.86532e-16)
(0.0427445 -1.61254e-17 -1.56053e-17)
(0.04594 -2.50809e-15 -1.95471e-16)
(0.04594 -1.74585e-17 -1.77296e-17)
(0.0491945 -2.50591e-15 -2.04732e-16)
(0.0491945 -1.87604e-17 -1.81677e-17)
(0.0525088 -2.50366e-15 -2.1362e-16)
(0.0525088 -2.01226e-17 -1.86037e-17)
(0.0558843 -2.5013e-15 -2.24189e-16)
(0.0558843 -2.15393e-17 -1.90358e-17)
(0.0593218 -2.4989e-15 -2.35192e-16)
(0.0593218 -2.29207e-17 -1.94634e-17)
(0.0628227 -2.49649e-15 -2.46647e-16)
(0.0628227 -2.43371e-17 -1.98859e-17)
(0.0663879 -2.49403e-15 -2.58571e-16)
(0.0663879 -2.57895e-17 -2.02995e-17)
(0.0700187 -2.49153e-15 -2.70982e-16)
(0.0700187 -2.71755e-17 -2.07061e-17)
(0.0737163 -2.48905e-15 -2.83898e-16)
(0.0737163 -2.85996e-17 -2.11036e-17)
(0.0774818 -2.48647e-15 -2.97339e-16)
(0.0774818 -3.01405e-17 -2.14933e-17)
(0.0813165 -2.48377e-15 -3.11324e-16)
(0.0813165 -3.17656e-17 -2.18713e-17)
(0.0852216 -2.48103e-15 -3.25874e-16)
(0.0852216 -3.34211e-17 -2.22336e-17)
(0.0891983 -2.47811e-15 -3.38286e-16)
(0.0891983 -3.51164e-17 -2.25815e-17)
(0.093248 -2.47495e-15 -3.42383e-16)
(0.093248 -3.70053e-17 -2.29146e-17)
(0.0973718 -2.47168e-15 -3.47067e-16)
(0.0973718 -3.88541e-17 -2.32313e-17)
(0.101571 -2.46854e-15 -3.51856e-16)
(0.101571 -4.05863e-17 -2.35267e-17)
(0.105847 -2.46541e-15 -3.56749e-16)
(0.105847 -4.2341e-17 -2.38034e-17)
(0.110202 -2.46215e-15 -3.61751e-16)
(0.110202 -4.41429e-17 -2.406e-17)
(0.114635 -2.45878e-15 -3.66866e-16)
(0.114635 -4.59653e-17 -2.42906e-17)
(0.11915 -2.4552e-15 -3.72103e-16)
(0.11915 -4.79254e-17 -2.44984e-17)
(0.123747 -2.45152e-15 -3.77473e-16)
(0.123747 -5.00131e-17 -2.46775e-17)
(0.128427 -2.4478e-15 -3.82973e-16)
(0.128427 -5.20611e-17 -2.48215e-17)
(0.133193 -2.44416e-15 -3.88612e-16)
(0.133193 -5.4193e-17 -2.49339e-17)
(0.138044 -2.44052e-15 -3.94387e-16)
(0.138044 -5.6269e-17 -2.50094e-17)
(0.142983 -2.43684e-15 -4.00309e-16)
(0.142983 -5.83104e-17 -2.50521e-17)
(0.148011 -2.43306e-15 -4.06382e-16)
(0.148011 -6.0518e-17 -2.50565e-17)
(0.15313 -2.42916e-15 -4.126e-16)
(0.15313 -6.27072e-17 -2.50122e-17)
(0.15834 -2.42511e-15 -4.1897e-16)
(0.15834 -6.50575e-17 -2.49411e-17)
(0.163643 -2.42076e-15 -4.25504e-16)
(0.163643 -6.74566e-17 -2.48237e-17)
(0.16904 -2.41634e-15 -4.32206e-16)
(0.16904 -6.99217e-17 -2.46599e-17)
(0.174532 -2.41196e-15 -4.39069e-16)
(0.174532 -7.24822e-17 -2.44468e-17)
(0.180121 -2.40789e-15 -4.461e-16)
(0.180121 -7.46837e-17 -2.41755e-17)
(0.185807 -2.40383e-15 -4.53292e-16)
(0.185807 -7.65835e-17 -2.3877e-17)
(0.191591 -2.39946e-15 -4.60643e-16)
(0.191591 -7.88619e-17 -2.35452e-17)
(0.197475 -2.39479e-15 -4.68134e-16)
(0.197475 -8.14866e-17 -2.31306e-17)
(0.203459 -2.38979e-15 -4.75793e-16)
(0.203459 -8.38991e-17 -2.26661e-17)
(0.209543 -2.38471e-15 -4.83606e-16)
(0.209543 -8.66244e-17 -2.21658e-17)
(0.215729 -2.37937e-15 -4.91559e-16)
(0.215729 -8.97855e-17 -2.15746e-17)
(0.222015 -2.37382e-15 -4.99665e-16)
(0.222015 -9.27703e-17 -2.09212e-17)
(0.228403 -2.36864e-15 -5.07891e-16)
(0.228403 -9.53009e-17 -2.02391e-17)
(0.234893 -2.36375e-15 -5.16189e-16)
(0.234893 -9.7839e-17 -1.94937e-17)
(0.241483 -2.35844e-15 -5.24591e-16)
(0.241483 -1.00742e-16 -1.9014e-17)
(0.248173 -2.35268e-15 -5.33085e-16)
(0.248173 -1.04146e-16 -1.86272e-17)
(0.254963 -2.3463e-15 -5.41634e-16)
(0.254963 -1.08089e-16 -1.82152e-17)
(0.26185 -2.33952e-15 -5.50241e-16)
(0.26185 -1.12075e-16 -1.77801e-17)
(0.268833 -2.33293e-15 -5.58865e-16)
(0.268833 -1.15211e-16 -1.73518e-17)
(0.275911 -2.32705e-15 -5.67508e-16)
(0.275911 -1.18067e-16 -1.6875e-17)
(0.28308 -2.32101e-15 -5.76097e-16)
(0.28308 -1.216e-16 -1.63387e-17)
(0.290339 -2.3141e-15 -5.84585e-16)
(0.290339 -1.2498e-16 -1.57952e-17)
(0.297683 -2.30646e-15 -5.9296e-16)
(0.297683 -1.28438e-16 -1.525e-17)
(0.305109 -2.29859e-15 -6.01222e-16)
(0.305109 -1.32616e-16 -1.47262e-17)
(0.312613 -2.29086e-15 -6.09329e-16)
(0.312613 -1.36756e-16 -1.41655e-17)
(0.320191 -2.28278e-15 -6.17186e-16)
(0.320191 -1.40662e-16 -1.35517e-17)
(0.327838 -2.27542e-15 -6.24836e-16)
(0.327838 -1.44626e-16 -1.29255e-17)
(0.335548 -2.26875e-15 -6.32183e-16)
(0.335548 -1.48292e-16 -1.2351e-17)
(0.343316 -2.26161e-15 -6.39217e-16)
(0.343316 -1.51512e-16 -1.23737e-17)
(0.351135 -2.25416e-15 -6.45931e-16)
(0.351135 -1.55782e-16 -1.34841e-17)
(0.359001 -2.24644e-15 -6.52198e-16)
(0.359001 -1.61084e-16 -1.46292e-17)
(0.366906 -2.23837e-15 -6.58012e-16)
(0.366906 -1.65342e-16 -1.59285e-17)
(0.374843 -2.22992e-15 -6.63466e-16)
(0.374843 -1.69884e-16 -1.73124e-17)
(0.382806 -2.22053e-15 -6.68507e-16)
(0.382806 -1.75044e-16 -1.86567e-17)
(0.390788 -2.2117e-15 -6.73173e-16)
(0.390788 -1.80108e-16 -2.00253e-17)
(0.398783 -2.20387e-15 -6.77319e-16)
(0.398783 -1.83706e-16 -2.13575e-17)
(0.406782 -2.19543e-15 -6.80739e-16)
(0.406782 -1.87244e-16 -2.28476e-17)
(0.414781 -2.18654e-15 -6.83651e-16)
(0.414781 -1.92315e-16 -2.43581e-17)
(0.422771 -2.17755e-15 -6.86087e-16)
(0.422771 -1.9539e-16 -2.59093e-17)
(0.430747 -2.16741e-15 -6.8803e-16)
(0.430747 -1.99892e-16 -2.74238e-17)
(0.438703 -2.15691e-15 -6.89453e-16)
(0.438703 -2.06144e-16 -2.9029e-17)
(0.446633 -2.14715e-15 -6.90343e-16)
(0.446633 -2.10933e-16 -3.09554e-17)
(0.454531 -2.13696e-15 -6.91043e-16)
(0.454531 -2.15683e-16 -3.27768e-17)
(0.462392 -2.12721e-15 -6.9132e-16)
(0.462392 -2.21792e-16 -3.43786e-17)
(0.470212 -2.11872e-15 -6.91105e-16)
(0.470212 -2.27574e-16 -3.62842e-17)
(0.477986 -2.10889e-15 -6.90561e-16)
(0.477986 -2.31686e-16 -3.82738e-17)
(0.485709 -2.09947e-15 -6.89796e-16)
(0.485709 -2.37188e-16 -4.00532e-17)
(0.49338 -2.09171e-15 -6.88424e-16)
(0.49338 -2.42634e-16 -4.20074e-17)
(0.500993 -2.0827e-15 -6.86624e-16)
(0.500993 -2.45933e-16 -4.39329e-17)
(0.508546 -2.07319e-15 -6.8458e-16)
(0.508546 -2.50955e-16 -4.58804e-17)
(0.516037 -2.06429e-15 -6.82073e-16)
(0.516037 -2.55446e-16 -4.78505e-17)
(0.523464 -2.05515e-15 -6.7899e-16)
(0.523464 -2.59268e-16 -4.99833e-17)
(0.530824 -2.0461e-15 -6.75716e-16)
(0.530824 -2.64507e-16 -5.22264e-17)
(0.538117 -2.03659e-15 -6.7233e-16)
(0.538117 -2.70347e-16 -5.4405e-17)
(0.54534 -2.02717e-15 -6.68727e-16)
(0.54534 -2.75701e-16 -5.65438e-17)
(0.552494 -2.0209e-15 -6.64811e-16)
(0.552494 -2.79486e-16 -5.85649e-17)
(0.559576 -2.0144e-15 -6.6019e-16)
(0.559576 -2.8268e-16 -6.10563e-17)
(0.566588 -2.00551e-15 -6.55593e-16)
(0.566588 -2.86454e-16 -6.36969e-17)
(0.573528 -1.99664e-15 -6.5074e-16)
(0.573528 -2.8822e-16 -6.57259e-17)
(0.580396 -1.98815e-15 -6.4539e-16)
(0.580396 -2.92211e-16 -6.79789e-17)
(0.587194 -1.97819e-15 -6.39873e-16)
(0.587194 -2.99905e-16 -7.1012e-17)
(0.593919 -1.97011e-15 -6.34752e-16)
(0.593919 -3.05347e-16 -7.36839e-17)
(0.600575 -1.96301e-15 -6.29504e-16)
(0.600575 -3.0939e-16 -7.68131e-17)
(0.60716 -1.95486e-15 -6.24756e-16)
(0.60716 -3.14608e-16 -7.94711e-17)
(0.613675 -1.94724e-15 -6.19719e-16)
(0.613675 -3.20497e-16 -8.23614e-17)
(0.620122 -1.93826e-15 -6.144e-16)
(0.620122 -3.24991e-16 -8.58092e-17)
(0.6265 -1.92775e-15 -6.09773e-16)
(0.6265 -3.27621e-16 -8.86766e-17)
(0.632812 -1.9164e-15 -6.04817e-16)
(0.632812 -3.29821e-16 -9.20674e-17)
(0.639057 -1.90578e-15 -5.9985e-16)
(0.639057 -3.35314e-16 -9.58962e-17)
(0.645237 -1.89466e-15 -5.95316e-16)
(0.645237 -3.39468e-16 -9.93571e-17)
(0.651353 -1.88424e-15 -5.90693e-16)
(0.651353 -3.44471e-16 -1.0275e-16)
(0.657406 -1.87327e-15 -5.85732e-16)
(0.657406 -3.51644e-16 -1.06231e-16)
(0.663397 -1.86226e-15 -5.80619e-16)
(0.663397 -3.55919e-16 -1.10396e-16)
(0.669326 -1.8507e-15 -5.75772e-16)
(0.669326 -3.59551e-16 -1.14148e-16)
(0.675197 -1.83649e-15 -5.71255e-16)
(0.675197 -3.6664e-16 -1.17825e-16)
(0.681008 -1.82257e-15 -5.66247e-16)
(0.681008 -3.70976e-16 -1.2127e-16)
(0.686763 -1.8063e-15 -5.60402e-16)
(0.686763 -3.75929e-16 -1.27126e-16)
(0.692461 -1.79003e-15 -5.5643e-16)
(0.692461 -3.84128e-16 -1.3162e-16)
(0.698104 -1.77781e-15 -5.52906e-16)
(0.698104 -3.91826e-16 -1.35523e-16)
(0.703693 -1.76569e-15 -5.47996e-16)
(0.703693 -3.98719e-16 -1.4006e-16)
(0.709229 -1.7571e-15 -5.43135e-16)
(0.709229 -4.10475e-16 -1.45223e-16)
(0.714713 -1.74385e-15 -5.38439e-16)
(0.714713 -4.1968e-16 -1.50104e-16)
(0.720147 -1.72892e-15 -5.34359e-16)
(0.720147 -4.27881e-16 -1.5509e-16)
(0.725531 -1.71963e-15 -5.29853e-16)
(0.725531 -4.33637e-16 -1.59692e-16)
(0.730867 -1.70775e-15 -5.24818e-16)
(0.730867 -4.38341e-16 -1.64227e-16)
(0.736155 -1.69562e-15 -5.19087e-16)
(0.736155 -4.51669e-16 -1.69335e-16)
(0.741398 -1.68534e-15 -5.13138e-16)
(0.741398 -4.57677e-16 -1.7519e-16)
(0.746595 -1.67688e-15 -5.07126e-16)
(0.746595 -4.64645e-16 -1.81149e-16)
(0.751747 -1.65757e-15 -5.01717e-16)
(0.751747 -4.79079e-16 -1.86434e-16)
(0.756857 -1.63829e-15 -4.98032e-16)
(0.756857 -4.92975e-16 -1.92874e-16)
(0.761924 -1.62138e-15 -4.94887e-16)
(0.761924 -5.03066e-16 -1.99894e-16)
(0.76695 -1.60202e-15 -4.94129e-16)
(0.76695 -5.13129e-16 -2.06735e-16)
(0.771935 -1.58524e-15 -4.94214e-16)
(0.771935 -5.27027e-16 -2.12973e-16)
(0.776881 -1.57273e-15 -4.96123e-16)
(0.776881 -5.35286e-16 -2.19823e-16)
(0.781789 -1.56704e-15 -4.97489e-16)
(0.781789 -5.35711e-16 -2.26269e-16)
(0.786658 -1.56086e-15 -4.98813e-16)
(0.786658 -5.31905e-16 -2.3151e-16)
(0.791491 -1.55148e-15 -4.98424e-16)
(0.791491 -5.37315e-16 -2.37834e-16)
(0.796288 -1.5405e-15 -4.97774e-16)
(0.796288 -5.39044e-16 -2.4617e-16)
(0.801049 -1.53229e-15 -4.97055e-16)
(0.801049 -5.36953e-16 -2.54675e-16)
(0.805776 -1.52489e-15 -4.96431e-16)
(0.805776 -5.45819e-16 -2.61708e-16)
(0.810469 -1.51733e-15 -4.95115e-16)
(0.810469 -5.49917e-16 -2.68497e-16)
(0.815129 -1.50634e-15 -4.93171e-16)
(0.815129 -5.57626e-16 -2.77889e-16)
(0.819757 -1.49368e-15 -4.91882e-16)
(0.819757 -5.66543e-16 -2.86687e-16)
(0.824354 -1.48186e-15 -4.90747e-16)
(0.824354 -5.74419e-16 -2.93043e-16)
(0.828919 -1.47375e-15 -4.88248e-16)
(0.828919 -5.80815e-16 -3.01476e-16)
(0.833454 -1.46364e-15 -4.84535e-16)
(0.833454 -5.84826e-16 -3.0928e-16)
(0.83796 -1.44402e-15 -4.81469e-16)
(0.83796 -5.93119e-16 -3.15681e-16)
(0.842437 -1.42702e-15 -4.77566e-16)
(0.842437 -5.9981e-16 -3.24784e-16)
(0.846885 -1.42269e-15 -4.73077e-16)
(0.846885 -6.04477e-16 -3.34184e-16)
(0.851306 -1.42038e-15 -4.63925e-16)
(0.851306 -6.18137e-16 -3.43157e-16)
(0.8557 -1.41356e-15 -4.53415e-16)
(0.8557 -6.36267e-16 -3.55299e-16)
(0.860066 -1.40013e-15 -4.46847e-16)
(0.860066 -6.45799e-16 -3.52384e-16)
(0.864407 -1.38481e-15 -4.43485e-16)
(0.864407 -6.60996e-16 -3.49859e-16)
(0.868722 -1.3721e-15 -4.41153e-16)
(0.868722 -6.70642e-16 -3.46703e-16)
(0.873012 -1.35907e-15 -4.38131e-16)
(0.873012 -6.76429e-16 -3.40419e-16)
(0.877278 -1.34986e-15 -4.32986e-16)
(0.877278 -6.85108e-16 -3.3727e-16)
(0.881519 -1.33996e-15 -4.25517e-16)
(0.881519 -6.88739e-16 -3.35041e-16)
(0.885737 -1.32831e-15 -4.19061e-16)
(0.885737 -7.03604e-16 -3.29474e-16)
(0.889931 -1.31623e-15 -4.14649e-16)
(0.889931 -7.03721e-16 -3.20041e-16)
(0.894102 -1.30563e-15 -4.06971e-16)
(0.894102 -7.0295e-16 -3.15011e-16)
(0.898251 -1.29391e-15 -3.99115e-16)
(0.898251 -7.11913e-16 -3.10888e-16)
(0.902378 -1.28122e-15 -3.92918e-16)
(0.902378 -7.12007e-16 -3.04324e-16)
(0.906483 -1.27125e-15 -3.84219e-16)
(0.906483 -7.16862e-16 -3.08368e-16)
(0.910566 -1.26179e-15 -3.78454e-16)
(0.910566 -7.24114e-16 -3.15799e-16)
(0.914629 -1.25798e-15 -3.74216e-16)
(0.914629 -7.28367e-16 -3.19088e-16)
(0.918671 -1.24517e-15 -3.71787e-16)
(0.918671 -7.32229e-16 -3.1531e-16)
(0.922692 -1.22947e-15 -3.69466e-16)
(0.922692 -7.39353e-16 -3.19062e-16)
(0.926693 -1.22308e-15 -3.68994e-16)
(0.926693 -7.45764e-16 -3.18463e-16)
(0.930675 -1.20488e-15 -3.69346e-16)
(0.930675 -7.41533e-16 -3.16701e-16)
(0.934636 -1.17758e-15 -3.69425e-16)
(0.934636 -7.34565e-16 -3.22821e-16)
(0.938579 -1.18332e-15 -3.69419e-16)
(0.938579 -7.32372e-16 -3.31927e-16)
(0.942502 -1.16325e-15 -3.66959e-16)
(0.942502 -7.37347e-16 -3.46342e-16)
(0.946406 -1.16252e-15 -3.70644e-16)
(0.946406 -7.44316e-16 -3.50518e-16)
(0.950291 -1.15366e-15 -3.70977e-16)
(0.950291 -7.48148e-16 -3.57782e-16)
(0.954158 -1.13826e-15 -3.71083e-16)
(0.954158 -7.48785e-16 -3.61988e-16)
(0.958006 -1.12359e-15 -3.72654e-16)
(0.958006 -7.5885e-16 -3.6426e-16)
(0.961836 -1.13351e-15 -3.67979e-16)
(0.961836 -7.55882e-16 -3.75155e-16)
(0.965647 -1.0912e-15 -3.60064e-16)
(0.965647 -7.54319e-16 -3.84018e-16)
(0.969441 -1.05983e-15 -3.61513e-16)
(0.969441 -7.66162e-16 -3.9237e-16)
(0.973216 -1.04395e-15 -3.66347e-16)
(0.973216 -7.76028e-16 -3.97293e-16)
(0.976973 -1.02513e-15 -3.78307e-16)
(0.976973 -8.00759e-16 -3.92112e-16)
(0.980713 -1.01545e-15 -3.78391e-16)
(0.980713 -8.08933e-16 -3.95321e-16)
(0.984435 -1.00019e-15 -3.67819e-16)
(0.984435 -8.29523e-16 -4.08071e-16)
(0.988138 -9.87905e-16 -3.82005e-16)
(0.988138 -8.60777e-16 -4.06801e-16)
(0.991824 -9.83254e-16 -3.82278e-16)
(0.991824 -8.65994e-16 -4.05404e-16)
(0.995492 -9.73367e-16 -3.79763e-16)
(0.995492 -8.78652e-16 -4.14437e-16)
(0.999143 -9.71451e-16 -3.70593e-16)
(0.999143 -8.87802e-16 -4.13997e-16)
(1.00277 -9.66126e-16 -3.6609e-16)
(1.00277 -8.90221e-16 -4.0603e-16)
(1.00639 -9.5232e-16 -3.68278e-16)
(1.00639 -8.97958e-16 -4.10277e-16)
(1.00998 -9.3635e-16 -3.74444e-16)
(1.00998 -9.04125e-16 -4.01593e-16)
(1.01356 -9.35208e-16 -3.79899e-16)
(1.01356 -9.06219e-16 -4.07463e-16)
(1.01712 -9.2361e-16 -3.77798e-16)
(1.01712 -9.20415e-16 -4.13753e-16)
(1.02066 -9.28517e-16 -3.73866e-16)
(1.02066 -9.16055e-16 -4.16734e-16)
(1.02418 -9.1825e-16 -3.78631e-16)
(1.02418 -9.20034e-16 -4.13798e-16)
(1.02769 -9.01906e-16 -3.99501e-16)
(1.02769 -9.30439e-16 -4.1395e-16)
(1.03117 -8.86773e-16 -3.9997e-16)
(1.03117 -9.03166e-16 -4.06924e-16)
(1.03463 -8.73836e-16 -4.0483e-16)
(1.03463 -8.90301e-16 -4.16954e-16)
(1.03808 -8.61004e-16 -4.16705e-16)
(1.03808 -8.66548e-16 -4.26148e-16)
(1.0415 -8.60484e-16 -4.27423e-16)
(1.0415 -8.34754e-16 -4.30246e-16)
(1.0449 -8.59117e-16 -4.09939e-16)
(1.0449 -8.19872e-16 -4.4962e-16)
(1.04828 -8.5515e-16 -4.08432e-16)
(1.04828 -8.10924e-16 -4.54364e-16)
(1.05164 -8.47542e-16 -4.01409e-16)
(1.05164 -7.70943e-16 -4.53844e-16)
(1.05498 -8.20709e-16 -3.89752e-16)
(1.05498 -7.53468e-16 -4.63963e-16)
(1.0583 -8.14516e-16 -3.90347e-16)
(1.0583 -7.74717e-16 -4.58588e-16)
(1.06159 -7.75547e-16 -3.97967e-16)
(1.06159 -7.73852e-16 -4.58983e-16)
(1.06486 -7.50573e-16 -4.01917e-16)
(1.06486 -7.67073e-16 -4.49158e-16)
(1.0681 -7.42589e-16 -3.99064e-16)
(1.0681 -7.51854e-16 -4.6153e-16)
(1.07132 -7.27361e-16 -4.04393e-16)
(1.07132 -7.2447e-16 -4.72431e-16)
(1.07451 -7.38792e-16 -4.28322e-16)
(1.07451 -7.36954e-16 -4.54829e-16)
(1.07768 -7.44697e-16 -3.94684e-16)
(1.07768 -7.64659e-16 -4.4305e-16)
(1.08082 -7.44439e-16 -4.08609e-16)
(1.08082 -7.55255e-16 -4.22649e-16)
(1.08393 -7.27853e-16 -4.47659e-16)
(1.08393 -7.70034e-16 -4.4138e-16)
(1.08701 -7.2158e-16 -4.64876e-16)
(1.08701 -7.49346e-16 -4.44696e-16)
(1.09006 -7.30707e-16 -4.69906e-16)
(1.09006 -7.03058e-16 -4.06583e-16)
(1.09307 -7.29403e-16 -4.33522e-16)
(1.09307 -7.21042e-16 -3.8659e-16)
(1.09606 -7.2338e-16 -4.37323e-16)
(1.09606 -7.42397e-16 -3.77109e-16)
(1.09901 -7.66023e-16 -4.66841e-16)
(1.09901 -7.60883e-16 -3.55034e-16)
(1.10192 -7.20976e-16 -4.26794e-16)
(1.10192 -7.57649e-16 -3.19247e-16)
(1.1048 -7.13897e-16 -4.31537e-16)
(1.1048 -7.11664e-16 -3.47538e-16)
(1.10764 -7.28154e-16 -4.15151e-16)
(1.10764 -6.92815e-16 -3.53571e-16)
(1.11044 -7.20364e-16 -4.14117e-16)
(1.11044 -6.92589e-16 -3.40204e-16)
(1.11319 -7.00225e-16 -3.89774e-16)
(1.11319 -7.18483e-16 -3.07922e-16)
(1.1159 -7.0007e-16 -3.77451e-16)
(1.1159 -7.62312e-16 -3.05112e-16)
(1.11856 -6.80152e-16 -4.20953e-16)
(1.11856 -7.42097e-16 -2.7395e-16)
(1.12117 -6.64129e-16 -4.33715e-16)
(1.12117 -6.5295e-16 -2.82548e-16)
(1.12373 -7.44803e-16 -4.66155e-16)
(1.12373 -6.81981e-16 -2.82707e-16)
(1.12623 -7.40939e-16 -4.34035e-16)
(1.12623 -6.73396e-16 -2.50325e-16)
(1.12868 -6.66873e-16 -4.07077e-16)
(1.12868 -6.29365e-16 -2.96814e-16)
(1.13106 -6.3337e-16 -4.10945e-16)
(1.13106 -6.43218e-16 -3.32384e-16)
(1.13338 -6.01579e-16 -4.05371e-16)
(1.13338 -6.60694e-16 -3.66305e-16)
(1.13563 -5.68432e-16 -4.52363e-16)
(1.13563 -6.77899e-16 -4.12188e-16)
(1.1378 -6.21975e-16 -4.13103e-16)
(1.1378 -7.13967e-16 -3.56245e-16)
(1.1399 -5.57259e-16 -4.64531e-16)
(1.1399 -7.21892e-16 -4.18737e-16)
(1.14191 -6.77365e-16 -4.54996e-16)
(1.14191 -7.11556e-16 -4.23846e-16)
(1.14383 -6.78805e-16 -3.64021e-16)
(1.14383 -6.85297e-16 -3.58723e-16)
(1.14566 -7.04423e-16 -3.83816e-16)
(1.14566 -6.55886e-16 -3.56609e-16)
(1.14738 -7.36115e-16 -4.29446e-16)
(1.14738 -6.62773e-16 -4.10144e-16)
(1.149 -7.49217e-16 -3.6382e-16)
(1.149 -6.33334e-16 -4.28584e-16)
(1.1505 -7.24033e-16 -3.32787e-16)
(1.1505 -5.74135e-16 -3.37891e-16)
(1.15187 -6.72506e-16 -2.3771e-16)
(1.15187 -5.74585e-16 -2.29357e-16)
(1.15311 -6.03438e-16 -1.79188e-16)
(1.15311 -5.7372e-16 -1.94194e-16)
(1.1542 -5.25441e-16 -1.50415e-16)
(1.1542 -5.75503e-16 -1.80152e-16)
(1.15514 -4.93472e-16 -1.3863e-16)
(1.15514 -5.82422e-16 -1.59404e-16)
(1.15592 -5.08074e-16 -2.18327e-16)
(1.15592 -5.54646e-16 -1.84528e-16)
(1.15652 -4.58536e-16 -2.56235e-16)
(1.15652 -4.85546e-16 -2.03525e-16)
(1.15693 -4.52254e-16 -2.31393e-16)
(1.15693 -4.67209e-16 -1.58868e-16)
(1.15714 -4.45613e-16 -1.62632e-16)
(1.15714 -4.72102e-16 -1.1777e-16)
(0.00120345 1.08409e-19 2.46609e-18)
(0.00120345 2.43088e-20 -1.71846e-19)
(0.00363235 -5.36918e-19 3.5105e-18)
(0.00363235 -1.03606e-19 -2.06098e-18)
(0.00610613 -8.3668e-19 3.26484e-18)
(0.00610613 -1.64489e-19 -2.13537e-18)
(0.00862562 -1.31715e-18 4.10771e-18)
(0.00862562 -2.67488e-19 -2.21104e-18)
(0.0111916 -1.81112e-18 4.82855e-18)
(0.0111916 -3.76335e-19 -2.28779e-18)
(0.013805 -2.3226e-18 5.42213e-18)
(0.013805 -4.82312e-19 -2.36581e-18)
(0.0164667 -2.85404e-18 6.04411e-18)
(0.0164667 -5.81722e-19 -2.44499e-18)
(0.0191775 -3.39487e-18 6.71759e-18)
(0.0191775 -7.004e-19 -2.52435e-18)
(0.0219384 -3.95207e-18 7.42767e-18)
(0.0219384 -8.22313e-19 -2.60444e-18)
(0.0247502 -4.52693e-18 8.16844e-18)
(0.0247502 -9.52437e-19 -2.68603e-18)
(0.0276139 -5.10381e-18 8.93892e-18)
(0.0276139 -1.10905e-18 -2.7675e-18)
(0.0305304 -5.69746e-18 9.74065e-18)
(0.0305304 -1.26003e-18 -2.84883e-18)
(0.0335008 -6.31993e-18 1.05745e-17)
(0.0335008 -1.42162e-18 -2.9309e-18)
(0.0365259 -6.95869e-18 1.1441e-17)
(0.0365259 -1.60067e-18 -3.01348e-18)
(0.0396068 -7.6095e-18 1.23389e-17)
(0.0396068 -1.76965e-18 -3.0956e-18)
(0.0427445 -8.2537e-18 1.32707e-17)
(0.0427445 -1.93386e-18 -3.17687e-18)
(0.04594 -8.88263e-18 1.42387e-17)
(0.04594 -2.15196e-18 -3.25884e-18)
(0.0491945 -9.54601e-18 1.52414e-17)
(0.0491945 -2.3638e-18 -3.33755e-18)
(0.0525088 -1.02483e-17 1.62826e-17)
(0.0525088 -2.55564e-18 -3.41695e-18)
(0.0558843 -1.09535e-17 1.73617e-17)
(0.0558843 -2.79351e-18 -3.49547e-18)
(0.0593218 -1.16838e-17 1.84796e-17)
(0.0593218 -3.01401e-18 -3.5711e-18)
(0.0628227 -1.24839e-17 1.96388e-17)
(0.0628227 -3.18079e-18 -3.64704e-18)
(0.0663879 -1.33133e-17 2.08366e-17)
(0.0663879 -3.3924e-18 -3.71899e-18)
(0.0700187 -1.4137e-17 2.20777e-17)
(0.0700187 -3.64393e-18 -3.79052e-18)
(0.0737163 -1.49682e-17 2.33605e-17)
(0.0737163 -3.91111e-18 -3.85723e-18)
(0.0774818 -1.57948e-17 2.4688e-17)
(0.0774818 -4.21666e-18 -3.92109e-18)
(0.0813165 -1.65954e-17 2.60611e-17)
(0.0813165 -4.51524e-18 -3.98471e-18)
(0.0852216 -1.73654e-17 2.74797e-17)
(0.0852216 -4.85956e-18 -4.04215e-18)
(0.0891983 -1.8199e-17 2.89453e-17)
(0.0891983 -5.19339e-18 -4.09146e-18)
(0.093248 -1.91064e-17 2.98365e-17)
(0.093248 -5.55314e-18 -4.13849e-18)
(0.0973718 -2.00233e-17 3.05921e-17)
(0.0973718 -5.949e-18 -4.1827e-18)
(0.101571 -2.09734e-17 3.13542e-17)
(0.101571 -6.3018e-18 -4.21868e-18)
(0.105847 -2.19599e-17 3.45067e-17)
(0.105847 -6.68542e-18 -4.24837e-18)
(0.110202 -2.2983e-17 3.70583e-17)
(0.110202 -7.10076e-18 -4.27532e-18)
(0.114635 -2.39997e-17 3.88397e-17)
(0.114635 -7.39773e-18 -4.28805e-18)
(0.11915 -2.50004e-17 4.06801e-17)
(0.11915 -7.73754e-18 -4.29528e-18)
(0.123747 -2.60069e-17 4.25767e-17)
(0.123747 -8.09922e-18 -4.29231e-18)
(0.128427 -2.7042e-17 4.45384e-17)
(0.128427 -8.42714e-18 -4.27971e-18)
(0.133193 -2.81242e-17 4.65627e-17)
(0.133193 -9.02874e-18 -4.26406e-18)
(0.138044 -2.91959e-17 4.86463e-17)
(0.138044 -9.47326e-18 -4.22758e-18)
(0.142983 -3.03716e-17 5.07954e-17)
(0.142983 -9.61184e-18 -4.1771e-18)
(0.148011 -3.16472e-17 5.30136e-17)
(0.148011 -1.02237e-17 -4.12033e-18)
(0.15313 -3.26986e-17 5.52976e-17)
(0.15313 -1.09862e-17 -4.03379e-18)
(0.15834 -3.36764e-17 5.76685e-17)
(0.15834 -1.15324e-17 -3.94582e-18)
(0.163643 -3.48877e-17 6.01121e-17)
(0.163643 -1.1722e-17 -3.83438e-18)
(0.16904 -3.61324e-17 6.26313e-17)
(0.16904 -1.20892e-17 -3.71117e-18)
(0.174532 -3.74266e-17 6.52099e-17)
(0.174532 -1.30586e-17 -3.57214e-18)
(0.180121 -3.86909e-17 6.78554e-17)
(0.180121 -1.38494e-17 -3.36958e-18)
(0.185807 -3.97952e-17 7.06187e-17)
(0.185807 -1.46969e-17 -3.16369e-18)
(0.191591 -4.10942e-17 7.34726e-17)
(0.191591 -1.58533e-17 -2.9872e-18)
(0.197475 -4.23183e-17 7.63779e-17)
(0.197475 -1.67003e-17 -2.75363e-18)
(0.203459 -4.35367e-17 7.93473e-17)
(0.203459 -1.70739e-17 -2.46898e-18)
(0.209543 -4.50225e-17 8.24281e-17)
(0.209543 -1.81375e-17 -2.19524e-18)
(0.215729 -4.63876e-17 8.55628e-17)
(0.215729 -1.92729e-17 -1.8766e-18)
(0.222015 -4.75412e-17 8.87698e-17)
(0.222015 -2.00101e-17 -1.49999e-18)
(0.228403 -4.89767e-17 9.2088e-17)
(0.228403 -2.11062e-17 -1.13524e-18)
(0.234893 -5.05204e-17 9.54518e-17)
(0.234893 -2.20435e-17 -7.0762e-19)
(0.241483 -5.20134e-17 9.89139e-17)
(0.241483 -2.30554e-17 -2.52591e-19)
(0.248173 -5.37912e-17 1.02436e-16)
(0.248173 -2.42588e-17 2.24282e-19)
(0.254963 -5.54765e-17 1.06003e-16)
(0.254963 -2.55095e-17 7.53294e-19)
(0.26185 -5.69932e-17 1.09632e-16)
(0.26185 -2.65713e-17 1.36633e-18)
(0.268833 -5.91231e-17 1.13379e-16)
(0.268833 -2.74109e-17 1.97897e-18)
(0.275911 -6.11564e-17 1.17142e-16)
(0.275911 -2.83019e-17 2.6327e-18)
(0.28308 -6.29214e-17 1.20945e-16)
(0.28308 -2.87664e-17 3.30925e-18)
(0.290339 -6.50062e-17 1.24741e-16)
(0.290339 -2.98527e-17 4.06808e-18)
(0.297683 -6.69065e-17 1.28581e-16)
(0.297683 -3.14334e-17 4.90594e-18)
(0.305109 -6.86973e-17 1.32525e-16)
(0.305109 -3.29325e-17 5.71724e-18)
(0.312613 -7.08159e-17 1.36437e-16)
(0.312613 -3.45031e-17 6.53019e-18)
(0.320191 -7.28378e-17 1.4025e-16)
(0.320191 -3.59652e-17 7.50921e-18)
(0.327838 -7.44359e-17 1.44086e-16)
(0.327838 -3.71627e-17 8.56723e-18)
(0.335548 -7.61004e-17 1.47999e-16)
(0.335548 -3.85381e-17 9.62895e-18)
(0.343316 -7.76791e-17 1.51927e-16)
(0.343316 -4.06643e-17 1.06757e-17)
(0.351135 -7.97657e-17 1.55799e-16)
(0.351135 -4.17137e-17 1.17381e-17)
(0.359001 -8.24226e-17 1.59572e-16)
(0.359001 -4.30682e-17 1.2904e-17)
(0.366906 -8.47601e-17 1.63182e-16)
(0.366906 -4.48121e-17 1.44534e-17)
(0.374843 -8.70458e-17 1.6672e-16)
(0.374843 -4.675e-17 1.75782e-17)
(0.382806 -8.94867e-17 1.70367e-16)
(0.382806 -4.74557e-17 2.0641e-17)
(0.390788 -9.24262e-17 1.74065e-16)
(0.390788 -4.91136e-17 2.37075e-17)
(0.398783 -9.52523e-17 1.77333e-16)
(0.398783 -5.17176e-17 2.67061e-17)
(0.406782 -9.73518e-17 1.80412e-16)
(0.406782 -5.19001e-17 2.94325e-17)
(0.414781 -9.94716e-17 1.83555e-16)
(0.414781 -5.35167e-17 3.21723e-17)
(0.422771 -1.01852e-16 1.86703e-16)
(0.422771 -5.45083e-17 3.49235e-17)
(0.430747 -1.04344e-16 1.89615e-16)
(0.430747 -5.542e-17 3.77435e-17)
(0.438703 -1.05796e-16 1.92281e-16)
(0.438703 -5.82085e-17 4.05601e-17)
(0.446633 -1.06863e-16 1.94772e-16)
(0.446633 -6.06486e-17 4.32673e-17)
(0.454531 -1.0925e-16 1.97327e-16)
(0.454531 -6.24349e-17 4.60326e-17)
(0.462392 -1.11825e-16 1.99892e-16)
(0.462392 -6.5434e-17 4.88638e-17)
(0.470212 -1.13669e-16 2.02172e-16)
(0.470212 -6.69858e-17 5.156e-17)
(0.477986 -1.14723e-16 2.04538e-16)
(0.477986 -6.74411e-17 5.43496e-17)
(0.485709 -1.16589e-16 2.06811e-16)
(0.485709 -7.01963e-17 5.72029e-17)
(0.49338 -1.19634e-16 2.0888e-16)
(0.49338 -7.29684e-17 5.97763e-17)
(0.500993 -1.21756e-16 2.10986e-16)
(0.500993 -7.37741e-17 6.23975e-17)
(0.508546 -1.25456e-16 2.1326e-16)
(0.508546 -7.57214e-17 6.5044e-17)
(0.516037 -1.29945e-16 2.14954e-16)
(0.516037 -7.91723e-17 6.74025e-17)
(0.523464 -1.32059e-16 2.16797e-16)
(0.523464 -7.90099e-17 6.97578e-17)
(0.530824 -1.34304e-16 2.18647e-16)
(0.530824 -7.7765e-17 7.21138e-17)
(0.538117 -1.3759e-16 2.20298e-16)
(0.538117 -8.10047e-17 7.44743e-17)
(0.54534 -1.39732e-16 2.21868e-16)
(0.54534 -8.33343e-17 7.679e-17)
(0.552494 -1.41847e-16 2.23542e-16)
(0.552494 -8.45032e-17 7.89529e-17)
(0.559576 -1.45259e-16 2.25021e-16)
(0.559576 -8.78289e-17 8.07485e-17)
(0.566588 -1.48244e-16 2.26219e-16)
(0.566588 -8.74406e-17 8.26389e-17)
(0.573528 -1.5201e-16 2.28183e-16)
(0.573528 -8.69011e-17 8.46263e-17)
(0.580396 -1.55475e-16 2.29742e-16)
(0.580396 -9.19858e-17 8.6212e-17)
(0.587194 -1.56567e-16 2.30659e-16)
(0.587194 -9.55475e-17 8.74551e-17)
(0.593919 -1.57486e-16 2.32416e-16)
(0.593919 -9.81403e-17 8.92241e-17)
(0.600575 -1.59075e-16 2.34469e-16)
(0.600575 -1.02853e-16 9.05116e-17)
(0.60716 -1.61583e-16 2.36509e-16)
(0.60716 -1.02506e-16 9.22417e-17)
(0.613675 -1.64086e-16 2.38004e-16)
(0.613675 -1.00523e-16 9.37111e-17)
(0.620122 -1.65915e-16 2.39915e-16)
(0.620122 -1.00521e-16 9.5096e-17)
(0.6265 -1.68383e-16 2.42309e-16)
(0.6265 -1.01161e-16 9.65549e-17)
(0.632812 -1.69926e-16 2.43584e-16)
(0.632812 -1.02132e-16 9.72325e-17)
(0.639057 -1.70114e-16 2.4579e-16)
(0.639057 -1.02148e-16 9.80997e-17)
(0.645237 -1.70509e-16 2.4775e-16)
(0.645237 -1.0189e-16 9.90968e-17)
(0.651353 -1.70404e-16 2.50153e-16)
(0.651353 -1.03417e-16 1.00162e-16)
(0.657406 -1.70346e-16 2.52635e-16)
(0.657406 -1.06622e-16 1.008e-16)
(0.663397 -1.68718e-16 2.5503e-16)
(0.663397 -1.09038e-16 1.01052e-16)
(0.669326 -1.67395e-16 2.58818e-16)
(0.669326 -1.09105e-16 1.01815e-16)
(0.675197 -1.70354e-16 2.62004e-16)
(0.675197 -1.11618e-16 1.02412e-16)
(0.681008 -1.73536e-16 2.64592e-16)
(0.681008 -1.14007e-16 1.02618e-16)
(0.686763 -1.73459e-16 2.67356e-16)
(0.686763 -1.16158e-16 1.01846e-16)
(0.692461 -1.73223e-16 2.70369e-16)
(0.692461 -1.17865e-16 1.01711e-16)
(0.698104 -1.73746e-16 2.75333e-16)
(0.698104 -1.19283e-16 1.01749e-16)
(0.703693 -1.76176e-16 2.79702e-16)
(0.703693 -1.22151e-16 1.0114e-16)
(0.709229 -1.80985e-16 2.7896e-16)
(0.709229 -1.24281e-16 1.00639e-16)
(0.714713 -1.86336e-16 2.77907e-16)
(0.714713 -1.23878e-16 1.00697e-16)
(0.720147 -1.89257e-16 2.76787e-16)
(0.720147 -1.23729e-16 1.00664e-16)
(0.725531 -1.87562e-16 2.76314e-16)
(0.725531 -1.28884e-16 1.00138e-16)
(0.730867 -1.86471e-16 2.77215e-16)
(0.730867 -1.33616e-16 9.84342e-17)
(0.736155 -1.90429e-16 2.79165e-16)
(0.736155 -1.34832e-16 9.53268e-17)
(0.741398 -1.95694e-16 2.79175e-16)
(0.741398 -1.35947e-16 9.27413e-17)
(0.746595 -1.99959e-16 2.78113e-16)
(0.746595 -1.37291e-16 9.02564e-17)
(0.751747 -2.02762e-16 2.78037e-16)
(0.751747 -1.35057e-16 8.82778e-17)
(0.756857 -2.04519e-16 2.78484e-16)
(0.756857 -1.32336e-16 8.6139e-17)
(0.761924 -2.09732e-16 2.79661e-16)
(0.761924 -1.32915e-16 8.55664e-17)
(0.76695 -2.15728e-16 2.80364e-16)
(0.76695 -1.35988e-16 8.6459e-17)
(0.771935 -2.19653e-16 2.80412e-16)
(0.771935 -1.39449e-16 8.76084e-17)
(0.776881 -2.21916e-16 2.803e-16)
(0.776881 -1.42391e-16 8.80711e-17)
(0.781789 -2.18614e-16 2.81356e-16)
(0.781789 -1.44622e-16 8.89582e-17)
(0.786658 -2.14842e-16 2.82445e-16)
(0.786658 -1.48106e-16 9.01262e-17)
(0.791491 -2.16176e-16 2.82671e-16)
(0.791491 -1.54683e-16 8.87505e-17)
(0.796288 -2.2015e-16 2.83038e-16)
(0.796288 -1.53494e-16 8.65896e-17)
(0.801049 -2.20592e-16 2.85815e-16)
(0.801049 -1.5439e-16 8.38419e-17)
(0.805776 -2.19262e-16 2.87638e-16)
(0.805776 -1.60674e-16 8.14962e-17)
(0.810469 -2.19077e-16 2.88563e-16)
(0.810469 -1.61055e-16 8.12334e-17)
(0.815129 -2.19867e-16 2.89507e-16)
(0.815129 -1.62522e-16 8.0039e-17)
(0.819757 -2.21167e-16 2.91513e-16)
(0.819757 -1.67324e-16 8.04664e-17)
(0.824354 -2.27915e-16 2.94148e-16)
(0.824354 -1.69697e-16 8.22967e-17)
(0.828919 -2.3851e-16 2.95873e-16)
(0.828919 -1.71004e-16 8.08678e-17)
(0.833454 -2.4145e-16 2.98227e-16)
(0.833454 -1.72802e-16 8.00717e-17)
(0.83796 -2.45446e-16 2.99156e-16)
(0.83796 -1.8181e-16 7.88569e-17)