/*--------------------------------*- C++ -*----------------------------------*\
| =========                 |                                                 |
| \\      /  F ield         | OpenFOAM: The Open Source CFD Toolbox           |
|  \\    /   O peration     | Version:  2106                                  |
|   \\  /    A nd           | Website:  www.openfoam.com                      |
|    \\/     M anipulation  |                                                 |
\*---------------------------------------------------------------------------*/
FoamFile
{
    version     2.0;
    format      ascii;
    arch        "LSB;label=32;scalar=64";
    class       volTensorField;
    location    "10050";
    object      grad(U);
}
// * * * * * * * * * * * * * * * * * * * * * * * * * * * * * * * * * * * * * //

dimensions      [0 0 -1 0 0 0 0];

internalField   nonuniform List<tensor> 
2000
(
(0 -4.52937e-26 2.03259e-31 61.545 -7.54628e-12 -2.07853e-13 0.113908 -6.9717e-15 -1.90393e-16)
(0 -4.03387e-28 -2.03259e-31 61.545 3.9443e-31 6.18445e-17 0.113908 -1.00849e-28 2.44283e-16)
(-5.61639e-17 0 6.05782e-31 61.5333 8.07794e-28 -3.14421e-14 0.343807 -3.15544e-30 -1.18548e-16)
(0 -2.87329e-29 -4.98836e-31 61.5333 -6.56351e-15 7.82583e-17 0.343807 -1.95594e-17 3.03702e-16)
(9.62511e-17 2.81747e-30 -1.3676e-31 61.5214 5.64522e-13 -1.46428e-14 0.47694 -4.24281e-15 -1.06296e-16)
(-1.10269e-16 3.13405e-30 2.93817e-31 61.5214 -2.34518e-15 5.38802e-17 0.47694 -1.61313e-17 3.15412e-16)
(-4.5891e-17 -6.59188e-30 6.10451e-32 61.5092 5.31011e-13 -1.43111e-14 0.485744 -4.43167e-15 -1.17774e-16)
(1.83564e-16 1.23065e-29 9.61442e-32 61.5092 -4.74163e-15 9.3877e-17 0.485744 -2.47427e-17 3.27838e-16)
(0 6.04048e-30 3.7753e-31 61.4958 1.42613e-13 -1.5343e-14 0.494698 -3.87336e-15 -1.26906e-16)
(-2.1253e-16 -3.02024e-30 -1.88765e-31 61.4958 -4.73757e-15 1.12376e-16 0.494698 -3.35002e-17 3.40921e-16)
(0 -2.72045e-27 6.4857e-31 61.48 -2.96723e-14 -1.59886e-14 0.503788 -1.20466e-16 -1.32795e-16)
(-4.45674e-16 -2.37191e-29 -6.4857e-31 61.48 -4.81085e-15 1.25844e-16 0.503788 -4.25479e-17 3.54687e-16)
(0 -3.37956e-28 -1.8191e-31 61.459 -1.53749e-27 -1.63534e-14 0.512989 0 -1.37779e-16)
(5.80396e-16 8.73169e-30 1.8191e-31 61.459 -4.92406e-15 1.28323e-16 0.512989 -5.16285e-17 3.69125e-16)
(0 2.85723e-30 8.92883e-32 61.4285 5.76866e-15 -1.66253e-14 0.522252 -4.02176e-17 -1.42425e-16)
(1.43527e-15 0 0 61.4285 -5.09885e-15 1.35785e-16 0.522252 -6.04509e-17 3.84225e-16)
(-2.14364e-16 3.17152e-30 -9.62548e-32 61.3813 6.3221e-15 -1.68323e-14 0.531502 -5.7149e-17 -1.46556e-16)
(0 2.80487e-30 2.62956e-31 61.3813 -5.35174e-15 1.51328e-16 0.531502 -6.92577e-17 4.00028e-16)
(3.87517e-16 -2.75347e-30 -5.16276e-31 61.3073 6.09775e-15 -1.69494e-14 0.540625 -5.1322e-17 -1.49859e-16)
(-3.87517e-16 2.75347e-30 5.16276e-31 61.3073 -5.54905e-15 1.63718e-16 0.540625 -7.94632e-17 4.16458e-16)
(3.80415e-16 -2.97332e-29 -1.18257e-30 61.1922 6.51885e-15 -1.69442e-14 0.549461 -5.53428e-17 -1.51984e-16)
(0 2.97332e-29 1.18257e-30 61.1922 -5.46333e-15 1.77898e-16 0.549461 -9.11845e-17 4.33427e-16)
(-5.02091e-17 4.79342e-30 4.04163e-31 61.0175 7.16792e-15 -1.67781e-14 0.557797 -6.08269e-17 -1.52464e-16)
(1.29294e-15 -5.30696e-30 -1.65843e-31 61.0175 -5.50071e-15 1.8446e-16 0.557797 -1.01959e-16 4.50813e-16)
(0 0 0 60.7601 7.99747e-15 -1.64069e-14 0.565364 -6.93158e-17 -1.50786e-16)
(0 0 0 60.7601 -6.19001e-15 1.77804e-16 0.565364 -1.13596e-16 4.68355e-16)
(-1.11899e-15 3.12892e-29 9.03613e-31 60.3934 8.49926e-15 -1.57868e-14 0.571846 -7.85953e-17 -1.46424e-16)
(7.19767e-16 -2.30141e-29 -6.39281e-31 60.3934 -6.46745e-15 1.8745e-16 0.571846 -1.28067e-16 4.85812e-16)
(-4.382e-16 1.82196e-29 5.81219e-31 59.8883 8.04643e-15 -1.4886e-14 0.57689 -8.14642e-17 -1.3903e-16)
(0 -5.02053e-30 -1.56892e-31 59.8883 -6.22391e-15 2.20097e-16 0.57689 -1.43419e-16 5.02965e-16)
(4.77779e-16 -1.30142e-29 -5.7884e-31 59.2163 7.30399e-15 -1.36945e-14 0.580141 -7.27905e-17 -1.28444e-16)
(-1.91112e-15 9.85707e-30 4.6205e-31 59.2163 -6.56549e-15 2.30973e-16 0.580141 -1.58053e-16 5.19432e-16)
(6.80919e-16 -4.83822e-30 -4.53583e-31 58.3524 7.22222e-15 -1.2225e-14 0.581273 -6.98923e-17 -1.14748e-16)
(0 4.83822e-30 6.04777e-31 58.3524 -6.56455e-15 2.19761e-16 0.581273 -1.73646e-16 5.34713e-16)
(1.11677e-15 -3.00546e-29 -1.59463e-30 57.2787 7.22233e-15 -1.05201e-14 0.580031 -7.38906e-17 -9.8394e-17)
(2.23353e-15 2.37478e-29 1.18739e-30 57.2787 -5.30833e-15 2.25276e-16 0.580031 -1.8675e-16 5.48505e-16)
(-5.99153e-16 3.15206e-30 2.8114e-31 55.9879 7.61024e-15 -8.64948e-15 0.576269 -7.25282e-17 -8.00768e-17)
(-6.56192e-16 4.66253e-30 0 55.9879 -5.69553e-15 2.18859e-16 0.576269 -1.95346e-16 5.60502e-16)
(6.40014e-16 -3.14844e-30 -2.84045e-31 54.4851 8.34397e-15 -6.70176e-15 0.569974 -8.47613e-17 -6.07414e-17)
(2.56006e-15 0 4.29102e-31 54.4851 -6.55487e-15 1.93238e-16 0.569974 -2.11348e-16 5.7027e-16)
(-6.80772e-16 3.1455e-30 1.45946e-31 52.7876 8.33888e-15 -4.77739e-15 0.561266 -9.08422e-17 -4.14671e-17)
(5.44618e-15 0 0 52.7876 -6.04177e-15 1.84852e-16 0.561266 -2.2455e-16 5.77765e-16)
(-1.24155e-15 4.41088e-30 2.7568e-31 50.9241 8.18091e-15 -2.96724e-15 0.550389 -8.78453e-17 -2.31431e-17)
(2.88491e-15 0 0 50.9241 -6.14581e-15 1.76554e-16 0.550389 -2.37665e-16 5.82996e-16)
(0 -4.33005e-30 -7.14655e-30 48.9309 8.21017e-15 -1.22018e-15 0.537675 -9.07843e-17 -6.78395e-18)
(3.04473e-15 4.33005e-30 5.41256e-31 48.9309 -6.27708e-15 1.65752e-16 0.537675 -2.54632e-16 5.85979e-16)
(0 0 2.18953e-47 46.8484 8.2235e-15 7.73667e-32 0.52351 -9.18122e-17 -1.97215e-31)
(3.20183e-15 0 0 46.8484 -6.54657e-15 1.63876e-16 0.52351 -2.74154e-16 5.86954e-16)
(-8.38895e-16 -5.21135e-30 -1.07139e-31 44.717 8.31088e-15 1.12424e-15 0.508291 -9.45099e-17 -7.30423e-18)
(0 1.25184e-29 5.21601e-31 44.717 -6.65017e-15 1.5989e-16 0.508291 -2.96869e-16 5.86232e-16)
(0 -2.45781e-29 -1.28011e-30 42.5744 7.52409e-15 1.96433e-15 0.492398 -9.73072e-17 -1.87459e-17)
(3.50548e-15 2.45781e-29 1.28011e-30 42.5744 -5.93103e-15 1.57087e-16 0.492398 -3.17939e-16 5.84054e-16)
(1.35099e-15 -8.93281e-30 -3.53043e-31 40.453 6.49621e-15 2.55477e-15 0.47617 -7.94027e-17 -2.75124e-17)
(-1.13189e-15 1.20638e-29 5.0266e-31 40.453 -5.83208e-15 1.48081e-16 0.47617 -3.32397e-16 5.80817e-16)
(-9.48089e-16 -8.18307e-31 3.94487e-31 38.3794 7.22024e-15 2.92757e-15 0.459896 -7.613e-17 -3.37234e-17)
(0 7.89518e-30 0 38.3794 -6.08566e-15 1.50206e-16 0.459896 -3.49281e-16 5.76796e-16)
(0 1.16258e-29 4.84407e-31 36.3736 8.55695e-15 3.12293e-15 0.443806 -1.00221e-16 -3.77281e-17)
(-1.09079e-15 -3.87525e-30 -2.42203e-31 36.3736 -6.12251e-15 1.54263e-16 0.443806 -3.68017e-16 5.72412e-16)
(-4.22761e-15 2.9747e-29 1.57113e-30 34.4499 8.63808e-15 3.17875e-15 0.428078 -1.12525e-16 -3.98939e-17)
(-2.99005e-15 -1.90212e-29 -1.18882e-30 34.4499 -6.141e-15 1.44821e-16 0.428078 -3.88515e-16 5.67661e-16)
(1.04703e-15 -6.84937e-30 -1.43168e-31 32.6176 7.98327e-15 3.11935e-15 0.41284 -1.06071e-16 -4.0576e-17)
(4.18812e-15 3.73453e-30 0 32.6176 -5.84433e-15 1.5525e-16 0.41284 -4.0706e-16 5.6282e-16)
(0 3.66609e-30 4.58262e-31 30.8815 7.38197e-15 2.97287e-15 0.398182 -9.97228e-17 -3.98512e-17)
(0 0 0 30.8815 -5.76371e-15 1.65775e-16 0.398182 -4.2213e-16 5.58224e-16)
(-1.10729e-15 6.70994e-30 3.65931e-31 29.2434 6.73824e-15 2.76866e-15 0.384157 -9.4126e-17 -3.82213e-17)
(0 -3.59891e-30 -2.24932e-31 29.2434 -5.93516e-15 1.56269e-16 0.384157 -4.41548e-16 5.53897e-16)
(-1.1358e-15 3.10978e-30 1.40163e-31 27.7026 6.49827e-15 2.52536e-15 0.370796 -8.60953e-17 -3.5838e-17)
(0 3.53297e-30 4.41621e-31 27.7026 -5.78686e-15 1.55932e-16 0.370796 -4.64884e-16 5.49762e-16)
(0 -1.73411e-29 -8.67056e-31 26.2565 5.72942e-15 2.25912e-15 0.358108 -9.10711e-17 -3.29682e-17)
(4.65315e-15 1.73411e-29 8.67056e-31 26.2565 -4.86323e-15 1.68995e-16 0.358108 -4.804e-16 5.46141e-16)
(-1.91666e-15 6.80934e-30 2.12792e-31 24.9015 4.15957e-15 1.9685e-15 0.346086 -6.7793e-17 -2.9727e-17)
(0 -3.40467e-30 0 24.9015 -3.6712e-15 1.48664e-16 0.346086 -4.98356e-16 5.43084e-16)
(1.2154e-15 -3.10814e-30 7.02813e-32 23.6331 3.59473e-15 1.66444e-15 0.334716 -4.96872e-17 -2.59142e-17)
(4.86159e-15 0 -2.08893e-31 23.6331 -2.44499e-15 1.17843e-16 0.334716 -5.14389e-16 5.40154e-16)
(-1.24011e-15 -1.00185e-29 -4.76789e-31 22.4464 3.82986e-15 1.36328e-15 0.323974 -5.39218e-17 -2.20048e-17)
(4.96045e-15 1.64052e-29 8.20259e-31 22.4464 -2.49453e-15 1.13329e-16 0.323974 -5.18578e-16 5.37512e-16)
(-1.264e-15 -1.62216e-29 -8.6818e-31 21.3365 4.54987e-15 1.0624e-15 0.313834 -5.8525e-17 -1.79695e-17)
(0 2.25464e-29 1.00653e-30 21.3365 -3.74395e-15 1.15471e-16 0.313834 -5.35126e-16 5.35228e-16)
(-1.77999e-15 2.21332e-29 7.90472e-31 20.2982 4.6435e-15 7.73241e-16 0.304266 -7.76811e-17 -1.37543e-17)
(6.9284e-15 -2.21332e-29 -7.90472e-31 20.2982 -3.41989e-15 1.29808e-16 0.304266 -5.53015e-16 5.33446e-16)
(-2.61894e-15 1.5511e-29 8.5949e-31 19.3266 3.85993e-15 5.03063e-16 0.295238 -6.36083e-17 -9.75813e-18)
(5.23788e-15 -3.10395e-30 -3.87994e-31 19.3266 -2.62039e-15 1.20197e-16 0.295238 -5.57085e-16 5.32181e-16)
(0 -9.14121e-30 -3.80884e-31 18.4171 3.85562e-15 2.43438e-16 0.286719 -5.60719e-17 -5.81235e-18)
(0 9.14121e-30 3.80884e-31 18.4171 -2.41185e-15 9.83144e-17 0.286719 -5.6893e-16 5.30979e-16)
(3.36783e-15 -5.98247e-30 -5.60856e-31 17.5651 3.78003e-15 -8.48593e-18 0.278678 -6.58677e-17 -2.1545e-18)
(0 5.98247e-30 5.60856e-31 17.5651 -2.7002e-15 8.68238e-17 0.278678 -5.75967e-16 5.30126e-16)
(-1.37254e-15 8.96862e-30 6.8966e-31 16.7664 3.81874e-15 -2.46875e-16 0.271086 -5.57287e-17 -5.97684e-18)
(-5.49016e-15 -2.93642e-30 -1.83526e-31 16.7664 -2.9069e-15 8.32605e-17 0.271086 -5.84408e-16 5.29314e-16)
(1.39235e-15 5.55445e-30 4.01778e-31 16.0171 4.82083e-15 -4.79382e-16 0.263914 -6.9631e-17 -1.00753e-17)
(3.94662e-15 -5.76522e-30 -3.60326e-31 16.0171 -3.29824e-15 9.18237e-17 0.263914 -5.82589e-16 5.28815e-16)
(1.4116e-15 8.23018e-30 9.22565e-31 15.3135 4.25837e-15 -6.98658e-16 0.257135 -9.16171e-17 -1.37336e-17)
(-5.6464e-15 -1.13192e-29 -1.06117e-30 15.3135 -4.40384e-15 9.2522e-17 0.257135 -5.85141e-16 5.28712e-16)
(1.33505e-16 3.15717e-31 -3.49831e-32 14.6522 2.42231e-15 -8.99551e-16 0.250723 -5.29358e-17 -1.74839e-17)
(5.72133e-15 2.77793e-30 3.47242e-31 14.6522 -3.29264e-15 8.7894e-17 0.250723 -6.12303e-16 5.28943e-16)
(0 -1.63622e-29 -1.02264e-30 14.0302 2.85509e-15 -1.0851e-15 0.244653 -3.08288e-17 -2.08645e-17)
(1.15886e-14 1.63622e-29 1.19307e-30 14.0302 -2.0465e-15 1.00816e-16 0.244653 -6.23942e-16 5.2932e-16)
(2.97339e-15 -2.45042e-29 -1.31033e-30 13.4445 3.74206e-15 -1.25502e-15 0.238905 -7.03554e-17 -2.43117e-17)
(4.35833e-15 1.60623e-29 8.3658e-31 13.4445 -2.82507e-15 1.15397e-16 0.238905 -6.28755e-16 5.2998e-16)
(-1.48368e-15 1.62271e-29 7.96552e-31 12.8924 3.59821e-15 -1.41439e-15 0.233455 -6.41936e-17 -2.75449e-17)
(-5.93472e-15 -7.884e-30 -3.285e-31 12.8924 -3.09615e-15 6.94799e-17 0.233455 -6.41224e-16 5.30915e-16)
(2.90464e-15 -2.57984e-30 -3.2248e-31 12.3716 3.94858e-15 -1.56694e-15 0.228286 -6.76861e-17 -3.09751e-17)
(0 2.57984e-30 3.2248e-31 12.3716 -2.84447e-15 4.84566e-17 0.228286 -6.54902e-16 5.31687e-16)
(-2.94283e-15 1.82762e-29 9.32266e-31 11.8798 3.99685e-15 -1.71129e-15 0.223379 -7.98127e-17 -3.41229e-17)
(-2.85142e-15 -7.5977e-30 -4.74856e-31 11.8798 -2.90546e-15 7.85169e-17 0.223379 -6.59238e-16 5.32671e-16)
(1.39958e-15 -4.97232e-30 -4.66155e-31 11.415 4.09903e-15 -1.84638e-15 0.218717 -7.20893e-17 -3.74237e-17)
(0 4.97232e-30 6.2154e-31 11.415 -3.28112e-15 6.99862e-17 0.218717 -6.74626e-16 5.33873e-16)
(0 9.7624e-30 6.1015e-31 10.9753 5.95974e-15 -1.97723e-15 0.214284 -8.6815e-17 -4.06197e-17)
(-6.19622e-15 -1.46436e-29 -9.15225e-31 10.9753 -3.86151e-15 4.37766e-17 0.214284 -6.99738e-16 5.35064e-16)
(2.15751e-16 6.5217e-30 6.05005e-31 10.5589 6.91687e-15 -2.09492e-15 0.210066 -1.48907e-16 -4.36083e-17)
(0 0 -4.49227e-31 10.5589 -3.61159e-15 4.96424e-17 0.210066 -7.14676e-16 5.36046e-16)
(-1.57964e-15 -1.64318e-30 -2.13993e-33 10.1643 4.96364e-15 -2.21422e-15 0.20605 -1.28915e-16 -4.70801e-17)
(0 4.70395e-30 4.40995e-31 10.1643 -2.76827e-15 4.21587e-17 0.20605 -7.33051e-16 5.3721e-16)
(-1.88916e-15 -7.72116e-30 -7.177e-31 9.78991 3.73737e-15 -2.33053e-15 0.202223 -7.38011e-17 -5.01481e-17)
(6.37789e-15 1.38533e-29 5.77219e-31 9.78991 -2.55509e-15 4.54678e-17 0.202223 -7.45059e-16 5.38117e-16)
(-1.60901e-15 7.59487e-30 -1.35774e-31 9.4345 3.88236e-15 -2.44672e-15 0.198574 -8.21512e-17 -5.38365e-17)
(0 -4.53313e-30 2.83321e-31 9.4345 -3.42466e-15 3.12822e-17 0.198574 -7.58621e-16 5.3923e-16)
(-3.24655e-15 2.39195e-29 1.27143e-30 9.09679 3.88808e-15 -2.57238e-15 0.195091 -8.27996e-17 -5.75269e-17)
(-6.49309e-15 -1.78003e-29 -9.73451e-31 9.09679 -3.80211e-15 -1.70029e-17 0.195091 -7.85545e-16 5.39371e-16)
(1.63727e-15 5.67916e-30 5.32022e-31 8.77563 4.0174e-15 -2.6995e-15 0.191766 -8.54963e-17 -6.15218e-17)
(-6.54909e-15 -1.31056e-29 -9.55613e-31 8.77563 -3.28982e-15 -5.25999e-17 0.191766 -8.01807e-16 5.39049e-16)
(-4.82838e-15 1.71539e-29 6.70073e-31 8.46997 3.74656e-15 -2.8129e-15 0.188588 -9.16742e-17 -6.48351e-17)
(0 -8.57693e-30 -2.68029e-31 8.46997 -2.28484e-15 -3.45493e-17 0.188588 -8.1118e-16 5.37933e-16)
(-3.32905e-15 -6.52125e-30 -4.80538e-31 8.17884 3.03393e-15 -2.90346e-15 0.185549 -7.64413e-17 -6.80212e-17)
(1.33162e-14 8.41976e-30 5.26235e-31 8.17884 -1.34708e-15 2.73306e-17 0.185549 -8.11196e-16 5.37056e-16)
(-1.67781e-15 1.54537e-29 9.31318e-31 7.90134 2.81373e-15 -2.99313e-15 0.182641 -6.22229e-17 -7.14962e-17)
(6.71122e-15 -1.23982e-29 -7.74888e-31 7.90134 -2.92771e-15 7.14744e-17 0.182641 -8.18422e-16 5.3624e-16)
(2.28389e-15 -8.11401e-30 -5.07126e-31 7.63664 2.59794e-15 -3.08699e-15 0.179857 -6.89642e-17 -7.50817e-17)
(0 8.11401e-30 5.07126e-31 7.63664 -3.77748e-15 6.76645e-17 0.179857 -8.38373e-16 5.35615e-16)
(-1.70372e-15 1.1021e-29 6.58717e-31 7.38396 3.22944e-15 -3.16903e-15 0.17719 -5.42284e-17 -7.81947e-17)
(6.81486e-15 0 0 7.38396 -3.523e-15 6.11415e-17 0.17719 -8.54668e-16 5.34503e-16)
(0 7.81936e-30 4.8871e-31 7.14259 4.49964e-15 -3.23063e-15 0.174634 -1.02386e-16 -8.09734e-17)
(-2.20095e-15 -3.90968e-30 -2.44355e-31 7.14259 -3.92636e-15 1.06168e-16 0.174634 -8.7312e-16 5.33674e-16)
(-1.72882e-15 1.4553e-29 6.4548e-31 6.91187 5.28041e-15 -3.2882e-15 0.172182 -1.19426e-16 -8.40574e-17)
(-2.16062e-15 -7.67607e-30 -2.39877e-31 6.91187 -3.32867e-15 6.51901e-17 0.172182 -8.83279e-16 5.33308e-16)
(-2.12103e-15 1.13031e-29 4.70963e-31 6.69119 6.57664e-15 -3.34601e-15 0.169828 -1.45789e-16 -8.70072e-17)
(0 -7.53541e-30 -2.35482e-31 6.69119 -3.28077e-15 2.35291e-17 0.169828 -8.99975e-16 5.31918e-16)
(0 -1.47947e-29 -6.93499e-31 6.47997 6.31065e-15 -3.41238e-15 0.167569 -1.90804e-16 -9.07128e-17)
(7.01278e-15 1.47947e-29 6.93499e-31 6.47997 -3.97699e-15 6.8129e-17 0.167569 -9.30171e-16 5.30954e-16)
(0 1.81544e-29 1.36158e-30 6.27768 4.74845e-15 -3.48005e-15 0.165398 -1.37303e-16 -9.39087e-17)
(0 -1.81544e-29 -1.36158e-30 6.27768 -4.48238e-15 5.93198e-17 0.165398 -9.47398e-16 5.30194e-16)
(-1.77689e-15 3.02409e-30 -4.63318e-32 6.08384 4.95826e-15 -3.53764e-15 0.163311 -1.14356e-16 -9.72721e-17)
(7.10756e-15 3.56435e-30 4.45544e-31 6.08384 -4.17015e-15 4.22684e-17 0.163311 -9.6811e-16 5.28308e-16)
(0 -1.04971e-29 -1.74952e-30 5.89797 5.50121e-15 -3.59611e-15 0.161305 -1.5392e-16 -1.00696e-16)
(7.154e-15 1.04971e-29 1.74952e-30 5.89797 -4.35141e-15 7.93494e-17 0.161305 -9.97287e-16 5.2636e-16)
(-1.79996e-15 2.36189e-29 1.89974e-30 5.71966 5.34661e-15 -3.64879e-15 0.159374 -1.48829e-16 -1.03919e-16)
(-7.19985e-15 -2.06095e-29 -1.71746e-30 5.71966 -5.24619e-15 5.73856e-17 0.159374 -1.02496e-15 5.24995e-16)
(3.79651e-15 -1.01159e-29 -4.21497e-31 5.54849 5.57247e-15 -3.72295e-15 0.157515 -1.50971e-16 -1.08766e-16)
(-7.24511e-15 1.01159e-29 4.21497e-31 5.54849 -4.14696e-15 -1.65884e-17 0.157515 -1.07204e-15 5.2237e-16)
(-3.64491e-15 6.00465e-30 1.69667e-31 5.3841 5.12531e-15 -3.79509e-15 0.155725 -1.67458e-16 -1.1207e-16)
(7.28982e-15 0 2.06886e-31 5.3841 -3.7692e-15 2.77897e-17 0.155725 -1.09834e-15 5.17838e-16)
(-3.667e-15 6.00843e-30 1.79925e-31 5.22613 4.66135e-15 -3.84148e-15 0.154001 -1.304e-16 -1.1564e-16)
(0 0 2.03095e-31 5.22613 -5.36051e-15 1.05734e-16 0.154001 -1.15121e-15 5.14317e-16)
(0 -1.27599e-29 -3.98747e-31 5.07425 5.09976e-15 -3.90146e-15 0.152339 -1.46013e-16 -1.19948e-16)
(7.37767e-15 1.27599e-29 3.98747e-31 5.07425 -5.8857e-15 1.28088e-16 0.152339 -1.1885e-15 5.08821e-16)
(-3.6181e-15 2.17831e-29 1.95893e-30 4.92817 4.91655e-15 -3.96362e-15 0.150736 -1.6203e-16 -1.23856e-16)
(-7.42084e-15 -1.56576e-29 -1.56576e-30 4.92817 -4.92761e-15 9.64866e-17 0.150736 -1.22489e-15 5.03887e-16)
(3.59647e-15 -6.06741e-30 -7.77036e-31 4.78758 4.96623e-15 -4.03215e-15 0.149189 -1.40143e-16 -1.28802e-16)
(-1.73059e-15 3.07414e-30 5.76401e-31 4.78758 -4.70635e-15 5.89541e-17 0.149189 -1.27006e-15 4.98793e-16)
(5.27419e-15 -6.00131e-30 -3.92723e-31 4.65223 4.93814e-15 -4.10379e-15 0.147697 -1.71276e-16 -1.33138e-16)
(-1.09035e-14 3.01781e-30 1.88613e-31 4.65223 -6.22233e-15 1.26986e-16 0.147697 -1.28909e-15 4.94231e-16)
(-3.77379e-15 1.18907e-29 1.34094e-30 4.52185 4.62284e-15 -4.16162e-15 0.146256 -1.43614e-16 -1.3745e-16)
(0 -2.96251e-30 -5.5547e-31 4.52185 -5.63447e-15 1.71872e-16 0.146256 -1.3542e-15 4.90329e-16)
(0 2.90822e-30 1.09058e-30 4.39621 5.70438e-15 -4.21372e-15 0.144864 -1.57041e-16 -1.41637e-16)
(0 -5.81644e-30 -1.45411e-30 4.39621 -5.43079e-15 1.46904e-16 0.144864 -1.38859e-15 4.86032e-16)
(1.90747e-15 2.74996e-30 1.42407e-31 4.27509 6.2655e-15 -4.2723e-15 0.14352 -2.21318e-16 -1.46618e-16)
(-1.84741e-14 -5.70985e-30 -3.56866e-31 4.27509 -6.8948e-15 7.52549e-17 0.14352 -1.43796e-15 4.822e-16)
(1.91761e-15 -8.56181e-30 -1.26903e-30 4.15827 5.21706e-15 -4.34908e-15 0.142221 -2.01165e-16 -1.52299e-16)
(0 5.60522e-30 1.05098e-30 4.15827 -4.8951e-15 1.86946e-17 0.142221 -1.50705e-15 4.77486e-16)
(0 -1.37563e-29 -1.37563e-30 4.04556 4.97639e-15 -4.41363e-15 0.140964 -1.56938e-16 -1.56705e-16)
(7.71062e-15 1.37563e-29 1.37563e-30 4.04556 -3.58159e-15 -6.20509e-18 0.140964 -1.55088e-15 4.72237e-16)
(1.9376e-15 -2.94169e-30 -5.633e-31 3.93676 5.74173e-15 -4.46113e-15 0.139749 -1.9174e-16 -1.61456e-16)
(7.75042e-15 0 6.7521e-31 3.93676 -6.26955e-15 2.56254e-17 0.139749 -1.59628e-15 4.63133e-16)
(-9.09778e-16 -1.80052e-29 -1.52959e-30 3.83171 3.80053e-15 -4.50567e-15 0.138574 -2.17937e-16 -1.65875e-16)
(0 1.59081e-29 1.65709e-30 3.83171 -8.06004e-15 1.71783e-17 0.138574 -1.67801e-15 4.54364e-16)
(-9.84027e-16 -1.71965e-29 -1.48539e-30 3.73023 3.06186e-15 -4.54454e-15 0.137436 -5.66411e-17 -1.70443e-16)
(4.8985e-15 1.56166e-29 1.62673e-30 3.73023 -5.95813e-15 -1.31551e-17 0.137436 -1.73538e-15 4.44084e-16)
(1.96693e-15 -1.82479e-29 -2.15382e-30 3.63217 6.40351e-15 -4.5777e-15 0.136335 -2.19487e-16 -1.74649e-16)
(1.57354e-14 1.53304e-29 1.9163e-30 3.63217 -5.21564e-15 -3.94184e-19 0.136335 -1.74076e-15 4.34772e-16)
(-1.97654e-15 -2.11201e-30 -3.85656e-31 3.53737 6.55902e-15 -4.63509e-15 0.135269 -2.63598e-16 -1.81313e-16)
(0 5.01649e-30 1.25412e-30 3.53737 -7.72413e-15 -1.45552e-17 0.135269 -1.7949e-15 4.24022e-16)
(-3.97213e-15 5.81072e-30 1.84349e-31 3.44571 7.06545e-15 -4.70067e-15 0.134236 -2.3981e-16 -1.86407e-16)
(7.94426e-15 0 3.07785e-31 3.44571 -7.53198e-15 9.24429e-18 0.134236 -1.87886e-15 4.13472e-16)
(-1.99552e-15 2.88653e-30 5.53243e-31 3.35704 9.35699e-15 -4.72959e-15 0.133235 -3.13512e-16 -1.90471e-16)
(7.98207e-15 4.83433e-30 3.02145e-31 3.35704 -7.24344e-15 4.44986e-17 0.133235 -1.93843e-15 4.02949e-16)
(-2.67161e-15 9.49148e-30 1.18643e-30 3.27124 9.63785e-15 -4.76093e-15 0.132265 -4.33134e-16 -1.95999e-16)
(0 -4.74574e-30 -2.96609e-31 3.27124 -7.84361e-15 5.32892e-17 0.132265 -2.02982e-15 3.91826e-16)
(4.63686e-15 -1.21785e-29 -1.42615e-30 3.18819 8.86652e-15 -4.80427e-15 0.131325 -3.48334e-16 -2.01265e-16)
(5.43417e-15 9.31755e-30 1.16469e-30 3.18819 -6.09266e-15 2.43123e-17 0.131325 -2.12585e-15 3.81453e-16)
(4.59804e-15 -1.6565e-29 -2.26743e-30 3.10777 6.69589e-15 -4.87338e-15 0.130413 -3.85087e-16 -2.0926e-16)
(5.51918e-15 1.37202e-29 2.00086e-30 3.10777 -4.59725e-15 2.22728e-17 0.130413 -2.16488e-15 3.6974e-16)
(-2.03262e-15 2.86858e-30 2.71324e-31 3.02988 3.65138e-15 -4.95498e-15 0.129529 -1.76937e-16 -2.15915e-16)
(8.13047e-15 0 2.806e-31 3.02988 -3.89622e-15 -1.24763e-17 0.129529 -2.18653e-15 3.57126e-16)
(4.52283e-15 -1.16857e-29 -1.65323e-30 2.95442 2.75068e-15 -5.04516e-15 0.128671 -1.35955e-16 -2.25101e-16)
(-2.4811e-15 8.81465e-30 1.37729e-30 2.95442 -2.4946e-15 -9.70547e-17 0.128671 -2.24873e-15 3.41952e-16)
(-2.05077e-15 1.58559e-29 2.44412e-30 2.8813 2.84139e-15 -5.17549e-15 0.127838 -1.04151e-16 -2.35762e-16)
(5.76743e-15 -8.65313e-30 -1.62246e-30 2.8813 -1.97284e-15 -1.83481e-16 0.127838 -2.26112e-15 3.2388e-16)
(2.05975e-15 -7.11504e-30 -1.34848e-30 2.8104 2.77492e-15 -5.29756e-15 0.12703 -1.49229e-16 -2.44756e-16)
(0 4.24728e-30 1.06182e-30 2.8104 -2.6361e-15 -1.68333e-16 0.12703 -2.26304e-15 3.02299e-16)
(2.78518e-16 1.12094e-29 1.33509e-30 2.74166 2.36771e-15 -5.41007e-15 0.126245 -1.01991e-16 -2.55138e-16)
(5.9275e-15 -4.16945e-30 -5.21181e-31 2.74166 -2.59602e-15 -1.37023e-16 0.126245 -2.31695e-15 2.81543e-16)
(2.07754e-15 1.22957e-30 7.23693e-31 2.67499 3.69831e-15 -5.50354e-15 0.125484 -1.16883e-16 -2.62857e-16)
(8.31016e-15 0 -5.11631e-31 2.67499 -2.05331e-15 -5.11194e-17 0.125484 -2.31901e-15 2.57869e-16)
(0 4.01804e-30 1.50677e-30 2.6103 4.80132e-15 -5.57372e-15 0.124744 -2.32222e-16 -2.71543e-16)
(6.08344e-15 0 -1.00451e-30 2.6103 -2.62938e-15 8.59984e-18 0.124744 -2.31467e-15 2.36963e-16)
(2.22051e-15 7.88883e-30 1.47916e-30 2.54753 5.04052e-15 -5.63813e-15 0.124025 -2.28013e-16 -2.7911e-16)
(-1.06009e-14 -3.94441e-30 -9.86104e-31 2.54753 -3.51859e-15 -3.45608e-17 0.124025 -2.39445e-15 2.1384e-16)
(0 1.54885e-29 3.38812e-30 2.4866 5.34455e-15 -5.67633e-15 0.123326 -2.64549e-16 -2.85611e-16)
(8.41523e-15 -1.54885e-29 -3.38812e-30 2.4866 -3.83673e-15 1.94586e-17 0.123326 -2.44335e-15 1.92283e-16)
(-2.11246e-15 -1.61955e-29 -2.52301e-30 2.42744 5.10762e-15 -5.70439e-15 0.122647 -2.67132e-16 -2.92498e-16)
(2.13987e-15 1.90059e-29 3.32603e-30 2.42744 -5.08194e-15 1.56231e-16 0.122647 -2.48533e-15 1.71418e-16)
(-2.12106e-15 2.80614e-30 -1.31419e-31 2.36998 4.8779e-15 -5.73578e-15 0.121987 -2.50284e-16 -2.99644e-16)
(8.48425e-15 3.73152e-30 9.32881e-31 2.36998 -4.89006e-15 2.30111e-16 0.121987 -2.60238e-15 1.54918e-16)
(2.06217e-15 -7.32629e-30 -4.57893e-31 2.31417 5.4478e-15 -5.7664e-15 0.121346 -2.53264e-16 -3.06769e-16)
(0 3.66314e-30 4.57893e-31 2.31417 -4.34022e-15 1.691e-16 0.121346 -2.66144e-15 1.39756e-16)
(0 3.59602e-30 8.99004e-31 2.25995 6.37841e-15 -5.77165e-15 0.120722 -3.20201e-16 -3.11502e-16)
(0 0 -4.49502e-31 2.25995 -3.58788e-15 9.07403e-17 0.120722 -2.70317e-15 1.26156e-16)
(2.14658e-15 -1.68859e-29 -3.88955e-30 2.20725 7.12032e-15 -5.77981e-15 0.120115 -3.6342e-16 -3.19227e-16)
(8.58633e-15 1.41205e-29 3.08886e-30 2.20725 -1.60233e-15 7.10982e-17 0.120115 -2.73225e-15 1.11549e-16)
(2.155e-15 7.64896e-30 1.79879e-30 2.15603 7.86658e-15 -5.80449e-15 0.119524 -4.13975e-16 -3.2601e-16)
(6.66913e-15 0 -8.54488e-31 2.15603 -1.84514e-15 5.10451e-17 0.119524 -2.76898e-15 7.4507e-17)
(0 0 0 2.10623 7.34543e-15 -5.82133e-15 0.11895 -4.60836e-16 -3.3318e-16)
(8.65349e-15 0 8.91731e-31 2.10623 -2.97981e-15 3.60798e-17 0.11895 -2.81e-15 4.0568e-18)
(-4.34341e-15 2.11609e-30 7.69604e-31 2.0578 6.39664e-15 -5.85614e-15 0.11839 -3.70016e-16 -3.42347e-16)
(8.68682e-15 3.33959e-30 3.42213e-32 2.0578 -2.83017e-15 4.82503e-17 0.11839 -2.81776e-15 1.59102e-18)
(2.18e-15 -1.91033e-29 -3.26314e-30 2.0107 6.62717e-15 -5.89013e-15 0.117846 -3.67747e-16 -3.49766e-16)
(8.71998e-15 1.6392e-29 2.89238e-30 2.0107 -3.49061e-15 6.61396e-17 0.117846 -2.83876e-15 6.2227e-18)
(0 1.28733e-29 2.01145e-30 1.96487 5.90612e-15 -5.9315e-15 0.117316 -4.11297e-16 -3.60245e-16)
(-8.75298e-15 -1.28733e-29 -7.466e-31 1.96487 -4.02669e-15 1.42201e-32 0.117316 -2.91762e-15 6.16298e-33)
(3.55711e-15 0 0 1.92028 4.39377e-15 -6.01998e-15 0.116799 -2.94499e-16 -3.73834e-16)
(-3.55711e-15 0 0 1.92028 -3.07616e-15 -4.69186e-17 0.116799 -2.97682e-15 1.43007e-18)
(-4.40926e-15 1.78079e-29 4.71921e-30 1.87689 5.01075e-15 -6.10458e-15 0.116297 -2.4069e-16 -3.84425e-16)
(0 -1.24058e-29 -3.87681e-30 1.87689 -3.58472e-15 7.76215e-17 0.116297 -3.03043e-15 -1.24119e-18)
(-2.21277e-15 8.75676e-30 3.47554e-30 1.83465 6.98248e-15 -6.1457e-15 0.115807 -3.82938e-16 -3.93171e-16)
(-3.42793e-15 0 -1.52231e-30 1.83465 -4.93275e-15 2.58713e-16 0.115807 -3.11985e-15 -1.28258e-17)
(-3.36512e-15 1.49441e-29 5.23044e-30 1.79352 7.416e-15 -6.15891e-15 0.115329 -5.01539e-16 -4.0063e-16)
(-8.88349e-15 -1.19553e-29 -4.48324e-30 1.79352 -4.64959e-15 1.649e-16 0.115329 -3.26367e-15 -2.65647e-17)
(4.45788e-15 6.23197e-31 -1.6751e-31 1.75347 7.24988e-15 -6.21476e-15 0.114864 -4.53759e-16 -4.15387e-16)
(0 -5.86811e-30 -4.40461e-31 1.75347 -3.42407e-15 1.47911e-31 0.114864 -3.36132e-15 -3.4778e-17)
(1.23103e-15 6.31899e-30 3.39942e-30 1.71447 7.48836e-15 -6.325e-15 0.114411 -4.98426e-16 -4.30607e-16)
(8.94789e-15 -1.15212e-29 -4.32044e-30 1.71447 -4.61513e-15 1.24774e-16 0.114411 -3.3974e-15 -4.87321e-17)
(-2.24497e-15 2.58789e-30 4.71878e-31 1.67648 6.71033e-15 -6.41144e-15 0.113968 -5.03047e-16 -4.42924e-16)
(8.97989e-15 2.82751e-30 1.41376e-30 1.67648 -7.34297e-15 4.11051e-16 0.113968 -3.51146e-15 -4.62428e-17)
(7.63104e-15 -2.40344e-30 -9.61171e-31 1.63946 6.0552e-15 -6.5063e-15 0.113537 -4.10229e-16 -4.60119e-16)
(-3.12516e-15 -2.7757e-30 0 1.63946 -7.37269e-15 3.21117e-16 0.113537 -3.69397e-15 -2.87638e-17)
(2.26088e-15 -5.30042e-30 -1.1715e-30 1.60339 6.31779e-15 -6.63412e-15 0.113117 -4.30242e-16 -4.77852e-16)
(9.04351e-15 2.72483e-30 6.81208e-31 1.60339 -5.80876e-15 1.85999e-16 0.113117 -3.8358e-15 -1.4048e-17)
(-2.26878e-15 7.91171e-30 2.50955e-30 1.56824 7.52766e-15 -6.72723e-15 0.112706 -4.63153e-16 -4.90991e-16)
(-3.01167e-15 -2.6749e-30 -2.55059e-33 1.56824 -4.78702e-15 5.34834e-32 0.112706 -3.94961e-15 3.08149e-33)
(0 -2.62588e-30 -2.62588e-30 1.53397 8.79383e-15 -6.7771e-15 0.112306 -6.22302e-16 -5.03241e-16)
(1.82133e-14 7.87765e-30 3.30275e-30 1.53397 -5.21344e-15 3.81164e-17 0.112306 -4.01715e-15 1.88882e-17)
(-2.28451e-15 -7.81342e-30 -2.04295e-30 1.50057 8.33045e-15 -6.62933e-15 0.111915 -6.68072e-16 -4.87207e-16)
(-2.90231e-15 1.54666e-29 0 1.50057 -5.29951e-15 -2.71171e-31 0.111915 -4.15323e-15 5.34692e-46)
(0 -1.26526e-29 -4.42843e-30 1.468 7.07334e-15 -5.87862e-15 0.111533 -5.75864e-16 -4.06869e-16)
(1.83386e-14 1.26526e-29 4.4911e-30 1.468 -3.41335e-15 -7.1965e-17 0.111533 -4.31596e-15 3.21825e-17)
(-5.09703e-15 1.49082e-29 4.91636e-30 1.43623 3.84998e-15 -5.33544e-15 0.111161 -5.00107e-16 -4.20555e-16)
(2.79691e-15 -1.24208e-29 -4.34728e-30 1.43623 -4.25197e-15 3.93148e-16 0.111161 -4.36296e-15 3.9397e-17)
(2.74566e-15 -4.87727e-30 -1.82898e-30 1.40525 1.23733e-15 -5.56359e-15 0.110797 -9.30957e-17 -4.58573e-16)
(9.23152e-15 4.87727e-30 0 1.40525 -3.30607e-15 -1.05695e-45 0.110797 -4.48283e-15 0)
(2.31562e-15 -1.21073e-29 -4.77437e-30 1.37502 2.24109e-15 -5.79005e-15 0.110441 -1.02429e-16 -4.7318e-16)
(1.85249e-14 9.5758e-30 4.30914e-30 1.37502 -8.20186e-16 -3.34327e-16 0.110441 -4.51376e-15 5.29163e-17)
(-2.32333e-15 2.50158e-30 5.98913e-31 1.34554 3.71605e-15 -5.78598e-15 0.110093 -2.59615e-16 -4.7518e-16)
(9.29331e-15 4.70016e-30 1.17504e-30 1.34554 -2.46612e-15 -4.65093e-17 0.110093 -4.54349e-15 1.91733e-16)
(-2.66455e-16 6.74837e-30 1.69751e-30 1.31676 4.29178e-15 -5.77465e-15 0.109754 -3.50296e-16 -4.89101e-16)
(9.32406e-15 -4.61403e-30 -1.15351e-30 1.31676 -2.02163e-15 7.72641e-16 0.109754 -4.61927e-15 2.36125e-16)
(-4.67735e-15 9.46799e-30 2.35437e-30 1.28868 3.94614e-15 -6.19215e-15 0.109421 -3.6642e-16 -5.64756e-16)
(9.35471e-15 0 -1.13237e-30 1.28868 -6.03327e-16 3.52079e-16 0.109421 -4.62795e-15 2.809e-16)
(-2.50315e-15 -4.44648e-30 -2.22324e-30 1.26127 4.84163e-15 -6.27908e-15 0.109096 -3.04161e-16 -5.22733e-16)
(1.87705e-14 8.89296e-30 4.44648e-30 1.26127 -3.87698e-16 -4.46705e-16 0.109096 -4.68059e-15 2.93668e-16)
(0 4.365e-30 3.27375e-30 1.23452 4.38618e-15 -4.57706e-15 0.108778 -5.36822e-16 -2.82847e-16)
(6.95844e-15 0 -2.1825e-30 1.23452 1.43237e-16 2.33987e-16 0.108778 -4.74079e-15 3.22526e-16)
(-2.36152e-15 2.47516e-30 -7.5043e-30 1.20839 2.35176e-15 -1.08689e-16 0.108467 -2.34492e-16 -4.8851e-18)
(-2.41225e-15 0 0 1.20839 -3.56221e-16 6.87169e-16 0.108467 -4.7437e-15 3.84944e-16)
(2.36909e-15 1.72318e-30 -5.57755e-31 1.18289 3.83495e-15 1.86429e-29 0.108163 -1.87882e-16 0)
(0 -8.41298e-30 -4.20649e-30 1.18289 -4.88523e-17 2.53044e-16 0.108163 -4.77733e-15 4.19917e-16)
(0 4.12941e-30 3.09706e-30 1.15798 5.12169e-15 4.66562e-16 0.107864 -5.17494e-16 -4.43804e-17)
(-2.32465e-15 0 -2.0647e-30 1.15798 3.69328e-16 4.72156e-17 0.107864 -4.76739e-15 4.36796e-16)
(-2.38416e-15 1.05212e-29 6.78355e-30 1.13365 4.87031e-15 8.97581e-16 0.107572 -4.37254e-16 -4.2644e-17)
(-2.28205e-15 -8.10748e-30 -6.08061e-30 1.13365 -2.62401e-16 -1.73345e-17 0.107572 -4.7755e-15 4.55938e-16)
(-1.5143e-16 6.37651e-30 3.66551e-30 1.10988 5.10005e-15 1.99042e-15 0.107285 -4.88776e-16 -1.43615e-16)
(-1.18069e-14 0 -1.98973e-30 1.10988 -4.0115e-16 -2.10281e-16 0.107285 -4.84766e-15 4.66922e-16)
(-2.39915e-15 -1.5225e-30 -3.25027e-30 1.08667 4.9774e-15 2.04224e-15 0.107004 -4.98619e-16 -2.4262e-16)
(1.91932e-14 7.81307e-30 4.88317e-30 1.08667 -9.85646e-16 -5.81033e-17 0.107004 -4.83965e-15 4.41637e-16)
(0 -1.53398e-29 -5.75242e-30 1.06398 4.8456e-15 1.24334e-15 0.106728 -4.82782e-16 -1.59342e-16)
(9.62645e-15 1.53398e-29 5.75242e-30 1.06398 -3.66025e-15 3.47707e-16 0.106728 -4.83684e-15 4.28735e-16)
(-2.41405e-15 6.11817e-30 3.48671e-30 1.04182 5.25646e-15 1.42051e-15 0.106458 -4.90684e-16 -8.97788e-17)
(9.65622e-15 0 -1.88234e-30 1.04182 -5.05049e-15 2.37558e-16 0.106458 -5.01486e-15 4.4323e-16)
(0 7.39137e-30 1.84784e-30 1.02015 6.1939e-15 1.79609e-15 0.106192 -5.85834e-16 -2.01939e-16)