/*--------------------------------*- C++ -*----------------------------------*\
| =========                 |                                                 |
| \\      /  F ield         | OpenFOAM: The Open Source CFD Toolbox           |
|  \\    /   O peration     | Version:  2106                                  |
|   \\  /    A nd           | Website:  www.openfoam.com                      |
|    \\/     M anipulation  |                                                 |
\*---------------------------------------------------------------------------*/
FoamFile
{
    version     2.0;
    format      ascii;
    arch        "LSB;label=32;scalar=64";
    class       volVectorField;
    location    "10050";
    object      grad(T);
}
// * * * * * * * * * * * * * * * * * * * * * * * * * * * * * * * * * * * * * //

dimensions      [0 -1 0 1 0 0 0];

internalField   nonuniform List<vector> 
2000
(
(0 874.934 1.61919)
(0 874.934 1.61919)
(0 874.932 4.88778)
(0 874.932 4.88778)
(-1.98997e-16 874.927 6.78344)
(0 874.927 6.78344)
(-6.52136e-16 874.917 6.90996)
(2.60854e-15 874.917 6.90996)
(1.70024e-15 874.893 7.03868)
(-1.70024e-15 874.893 7.03868)
(3.33817e-15 874.84 7.16945)
(-9.67419e-15 874.84 7.16945)
(0 874.724 7.30198)
(8.25237e-15 874.724 7.30198)
(0 874.494 7.43569)
(2.04097e-14 874.494 7.43569)
(-3.04857e-15 874.064 7.5697)
(0 874.064 7.5697)
(0 873.314 7.70264)
(0 873.314 7.70264)
(6.08665e-15 872.074 7.83263)
(6.08665e-15 872.074 7.83263)
(4.59804e-15 870.119 7.95711)
(6.44193e-15 870.119 7.95711)
(0 867.175 8.07285)
(0 867.175 8.07285)
(-5.67996e-15 862.916 8.17599)
(-1.15163e-14 862.916 8.17599)
(-6.23532e-15 856.985 8.26224)
(-1.13052e-14 856.985 8.26224)
(1.78977e-14 849.025 8.3271)
(-2.71985e-14 849.025 8.3271)
(0 838.71 8.36635)
(1.08947e-14 838.71 8.36635)
(1.59022e-14 825.79 8.37648)
(3.18044e-14 825.79 8.37648)
(-8.53531e-15 810.127 8.35511)
(0 810.127 8.35511)
(9.12252e-15 791.726 8.30138)
(3.64901e-14 791.726 8.30138)
(-9.7104e-15 770.74 8.21598)
(7.76832e-14 770.74 8.21598)
(0 747.457 8.10114)
(2.13209e-14 747.457 8.10114)
(0 722.273 7.96028)
(4.35124e-14 722.273 7.96028)
(0 695.649 7.79763)
(2.66687e-14 695.649 7.79763)
(-3.08117e-14 668.069 7.61782)
(1.87927e-14 668.069 7.61782)
(0 639.999 7.42545)
(5.02974e-14 639.999 7.42545)
(-1.31174e-14 611.865 7.22486)
(0 611.865 7.22486)
(-1.36472e-14 584.027 7.01985)
(0 584.027 7.01985)
(0 556.779 6.81369)
(0 556.779 6.81369)
(-3.17969e-14 530.344 6.60899)
(-5.86565e-14 530.344 6.60899)
(1.51506e-14 504.885 6.40783)
(6.06025e-14 504.885 6.40783)
(0 480.507 6.21174)
(0 480.507 6.21174)
(-1.60799e-14 457.274 6.02183)
(0 457.274 6.02183)
(-1.65231e-14 435.212 5.83886)
(0 435.212 5.83886)
(0 414.32 5.66326)
(6.78105e-14 414.32 5.66326)
(0 394.577 5.49527)
(-1.53333e-14 394.577 5.49527)
(3.28248e-14 375.949 5.33494)
(5.60375e-14 375.949 5.33494)
(-1.81638e-14 358.39 5.1822)
(7.26554e-14 358.39 5.1822)
(-1.85436e-14 341.851 5.03687)
(0 341.851 5.03687)
(0 326.277 4.89874)
(7.56491e-14 326.277 4.89874)
(-3.85408e-14 311.614 4.76751)
(4.91237e-14 311.614 4.76751)
(0 297.806 4.64289)
(0 297.806 4.64289)
(0 284.801 4.52457)
(0 284.801 4.52457)
(-2.02866e-14 272.546 4.41222)
(-8.11466e-14 272.546 4.41222)
(2.06076e-14 260.993 4.30553)
(8.24304e-14 260.993 4.30553)
(2.09204e-14 250.096 4.20418)
(-8.36817e-14 250.096 4.20418)
(-2.12255e-14 239.809 4.10788)
(8.49021e-14 239.809 4.10788)
(0 230.094 4.01632)
(1.72186e-13 230.094 4.01632)
(2.1814e-14 220.91 3.92925)
(8.72561e-14 220.91 3.92925)
(1.57274e-15 212.224 3.84639)
(-1.12064e-13 212.224 3.84639)
(0 204.001 3.76751)
(4.64743e-14 204.001 3.76751)
(-4.54592e-14 196.21 3.69236)
(0 196.21 3.69236)
(0 188.825 3.62073)
(0 188.825 3.62073)
(4.3966e-14 181.817 3.55241)
(-1.36665e-13 181.817 3.55241)
(1.85014e-15 175.163 3.48722)
(-4.31603e-14 175.163 3.48722)
(-2.36809e-14 168.839 3.42497)
(0 168.839 3.42497)
(-2.70571e-14 162.826 3.36549)
(9.57072e-14 162.826 3.36549)
(-2.41682e-14 157.104 3.30863)
(0 157.104 3.30863)
(-4.88107e-14 151.654 3.25424)
(-9.76214e-14 151.654 3.25424)
(2.46384e-14 146.46 3.20218)
(-9.85536e-14 146.46 3.20218)
(0 141.506 3.15233)
(0 141.506 3.15233)
(-5.01857e-14 136.779 3.10456)
(2.00743e-13 136.779 3.10456)
(1.19097e-14 132.264 3.05877)
(6.40342e-14 132.264 3.05877)
(0 127.95 3.01484)
(0 127.95 3.01484)
(-2.5748e-14 123.825 2.97268)
(1.02992e-13 123.825 2.97268)
(0 119.878 2.9322)
(-3.52153e-14 119.878 2.9322)
(-2.61688e-14 116.099 2.89331)
(-3.457e-14 116.099 2.89331)
(0 112.479 2.85593)
(-3.39365e-14 112.479 2.85593)
(0 109.01 2.81998)
(1.06312e-13 109.01 2.81998)
(6.54082e-14 105.682 2.7854)
(-6.54082e-14 105.682 2.7854)
(-2.69763e-14 102.49 2.75212)
(1.07905e-13 102.49 2.75212)
(0 99.4242 2.72007)
(1.08687e-13 99.4242 2.72007)
(-2.73647e-14 96.4798 2.68919)
(-1.09459e-13 96.4798 2.68919)
(0 93.6501 2.65943)
(-1.10222e-13 93.6501 2.65943)
(-5.54879e-14 90.9293 2.63075)
(1.10976e-13 90.9293 2.63075)
(-5.58607e-14 88.312 2.60308)
(0 88.312 2.60308)
(0 85.7931 2.57638)
(1.12459e-13 85.7931 2.57638)
(-2.8297e-14 83.3677 2.55061)
(-1.41394e-13 83.3677 2.55061)
(2.84775e-14 81.0315 2.52573)
(0 81.0315 2.52573)
(2.8656e-14 78.78 2.5017)
(-1.14624e-13 78.78 2.5017)
(-5.76657e-14 76.6095 2.47848)
(-2.66839e-14 76.6095 2.47848)
(0 74.516 2.45604)
(0 74.516 2.45604)
(2.91814e-14 72.4961 2.43434)
(-2.33451e-13 72.4961 2.43434)
(2.93532e-14 70.5464 2.41335)
(0 70.5464 2.41335)
(-2.47811e-14 68.6638 2.39305)
(1.42875e-13 68.6638 2.39305)
(5.40193e-14 66.8453 2.37341)
(1.18769e-13 66.8453 2.37341)
(-5.97192e-14 65.0881 2.35439)
(0 65.0881 2.35439)
(-6.0051e-14 63.3895 2.33598)
(1.66989e-13 63.3895 2.33598)
(3.01901e-14 61.747 2.31815)
(2.41521e-13 61.747 2.31815)
(-3.03533e-14 60.1583 2.30088)
(0 60.1583 2.30088)
(-6.10306e-14 58.6211 2.28414)
(1.22061e-13 58.6211 2.28414)
(-3.06761e-14 57.1332 2.26793)
(1.22704e-13 57.1332 2.26793)
(-4.27458e-14 55.6927 2.2522)
(-4.27458e-14 55.6927 2.2522)
(3.0994e-14 54.2975 2.23696)
(1.23976e-13 54.2975 2.23696)
(3.11513e-14 52.9459 2.22217)
(1.24605e-13 52.9459 2.22217)
(-3.13075e-14 51.6362 2.20783)
(1.2523e-13 51.6362 2.20783)
(3.14626e-14 50.3666 2.19392)
(0 50.3666 2.19392)
(7.35352e-15 49.1357 2.18042)
(8.74966e-14 49.1357 2.18042)
(3.17698e-14 47.9419 2.16731)
(0 47.9419 2.16731)
(-3.1922e-14 46.7838 2.15459)
(9.01328e-14 46.7838 2.15459)
(6.89401e-14 45.66 2.14224)
(9.14259e-14 45.66 2.14224)
(3.61913e-14 44.5693 2.13025)
(9.27027e-14 44.5693 2.13025)
(0 43.5105 2.1186)
(-1.6502e-13 43.5105 2.1186)
(3.48771e-14 42.4823 2.10728)
(9.5209e-14 42.4823 2.10728)
(-3.26693e-14 41.4836 2.09629)
(3.4238e-14 41.4836 2.09629)
(-3.28162e-14 40.5135 2.08561)
(1.31265e-13 40.5135 2.08561)
(0 39.5707 2.07523)
(0 39.5707 2.07523)
(0 38.6545 2.06514)
(-3.23901e-14 38.6545 2.06514)
(3.32524e-14 37.7638 2.05533)
(1.3301e-13 37.7638 2.05533)
(2.1825e-15 36.8978 2.0458)
(1.02372e-13 36.8978 2.0458)
(0 36.0555 2.03653)
(1.34158e-13 36.0555 2.03653)
(-6.73643e-14 35.2362 2.02751)
(1.34729e-13 35.2362 2.02751)
(3.38241e-14 34.4391 2.01874)
(1.35296e-13 34.4391 2.01874)
(0 33.6635 2.01021)
(-1.35861e-13 33.6635 2.01021)
(0 32.9086 2.00192)
(-2.84568e-14 32.9086 2.00192)
(-6.8492e-14 32.1738 1.99384)
(0 32.1738 1.99384)
(-3.43854e-14 31.4583 1.98599)
(0 31.4583 1.98599)
(0 30.7615 1.97834)
(-1.91939e-13 30.7615 1.97834)
(6.93252e-14 30.0829 1.97091)
(-5.28553e-14 30.0829 1.97091)
(6.96007e-14 29.4219 1.96366)
(8.73148e-14 29.4219 1.96366)
(-3.49376e-14 28.7778 1.95661)
(1.3975e-13 28.7778 1.95661)
(7.01487e-14 28.1502 1.94975)
(-5.00025e-14 28.1502 1.94975)
(8.42968e-14 27.5385 1.94307)
(1.40842e-13 27.5385 1.94307)
(1.28405e-14 26.9423 1.93656)
(-4.81867e-14 26.9423 1.93656)
(0 26.361 1.93022)
(2.83852e-13 26.361 1.93022)
(-8.20532e-14 25.7941 1.92405)
(0 25.7941 1.92405)
(-4.5586e-14 25.2414 1.91803)
(2.86005e-13 25.2414 1.91803)
(8.86605e-15 24.7022 1.91217)
(-4.47506e-14 24.7022 1.91217)
(0 24.1763 1.90646)
(1.44072e-13 24.1763 1.90646)
(3.61511e-14 23.6632 1.90089)
(2.89209e-13 23.6632 1.90089)
(-3.62838e-14 23.1625 1.89546)
(1.45135e-13 23.1625 1.89546)
(-5.1435e-15 22.6738 1.89017)
(1.04105e-13 22.6738 1.89017)
(-7.30958e-14 22.1969 1.88501)
(1.46192e-13 22.1969 1.88501)
(-8.01007e-14 21.7313 1.87998)
(2.93435e-13 21.7313 1.87998)
(3.93164e-14 21.2767 1.87507)
(1.07926e-13 21.2767 1.87507)
(-3.69413e-14 20.8329 1.87028)
(-3.8596e-14 20.8329 1.87028)
(3.70717e-14 20.3994 1.86561)
(0 20.3994 1.86561)
(0 19.9761 1.86104)
(-3.71944e-14 19.9761 1.86104)
(-8.18719e-16 19.5626 1.85659)
(-3.65128e-14 19.5626 1.85659)
(-3.7461e-14 19.1586 1.85223)
(-1.49844e-13 19.1586 1.85223)
(-3.75901e-14 18.7639 1.84798)
(3.00721e-13 18.7639 1.84798)
(-3.45421e-14 18.3782 1.84382)
(1.85418e-13 18.3782 1.84382)
(-3.78474e-14 18.0012 1.83976)
(1.17481e-13 18.0012 1.83976)
(0 17.6328 1.83579)
(1.18615e-13 17.6328 1.83579)
(-7.07814e-14 17.2726 1.8319)
(1.85092e-13 17.2726 1.8319)
(0 16.9205 1.82809)
(1.52925e-13 16.9205 1.82809)
(-3.83586e-14 16.5763 1.82436)
(0 16.5763 1.82436)
(-3.84857e-14 16.2397 1.82071)
(0 16.2397 1.82071)
(-3.86125e-14 15.9104 1.81713)
(0 15.9104 1.81713)
(-2.08439e-14 15.5884 1.81362)
(-1.54956e-13 15.5884 1.81362)
(0 15.2734 1.81017)
(0 15.2734 1.81017)
(0 14.9653 1.80679)
(0 14.9653 1.80679)
(9.54844e-14 14.6638 1.80346)
(0 14.6638 1.80346)
(-3.92429e-14 14.3688 1.80019)
(1.56972e-13 14.3688 1.80019)
(-3.93683e-14 14.0801 1.79697)
(1.57473e-13 14.0801 1.79697)
(-3.94934e-14 13.7975 1.7938)
(0 13.7975 1.7938)
(0 13.5209 1.79067)
(1.58473e-13 13.5209 1.79067)
(1.16454e-14 13.2501 1.78758)
(-2.1036e-13 13.2501 1.78758)
(3.98674e-14 12.985 1.78454)
(1.5947e-13 12.985 1.78454)
(3.99917e-14 12.7254 1.78152)
(1.59967e-13 12.7254 1.78152)
(4.01157e-14 12.4712 1.77854)
(0 12.4712 1.77854)
(-4.7724e-14 12.2223 1.77559)
(2.08682e-13 12.2223 1.77559)
(-4.03631e-14 11.9785 1.77265)
(0 11.9785 1.77265)
(0 11.7396 1.76974)
(1.61946e-13 11.7396 1.76974)
(-4.06097e-14 11.5056 1.76685)
(0 11.5056 1.76685)
(4.43209e-14 11.2763 1.76396)
(0 11.2763 1.76396)
(4.35087e-14 11.0516 1.76109)
(1.63422e-13 11.0516 1.76109)
(0 10.8314 1.75822)
(1.63913e-13 10.8314 1.75822)
(-4.11005e-14 10.6156 1.75535)
(0 10.6156 1.75535)
(-4.12227e-14 10.404 1.75248)
(0 10.404 1.75248)
(-4.13447e-14 10.1966 1.7496)
(0 10.1966 1.7496)
(4.32674e-14 9.99326 1.7467)
(1.65866e-13 9.99326 1.7467)
(-8.58256e-14 9.79385 1.74379)
(1.66353e-13 9.79385 1.74379)
(0 9.59829 1.74086)
(1.28613e-13 9.59829 1.74086)
(-4.30592e-15 9.40648 1.7379)
(-3.75249e-14 9.40648 1.7379)
(-4.19518e-14 9.21832 1.73491)
(0 9.21832 1.73491)
(0 9.03372 1.73189)
(0 9.03372 1.73189)
(0 8.85259 1.72882)
(1.68773e-13 8.85259 1.72882)
(-7.46456e-15 8.67485 1.7257)
(-2.04103e-13 8.67485 1.7257)
(3.42104e-14 8.5004 1.72254)
(-3.42104e-14 8.5004 1.72254)
(-1.09721e-13 8.32916 1.71931)
(-3.4043e-13 8.32916 1.71931)
(-4.26735e-14 8.16105 1.71602)
(0 8.16105 1.71602)
(0 7.99599 1.71266)
(0 7.99599 1.71266)
(0 7.8339 1.70922)
(1.71649e-13 7.8339 1.70922)
(-8.60629e-14 7.6747 1.70569)
(3.44251e-13 7.6747 1.70569)
(-6.12344e-14 7.51831 1.70208)
(2.33836e-13 7.51831 1.70208)
(-4.32689e-14 7.36467 1.69837)
(0 7.36467 1.69837)
(0 7.2137 1.69455)
(-1.73549e-13 7.2137 1.69455)
(-4.35054e-14 7.06533 1.69061)
(-5.79294e-14 7.06533 1.69061)
(-5.68679e-14 6.91949 1.68655)
(2.31361e-13 6.91949 1.68655)
(-5.58258e-14 6.7761 1.68236)
(2.30789e-13 6.7761 1.68236)
(4.38582e-14 6.63511 1.67803)
(3.50866e-13 6.63511 1.67803)
(4.39753e-14 6.49644 1.67355)
(1.75901e-13 6.49644 1.67355)
(0 6.36004 1.66891)
(1.76368e-13 6.36004 1.66891)
(4.42085e-14 6.22583 1.66409)
(1.76834e-13 6.22583 1.66409)
(-4.43247e-14 6.09375 1.65909)
(3.54598e-13 6.09375 1.65909)
(-4.44406e-14 5.96374 1.6539)
(-1.77762e-13 5.96374 1.6539)
(0 5.83573 1.6485)
(0 5.83573 1.6485)
(5.16247e-14 5.70968 1.64287)
(-9.62959e-14 5.70968 1.64287)
(-8.95721e-14 5.5855 1.63702)
(0 5.5855 1.63702)
(-4.49005e-14 5.46315 1.63091)
(1.79602e-13 5.46315 1.63091)
(0 5.34257 1.62454)
(0 5.34257 1.62454)
(-4.51282e-14 5.22369 1.61788)
(0 5.22369 1.61788)
(-4.38952e-14 5.10645 1.61093)
(0 5.10645 1.61093)
(4.53542e-14 4.9908 1.60366)
(3.62834e-13 4.9908 1.60366)
(1.75536e-13 4.87667 1.59605)
(-2.66469e-13 4.87667 1.59605)
(9.11568e-14 4.76401 1.58809)
(0 4.76401 1.58809)
(9.13795e-14 4.65275 1.57974)
(3.65518e-13 4.65275 1.57974)
(1.25837e-13 4.54284 1.57099)
(1.03166e-13 4.54284 1.57099)
(4.59109e-14 4.43422 1.5618)
(1.83643e-13 4.43422 1.5618)
(-4.60206e-14 4.32681 1.55216)
(1.84082e-13 4.32681 1.55216)
(-4.61297e-14 4.22057 1.54204)
(0 4.22057 1.54204)
(0 4.11543 1.53139)
(2.59282e-13 4.11543 1.53139)
(-9.26919e-14 4.01131 1.5202)
(1.85384e-13 4.01131 1.5202)
(-1.18083e-13 3.90816 1.50841)
(7.16298e-14 3.90816 1.50841)
(0 3.80591 1.49601)
(3.72476e-13 3.80591 1.49601)
(0 3.70449 1.48293)
(0 3.70449 1.48293)
(4.67699e-14 3.60383 1.46915)
(-1.8708e-13 3.60383 1.46915)
(4.68739e-14 3.50384 1.4546)
(0 3.50384 1.4546)
(-2.86508e-14 3.40446 1.43924)
(0 3.40446 1.43924)
(9.41581e-14 3.3056 1.42301)
(-6.41064e-14 3.3056 1.42301)
(-6.29316e-14 3.20718 1.40584)
(2.51652e-13 3.20718 1.40584)
(0 3.10911 1.38768)
(1.89121e-13 3.10911 1.38768)
(4.73792e-14 3.01128 1.36845)
(1.89517e-13 3.01128 1.36845)
(5.9535e-14 2.91362 1.34806)
(-2.49443e-13 2.91362 1.34806)
(-4.75735e-14 2.816 1.32643)
(0 2.816 1.32643)
(-4.76688e-14 2.71832 1.30346)
(7.59288e-14 2.71832 1.30346)
(0 2.62046 1.27906)
(1.9105e-13 2.62046 1.27906)
(7.43473e-15 2.52229 1.25309)
(-1.9142e-13 2.52229 1.25309)
(1.56499e-13 2.42367 1.22545)
(2.75013e-13 2.42367 1.22545)
(5.32819e-14 2.32445 1.19598)
(1.38857e-13 2.32445 1.19598)
(-4.81222e-14 2.22449 1.16455)
(0 2.22449 1.16455)
(4.82077e-14 2.12361 1.13097)
(1.92831e-13 2.12361 1.13097)
(2.11501e-15 2.02163 1.09508)
(1.93165e-13 2.02163 1.09508)
(-4.83724e-14 1.91837 1.05666)
(1.9349e-13 1.91837 1.05666)
(4.85757e-14 1.81361 1.01551)
(0 1.81361 1.01551)
(4.85281e-14 1.70714 0.971382)
(9.53712e-14 1.70714 0.971382)
(-1.44016e-13 1.59874 0.92403)
(2.4122e-13 1.59874 0.92403)
(0 1.48818 0.873179)
(4.59539e-14 1.48818 0.873179)
(0 1.37521 0.818543)
(4.51119e-14 1.37521 0.818543)
(-3.9764e-14 1.25961 0.75982)
(2.83796e-13 1.25961 0.75982)
(-4.88678e-14 1.14113 0.696701)
(1.95471e-13 1.14113 0.696701)
(-9.16026e-14 1.01958 0.628873)
(0 1.01958 0.628873)
(0 0.894772 0.556032)
(-4.1895e-14 0.894772 0.556032)
(0 0.766548 0.477887)
(-1.96115e-13 0.766548 0.477887)
(-4.90735e-14 0.63482 0.394176)
(0 0.63482 0.394176)
(-4.91133e-14 0.499557 0.304677)
(2.75721e-13 0.499557 0.304677)
(0 0.360804 0.209216)
(1.96591e-13 0.360804 0.209216)
(2.72128e-14 0.218685 0.107677)
(-7.63891e-14 0.218685 0.107677)
(-4.91987e-14 4.09719e-07 1.51648e-07)
(3.937e-13 4.09845e-07 1.51695e-07)
(0 874.934 -1.61919)
(-2.28849e-16 874.934 -1.61919)
(-8.98622e-16 874.932 -4.88778)
(0 874.932 -4.88778)
(-3.97995e-16 874.927 -6.78344)
(0 874.927 -6.78344)
(6.52136e-16 874.917 -6.90996)
(-1.73198e-15 874.917 -6.90996)
(-2.22749e-15 874.893 -7.03868)
(0 874.893 -7.03868)
(1.584e-15 874.84 -7.16945)
(-3.33817e-15 874.84 -7.16945)
(-3.277e-15 874.724 -7.30198)
(0 874.724 -7.30198)
(5.10243e-15 874.494 -7.43569)
(0 874.494 -7.43569)
(-3.04857e-15 874.064 -7.5697)
(1.21943e-14 874.064 -7.5697)
(3.55537e-15 873.314 -7.70264)
(-2.04218e-14 873.314 -7.70264)
(2.05698e-15 872.074 -7.83263)
(-1.62873e-14 872.074 -7.83263)
(1.05731e-14 870.119 -7.95711)
(-5.97511e-15 870.119 -7.95711)
(7.31509e-16 867.175 -8.07285)
(-2.64021e-14 867.175 -8.07285)
(5.75813e-15 862.916 -8.17599)
(-3.42361e-14 862.916 -8.17599)
(6.23532e-15 856.985 -8.26224)
(-3.62465e-14 856.985 -8.26224)
(0 849.025 -8.3271)
(0 849.025 -8.3271)
(1.82667e-14 838.71 -8.36635)
(-4.03826e-14 838.71 -8.36635)
(7.95111e-15 825.79 -8.37648)
(3.18044e-14 825.79 -8.37648)
(8.53531e-15 810.127 -8.35511)
(0 810.127 -8.35511)
(1.8245e-14 791.726 -8.30138)
(-1.03067e-14 791.726 -8.30138)
(9.7104e-15 770.74 -8.21598)
(2.87238e-14 770.74 -8.21598)
(1.02964e-14 747.457 -8.10114)
(4.11857e-14 747.457 -8.10114)
(-1.08781e-14 722.273 -7.96028)
(0 722.273 -7.96028)
(2.29061e-14 695.649 -7.79763)
(0 695.649 -7.79763)
(1.20191e-14 668.069 -7.61782)
(0 668.069 -7.61782)
(0 639.999 -7.42545)
(1.84483e-14 639.999 -7.42545)
(-1.81102e-14 611.865 -7.22486)
(-1.81102e-14 611.865 -7.22486)
(2.72944e-14 584.027 -7.01985)
(0 584.027 -7.01985)
(-3.28967e-15 556.779 -6.81369)
(7.41043e-14 556.779 -6.81369)
(2.93282e-14 530.344 -6.60899)
(0 530.344 -6.60899)
(1.51506e-14 504.885 -6.40783)
(0 504.885 -6.40783)
(1.56225e-14 480.507 -6.21174)
(-1.65106e-14 480.507 -6.21174)
(3.22879e-14 457.274 -6.02183)
(-6.43194e-14 457.274 -6.02183)
(0 435.212 -5.83886)
(-8.20034e-14 435.212 -5.83886)
(0 414.32 -5.66326)
(1.56195e-14 414.32 -5.66326)
(1.73689e-14 394.577 -5.49527)
(-6.94756e-14 394.577 -5.49527)
(2.04926e-14 375.949 -5.33494)
(-1.50523e-14 375.949 -5.33494)
(-1.81638e-14 358.39 -5.1822)
(-7.26554e-14 358.39 -5.1822)
(-1.85436e-14 341.851 -5.03687)
(-1.48349e-13 341.851 -5.03687)
(-1.89123e-14 326.277 -4.89874)
(0 326.277 -4.89874)
(-1.92704e-14 311.614 -4.76751)
(0 311.614 -4.76751)
(-1.96185e-14 297.806 -4.64289)
(-1.56948e-13 297.806 -4.64289)
(3.99142e-14 284.801 -4.52457)
(0 284.801 -4.52457)
(2.02866e-14 272.546 -4.41222)
(-1.07595e-13 272.546 -4.41222)
(4.12152e-14 260.993 -4.30553)
(5.64662e-14 260.993 -4.30553)
(2.09204e-14 250.096 -4.20418)
(-8.36817e-14 250.096 -4.20418)
(-4.2451e-14 239.809 -4.10788)
(-8.49021e-14 239.809 -4.10788)
(4.30465e-14 230.094 -4.01632)
(8.6093e-14 230.094 -4.01632)
(0 220.91 -3.92925)
(2.41128e-14 220.91 -3.92925)
(-2.20982e-14 212.224 -3.84639)
(-2.00456e-13 212.224 -3.84639)
(2.2376e-14 204.001 -3.76751)
(-1.35978e-13 204.001 -3.76751)
(2.26479e-14 196.21 -3.69236)
(0 196.21 -3.69236)
(0 188.825 -3.62073)
(-1.83312e-13 188.825 -3.62073)
(2.31747e-14 181.817 -3.55241)
(0 181.817 -3.55241)
(4.68606e-14 175.163 -3.48722)
(0 175.163 -3.48722)
(0 168.839 -3.42497)
(-1.15908e-13 168.839 -3.42497)
(3.13031e-15 162.826 -3.36549)
(0 162.826 -3.36549)
(2.41682e-14 157.104 -3.30863)
(-1.37504e-13 157.104 -3.30863)
(0 151.654 -3.25424)
(-9.76214e-14 151.654 -3.25424)
(0 146.46 -3.20218)
(-9.85536e-14 146.46 -3.20218)
(2.48675e-14 141.506 -3.15233)
(0 141.506 -3.15233)
(0 136.779 -3.10456)
(-3.79192e-14 136.779 -3.10456)
(6.2539e-14 132.264 -3.05877)
(-3.72244e-14 132.264 -3.05877)
(2.5533e-14 127.95 -3.01484)
(-3.65423e-14 127.95 -3.01484)
(3.58726e-14 123.825 -2.97268)
(-1.38865e-13 123.825 -2.97268)
(0 119.878 -2.9322)
(0 119.878 -2.9322)
(6.07388e-14 116.099 -2.89331)
(-1.39245e-13 116.099 -2.89331)
(3.39365e-14 112.479 -2.85593)
(-1.39435e-13 112.479 -2.85593)
(3.33146e-14 109.01 -2.81998)
(0 109.01 -2.81998)
(-2.67784e-14 105.682 -2.7854)
(2.14227e-13 105.682 -2.7854)
(0 102.49 -2.75212)
(0 102.49 -2.75212)
(2.71717e-14 99.4242 -2.72007)
(-1.08687e-13 99.4242 -2.72007)
(2.73647e-14 96.4798 -2.68919)
(-1.09459e-13 96.4798 -2.68919)
(6.07441e-14 93.6501 -2.65943)
(-1.90071e-13 93.6501 -2.65943)
(-2.7744e-14 90.9293 -2.63075)
(-2.98155e-14 90.9293 -2.63075)
(0 88.312 -2.60308)
(0 88.312 -2.60308)
(-2.87328e-14 85.7931 -2.57638)
(1.41191e-13 85.7931 -2.57638)
(-9.07601e-17 83.3677 -2.55061)
(-4.52752e-13 83.3677 -2.55061)
(5.69549e-14 81.0315 -2.52573)
(-1.1391e-13 81.0315 -2.52573)
(-2.8656e-14 78.78 -2.5017)
(0 78.78 -2.5017)
(-2.88329e-14 76.6095 -2.47848)
(-1.15331e-13 76.6095 -2.47848)
(-5.80159e-14 74.516 -2.45604)
(-1.16032e-13 74.516 -2.45604)
(-2.91814e-14 72.4961 -2.43434)
(-2.84881e-13 72.4961 -2.43434)
(5.87064e-14 70.5464 -2.41335)
(-1.17413e-13 70.5464 -2.41335)
(2.95235e-14 68.6638 -2.39305)
(1.18094e-13 68.6638 -2.39305)
(0 66.8453 -2.37341)
(1.18769e-13 66.8453 -2.37341)
(-1.79028e-14 65.0881 -2.35439)
(-1.19438e-13 65.0881 -2.35439)
(-1.06938e-13 63.3895 -2.33598)
(1.20102e-13 63.3895 -2.33598)
(7.62181e-14 61.747 -2.31815)
(-4.6028e-14 61.747 -2.31815)
(1.48312e-14 60.1583 -2.30088)
(0 60.1583 -2.30088)
(0 58.6211 -2.28414)
(-4.43566e-14 58.6211 -2.28414)
(3.06761e-14 57.1332 -2.26793)
(1.22704e-13 57.1332 -2.26793)
(0 55.6927 -2.2522)
(-1.23342e-13 55.6927 -2.2522)
(0 54.2975 -2.23696)
(-4.19625e-14 54.2975 -2.23696)
(3.11513e-14 52.9459 -2.22217)
(1.24605e-13 52.9459 -2.22217)
(0 51.6362 -2.20783)
(0 51.6362 -2.20783)
(0 50.3666 -2.19392)
(-2.51701e-13 50.3666 -2.19392)
(0 49.1357 -2.18042)
(0 49.1357 -2.18042)
(3.17698e-14 47.9419 -2.16731)
(-1.27079e-13 47.9419 -2.16731)
(3.1922e-14 46.7838 -2.15459)
(0 46.7838 -2.15459)
(3.20732e-14 45.66 -2.14224)
(2.56586e-13 45.66 -2.14224)
(3.22235e-14 44.5693 -2.13025)
(0 44.5693 -2.13025)
(3.23729e-14 43.5105 -2.1186)
(-1.6502e-13 43.5105 -2.1186)
(-2.35557e-15 42.4823 -2.10728)
(1.30086e-13 42.4823 -2.10728)
(0 41.4836 -2.09629)
(0 41.4836 -2.09629)
(-3.28162e-14 40.5135 -2.08561)
(-1.31265e-13 40.5135 -2.08561)
(0 39.5707 -2.07523)
(0 39.5707 -2.07523)
(0 38.6545 -2.06514)
(-3.23901e-14 38.6545 -2.06514)
(0 37.7638 -2.05533)
(0 37.7638 -2.05533)
(6.24277e-14 36.8978 -2.0458)
(-1.64799e-13 36.8978 -2.0458)
(-3.06419e-14 36.0555 -2.03653)
(-3.06419e-14 36.0555 -2.03653)
(0 35.2362 -2.02751)
(0 35.2362 -2.02751)
(4.29491e-15 34.4391 -2.01874)
(0 34.4391 -2.01874)
(-3.39653e-14 33.6635 -2.01021)
(0 33.6635 -2.01021)
(-3.4106e-14 32.9086 -2.00192)
(-5.69137e-14 32.9086 -2.00192)
(-2.16248e-14 32.1738 -1.99384)
(0 32.1738 -1.99384)
(0 31.4583 -1.98599)
(-5.48469e-14 31.4583 -1.98599)
(-6.90486e-14 30.7615 -1.97834)
(-2.76194e-13 30.7615 -1.97834)
(0 30.0829 -1.97091)
(0 30.0829 -1.97091)
(3.48004e-14 29.4219 -1.96366)
(0 29.4219 -1.96366)
(-5.09359e-14 28.7778 -1.95661)
(1.3975e-13 28.7778 -1.95661)
(0 28.1502 -1.94975)
(-1.903e-13 28.1502 -1.94975)
(0 27.5385 -1.94307)
(-1.40842e-13 27.5385 -1.94307)
(-3.53463e-14 26.9423 -1.93656)
(-1.41385e-13 26.9423 -1.93656)
(0 26.361 -1.93022)
(9.46224e-14 26.361 -1.93022)
(3.56163e-14 25.7941 -1.92405)
(0 25.7941 -1.92405)
(7.15013e-14 25.2414 -1.91803)
(1.43003e-13 25.2414 -1.91803)
(-3.58846e-14 24.7022 -1.91217)
(9.87877e-14 24.7022 -1.91217)
(-4.39306e-14 24.1763 -1.90646)
(-4.39306e-14 24.1763 -1.90646)
(3.61511e-14 23.6632 -1.90089)
(0 23.6632 -1.90089)
(3.62838e-14 23.1625 -1.89546)
(1.45135e-13 23.1625 -1.89546)
(7.79755e-14 22.6738 -1.89017)
(1.04105e-13 22.6738 -1.89017)
(3.65479e-14 22.1969 -1.88501)
(0 22.1969 -1.88501)
(4.00503e-14 21.7313 -1.87998)
(-1.46718e-13 21.7313 -1.87998)
(7.6127e-14 21.2767 -1.87507)
(-3.93164e-14 21.2767 -1.87507)
(1.65468e-15 20.8329 -1.87028)
(0 20.8329 -1.87028)
(3.78887e-14 20.3994 -1.86561)
(-3.78887e-14 20.3994 -1.86561)
(7.38939e-18 19.9761 -1.86104)
(0 19.9761 -1.86104)
(1.11176e-13 19.5626 -1.85659)
(0 19.5626 -1.85659)
(3.58438e-14 19.1586 -1.85223)
(0 19.1586 -1.85223)
(3.75901e-14 18.7639 -1.84798)
(3.00721e-13 18.7639 -1.84798)
(3.45421e-14 18.3782 -1.84382)
(-3.45421e-14 18.3782 -1.84382)
(-1.05666e-13 18.0012 -1.83976)
(0 18.0012 -1.83976)
(-3.79756e-14 17.6328 -1.83579)
(0 17.6328 -1.83579)
(0 17.2726 -1.8319)
(0 17.2726 -1.8319)
(3.82312e-14 16.9205 -1.82809)
(0 16.9205 -1.82809)
(3.14912e-14 16.5763 -1.82436)
(0 16.5763 -1.82436)
(7.69713e-14 16.2397 -1.82071)
(-1.53943e-13 16.2397 -1.82071)
(7.7225e-14 15.9104 -1.81713)
(-1.5445e-13 15.9104 -1.81713)
(-3.87391e-14 15.5884 -1.81362)
(-4.64869e-13 15.5884 -1.81362)
(-3.88654e-14 15.2734 -1.81017)
(0 15.2734 -1.81017)
(0 14.9653 -1.80679)
(9.85466e-14 14.9653 -1.80679)
(0 14.6638 -1.80346)
(0 14.6638 -1.80346)
(3.92429e-14 14.3688 -1.80019)
(0 14.3688 -1.80019)
(-3.93683e-14 14.0801 -1.79697)
(-2.11793e-13 14.0801 -1.79697)
(0 13.7975 -1.7938)
(0 13.7975 -1.7938)
(3.96183e-14 13.5209 -1.79067)
(1.58473e-13 13.5209 -1.79067)
(7.94859e-14 13.2501 -1.78758)
(-1.58972e-13 13.2501 -1.78758)
(0 12.985 -1.78454)
(-1.5947e-13 12.985 -1.78454)
(3.99917e-14 12.7254 -1.78152)
(0 12.7254 -1.78152)
(-4.86148e-14 12.4712 -1.77854)
(-1.60463e-13 12.4712 -1.77854)
(0 12.2223 -1.77559)
(-3.6964e-13 12.2223 -1.77559)
(-4.68495e-14 11.9785 -1.77265)
(0 11.9785 -1.77265)
(8.09731e-14 11.7396 -1.76974)
(1.61946e-13 11.7396 -1.76974)
(4.06097e-14 11.5056 -1.76685)
(0 11.5056 -1.76685)
(0 11.2763 -1.76396)
(1.62931e-13 11.2763 -1.76396)
(4.08555e-14 11.0516 -1.76109)
(-1.63422e-13 11.0516 -1.76109)
(0 10.8314 -1.75822)
(-1.63913e-13 10.8314 -1.75822)
(0 10.6156 -1.75535)
(0 10.6156 -1.75535)
(4.12227e-14 10.404 -1.75248)
(-2.06051e-13 10.404 -1.75248)
(8.26895e-14 10.1966 -1.7496)
(-1.65379e-13 10.1966 -1.7496)
(4.14666e-14 9.99326 -1.7467)
(1.262e-13 9.99326 -1.7467)
(8.31763e-14 9.79385 -1.74379)
(1.27414e-13 9.79385 -1.74379)
(7.99349e-14 9.59829 -1.74086)
(-3.82253e-14 9.59829 -1.74086)
(-4.30592e-15 9.40648 -1.7379)
(-3.75249e-14 9.40648 -1.7379)
(4.19518e-14 9.21832 -1.73491)
(-1.67807e-13 9.21832 -1.73491)
(4.20726e-14 9.03372 -1.73189)
(1.32128e-13 9.03372 -1.73189)
(1.19886e-13 8.85259 -1.72882)
(-3.54995e-14 8.85259 -1.72882)
(0 8.67485 -1.7257)
(2.04103e-13 8.67485 -1.7257)
(-4.24338e-14 8.5004 -1.72254)
(-2.03945e-13 8.5004 -1.72254)
(8.51075e-14 8.32916 -1.71931)
(-1.70215e-13 8.32916 -1.71931)
(-4.26735e-14 8.16105 -1.71602)
(-4.07324e-13 8.16105 -1.71602)
(4.2793e-14 7.99599 -1.71266)
(-1.71172e-13 7.99599 -1.71266)
(-6.35418e-14 7.8339 -1.70922)
(1.08108e-13 7.8339 -1.70922)
(2.36854e-14 7.6747 -1.70569)
(1.72126e-13 7.6747 -1.70569)
(1.04385e-13 7.51831 -1.70208)
(-1.72601e-13 7.51831 -1.70208)
(-1.68434e-14 7.36467 -1.69837)
(0 7.36467 -1.69837)
(0 7.2137 -1.69455)
(-2.3256e-13 7.2137 -1.69455)
(0 7.06533 -1.69061)
(-1.74022e-13 7.06533 -1.69061)
(0 6.91949 -1.68655)
(-1.74493e-13 6.91949 -1.68655)
(0 6.7761 -1.68236)
(0 6.7761 -1.68236)
(9.86611e-14 6.63511 -1.67803)
(-5.48028e-14 6.63511 -1.67803)
(4.39753e-14 6.49644 -1.67355)
(1.75901e-13 6.49644 -1.67355)
(4.40921e-14 6.36004 -1.66891)
(0 6.36004 -1.66891)
(0 6.22583 -1.66409)
(1.76834e-13 6.22583 -1.66409)
(0 6.09375 -1.65909)
(-5.08949e-14 6.09375 -1.65909)
(0 5.96374 -1.6539)
(-1.77762e-13 5.96374 -1.6539)
(-4.90467e-14 5.83573 -1.6485)
(0 5.83573 -1.6485)
(3.47673e-15 5.70968 -1.64287)
(-4.8148e-14 5.70968 -1.64287)
(-4.4786e-14 5.5855 -1.63702)
(-1.79144e-13 5.5855 -1.63702)
(-4.49005e-14 5.46315 -1.63091)
(-2.26001e-13 5.46315 -1.63091)
(0 5.34257 -1.62454)
(0 5.34257 -1.62454)
(4.47146e-14 5.22369 -1.61788)
(-3.61025e-13 5.22369 -1.61788)
(4.38952e-14 5.10645 -1.61093)
(-2.24861e-13 5.10645 -1.61093)
(-4.30909e-14 4.9908 -1.60366)
(4.30909e-14 4.9908 -1.60366)
(8.46025e-14 4.87667 -1.59605)
(-2.66469e-13 4.87667 -1.59605)
(-4.05231e-15 4.76401 -1.58809)
(0 4.76401 -1.58809)
(5.06143e-14 4.65275 -1.57974)
(1.01229e-13 4.65275 -1.57974)
(9.16011e-14 4.54284 -1.57099)
(0 4.54284 -1.57099)
(1.70391e-13 4.43422 -1.5618)
(-2.62213e-13 4.43422 -1.5618)
(1.2315e-13 4.32681 -1.55216)
(-7.71298e-14 4.32681 -1.55216)
(-4.61297e-14 4.22057 -1.54204)
(-7.57164e-14 4.22057 -1.54204)
(7.4329e-14 4.11543 -1.53139)
(1.84953e-13 4.11543 -1.53139)
(-4.6346e-14 4.01131 -1.5202)
(1.12417e-13 4.01131 -1.5202)
(7.16298e-14 3.90816 -1.50841)
(-2.57442e-13 3.90816 -1.50841)
(0 3.80591 -1.49601)
(-2.56555e-13 3.80591 -1.49601)
(-4.66651e-14 3.70449 -1.48293)
(-2.55689e-13 3.70449 -1.48293)
(9.35398e-14 3.60383 -1.46915)
(-1.8708e-13 3.60383 -1.46915)
(-1.96481e-14 3.50384 -1.4546)
(6.6522e-14 3.50384 -1.4546)
(0 3.40446 -1.43924)
(1.22605e-13 3.40446 -1.43924)
(0 3.3056 -1.42301)
(0 3.3056 -1.42301)
(0 3.20718 -1.40584)
(-2.51652e-13 3.20718 -1.40584)
(0 3.10911 -1.38768)
(0 3.10911 -1.38768)
(-1.32672e-14 3.01128 -1.36845)
(1.89517e-13 3.01128 -1.36845)
(4.7477e-14 2.91362 -1.34806)
(-3.79816e-13 2.91362 -1.34806)
(0 2.816 -1.32643)
(0 2.816 -1.32643)
(-6.70774e-14 2.71832 -1.30346)
(0 2.71832 -1.30346)
(4.77626e-14 2.62046 -1.27906)
(-2.47372e-13 2.62046 -1.27906)
(-1.03145e-13 2.52229 -1.25309)
(1.9142e-13 2.52229 -1.25309)
(4.16149e-14 2.42367 -1.22545)
(1.91783e-13 2.42367 -1.22545)
(4.27878e-14 2.32445 -1.19598)
(0 2.32445 -1.19598)
(-5.64889e-14 2.22449 -1.16455)
(-5.23055e-14 2.22449 -1.16455)
(4.82077e-14 2.12361 -1.13097)
(0 2.12361 -1.13097)
(-2.11501e-15 2.02163 -1.09508)
(-2.43571e-13 2.02163 -1.09508)
(-5.05925e-14 1.91837 -1.05666)
(2.92455e-13 1.91837 -1.05666)
(0 1.81361 -1.01551)
(-1.93806e-13 1.81361 -1.01551)
(4.85281e-14 1.70714 -0.971382)
(-2.41798e-13 1.70714 -0.971382)
(1.79029e-15 1.59874 -0.92403)
(9.36235e-14 1.59874 -0.92403)
(4.59539e-14 1.48818 -0.873179)
(1.94693e-13 1.48818 -0.873179)
(0 1.37521 -0.818543)
(-3.89931e-13 1.37521 -0.818543)
(0 1.25961 -0.75982)
(-1.95225e-13 1.25961 -0.75982)
(4.88678e-14 1.14113 -0.696701)
(-1.95471e-13 1.14113 -0.696701)
(4.89256e-14 1.01958 -0.628873)
(1.10348e-13 1.01958 -0.628873)
(4.89793e-14 0.894772 -0.556032)
(-3.91835e-13 0.894772 -0.556032)
(9.80575e-14 0.766548 -0.477887)
(-1.96115e-13 0.766548 -0.477887)
(0 0.63482 -0.394176)
(0 0.63482 -0.394176)
(-8.87471e-14 0.499557 -0.304677)
(1.96453e-13 0.499557 -0.304677)
(0 0.360804 -0.209216)
(-1.96591e-13 0.360804 -0.209216)
(-4.91763e-14 0.218685 -0.107677)
(1.20316e-13 0.218685 -0.107677)
(4.91987e-14 4.09519e-07 -1.51574e-07)
(1.97015e-13 4.09727e-07 -1.51651e-07)
(4.92538e-14 -1.14953e-07 4.25495e-08)
(1.96795e-13 -7.35176e-08 2.72108e-08)
(-7.63891e-14 -0.218684 0.107676)
(3.9341e-13 -0.218684 0.107676)
(2.86674e-14 -0.360804 0.209216)
(-7.78151e-14 -0.360804 0.209216)
(0 -0.499557 0.304677)
(1.96453e-13 -0.499557 0.304677)
(0 -0.63482 0.394176)
(3.92588e-13 -0.63482 0.394176)
(-4.90287e-14 -0.766548 0.477887)
(-1.96115e-13 -0.766548 0.477887)
(0 -0.894772 0.556032)
(0 -0.894772 0.556032)
(-4.89256e-14 -1.01958 0.628873)
(-1.95702e-13 -1.01958 0.628873)
(0 -1.14113 0.696701)
(0 -1.14113 0.696701)
(9.30915e-14 -1.25961 0.75982)
(0 -1.25961 0.75982)
(0 -1.37521 0.818543)
(1.94966e-13 -1.37521 0.818543)
(0 -1.48818 0.873179)
(1.94693e-13 -1.48818 0.873179)
(0 -1.59874 0.92403)
(0 -1.59874 0.92403)
(-4.85281e-14 -1.70714 0.971382)
(-1.94112e-13 -1.70714 0.971382)
(1.94054e-13 -1.81361 1.01551)
(-9.71514e-14 -1.81361 1.01551)
(-9.89649e-14 -1.91837 1.05666)
(9.89649e-14 -1.91837 1.05666)
(9.65823e-14 -2.02164 1.09508)
(9.23522e-14 -2.02164 1.09508)
(-4.82077e-14 -2.12361 1.13097)
(-1.92831e-13 -2.12361 1.13097)
(-9.62444e-14 -2.22449 1.16455)
(0 -2.22449 1.16455)