/*--------------------------------*- C++ -*----------------------------------*\
| =========                 |                                                 |
| \\      /  F ield         | OpenFOAM: The Open Source CFD Toolbox           |
|  \\    /   O peration     | Version:  2106                                  |
|   \\  /    A nd           | Website:  www.openfoam.com                      |
|    \\/     M anipulation  |                                                 |
\*---------------------------------------------------------------------------*/
FoamFile
{
    version     2.0;
    format      ascii;
    arch        "LSB;label=32;scalar=64";
    class       volScalarField;
    location    "10050";
    object      p;
}
// * * * * * * * * * * * * * * * * * * * * * * * * * * * * * * * * * * * * * //

dimensions      [0 2 -2 0 0 0 0];

internalField   nonuniform List<scalar> 
2000
(
6.65548e-16
1.39934e-14
1.40574e-15
1.39935e-14
1.52773e-15
1.39936e-14
1.49285e-15
1.39938e-14
1.48709e-15
1.39941e-14
1.50338e-15
1.39944e-14
1.52164e-15
1.39947e-14
1.53897e-15
1.3995e-14
1.55598e-15
1.39954e-14
1.57279e-15
1.39958e-14
1.5892e-15
1.39962e-14
1.60525e-15
1.39966e-14
1.62088e-15
1.39969e-14
1.63616e-15
1.39973e-14
1.65103e-15
1.39976e-14
1.66556e-15
1.39979e-14
1.68e-15
1.39981e-14
1.69431e-15
1.39982e-14
1.70854e-15
1.39984e-14
1.72272e-15
1.39983e-14
1.73691e-15
1.39982e-14
1.75117e-15
1.3998e-14
1.7655e-15
1.39977e-14
1.78015e-15
1.39974e-14
1.79494e-15
1.3997e-14
1.80995e-15
1.39965e-14
1.82522e-15
1.3996e-14
1.84107e-15
1.39954e-14
1.85729e-15
1.39948e-14
1.87384e-15
1.39941e-14
1.89046e-15
1.39933e-14
1.90769e-15
1.39925e-14
1.92526e-15
1.39919e-14
1.94318e-15
1.39912e-14
1.96144e-15
1.39905e-14
1.98026e-15
1.39899e-14
1.99973e-15
1.39889e-14
2.02003e-15
1.39879e-14
2.04081e-15
1.39866e-14
2.06242e-15
1.39849e-14
2.08451e-15
1.39832e-14
2.10723e-15
1.39814e-14
2.13078e-15
1.39794e-14
2.15555e-15
1.39766e-14
2.18053e-15
1.39735e-14
2.20629e-15
1.39701e-14
2.23262e-15
1.39662e-14
2.25993e-15
1.39623e-14
2.2882e-15
1.39587e-14
2.31766e-15
1.39552e-14
2.34709e-15
1.39505e-14
2.37814e-15
1.39453e-14
2.4088e-15
1.394e-14
2.44157e-15
1.39343e-14
2.47513e-15
1.3928e-14
2.50782e-15
1.3921e-14
2.54201e-15
1.3913e-14
2.57823e-15
1.39052e-14
2.61562e-15
1.38966e-14
2.65355e-15
1.38869e-14
2.69313e-15
1.38753e-14
2.73373e-15
1.38625e-14
2.77589e-15
1.38498e-14
2.81894e-15
1.38378e-14
2.86471e-15
1.38241e-14
2.91125e-15
1.38106e-14
2.95848e-15
1.37974e-14
3.0063e-15
1.37826e-14
3.05463e-15
1.37663e-14
3.10404e-15
1.37505e-14
3.15374e-15
1.37339e-14
3.20502e-15
1.3718e-14
3.25707e-15
1.37028e-14
3.30909e-15
1.36864e-14
3.36379e-15
1.36661e-14
3.41822e-15
1.36467e-14
3.47368e-15
1.36285e-14
3.53154e-15
1.36116e-14
3.58795e-15
1.35947e-14
3.64878e-15
1.35755e-14
3.71165e-15
1.35572e-14
3.77416e-15
1.35407e-14
3.83767e-15
1.35261e-14
3.90283e-15
1.35082e-14
3.96947e-15
1.34885e-14
4.03666e-15
1.34704e-14
4.10423e-15
1.34556e-14
4.17522e-15
1.34378e-14
4.24624e-15
1.34203e-14
4.3171e-15
1.34051e-14
4.38925e-15
1.33888e-14
4.46084e-15
1.33735e-14
4.53165e-15
1.33608e-14
4.59807e-15
1.33459e-14
4.66661e-15
1.33307e-14
4.73705e-15
1.3317e-14
4.80917e-15
1.33033e-14
4.88448e-15
1.32865e-14
4.96451e-15
1.32647e-14
5.04558e-15
1.32418e-14
5.13273e-15
1.32177e-14
5.22048e-15
1.31981e-14
5.31038e-15
1.31761e-14
5.40041e-15
1.31499e-14
5.49033e-15
1.31234e-14
5.5799e-15
1.31038e-14
5.66704e-15
1.3088e-14
5.75329e-15
1.30724e-14
5.84017e-15
1.30518e-14
5.92926e-15
1.30338e-14
6.01292e-15
1.3013e-14
6.09638e-15
1.29933e-14
6.17746e-15
1.29768e-14
6.25772e-15
1.29638e-14
6.34054e-15
1.29471e-14
6.42564e-15
1.29214e-14
6.51272e-15
1.29055e-14
6.59772e-15
1.28885e-14
6.67652e-15
1.28706e-14
6.7639e-15
1.28446e-14
6.84821e-15
1.28295e-14
6.9291e-15
1.2822e-14
7.01381e-15
1.28147e-14
7.10199e-15
1.28079e-14
7.18946e-15
1.27981e-14
7.272e-15
1.27933e-14
7.34532e-15
1.27938e-14
7.41278e-15
1.28001e-14
7.48159e-15
1.2797e-14
7.56289e-15
1.27965e-14
7.64072e-15
1.2803e-14
7.71847e-15
1.28169e-14
7.7956e-15
1.28231e-14
7.8794e-15
1.28219e-14
7.95378e-15
1.28372e-14
8.02985e-15
1.285e-14
8.11486e-15
1.28529e-14
8.20047e-15
1.28502e-14
8.28618e-15
1.28462e-14
8.37153e-15
1.28294e-14
8.46003e-15
1.27883e-14
8.54353e-15
1.27623e-14
8.62555e-15
1.27515e-14
8.70953e-15
1.27327e-14
8.79903e-15
1.271e-14
8.87403e-15
1.26914e-14
8.94983e-15
1.26811e-14
9.02596e-15
1.26635e-14
9.10195e-15
1.26468e-14
9.17739e-15
1.26309e-14
9.23608e-15
1.26161e-14
9.30106e-15
1.25868e-14
9.37189e-15
1.25511e-14
9.47193e-15
1.25167e-14
9.56179e-15
1.24912e-14
9.63346e-15
1.24742e-14
9.71017e-15
1.2458e-14
9.78373e-15
1.24425e-14
9.86949e-15
1.24039e-14
9.95173e-15
1.2373e-14
1.00382e-14
1.2365e-14
1.01288e-14
1.23482e-14
1.02078e-14
1.23375e-14
1.02829e-14
1.23247e-14
1.03697e-14
1.23252e-14
1.04602e-14
1.23071e-14
1.05468e-14
1.2285e-14
1.06531e-14
1.22734e-14
1.07486e-14
1.22788e-14
1.08334e-14
1.22849e-14
1.09154e-14
1.22675e-14
1.10026e-14
1.22567e-14
1.10647e-14
1.22434e-14
1.11479e-14
1.22497e-14
1.12217e-14
1.22668e-14
1.13092e-14
1.2263e-14
1.13727e-14
1.22599e-14
1.14507e-14
1.22565e-14
1.15209e-14
1.22667e-14
1.16214e-14
1.22586e-14
1.17235e-14
1.22828e-14
1.17981e-14
1.22768e-14
1.18613e-14
1.22686e-14
1.19294e-14
1.22716e-14
1.20029e-14
1.22842e-14
1.20679e-14
1.23346e-14
1.21251e-14
1.24219e-14
1.22023e-14
1.24575e-14
1.22702e-14
1.24851e-14
1.23295e-14
1.24881e-14
1.23814e-14
1.25085e-14
1.2441e-14
1.25448e-14
1.24942e-14
1.25962e-14
1.25407e-14
1.26476e-14
1.25945e-14
1.26693e-14
1.26707e-14
1.27324e-14
1.27116e-14
1.28352e-14
1.27577e-14
1.29083e-14
1.28071e-14
1.29816e-14
1.28584e-14
1.30139e-14
1.2912e-14
1.30181e-14
1.29552e-14
1.30904e-14
1.30425e-14
1.31334e-14
1.31198e-14
1.3159e-14
1.31473e-14
1.32063e-14
1.3193e-14
1.33047e-14
1.3239e-14
1.33461e-14
1.32987e-14
1.33718e-14
1.3373e-14
1.34479e-14
1.34344e-14
1.35056e-14
1.34963e-14
1.35571e-14
1.35455e-14
1.36018e-14
1.354e-14
1.36277e-14
1.36104e-14
1.36646e-14
1.36494e-14
1.37105e-14
1.36822e-14
1.37381e-14
1.37606e-14
1.3799e-14
1.38059e-14
1.38668e-14
1.38451e-14
1.3891e-14
1.38789e-14
1.39221e-14
1.39819e-14
1.3985e-14
1.40055e-14
1.39989e-14
1.4026e-14
1.40372e-14
1.4116e-14
1.41023e-14
1.42276e-14
1.41919e-14
1.42665e-14
1.42293e-14
1.42836e-14
1.4239e-14
1.43014e-14
1.42913e-14
1.43158e-14
1.43387e-14
1.43692e-14
1.43633e-14
1.44168e-14
1.44348e-14
1.44544e-14
1.45084e-14
1.44758e-14
1.45657e-14
1.44769e-14
1.46108e-14
1.45648e-14
1.46736e-14
1.45359e-14
1.4776e-14
1.45276e-14
1.48242e-14
1.45499e-14
1.48329e-14
1.45399e-14
1.48758e-14
1.45746e-14
1.48794e-14
1.46064e-14
1.48621e-14
1.46885e-14
1.4794e-14
1.47891e-14
1.4803e-14
1.47822e-14
1.48032e-14
1.47959e-14
1.47944e-14
1.47936e-14
1.47704e-14
1.47357e-14
1.47951e-14
1.4784e-14
1.48003e-14
1.48056e-14
1.47958e-14
1.47719e-14
1.47777e-14
1.02796e-14
1.08552e-14
1.02797e-14
1.08553e-14
1.02799e-14
1.08554e-14
1.02802e-14
1.08556e-14
1.02805e-14
1.08558e-14
1.0281e-14
1.0856e-14
1.02815e-14
1.08563e-14
1.02822e-14
1.08567e-14
1.02829e-14
1.08571e-14
1.02838e-14
1.08576e-14
1.02847e-14
1.08582e-14
1.02858e-14
1.08588e-14
1.02869e-14
1.08595e-14
1.02882e-14
1.08602e-14
1.02895e-14
1.0861e-14
1.0291e-14
1.08619e-14
1.02925e-14
1.08629e-14
1.02941e-14
1.08639e-14
1.02959e-14
1.0865e-14
1.02977e-14
1.08663e-14
1.02997e-14
1.08676e-14
1.0302e-14
1.08691e-14
1.03042e-14
1.08708e-14
1.03065e-14
1.08727e-14
1.0309e-14
1.08748e-14
1.03115e-14
1.08773e-14
1.03142e-14
1.08801e-14
1.03169e-14
1.08829e-14
1.03199e-14
1.0886e-14
1.03229e-14
1.08895e-14
1.0326e-14
1.08934e-14
1.03293e-14
1.08976e-14
1.03328e-14
1.09019e-14
1.03364e-14
1.09069e-14
1.03401e-14
1.09118e-14
1.03441e-14
1.09172e-14
1.03485e-14
1.09231e-14
1.03527e-14
1.09295e-14
1.03571e-14
1.09364e-14
1.03622e-14
1.09431e-14
1.03674e-14
1.09504e-14
1.03726e-14
1.09584e-14
1.03783e-14
1.09664e-14
1.03841e-14
1.09748e-14
1.03902e-14
1.09834e-14
1.03972e-14
1.0992e-14
1.04051e-14
1.10005e-14
1.0413e-14
1.10089e-14
1.04207e-14
1.1019e-14
1.0429e-14
1.10299e-14
1.04375e-14
1.10394e-14
1.04464e-14
1.1049e-14
1.04555e-14
1.10594e-14
1.0465e-14
1.10694e-14
1.04746e-14
1.10799e-14
1.04847e-14
1.10915e-14
1.04953e-14
1.11024e-14
1.0505e-14
1.11144e-14
1.05152e-14
1.11265e-14
1.05263e-14
1.1138e-14
1.05378e-14
1.11489e-14
1.05486e-14
1.1161e-14
1.05585e-14
1.11732e-14
1.05702e-14
1.11859e-14
1.05823e-14
1.1198e-14
1.05936e-14
1.12107e-14
1.06035e-14
1.1224e-14
1.06139e-14
1.1236e-14
1.06255e-14
1.12453e-14
1.06376e-14
1.12558e-14
1.06476e-14
1.12696e-14
1.06582e-14
1.12841e-14
1.06687e-14
1.12972e-14
1.06784e-14
1.13094e-14
1.06909e-14
1.13209e-14
1.07027e-14
1.13315e-14
1.07137e-14
1.13493e-14
1.07233e-14
1.13693e-14
1.07358e-14
1.13826e-14
1.07477e-14
1.13942e-14
1.07589e-14
1.14103e-14
1.07694e-14
1.14287e-14
1.07785e-14
1.14454e-14
1.07877e-14
1.14574e-14
1.07986e-14
1.14692e-14
1.08081e-14
1.14874e-14
1.08178e-14
1.15086e-14
1.08262e-14
1.15251e-14
1.08331e-14
1.15398e-14
1.08403e-14
1.15545e-14
1.08511e-14
1.15675e-14
1.08623e-14
1.15787e-14
1.08721e-14
1.15933e-14
1.08874e-14
1.16044e-14
1.08998e-14
1.16155e-14
1.09144e-14
1.16299e-14
1.09279e-14
1.16426e-14
1.0942e-14
1.16536e-14
1.09567e-14
1.1661e-14
1.09703e-14
1.16648e-14
1.0983e-14
1.16669e-14
1.09947e-14
1.16759e-14
1.10071e-14
1.1683e-14
1.10205e-14
1.1683e-14
1.10294e-14
1.16847e-14
1.10393e-14
1.16918e-14
1.10484e-14
1.16951e-14
1.10586e-14
1.16948e-14
1.10662e-14
1.16944e-14
1.10731e-14
1.17013e-14
1.10867e-14
1.17044e-14
1.10943e-14
1.17039e-14
1.1105e-14
1.17014e-14
1.11097e-14
1.17006e-14
1.11158e-14
1.17036e-14
1.11253e-14
1.17008e-14
1.11345e-14
1.17055e-14
1.11397e-14
1.17102e-14
1.11484e-14
1.17073e-14
1.11532e-14
1.17043e-14
1.11654e-14
1.17051e-14
1.11739e-14
1.17172e-14
1.11861e-14
1.17294e-14
1.12023e-14
1.17301e-14
1.12186e-14
1.17308e-14
1.12351e-14
1.17314e-14
1.12559e-14
1.17396e-14
1.12809e-14
1.17555e-14
1.13065e-14
1.17751e-14
1.13211e-14
1.1783e-14
1.13404e-14
1.17869e-14
1.13605e-14
1.18022e-14
1.13815e-14
1.18252e-14
1.14035e-14
1.1844e-14
1.14306e-14
1.18628e-14
1.14588e-14
1.18813e-14
1.14923e-14
1.19035e-14
1.15234e-14
1.19294e-14
1.15403e-14
1.19511e-14
1.15705e-14
1.19688e-14
1.16025e-14
1.19863e-14
1.16364e-14
1.20156e-14
1.1684e-14
1.2041e-14
1.17063e-14
1.20585e-14
1.17309e-14
1.20761e-14
1.17618e-14
1.20979e-14
1.17874e-14
1.21277e-14
1.18195e-14
1.21659e-14
1.18424e-14
1.22125e-14
1.1864e-14
1.22523e-14
1.18999e-14
1.22697e-14
1.19269e-14
1.22806e-14
1.19529e-14
1.23166e-14
1.19781e-14
1.23466e-14
1.20181e-14
1.23789e-14
1.20573e-14
1.23978e-14
1.2088e-14
1.24272e-14
1.21341e-14
1.24751e-14
1.21799e-14
1.25184e-14
1.22256e-14
1.25575e-14
1.22791e-14
1.26008e-14
1.23092e-14
1.26564e-14
1.23551e-14
1.26858e-14
1.23856e-14
1.27129e-14
1.24242e-14
1.27694e-14
1.24787e-14
1.28247e-14
1.25256e-14
1.28951e-14
1.25726e-14
1.29428e-14
1.26272e-14
1.29687e-14
1.26822e-14
1.30195e-14
1.27299e-14
1.30491e-14
1.27785e-14
1.3066e-14
1.28362e-14
1.31011e-14
1.28727e-14
1.31472e-14
1.29035e-14
1.31973e-14
1.29512e-14
1.3222e-14
1.3001e-14
1.32369e-14
1.30459e-14
1.32574e-14
1.30943e-14
1.32839e-14
1.31316e-14
1.33469e-14
1.31647e-14
1.33951e-14
1.32081e-14
1.34295e-14
1.32471e-14
1.34211e-14
1.32978e-14
1.34148e-14
1.33168e-14
1.34249e-14
1.33043e-14
1.34818e-14
1.33779e-14
1.35129e-14
1.34197e-14
1.35472e-14
1.34597e-14
1.3585e-14
1.34983e-14
1.36272e-14
1.35207e-14
1.3631e-14
1.35425e-14
1.36407e-14
1.35641e-14
1.36711e-14
1.35851e-14
1.37228e-14
1.36194e-14
1.37539e-14
1.36525e-14
1.38236e-14
1.36829e-14
1.38617e-14
1.3725e-14
1.38975e-14
1.37362e-14
1.39166e-14
1.37592e-14
1.39626e-14
1.37927e-14
1.39948e-14
1.38225e-14
1.40009e-14
1.38499e-14
1.40363e-14
1.39017e-14
1.40459e-14
1.39375e-14
1.40427e-14
1.39882e-14
1.40806e-14
1.40134e-14
1.41163e-14
1.40681e-14
1.41513e-14
1.40986e-14
1.41998e-14
1.41447e-14
1.42767e-14
1.41772e-14
1.43035e-14
1.42505e-14
1.42675e-14
1.42785e-14
1.42551e-14
1.43604e-14
1.42629e-14
1.43958e-14
1.4312e-14
1.44386e-14
1.43504e-14
1.4491e-14
1.43527e-14
1.44522e-14
1.43924e-14
1.44717e-14
1.44228e-14
1.45486e-14
1.44458e-14
1.4561e-14
1.44829e-14
1.46076e-14
1.45359e-14
1.46391e-14
1.45308e-14
1.46866e-14
1.45652e-14
1.47006e-14
1.46109e-14
1.47248e-14
1.46441e-14
1.47836e-14
1.46914e-14
1.47829e-14
1.4754e-14
1.48148e-14
1.47422e-14
1.48381e-14
1.47468e-14
1.48793e-14
1.47887e-14
1.49156e-14
1.4842e-14
1.48986e-14
1.49079e-14
1.49349e-14
1.49522e-14
1.49322e-14
1.49773e-14
1.49511e-14
1.50565e-14
1.494e-14
1.50588e-14
1.48744e-14
1.50085e-14
1.48831e-14
1.49745e-14
1.49518e-14
1.49891e-14
1.4958e-14
1.49758e-14
1.49501e-14
1.49096e-14
1.49325e-14
1.49145e-14
1.4956e-14
1.49272e-14
1.49385e-14
1.49251e-14
1.49403e-14
1.48689e-14
1.49981e-14
1.48952e-14
1.49604e-14
1.49084e-14
1.49151e-14
1.48787e-14
1.48504e-14
1.48504e-14
1.47258e-14
1.47513e-14
1.47874e-14
1.47642e-14
1.4766e-14
1.47255e-14
1.471e-14
1.46714e-14
1.46579e-14
1.46467e-14
1.46521e-14
1.46579e-14
1.46162e-14
1.46672e-14
1.46058e-14
1.46373e-14
1.45631e-14
1.46065e-14
1.44851e-14
1.45777e-14
1.44705e-14
1.45595e-14
1.44555e-14
1.45319e-14
1.44855e-14
1.45354e-14
1.44801e-14
1.45435e-14
1.44385e-14
1.447e-14
1.43878e-14
1.43987e-14
1.43783e-14
1.43727e-14
1.43905e-14
1.43668e-14
1.43796e-14
1.43106e-14
1.43287e-14
1.432e-14
1.43049e-14
1.42866e-14
1.42605e-14
1.42542e-14
1.42162e-14
1.42238e-14
1.41711e-14
1.42188e-14
1.41463e-14
1.41946e-14
1.41154e-14
1.41519e-14
1.40791e-14
1.41652e-14
1.40073e-14
1.41392e-14
1.39708e-14
1.40522e-14
1.39747e-14
1.39989e-14
1.39735e-14
1.39986e-14
1.39657e-14
1.39998e-14
1.39266e-14
1.40309e-14
1.38771e-14
1.39954e-14
1.38673e-14
1.39729e-14
1.38749e-14
1.39607e-14
1.38762e-14
1.39564e-14
1.38171e-14
1.39051e-14
1.38324e-14
1.38855e-14
1.38455e-14
1.3868e-14
1.3805e-14
1.38092e-14
1.37662e-14
1.37757e-14
1.37693e-14
1.3755e-14
1.37464e-14
1.37318e-14
1.36964e-14
1.37337e-14
1.36853e-14
1.37096e-14
1.36586e-14
1.37007e-14
1.35876e-14
1.3707e-14
1.35804e-14
1.36618e-14
1.35697e-14
1.3633e-14
1.35422e-14
1.36191e-14
1.35118e-14
1.36067e-14
1.34785e-14
1.35677e-14
1.34718e-14
1.3516e-14
1.34505e-14
1.34641e-14
1.34299e-14
1.34682e-14
1.34092e-14
1.35008e-14
1.33725e-14
1.35062e-14
1.33471e-14
1.34716e-14
1.33329e-14
1.34115e-14
1.33168e-14
1.33834e-14
1.32989e-14
1.33721e-14
1.32791e-14
1.33633e-14
1.32573e-14
1.33426e-14
1.32481e-14
1.3295e-14
1.32081e-14
1.3294e-14
1.3181e-14
1.32654e-14
1.3167e-14
1.32386e-14
1.31515e-14
1.32132e-14
1.315e-14
1.31737e-14
1.3103e-14
1.31338e-14
1.30553e-14
1.31092e-14
1.30522e-14
1.31157e-14
1.30326e-14
1.31002e-14
1.30042e-14
1.30702e-14
1.29824e-14
1.30484e-14
1.29594e-14
1.30504e-14
1.29427e-14
1.30228e-14
1.29172e-14
1.29656e-14
1.28987e-14
1.29553e-14
1.28717e-14
1.29611e-14
1.28744e-14
1.29524e-14
1.28762e-14
1.29291e-14
1.28697e-14
1.29063e-14
1.28863e-14
1.28839e-14
1.28878e-14
1.28771e-14
1.28822e-14
1.28857e-14
1.28771e-14
1.28865e-14
1.28568e-14
1.28953e-14
1.28444e-14
1.29045e-14
1.28317e-14
1.29143e-14
1.28185e-14
1.29486e-14
1.28121e-14
1.2953e-14
1.28046e-14
1.29354e-14
1.27959e-14
1.29348e-14
1.28019e-14
1.29357e-14
1.27989e-14
1.29379e-14
1.28026e-14
1.29414e-14
1.28132e-14
1.29461e-14
1.28227e-14
1.29442e-14
1.28077e-14
1.2959e-14
1.28073e-14
1.29751e-14
1.28215e-14
1.29767e-14
1.28267e-14
1.29795e-14
1.28309e-14
1.29913e-14
1.2842e-14
1.30001e-14
1.28521e-14
1.29903e-14
1.28457e-14
1.2993e-14
1.28423e-14
1.29966e-14
1.2838e-14
1.30048e-14
1.28406e-14
1.3006e-14
1.28345e-14
1.30237e-14
1.28312e-14
1.30344e-14
1.2827e-14
1.3042e-14
1.28256e-14
1.30505e-14
1.28271e-14
1.30403e-14
1.28354e-14
1.30347e-14
1.2839e-14
1.30338e-14
1.28416e-14
1.30412e-14
1.28357e-14
1.3053e-14
1.28368e-14
1.305e-14
1.28331e-14
1.30514e-14
1.28247e-14
1.30533e-14
1.28271e-14
1.30635e-14
1.28287e-14
1.3082e-14
1.28255e-14
1.3078e-14
1.28139e-14
1.30707e-14
1.28129e-14
1.30754e-14
1.28111e-14
1.30921e-14
1.28047e-14
1.30979e-14
1.27974e-14
1.30967e-14
1.27932e-14
1.30961e-14
1.27957e-14
1.31036e-14
1.27973e-14
1.31041e-14
1.27983e-14
1.31015e-14
1.28022e-14
1.30956e-14
1.28017e-14
1.30995e-14
1.28006e-14
1.31057e-14
1.28044e-14
1.31032e-14
1.28021e-14
1.30955e-14
1.2801e-14
1.30901e-14
1.2803e-14
1.30888e-14
1.28064e-14
1.30824e-14
1.28056e-14
1.30781e-14
1.28079e-14
1.30742e-14
1.28134e-14
1.3067e-14
1.28167e-14
1.30618e-14
1.28178e-14
1.30588e-14
1.28186e-14
1.30559e-14
1.28226e-14
1.30568e-14
1.28279e-14
1.30579e-14
1.28295e-14
1.30539e-14
1.28342e-14
1.3045e-14
1.28387e-14
1.30396e-14
1.28412e-14
1.30379e-14
1.28469e-14
1.30397e-14
1.28489e-14
1.30417e-14
1.28507e-14
1.30387e-14
1.28557e-14
1.30325e-14
1.28605e-14
1.30297e-14
1.28618e-14
1.30288e-14
1.28646e-14
1.30279e-14
1.28655e-14
1.30287e-14
1.2868e-14
1.30264e-14
1.28704e-14
1.30242e-14
1.28726e-14
1.3022e-14
1.28731e-14
1.30184e-14
1.28734e-14
1.30149e-14
1.28722e-14
1.30153e-14
1.28732e-14
1.30158e-14
1.28733e-14
1.3014e-14
1.28695e-14
1.30123e-14
1.28665e-14
1.30114e-14
1.28641e-14
1.30114e-14
1.2861e-14
1.30135e-14
1.28592e-14
1.30157e-14
1.28581e-14
1.30151e-14
1.28563e-14
1.30131e-14
1.28529e-14
1.30126e-14
1.28523e-14
1.30115e-14
1.28503e-14
1.30124e-14
1.28482e-14
1.30114e-14
1.28468e-14
1.30091e-14
1.28459e-14
1.30082e-14
1.2845e-14
1.30093e-14
1.28441e-14
1.30079e-14
1.28437e-14
1.30059e-14
1.28433e-14
1.30077e-14
1.28428e-14
1.30101e-14
1.28429e-14
1.30089e-14
1.28423e-14
1.30066e-14
1.28417e-14
1.3006e-14
1.28422e-14
1.30062e-14
1.28432e-14
1.30046e-14
1.28442e-14
1.30034e-14
1.2844e-14
1.30025e-14
1.28437e-14
1.30019e-14
1.28445e-14
1.30014e-14
1.2845e-14
1.30001e-14
1.28461e-14
1.29994e-14
1.28472e-14
1.29989e-14
1.28483e-14
1.29966e-14
1.2849e-14
1.2995e-14
1.28502e-14
1.29954e-14
1.28513e-14
1.2995e-14
1.2852e-14
1.29939e-14
1.28523e-14
1.29927e-14
1.28529e-14
1.29919e-14
1.28532e-14
1.29916e-14
1.28535e-14
1.29914e-14
1.28535e-14
1.29904e-14
1.28536e-14
1.29899e-14
1.28536e-14
1.29899e-14
1.28538e-14
1.29896e-14
1.28536e-14
1.29895e-14
1.28536e-14
1.29895e-14
1.28535e-14
1.29895e-14
1.28537e-14
1.29892e-14
1.28538e-14
1.29891e-14
1.28538e-14
1.29892e-14
1.28537e-14
1.29894e-14
1.28537e-14
1.29894e-14
1.28537e-14
1.29895e-14
1.28537e-14
1.29896e-14
1.28536e-14
1.29899e-14
1.28536e-14
1.29901e-14
1.28536e-14
1.29901e-14
1.28536e-14
1.29902e-14
1.28534e-14
1.29903e-14
1.28533e-14
1.29905e-14
1.28533e-14
1.29907e-14
1.28532e-14
1.29908e-14
1.28532e-14
1.29909e-14
1.28531e-14
1.29911e-14
1.28531e-14
1.29913e-14
1.2853e-14
1.29914e-14
1.2853e-14
1.29916e-14
1.28529e-14
1.29917e-14
1.28529e-14
1.29918e-14
1.28528e-14
1.29919e-14
1.28528e-14
1.2992e-14
1.28528e-14
1.29921e-14
1.28528e-14
1.29922e-14
1.28528e-14
1.29923e-14
1.28527e-14
1.29923e-14
1.28527e-14
1.29924e-14
1.28527e-14
1.29924e-14
1.28526e-14
1.29924e-14
1.28526e-14
1.29924e-14
1.28526e-14
1.29925e-14
1.484e-14
1.4832e-14
1.48039e-14
1.47791e-14
1.47765e-14
1.47651e-14
1.47533e-14
1.47095e-14
1.46586e-14
1.46913e-14
1.47097e-14
1.46861e-14
1.46846e-14
1.47229e-14
1.46363e-14
1.47078e-14
1.45981e-14
1.46706e-14
1.45709e-14
1.46545e-14
1.45354e-14
1.45944e-14
1.45631e-14
1.4594e-14
1.45263e-14
1.4582e-14
1.45061e-14
1.45377e-14
1.44826e-14
1.44979e-14
1.44367e-14
1.44392e-14
1.44174e-14
1.44072e-14
1.44263e-14
1.43524e-14
1.44009e-14
1.42613e-14
1.43001e-14
1.42187e-14
1.42805e-14
1.42307e-14
1.42657e-14
1.42081e-14
1.42092e-14
1.42244e-14
1.41501e-14
1.42179e-14
1.41562e-14
1.41694e-14
1.41364e-14
1.41206e-14
1.4094e-14
1.41186e-14
1.40495e-14
1.40913e-14
1.40283e-14
1.40401e-14
1.40342e-14
1.40148e-14
1.40708e-14
1.40142e-14
1.40129e-14
1.39832e-14
1.39595e-14
1.39486e-14
1.39606e-14
1.39095e-14
1.38899e-14
1.39155e-14
1.38709e-14
1.39213e-14
1.39013e-14
1.39294e-14
1.38232e-14
1.39386e-14
1.37909e-14
1.39301e-14
1.37748e-14
1.39189e-14
1.37334e-14
1.38776e-14
1.37216e-14
1.382e-14
1.37439e-14
1.38106e-14
1.37477e-14
1.37928e-14
1.37214e-14
1.37375e-14
1.36947e-14
1.37108e-14
1.36532e-14
1.3741e-14
1.36211e-14
1.37345e-14
1.35701e-14
1.37199e-14
1.35543e-14
1.37278e-14
1.3516e-14
1.37029e-14
1.34547e-14
1.36877e-14
1.34109e-14
1.36551e-14
1.33847e-14
1.36051e-14
1.33771e-14
1.35941e-14
1.33601e-14
1.35791e-14
1.33047e-14
1.35738e-14
1.32966e-14
1.35353e-14
1.33085e-14
1.34609e-14
1.33003e-14
1.34058e-14
1.3303e-14
1.33685e-14
1.32739e-14
1.33476e-14
1.32572e-14
1.33135e-14
1.32534e-14
1.32802e-14
1.32189e-14
1.32617e-14
1.31979e-14
1.32587e-14
1.31752e-14
1.32719e-14
1.315e-14
1.32573e-14
1.31221e-14
1.32454e-14
1.31062e-14
1.32365e-14
1.30871e-14
1.31855e-14
1.30657e-14
1.31521e-14
1.30426e-14
1.31437e-14
1.30175e-14
1.31451e-14
1.29975e-14
1.3134e-14
1.2975e-14
1.31028e-14
1.29424e-14
1.30665e-14
1.29231e-14
1.30246e-14
1.29019e-14
1.29842e-14
1.28871e-14
1.29839e-14
1.28707e-14
1.2993e-14
1.28603e-14
1.2973e-14
1.28483e-14
1.29468e-14
1.28347e-14
1.29143e-14
1.28121e-14
1.28905e-14
1.27881e-14
1.28834e-14
1.27858e-14
1.28852e-14
1.27739e-14
1.28882e-14
1.27681e-14
1.28924e-14
1.27683e-14
1.28979e-14
1.27747e-14
1.28969e-14
1.27796e-14
1.28891e-14
1.27833e-14
1.28899e-14
1.27937e-14
1.28915e-14
1.27954e-14
1.28779e-14
1.27964e-14
1.28805e-14
1.27967e-14
1.28836e-14
1.28199e-14
1.28793e-14
1.2827e-14
1.2891e-14
1.28336e-14
1.28951e-14
1.28478e-14
1.28994e-14
1.2846e-14
1.29117e-14
1.28439e-14
1.29164e-14
1.28492e-14
1.29293e-14
1.28581e-14
1.29464e-14
1.28627e-14
1.29678e-14
1.28785e-14
1.297e-14
1.28939e-14
1.29845e-14
1.28892e-14
1.29994e-14
1.2892e-14
1.30031e-14
1.28983e-14
1.30073e-14
1.29002e-14
1.30238e-14
1.29018e-14
1.30369e-14
1.2903e-14
1.30546e-14
1.28997e-14
1.3065e-14
1.29038e-14
1.30761e-14
1.29034e-14
1.3088e-14
1.29103e-14
1.30928e-14
1.29088e-14
1.31061e-14
1.29106e-14
1.31203e-14
1.29158e-14
1.31196e-14
1.29204e-14
1.31276e-14
1.29323e-14
1.31362e-14
1.29359e-14
1.31495e-14
1.29391e-14
1.31596e-14
1.29419e-14
1.31589e-14
1.29441e-14
1.31626e-14
1.29422e-14
1.31748e-14
1.29398e-14
1.31838e-14
1.29447e-14
1.31782e-14
1.29491e-14
1.31656e-14
1.29495e-14
1.31612e-14
1.29495e-14
1.3165e-14
1.29417e-14
1.31654e-14
1.29374e-14
1.31664e-14
1.29328e-14
1.31641e-14
1.29373e-14
1.31679e-14
1.29414e-14
1.31685e-14
1.2936e-14
1.31676e-14
1.29303e-14
1.31746e-14
1.29354e-14
1.31765e-14
1.29366e-14
1.31751e-14
1.29357e-14
1.31724e-14
1.29309e-14
1.31719e-14
1.29313e-14
1.31699e-14
1.29332e-14
1.31666e-14
1.29332e-14
1.31654e-14
1.29311e-14
1.31664e-14
1.29289e-14
1.31641e-14
1.29264e-14
1.31675e-14
1.29255e-14
1.31695e-14
1.29262e-14
1.31647e-14
1.29214e-14
1.31586e-14
1.29234e-14
1.31528e-14
1.29218e-14
1.31455e-14
1.29217e-14
1.31403e-14
1.29214e-14
1.31371e-14
1.29227e-14
1.31307e-14
1.29255e-14
1.31245e-14
1.29216e-14
1.31253e-14
1.29191e-14
1.31229e-14
1.29182e-14
1.31191e-14
1.29221e-14
1.31155e-14
1.29226e-14
1.31105e-14
1.29213e-14
1.31073e-14
1.29216e-14
1.31042e-14
1.29249e-14
1.30982e-14
1.2925e-14
1.30947e-14
1.29258e-14
1.30944e-14
1.29273e-14
1.30904e-14
1.29287e-14
1.30857e-14
1.293e-14
1.30813e-14
1.29319e-14
1.30784e-14
1.29324e-14
1.30779e-14
1.29327e-14
1.30745e-14
1.29338e-14
1.3072e-14
1.29348e-14
1.30689e-14
1.29357e-14
1.30658e-14
1.29359e-14
1.30615e-14
1.29361e-14
1.306e-14
1.29369e-14
1.30593e-14
1.29377e-14
1.30566e-14
1.29384e-14
1.30533e-14
1.29404e-14
1.30521e-14
1.29392e-14
1.30529e-14
1.2936e-14
1.30544e-14
1.29353e-14
1.30546e-14
1.29347e-14
1.30548e-14
1.2934e-14
1.30545e-14
1.29334e-14
1.30537e-14
1.29327e-14
1.3054e-14
1.2932e-14
1.30538e-14
1.29302e-14
1.30531e-14
1.29295e-14
1.30513e-14
1.29293e-14
1.30506e-14
1.29286e-14
1.30511e-14
1.29279e-14
1.30511e-14
1.29272e-14
1.30511e-14
1.2927e-14
1.30514e-14
1.29268e-14
1.30522e-14
1.29254e-14
1.30532e-14
1.29252e-14
1.30536e-14
1.29247e-14
1.30528e-14
1.29247e-14
1.30522e-14
1.29242e-14
1.30524e-14
1.29227e-14
1.3053e-14
1.2922e-14
1.30534e-14
1.29211e-14
1.30532e-14
1.29204e-14
1.30527e-14
1.29203e-14
1.30525e-14
1.29202e-14
1.30528e-14
1.292e-14
1.30527e-14
1.29193e-14
1.30525e-14
1.29189e-14
1.30522e-14
1.29186e-14
1.3052e-14
1.29183e-14
1.3052e-14
1.2918e-14
1.30521e-14
1.2918e-14
1.3052e-14
1.29179e-14
1.30517e-14
1.29174e-14
1.30514e-14
1.29172e-14
1.30512e-14
1.29171e-14
1.30509e-14
1.2917e-14
1.30508e-14
1.29168e-14
1.30507e-14
1.29166e-14
1.30506e-14
1.29164e-14
1.30505e-14
1.29163e-14
1.30502e-14
1.29162e-14
1.305e-14
1.2916e-14
1.305e-14
1.29159e-14
1.305e-14
1.29159e-14
1.30498e-14
1.29158e-14
1.30498e-14
1.29157e-14
1.30498e-14
1.29157e-14
1.30498e-14
1.29157e-14
1.30497e-14
1.29157e-14
1.30497e-14
1.29157e-14
1.30497e-14
1.29157e-14
1.30497e-14
1.29158e-14
1.30496e-14
1.29157e-14
1.30496e-14
1.29157e-14
1.30496e-14
1.29158e-14
1.30496e-14
1.29158e-14
1.30496e-14
1.29158e-14
1.30496e-14
1.29158e-14
1.30496e-14
1.29157e-14
1.30496e-14
1.29157e-14
1.30496e-14
1.29158e-14
1.30496e-14
1.29158e-14
1.30496e-14
1.29158e-14
1.30496e-14
)
;

boundaryField
{
    walls
    {
        type            zeroGradient;
    }
    inlet
    {
        type            cyclic;
    }
    outlet
    {
        type            cyclic;
    }
    sides
    {
        type            empty;
    }
}


// ************************************************************************* //
