/*--------------------------------*- C++ -*----------------------------------*\
| =========                 |                                                 |
| \\      /  F ield         | OpenFOAM: The Open Source CFD Toolbox           |
|  \\    /   O peration     | Version:  2106                                  |
|   \\  /    A nd           | Website:  www.openfoam.com                      |
|    \\/     M anipulation  |                                                 |
\*---------------------------------------------------------------------------*/
FoamFile
{
    version     2.0;
    format      ascii;
    arch        "LSB;label=32;scalar=64";
    class       volSymmTensorField;
    location    "10050";
    object      turbulenceProperties:R;
}
// * * * * * * * * * * * * * * * * * * * * * * * * * * * * * * * * * * * * * //

dimensions      [0 2 -2 0 0 0 0];

internalField   nonuniform List<symmTensor> 
2000
(
(7.05583e-07 -1.74287e-10 -3.22571e-13 7.05583e-07 6.08353e-25 7.05583e-07)
(7.05583e-07 -1.74287e-10 -3.22571e-13 7.05583e-07 -1.75135e-28 7.05583e-07)
(1.48081e-07 -2.10707e-10 -1.17729e-12 1.48081e-07 1.07666e-25 1.48081e-07)
(1.48081e-07 -2.10707e-10 -1.17729e-12 1.48081e-07 -2.01001e-28 1.48081e-07)
(3.55415e-07 -1.49733e-09 -1.16079e-11 3.55415e-07 4.59646e-25 3.55415e-07)
(3.55415e-07 -1.49733e-09 -1.16079e-11 3.55415e-07 -9.18747e-28 3.55415e-07)
(1.21858e-06 -1.09297e-08 -8.63132e-11 1.21858e-06 3.33045e-24 1.21858e-06)
(1.21858e-06 -1.09297e-08 -8.63132e-11 1.21858e-06 -1.22847e-26 1.21858e-06)
(3.18682e-06 -5.06232e-08 -4.07233e-10 3.18682e-06 1.58188e-23 3.18682e-06)
(3.18682e-06 -5.06232e-08 -4.07233e-10 3.18682e-06 -6.49299e-26 3.18682e-06)
(6.8585e-06 -1.72141e-07 -1.41058e-09 6.8585e-06 4.51047e-23 6.8585e-06)
(6.8585e-06 -1.72141e-07 -1.41058e-09 6.8585e-06 -2.33225e-25 6.8585e-06)
(1.29493e-05 -4.75522e-07 -3.9691e-09 1.29493e-05 1.26529e-22 1.29493e-05)
(1.29493e-05 -4.75522e-07 -3.9691e-09 1.29493e-05 -5.93399e-25 1.29493e-05)
(2.22885e-05 -1.13312e-06 -9.63353e-09 2.22885e-05 3.07415e-22 2.22885e-05)
(2.22885e-05 -1.13312e-06 -9.63353e-09 2.22885e-05 -1.38962e-24 2.22885e-05)
(3.58174e-05 -2.4176e-06 -2.0934e-08 3.58174e-05 6.65216e-22 3.58174e-05)
(3.58174e-05 -2.4176e-06 -2.0934e-08 3.58174e-05 -3.23248e-24 3.58174e-05)
(5.4584e-05 -4.73212e-06 -4.17291e-08 5.4584e-05 1.31223e-21 5.4584e-05)
(5.4584e-05 -4.73212e-06 -4.17291e-08 5.4584e-05 -6.50336e-24 5.4584e-05)
(7.97299e-05 -8.63875e-06 -7.75696e-08 7.97299e-05 2.39989e-21 7.97299e-05)
(7.97299e-05 -8.63875e-06 -7.75696e-08 7.97299e-05 -1.22417e-23 7.97299e-05)
(0.000112466 -1.48787e-05 -1.36015e-07 0.000112466 4.10605e-21 0.000112466)
(0.000112466 -1.48787e-05 -1.36015e-07 0.000112466 -2.01173e-23 0.000112466)
(0.00015403 -2.43751e-05 -2.26807e-07 0.00015403 6.60975e-21 0.00015403)
(0.00015403 -2.43751e-05 -2.26807e-07 0.00015403 -2.57585e-23 0.00015403)
(0.000205634 -3.82087e-05 -3.61786e-07 0.000205634 1.00374e-20 0.000205634)
(0.000205634 -3.82087e-05 -3.61786e-07 0.000205634 -3.7569e-23 0.000205634)
(0.000268378 -5.75561e-05 -5.54424e-07 0.000268378 1.43846e-20 0.000268378)
(0.000268378 -5.75561e-05 -5.54424e-07 0.000268378 -7.36927e-23 0.000268378)
(0.000343166 -8.35885e-05 -8.18916e-07 0.000343166 1.94337e-20 0.000343166)
(0.000343166 -8.35885e-05 -8.18916e-07 0.000343166 -1.02932e-22 0.000343166)
(0.000430596 -0.000117337 -1.16884e-06 0.000430596 2.4723e-20 0.000430596)
(0.000430596 -0.000117337 -1.16884e-06 0.000430596 -9.27303e-23 0.000430596)
(0.000530872 -0.000159542 -1.61559e-06 0.000530872 2.95081e-20 0.000530872)
(0.000530872 -0.000159542 -1.61559e-06 0.000530872 -1.07309e-22 0.000530872)
(0.000643732 -0.000210522 -2.16685e-06 0.000643732 3.27959e-20 0.000643732)
(0.000643732 -0.000210522 -2.16685e-06 0.000643732 -8.84122e-23 0.000643732)
(0.000768418 -0.00027009 -2.82544e-06 0.000768418 3.36417e-20 0.000768418)
(0.000768418 -0.00027009 -2.82544e-06 0.000768418 8.97765e-23 0.000768418)
(0.000903699 -0.000337541 -3.58891e-06 0.000903699 3.1129e-20 0.000903699)
(0.000903699 -0.000337541 -3.58891e-06 0.000903699 2.53847e-22 0.000903699)
(0.00104794 -0.000411719 -4.44986e-06 0.00104794 2.47002e-20 0.00104794)
(0.00104794 -0.000411719 -4.44986e-06 0.00104794 4.94074e-22 0.00104794)
(0.00119924 -0.000491144 -5.39691e-06 0.00119924 1.31588e-20 0.00119924)
(0.00119924 -0.000491144 -5.39691e-06 0.00119924 8.92138e-22 0.00119924)
(0.00135552 -0.000574177 -6.41616e-06 0.00135552 1.12526e-21 0.00135552)
(0.00135552 -0.000574177 -6.41616e-06 0.00135552 1.35157e-21 0.00135552)
(0.00151471 -0.000659168 -7.49265e-06 0.00151471 -1.51792e-20 0.00151471)
(0.00151471 -0.000659168 -7.49265e-06 0.00151471 2.01918e-21 0.00151471)
(0.00167483 -0.000744593 -8.61165e-06 0.00167483 -3.26527e-20 0.00167483)
(0.00167483 -0.000744593 -8.61165e-06 0.00167483 2.81318e-21 0.00167483)
(0.00183412 -0.000829133 -9.75967e-06 0.00183412 -5.07355e-20 0.00183412)
(0.00183412 -0.000829133 -9.75967e-06 0.00183412 3.77776e-21 0.00183412)
(0.00199104 -0.000911721 -1.09251e-05 0.00199104 -6.77374e-20 0.00199104)
(0.00199104 -0.000911721 -1.09251e-05 0.00199104 4.72912e-21 0.00199104)
(0.00214434 -0.000991547 -1.20982e-05 0.00214434 -8.23993e-20 0.00214434)
(0.00214434 -0.000991547 -1.20982e-05 0.00214434 5.82694e-21 0.00214434)
(0.00229305 -0.00106804 -1.32715e-05 0.00229305 -9.50611e-20 0.00229305)
(0.00229305 -0.00106804 -1.32715e-05 0.00229305 7.55517e-21 0.00229305)
(0.00243644 -0.00114083 -1.44395e-05 0.00243644 -1.05392e-19 0.00243644)
(0.00243644 -0.00114083 -1.44395e-05 0.00243644 8.80728e-21 0.00243644)
(0.00257402 -0.00120973 -1.55981e-05 0.00257402 -1.1255e-19 0.00257402)
(0.00257402 -0.00120973 -1.55981e-05 0.00257402 1.00422e-20 0.00257402)
(0.00270547 -0.00127467 -1.67447e-05 0.00270547 -1.16578e-19 0.00270547)
(0.00270547 -0.00127467 -1.67447e-05 0.00270547 1.24348e-20 0.00270547)
(0.00283065 -0.00133568 -1.78779e-05 0.00283065 -1.17609e-19 0.00283065)
(0.00283065 -0.00133568 -1.78779e-05 0.00283065 1.48961e-20 0.00283065)
(0.00294955 -0.00139287 -1.89971e-05 0.00294955 -1.15012e-19 0.00294955)
(0.00294955 -0.00139287 -1.89971e-05 0.00294955 1.65196e-20 0.00294955)
(0.00306223 -0.0014464 -2.01023e-05 0.00306223 -1.10402e-19 0.00306223)
(0.00306223 -0.0014464 -2.01023e-05 0.00306223 2.03117e-20 0.00306223)
(0.00316884 -0.00149643 -2.1194e-05 0.00316884 -1.02245e-19 0.00316884)
(0.00316884 -0.00149643 -2.1194e-05 0.00316884 2.5109e-20 0.00316884)
(0.00326959 -0.00154318 -2.22731e-05 0.00326959 -9.00179e-20 0.00326959)
(0.00326959 -0.00154318 -2.22731e-05 0.00326959 2.78606e-20 0.00326959)
(0.0033647 -0.00158684 -2.33405e-05 0.0033647 -7.466e-20 0.0033647)
(0.0033647 -0.00158684 -2.33405e-05 0.0033647 3.12106e-20 0.0033647)
(0.00345445 -0.00162761 -2.43976e-05 0.00345445 -5.57736e-20 0.00345445)
(0.00345445 -0.00162761 -2.43976e-05 0.00345445 3.39349e-20 0.00345445)
(0.00353908 -0.0016657 -2.54457e-05 0.00353908 -3.78753e-20 0.00353908)
(0.00353908 -0.0016657 -2.54457e-05 0.00353908 3.76541e-20 0.00353908)
(0.00361888 -0.0017013 -2.6486e-05 0.00361888 -1.73082e-20 0.00361888)
(0.00361888 -0.0017013 -2.6486e-05 0.00361888 4.34737e-20 0.00361888)
(0.00369411 -0.00173458 -2.752e-05 0.00369411 7.34255e-21 0.00369411)
(0.00369411 -0.00173458 -2.752e-05 0.00369411 4.83037e-20 0.00369411)
(0.00376505 -0.00176572 -2.85489e-05 0.00376505 3.18681e-20 0.00376505)
(0.00376505 -0.00176572 -2.85489e-05 0.00376505 5.27774e-20 0.00376505)
(0.00383194 -0.00179487 -2.95741e-05 0.00383194 6.15222e-20 0.00383194)
(0.00383194 -0.00179487 -2.95741e-05 0.00383194 5.4995e-20 0.00383194)
(0.00389504 -0.00182218 -3.05969e-05 0.00389504 9.40361e-20 0.00389504)
(0.00389504 -0.00182218 -3.05969e-05 0.00389504 5.86176e-20 0.00389504)
(0.00395457 -0.00184778 -3.16184e-05 0.00395457 1.20117e-19 0.00395457)
(0.00395457 -0.00184778 -3.16184e-05 0.00395457 6.61328e-20 0.00395457)
(0.00401076 -0.0018718 -3.26399e-05 0.00401076 1.4888e-19 0.00401076)
(0.00401076 -0.0018718 -3.26399e-05 0.00401076 6.97918e-20 0.00401076)
(0.00406381 -0.00189436 -3.36624e-05 0.00406381 1.86749e-19 0.00406381)
(0.00406381 -0.00189436 -3.36624e-05 0.00406381 7.23336e-20 0.00406381)
(0.00411392 -0.00191556 -3.46869e-05 0.00411392 2.19689e-19 0.00411392)
(0.00411392 -0.00191556 -3.46869e-05 0.00411392 8.495e-20 0.00411392)
(0.00416128 -0.0019355 -3.57146e-05 0.00416128 2.55731e-19 0.00416128)
(0.00416128 -0.0019355 -3.57146e-05 0.00416128 9.48763e-20 0.00416128)
(0.00420604 -0.00195426 -3.67463e-05 0.00420604 2.9464e-19 0.00420604)
(0.00420604 -0.00195426 -3.67463e-05 0.00420604 9.55299e-20 0.00420604)
(0.00424839 -0.00197193 -3.7783e-05 0.00424839 3.31414e-19 0.00424839)
(0.00424839 -0.00197193 -3.7783e-05 0.00424839 1.04451e-19 0.00424839)
(0.00428845 -0.00198859 -3.88256e-05 0.00428845 3.7398e-19 0.00428845)
(0.00428845 -0.00198859 -3.88256e-05 0.00428845 1.18852e-19 0.00428845)
(0.00432637 -0.00200429 -3.98748e-05 0.00432637 4.25924e-19 0.00432637)
(0.00432637 -0.00200429 -3.98748e-05 0.00432637 1.26237e-19 0.00432637)
(0.00436229 -0.00201911 -4.09316e-05 0.00436229 4.65459e-19 0.00436229)
(0.00436229 -0.00201911 -4.09316e-05 0.00436229 1.37245e-19 0.00436229)
(0.00439631 -0.00203311 -4.19965e-05 0.00439631 4.99318e-19 0.00439631)
(0.00439631 -0.00203311 -4.19965e-05 0.00439631 1.45287e-19 0.00439631)
(0.00442855 -0.00204633 -4.30705e-05 0.00442855 5.4851e-19 0.00442855)
(0.00442855 -0.00204633 -4.30705e-05 0.00442855 1.57759e-19 0.00442855)
(0.00445911 -0.00205883 -4.41541e-05 0.00445911 6.00935e-19 0.00445911)
(0.00445911 -0.00205883 -4.41541e-05 0.00445911 1.81637e-19 0.00445911)
(0.0044881 -0.00207065 -4.52481e-05 0.0044881 6.57134e-19 0.0044881)
(0.0044881 -0.00207065 -4.52481e-05 0.0044881 2.01602e-19 0.0044881)
(0.00451559 -0.00208184 -4.6353e-05 0.00451559 7.13918e-19 0.00451559)
(0.00451559 -0.00208184 -4.6353e-05 0.00451559 2.07872e-19 0.00451559)
(0.00454167 -0.00209242 -4.74696e-05 0.00454167 7.62358e-19 0.00454167)
(0.00454167 -0.00209242 -4.74696e-05 0.00454167 2.00539e-19 0.00454167)
(0.00456643 -0.00210244 -4.85985e-05 0.00456643 8.1299e-19 0.00456643)
(0.00456643 -0.00210244 -4.85985e-05 0.00456643 1.98753e-19 0.00456643)
(0.00458992 -0.00211194 -4.97401e-05 0.00458992 8.72789e-19 0.00458992)
(0.00458992 -0.00211194 -4.97401e-05 0.00458992 2.13142e-19 0.00458992)
(0.00461223 -0.00212093 -5.08952e-05 0.00461223 9.25832e-19 0.00461223)
(0.00461223 -0.00212093 -5.08952e-05 0.00461223 2.27928e-19 0.00461223)
(0.0046334 -0.00212945 -5.20642e-05 0.0046334 9.93683e-19 0.0046334)
(0.0046334 -0.00212945 -5.20642e-05 0.0046334 2.28654e-19 0.0046334)
(0.00465351 -0.00213752 -5.32477e-05 0.00465351 1.05382e-18 0.00465351)
(0.00465351 -0.00213752 -5.32477e-05 0.00465351 2.52997e-19 0.00465351)
(0.00467259 -0.00214517 -5.44463e-05 0.00467259 1.11946e-18 0.00467259)
(0.00467259 -0.00214517 -5.44463e-05 0.00467259 2.80985e-19 0.00467259)
(0.00469071 -0.00215241 -5.56604e-05 0.00469071 1.19685e-18 0.00469071)
(0.00469071 -0.00215241 -5.56604e-05 0.00469071 2.8634e-19 0.00469071)
(0.00470791 -0.00215928 -5.68906e-05 0.00470791 1.24423e-18 0.00470791)
(0.00470791 -0.00215928 -5.68906e-05 0.00470791 3.05465e-19 0.00470791)
(0.00472423 -0.00216579 -5.81373e-05 0.00472423 1.30008e-18 0.00472423)
(0.00472423 -0.00216579 -5.81373e-05 0.00472423 3.29591e-19 0.00472423)
(0.00473972 -0.00217195 -5.94011e-05 0.00473972 1.38097e-18 0.00473972)
(0.00473972 -0.00217195 -5.94011e-05 0.00473972 3.38034e-19 0.00473972)
(0.00475441 -0.00217779 -6.06825e-05 0.00475441 1.44596e-18 0.00475441)
(0.00475441 -0.00217779 -6.06825e-05 0.00475441 3.68408e-19 0.00475441)
(0.00476835 -0.00218332 -6.19819e-05 0.00476835 1.52438e-18 0.00476835)
(0.00476835 -0.00218332 -6.19819e-05 0.00476835 4.2837e-19 0.00476835)
(0.00478155 -0.00218854 -6.32997e-05 0.00478155 1.61071e-18 0.00478155)
(0.00478155 -0.00218854 -6.32997e-05 0.00478155 4.35161e-19 0.00478155)
(0.00479406 -0.00219349 -6.46366e-05 0.00479406 1.66706e-18 0.00479406)
(0.00479406 -0.00219349 -6.46366e-05 0.00479406 4.38805e-19 0.00479406)
(0.0048059 -0.00219816 -6.59928e-05 0.0048059 1.75336e-18 0.0048059)
(0.0048059 -0.00219816 -6.59928e-05 0.0048059 4.59368e-19 0.0048059)
(0.0048171 -0.00220257 -6.7369e-05 0.0048171 1.8439e-18 0.0048171)
(0.0048171 -0.00220257 -6.7369e-05 0.0048171 5.04324e-19 0.0048171)
(0.00482768 -0.00220673 -6.87655e-05 0.00482768 1.92313e-18 0.00482768)
(0.00482768 -0.00220673 -6.87655e-05 0.00482768 5.58233e-19 0.00482768)
(0.00483768 -0.00221065 -7.01828e-05 0.00483768 2.03143e-18 0.00483768)
(0.00483768 -0.00221065 -7.01828e-05 0.00483768 5.52209e-19 0.00483768)
(0.00484711 -0.00221434 -7.16214e-05 0.00484711 2.10827e-18 0.00484711)
(0.00484711 -0.00221434 -7.16214e-05 0.00484711 5.78986e-19 0.00484711)
(0.00485599 -0.00221781 -7.30816e-05 0.00485599 2.20497e-18 0.00485599)
(0.00485599 -0.00221781 -7.30816e-05 0.00485599 6.26408e-19 0.00485599)
(0.00486434 -0.00222107 -7.4564e-05 0.00486434 2.3346e-18 0.00486434)
(0.00486434 -0.00222107 -7.4564e-05 0.00486434 7.07974e-19 0.00486434)
(0.00487219 -0.00222412 -7.60689e-05 0.00487219 2.43377e-18 0.00487219)
(0.00487219 -0.00222412 -7.60689e-05 0.00487219 7.96073e-19 0.00487219)
(0.00487954 -0.00222697 -7.75969e-05 0.00487954 2.51597e-18 0.00487954)
(0.00487954 -0.00222697 -7.75969e-05 0.00487954 8.57132e-19 0.00487954)
(0.00488642 -0.00222962 -7.91484e-05 0.00488642 2.6352e-18 0.00488642)
(0.00488642 -0.00222962 -7.91484e-05 0.00488642 8.89553e-19 0.00488642)
(0.00489284 -0.00223209 -8.07237e-05 0.00489284 2.75165e-18 0.00489284)
(0.00489284 -0.00223209 -8.07237e-05 0.00489284 9.67486e-19 0.00489284)
(0.00489881 -0.00223438 -8.23234e-05 0.00489881 2.75608e-18 0.00489881)
(0.00489881 -0.00223438 -8.23234e-05 0.00489881 1.04736e-18 0.00489881)
(0.00490436 -0.0022365 -8.39479e-05 0.00490436 2.95386e-18 0.00490436)
(0.00490436 -0.0022365 -8.39479e-05 0.00490436 1.07211e-18 0.00490436)
(0.00490948 -0.00223844 -8.55975e-05 0.00490948 3.09988e-18 0.00490948)
(0.00490948 -0.00223844 -8.55975e-05 0.00490948 1.14501e-18 0.00490948)
(0.00491419 -0.00224022 -8.72728e-05 0.00491419 3.21204e-18 0.00491419)
(0.00491419 -0.00224022 -8.72728e-05 0.00491419 1.21552e-18 0.00491419)
(0.00491851 -0.00224183 -8.89742e-05 0.00491851 3.36778e-18 0.00491851)
(0.00491851 -0.00224183 -8.89742e-05 0.00491851 1.26477e-18 0.00491851)
(0.00492243 -0.00224329 -9.07021e-05 0.00492243 3.56189e-18 0.00492243)
(0.00492243 -0.00224329 -9.07021e-05 0.00492243 1.35543e-18 0.00492243)
(0.00492599 -0.00224459 -9.24569e-05 0.00492599 3.6276e-18 0.00492599)
(0.00492599 -0.00224459 -9.24569e-05 0.00492599 1.47955e-18 0.00492599)
(0.00492917 -0.00224574 -9.42391e-05 0.00492917 3.79988e-18 0.00492917)
(0.00492917 -0.00224574 -9.42391e-05 0.00492917 1.54829e-18 0.00492917)
(0.00493199 -0.00224675 -9.60491e-05 0.00493199 3.80546e-18 0.00493199)
(0.00493199 -0.00224675 -9.60491e-05 0.00493199 1.63062e-18 0.00493199)
(0.00493446 -0.00224761 -9.78874e-05 0.00493446 3.94158e-18 0.00493446)
(0.00493446 -0.00224761 -9.78874e-05 0.00493446 1.78458e-18 0.00493446)
(0.00493659 -0.00224832 -9.97542e-05 0.00493659 4.1198e-18 0.00493659)
(0.00493659 -0.00224832 -9.97542e-05 0.00493659 1.90756e-18 0.00493659)
(0.00493838 -0.0022489 -0.00010165 0.00493838 4.35855e-18 0.00493838)
(0.00493838 -0.0022489 -0.00010165 0.00493838 1.9456e-18 0.00493838)
(0.00493984 -0.00224934 -0.000103576 0.00493984 4.52227e-18 0.00493984)
(0.00493984 -0.00224934 -0.000103576 0.00493984 2.01331e-18 0.00493984)
(0.00494097 -0.00224965 -0.000105531 0.00494097 4.72674e-18 0.00494097)
(0.00494097 -0.00224965 -0.000105531 0.00494097 1.99327e-18 0.00494097)
(0.00494178 -0.00224982 -0.000107517 0.00494178 5.00416e-18 0.00494178)
(0.00494178 -0.00224982 -0.000107517 0.00494178 1.98761e-18 0.00494178)
(0.00494228 -0.00224987 -0.000109533 0.00494228 5.18073e-18 0.00494228)
(0.00494228 -0.00224987 -0.000109533 0.00494228 2.14519e-18 0.00494228)
(0.00494247 -0.00224978 -0.000111581 0.00494247 5.37509e-18 0.00494247)
(0.00494247 -0.00224978 -0.000111581 0.00494247 2.19305e-18 0.00494247)
(0.00494235 -0.00224957 -0.000113661 0.00494235 5.53396e-18 0.00494235)
(0.00494235 -0.00224957 -0.000113661 0.00494235 2.15843e-18 0.00494235)
(0.00494193 -0.00224922 -0.000115772 0.00494193 5.68106e-18 0.00494193)
(0.00494193 -0.00224922 -0.000115772 0.00494193 2.2514e-18 0.00494193)
(0.00494121 -0.00224876 -0.000117916 0.00494121 5.84951e-18 0.00494121)
(0.00494121 -0.00224876 -0.000117916 0.00494121 2.42189e-18 0.00494121)
(0.0049402 -0.00224817 -0.000120092 0.0049402 6.06009e-18 0.0049402)
(0.0049402 -0.00224817 -0.000120092 0.0049402 2.5988e-18 0.0049402)
(0.0049389 -0.00224745 -0.000122302 0.0049389 6.25511e-18 0.0049389)
(0.0049389 -0.00224745 -0.000122302 0.0049389 2.70962e-18 0.0049389)
(0.00493731 -0.00224661 -0.000124546 0.00493731 6.47973e-18 0.00493731)
(0.00493731 -0.00224661 -0.000124546 0.00493731 2.83212e-18 0.00493731)
(0.00493543 -0.00224565 -0.000126824 0.00493543 6.69802e-18 0.00493543)
(0.00493543 -0.00224565 -0.000126824 0.00493543 2.95754e-18 0.00493543)
(0.00493327 -0.00224457 -0.000129136 0.00493327 6.79125e-18 0.00493327)
(0.00493327 -0.00224457 -0.000129136 0.00493327 3.02087e-18 0.00493327)
(0.00493083 -0.00224337 -0.000131483 0.00493083 6.98202e-18 0.00493083)
(0.00493083 -0.00224337 -0.000131483 0.00493083 3.09346e-18 0.00493083)
(0.00492811 -0.00224204 -0.000133865 0.00492811 7.23754e-18 0.00492811)
(0.00492811 -0.00224204 -0.000133865 0.00492811 3.32919e-18 0.00492811)
(0.00492511 -0.0022406 -0.000136282 0.00492511 7.36778e-18 0.00492511)
(0.00492511 -0.0022406 -0.000136282 0.00492511 3.52811e-18 0.00492511)
(0.00492184 -0.00223903 -0.000138736 0.00492184 7.5696e-18 0.00492184)
(0.00492184 -0.00223903 -0.000138736 0.00492184 3.52255e-18 0.00492184)
(0.00491829 -0.00223735 -0.000141226 0.00491829 7.96167e-18 0.00491829)
(0.00491829 -0.00223735 -0.000141226 0.00491829 3.48915e-18 0.00491829)
(0.00491447 -0.00223554 -0.000143753 0.00491447 8.30195e-18 0.00491447)
(0.00491447 -0.00223554 -0.000143753 0.00491447 3.86247e-18 0.00491447)
(0.00491037 -0.00223362 -0.000146317 0.00491037 8.49452e-18 0.00491037)
(0.00491037 -0.00223362 -0.000146317 0.00491037 4.28173e-18 0.00491037)
(0.004906 -0.00223157 -0.000148918 0.004906 8.88144e-18 0.004906)
(0.004906 -0.00223157 -0.000148918 0.004906 4.25968e-18 0.004906)
(0.00490136 -0.0022294 -0.000151557 0.00490136 9.19498e-18 0.00490136)
(0.00490136 -0.0022294 -0.000151557 0.00490136 4.12297e-18 0.00490136)
(0.00489645 -0.00222712 -0.000154234 0.00489645 9.39571e-18 0.00489645)
(0.00489645 -0.00222712 -0.000154234 0.00489645 4.58183e-18 0.00489645)
(0.00489127 -0.00222471 -0.000156949 0.00489127 9.80179e-18 0.00489127)
(0.00489127 -0.00222471 -0.000156949 0.00489127 5.06409e-18 0.00489127)
(0.00488581 -0.00222218 -0.000159703 0.00488581 1.01887e-17 0.00488581)
(0.00488581 -0.00222218 -0.000159703 0.00488581 5.59655e-18 0.00488581)
(0.00488008 -0.00221952 -0.000162496 0.00488008 1.07063e-17 0.00488008)
(0.00488008 -0.00221952 -0.000162496 0.00488008 5.7573e-18 0.00488008)
(0.00487409 -0.00221674 -0.000165328 0.00487409 1.07802e-17 0.00487409)
(0.00487409 -0.00221674 -0.000165328 0.00487409 6.13544e-18 0.00487409)
(0.00486781 -0.00221384 -0.0001682 0.00486781 9.73382e-18 0.00486781)
(0.00486781 -0.00221384 -0.0001682 0.00486781 6.6173e-18 0.00486781)
(0.00486127 -0.00221081 -0.000171112 0.00486127 8.98277e-18 0.00486127)
(0.00486127 -0.00221081 -0.000171112 0.00486127 6.1108e-18 0.00486127)
(0.00485445 -0.00220766 -0.000174063 0.00485445 8.88673e-18 0.00485445)
(0.00485445 -0.00220766 -0.000174063 0.00485445 7.04259e-18 0.00485445)
(0.00484736 -0.00220438 -0.000177055 0.00484736 9.44659e-18 0.00484736)
(0.00484736 -0.00220438 -0.000177055 0.00484736 7.77226e-18 0.00484736)
(0.00483999 -0.00220098 -0.000180087 0.00483999 9.88916e-18 0.00483999)
(0.00483999 -0.00220098 -0.000180087 0.00483999 7.50814e-18 0.00483999)
(0.00483235 -0.00219744 -0.000183159 0.00483235 1.02214e-17 0.00483235)
(0.00483235 -0.00219744 -0.000183159 0.00483235 6.41933e-18 0.00483235)
(0.00482442 -0.00219378 -0.000186273 0.00482442 1.11649e-17 0.00482442)
(0.00482442 -0.00219378 -0.000186273 0.00482442 7.27901e-18 0.00482442)
(0.00481622 -0.00218998 -0.000189427 0.00481622 1.14307e-17 0.00481622)
(0.00481622 -0.00218998 -0.000189427 0.00481622 8.90266e-18 0.00481622)
(0.00480774 -0.00218605 -0.000192622 0.00480774 9.05555e-18 0.00480774)
(0.00480774 -0.00218605 -0.000192622 0.00480774 7.98053e-18 0.00480774)
(0.00479897 -0.00218199 -0.000195859 0.00479897 6.1968e-19 0.00479897)
(0.00479897 -0.00218199 -0.000195859 0.00479897 7.32486e-18 0.00479897)
(0.00478992 -0.0021778 -0.000199136 0.00478992 3.45907e-19 0.00478992)
(0.00478992 -0.0021778 -0.000199136 0.00478992 8.3296e-18 0.00478992)
(0.00478059 -0.00217346 -0.000202455 0.00478059 9.55965e-20 0.00478059)
(0.00478059 -0.00217346 -0.000202455 0.00478059 8.85953e-18 0.00478059)
(0.00477096 -0.00216899 -0.000205815 0.00477096 -8.80738e-19 0.00477096)
(0.00477096 -0.00216899 -0.000205815 0.00477096 9.17006e-18 0.00477096)
(0.00476105 -0.00216439 -0.000209217 0.00476105 -2.92836e-18 0.00476105)
(0.00476105 -0.00216439 -0.000209217 0.00476105 9.86351e-18 0.00476105)
(0.00475084 -0.00215964 -0.000212659 0.00475084 -3.06779e-18 0.00475084)
(0.00475084 -0.00215964 -0.000212659 0.00475084 9.73377e-18 0.00475084)
(0.00474034 -0.00215475 -0.000216143 0.00474034 -1.54026e-18 0.00474034)
(0.00474034 -0.00215475 -0.000216143 0.00474034 9.09125e-18 0.00474034)
(0.00472954 -0.00214971 -0.000219668 0.00472954 -1.91862e-18 0.00472954)
(0.00472954 -0.00214971 -0.000219668 0.00472954 9.8576e-18 0.00472954)
(0.00471844 -0.00214453 -0.000223233 0.00471844 -2.54415e-18 0.00471844)
(0.00471844 -0.00214453 -0.000223233 0.00471844 1.06555e-17 0.00471844)
(0.00470705 -0.0021392 -0.00022684 0.00470705 -1.77452e-18 0.00470705)
(0.00470705 -0.0021392 -0.00022684 0.00470705 1.1301e-17 0.00470705)
(0.00469534 -0.00213372 -0.000230487 0.00469534 -1.16021e-18 0.00469534)
(0.00469534 -0.00213372 -0.000230487 0.00469534 1.17076e-17 0.00469534)
(0.00468333 -0.00212809 -0.000234174 0.00468333 -1.11427e-18 0.00468333)
(0.00468333 -0.00212809 -0.000234174 0.00468333 1.24962e-17 0.00468333)
(0.00467101 -0.00212231 -0.000237901 0.00467101 -1.79843e-18 0.00467101)
(0.00467101 -0.00212231 -0.000237901 0.00467101 1.39062e-17 0.00467101)
(0.00465837 -0.00211637 -0.000241667 0.00465837 -1.29497e-18 0.00465837)
(0.00465837 -0.00211637 -0.000241667 0.00465837 1.42012e-17 0.00465837)
(0.00464542 -0.00211028 -0.000245473 0.00464542 -1.4858e-19 0.00464542)
(0.00464542 -0.00211028 -0.000245473 0.00464542 1.42385e-17 0.00464542)
(0.00463215 -0.00210402 -0.000249318 0.00463215 -2.0838e-18 0.00463215)
(0.00463215 -0.00210402 -0.000249318 0.00463215 1.50557e-17 0.00463215)
(0.00461855 -0.00209761 -0.000253201 0.00461855 -6.60388e-18 0.00461855)
(0.00461855 -0.00209761 -0.000253201 0.00461855 1.57464e-17 0.00461855)
(0.00460463 -0.00209103 -0.000257121 0.00460463 -7.37023e-18 0.00460463)
(0.00460463 -0.00209103 -0.000257121 0.00460463 1.84596e-17 0.00460463)
(0.00459038 -0.00208428 -0.000261079 0.00459038 -7.51705e-18 0.00459038)
(0.00459038 -0.00208428 -0.000261079 0.00459038 2.06285e-17 0.00459038)
(0.0045758 -0.00207736 -0.000265072 0.0045758 -4.05212e-18 0.0045758)
(0.0045758 -0.00207736 -0.000265072 0.0045758 2.08382e-17 0.0045758)
(0.00456088 -0.00207028 -0.000269102 0.00456088 -2.99714e-18 0.00456088)
(0.00456088 -0.00207028 -0.000269102 0.00456088 2.26476e-17 0.00456088)
(0.00454562 -0.00206302 -0.000273166 0.00454562 -3.74869e-18 0.00454562)
(0.00454562 -0.00206302 -0.000273166 0.00454562 2.48495e-17 0.00454562)
(0.00453001 -0.00205558 -0.000277265 0.00453001 -7.35874e-18 0.00453001)
(0.00453001 -0.00205558 -0.000277265 0.00453001 3.19107e-17 0.00453001)
(0.00451405 -0.00204797 -0.000281396 0.00451405 -1.03199e-17 0.00451405)
(0.00451405 -0.00204797 -0.000281396 0.00451405 3.80548e-17 0.00451405)
(0.00449775 -0.00204017 -0.000285559 0.00449775 -6.88304e-18 0.00449775)
(0.00449775 -0.00204017 -0.000285559 0.00449775 3.6562e-17 0.00449775)
(0.00448108 -0.00203219 -0.000289753 0.00448108 -5.49944e-18 0.00448108)
(0.00448108 -0.00203219 -0.000289753 0.00448108 3.75114e-17 0.00448108)
(0.00446405 -0.00202403 -0.000293977 0.00446405 -4.24617e-18 0.00446405)
(0.00446405 -0.00202403 -0.000293977 0.00446405 3.85756e-17 0.00446405)
(0.00444666 -0.00201567 -0.000298229 0.00444666 -3.47072e-19 0.00444666)
(0.00444666 -0.00201567 -0.000298229 0.00444666 3.79014e-17 0.00444666)
(0.0044289 -0.00200712 -0.000302508 0.0044289 7.67021e-19 0.0044289)
(0.0044289 -0.00200712 -0.000302508 0.0044289 3.99019e-17 0.0044289)
(0.00441076 -0.00199838 -0.000306813 0.00441076 1.24341e-18 0.00441076)
(0.00441076 -0.00199838 -0.000306813 0.00441076 4.35447e-17 0.00441076)
(0.00439224 -0.00198943 -0.000311141 0.00439224 1.26733e-18 0.00439224)
(0.00439224 -0.00198943 -0.000311141 0.00439224 4.8101e-17 0.00439224)
(0.00437334 -0.00198029 -0.000315492 0.00437334 -2.91062e-19 0.00437334)
(0.00437334 -0.00198029 -0.000315492 0.00437334 4.82727e-17 0.00437334)
(0.00435405 -0.00197094 -0.000319863 0.00435405 7.53535e-19 0.00435405)
(0.00435405 -0.00197094 -0.000319863 0.00435405 4.34619e-17 0.00435405)
(0.00433437 -0.00196138 -0.000324252 0.00433437 3.77468e-18 0.00433437)
(0.00433437 -0.00196138 -0.000324252 0.00433437 4.31309e-17 0.00433437)
(0.00431428 -0.00195161 -0.000328658 0.00431428 2.70568e-18 0.00431428)
(0.00431428 -0.00195161 -0.000328658 0.00431428 4.71914e-17 0.00431428)
(0.0042938 -0.00194163 -0.000333078 0.0042938 3.43219e-18 0.0042938)
(0.0042938 -0.00194163 -0.000333078 0.0042938 4.82641e-17 0.0042938)
(0.0042729 -0.00193143 -0.00033751 0.0042729 7.21337e-18 0.0042729)
(0.0042729 -0.00193143 -0.00033751 0.0042729 4.96677e-17 0.0042729)
(0.00425158 -0.001921 -0.000341952 0.00425158 2.51673e-18 0.00425158)
(0.00425158 -0.001921 -0.000341952 0.00425158 5.07906e-17 0.00425158)
(0.00422985 -0.00191035 -0.0003464 0.00422985 -1.88383e-19 0.00422985)
(0.00422985 -0.00191035 -0.0003464 0.00422985 4.9744e-17 0.00422985)
(0.00420769 -0.00189947 -0.000350853 0.00420769 1.46047e-18 0.00420769)
(0.00420769 -0.00189947 -0.000350853 0.00420769 3.98961e-17 0.00420769)
(0.0041851 -0.00188836 -0.000355307 0.0041851 3.70111e-18 0.0041851)
(0.0041851 -0.00188836 -0.000355307 0.0041851 3.06589e-17 0.0041851)
(0.00416207 -0.00187701 -0.000359759 0.00416207 3.92059e-18 0.00416207)
(0.00416207 -0.00187701 -0.000359759 0.00416207 3.07345e-17 0.00416207)
(0.00413859 -0.00186542 -0.000364205 0.00413859 2.51646e-18 0.00413859)
(0.00413859 -0.00186542 -0.000364205 0.00413859 3.12256e-17 0.00413859)
(0.00411467 -0.00185359 -0.000368644 0.00411467 -1.0676e-18 0.00411467)
(0.00411467 -0.00185359 -0.000368644 0.00411467 3.56813e-17 0.00411467)
(0.00409029 -0.00184151 -0.00037307 0.00409029 -3.91553e-18 0.00409029)
(0.00409029 -0.00184151 -0.00037307 0.00409029 3.33095e-17 0.00409029)
(0.00406545 -0.00182917 -0.000377481 0.00406545 2.51206e-18 0.00406545)
(0.00406545 -0.00182917 -0.000377481 0.00406545 3.51542e-17 0.00406545)
(0.00404014 -0.00181658 -0.000381871 0.00404014 2.55025e-18 0.00404014)
(0.00404014 -0.00181658 -0.000381871 0.00404014 3.37933e-17 0.00404014)
(0.00401436 -0.00180373 -0.000386237 0.00401436 2.19987e-18 0.00401436)
(0.00401436 -0.00180373 -0.000386237 0.00401436 3.04927e-17 0.00401436)
(0.00398809 -0.00179061 -0.000390575 0.00398809 2.35578e-18 0.00398809)
(0.00398809 -0.00179061 -0.000390575 0.00398809 2.17093e-17 0.00398809)
(0.00396134 -0.00177722 -0.000394879 0.00396134 -3.72589e-18 0.00396134)
(0.00396134 -0.00177722 -0.000394879 0.00396134 2.21417e-17 0.00396134)
(0.00393409 -0.00176356 -0.000399145 0.00393409 -3.63061e-20 0.00393409)
(0.00393409 -0.00176356 -0.000399145 0.00393409 2.27498e-17 0.00393409)
(0.00390635 -0.00174961 -0.000403367 0.00390635 1.11335e-18 0.00390635)
(0.00390635 -0.00174961 -0.000403367 0.00390635 2.1577e-17 0.00390635)
(0.0038781 -0.00173539 -0.000407541 0.0038781 2.88553e-18 0.0038781)
(0.0038781 -0.00173539 -0.000407541 0.0038781 2.31402e-17 0.0038781)
(0.00384933 -0.00172087 -0.00041166 0.00384933 2.95646e-18 0.00384933)
(0.00384933 -0.00172087 -0.00041166 0.00384933 2.11935e-17 0.00384933)
(0.00382004 -0.00170606 -0.000415718 0.00382004 3.54584e-18 0.00382004)
(0.00382004 -0.00170606 -0.000415718 0.00382004 1.24012e-17 0.00382004)
(0.00379023 -0.00169095 -0.000419709 0.00379023 -1.1181e-18 0.00379023)
(0.00379023 -0.00169095 -0.000419709 0.00379023 6.64632e-18 0.00379023)
(0.00375988 -0.00167554 -0.000423627 0.00375988 -1.50581e-18 0.00375988)
(0.00375988 -0.00167554 -0.000423627 0.00375988 9.45852e-18 0.00375988)
(0.00372899 -0.00165982 -0.000427464 0.00372899 2.82615e-18 0.00372899)
(0.00372899 -0.00165982 -0.000427464 0.00372899 1.17436e-17 0.00372899)
(0.00369756 -0.00164378 -0.000431213 0.00369756 -2.00278e-19 0.00369756)
(0.00369756 -0.00164378 -0.000431213 0.00369756 4.40715e-18 0.00369756)
(0.00366557 -0.00162743 -0.000434866 0.00366557 -1.06242e-18 0.00366557)
(0.00366557 -0.00162743 -0.000434866 0.00366557 8.42883e-18 0.00366557)
(0.00363302 -0.00161075 -0.000438416 0.00363302 2.07717e-18 0.00363302)
(0.00363302 -0.00161075 -0.000438416 0.00363302 9.04441e-18 0.00363302)
(0.0035999 -0.00159373 -0.000441854 0.0035999 5.58788e-18 0.0035999)
(0.0035999 -0.00159373 -0.000441854 0.0035999 2.30836e-18 0.0035999)
(0.00356622 -0.00157639 -0.000445171 0.00356622 5.4425e-18 0.00356622)
(0.00356622 -0.00157639 -0.000445171 0.00356622 7.08107e-33 0.00356622)
(0.00353195 -0.00155869 -0.000448358 0.00353195 2.78948e-18 0.00353195)
(0.00353195 -0.00155869 -0.000448358 0.00353195 4.96714e-18 0.00353195)
(0.0034971 -0.00154065 -0.000451405 0.0034971 3.23049e-18 0.0034971)
(0.0034971 -0.00154065 -0.000451405 0.0034971 1.11831e-17 0.0034971)
(0.00346166 -0.00152226 -0.000454302 0.00346166 -2.60813e-18 0.00346166)
(0.00346166 -0.00152226 -0.000454302 0.00346166 9.20043e-18 0.00346166)
(0.00342562 -0.0015035 -0.000457039 0.00342562 -6.77538e-18 0.00342562)