/*--------------------------------*- C++ -*----------------------------------*\
| =========                 |                                                 |
| \\      /  F ield         | OpenFOAM: The Open Source CFD Toolbox           |
|  \\    /   O peration     | Version:  2106                                  |
|   \\  /    A nd           | Website:  www.openfoam.com                      |
|    \\/     M anipulation  |                                                 |
\*---------------------------------------------------------------------------*/
FoamFile
{
    version     2.0;
    format      ascii;
    arch        "LSB;label=32;scalar=64";
    class       volVectorField;
    location    "10050";
    object      U;
}
// * * * * * * * * * * * * * * * * * * * * * * * * * * * * * * * * * * * * * //

dimensions      [0 1 -1 0 0 0 0];

internalField   nonuniform List<vector> 
2000
(
(0.0056954 -6.97548e-16 -2.33473e-17)
(0.0056954 7.2277e-19 -9.20052e-22)
(0.0171904 -2.55993e-15 -5.38669e-17)
(0.0171904 -1.74106e-18 2.40412e-20)
(0.0288976 -2.45386e-15 -5.68306e-17)
(0.0288976 -1.72902e-18 2.83956e-20)
(0.0408211 -2.34307e-15 -5.9488e-17)
(0.0408211 -2.65042e-18 4.4847e-20)
(0.0529647 -2.24623e-15 -6.24324e-17)
(0.0529647 -3.58426e-18 6.51601e-20)
(0.0653322 -2.28751e-15 -6.5605e-17)
(0.0653322 -4.53875e-18 8.96728e-20)
(0.0779269 -2.29052e-15 -6.89249e-17)
(0.0779269 -5.53781e-18 1.1627e-19)
(0.0907516 -2.28951e-15 -7.23694e-17)
(0.0907516 -6.57553e-18 1.42741e-19)
(0.103808 -2.28808e-15 -7.593e-17)
(0.103808 -7.68656e-18 1.73514e-19)
(0.117095 -2.2868e-15 -7.95939e-17)
(0.117095 -8.87292e-18 2.07715e-19)
(0.130611 -2.28542e-15 -8.33404e-17)
(0.130611 -1.01129e-17 2.45115e-19)
(0.144348 -2.2839e-15 -8.714e-17)
(0.144348 -1.13054e-17 2.86978e-19)
(0.158293 -2.28216e-15 -9.09516e-17)
(0.158293 -1.26092e-17 3.28791e-19)
(0.172427 -2.2802e-15 -9.47212e-17)
(0.172427 -1.41682e-17 3.69128e-19)
(0.186723 -2.27816e-15 -9.83818e-17)
(0.186723 -1.56529e-17 4.17099e-19)
(0.201145 -2.27634e-15 -1.01858e-16)
(0.201145 -1.71528e-17 4.74757e-19)
(0.215649 -2.27459e-15 -1.05069e-16)
(0.215649 -1.88619e-17 5.29898e-19)
(0.23018 -2.27275e-15 -1.07937e-16)
(0.23018 -2.04177e-17 5.84098e-19)
(0.244681 -2.27093e-15 -1.10397e-16)
(0.244681 -2.15486e-17 6.44138e-19)
(0.259088 -2.26881e-15 -1.12399e-16)
(0.259088 -2.33649e-17 6.97036e-19)
(0.273337 -2.26654e-15 -1.13918e-16)
(0.273337 -2.49945e-17 7.45737e-19)
(0.287369 -2.26435e-15 -1.14954e-16)
(0.287369 -2.66018e-17 7.96093e-19)
(0.301129 -2.26208e-15 -1.15533e-16)
(0.301129 -2.83501e-17 8.42057e-19)
(0.314571 -2.25978e-15 -1.15702e-16)
(0.314571 -3.00916e-17 8.88249e-19)
(0.327658 -2.25742e-15 -1.1552e-16)
(0.327658 -3.20599e-17 9.34874e-19)
(0.340366 -2.25499e-15 -1.15051e-16)
(0.340366 -3.39274e-17 9.80485e-19)
(0.352675 -2.253e-15 -1.14363e-16)
(0.352675 -3.55432e-17 1.0272e-18)
(0.36458 -2.2511e-15 -1.1352e-16)
(0.36458 -3.74213e-17 1.06909e-18)
(0.376077 -2.24859e-15 -1.12577e-16)
(0.376077 -3.92541e-17 1.11888e-18)
(0.387172 -2.24578e-15 -1.1158e-16)
(0.387172 -4.1226e-17 1.16489e-18)
(0.397874 -2.24313e-15 -1.10565e-16)
(0.397874 -4.31398e-17 1.21052e-18)
(0.408195 -2.24063e-15 -1.09569e-16)
(0.408195 -4.49929e-17 1.26505e-18)
(0.41815 -2.23828e-15 -1.08614e-16)
(0.41815 -4.69253e-17 1.31938e-18)
(0.427754 -2.23613e-15 -1.07718e-16)
(0.427754 -4.89641e-17 1.36955e-18)
(0.437024 -2.23385e-15 -1.06893e-16)
(0.437024 -5.08673e-17 1.42569e-18)
(0.445976 -2.23216e-15 -1.0615e-16)
(0.445976 -5.23358e-17 1.4869e-18)
(0.454628 -2.23092e-15 -1.05502e-16)
(0.454628 -5.346e-17 1.53065e-18)
(0.462996 -2.22957e-15 -1.04952e-16)
(0.462996 -5.40924e-17 1.57175e-18)
(0.471096 -2.2281e-15 -1.04503e-16)
(0.471096 -5.52956e-17 1.61381e-18)
(0.478942 -2.22616e-15 -1.04159e-16)
(0.478942 -5.68944e-17 1.65808e-18)
(0.486548 -2.22457e-15 -1.03915e-16)
(0.486548 -5.78939e-17 1.71274e-18)
(0.493929 -2.22317e-15 -1.0377e-16)
(0.493929 -5.89271e-17 1.75116e-18)
(0.501097 -2.22152e-15 -1.03724e-16)
(0.501097 -5.9798e-17 1.79042e-18)
(0.508064 -2.22013e-15 -1.03778e-16)
(0.508064 -6.11043e-17 1.82095e-18)
(0.514841 -2.21839e-15 -1.03927e-16)
(0.514841 -6.2179e-17 1.85875e-18)
(0.521439 -2.2161e-15 -1.04179e-16)
(0.521439 -6.38645e-17 1.89765e-18)
(0.527867 -2.21478e-15 -1.04522e-16)
(0.527867 -6.59291e-17 1.93747e-18)
(0.534136 -2.21401e-15 -1.04959e-16)
(0.534136 -6.6706e-17 1.97379e-18)
(0.540252 -2.21225e-15 -1.05481e-16)
(0.540252 -6.77381e-17 2.02662e-18)
(0.546224 -2.21064e-15 -1.06089e-16)
(0.546224 -6.9251e-17 2.07754e-18)
(0.552061 -2.20895e-15 -1.06777e-16)
(0.552061 -7.05726e-17 2.08991e-18)
(0.557768 -2.20695e-15 -1.07552e-16)
(0.557768 -7.19054e-17 2.12295e-18)
(0.563353 -2.20515e-15 -1.08405e-16)
(0.563353 -7.33354e-17 2.16463e-18)
(0.56882 -2.20298e-15 -1.0934e-16)
(0.56882 -7.50856e-17 2.19058e-18)
(0.574178 -2.19926e-15 -1.10356e-16)
(0.574178 -7.71472e-17 2.20773e-18)
(0.579429 -2.19604e-15 -1.11446e-16)
(0.579429 -7.871e-17 2.2406e-18)
(0.58458 -2.19419e-15 -1.12623e-16)
(0.58458 -7.9978e-17 2.25067e-18)
(0.589636 -2.19214e-15 -1.13877e-16)
(0.589636 -8.13753e-17 2.28827e-18)
(0.5946 -2.19007e-15 -1.15223e-16)
(0.5946 -8.36234e-17 2.28351e-18)
(0.599478 -2.18793e-15 -1.16661e-16)
(0.599478 -8.54855e-17 2.26979e-18)
(0.604272 -2.18564e-15 -1.18199e-16)
(0.604272 -8.72484e-17 2.22525e-18)
(0.608986 -2.18373e-15 -1.1982e-16)
(0.608986 -8.80418e-17 2.23147e-18)
(0.613625 -2.18217e-15 -1.2152e-16)
(0.613625 -8.87886e-17 2.25668e-18)
(0.618191 -2.18045e-15 -1.23308e-16)
(0.618191 -9.14706e-17 2.31504e-18)
(0.622688 -2.17909e-15 -1.25185e-16)
(0.622688 -9.32635e-17 2.33664e-18)
(0.627117 -2.17653e-15 -1.2714e-16)
(0.627117 -9.5736e-17 2.38925e-18)
(0.631483 -2.17355e-15 -1.29164e-16)
(0.631483 -9.80978e-17 2.46763e-18)
(0.635788 -2.1699e-15 -1.31266e-16)
(0.635788 -9.99067e-17 2.47033e-18)
(0.640034 -2.16513e-15 -1.33441e-16)
(0.640034 -1.02296e-16 2.49793e-18)
(0.644223 -2.1617e-15 -1.35709e-16)
(0.644223 -1.05088e-16 2.55933e-18)
(0.648358 -2.15884e-15 -1.38056e-16)
(0.648358 -1.08243e-16 2.57618e-18)
(0.65244 -2.15499e-15 -1.40488e-16)
(0.65244 -1.10714e-16 2.61665e-18)
(0.656473 -2.15127e-15 -1.43005e-16)
(0.656473 -1.14241e-16 2.68563e-18)
(0.660457 -2.1475e-15 -1.45603e-16)
(0.660457 -1.18071e-16 2.69655e-18)
(0.664395 -2.14331e-15 -1.48323e-16)
(0.664395 -1.20146e-16 2.66152e-18)
(0.668288 -2.14005e-15 -1.51124e-16)
(0.668288 -1.23566e-16 2.738e-18)
(0.672138 -2.1364e-15 -1.54015e-16)
(0.672138 -1.28099e-16 2.81822e-18)
(0.675947 -2.13235e-15 -1.57014e-16)
(0.675947 -1.32448e-16 2.93164e-18)
(0.679715 -2.12885e-15 -1.6011e-16)
(0.679715 -1.35665e-16 2.96584e-18)
(0.683445 -2.12456e-15 -1.6333e-16)
(0.683445 -1.39828e-16 3.0242e-18)
(0.687137 -2.12097e-15 -1.66659e-16)
(0.687137 -1.45607e-16 3.16924e-18)
(0.690794 -2.11705e-15 -1.70095e-16)
(0.690794 -1.48963e-16 3.30343e-18)
(0.694415 -2.11151e-15 -1.73636e-16)
(0.694415 -1.5462e-16 3.41222e-18)
(0.698003 -2.10649e-15 -1.77302e-16)
(0.698003 -1.60594e-16 3.4295e-18)
(0.701559 -2.10256e-15 -1.81109e-16)
(0.701559 -1.62996e-16 3.44432e-18)
(0.705083 -2.09777e-15 -1.85027e-16)
(0.705083 -1.66875e-16 3.41827e-18)
(0.708577 -2.09232e-15 -1.89063e-16)
(0.708577 -1.74205e-16 3.49091e-18)
(0.712041 -2.0909e-15 -1.9321e-16)
(0.712041 -1.81512e-16 3.4484e-18)
(0.715477 -2.08542e-15 -1.97471e-16)
(0.715477 -1.85193e-16 3.46714e-18)
(0.718885 -2.07883e-15 -2.01837e-16)
(0.718885 -1.91364e-16 3.4473e-18)
(0.722267 -2.07283e-15 -2.0637e-16)
(0.722267 -2.00044e-16 3.43931e-18)
(0.725623 -2.06499e-15 -2.1103e-16)
(0.725623 -2.06067e-16 3.46569e-18)
(0.728954 -2.05417e-15 -2.15792e-16)
(0.728954 -2.14494e-16 3.52828e-18)
(0.732261 -2.04546e-15 -2.20692e-16)
(0.732261 -2.21974e-16 3.57366e-18)
(0.735544 -2.03583e-15 -2.25724e-16)
(0.735544 -2.27066e-16 3.57816e-18)
(0.738804 -2.03141e-15 -2.30955e-16)
(0.738804 -2.31649e-16 3.62091e-18)
(0.742042 -2.02801e-15 -2.36353e-16)
(0.742042 -2.35415e-16 3.55035e-18)
(0.745259 -2.0254e-15 -2.4198e-16)
(0.745259 -2.37081e-16 3.4082e-18)
(0.748455 -2.02167e-15 -2.47875e-16)
(0.748455 -2.39816e-16 3.14082e-18)
(0.751631 -2.01912e-15 -2.53993e-16)
(0.751631 -2.43062e-16 3.02797e-18)
(0.754787 -2.0162e-15 -2.60372e-16)
(0.754787 -2.45807e-16 2.82351e-18)
(0.757924 -2.0104e-15 -2.66943e-16)
(0.757924 -2.47887e-16 2.9104e-18)
(0.761043 -2.0047e-15 -2.73732e-16)
(0.761043 -2.52129e-16 2.84269e-18)
(0.764143 -1.99808e-15 -2.8071e-16)
(0.764143 -2.56478e-16 2.8265e-18)
(0.767226 -1.9914e-15 -2.8785e-16)
(0.767226 -2.61678e-16 2.89183e-18)
(0.770292 -1.98515e-15 -2.95162e-16)
(0.770292 -2.69375e-16 3.22476e-18)
(0.773342 -1.97881e-15 -3.02653e-16)
(0.773342 -2.74272e-16 3.48499e-18)
(0.776376 -1.97081e-15 -3.10323e-16)
(0.776376 -2.808e-16 3.66858e-18)
(0.779394 -1.96172e-15 -3.1811e-16)
(0.779394 -2.83847e-16 3.72682e-18)
(0.782397 -1.95137e-15 -3.26091e-16)
(0.782397 -2.85154e-16 3.86325e-18)
(0.785385 -1.93985e-15 -3.34241e-16)
(0.785385 -2.88998e-16 3.86744e-18)
(0.788359 -1.9306e-15 -3.42571e-16)
(0.788359 -2.93596e-16 3.96625e-18)
(0.791318 -1.92141e-15 -3.51129e-16)
(0.791318 -2.97149e-16 4.00603e-18)
(0.794264 -1.91113e-15 -3.59873e-16)
(0.794264 -3.03879e-16 4.16159e-18)
(0.797197 -1.90376e-15 -3.6888e-16)
(0.797197 -3.09184e-16 4.12584e-18)
(0.800117 -1.89775e-15 -3.78225e-16)
(0.800117 -3.13243e-16 3.82023e-18)
(0.803025 -1.88817e-15 -3.87836e-16)
(0.803025 -3.20342e-16 4.3748e-18)
(0.80592 -1.87564e-15 -3.97665e-16)
(0.80592 -3.28858e-16 4.63578e-18)
(0.808803 -1.86429e-15 -4.07681e-16)
(0.808803 -3.35304e-16 4.90618e-18)
(0.811675 -1.85183e-15 -4.18066e-16)
(0.811675 -3.4008e-16 4.717e-18)
(0.814535 -1.83925e-15 -4.28831e-16)
(0.814535 -3.50788e-16 5.33076e-18)
(0.817384 -1.829e-15 -4.39904e-16)
(0.817384 -3.65122e-16 6.11853e-18)
(0.820223 -1.81824e-15 -4.51407e-16)
(0.820223 -3.76337e-16 6.4405e-18)
(0.823051 -1.80666e-15 -4.63353e-16)
(0.823051 -3.85632e-16 6.77598e-18)
(0.825868 -1.79111e-15 -4.75628e-16)
(0.825868 -3.93558e-16 6.45093e-18)
(0.828676 -1.7744e-15 -4.88209e-16)
(0.828676 -4.04781e-16 6.92313e-18)
(0.831474 -1.76001e-15 -5.00389e-16)
(0.831474 -4.1333e-16 6.11857e-18)
(0.834262 -1.74751e-15 -5.10561e-16)
(0.834262 -4.17732e-16 6.66174e-18)
(0.837041 -1.74518e-15 -5.21075e-16)
(0.837041 -4.29885e-16 7.64667e-18)
(0.839811 -1.74262e-15 -5.32539e-16)
(0.839811 -4.30682e-16 7.37659e-18)
(0.842572 -1.73613e-15 -5.44369e-16)
(0.842572 -4.332e-16 6.29433e-18)
(0.845324 -1.72737e-15 -5.56248e-16)
(0.845324 -4.40835e-16 7.20444e-18)
(0.848068 -1.71821e-15 -5.68476e-16)
(0.848068 -4.41574e-16 9.5325e-18)
(0.850804 -1.71061e-15 -5.82595e-16)
(0.850804 -4.4341e-16 8.67199e-18)
(0.853531 -1.69718e-15 -5.95663e-16)
(0.853531 -4.43235e-16 7.59566e-18)
(0.856251 -1.69132e-15 -6.02734e-16)
(0.856251 -4.42775e-16 9.73411e-18)
(0.858962 -1.68663e-15 -6.02856e-16)
(0.858962 -4.4486e-16 1.06731e-17)
(0.861666 -1.67369e-15 -6.01747e-16)
(0.861666 -4.42962e-16 1.0886e-17)
(0.864363 -1.66276e-15 -6.00681e-16)
(0.864363 -4.43156e-16 1.08914e-17)
(0.867052 -1.65054e-15 -5.9709e-16)
(0.867052 -4.44217e-16 1.08027e-17)
(0.869734 -1.63807e-15 -5.91025e-16)
(0.869734 -4.45096e-16 9.86586e-18)
(0.87241 -1.626e-15 -5.87041e-16)
(0.87241 -4.49105e-16 1.05311e-17)
(0.875078 -1.61374e-15 -5.84797e-16)
(0.875078 -4.63575e-16 1.16159e-17)
(0.877739 -1.59909e-15 -5.79748e-16)
(0.877739 -4.74914e-16 1.17375e-17)
(0.880394 -1.58143e-15 -5.75444e-16)
(0.880394 -4.84387e-16 1.20466e-17)
(0.883042 -1.56332e-15 -5.71603e-16)
(0.883042 -4.95218e-16 1.19105e-17)
(0.885684 -1.54486e-15 -5.68659e-16)
(0.885684 -5.12109e-16 1.27958e-17)
(0.88832 -1.52962e-15 -5.64764e-16)
(0.88832 -5.26434e-16 1.25769e-17)
(0.890949 -1.51639e-15 -5.60774e-16)
(0.890949 -5.33473e-16 1.18689e-17)
(0.893572 -1.49895e-15 -5.58541e-16)
(0.893572 -5.4972e-16 1.20231e-17)
(0.89619 -1.48376e-15 -5.56345e-16)
(0.89619 -5.61171e-16 1.30884e-17)
(0.898801 -1.47824e-15 -5.49611e-16)
(0.898801 -5.64239e-16 1.25129e-17)
(0.901406 -1.46414e-15 -5.38547e-16)
(0.901406 -5.75633e-16 1.21441e-17)
(0.904006 -1.46597e-15 -5.27797e-16)
(0.904006 -5.85027e-16 5.89372e-18)
(0.9066 -1.44879e-15 -5.19842e-16)
(0.9066 -5.94124e-16 1.07343e-18)
(0.909188 -1.42684e-15 -5.13312e-16)
(0.909188 -6.09829e-16 -4.11348e-18)
(0.911771 -1.40935e-15 -5.0664e-16)
(0.911771 -6.17104e-16 -1.0815e-17)
(0.914348 -1.40091e-15 -4.99294e-16)
(0.914348 -6.26987e-16 -2.03267e-17)
(0.91692 -1.39526e-15 -4.85871e-16)
(0.91692 -6.4041e-16 -4.3537e-17)
(0.919486 -1.37512e-15 -4.71842e-16)
(0.919486 -6.45233e-16 -6.57428e-17)
(0.922047 -1.35461e-15 -4.62978e-16)
(0.922047 -6.63127e-16 -8.41603e-17)
(0.924603 -1.33581e-15 -4.5212e-16)
(0.924603 -6.76635e-16 -1.07405e-16)
(0.927153 -1.31745e-15 -4.46851e-16)
(0.927153 -6.85458e-16 -1.25909e-16)
(0.929698 -1.30529e-15 -4.45844e-16)
(0.929698 -6.91139e-16 -1.45491e-16)
(0.932238 -1.29837e-15 -4.4513e-16)
(0.932238 -6.89392e-16 -1.67953e-16)
(0.934773 -1.28807e-15 -4.46896e-16)
(0.934773 -7.00015e-16 -1.95507e-16)
(0.937302 -1.27359e-15 -4.44143e-16)
(0.937302 -7.12303e-16 -2.28203e-16)
(0.939826 -1.26004e-15 -4.41537e-16)
(0.939826 -7.11398e-16 -2.55128e-16)
(0.942345 -1.23898e-15 -4.41695e-16)
(0.942345 -7.19053e-16 -2.7428e-16)
(0.944858 -1.21833e-15 -4.44273e-16)
(0.944858 -7.25627e-16 -2.99068e-16)
(0.947367 -1.20071e-15 -4.43083e-16)
(0.947367 -7.32979e-16 -3.27162e-16)
(0.94987 -1.17171e-15 -4.47128e-16)
(0.94987 -7.41129e-16 -3.52141e-16)
(0.952367 -1.15337e-15 -4.51618e-16)
(0.952367 -7.4129e-16 -3.82486e-16)
(0.95486 -1.14548e-15 -4.50779e-16)
(0.95486 -7.4349e-16 -4.1033e-16)
(0.957346 -1.13195e-15 -4.46454e-16)
(0.957346 -7.4323e-16 -4.36743e-16)
(0.959828 -1.12242e-15 -4.49666e-16)
(0.959828 -7.42756e-16 -4.3776e-16)
(0.962304 -1.10794e-15 -4.52576e-16)
(0.962304 -7.45344e-16 -4.38579e-16)
(0.964774 -1.09091e-15 -4.54433e-16)
(0.964774 -7.35064e-16 -4.38275e-16)
(0.967239 -1.08701e-15 -4.53335e-16)
(0.967239 -7.2777e-16 -4.40088e-16)
(0.969698 -1.07811e-15 -4.44402e-16)
(0.969698 -7.36072e-16 -4.51106e-16)
(0.972152 -1.05551e-15 -4.39314e-16)
(0.972152 -7.66116e-16 -4.52049e-16)
(0.974599 -1.04048e-15 -4.41864e-16)
(0.974599 -7.85094e-16 -4.54548e-16)
(0.977041 -1.02124e-15 -4.3981e-16)
(0.977041 -7.88685e-16 -4.50057e-16)
(0.979476 -9.94118e-16 -4.39576e-16)
(0.979476 -8.16489e-16 -4.40937e-16)
(0.981906 -9.79379e-16 -4.33603e-16)
(0.981906 -8.30234e-16 -4.31446e-16)
(0.984329 -9.77273e-16 -4.228e-16)
(0.984329 -8.39535e-16 -4.3515e-16)
(0.986746 -9.70621e-16 -4.32741e-16)
(0.986746 -8.37311e-16 -4.31827e-16)
(0.989156 -9.5619e-16 -4.32207e-16)
(0.989156 -8.34252e-16 -4.33166e-16)
(0.991559 -9.43059e-16 -4.33979e-16)
(0.991559 -8.4862e-16 -4.38695e-16)
(0.993955 -9.23638e-16 -4.34147e-16)
(0.993955 -8.52363e-16 -4.47055e-16)
(0.996345 -9.16986e-16 -4.34448e-16)
(0.996345 -8.52644e-16 -4.37848e-16)
(0.998727 -9.09918e-16 -4.27618e-16)
(0.998727 -8.48035e-16 -4.33868e-16)
(1.0011 -8.87323e-16 -4.26647e-16)
(1.0011 -8.47311e-16 -4.33391e-16)
(1.00347 -8.81773e-16 -4.24019e-16)
(1.00347 -8.57663e-16 -4.46902e-16)
(1.00583 -8.87122e-16 -4.23171e-16)
(1.00583 -8.64916e-16 -4.45142e-16)
(1.00818 -8.78281e-16 -4.20931e-16)
(1.00818 -8.51607e-16 -4.59557e-16)
(1.01052 -8.5977e-16 -4.24455e-16)
(1.01052 -8.67051e-16 -4.62509e-16)
(1.01285 -8.41221e-16 -4.27035e-16)
(1.01285 -8.78806e-16 -4.62569e-16)
(1.01518 -8.20646e-16 -4.19173e-16)
(1.01518 -8.40742e-16 -4.4988e-16)
(1.01749 -8.2421e-16 -4.23592e-16)
(1.01749 -8.09274e-16 -4.55584e-16)
(1.0198 -8.27488e-16 -4.26928e-16)
(1.0198 -7.80994e-16 -4.6498e-16)
(1.0221 -8.16269e-16 -4.15572e-16)
(1.0221 -7.73579e-16 -4.53861e-16)
(1.02438 -7.95266e-16 -3.99401e-16)
(1.02438 -7.60392e-16 -4.60327e-16)
(1.02666 -7.77792e-16 -4.22504e-16)
(1.02666 -7.62296e-16 -4.61469e-16)
(1.02892 -7.52668e-16 -4.25504e-16)
(1.02892 -7.45915e-16 -4.29884e-16)
(1.03117 -7.19673e-16 -4.38359e-16)
(1.03117 -7.16512e-16 -4.26533e-16)
(1.03341 -7.06172e-16 -4.28445e-16)
(1.03341 -7.30049e-16 -4.43519e-16)
(1.03564 -6.93874e-16 -4.30807e-16)
(1.03564 -7.13174e-16 -4.40723e-16)
(1.03785 -6.736e-16 -4.16676e-16)
(1.03785 -6.68845e-16 -4.33745e-16)
(1.04005 -6.43784e-16 -4.17451e-16)
(1.04005 -6.40352e-16 -4.5847e-16)
(1.04224 -6.18469e-16 -4.14708e-16)
(1.04224 -6.13346e-16 -4.54316e-16)
(1.04441 -6.06293e-16 -4.5992e-16)
(1.04441 -6.02774e-16 -4.27536e-16)
(1.04657 -5.43265e-16 -4.56924e-16)
(1.04657 -5.98266e-16 -4.0144e-16)
(1.04871 -6.10244e-16 -4.86197e-16)
(1.04871 -5.84677e-16 -3.9201e-16)
(1.05083 -6.19442e-16 -4.95707e-16)
(1.05083 -6.17497e-16 -4.14743e-16)
(1.05294 -6.308e-16 -5.01912e-16)
(1.05294 -6.05028e-16 -4.08843e-16)
(1.05502 -6.33906e-16 -5.09486e-16)
(1.05502 -5.54567e-16 -3.6781e-16)
(1.05709 -6.20891e-16 -4.66096e-16)
(1.05709 -5.96178e-16 -3.92017e-16)
(1.05914 -6.09207e-16 -4.64464e-16)
(1.05914 -6.14219e-16 -4.03388e-16)
(1.06116 -5.95241e-16 -4.75839e-16)
(1.06116 -6.18324e-16 -3.92588e-16)
(1.06317 -6.24049e-16 -4.64468e-16)
(1.06317 -6.13655e-16 -3.97277e-16)
(1.06515 -5.99732e-16 -4.91729e-16)
(1.06515 -5.90253e-16 -4.23987e-16)
(1.0671 -5.97734e-16 -4.86849e-16)
(1.0671 -5.81285e-16 -3.86295e-16)
(1.06903 -6.25206e-16 -4.47196e-16)
(1.06903 -5.81053e-16 -3.75148e-16)
(1.07093 -5.91829e-16 -4.02604e-16)
(1.07093 -5.9938e-16 -3.68285e-16)
(1.0728 -5.50938e-16 -4.00282e-16)
(1.0728 -5.94322e-16 -3.72753e-16)
(1.07464 -5.42074e-16 -4.46252e-16)
(1.07464 -5.27233e-16 -3.85752e-16)
(1.07644 -5.42758e-16 -4.44791e-16)
(1.07644 -5.39112e-16 -4.04384e-16)
(1.07822 -5.26722e-16 -4.42995e-16)
(1.07822 -5.774e-16 -3.86037e-16)
(1.07995 -5.52858e-16 -4.3567e-16)
(1.07995 -5.94948e-16 -3.54582e-16)
(1.08165 -5.29485e-16 -4.36475e-16)
(1.08165 -5.53227e-16 -3.51545e-16)
(1.0833 -5.25842e-16 -4.52578e-16)
(1.0833 -5.67118e-16 -3.52565e-16)
(1.08491 -5.25407e-16 -4.39642e-16)
(1.08491 -5.76522e-16 -3.96626e-16)
(1.08647 -4.76932e-16 -4.61754e-16)
(1.08647 -5.60753e-16 -4.37249e-16)
(1.08799 -5.29233e-16 -4.3453e-16)
(1.08799 -5.49839e-16 -4.07743e-16)
(1.08944 -5.07752e-16 -4.4051e-16)
(1.08944 -5.57033e-16 -5.13933e-16)
(1.09084 -4.80596e-16 -4.59192e-16)
(1.09084 -5.65373e-16 -5.08406e-16)
(1.09218 -4.86798e-16 -3.92032e-16)
(1.09218 -5.32472e-16 -4.29159e-16)
(1.09346 -5.096e-16 -3.95229e-16)
(1.09346 -5.0986e-16 -3.86887e-16)
(1.09466 -5.46855e-16 -4.63176e-16)
(1.09466 -5.33186e-16 -3.80529e-16)
(1.09579 -5.63828e-16 -4.62177e-16)
(1.09579 -4.89676e-16 -3.30607e-16)
(1.09683 -5.73925e-16 -3.93598e-16)
(1.09683 -4.46831e-16 -2.34156e-16)
(1.09779 -5.17719e-16 -2.92847e-16)
(1.09779 -4.4777e-16 -1.71203e-16)
(1.09866 -4.62279e-16 -2.62556e-16)
(1.09866 -4.16947e-16 -2.05524e-16)
(1.09942 -4.4359e-16 -2.25544e-16)
(1.09942 -4.18939e-16 -2.1585e-16)
(1.10008 -4.03699e-16 -2.33705e-16)
(1.10008 -4.66796e-16 -1.53686e-16)
(1.10062 -4.55882e-16 -3.76407e-16)
(1.10062 -4.53943e-16 -1.81722e-16)
(1.10104 -4.21161e-16 -3.51983e-16)
(1.10104 -4.09064e-16 -2.18074e-16)
(1.10133 -4.14027e-16 -2.42718e-16)
(1.10133 -4.0195e-16 -1.7524e-16)
(1.10148 -3.72936e-16 -1.52788e-16)
(1.10148 -3.99505e-16 -1.9038e-16)
(0.0056954 3.77445e-19 4.30798e-18)
(0.0056954 2.63032e-19 2.44292e-17)
(0.0171904 -7.42528e-19 3.48081e-18)
(0.0171904 -2.14879e-19 3.03462e-17)
(0.0288976 -6.24777e-19 3.602e-18)
(0.0288976 1.15891e-19 3.15128e-17)
(0.0408211 -9.56526e-19 3.72295e-18)
(0.0408211 1.76151e-19 3.27389e-17)
(0.0529647 -1.31178e-18 3.8437e-18)
(0.0529647 2.34238e-19 3.40269e-17)
(0.0653322 -1.64571e-18 3.9638e-18)
(0.0653322 2.83966e-19 3.5379e-17)
(0.0779269 -2.01226e-18 4.08327e-18)
(0.0779269 3.74965e-19 3.67962e-17)
(0.0907516 -2.46221e-18 4.20059e-18)
(0.0907516 5.30441e-19 3.82798e-17)
(0.103808 -2.9533e-18 4.31319e-18)
(0.103808 7.60791e-19 3.98293e-17)
(0.117095 -3.42245e-18 4.42114e-18)
(0.117095 9.26603e-19 4.1438e-17)
(0.130611 -3.8182e-18 4.5229e-18)
(0.130611 9.94424e-19 4.30976e-17)
(0.144348 -4.26994e-18 4.61711e-18)
(0.144348 1.10952e-18 4.47943e-17)
(0.158293 -4.81942e-18 4.70103e-18)
(0.158293 1.24961e-18 4.65067e-17)
(0.172427 -5.24679e-18 4.77057e-18)
(0.172427 1.36145e-18 4.82121e-17)
(0.186723 -5.57746e-18 4.82337e-18)
(0.186723 1.31106e-18 4.98794e-17)
(0.201145 -5.89753e-18 4.85741e-18)
(0.201145 1.34749e-18 5.14685e-17)
(0.215649 -6.29873e-18 4.86952e-18)
(0.215649 1.49728e-18 5.29414e-17)
(0.23018 -6.91436e-18 4.84925e-18)
(0.23018 1.74272e-18 5.42664e-17)
(0.244681 -7.62048e-18 4.7975e-18)
(0.244681 2.01393e-18 5.5406e-17)
(0.259088 -8.34907e-18 4.71582e-18)
(0.259088 2.23003e-18 5.63299e-17)
(0.273337 -9.11371e-18 4.60597e-18)
(0.273337 2.53947e-18 5.70307e-17)
(0.287369 -9.58238e-18 4.47849e-18)
(0.287369 2.83532e-18 5.75035e-17)
(0.301129 -1.01059e-17 4.34461e-18)
(0.301129 2.88692e-18 5.77559e-17)
(0.314571 -1.0511e-17 4.20533e-18)
(0.314571 2.67628e-18 5.78072e-17)
(0.327658 -1.05108e-17 4.06445e-18)
(0.327658 2.37306e-18 5.76884e-17)
(0.340366 -1.07521e-17 3.9324e-18)
(0.340366 2.13352e-18 5.74249e-17)
(0.352675 -1.10858e-17 3.80206e-18)
(0.352675 2.30356e-18 5.70545e-17)
(0.36458 -1.14011e-17 3.67368e-18)
(0.36458 2.49318e-18 5.66106e-17)
(0.376077 -1.1639e-17 3.54657e-18)
(0.376077 2.45246e-18 5.61223e-17)
(0.387172 -1.17391e-17 3.43895e-18)
(0.387172 2.37455e-18 5.56012e-17)
(0.397874 -1.19609e-17 3.34439e-18)
(0.397874 2.4338e-18 5.50715e-17)
(0.408195 -1.23652e-17 3.26285e-18)
(0.408195 2.77999e-18 5.45574e-17)
(0.41815 -1.28622e-17 3.19088e-18)
(0.41815 2.77055e-18 5.40703e-17)
(0.427754 -1.3315e-17 3.13598e-18)
(0.427754 2.47574e-18 5.36067e-17)
(0.437024 -1.36817e-17 3.09102e-18)
(0.437024 2.82735e-18 5.31884e-17)
(0.445976 -1.3926e-17 3.05829e-18)
(0.445976 2.50025e-18 5.28215e-17)
(0.454628 -1.37059e-17 3.03102e-18)
(0.454628 2.02112e-18 5.24847e-17)
(0.462996 -1.36619e-17 3.02013e-18)
(0.462996 2.23463e-18 5.21794e-17)
(0.471096 -1.43549e-17 3.01107e-18)
(0.471096 1.78306e-18 5.1909e-17)
(0.478942 -1.50572e-17 2.98149e-18)
(0.478942 1.59292e-18 5.16865e-17)
(0.486548 -1.52865e-17 2.95974e-18)
(0.486548 2.18545e-18 5.15053e-17)
(0.493929 -1.56305e-17 2.95642e-18)
(0.493929 2.03404e-18 5.13468e-17)
(0.501097 -1.5916e-17 2.95252e-18)
(0.501097 2.20129e-18 5.12222e-17)
(0.508064 -1.61893e-17 2.961e-18)
(0.508064 2.66344e-18 5.11104e-17)
(0.514841 -1.7589e-17 2.96753e-18)
(0.514841 3.92018e-18 5.10228e-17)
(0.521439 -1.88997e-17 2.92973e-18)
(0.521439 5.35035e-18 5.09736e-17)
(0.527867 -1.97269e-17 2.87498e-18)
(0.527867 4.69882e-18 5.09568e-17)
(0.534136 -1.99137e-17 2.82487e-18)
(0.534136 4.31179e-18 5.09583e-17)
(0.540252 -1.9736e-17 2.8033e-18)
(0.540252 4.86261e-18 5.09714e-17)
(0.546224 -2.02631e-17 2.77651e-18)
(0.546224 5.1286e-18 5.1014e-17)
(0.552061 -2.07068e-17 2.71398e-18)
(0.552061 5.08235e-18 5.10787e-17)
(0.557768 -2.10084e-17 2.65489e-18)
(0.557768 5.98163e-18 5.11442e-17)
(0.563353 -2.14263e-17 2.59247e-18)
(0.563353 5.87272e-18 5.12227e-17)
(0.56882 -2.1654e-17 2.51558e-18)
(0.56882 5.11182e-18 5.13158e-17)
(0.574178 -2.19021e-17 2.44348e-18)
(0.574178 5.67967e-18 5.13968e-17)
(0.579429 -2.23738e-17 2.35667e-18)
(0.579429 5.40485e-18 5.14804e-17)
(0.58458 -2.25071e-17 2.24849e-18)
(0.58458 5.47213e-18 5.15611e-17)
(0.589636 -2.22915e-17 2.17469e-18)
(0.589636 5.51318e-18 5.16347e-17)
(0.5946 -2.29172e-17 2.11137e-18)
(0.5946 5.06888e-18 5.16536e-17)
(0.599478 -2.40489e-17 2.01992e-18)
(0.599478 5.30478e-18 5.16351e-17)
(0.604272 -2.45205e-17 1.88666e-18)
(0.604272 6.13034e-18 5.1568e-17)
(0.608986 -2.46958e-17 1.75546e-18)
(0.608986 6.92222e-18 5.14742e-17)
(0.613625 -2.57735e-17 1.65089e-18)
(0.613625 6.94643e-18 5.13673e-17)
(0.618191 -2.73685e-17 1.54472e-18)
(0.618191 7.6333e-18 5.12464e-17)
(0.622688 -2.81698e-17 1.43628e-18)
(0.622688 7.79664e-18 5.11136e-17)
(0.627117 -2.83955e-17 1.36464e-18)
(0.627117 8.42401e-18 5.09781e-17)
(0.631483 -2.81725e-17 1.34087e-18)
(0.631483 9.76991e-18 5.08632e-17)
(0.635788 -2.85788e-17 1.32855e-18)
(0.635788 9.90925e-18 5.07214e-17)
(0.640034 -3.04607e-17 1.27149e-18)
(0.640034 9.27859e-18 5.05975e-17)
(0.644223 -3.18589e-17 1.19206e-18)
(0.644223 1.03478e-17 5.04601e-17)
(0.648358 -3.16817e-17 1.19042e-18)
(0.648358 1.1432e-17 5.02546e-17)
(0.65244 -3.17091e-17 1.2322e-18)
(0.65244 1.09858e-17 5.00193e-17)
(0.656473 -3.21021e-17 1.26952e-18)
(0.656473 1.1745e-17 4.98139e-17)
(0.660457 -3.3979e-17 1.37841e-18)
(0.660457 1.08675e-17 4.95404e-17)
(0.664395 -3.68388e-17 1.44765e-18)
(0.664395 1.03116e-17 4.91223e-17)
(0.668288 -3.77554e-17 1.56256e-18)
(0.668288 8.44446e-18 4.86937e-17)
(0.672138 -3.89069e-17 1.94421e-18)
(0.672138 9.24893e-18 4.80639e-17)
(0.675947 -4.12093e-17 2.35551e-18)
(0.675947 9.95855e-18 4.74571e-17)
(0.679715 -4.20491e-17 2.65787e-18)
(0.679715 8.65853e-18 4.69135e-17)
(0.683445 -4.24048e-17 2.94015e-18)
(0.683445 1.0919e-17 4.63989e-17)
(0.687137 -4.27516e-17 3.33656e-18)
(0.687137 1.01868e-17 4.58637e-17)
(0.690794 -4.25733e-17 3.87409e-18)
(0.690794 1.01042e-17 4.52998e-17)
(0.694415 -4.3447e-17 4.44048e-18)
(0.694415 1.08238e-17 4.48078e-17)
(0.698003 -4.40743e-17 4.95303e-18)
(0.698003 9.88841e-18 4.43191e-17)
(0.701559 -4.22711e-17 5.43208e-18)
(0.701559 7.90808e-18 4.37794e-17)
(0.705083 -4.11203e-17 6.25063e-18)
(0.705083 7.24785e-18 4.2895e-17)
(0.708577 -3.96652e-17 7.13065e-18)
(0.708577 6.40421e-18 4.19455e-17)
(0.712041 -3.86797e-17 8.02492e-18)
(0.712041 7.97466e-18 4.096e-17)
(0.715477 -3.882e-17 8.85255e-18)
(0.715477 1.11173e-17 4.00101e-17)
(0.718885 -4.04358e-17 9.75513e-18)
(0.718885 1.18742e-17 3.89549e-17)
(0.722267 -4.46805e-17 1.04193e-17)
(0.722267 1.21577e-17 3.79079e-17)
(0.725623 -4.63192e-17 1.1048e-17)
(0.725623 1.22248e-17 3.68292e-17)
(0.728954 -4.82505e-17 1.17704e-17)
(0.728954 1.15125e-17 3.56543e-17)
(0.732261 -5.09036e-17 1.21662e-17)
(0.732261 9.38974e-18 3.45716e-17)
(0.735544 -5.26002e-17 1.27129e-17)
(0.735544 1.05778e-17 3.33959e-17)
(0.738804 -5.33182e-17 1.38537e-17)
(0.738804 1.29969e-17 3.20917e-17)
(0.742042 -5.43931e-17 1.50034e-17)
(0.742042 1.05423e-17 3.06448e-17)
(0.745259 -5.75198e-17 1.60412e-17)
(0.745259 1.09684e-17 2.89798e-17)
(0.748455 -5.96898e-17 1.68375e-17)
(0.748455 1.35117e-17 2.7089e-17)
(0.751631 -5.94623e-17 1.75471e-17)
(0.751631 1.13672e-17 2.51264e-17)
(0.754787 -5.88412e-17 1.82241e-17)
(0.754787 1.3906e-17 2.29634e-17)
(0.757924 -5.99666e-17 1.95357e-17)
(0.757924 1.64196e-17 2.07859e-17)
(0.761043 -6.13182e-17 2.06761e-17)
(0.761043 1.2684e-17 1.85414e-17)
(0.764143 -6.07476e-17 2.12321e-17)
(0.764143 1.21426e-17 1.64018e-17)
(0.767226 -6.04071e-17 2.23397e-17)
(0.767226 1.31454e-17 1.42499e-17)
(0.770292 -6.19204e-17 2.37893e-17)
(0.770292 9.13685e-18 1.2267e-17)
(0.773342 -6.44426e-17 2.51047e-17)
(0.773342 8.1278e-18 1.04906e-17)
(0.776376 -6.58095e-17 2.6057e-17)
(0.776376 1.04831e-17 8.94701e-18)
(0.779394 -6.72999e-17 2.71894e-17)
(0.779394 1.06223e-17 7.42812e-18)
(0.782397 -6.96909e-17 2.8961e-17)
(0.782397 8.25667e-18 5.72592e-18)
(0.785385 -7.13777e-17 2.98479e-17)
(0.785385 7.99823e-18 3.96886e-18)
(0.788359 -7.20152e-17 3.1057e-17)
(0.788359 1.18203e-17 2.35762e-18)
(0.791318 -6.90586e-17 3.18565e-17)
(0.791318 1.32725e-17 9.00674e-19)
(0.794264 -6.7603e-17 3.34677e-17)
(0.794264 1.21168e-17 -4.89714e-19)
(0.797197 -7.0398e-17 3.52645e-17)
(0.797197 1.15026e-17 -2.05681e-18)
(0.800117 -7.2634e-17 3.6278e-17)
(0.800117 1.02003e-17 -3.94435e-18)
(0.803025 -7.22713e-17 3.80043e-17)
(0.803025 8.35738e-18 -5.65739e-18)
(0.80592 -7.08798e-17 4.0255e-17)
(0.80592 2.49114e-18 -7.29226e-18)
(0.808803 -7.07641e-17 4.15144e-17)
(0.808803 -8.27991e-19 -8.38398e-18)
(0.811675 -7.22931e-17 4.3173e-17)
(0.811675 3.3998e-19 -9.59021e-18)
(0.814535 -7.58235e-17 4.45144e-17)
(0.814535 -3.58139e-19 -9.95504e-18)
(0.817384 -7.80051e-17 4.75938e-17)
(0.817384 -4.27555e-18 -8.99491e-18)
(0.820223 -8.0685e-17 5.03282e-17)
(0.820223 -7.24242e-18 -7.8453e-18)
(0.823051 -8.56971e-17 5.15316e-17)
(0.823051 -9.32917e-18 -5.16969e-18)
(0.825868 -8.98767e-17 5.27722e-17)
(0.825868 -8.15743e-18 -2.7252e-18)
(0.828676 -9.21459e-17 5.4116e-17)
(0.828676 -1.0542e-17 2.40307e-19)
(0.831474 -9.27227e-17 5.60448e-17)
(0.831474 -1.82658e-17 2.74513e-18)
(0.834262 -9.4846e-17 5.84363e-17)
(0.834262 -1.85635e-17 4.87124e-18)
(0.837041 -9.47812e-17 6.10849e-17)
(0.837041 -1.83987e-17 5.87491e-18)
(0.839811 -9.1766e-17 6.3718e-17)
(0.839811 -2.06936e-17 8.6995e-18)
(0.842572 -9.24161e-17 6.52886e-17)
(0.842572 -2.11489e-17 1.2879e-17)
(0.845324 -9.44701e-17 6.81443e-17)
(0.845324 -2.1092e-17 1.64081e-17)
(0.848068 -9.77165e-17 7.173e-17)
(0.848068 -2.12211e-17 1.85575e-17)
(0.850804 -1.05382e-16 7.47625e-17)
(0.850804 -2.4649e-17 2.06948e-17)
(0.853531 -1.10179e-16 7.74613e-17)
(0.853531 -3.08436e-17 2.46569e-17)
(0.856251 -1.15671e-16 7.99432e-17)
(0.856251 -3.15947e-17 2.87603e-17)
(0.858962 -1.21581e-16 8.21827e-17)
(0.858962 -3.28738e-17 3.13186e-17)
(0.861666 -1.20463e-16 8.52535e-17)
(0.861666 -3.3777e-17 3.27937e-17)
(0.864363 -1.20204e-16 8.98946e-17)
(0.864363 -3.43935e-17 3.47024e-17)
(0.867052 -1.25598e-16 9.20752e-17)
(0.867052 -4.05495e-17 3.58895e-17)
(0.869734 -1.29665e-16 9.38772e-17)
(0.869734 -3.88688e-17 3.42978e-17)
(0.87241 -1.31797e-16 9.71899e-17)
(0.87241 -3.45784e-17 3.23424e-17)
(0.875078 -1.31204e-16 9.79303e-17)
(0.875078 -3.79107e-17 3.27071e-17)
(0.877739 -1.27504e-16 1.01897e-16)
(0.877739 -4.01992e-17 3.35242e-17)
(0.880394 -1.28786e-16 1.0539e-16)
(0.880394 -4.66897e-17 3.39528e-17)
(0.883042 -1.29737e-16 1.089e-16)
(0.883042 -5.52347e-17 3.41488e-17)
(0.885684 -1.30642e-16 1.14494e-16)
(0.885684 -6.27397e-17 3.40088e-17)
(0.88832 -1.28338e-16 1.20168e-16)
(0.88832 -7.19143e-17 3.15105e-17)
(0.890949 -1.25225e-16 1.28867e-16)
(0.890949 -7.33037e-17 2.71984e-17)
(0.893572 -1.32158e-16 1.37055e-16)
(0.893572 -7.83223e-17 2.41047e-17)
(0.89619 -1.35573e-16 1.39629e-16)
(0.89619 -7.8102e-17 2.55008e-17)
(0.898801 -1.3065e-16 1.42552e-16)
(0.898801 -6.8229e-17 2.62086e-17)
(0.901406 -1.33258e-16 1.49588e-16)
(0.901406 -6.42728e-17 2.14864e-17)
(0.904006 -1.40922e-16 1.55592e-16)
(0.904006 -5.80253e-17 1.74993e-17)
(0.9066 -1.48494e-16 1.59914e-16)
(0.9066 -6.31605e-17 1.41698e-17)
(0.909188 -1.50084e-16 1.62972e-16)
(0.909188 -7.71288e-17 1.47652e-17)