/*--------------------------------*- C++ -*----------------------------------*\
| =========                 |                                                 |
| \\      /  F ield         | OpenFOAM: The Open Source CFD Toolbox           |
|  \\    /   O peration     | Version:  2106                                  |
|   \\  /    A nd           | Website:  www.openfoam.com                      |
|    \\/     M anipulation  |                                                 |
\*---------------------------------------------------------------------------*/
FoamFile
{
    version     2.0;
    format      ascii;
    arch        "LSB;label=32;scalar=64";
    class       volVectorField;
    location    "10060";
    object      C;
}
// * * * * * * * * * * * * * * * * * * * * * * * * * * * * * * * * * * * * * //

dimensions      [0 1 0 0 0 0 0];

internalField   nonuniform List<vector> 
2000
(
(0.025 9.25318e-05 0.025)
(0.075 9.25318e-05 0.025)
(0.025 0.000279323 0.025)
(0.075 0.000279323 0.025)
(0.025 0.0004696 0.025)
(0.075 0.0004696 0.025)
(0.025 0.00066343 0.025)
(0.075 0.00066343 0.025)
(0.025 0.000860877 0.025)
(0.075 0.000860877 0.025)
(0.025 0.00106201 0.025)
(0.075 0.00106201 0.025)
(0.025 0.0012669 0.025)
(0.075 0.0012669 0.025)
(0.025 0.00147561 0.025)
(0.075 0.00147561 0.025)
(0.025 0.00168822 0.025)
(0.075 0.00168822 0.025)
(0.025 0.0019048 0.025)
(0.075 0.0019048 0.025)
(0.025 0.00212542 0.025)
(0.075 0.00212542 0.025)
(0.025 0.00235015 0.025)
(0.075 0.00235015 0.025)
(0.025 0.00257909 0.025)
(0.075 0.00257909 0.025)
(0.025 0.00281229 0.025)
(0.075 0.00281229 0.025)
(0.025 0.00304985 0.025)
(0.075 0.00304985 0.025)
(0.025 0.00329185 0.025)
(0.075 0.00329185 0.025)
(0.025 0.00353836 0.025)
(0.075 0.00353836 0.025)
(0.025 0.00378947 0.025)
(0.075 0.00378947 0.025)
(0.025 0.00404527 0.025)
(0.075 0.00404527 0.025)
(0.025 0.00430585 0.025)
(0.075 0.00430585 0.025)
(0.025 0.00457129 0.025)
(0.075 0.00457129 0.025)
(0.025 0.00484168 0.025)
(0.075 0.00484168 0.025)
(0.025 0.00511713 0.025)
(0.075 0.00511713 0.025)
(0.025 0.00539771 0.025)
(0.075 0.00539771 0.025)
(0.025 0.00568353 0.025)
(0.075 0.00568353 0.025)
(0.025 0.00597469 0.025)
(0.075 0.00597469 0.025)
(0.025 0.00627128 0.025)
(0.075 0.00627128 0.025)
(0.025 0.00657341 0.025)
(0.075 0.00657341 0.025)
(0.025 0.00688117 0.025)
(0.075 0.00688117 0.025)
(0.025 0.00719469 0.025)
(0.075 0.00719469 0.025)
(0.025 0.00751405 0.025)
(0.075 0.00751405 0.025)
(0.025 0.00783938 0.025)
(0.075 0.00783938 0.025)
(0.025 0.00817078 0.025)
(0.075 0.00817078 0.025)
(0.025 0.00850836 0.025)
(0.075 0.00850836 0.025)
(0.025 0.00885225 0.025)
(0.075 0.00885225 0.025)
(0.025 0.00920256 0.025)
(0.075 0.00920256 0.025)
(0.025 0.0095594 0.025)
(0.075 0.0095594 0.025)
(0.025 0.00992291 0.025)
(0.075 0.00992291 0.025)
(0.025 0.0102932 0.025)
(0.075 0.0102932 0.025)
(0.025 0.0106704 0.025)
(0.075 0.0106704 0.025)
(0.025 0.0110547 0.025)
(0.075 0.0110547 0.025)
(0.025 0.0114461 0.025)
(0.075 0.0114461 0.025)
(0.025 0.0118448 0.025)
(0.075 0.0118448 0.025)
(0.025 0.012251 0.025)
(0.075 0.012251 0.025)
(0.025 0.0126647 0.025)
(0.075 0.0126647 0.025)
(0.025 0.0130862 0.025)
(0.075 0.0130862 0.025)
(0.025 0.0135155 0.025)
(0.075 0.0135155 0.025)
(0.025 0.0139529 0.025)
(0.075 0.0139529 0.025)
(0.025 0.0143984 0.025)
(0.075 0.0143984 0.025)
(0.025 0.0148522 0.025)
(0.075 0.0148522 0.025)
(0.025 0.0153145 0.025)
(0.075 0.0153145 0.025)
(0.025 0.0157855 0.025)
(0.075 0.0157855 0.025)
(0.025 0.0162652 0.025)
(0.075 0.0162652 0.025)
(0.025 0.0167539 0.025)
(0.075 0.0167539 0.025)
(0.025 0.0172517 0.025)
(0.075 0.0172517 0.025)
(0.025 0.0177588 0.025)
(0.075 0.0177588 0.025)
(0.025 0.0182753 0.025)
(0.075 0.0182753 0.025)
(0.025 0.0188015 0.025)
(0.075 0.0188015 0.025)
(0.025 0.0193376 0.025)
(0.075 0.0193376 0.025)
(0.025 0.0198836 0.025)
(0.075 0.0198836 0.025)
(0.025 0.0204398 0.025)
(0.075 0.0204398 0.025)
(0.025 0.0210064 0.025)
(0.075 0.0210064 0.025)
(0.025 0.0215836 0.025)
(0.075 0.0215836 0.025)
(0.025 0.0221716 0.025)
(0.075 0.0221716 0.025)
(0.025 0.0227705 0.025)
(0.075 0.0227705 0.025)
(0.025 0.0233806 0.025)
(0.075 0.0233806 0.025)
(0.025 0.0240021 0.025)
(0.075 0.0240021 0.025)
(0.025 0.0246352 0.025)
(0.075 0.0246352 0.025)
(0.025 0.0252802 0.025)
(0.075 0.0252802 0.025)
(0.025 0.0259371 0.025)
(0.075 0.0259371 0.025)
(0.025 0.0266064 0.025)
(0.075 0.0266064 0.025)
(0.025 0.0272881 0.025)
(0.075 0.0272881 0.025)
(0.025 0.0279825 0.025)
(0.075 0.0279825 0.025)
(0.025 0.0286899 0.025)
(0.075 0.0286899 0.025)
(0.025 0.0294105 0.025)
(0.075 0.0294105 0.025)
(0.025 0.0301446 0.025)
(0.075 0.0301446 0.025)
(0.025 0.0308924 0.025)
(0.075 0.0308924 0.025)
(0.025 0.0316541 0.025)
(0.075 0.0316541 0.025)
(0.025 0.03243 0.025)
(0.075 0.03243 0.025)
(0.025 0.0332205 0.025)
(0.075 0.0332205 0.025)
(0.025 0.0340256 0.025)
(0.075 0.0340256 0.025)
(0.025 0.0348458 0.025)
(0.075 0.0348458 0.025)
(0.025 0.0356814 0.025)
(0.075 0.0356814 0.025)
(0.025 0.0365325 0.025)
(0.075 0.0365325 0.025)
(0.025 0.0373995 0.025)
(0.075 0.0373995 0.025)
(0.025 0.0382827 0.025)
(0.075 0.0382827 0.025)
(0.025 0.0391824 0.025)
(0.075 0.0391824 0.025)
(0.025 0.0400988 0.025)
(0.075 0.0400988 0.025)
(0.025 0.0410324 0.025)
(0.075 0.0410324 0.025)
(0.025 0.0419834 0.025)
(0.075 0.0419834 0.025)
(0.025 0.0429522 0.025)
(0.075 0.0429522 0.025)
(0.025 0.043939 0.025)
(0.075 0.043939 0.025)
(0.025 0.0449443 0.025)
(0.075 0.0449443 0.025)
(0.025 0.0459683 0.025)
(0.075 0.0459683 0.025)
(0.025 0.0470114 0.025)
(0.075 0.0470114 0.025)
(0.025 0.0480741 0.025)
(0.075 0.0480741 0.025)
(0.025 0.0491565 0.025)
(0.075 0.0491565 0.025)
(0.025 0.0502592 0.025)
(0.075 0.0502592 0.025)
(0.025 0.0513824 0.025)
(0.075 0.0513824 0.025)
(0.025 0.0525266 0.025)
(0.075 0.0525266 0.025)
(0.025 0.0536922 0.025)
(0.075 0.0536922 0.025)
(0.025 0.0548795 0.025)
(0.075 0.0548795 0.025)
(0.025 0.056089 0.025)
(0.075 0.056089 0.025)
(0.025 0.057321 0.025)
(0.075 0.057321 0.025)
(0.025 0.0585761 0.025)
(0.075 0.0585761 0.025)
(0.025 0.0598546 0.025)
(0.075 0.0598546 0.025)
(0.025 0.0611569 0.025)
(0.075 0.0611569 0.025)
(0.025 0.0624836 0.025)
(0.075 0.0624836 0.025)
(0.025 0.063835 0.025)
(0.075 0.063835 0.025)
(0.025 0.0652117 0.025)
(0.075 0.0652117 0.025)
(0.025 0.066614 0.025)
(0.075 0.066614 0.025)
(0.025 0.0680426 0.025)
(0.075 0.0680426 0.025)
(0.025 0.0694978 0.025)
(0.075 0.0694978 0.025)
(0.025 0.0709801 0.025)
(0.075 0.0709801 0.025)
(0.025 0.0724902 0.025)
(0.075 0.0724902 0.025)
(0.025 0.0740284 0.025)
(0.075 0.0740284 0.025)
(0.025 0.0755953 0.025)
(0.075 0.0755953 0.025)
(0.025 0.0771915 0.025)
(0.075 0.0771915 0.025)
(0.025 0.0788175 0.025)
(0.075 0.0788175 0.025)
(0.025 0.0804738 0.025)
(0.075 0.0804738 0.025)
(0.025 0.0821611 0.025)
(0.075 0.0821611 0.025)
(0.025 0.0838798 0.025)
(0.075 0.0838798 0.025)
(0.025 0.0856306 0.025)
(0.075 0.0856306 0.025)
(0.025 0.0874141 0.025)
(0.075 0.0874141 0.025)
(0.025 0.0892309 0.025)
(0.075 0.0892309 0.025)
(0.025 0.0910816 0.025)
(0.075 0.0910816 0.025)
(0.025 0.0929669 0.025)
(0.075 0.0929669 0.025)
(0.025 0.0948874 0.025)
(0.075 0.0948874 0.025)
(0.025 0.0968437 0.025)
(0.075 0.0968437 0.025)
(0.025 0.0988365 0.025)
(0.075 0.0988365 0.025)
(0.025 0.100867 0.025)
(0.075 0.100867 0.025)
(0.025 0.102934 0.025)
(0.075 0.102934 0.025)
(0.025 0.105041 0.025)
(0.075 0.105041 0.025)
(0.025 0.107187 0.025)
(0.075 0.107187 0.025)
(0.025 0.109373 0.025)
(0.075 0.109373 0.025)
(0.025 0.111599 0.025)
(0.075 0.111599 0.025)
(0.025 0.113868 0.025)
(0.075 0.113868 0.025)
(0.025 0.116178 0.025)
(0.075 0.116178 0.025)
(0.025 0.118532 0.025)
(0.075 0.118532 0.025)
(0.025 0.12093 0.025)
(0.075 0.12093 0.025)
(0.025 0.123372 0.025)
(0.075 0.123372 0.025)
(0.025 0.12586 0.025)
(0.075 0.12586 0.025)
(0.025 0.128395 0.025)
(0.075 0.128395 0.025)
(0.025 0.130976 0.025)
(0.075 0.130976 0.025)
(0.025 0.133606 0.025)
(0.075 0.133606 0.025)
(0.025 0.136285 0.025)
(0.075 0.136285 0.025)
(0.025 0.139014 0.025)
(0.075 0.139014 0.025)
(0.025 0.141794 0.025)
(0.075 0.141794 0.025)
(0.025 0.144626 0.025)
(0.075 0.144626 0.025)
(0.025 0.147511 0.025)
(0.075 0.147511 0.025)
(0.025 0.15045 0.025)
(0.075 0.15045 0.025)
(0.025 0.153443 0.025)
(0.075 0.153443 0.025)
(0.025 0.156492 0.025)
(0.075 0.156492 0.025)
(0.025 0.159599 0.025)
(0.075 0.159599 0.025)
(0.025 0.162763 0.025)
(0.075 0.162763 0.025)
(0.025 0.165986 0.025)
(0.075 0.165986 0.025)
(0.025 0.16927 0.025)
(0.075 0.16927 0.025)
(0.025 0.172615 0.025)
(0.075 0.172615 0.025)
(0.025 0.176022 0.025)
(0.075 0.176022 0.025)
(0.025 0.179493 0.025)
(0.075 0.179493 0.025)
(0.025 0.183028 0.025)
(0.075 0.183028 0.025)
(0.025 0.18663 0.025)
(0.075 0.18663 0.025)
(0.025 0.190299 0.025)
(0.075 0.190299 0.025)
(0.025 0.194036 0.025)
(0.075 0.194036 0.025)
(0.025 0.197843 0.025)
(0.075 0.197843 0.025)
(0.025 0.201721 0.025)
(0.075 0.201721 0.025)
(0.025 0.205672 0.025)
(0.075 0.205672 0.025)
(0.025 0.209696 0.025)
(0.075 0.209696 0.025)
(0.025 0.213795 0.025)
(0.075 0.213795 0.025)
(0.025 0.217971 0.025)
(0.075 0.217971 0.025)
(0.025 0.222225 0.025)
(0.075 0.222225 0.025)
(0.025 0.226559 0.025)
(0.075 0.226559 0.025)
(0.025 0.230973 0.025)
(0.075 0.230973 0.025)
(0.025 0.235469 0.025)
(0.075 0.235469 0.025)
(0.025 0.24005 0.025)
(0.075 0.24005 0.025)
(0.025 0.244716 0.025)
(0.075 0.244716 0.025)
(0.025 0.249469 0.025)
(0.075 0.249469 0.025)
(0.025 0.254311 0.025)
(0.075 0.254311 0.025)
(0.025 0.259243 0.025)
(0.075 0.259243 0.025)
(0.025 0.264267 0.025)
(0.075 0.264267 0.025)
(0.025 0.269385 0.025)
(0.075 0.269385 0.025)
(0.025 0.274599 0.025)
(0.075 0.274599 0.025)
(0.025 0.27991 0.025)
(0.075 0.27991 0.025)
(0.025 0.28532 0.025)
(0.075 0.28532 0.025)
(0.025 0.290831 0.025)
(0.075 0.290831 0.025)
(0.025 0.296445 0.025)
(0.075 0.296445 0.025)
(0.025 0.302164 0.025)
(0.075 0.302164 0.025)
(0.025 0.307989 0.025)
(0.075 0.307989 0.025)
(0.025 0.313923 0.025)
(0.075 0.313923 0.025)
(0.025 0.319968 0.025)
(0.075 0.319968 0.025)
(0.025 0.326126 0.025)
(0.075 0.326126 0.025)
(0.025 0.332399 0.025)
(0.075 0.332399 0.025)
(0.025 0.338789 0.025)
(0.075 0.338789 0.025)
(0.025 0.345298 0.025)
(0.075 0.345298 0.025)
(0.025 0.351929 0.025)
(0.075 0.351929 0.025)
(0.025 0.358683 0.025)
(0.075 0.358683 0.025)
(0.025 0.365564 0.025)
(0.075 0.365564 0.025)
(0.025 0.372573 0.025)
(0.075 0.372573 0.025)
(0.025 0.379712 0.025)
(0.075 0.379712 0.025)
(0.025 0.386985 0.025)
(0.075 0.386985 0.025)
(0.025 0.394394 0.025)
(0.075 0.394394 0.025)
(0.025 0.401941 0.025)
(0.075 0.401941 0.025)
(0.025 0.409629 0.025)
(0.075 0.409629 0.025)
(0.025 0.417461 0.025)
(0.075 0.417461 0.025)
(0.025 0.425439 0.025)
(0.075 0.425439 0.025)
(0.025 0.433565 0.025)
(0.075 0.433565 0.025)
(0.025 0.441843 0.025)
(0.075 0.441843 0.025)
(0.025 0.450276 0.025)
(0.075 0.450276 0.025)
(0.025 0.458867 0.025)
(0.075 0.458867 0.025)
(0.025 0.467617 0.025)
(0.075 0.467617 0.025)
(0.025 0.476531 0.025)
(0.075 0.476531 0.025)
(0.025 0.485611 0.025)
(0.075 0.485611 0.025)
(0.025 0.494861 0.025)
(0.075 0.494861 0.025)
(0.025 0.504284 0.025)
(0.075 0.504284 0.025)
(0.025 0.513882 0.025)
(0.075 0.513882 0.025)
(0.025 0.52366 0.025)
(0.075 0.52366 0.025)
(0.025 0.53362 0.025)
(0.075 0.53362 0.025)
(0.025 0.543766 0.025)
(0.075 0.543766 0.025)
(0.025 0.554101 0.025)
(0.075 0.554101 0.025)
(0.025 0.56463 0.025)
(0.075 0.56463 0.025)
(0.025 0.575354 0.025)
(0.075 0.575354 0.025)
(0.025 0.58628 0.025)
(0.075 0.58628 0.025)
(0.025 0.597409 0.025)
(0.075 0.597409 0.025)
(0.025 0.608745 0.025)
(0.075 0.608745 0.025)
(0.025 0.620294 0.025)
(0.075 0.620294 0.025)
(0.025 0.632058 0.025)
(0.075 0.632058 0.025)
(0.025 0.644041 0.025)
(0.075 0.644041 0.025)
(0.025 0.656248 0.025)
(0.075 0.656248 0.025)
(0.025 0.668683 0.025)
(0.075 0.668683 0.025)
(0.025 0.681351 0.025)
(0.075 0.681351 0.025)
(0.025 0.694254 0.025)
(0.075 0.694254 0.025)
(0.025 0.707399 0.025)
(0.075 0.707399 0.025)
(0.025 0.720789 0.025)
(0.075 0.720789 0.025)
(0.025 0.734429 0.025)
(0.075 0.734429 0.025)
(0.025 0.748323 0.025)
(0.075 0.748323 0.025)
(0.025 0.762477 0.025)
(0.075 0.762477 0.025)
(0.025 0.776895 0.025)
(0.075 0.776895 0.025)
(0.025 0.791582 0.025)
(0.075 0.791582 0.025)
(0.025 0.806543 0.025)
(0.075 0.806543 0.025)
(0.025 0.821784 0.025)
(0.075 0.821784 0.025)
(0.025 0.837309 0.025)
(0.075 0.837309 0.025)
(0.025 0.853124 0.025)
(0.075 0.853124 0.025)
(0.025 0.869234 0.025)
(0.075 0.869234 0.025)
(0.025 0.885645 0.025)
(0.075 0.885645 0.025)
(0.025 0.902362 0.025)
(0.075 0.902362 0.025)
(0.025 0.919391 0.025)
(0.075 0.919391 0.025)
(0.025 0.936738 0.025)
(0.075 0.936738 0.025)
(0.025 0.954409 0.025)
(0.075 0.954409 0.025)
(0.025 0.97241 0.025)
(0.075 0.97241 0.025)
(0.025 0.990747 0.025)
(0.075 0.990747 0.025)
(0.025 9.25318e-05 0.075)
(0.075 9.25318e-05 0.075)
(0.025 0.000279323 0.075)
(0.075 0.000279323 0.075)
(0.025 0.0004696 0.075)
(0.075 0.0004696 0.075)
(0.025 0.00066343 0.075)
(0.075 0.00066343 0.075)
(0.025 0.000860877 0.075)
(0.075 0.000860877 0.075)
(0.025 0.00106201 0.075)
(0.075 0.00106201 0.075)
(0.025 0.0012669 0.075)
(0.075 0.0012669 0.075)
(0.025 0.00147561 0.075)
(0.075 0.00147561 0.075)
(0.025 0.00168822 0.075)
(0.075 0.00168822 0.075)
(0.025 0.0019048 0.075)
(0.075 0.0019048 0.075)
(0.025 0.00212542 0.075)
(0.075 0.00212542 0.075)
(0.025 0.00235015 0.075)
(0.075 0.00235015 0.075)
(0.025 0.00257909 0.075)
(0.075 0.00257909 0.075)
(0.025 0.00281229 0.075)
(0.075 0.00281229 0.075)
(0.025 0.00304985 0.075)
(0.075 0.00304985 0.075)
(0.025 0.00329185 0.075)
(0.075 0.00329185 0.075)
(0.025 0.00353836 0.075)
(0.075 0.00353836 0.075)
(0.025 0.00378947 0.075)
(0.075 0.00378947 0.075)
(0.025 0.00404527 0.075)
(0.075 0.00404527 0.075)
(0.025 0.00430585 0.075)
(0.075 0.00430585 0.075)
(0.025 0.00457129 0.075)
(0.075 0.00457129 0.075)
(0.025 0.00484168 0.075)
(0.075 0.00484168 0.075)
(0.025 0.00511713 0.075)
(0.075 0.00511713 0.075)
(0.025 0.00539771 0.075)
(0.075 0.00539771 0.075)
(0.025 0.00568353 0.075)
(0.075 0.00568353 0.075)
(0.025 0.00597469 0.075)
(0.075 0.00597469 0.075)
(0.025 0.00627128 0.075)
(0.075 0.00627128 0.075)
(0.025 0.00657341 0.075)
(0.075 0.00657341 0.075)
(0.025 0.00688117 0.075)
(0.075 0.00688117 0.075)
(0.025 0.00719469 0.075)
(0.075 0.00719469 0.075)
(0.025 0.00751405 0.075)
(0.075 0.00751405 0.075)
(0.025 0.00783938 0.075)
(0.075 0.00783938 0.075)
(0.025 0.00817078 0.075)
(0.075 0.00817078 0.075)
(0.025 0.00850836 0.075)
(0.075 0.00850836 0.075)
(0.025 0.00885225 0.075)
(0.075 0.00885225 0.075)
(0.025 0.00920256 0.075)
(0.075 0.00920256 0.075)
(0.025 0.0095594 0.075)
(0.075 0.0095594 0.075)
(0.025 0.00992291 0.075)
(0.075 0.00992291 0.075)
(0.025 0.0102932 0.075)
(0.075 0.0102932 0.075)
(0.025 0.0106704 0.075)
(0.075 0.0106704 0.075)
(0.025 0.0110547 0.075)
(0.075 0.0110547 0.075)
(0.025 0.0114461 0.075)
(0.075 0.0114461 0.075)
(0.025 0.0118448 0.075)
(0.075 0.0118448 0.075)
(0.025 0.012251 0.075)
(0.075 0.012251 0.075)
(0.025 0.0126647 0.075)
(0.075 0.0126647 0.075)
(0.025 0.0130862 0.075)
(0.075 0.0130862 0.075)
(0.025 0.0135155 0.075)
(0.075 0.0135155 0.075)
(0.025 0.0139529 0.075)
(0.075 0.0139529 0.075)
(0.025 0.0143984 0.075)
(0.075 0.0143984 0.075)
(0.025 0.0148522 0.075)
(0.075 0.0148522 0.075)
(0.025 0.0153145 0.075)
(0.075 0.0153145 0.075)
(0.025 0.0157855 0.075)
(0.075 0.0157855 0.075)
(0.025 0.0162652 0.075)
(0.075 0.0162652 0.075)
(0.025 0.0167539 0.075)
(0.075 0.0167539 0.075)
(0.025 0.0172517 0.075)
(0.075 0.0172517 0.075)
(0.025 0.0177588 0.075)
(0.075 0.0177588 0.075)
(0.025 0.0182753 0.075)
(0.075 0.0182753 0.075)
(0.025 0.0188015 0.075)
(0.075 0.0188015 0.075)
(0.025 0.0193376 0.075)
(0.075 0.0193376 0.075)
(0.025 0.0198836 0.075)
(0.075 0.0198836 0.075)
(0.025 0.0204398 0.075)
(0.075 0.0204398 0.075)
(0.025 0.0210064 0.075)
(0.075 0.0210064 0.075)
(0.025 0.0215836 0.075)
(0.075 0.0215836 0.075)
(0.025 0.0221716 0.075)
(0.075 0.0221716 0.075)
(0.025 0.0227705 0.075)
(0.075 0.0227705 0.075)
(0.025 0.0233806 0.075)
(0.075 0.0233806 0.075)
(0.025 0.0240021 0.075)
(0.075 0.0240021 0.075)
(0.025 0.0246352 0.075)
(0.075 0.0246352 0.075)
(0.025 0.0252802 0.075)
(0.075 0.0252802 0.075)
(0.025 0.0259371 0.075)
(0.075 0.0259371 0.075)
(0.025 0.0266064 0.075)
(0.075 0.0266064 0.075)
(0.025 0.0272881 0.075)
(0.075 0.0272881 0.075)
(0.025 0.0279825 0.075)
(0.075 0.0279825 0.075)
(0.025 0.0286899 0.075)
(0.075 0.0286899 0.075)
(0.025 0.0294105 0.075)
(0.075 0.0294105 0.075)
(0.025 0.0301446 0.075)
(0.075 0.0301446 0.075)
(0.025 0.0308924 0.075)
(0.075 0.0308924 0.075)
(0.025 0.0316541 0.075)
(0.075 0.0316541 0.075)
(0.025 0.03243 0.075)
(0.075 0.03243 0.075)
(0.025 0.0332205 0.075)
(0.075 0.0332205 0.075)
(0.025 0.0340256 0.075)
(0.075 0.0340256 0.075)
(0.025 0.0348458 0.075)
(0.075 0.0348458 0.075)
(0.025 0.0356814 0.075)
(0.075 0.0356814 0.075)
(0.025 0.0365325 0.075)
(0.075 0.0365325 0.075)
(0.025 0.0373995 0.075)
(0.075 0.0373995 0.075)
(0.025 0.0382827 0.075)
(0.075 0.0382827 0.075)
(0.025 0.0391824 0.075)
(0.075 0.0391824 0.075)
(0.025 0.0400988 0.075)
(0.075 0.0400988 0.075)
(0.025 0.0410324 0.075)
(0.075 0.0410324 0.075)
(0.025 0.0419834 0.075)
(0.075 0.0419834 0.075)
(0.025 0.0429522 0.075)
(0.075 0.0429522 0.075)
(0.025 0.043939 0.075)
(0.075 0.043939 0.075)
(0.025 0.0449443 0.075)
(0.075 0.0449443 0.075)
(0.025 0.0459683 0.075)
(0.075 0.0459683 0.075)
(0.025 0.0470114 0.075)
(0.075 0.0470114 0.075)
(0.025 0.0480741 0.075)
(0.075 0.0480741 0.075)
(0.025 0.0491565 0.075)
(0.075 0.0491565 0.075)
(0.025 0.0502592 0.075)
(0.075 0.0502592 0.075)
(0.025 0.0513824 0.075)
(0.075 0.0513824 0.075)
(0.025 0.0525266 0.075)
(0.075 0.0525266 0.075)
(0.025 0.0536922 0.075)
(0.075 0.0536922 0.075)
(0.025 0.0548795 0.075)
(0.075 0.0548795 0.075)
(0.025 0.056089 0.075)
(0.075 0.056089 0.075)
(0.025 0.057321 0.075)
(0.075 0.057321 0.075)
(0.025 0.0585761 0.075)
(0.075 0.0585761 0.075)
(0.025 0.0598546 0.075)
(0.075 0.0598546 0.075)
(0.025 0.0611569 0.075)
(0.075 0.0611569 0.075)
(0.025 0.0624836 0.075)
(0.075 0.0624836 0.075)
(0.025 0.063835 0.075)
(0.075 0.063835 0.075)
(0.025 0.0652117 0.075)
(0.075 0.0652117 0.075)
(0.025 0.066614 0.075)
(0.075 0.066614 0.075)
(0.025 0.0680426 0.075)
(0.075 0.0680426 0.075)
(0.025 0.0694978 0.075)
(0.075 0.0694978 0.075)
(0.025 0.0709801 0.075)
(0.075 0.0709801 0.075)
(0.025 0.0724902 0.075)
(0.075 0.0724902 0.075)
(0.025 0.0740284 0.075)
(0.075 0.0740284 0.075)
(0.025 0.0755953 0.075)
(0.075 0.0755953 0.075)
(0.025 0.0771915 0.075)
(0.075 0.0771915 0.075)
(0.025 0.0788175 0.075)
(0.075 0.0788175 0.075)
(0.025 0.0804738 0.075)
(0.075 0.0804738 0.075)
(0.025 0.0821611 0.075)
(0.075 0.0821611 0.075)
(0.025 0.0838798 0.075)
(0.075 0.0838798 0.075)
(0.025 0.0856306 0.075)
(0.075 0.0856306 0.075)
(0.025 0.0874141 0.075)
(0.075 0.0874141 0.075)
(0.025 0.0892309 0.075)
(0.075 0.0892309 0.075)
(0.025 0.0910816 0.075)
(0.075 0.0910816 0.075)
(0.025 0.0929669 0.075)
(0.075 0.0929669 0.075)
(0.025 0.0948874 0.075)
(0.075 0.0948874 0.075)
(0.025 0.0968437 0.075)
(0.075 0.0968437 0.075)
(0.025 0.0988365 0.075)
(0.075 0.0988365 0.075)
(0.025 0.100867 0.075)
(0.075 0.100867 0.075)
(0.025 0.102934 0.075)
(0.075 0.102934 0.075)
(0.025 0.105041 0.075)
(0.075 0.105041 0.075)
(0.025 0.107187 0.075)
(0.075 0.107187 0.075)
(0.025 0.109373 0.075)
(0.075 0.109373 0.075)
(0.025 0.111599 0.075)
(0.075 0.111599 0.075)
(0.025 0.113868 0.075)
(0.075 0.113868 0.075)
(0.025 0.116178 0.075)
(0.075 0.116178 0.075)
(0.025 0.118532 0.075)
(0.075 0.118532 0.075)
(0.025 0.12093 0.075)
(0.075 0.12093 0.075)
(0.025 0.123372 0.075)
(0.075 0.123372 0.075)
(0.025 0.12586 0.075)
(0.075 0.12586 0.075)
(0.025 0.128395 0.075)
(0.075 0.128395 0.075)
(0.025 0.130976 0.075)
(0.075 0.130976 0.075)
(0.025 0.133606 0.075)
(0.075 0.133606 0.075)
(0.025 0.136285 0.075)
(0.075 0.136285 0.075)
(0.025 0.139014 0.075)
(0.075 0.139014 0.075)
(0.025 0.141794 0.075)
(0.075 0.141794 0.075)
(0.025 0.144626 0.075)
(0.075 0.144626 0.075)
(0.025 0.147511 0.075)
(0.075 0.147511 0.075)
(0.025 0.15045 0.075)
(0.075 0.15045 0.075)
(0.025 0.153443 0.075)
(0.075 0.153443 0.075)
(0.025 0.156492 0.075)
(0.075 0.156492 0.075)
(0.025 0.159599 0.075)
(0.075 0.159599 0.075)
(0.025 0.162763 0.075)
(0.075 0.162763 0.075)
(0.025 0.165986 0.075)
(0.075 0.165986 0.075)
(0.025 0.16927 0.075)
(0.075 0.16927 0.075)
(0.025 0.172615 0.075)
(0.075 0.172615 0.075)
(0.025 0.176022 0.075)
(0.075 0.176022 0.075)
(0.025 0.179493 0.075)
(0.075 0.179493 0.075)
(0.025 0.183028 0.075)
(0.075 0.183028 0.075)
(0.025 0.18663 0.075)
(0.075 0.18663 0.075)
(0.025 0.190299 0.075)
(0.075 0.190299 0.075)
(0.025 0.194036 0.075)
(0.075 0.194036 0.075)
(0.025 0.197843 0.075)
(0.075 0.197843 0.075)
(0.025 0.201721 0.075)
(0.075 0.201721 0.075)
(0.025 0.205672 0.075)
(0.075 0.205672 0.075)
(0.025 0.209696 0.075)
(0.075 0.209696 0.075)
(0.025 0.213795 0.075)
(0.075 0.213795 0.075)
(0.025 0.217971 0.075)
(0.075 0.217971 0.075)
(0.025 0.222225 0.075)
(0.075 0.222225 0.075)
(0.025 0.226559 0.075)
(0.075 0.226559 0.075)
(0.025 0.230973 0.075)
(0.075 0.230973 0.075)
(0.025 0.235469 0.075)
(0.075 0.235469 0.075)
(0.025 0.24005 0.075)
(0.075 0.24005 0.075)
(0.025 0.244716 0.075)
(0.075 0.244716 0.075)
(0.025 0.249469 0.075)
(0.075 0.249469 0.075)
(0.025 0.254311 0.075)
(0.075 0.254311 0.075)
(0.025 0.259243 0.075)
(0.075 0.259243 0.075)
(0.025 0.264267 0.075)
(0.075 0.264267 0.075)
(0.025 0.269385 0.075)
(0.075 0.269385 0.075)
(0.025 0.274599 0.075)
(0.075 0.274599 0.075)
(0.025 0.27991 0.075)
(0.075 0.27991 0.075)
(0.025 0.28532 0.075)
(0.075 0.28532 0.075)
(0.025 0.290831 0.075)
(0.075 0.290831 0.075)
(0.025 0.296445 0.075)
(0.075 0.296445 0.075)
(0.025 0.302164 0.075)
(0.075 0.302164 0.075)
(0.025 0.307989 0.075)
(0.075 0.307989 0.075)
(0.025 0.313923 0.075)
(0.075 0.313923 0.075)
(0.025 0.319968 0.075)
(0.075 0.319968 0.075)
(0.025 0.326126 0.075)
(0.075 0.326126 0.075)
(0.025 0.332399 0.075)
(0.075 0.332399 0.075)
(0.025 0.338789 0.075)
(0.075 0.338789 0.075)
(0.025 0.345298 0.075)
(0.075 0.345298 0.075)
(0.025 0.351929 0.075)
(0.075 0.351929 0.075)
(0.025 0.358683 0.075)
(0.075 0.358683 0.075)
(0.025 0.365564 0.075)
(0.075 0.365564 0.075)
(0.025 0.372573 0.075)
(0.075 0.372573 0.075)
(0.025 0.379712 0.075)
(0.075 0.379712 0.075)
(0.025 0.386985 0.075)
(0.075 0.386985 0.075)
(0.025 0.394394 0.075)
(0.075 0.394394 0.075)
(0.025 0.401941 0.075)
(0.075 0.401941 0.075)
(0.025 0.409629 0.075)
(0.075 0.409629 0.075)
(0.025 0.417461 0.075)
(0.075 0.417461 0.075)
(0.025 0.425439 0.075)
(0.075 0.425439 0.075)
(0.025 0.433565 0.075)
(0.075 0.433565 0.075)
(0.025 0.441843 0.075)
(0.075 0.441843 0.075)
(0.025 0.450276 0.075)
(0.075 0.450276 0.075)
(0.025 0.458867 0.075)
(0.075 0.458867 0.075)
(0.025 0.467617 0.075)
(0.075 0.467617 0.075)
(0.025 0.476531 0.075)
(0.075 0.476531 0.075)
(0.025 0.485611 0.075)
(0.075 0.485611 0.075)
(0.025 0.494861 0.075)
(0.075 0.494861 0.075)
(0.025 0.504284 0.075)
(0.075 0.504284 0.075)
(0.025 0.513882 0.075)
(0.075 0.513882 0.075)
(0.025 0.52366 0.075)
(0.075 0.52366 0.075)
(0.025 0.53362 0.075)
(0.075 0.53362 0.075)
(0.025 0.543766 0.075)
(0.075 0.543766 0.075)
(0.025 0.554101 0.075)
(0.075 0.554101 0.075)
(0.025 0.56463 0.075)
(0.075 0.56463 0.075)
(0.025 0.575354 0.075)
(0.075 0.575354 0.075)
(0.025 0.58628 0.075)
(0.075 0.58628 0.075)
(0.025 0.597409 0.075)
(0.075 0.597409 0.075)
(0.025 0.608745 0.075)
(0.075 0.608745 0.075)
(0.025 0.620294 0.075)
(0.075 0.620294 0.075)
(0.025 0.632058 0.075)
(0.075 0.632058 0.075)
(0.025 0.644041 0.075)
(0.075 0.644041 0.075)
(0.025 0.656248 0.075)
(0.075 0.656248 0.075)
(0.025 0.668683 0.075)
(0.075 0.668683 0.075)
(0.025 0.681351 0.075)
(0.075 0.681351 0.075)
(0.025 0.694254 0.075)
(0.075 0.694254 0.075)
(0.025 0.707399 0.075)
(0.075 0.707399 0.075)
(0.025 0.720789 0.075)
(0.075 0.720789 0.075)
(0.025 0.734429 0.075)
(0.075 0.734429 0.075)
(0.025 0.748323 0.075)
(0.075 0.748323 0.075)
(0.025 0.762477 0.075)
(0.075 0.762477 0.075)
(0.025 0.776895 0.075)
(0.075 0.776895 0.075)
(0.025 0.791582 0.075)
(0.075 0.791582 0.075)
(0.025 0.806543 0.075)
(0.075 0.806543 0.075)
(0.025 0.821784 0.075)
(0.075 0.821784 0.075)
(0.025 0.837309 0.075)
(0.075 0.837309 0.075)
(0.025 0.853124 0.075)
(0.075 0.853124 0.075)
(0.025 0.869234 0.075)
(0.075 0.869234 0.075)
(0.025 0.885645 0.075)
(0.075 0.885645 0.075)
(0.025 0.902362 0.075)
(0.075 0.902362 0.075)
(0.025 0.919391 0.075)
(0.075 0.919391 0.075)
(0.025 0.936738 0.075)
(0.075 0.936738 0.075)
(0.025 0.954409 0.075)
(0.075 0.954409 0.075)
(0.025 0.97241 0.075)
(0.075 0.97241 0.075)
(0.025 0.990747 0.075)
(0.075 0.990747 0.075)
(0.025 1.00925 0.025)
(0.075 1.00925 0.025)
(0.025 1.02759 0.025)
(0.075 1.02759 0.025)
(0.025 1.04559 0.025)
(0.075 1.04559 0.025)
(0.025 1.06326 0.025)
(0.075 1.06326 0.025)
(0.025 1.08061 0.025)
(0.075 1.08061 0.025)
(0.025 1.09764 0.025)
(0.075 1.09764 0.025)
(0.025 1.11436 0.025)
(0.075 1.11436 0.025)
(0.025 1.13077 0.025)
(0.075 1.13077 0.025)
(0.025 1.14688 0.025)
(0.075 1.14688 0.025)
(0.025 1.16269 0.025)
(0.075 1.16269 0.025)
(0.025 1.17822 0.025)
(0.075 1.17822 0.025)
(0.025 1.19346 0.025)
(0.075 1.19346 0.025)
(0.025 1.20842 0.025)
(0.075 1.20842 0.025)
(0.025 1.22311 0.025)
(0.075 1.22311 0.025)
(0.025 1.23752 0.025)
(0.075 1.23752 0.025)
(0.025 1.25168 0.025)
(0.075 1.25168 0.025)
(0.025 1.26557 0.025)
(0.075 1.26557 0.025)
(0.025 1.27921 0.025)
(0.075 1.27921 0.025)
(0.025 1.2926 0.025)
(0.075 1.2926 0.025)
(0.025 1.30575 0.025)
(0.075 1.30575 0.025)
(0.025 1.31865 0.025)
(0.075 1.31865 0.025)
(0.025 1.33132 0.025)
(0.075 1.33132 0.025)
(0.025 1.34375 0.025)
(0.075 1.34375 0.025)
(0.025 1.35596 0.025)
(0.075 1.35596 0.025)
(0.025 1.36794 0.025)
(0.075 1.36794 0.025)
(0.025 1.37971 0.025)
(0.075 1.37971 0.025)
(0.025 1.39125 0.025)
(0.075 1.39125 0.025)
(0.025 1.40259 0.025)
(0.075 1.40259 0.025)
(0.025 1.41372 0.025)
(0.075 1.41372 0.025)
(0.025 1.42465 0.025)
(0.075 1.42465 0.025)
(0.025 1.43537 0.025)
(0.075 1.43537 0.025)
(0.025 1.4459 0.025)
(0.075 1.4459 0.025)
(0.025 1.45623 0.025)
(0.075 1.45623 0.025)
(0.025 1.46638 0.025)
(0.075 1.46638 0.025)
(0.025 1.47634 0.025)
(0.075 1.47634 0.025)
(0.025 1.48612 0.025)
(0.075 1.48612 0.025)
(0.025 1.49572 0.025)
(0.075 1.49572 0.025)
(0.025 1.50514 0.025)
(0.075 1.50514 0.025)
(0.025 1.51439 0.025)
(0.075 1.51439 0.025)
(0.025 1.52347 0.025)
(0.075 1.52347 0.025)
(0.025 1.53238 0.025)
(0.075 1.53238 0.025)
(0.025 1.54113 0.025)
(0.075 1.54113 0.025)
(0.025 1.54972 0.025)
(0.075 1.54972 0.025)
(0.025 1.55816 0.025)
(0.075 1.55816 0.025)
(0.025 1.56643 0.025)
(0.075 1.56643 0.025)
(0.025 1.57456 0.025)
(0.075 1.57456 0.025)
(0.025 1.58254 0.025)
(0.075 1.58254 0.025)
(0.025 1.59037 0.025)
(0.075 1.59037 0.025)
(0.025 1.59806 0.025)
(0.075 1.59806 0.025)
(0.025 1.60561 0.025)
(0.075 1.60561 0.025)
(0.025 1.61301 0.025)
(0.075 1.61301 0.025)
(0.025 1.62029 0.025)
(0.075 1.62029 0.025)
(0.025 1.62743 0.025)
(0.075 1.62743 0.025)
(0.025 1.63444 0.025)
(0.075 1.63444 0.025)
(0.025 1.64132 0.025)
(0.075 1.64132 0.025)
(0.025 1.64807 0.025)
(0.075 1.64807 0.025)
(0.025 1.6547 0.025)
(0.075 1.6547 0.025)
(0.025 1.66121 0.025)
(0.075 1.66121 0.025)
(0.025 1.6676 0.025)
(0.075 1.6676 0.025)
(0.025 1.67387 0.025)
(0.075 1.67387 0.025)
(0.025 1.68003 0.025)
(0.075 1.68003 0.025)
(0.025 1.68608 0.025)
(0.075 1.68608 0.025)
(0.025 1.69201 0.025)
(0.075 1.69201 0.025)
(0.025 1.69784 0.025)
(0.075 1.69784 0.025)
(0.025 1.70356 0.025)
(0.075 1.70356 0.025)
(0.025 1.70917 0.025)
(0.075 1.70917 0.025)
(0.025 1.71468 0.025)
(0.075 1.71468 0.025)
(0.025 1.72009 0.025)
(0.075 1.72009 0.025)
(0.025 1.7254 0.025)
(0.075 1.7254 0.025)
(0.025 1.73061 0.025)
(0.075 1.73061 0.025)
(0.025 1.73573 0.025)
(0.075 1.73573 0.025)
(0.025 1.74076 0.025)
(0.075 1.74076 0.025)
(0.025 1.74569 0.025)
(0.075 1.74569 0.025)
(0.025 1.75053 0.025)
(0.075 1.75053 0.025)
(0.025 1.75528 0.025)
(0.075 1.75528 0.025)
(0.025 1.75995 0.025)
(0.075 1.75995 0.025)
(0.025 1.76453 0.025)
(0.075 1.76453 0.025)
(0.025 1.76903 0.025)
(0.075 1.76903 0.025)
(0.025 1.77344 0.025)
(0.075 1.77344 0.025)
(0.025 1.77777 0.025)
(0.075 1.77777 0.025)
(0.025 1.78203 0.025)
(0.075 1.78203 0.025)
(0.025 1.7862 0.025)
(0.075 1.7862 0.025)
(0.025 1.7903 0.025)
(0.075 1.7903 0.025)
(0.025 1.79433 0.025)
(0.075 1.79433 0.025)
(0.025 1.79828 0.025)
(0.075 1.79828 0.025)
(0.025 1.80216 0.025)
(0.075 1.80216 0.025)
(0.025 1.80596 0.025)
(0.075 1.80596 0.025)
(0.025 1.8097 0.025)
(0.075 1.8097 0.025)
(0.025 1.81337 0.025)
(0.075 1.81337 0.025)
(0.025 1.81697 0.025)
(0.075 1.81697 0.025)
(0.025 1.82051 0.025)
(0.075 1.82051 0.025)
(0.025 1.82398 0.025)
(0.075 1.82398 0.025)
(0.025 1.82739 0.025)
(0.075 1.82739 0.025)
(0.025 1.83073 0.025)
(0.075 1.83073 0.025)
(0.025 1.83401 0.025)
(0.075 1.83401 0.025)
(0.025 1.83724 0.025)
(0.075 1.83724 0.025)
(0.025 1.8404 0.025)
(0.075 1.8404 0.025)
(0.025 1.84351 0.025)
(0.075 1.84351 0.025)
(0.025 1.84656 0.025)
(0.075 1.84656 0.025)
(0.025 1.84955 0.025)
(0.075 1.84955 0.025)
(0.025 1.85249 0.025)
(0.075 1.85249 0.025)
(0.025 1.85537 0.025)
(0.075 1.85537 0.025)
(0.025 1.85821 0.025)
(0.075 1.85821 0.025)
(0.025 1.86099 0.025)
(0.075 1.86099 0.025)
(0.025 1.86371 0.025)
(0.075 1.86371 0.025)
(0.025 1.86639 0.025)
(0.075 1.86639 0.025)
(0.025 1.86902 0.025)
(0.075 1.86902 0.025)
(0.025 1.87161 0.025)
(0.075 1.87161 0.025)
(0.025 1.87414 0.025)
(0.075 1.87414 0.025)
(0.025 1.87663 0.025)
(0.075 1.87663 0.025)
(0.025 1.87907 0.025)
(0.075 1.87907 0.025)
(0.025 1.88147 0.025)
(0.075 1.88147 0.025)
(0.025 1.88382 0.025)
(0.075 1.88382 0.025)
(0.025 1.88613 0.025)
(0.075 1.88613 0.025)
(0.025 1.8884 0.025)
(0.075 1.8884 0.025)
(0.025 1.89063 0.025)
(0.075 1.89063 0.025)
(0.025 1.89281 0.025)
(0.075 1.89281 0.025)
(0.025 1.89496 0.025)
(0.075 1.89496 0.025)
(0.025 1.89707 0.025)
(0.075 1.89707 0.025)
(0.025 1.89913 0.025)
(0.075 1.89913 0.025)
(0.025 1.90116 0.025)
(0.075 1.90116 0.025)
(0.025 1.90316 0.025)
(0.075 1.90316 0.025)
(0.025 1.90511 0.025)
(0.075 1.90511 0.025)
(0.025 1.90703 0.025)
(0.075 1.90703 0.025)
(0.025 1.90892 0.025)
(0.075 1.90892 0.025)
(0.025 1.91077 0.025)