/*--------------------------------*- C++ -*----------------------------------*\
| =========                 |                                                 |
| \\      /  F ield         | OpenFOAM: The Open Source CFD Toolbox           |
|  \\    /   O peration     | Version:  2106                                  |
|   \\  /    A nd           | Website:  www.openfoam.com                      |
|    \\/     M anipulation  |                                                 |
\*---------------------------------------------------------------------------*/
FoamFile
{
    version     2.0;
    format      ascii;
    arch        "LSB;label=32;scalar=64";
    class       volVectorField;
    location    "10060";
    object      grad(T);
}
// * * * * * * * * * * * * * * * * * * * * * * * * * * * * * * * * * * * * * //

dimensions      [0 -1 0 1 0 0 0];

internalField   nonuniform List<vector> 
2000
(
(2.86062e-17 127.82 0.236549)
(-2.86062e-17 127.82 0.236549)
(0 127.82 0.714063)
(-1.12328e-16 127.82 0.714063)
(-2.90708e-17 127.82 0.991013)
(0 127.82 0.991013)
(-9.52691e-17 127.82 1.00951)
(3.81076e-16 127.82 1.00951)
(0 127.82 1.02835)
(0 127.82 1.02835)
(4.17272e-16 127.82 1.04755)
(-1.34285e-15 127.82 1.04755)
(0 127.819 1.0671)
(1.20548e-15 127.819 1.0671)
(0 127.819 1.08701)
(2.98121e-15 127.819 1.08701)
(-4.45263e-16 127.818 1.1073)
(0 127.818 1.1073)
(0 127.817 1.12796)
(0 127.817 1.12796)
(2.28249e-15 127.817 1.14901)
(0 127.817 1.14901)
(6.71329e-16 127.816 1.17045)
(1.19154e-15 127.816 1.17045)
(0 127.815 1.19229)
(0 127.815 1.19229)
(-8.29159e-16 127.814 1.21453)
(0 127.814 1.21453)
(-9.1029e-16 127.813 1.23719)
(-1.41315e-15 127.813 1.23719)
(2.38019e-15 127.811 1.26027)
(-2.58448e-15 127.811 1.26027)
(0 127.81 1.28378)
(0 127.81 1.28378)
(2.32575e-15 127.808 1.30773)
(4.65151e-15 127.808 1.30773)
(-1.25023e-15 127.806 1.33212)
(0 127.806 1.33212)
(-1.23745e-15 127.804 1.35696)
(7.93355e-15 127.804 1.35696)
(-1.42987e-15 127.802 1.38226)
(1.14389e-14 127.802 1.38226)
(0 127.799 1.40804)
(6.08882e-15 127.799 1.40804)
(0 127.796 1.43429)
(6.46506e-15 127.796 1.43429)
(2.39293e-15 127.793 1.46102)
(4.45538e-15 127.793 1.46102)
(-1.80968e-15 127.79 1.48825)
(0 127.79 1.48825)
(0 127.786 1.51598)
(7.63639e-15 127.786 1.51598)
(2.53409e-16 127.781 1.54422)
(0 127.781 1.54422)
(-2.11353e-15 127.776 1.57298)
(0 127.776 1.57298)
(0 127.77 1.60226)
(0 127.77 1.60226)
(-4.46725e-15 127.763 1.63208)
(-9.30262e-15 127.763 1.63208)
(2.43469e-15 127.756 1.66244)
(9.73876e-15 127.756 1.66244)
(0 127.747 1.69335)
(-4.12766e-15 127.747 1.69335)
(-2.65889e-15 127.737 1.72481)
(0 127.737 1.72481)
(-2.77413e-15 127.726 1.75684)
(0 127.726 1.75684)
(0 127.712 1.78944)
(1.1566e-14 127.712 1.78944)
(3.83332e-15 127.697 1.82261)
(-3.83332e-15 127.697 1.82261)
(3.13286e-15 127.68 1.85636)
(8.76836e-15 127.68 1.85636)
(-3.2569e-15 127.66 1.8907)
(1.30276e-14 127.66 1.8907)
(-3.38325e-15 127.637 1.92562)
(0 127.637 1.92562)
(7.11994e-15 127.61 1.96112)
(6.92782e-15 127.61 1.96112)
(-7.28602e-15 127.579 1.99721)
(1.4572e-14 127.579 1.99721)
(3.4307e-15 127.544 2.03389)
(0 127.544 2.03389)
(0 127.503 2.07115)
(0 127.503 2.07115)
(-4.05093e-15 127.456 2.10898)
(-2.2816e-14 127.456 2.10898)
(4.19194e-15 127.402 2.14737)
(1.67678e-14 127.402 2.14737)
(4.33554e-15 127.34 2.18631)
(-1.73422e-14 127.34 2.18631)
(1.77358e-15 127.268 2.22579)
(1.79271e-14 127.268 2.22579)
(-6.14072e-15 127.187 2.26578)
(4.3186e-14 127.187 2.26578)
(4.78227e-15 127.093 2.30626)
(1.91291e-14 127.093 2.30626)
(-4.93661e-15 126.986 2.3472)
(-2.56642e-14 126.986 2.3472)
(5.80929e-15 126.864 2.38856)
(0 126.864 2.38856)
(-1.09565e-14 126.724 2.4303)
(-5.70284e-15 126.724 2.4303)
(1.11967e-14 126.566 2.47238)
(0 126.566 2.47238)
(0 126.387 2.51474)
(-2.23287e-14 126.387 2.51474)
(3.55715e-16 126.184 2.5573)
(-1.07901e-14 126.184 2.5573)
(-5.92227e-15 125.954 2.60002)
(0 125.954 2.60002)
(-1.73926e-14 125.696 2.64279)
(3.47852e-14 125.696 2.64279)
(-6.2742e-15 125.405 2.68553)
(0 125.405 2.68553)
(-1.29093e-14 125.08 2.72816)
(-2.58185e-14 125.08 2.72816)
(6.63805e-15 124.716 2.77055)
(-2.65522e-14 124.716 2.77055)
(0 124.311 2.81259)
(-9.65677e-15 124.311 2.81259)
(-2.35075e-14 123.861 2.85415)
(6.55906e-14 123.861 2.85415)
(-7.20622e-15 123.362 2.89512)
(2.88249e-14 123.362 2.89512)
(9.13556e-15 122.812 2.93534)
(0 122.812 2.93534)
(-1.65679e-14 122.206 2.97466)
(3.0399e-14 122.206 2.97466)
(8.80382e-15 121.543 3.01295)
(-8.80382e-15 121.543 3.01295)
(6.37731e-16 120.818 3.05005)
(-8.64249e-15 120.818 3.05005)
(0 120.029 3.08579)
(-8.48412e-15 120.029 3.08579)
(0 119.174 3.12004)
(3.36832e-14 119.174 3.12004)
(0 118.251 3.15264)
(0 118.251 3.15264)
(-8.84726e-15 117.258 3.18345)
(3.5389e-14 117.258 3.18345)
(-7.87913e-15 116.194 3.21233)
(4.41357e-14 116.194 3.21233)
(-9.28333e-15 115.059 3.23916)
(-3.71333e-14 115.059 3.23916)
(0 113.852 3.26382)
(-3.80187e-14 113.852 3.26382)
(-1.94561e-14 112.575 3.28622)
(3.89121e-14 112.575 3.28622)
(-1.99065e-14 111.229 3.30628)
(0 111.229 3.30628)
(0 109.816 3.32393)
(4.0721e-14 109.816 3.32393)
(-2.45119e-14 108.338 3.33914)
(-4.16351e-14 108.338 3.33914)
(-1.70507e-14 106.799 3.35186)
(2.76894e-14 106.799 3.35186)
(-1.63121e-14 105.202 3.36211)
(-1.62975e-14 105.202 3.36211)
(4.47972e-15 103.552 3.36989)
(-2.66839e-14 103.552 3.36989)
(0 101.853 3.37523)
(0 101.853 3.37523)
(1.1569e-14 100.11 3.37818)
(-1.18267e-13 100.11 3.37818)
(1.18033e-14 98.3277 3.37882)
(0 98.3277 3.37882)
(0 96.5123 3.37721)
(4.81519e-14 96.5123 3.37721)
(2.44363e-14 94.6687 3.37345)
(4.90913e-14 94.6687 3.37345)
(-1.13422e-15 92.8025 3.36764)
(0 92.8025 3.36764)
(-2.04134e-15 90.9189 3.35989)
(5.09699e-14 90.9189 3.35989)
(-1.00371e-14 89.0233 3.35032)
(1.26829e-13 89.0233 3.35032)
(-2.45071e-14 87.1208 3.33905)
(1.12961e-14 87.1208 3.33905)
(-2.68889e-14 85.2162 3.32621)
(5.37778e-14 85.2162 3.32621)
(-1.36772e-14 83.3142 3.31191)
(5.47089e-14 83.3142 3.31191)
(-2.13729e-14 81.4191 3.29629)
(0 81.4191 3.29629)
(1.41403e-14 79.5348 3.27947)
(5.65611e-14 79.5348 3.27947)
(1.43703e-14 77.6652 3.26157)
(5.74813e-14 77.6652 3.26157)
(-1.45993e-14 75.8135 3.2427)
(5.8397e-14 75.8135 3.2427)
(1.4827e-14 73.9828 3.22298)
(0 73.9828 3.22298)
(-1.50535e-14 72.1759 3.20252)
(6.02139e-14 72.1759 3.20252)
(-3.84943e-15 70.395 3.18141)
(1.91281e-14 70.395 3.18141)
(-1.55024e-14 68.6422 3.15976)
(4.3232e-14 68.6422 3.15976)
(1.57247e-14 66.9194 3.13765)
(6.28988e-14 66.9194 3.13765)
(0 65.228 3.11517)
(4.56865e-14 65.228 3.11517)
(0 63.5693 3.09239)
(-8.24235e-14 63.5693 3.09239)
(0 61.9442 3.06939)
(6.55305e-14 61.9442 3.06939)
(-1.65988e-14 60.3537 3.04623)
(1.7119e-14 60.3537 3.04623)
(-1.68134e-14 58.7981 3.02298)
(6.72537e-14 58.7981 3.02298)
(1.64973e-14 57.278 2.99969)
(0 57.278 2.99969)
(1.6195e-14 55.7935 2.9764)
(-1.6195e-14 55.7935 2.9764)
(1.74475e-14 54.3448 2.95317)
(8.56885e-14 54.3448 2.95317)
(-1.35582e-14 52.9318 2.93003)
(7.06227e-14 52.9318 2.93003)
(0 51.5543 2.90702)
(7.14487e-14 51.5543 2.90702)
(-3.61341e-14 50.212 2.88418)
(7.22683e-14 50.212 2.88418)
(1.82703e-14 48.9047 2.86153)
(7.30814e-14 48.9047 2.86153)
(0 47.6318 2.8391)
(-7.38881e-14 47.6318 2.8391)
(2.84568e-14 46.3929 2.8169)
(-2.84568e-14 46.3929 2.8169)
(-3.77412e-14 45.1874 2.79496)
(0 45.1874 2.79496)
(-1.90675e-14 44.0147 2.7733)
(0 44.0147 2.7733)
(-2.69209e-14 42.8742 2.75193)
(-7.70518e-14 42.8742 2.75193)
(3.89137e-14 41.7653 2.73086)
(-2.64276e-14 41.7653 2.73086)
(1.3355e-14 40.6871 2.7101)
(7.85968e-14 40.6871 2.7101)
(-1.98401e-14 39.6391 2.68966)
(7.93603e-14 39.6391 2.68966)
(4.0059e-14 38.6205 2.66955)
(-2.50013e-14 38.6205 2.66955)
(4.47606e-14 37.6306 2.64977)
(8.087e-14 37.6306 2.64977)
(-2.04041e-14 36.6685 2.63032)
(-2.40934e-14 36.6685 2.63032)
(-2.36519e-14 35.7337 2.61121)
(1.64714e-13 35.7337 2.61121)
(-2.0773e-14 34.8254 2.59244)
(0 34.8254 2.59244)
(-2.2793e-14 33.9428 2.57401)
(1.67644e-13 33.9428 2.57401)
(-2.11366e-14 33.0853 2.55592)
(0 33.0853 2.55592)
(2.19653e-14 32.252 2.53817)
(8.52656e-14 32.252 2.53817)
(2.14949e-14 31.4424 2.52075)
(1.71959e-13 31.4424 2.52075)
(-2.16722e-14 30.6557 2.50366)
(8.66889e-14 30.6557 2.50366)
(1.06851e-15 29.8913 2.48691)
(6.66133e-14 29.8913 2.48691)
(-3.24827e-15 29.1484 2.47048)
(4.72945e-14 29.1484 2.47048)
(-6.00755e-14 28.4265 2.45438)
(2.17625e-13 28.4265 2.45438)
(0 27.7249 2.43859)
(5.01607e-14 27.7249 2.43859)
(-2.25406e-14 27.0429 2.42312)
(-1.9298e-14 27.0429 2.42312)
(2.27109e-14 26.3801 2.40796)
(0 26.3801 2.40796)
(0 25.7358 2.3931)
(-3.71944e-14 25.7358 2.3931)
(1.34647e-14 25.1094 2.37854)
(-3.65128e-14 25.1094 2.37854)
(-2.32151e-14 24.5003 2.36428)
(-9.28605e-14 24.5003 2.36428)
(-5.8568e-14 23.9082 2.3503)
(2.22236e-13 23.9082 2.3503)
(0 23.3323 2.33661)
(9.41844e-14 23.3323 2.33661)
(1.01991e-14 22.7722 2.32319)
(6.09312e-14 22.7722 2.32319)
(0 22.2275 2.31004)
(6.22047e-14 22.2275 2.31004)
(-2.40352e-14 21.6976 2.29716)
(9.61408e-14 21.6976 2.29716)
(0 21.182 2.28453)
(9.67854e-14 21.182 2.28453)
(-2.43566e-14 20.6804 2.27216)
(0 20.6804 2.27216)
(-2.45159e-14 20.1923 2.26003)
(0 20.1923 2.26003)
(-5.5022e-14 19.7172 2.24815)
(3.03476e-14 19.7172 2.24815)
(-3.4751e-14 19.2549 2.2365)
(-9.93281e-14 19.2549 2.2365)
(0 18.8047 2.22507)
(-2.92456e-14 18.8047 2.22507)
(2.87097e-14 18.3665 2.21387)
(-2.87097e-14 18.3665 2.21387)
(5.34834e-14 17.9398 2.20288)
(0 17.9398 2.20288)
(-2.54542e-14 17.5243 2.1921)
(1.01817e-13 17.5243 2.1921)
(-5.27679e-14 17.1195 2.18152)
(1.29591e-13 17.1195 2.18152)
(-2.57606e-14 16.7253 2.17114)
(0 16.7253 2.17114)
(0 16.3412 2.16095)
(1.03651e-13 16.3412 2.16095)
(-2.6064e-14 15.9669 2.15094)
(-1.2995e-13 15.9669 2.15094)
(-2.42321e-14 15.6022 2.14111)
(1.55305e-13 15.6022 2.14111)
(7.58869e-14 15.2468 2.13145)
(1.05458e-13 15.2468 2.13145)
(2.65138e-14 14.9003 2.12196)
(0 14.9003 2.12196)
(0 14.5625 2.11263)
(1.06649e-13 14.5625 2.11263)
(-7.36596e-14 14.2332 2.10345)
(4.68495e-14 14.2332 2.10345)
(0 13.912 2.09441)
(1.0783e-13 13.912 2.09441)
(-4.52986e-15 13.5987 2.08552)
(-2.25741e-14 13.5987 2.08552)
(0 13.2931 2.07675)
(0 13.2931 2.07675)
(4.35087e-14 12.995 2.06812)
(1.09581e-13 12.995 2.06812)
(0 12.7041 2.0596)
(1.10159e-13 12.7041 2.0596)
(-2.76839e-14 12.4202 2.0512)
(0 12.4202 2.0512)
(-2.78274e-14 12.143 2.04291)
(0 12.143 2.04291)
(-2.79703e-14 11.8725 2.03472)
(0 11.8725 2.03472)
(5.62253e-14 11.6084 2.02662)
(7.27848e-14 11.6084 2.02662)
(-8.47631e-14 11.3505 2.01861)
(1.13017e-13 11.3505 2.01861)
(3.82253e-14 11.0986 2.01068)
(7.53568e-14 11.0986 2.01068)
(-2.85361e-14 10.8525 2.00282)
(0 10.8525 2.00282)
(-6.55134e-14 10.6121 1.99503)
(0 10.6121 1.99503)
(0 10.3772 1.9873)
(0 10.3772 1.9873)
(0 10.1476 1.97962)
(1.15819e-13 10.1476 1.97962)
(-2.90931e-14 9.92321 1.97199)
(-1.16372e-13 9.92321 1.97199)
(3.42104e-14 9.70382 1.96439)
(-3.42104e-14 9.70382 1.96439)
(-6.29519e-14 9.48929 1.95682)
(-2.34947e-13 9.48929 1.95682)
(-2.95052e-14 9.27948 1.94927)
(0 9.27948 1.94927)
(0 9.07425 1.94173)
(0 9.07425 1.94173)
(3.17709e-14 8.87346 1.9342)
(8.73381e-14 8.87346 1.9342)
(-5.9825e-14 8.67698 1.92666)
(2.393e-13 8.67698 1.92666)
(-3.06172e-14 8.48468 1.9191)
(1.50806e-13 8.48468 1.9191)
(-3.01815e-14 8.29643 1.91153)
(-3.00562e-14 8.29643 1.91153)
(0 8.11211 1.90392)
(-9.17552e-14 8.11211 1.90392)
(-3.04483e-14 7.93161 1.89626)
(0 7.93161 1.89626)
(0 7.75479 1.88856)
(1.22324e-13 7.75479 1.88856)
(0 7.58155 1.88078)
(1.22852e-13 7.58155 1.88078)
(-2.39581e-14 7.41179 1.87294)
(3.0156e-13 7.41179 1.87294)
(3.09758e-14 7.24538 1.865)
(1.23903e-13 7.24538 1.865)
(0 7.08223 1.85697)
(1.24425e-13 7.08223 1.85697)
(3.12363e-14 6.92224 1.84883)
(1.24945e-13 6.92224 1.84883)
(-8.22606e-14 6.76529 1.84056)
(3.01821e-13 6.76529 1.84056)
(-3.14946e-14 6.6113 1.83215)
(-1.25978e-13 6.6113 1.83215)
(0 6.46016 1.82359)
(0 6.46016 1.82359)
(-3.17507e-14 6.31179 1.81486)
(-4.8148e-14 6.31179 1.81486)
(-1.649e-14 6.16608 1.80594)
(-4.72657e-14 6.16608 1.80594)
(-7.84039e-14 6.02296 1.79683)
(1.74417e-13 6.02296 1.79683)
(0 5.88231 1.78749)
(-4.55493e-14 5.88231 1.78749)
(-3.22557e-14 5.74407 1.77792)
(0 5.74407 1.77792)
(-4.38952e-14 5.60814 1.76809)
(-4.38952e-14 5.60814 1.76809)
(3.25046e-14 5.47443 1.75799)
(2.60036e-13 5.47443 1.75799)
(1.07557e-13 5.34286 1.74759)
(-1.72813e-13 5.34286 1.74759)
(6.55015e-14 5.21335 1.73686)
(0 5.21335 1.73686)
(6.57456e-14 5.0858 1.72579)
(2.62982e-13 5.0858 1.72579)
(3.29941e-14 4.96014 1.71434)
(1.31977e-13 4.96014 1.71434)
(3.31147e-14 4.83628 1.70249)
(1.32459e-13 4.83628 1.70249)
(-3.32346e-14 4.71415 1.69022)
(1.32938e-13 4.71415 1.69022)
(-3.33536e-14 4.59364 1.67748)
(0 4.59364 1.67748)
(3.71645e-14 4.47469 1.66424)
(1.33887e-13 4.47469 1.66424)
(-6.71785e-14 4.35721 1.65047)
(9.78735e-14 4.35721 1.65047)
(-3.37058e-14 4.2411 1.63613)
(0 4.2411 1.63613)
(0 4.12629 1.62118)
(3.0573e-13 4.12629 1.62118)
(0 4.01268 1.60557)
(0 4.01268 1.60557)
(3.40497e-14 3.90019 1.58926)
(-1.70081e-13 3.90019 1.58926)
(3.41623e-14 3.78872 1.57219)
(0 3.78872 1.57219)
(-3.24482e-15 3.67818 1.5543)
(0 3.67818 1.5543)
(3.67156e-14 3.56846 1.53554)
(0 3.56846 1.53554)
(-3.14658e-14 3.45948 1.51584)
(1.6944e-13 3.45948 1.51584)
(0 3.35111 1.49512)
(1.38407e-13 3.35111 1.49512)
(4.3853e-15 3.24326 1.47332)
(1.69157e-13 3.24326 1.47332)
(0 3.13581 1.45034)
(-1.69023e-13 3.13581 1.45034)
(-3.49179e-14 3.02863 1.42609)
(0 3.02863 1.42609)
(-3.50204e-14 2.9216 1.40046)
(1.11395e-13 2.9216 1.40046)
(0 2.81459 1.37336)
(1.40485e-13 2.81459 1.37336)
(2.0069e-14 2.70744 1.34466)
(-1.40883e-13 2.70744 1.34466)
(3.53182e-14 2.60001 1.31421)
(2.82545e-13 2.60001 1.31421)
(5.32819e-14 2.49213 1.28188)
(8.83735e-14 2.49213 1.28188)
(-3.55076e-14 2.38363 1.24751)
(0 2.38363 1.24751)
(3.55992e-14 2.27433 1.21092)
(1.42397e-13 2.27433 1.21092)
(1.47175e-14 2.16402 1.17191)
(1.42755e-13 2.16402 1.17191)
(-3.57757e-14 2.0525 1.13027)
(1.43103e-13 2.0525 1.13027)
(0 1.93954 1.08578)
(0 1.93954 1.08578)
(3.59423e-14 1.82491 1.03818)
(4.76856e-14 1.82491 1.03818)
(-7.20428e-14 1.70837 0.987198)
(1.44086e-13 1.70837 0.987198)
(4.59539e-14 1.58965 0.932549)
(0 1.58965 0.932549)
(0 1.4685 0.873925)
(0 1.4685 0.873925)
(3.62397e-14 1.34465 0.811002)
(1.44959e-13 1.34465 0.811002)
(7.16833e-15 1.21786 0.743447)
(1.45221e-13 1.21786 0.743447)
(-7.9044e-14 1.08789 0.670925)
(0 1.08789 0.670925)
(0 0.954523 0.593105)
(-4.1895e-14 0.954523 0.593105)
(0 0.817602 0.509674)
(-1.45908e-13 0.817602 0.509674)
(-3.65249e-14 0.67701 0.420345)
(0 0.67701 0.420345)
(-3.65673e-14 0.532702 0.324875)
(1.46269e-13 0.532702 0.324875)
(0 0.384713 0.223072)
(1.46416e-13 0.384713 0.223072)
(-3.66344e-14 0.233164 0.114803)
(0 0.233164 0.114803)
(-7.4153e-14 2.02337e-06 7.48903e-07)
(3.30879e-13 1.29821e-06 4.80502e-07)
(0 127.82 -0.236549)
(-5.72123e-17 127.82 -0.236549)
(-1.12328e-16 127.82 -0.714063)
(0 127.82 -0.714063)
(-5.81415e-17 127.82 -0.991013)
(0 127.82 -0.991013)
(9.52691e-17 127.82 -1.00951)
(-2.16498e-16 127.82 -1.00951)
(-3.25406e-16 127.82 -1.02835)
(0 127.82 -1.02835)
(6.48667e-16 127.82 -1.04755)
(-4.17272e-16 127.82 -1.04755)
(-4.09625e-16 127.819 -1.0671)
(0 127.819 -1.0671)
(7.45303e-16 127.819 -1.08701)
(0 127.819 -1.08701)
(-4.45263e-16 127.818 -1.1073)
(1.78105e-15 127.818 -1.1073)
(5.19229e-16 127.817 -1.12796)
(-2.85195e-15 127.817 -1.12796)
(4.28322e-16 127.817 -1.14901)
(-2.37831e-15 127.817 -1.14901)
(6.71329e-16 127.816 -1.17045)
(0 127.816 -1.17045)
(-7.49515e-16 127.815 -1.19229)
(-2.99806e-15 127.815 -1.19229)
(1.43953e-15 127.814 -1.21453)
(-4.75617e-15 127.814 -1.21453)
(9.1029e-16 127.813 -1.23719)
(-5.05431e-15 127.813 -1.23719)
(-1.38726e-15 127.811 -1.26027)
(0 127.811 -1.26027)
(2.43896e-15 127.81 -1.28378)
(-5.67032e-15 127.81 -1.28378)
(1.16288e-15 127.808 -1.30773)
(4.65151e-15 127.808 -1.30773)
(1.25023e-15 127.806 -1.33212)
(0 127.806 -1.33212)
(2.67844e-15 127.804 -1.35696)
(-2.57667e-15 127.804 -1.35696)
(1.42987e-15 127.802 -1.38226)
(3.19002e-15 127.802 -1.38226)
(1.5222e-15 127.799 -1.40804)
(3.60572e-15 127.799 -1.40804)
(-1.61626e-15 127.796 -1.43429)
(0 127.796 -1.43429)
(5.81709e-15 127.793 -1.46102)
(-2.39293e-15 127.793 -1.46102)
(1.80968e-15 127.79 -1.48825)
(0 127.79 -1.48825)
(0 127.786 -1.51598)
(0 127.786 -1.51598)
(-2.26378e-15 127.781 -1.54422)
(-2.26378e-15 127.781 -1.54422)
(4.22706e-15 127.776 -1.57298)
(0 127.776 -1.57298)
(2.21861e-15 127.77 -1.60226)
(8.87446e-15 127.77 -1.60226)
(4.65131e-15 127.763 -1.63208)
(0 127.763 -1.63208)
(2.43469e-15 127.756 -1.66244)
(0 127.756 -1.66244)
(2.54576e-15 127.747 -1.69335)
(-4.12766e-15 127.747 -1.69335)
(2.65889e-15 127.737 -1.72481)
(-1.06356e-14 127.737 -1.72481)
(3.97777e-15 127.726 -1.75684)
(-1.50743e-14 127.726 -1.75684)
(0 127.712 -1.78944)
(0 127.712 -1.78944)
(6.84439e-15 127.697 -1.82261)
(-1.58776e-14 127.697 -1.82261)
(-1.26043e-15 127.68 -1.85636)
(0 127.68 -1.85636)
(-3.2569e-15 127.66 -1.8907)
(-1.30276e-14 127.66 -1.8907)
(-3.38325e-15 127.637 -1.92562)
(-3.06924e-14 127.637 -1.92562)
(4.80299e-17 127.61 -1.96112)
(-3.55997e-15 127.61 -1.96112)
(-3.64301e-15 127.579 -1.99721)
(0 127.579 -1.99721)
(-3.77651e-15 127.544 -2.03389)
(-3.02121e-14 127.544 -2.03389)
(7.82493e-15 127.503 -2.07115)
(0 127.503 -2.07115)
(4.05093e-15 127.456 -2.10898)
(-1.62037e-14 127.456 -2.10898)
(8.38388e-15 127.402 -2.14737)
(1.67678e-14 127.402 -2.14737)
(1.07077e-14 127.34 -2.18631)
(-1.73422e-14 127.34 -2.18631)
(-8.96354e-15 127.268 -2.22579)
(-1.79271e-14 127.268 -2.22579)
(9.26133e-15 127.187 -2.26578)
(1.85227e-14 127.187 -2.26578)
(0 127.093 -2.30626)
(0 127.093 -2.30626)
(-4.93661e-15 126.986 -2.3472)
(-4.54106e-14 126.986 -2.3472)
(5.09374e-15 126.864 -2.38856)
(-2.0375e-14 126.864 -2.38856)
(5.25369e-15 126.724 -2.4303)
(0 126.724 -2.4303)
(0 126.566 -2.47238)
(-4.33319e-14 126.566 -2.47238)
(5.58216e-15 126.387 -2.51474)
(0 126.387 -2.51474)
(6.10647e-15 126.184 -2.5573)
(5.39504e-15 126.184 -2.5573)
(0 125.954 -2.60002)
(-3.42814e-14 125.954 -2.60002)
(-4.3015e-15 125.696 -2.64279)
(0 125.696 -2.64279)
(1.64819e-14 125.405 -2.68553)
(-3.53045e-14 125.405 -2.68553)
(1.00207e-14 125.08 -2.72816)
(-3.58392e-14 125.08 -2.72816)
(0 124.716 -2.77055)
(-2.65522e-14 124.716 -2.77055)
(6.82446e-15 124.311 -2.81259)
(0 124.311 -2.81259)
(0 123.861 -2.85415)
(-9.47981e-15 123.861 -2.85415)
(2.58184e-14 123.362 -2.89512)
(-9.30609e-15 123.362 -2.89512)
(7.40152e-15 122.812 -2.93534)
(0 122.812 -2.93534)
(0 122.206 -2.97466)
(-3.0399e-14 122.206 -2.97466)
(0 121.543 -3.01295)
(0 121.543 -3.01295)
(8.00476e-15 120.818 -3.05005)
(-3.2019e-14 120.818 -3.05005)
(0 120.029 -3.08579)
(-3.28458e-14 120.029 -3.08579)
(0 119.174 -3.12004)
(8.32865e-15 119.174 -3.12004)
(-8.63278e-15 118.251 -3.15264)
(6.90622e-14 118.251 -3.15264)
(0 117.258 -3.18345)
(8.02621e-15 117.258 -3.18345)
(9.06415e-15 116.194 -3.21233)
(-3.62566e-14 116.194 -3.21233)
(9.28333e-15 115.059 -3.23916)
(-3.71333e-14 115.059 -3.23916)
(1.5186e-14 113.852 -3.26382)
(-6.08513e-14 113.852 -3.26382)
(-9.72803e-15 112.575 -3.28622)
(0 112.575 -3.28622)
(0 111.229 -3.30628)
(1.46346e-14 111.229 -3.30628)
(0 109.816 -3.32393)
(4.0721e-14 109.816 -3.32393)
(3.69435e-15 108.338 -3.33914)
(-1.6654e-13 108.338 -3.33914)
(2.12774e-14 106.799 -3.35186)
(-4.25548e-14 106.799 -3.35186)
(-1.08699e-14 105.202 -3.36211)
(0 105.202 -3.36211)
(2.23986e-15 103.552 -3.36989)
(-5.77503e-14 103.552 -3.36989)
(-2.26703e-14 101.853 -3.37523)
(-5.84382e-14 101.853 -3.37523)
(1.28848e-15 100.11 -3.37818)
(-1.05409e-13 100.11 -3.37818)
(2.36066e-14 98.3277 -3.37882)
(-4.72132e-14 98.3277 -3.37882)
(1.2038e-14 96.5123 -3.37721)
(4.81519e-14 96.5123 -3.37721)
(0 94.6687 -3.37345)
(4.90913e-14 94.6687 -3.37345)
(5.67108e-16 92.8025 -3.36764)
(-7.39121e-14 92.8025 -3.36764)
(-3.72067e-14 90.9189 -3.35989)
(5.09699e-14 90.9189 -3.35989)
(1.29769e-14 89.0233 -3.35032)
(0 89.0233 -3.35032)
(-1.91484e-15 87.1208 -3.33905)
(0 87.1208 -3.33905)
(0 85.2162 -3.32621)
(0 85.2162 -3.32621)
(1.36772e-14 83.3142 -3.31191)
(5.47089e-14 83.3142 -3.31191)
(4.27458e-14 81.4191 -3.29629)
(-5.56368e-14 81.4191 -3.29629)
(0 79.5348 -3.27947)
(-2.09813e-14 79.5348 -3.27947)
(3.49671e-14 77.6652 -3.26157)
(3.68845e-14 77.6652 -3.26157)
(0 75.8135 -3.2427)
(0 75.8135 -3.2427)
(0 73.9828 -3.22298)
(-1.18616e-13 73.9828 -3.22298)
(0 72.1759 -3.20252)
(0 72.1759 -3.20252)
(1.52786e-14 70.395 -3.18141)
(-6.11145e-14 70.395 -3.18141)
(1.55024e-14 68.6422 -3.15976)
(0 68.6422 -3.15976)
(3.41581e-14 66.9194 -3.13765)
(1.25798e-13 66.9194 -3.13765)
(3.40412e-14 65.228 -3.11517)
(-1.80957e-14 65.228 -3.11517)
(1.61649e-14 63.5693 -3.09239)
(-6.46594e-14 63.5693 -3.09239)
(1.63826e-14 61.9442 -3.06939)
(4.8092e-14 61.9442 -3.06939)
(1.7119e-14 60.3537 -3.04623)
(0 60.3537 -3.04623)
(-1.68134e-14 58.7981 -3.02298)
(-6.72537e-14 58.7981 -3.02298)
(0 57.278 -2.99969)
(-1.64973e-14 57.278 -2.99969)
(1.6195e-14 55.7935 -2.9764)
(-1.6195e-14 55.7935 -2.9764)
(1.58983e-14 54.3448 -2.95317)
(0 54.3448 -2.95317)
(3.12139e-14 52.9318 -2.93003)
(-7.06227e-14 52.9318 -2.93003)
(-3.06419e-14 51.5543 -2.90702)
(0 51.5543 -2.90702)
(3.00804e-14 50.212 -2.88418)
(-3.00804e-14 50.212 -2.88418)
(1.82703e-14 48.9047 -2.86153)
(0 48.9047 -2.86153)
(-1.8472e-14 47.6318 -2.8391)
(0 47.6318 -2.8391)
(-1.86721e-14 46.3929 -2.8169)
(0 46.3929 -2.8169)
(1.88706e-14 45.1874 -2.79496)
(0 45.1874 -2.79496)
(0 44.0147 -2.7733)
(0 44.0147 -2.7733)
(-3.85259e-14 42.8742 -2.75193)
(-1.54104e-13 42.8742 -2.75193)
(0 41.7653 -2.73086)
(0 41.7653 -2.73086)
(1.96492e-14 40.6871 -2.7101)
(0 40.6871 -2.7101)
(-2.54679e-14 39.6391 -2.68966)
(7.93603e-14 39.6391 -2.68966)
(0 38.6205 -2.66955)
(-8.0118e-14 38.6205 -2.66955)
(0 37.6306 -2.64977)
(-1.05413e-13 37.6306 -2.64977)
(3.68931e-15 36.6685 -2.63032)
(-1.0571e-13 36.6685 -2.63032)
(0 35.7337 -2.61121)
(5.8705e-14 35.7337 -2.61121)
(2.0773e-14 34.8254 -2.59244)
(0 34.8254 -2.59244)
(4.19109e-14 33.9428 -2.57401)
(8.38219e-14 33.9428 -2.57401)
(-2.11366e-14 33.0853 -2.55592)
(6.2171e-14 33.0853 -2.55592)
(0 32.252 -2.53817)
(-2.19653e-14 32.252 -2.53817)
(2.14949e-14 31.4424 -2.52075)
(0 31.4424 -2.52075)
(5.04569e-16 30.6557 -2.50366)
(1.07857e-13 30.6557 -2.50366)
(2.18483e-14 29.8913 -2.48691)
(6.66133e-14 29.8913 -2.48691)
(6.28211e-14 29.1484 -2.47048)
(-4.0798e-14 29.1484 -2.47048)
(2.00252e-14 28.4265 -2.45438)
(-8.87871e-14 28.4265 -2.45438)
(4.20275e-14 27.7249 -2.43859)
(-3.93164e-14 27.7249 -2.43859)
(-3.24264e-15 27.0429 -2.42312)
(-3.8596e-14 27.0429 -2.42312)
(3.78887e-14 26.3801 -2.40796)
(-3.78887e-14 26.3801 -2.40796)
(4.28281e-15 25.7358 -2.3931)
(0 25.7358 -2.3931)
(4.60962e-14 25.1094 -2.37854)
(3.65128e-14 25.1094 -2.37854)
(0 24.5003 -2.36428)
(0 24.5003 -2.36428)
(2.33811e-14 23.9082 -2.3503)
(1.87049e-13 23.9082 -2.3503)
(0 23.3323 -2.33661)
(0 23.3323 -2.33661)
(-5.76193e-14 22.7722 -2.32319)
(0 22.7722 -2.32319)
(-2.38731e-14 22.2275 -2.31004)
(0 22.2275 -2.31004)
(0 21.6976 -2.29716)
(3.26778e-14 21.6976 -2.29716)
(2.41964e-14 21.182 -2.28453)
(0 21.182 -2.28453)
(0 20.6804 -2.27216)
(3.14912e-14 20.6804 -2.27216)
(4.90319e-14 20.1923 -2.26003)
(-9.80637e-14 20.1923 -2.26003)
(4.93488e-14 19.7172 -2.24815)
(-9.86976e-14 19.7172 -2.24815)
(4.95947e-15 19.2549 -2.2365)
(-2.97984e-13 19.2549 -2.2365)
(4.25677e-15 18.8047 -2.22507)
(-2.92456e-14 18.8047 -2.22507)
(2.87097e-14 18.3665 -2.21387)
(7.18693e-14 18.3665 -2.21387)
(-2.81836e-14 17.9398 -2.20288)
(0 17.9398 -2.20288)
(-2.988e-14 17.5243 -2.1921)
(5.53342e-14 17.5243 -2.1921)
(-2.56078e-14 17.1195 -2.18152)
(-1.29591e-13 17.1195 -2.18152)
(5.33248e-14 16.7253 -2.17114)
(-5.33248e-14 16.7253 -2.17114)
(5.20865e-14 16.3412 -2.16095)
(1.03651e-13 16.3412 -2.16095)
(5.21281e-14 15.9669 -2.15094)
(-1.04256e-13 15.9669 -2.15094)
(0 15.6022 -2.14111)
(-1.55305e-13 15.6022 -2.14111)
(2.63646e-14 15.2468 -2.13145)
(0 15.2468 -2.13145)
(-4.86148e-14 14.9003 -2.12196)
(-1.06055e-13 14.9003 -2.12196)
(0 14.5625 -2.11263)
(-2.3716e-13 14.5625 -2.11263)
(-2.34247e-14 14.2332 -2.10345)
(-2.34247e-14 14.2332 -2.10345)
(5.39148e-14 13.912 -2.09441)
(1.0783e-13 13.912 -2.09441)
(4.9678e-14 13.5987 -2.08552)
(-2.25741e-14 13.5987 -2.08552)
(0 13.2931 -2.07675)
(1.09e-13 13.2931 -2.07675)
(2.73952e-14 12.995 -2.06812)
(-1.09581e-13 12.995 -2.06812)
(4.27114e-14 12.7041 -2.0596)
(-1.52871e-13 12.7041 -2.0596)
(0 12.4202 -2.0512)
(0 12.4202 -2.0512)
(2.78274e-14 12.143 -2.04291)
(-1.1131e-13 12.143 -2.04291)
(5.59406e-14 11.8725 -2.03472)
(-1.11881e-13 11.8725 -2.03472)
(6.77784e-14 11.6084 -2.02662)
(7.27848e-14 11.6084 -2.02662)
(1.75699e-14 11.3505 -2.01861)
(7.40786e-14 11.3505 -2.01861)
(2.83955e-14 11.0986 -2.01068)
(0 11.0986 -2.01068)
(8.98871e-15 10.8525 -2.00282)
(-3.75249e-14 10.8525 -2.00282)
(2.86762e-14 10.6121 -1.99503)
(-1.14705e-13 10.6121 -1.99503)
(2.88157e-14 10.3772 -1.9873)
(7.91006e-14 10.3772 -1.9873)
(9.34089e-14 10.1476 -1.97962)
(-3.54995e-14 10.1476 -1.97962)
(0 9.92321 -1.97199)
(1.16372e-13 9.92321 -1.97199)
(-2.9231e-14 9.70382 -1.96439)
(-1.51134e-13 9.70382 -1.96439)
(1.25904e-13 9.48929 -1.95682)
(-1.8464e-13 9.48929 -1.95682)
(-2.95052e-14 9.27948 -1.94927)
(-2.36041e-13 9.27948 -1.94927)
(2.96415e-14 9.07425 -1.94173)
(-1.83294e-13 9.07425 -1.94173)
(-3.17709e-14 8.87346 -1.9342)
(8.73381e-14 8.87346 -1.9342)
(2.86363e-14 8.67698 -1.92666)
(1.1965e-13 8.67698 -1.92666)
(6.06645e-14 8.48468 -1.9191)
(-1.50806e-13 8.48468 -1.9191)
(1.25307e-16 8.29643 -1.91153)
(0 8.29643 -1.91153)
(0 8.11211 -1.90392)
(-1.21261e-13 8.11211 -1.90392)
(2.89647e-14 7.93161 -1.89626)
(-1.50758e-13 7.93161 -1.89626)
(0 7.75479 -1.88856)
(-1.22324e-13 7.75479 -1.88856)
(0 7.58155 -1.88078)
(0 7.58155 -1.88078)
(3.08447e-14 7.41179 -1.87294)
(-5.48028e-14 7.41179 -1.87294)
(3.09758e-14 7.24538 -1.865)
(1.23903e-13 7.24538 -1.865)
(3.11063e-14 7.08223 -1.85697)
(0 7.08223 -1.85697)
(0 6.92224 -1.84883)
(1.24945e-13 6.92224 -1.84883)
(0 6.76529 -1.84056)
(-2.54475e-14 6.76529 -1.84056)
(4.99623e-14 6.6113 -1.83215)
(-1.75941e-13 6.6113 -1.83215)
(-4.90467e-14 6.46016 -1.82359)
(0 6.46016 -1.82359)
(-3.17507e-14 6.31179 -1.81486)
(0 6.31179 -1.81486)
(-3.18778e-14 6.16608 -1.80594)
(-1.27511e-13 6.16608 -1.80594)
(-3.20044e-14 6.02296 -1.79683)
(-1.28018e-13 6.02296 -1.79683)
(0 5.88231 -1.78749)
(0 5.88231 -1.78749)
(4.47146e-14 5.74407 -1.77792)
(-2.58046e-13 5.74407 -1.77792)
(0 5.60814 -1.76809)
(-1.73417e-13 5.60814 -1.76809)
(0 5.47443 -1.75799)
(0 5.47443 -1.75799)
(4.23012e-14 5.34286 -1.74759)
(-1.72813e-13 5.34286 -1.74759)
(-3.27507e-14 5.21335 -1.73686)
(0 5.21335 -1.73686)
(6.57456e-14 5.0858 -1.72579)
(9.0726e-14 5.0858 -1.72579)
(6.59883e-14 4.96014 -1.71434)
(0 4.96014 -1.71434)
(1.05514e-13 4.83628 -1.70249)
(-1.71744e-13 4.83628 -1.70249)
(7.17995e-14 4.71415 -1.69022)
(-3.85649e-14 4.71415 -1.69022)
(-3.33536e-14 4.59364 -1.67748)
(-3.78582e-14 4.59364 -1.67748)
(0 4.47469 -1.66424)
(1.33887e-13 4.47469 -1.66424)
(-3.35892e-14 4.35721 -1.65047)
(9.78735e-14 4.35721 -1.65047)
(0 4.2411 -1.63613)
(-1.34823e-13 4.2411 -1.63613)
(3.51586e-14 4.12629 -1.62118)
(-1.70444e-13 4.12629 -1.62118)
(-1.02965e-13 4.01268 -1.60557)
(-1.35744e-13 4.01268 -1.60557)
(6.80994e-14 3.90019 -1.58926)
(-1.36199e-13 3.90019 -1.58926)
(3.41623e-14 3.78872 -1.57219)
(0 3.78872 -1.57219)
(-3.26515e-14 3.67818 -1.5543)
(1.04444e-13 3.67818 -1.5543)
(0 3.56846 -1.53554)
(0 3.56846 -1.53554)
(0 3.45948 -1.51584)
(-2.00906e-13 3.45948 -1.51584)
(0 3.35111 -1.49512)
(-3.08892e-14 3.35111 -1.49512)
(4.3853e-15 3.24326 -1.47332)
(1.08511e-13 3.24326 -1.47332)
(3.48139e-14 3.13581 -1.45034)
(-2.78511e-13 3.13581 -1.45034)
(0 3.02863 -1.42609)
(0 3.02863 -1.42609)
(6.33387e-15 2.9216 -1.40046)
(-2.86865e-14 2.9216 -1.40046)
(3.51214e-14 2.81459 -1.37336)
(-1.40485e-13 2.81459 -1.37336)
(-9.05103e-14 2.70744 -1.34466)
(1.40883e-13 2.70744 -1.34466)
(7.06363e-14 2.60001 -1.31421)
(1.41273e-13 2.60001 -1.31421)
(1.75458e-14 2.49213 -1.28188)
(0 2.49213 -1.28188)
(3.55076e-14 2.38363 -1.24751)
(-5.23055e-14 2.38363 -1.24751)
(3.55992e-14 2.27433 -1.21092)
(-5.13471e-14 2.27433 -1.21092)
(-1.47175e-14 2.16402 -1.17191)
(-1.42755e-13 2.16402 -1.17191)
(3.57757e-14 2.0525 -1.13027)
(1.43103e-13 2.0525 -1.13027)
(0 1.93954 -1.08578)
(-1.92017e-13 1.93954 -1.08578)
(3.59423e-14 1.82491 -1.03818)
(-1.91455e-13 1.82491 -1.03818)
(3.60214e-14 1.70837 -0.987198)
(0 1.70837 -0.987198)
(4.59539e-14 1.58965 -0.932549)
(1.4439e-13 1.58965 -0.932549)
(0 1.4685 -0.873925)
(-2.89363e-13 1.4685 -0.873925)
(0 1.34465 -0.811002)
(-1.44959e-13 1.34465 -0.811002)
(3.63054e-14 1.21786 -0.743447)
(-1.45221e-13 1.21786 -0.743447)
(3.6367e-14 1.08789 -0.670925)
(1.02791e-13 1.08789 -0.670925)
(3.64244e-14 0.954523 -0.593105)
(-2.91395e-13 0.954523 -0.593105)
(7.29542e-14 0.817602 -0.509674)
(-1.45908e-13 0.817602 -0.509674)
(0 0.67701 -0.420345)
(0 0.67701 -0.420345)
(-3.65673e-14 0.532702 -0.324875)
(1.06635e-13 0.532702 -0.324875)
(0 0.384713 -0.223072)
(-1.46416e-13 0.384713 -0.223072)
(-3.66344e-14 0.233164 -0.114803)
(1.08343e-13 0.233164 -0.114803)
(3.66583e-14 2.09017e-06 -7.73628e-07)
(1.46868e-13 8.09348e-07 -2.99562e-07)
(3.6717e-14 -2.0254e-06 7.49655e-07)
(1.84128e-13 -1.29646e-06 4.79855e-07)
(0 -0.233163 0.114803)
(2.93076e-13 -0.233163 0.114803)
(2.30359e-15 -0.384712 0.223071)
(-3.89075e-14 -0.384712 0.223071)
(0 -0.532701 0.324875)
(1.46269e-13 -0.532701 0.324875)
(0 -0.677009 0.420345)
(2.92199e-13 -0.677009 0.420345)
(-3.64771e-14 -0.817601 0.509673)
(-1.45908e-13 -0.817601 0.509673)
(0 -0.954522 0.593104)
(0 -0.954522 0.593104)
(-3.6367e-14 -1.08789 0.670924)
(-1.45468e-13 -1.08789 0.670924)
(0 -1.21786 0.743446)
(0 -1.21786 0.743446)
(3.62397e-14 -1.34465 0.811001)
(0 -1.34465 0.811001)
(0 -1.46849 0.873925)
(1.44681e-13 -1.46849 0.873925)
(4.59539e-14 -1.58965 0.932549)
(1.4439e-13 -1.58965 0.932549)
(0 -1.70837 0.987197)
(0 -1.70837 0.987197)
(-3.59423e-14 -1.82491 1.03818)
(-1.43769e-13 -1.82491 1.03818)
(7.17207e-14 -1.93954 1.08578)
(-4.85757e-14 -1.93954 1.08578)
(0 -2.0525 1.13027)
(0 -2.0525 1.13027)
(7.13773e-14 -2.16402 1.17191)