/*--------------------------------*- C++ -*----------------------------------*\
| =========                 |                                                 |
| \\      /  F ield         | OpenFOAM: The Open Source CFD Toolbox           |
|  \\    /   O peration     | Version:  2106                                  |
|   \\  /    A nd           | Website:  www.openfoam.com                      |
|    \\/     M anipulation  |                                                 |
\*---------------------------------------------------------------------------*/
FoamFile
{
    version     2.0;
    format      ascii;
    arch        "LSB;label=32;scalar=64";
    class       volTensorField;
    location    "10060";
    object      grad(U);
}
// * * * * * * * * * * * * * * * * * * * * * * * * * * * * * * * * * * * * * //

dimensions      [0 0 -1 0 0 0 0];

internalField   nonuniform List<tensor> 
2000
(
(0 -2.17343e-26 8.89258e-32 13.0011 -8.01878e-12 -7.82359e-14 0.0240625 -7.42029e-15 -8.09332e-17)
(0 -4.87821e-30 -8.89258e-32 13.0011 -7.3737e-16 -4.95567e-18 0.0240625 -1.28275e-18 1.60749e-17)
(0 -5.60519e-45 2.94522e-31 12.9986 0 -8.21175e-15 0.0726276 -3.15544e-30 -3.09613e-17)
(0 -2.23478e-29 -2.49418e-31 12.9986 -7.07796e-16 -2.66374e-18 0.0726276 -1.39635e-18 2.58926e-17)
(1.08224e-17 2.81661e-30 -4.7807e-32 12.9961 4.77683e-13 -3.06873e-15 0.100752 -3.41614e-15 -1.60456e-17)
(-1.37837e-17 6.26809e-30 1.22424e-31 12.9961 -1.21422e-15 3.87201e-18 0.100752 -3.91131e-18 2.68569e-17)
(-9.69418e-18 -4.67059e-31 -2.3311e-32 12.9936 5.99969e-13 -2.68514e-15 0.102612 -3.92722e-15 -2.60689e-17)
(3.87767e-17 9.22985e-30 1.2018e-31 12.9936 -1.13857e-15 2.97955e-18 0.102612 -6.04931e-18 2.78427e-17)
(0 1.2081e-29 1.41574e-31 12.9909 1.84979e-13 -3.79929e-15 0.104506 -5.47647e-15 -3.45776e-17)
(0 -9.06071e-30 -4.71912e-32 12.9909 -1.21199e-15 2.10647e-18 0.104506 -8.39702e-18 2.88509e-17)
(0 -4.12158e-27 1.85306e-31 12.9882 -5.42385e-14 -4.55012e-15 0.106434 -2.20201e-16 -3.93581e-17)
(-9.41415e-17 -1.18596e-29 -1.85306e-31 12.9882 -1.27338e-15 1.26508e-18 0.106434 -1.08018e-17 2.9879e-17)
(5.12031e-17 -3.82929e-28 -1.36433e-31 12.9855 -1.04459e-14 -4.94752e-15 0.108397 -4.32008e-17 -4.25159e-17)
(1.22593e-16 8.73169e-30 1.8191e-31 12.9855 -1.30165e-15 2.56457e-18 0.108397 -1.32922e-17 3.093e-17)
(0 -8.94704e-30 4.46442e-32 12.9826 -3.07816e-15 -5.1971e-15 0.110396 -1.29678e-17 -4.50863e-17)
(3.03139e-16 5.71445e-30 4.46442e-32 12.9826 -1.3268e-15 4.1817e-18 0.110396 -1.57972e-17 3.20122e-17)
(-4.52703e-17 -6.56274e-30 2.80148e-32 12.9797 -7.32997e-16 -5.38377e-15 0.112431 -3.14565e-18 -4.73522e-17)
(0 8.41461e-30 8.76522e-32 12.9797 -1.36216e-15 2.88357e-18 0.112431 -1.8446e-17 3.31205e-17)
(0 -1.17382e-59 -8.6046e-32 12.9767 0 -5.53675e-15 0.114503 0 -4.94852e-17)
(0 2.75347e-30 1.29069e-31 12.9767 -1.35031e-15 8.69935e-19 0.114503 -2.13654e-17 3.42442e-17)
(9.51039e-17 -2.70301e-29 -3.37877e-31 12.9736 1.03635e-15 -5.67375e-15 0.116613 -5.40162e-18 -5.15998e-17)
(0 2.70301e-29 2.95642e-31 12.9736 -1.35201e-15 1.78643e-18 0.116613 -2.4325e-17 3.53844e-17)
(6.82303e-17 7.55054e-30 5.08634e-32 12.9705 1.69673e-15 -5.80473e-15 0.11876 -1.31301e-17 -5.37488e-17)
(2.72921e-16 -7.96045e-30 0 12.9705 -1.4111e-15 4.18488e-18 0.11876 -2.73678e-17 3.6551e-17)
(0 -5.20972e-30 0 12.9673 2.02654e-15 -5.93482e-15 0.120947 -1.76998e-17 -5.59711e-17)
(0 5.20972e-30 0 12.9673 -1.47356e-15 4.96754e-18 0.120947 -3.08017e-17 3.77406e-17)
(-1.74222e-16 2.60757e-29 3.94666e-31 12.964 2.20657e-15 -6.06644e-15 0.123173 -1.9778e-17 -5.82755e-17)
(0 -2.0457e-29 -3.19641e-31 12.964 -1.48121e-15 4.21734e-18 0.123173 -3.43301e-17 3.8945e-17)
(-1.80806e-16 1.81224e-29 1.54339e-31 12.9606 2.2448e-15 -6.20014e-15 0.125439 -2.17883e-17 -6.06686e-17)
(-1.76644e-16 -7.5308e-30 0 12.9606 -1.44736e-15 2.20518e-18 0.125439 -3.7396e-17 4.01679e-17)
(2.74275e-16 -1.04531e-29 -2.69362e-31 12.9571 2.17509e-15 -6.33663e-15 0.127746 -2.12633e-17 -6.31632e-17)
(-5.76876e-16 4.92853e-30 1.54017e-31 12.9571 -1.47641e-15 1.51663e-19 0.127746 -4.0454e-17 4.14098e-17)
(0 -9.67644e-30 -7.55972e-32 12.9536 2.25285e-15 -6.47597e-15 0.130095 -2.12346e-17 -6.57538e-17)
(0 9.67644e-30 7.55972e-32 12.9536 -1.53543e-15 3.37118e-18 0.130095 -4.42262e-17 4.26599e-17)
(4.03312e-16 -2.51159e-29 -5.29028e-31 12.95 2.40984e-15 -6.61784e-15 0.132486 -2.36267e-17 -6.84466e-17)
(4.72403e-16 1.89982e-29 4.45271e-31 12.95 -1.61146e-15 6.19845e-18 0.132486 -4.81327e-17 4.39543e-17)
(-1.26956e-16 3.05796e-30 1.1661e-31 12.9463 2.52685e-15 -6.76214e-15 0.13492 -2.52473e-17 -7.12398e-17)
(-1.64048e-16 0 0 12.9463 -1.76437e-15 2.80338e-18 0.13492 -5.23468e-17 4.52592e-17)
(1.35974e-16 -1.22112e-29 -1.88748e-31 12.9425 2.54808e-15 -6.90928e-15 0.137397 -2.69562e-17 -7.41502e-17)
(5.43897e-16 1.37313e-29 2.86068e-31 12.9425 -1.74081e-15 5.36813e-18 0.137397 -5.72143e-17 4.65725e-17)
(-1.45158e-16 7.54968e-30 1.17956e-31 12.9386 2.48068e-15 -7.05959e-15 0.139919 -2.66494e-17 -7.71756e-17)
(1.16126e-15 -4.49321e-30 -7.02065e-32 12.9386 -1.59862e-15 1.02903e-17 0.139919 -6.13181e-17 4.79401e-17)
(0 8.82175e-30 2.7568e-31 12.9346 2.47055e-15 -7.21222e-15 0.142486 -2.65141e-17 -8.03077e-17)
(6.18043e-16 -4.41088e-30 -1.3784e-31 12.9346 -1.66327e-15 6.99448e-18 0.142486 -6.50647e-17 4.93261e-17)
(3.047e-16 -4.33005e-30 -1.35314e-31 12.9304 2.50848e-15 -7.36801e-15 0.1451 -2.74305e-17 -8.35807e-17)
(3.5144e-16 4.33005e-30 2.02971e-31 12.9304 -1.76591e-15 7.03128e-18 0.1451 -6.96481e-17 5.07102e-17)
(0 4.2507e-30 1.32834e-31 12.9262 2.54187e-15 -9.4981e-15 0.147759 -2.83646e-17 -1.3204e-16)
(6.94937e-16 0 0 12.9262 -1.90378e-15 7.88482e-18 0.147759 -7.46629e-17 5.21278e-17)
(-1.83611e-16 3.05328e-30 -7.98397e-32 12.9219 2.67167e-15 -1.20586e-14 0.150466 -2.92276e-17 -1.4637e-16)
(0 4.17281e-30 2.60801e-31 12.9219 -2.02633e-15 6.92912e-18 0.150466 -8.04265e-17 5.3554e-17)
(0 -1.63854e-29 -6.40054e-31 12.9174 2.82912e-15 -1.27226e-14 0.153221 -3.24568e-17 -1.52771e-16)
(7.74679e-16 1.63854e-29 6.40054e-31 12.9174 -1.95041e-15 9.85436e-18 0.153221 -8.69718e-17 5.50132e-17)
(7.90599e-17 -4.99167e-30 -6.68756e-32 12.9129 2.84215e-15 -1.30429e-14 0.156025 -3.40647e-17 -1.59626e-16)
(0 8.04256e-30 1.25665e-31 12.9129 -2.00324e-15 8.86529e-18 0.156025 -9.28996e-17 5.64968e-17)
(-2.14343e-16 -8.97582e-31 6.31965e-32 12.9081 3.03249e-15 -1.33695e-14 0.158879 -3.39949e-17 -1.6657e-16)
(0 7.89518e-30 1.23362e-31 12.9081 -2.13505e-15 8.64026e-18 0.158879 -9.92112e-17 5.80012e-17)
(-2.72697e-16 3.87525e-30 2.42203e-31 12.9032 3.44541e-15 -1.36955e-14 0.161782 -4.00347e-17 -1.73818e-16)
(0 0 -1.21102e-31 12.9032 -2.26689e-15 1.02792e-17 0.161782 -1.05933e-16 5.95487e-17)
(-5.0348e-16 2.58715e-29 9.04814e-31 12.8982 3.61454e-15 -1.40173e-14 0.164736 -4.56323e-17 -1.81067e-16)
(-9.43121e-16 -1.90212e-29 -7.13295e-31 12.8982 -2.23583e-15 1.03741e-17 0.164736 -1.13798e-16 6.11062e-17)
(2.46794e-16 6.89667e-31 -1.94342e-31 12.8929 3.39319e-15 -1.43454e-14 0.167742 -4.58645e-17 -1.88908e-16)
(9.87176e-16 -3.73453e-30 1.16704e-31 12.8929 -1.98287e-15 1.12746e-17 0.167742 -1.20706e-16 6.26826e-17)
(0 3.66609e-30 1.14565e-31 12.8875 3.18057e-15 -1.46827e-14 0.170799 -4.15908e-17 -1.96834e-16)
(-2.57978e-16 0 0 12.8875 -2.14988e-15 1.34377e-17 0.170799 -1.27068e-16 6.42644e-17)
(-2.69429e-16 6.64223e-30 5.38242e-31 12.8818 3.24543e-15 -1.50156e-14 0.17391 -4.1956e-17 -2.05016e-16)
(0 -3.59891e-30 -4.49864e-31 12.8818 -2.45012e-15 1.63529e-17 0.17391 -1.35629e-16 6.58443e-17)
(-2.81058e-16 -4.91221e-31 -2.371e-31 12.8759 3.33578e-15 -1.53459e-14 0.177073 -4.49097e-17 -2.13337e-16)
(0 7.06593e-30 5.52026e-31 12.8759 -2.42616e-15 1.54078e-17 0.177073 -1.45262e-16 6.74323e-17)
(0 -2.08093e-29 -8.67056e-31 12.8697 3.60601e-15 -1.56902e-14 0.180289 -4.60226e-17 -2.2239e-16)
(1.17159e-15 2.08093e-29 8.67056e-31 12.8697 -2.56415e-15 1.2264e-17 0.180289 -1.54366e-16 6.89957e-17)
(0 1.0214e-29 2.12792e-31 12.8632 3.98195e-15 -1.60451e-14 0.183559 -5.4175e-17 -2.31509e-16)
(0 -6.80934e-30 0 12.8632 -2.89269e-15 2.05826e-17 0.183559 -1.65217e-16 7.05501e-17)
(3.1723e-16 3.64907e-30 9.61581e-32 12.8563 3.9506e-15 -1.63826e-14 0.186883 -5.8489e-17 -2.40585e-16)
(1.26892e-15 -6.68456e-30 -2.08893e-31 12.8563 -2.74891e-15 3.25031e-17 0.186883 -1.7747e-16 7.21748e-17)
(-3.29729e-16 -1.33708e-29 -7.00828e-31 12.8491 3.59975e-15 -1.67268e-14 0.190261 -5.53048e-17 -2.50428e-16)
(1.31892e-15 1.64052e-29 8.20259e-31 12.8491 -2.25405e-15 2.15743e-17 0.190261 -1.8663e-16 7.38147e-17)
(5.64151e-16 -1.95127e-29 -8.80128e-31 12.8414 3.41979e-15 -1.70895e-14 0.193693 -5.02995e-17 -2.60596e-16)
(-9.06606e-16 2.25464e-29 1.00653e-30 12.8414 -1.99829e-15 6.56973e-18 0.193693 -1.95457e-16 7.53243e-17)
(0 1.58094e-29 9.8809e-31 12.8332 3.49389e-15 -1.74366e-14 0.197179 -5.19584e-17 -2.70535e-16)
(1.42164e-15 -1.58094e-29 -9.8809e-31 12.8332 -2.01129e-15 1.78478e-17 0.197179 -2.03182e-16 7.67275e-17)
(-7.37204e-16 1.5373e-29 1.05873e-30 12.8244 3.70123e-15 -1.77691e-14 0.200718 -5.44727e-17 -2.80825e-16)
(1.47441e-15 -3.10395e-30 -5.8199e-31 12.8244 -2.30473e-15 2.35555e-17 0.200718 -2.09706e-16 7.81603e-17)
(4.28837e-16 -3.04707e-30 -5.71326e-31 12.8151 4.00671e-15 -1.81237e-14 0.204309 -6.04085e-17 -2.92043e-16)
(0 3.04707e-30 5.71326e-31 12.8151 -2.67282e-15 1.47553e-17 0.204309 -2.21236e-16 7.9436e-17)
(4.20979e-16 -2.99123e-30 -5.60856e-31 12.8049 4.07124e-15 -1.38871e-14 0.207953 -6.62697e-17 -1.53745e-16)
(-4.20979e-16 2.99123e-30 5.60856e-31 12.8049 -3.07201e-15 9.52092e-18 0.207953 -2.33367e-16 8.0629e-17)
(-8.22884e-16 5.96076e-30 9.18779e-31 12.794 4.31544e-15 -9.02417e-15 0.211646 -6.47815e-17 -1.42084e-16)
(-1.63848e-15 0 -5.50579e-31 12.794 -3.22259e-15 1.2678e-17 0.211646 -2.47658e-16 8.16807e-17)
(4.23786e-16 8.50958e-30 1.71481e-31 12.7822 4.92866e-15 -8.57564e-15 0.215389 -7.68501e-17 -1.44415e-16)
(1.69514e-15 -5.76522e-30 0 12.7822 -3.21151e-15 1.8358e-17 0.215389 -2.6012e-16 8.27323e-17)
(-3.58309e-16 1.39616e-29 1.22185e-30 12.7693 4.99121e-15 -8.56113e-15 0.219179 -8.78989e-17 -1.4694e-16)
(-9.56308e-16 -1.69787e-29 -1.41489e-30 12.7693 -3.49631e-15 1.99391e-17 0.219179 -2.72637e-16 8.36841e-17)
(-6.19227e-17 -5.31788e-30 1.97406e-31 12.7552 4.66208e-15 -8.53257e-15 0.223014 -8.18942e-17 -1.48858e-16)
(1.81153e-15 8.3338e-30 0 12.7552 -3.39943e-15 2.7927e-17 0.223014 -2.91537e-16 8.46766e-17)
(0 -1.36351e-29 -1.02264e-30 12.7398 4.75035e-15 -8.50119e-15 0.22689 -7.96955e-17 -1.51358e-16)
(3.74255e-15 1.36351e-29 1.36351e-30 12.7398 -3.36865e-15 5.4743e-17 0.22689 -3.08378e-16 8.56914e-17)
(1.23654e-15 -2.7104e-29 -2.214e-30 12.723 4.9103e-15 -8.46693e-15 0.230805 -8.81263e-17 -1.53223e-16)
(1.17855e-15 1.87394e-29 1.67316e-30 12.723 -3.72268e-15 5.52336e-17 0.230805 -3.24178e-16 8.6864e-17)
(-4.98486e-16 1.08925e-29 1.19631e-30 12.7045 5.27363e-15 -8.39859e-15 0.234755 -8.85059e-17 -1.54535e-16)
(-1.99395e-15 -5.256e-30 -3.285e-31 12.7045 -3.7811e-15 1.38521e-17 0.234755 -3.40863e-16 8.78776e-17)
(7.26161e-16 -1.28992e-29 -9.67441e-31 12.6841 6.01674e-15 -8.31526e-15 0.238734 -1.04885e-16 -1.55857e-16)
(-7.26161e-16 1.28992e-29 9.67441e-31 12.6841 -3.65915e-15 2.12768e-17 0.238734 -3.56483e-16 8.87378e-17)
(-1.24309e-15 2.32585e-29 1.48639e-30 12.6616 6.14722e-15 -8.24149e-15 0.242738 -1.19838e-16 -1.57527e-16)
(0 -1.26628e-29 -6.33142e-31 12.6616 -3.47166e-15 4.90729e-17 0.242738 -3.69416e-16 8.98639e-17)
(6.99792e-16 -4.97232e-30 -6.2154e-31 12.6368 5.41738e-15 -8.15445e-15 0.246761 -1.13844e-16 -1.58327e-16)
(-6.99792e-16 4.97232e-30 9.3231e-31 12.6368 -3.29446e-15 2.69326e-17 0.246761 -3.8811e-16 9.09517e-17)
(0 1.46436e-29 1.2203e-30 12.6094 4.89528e-15 -8.03942e-15 0.250795 -9.58205e-17 -1.58882e-16)
(-2.25232e-15 -1.95248e-29 -1.52538e-30 12.6094 -3.21488e-15 5.1567e-19 0.250795 -4.08145e-16 9.1738e-17)
(-9.44566e-17 1.61741e-29 1.26287e-30 12.5792 5.08875e-15 -7.91912e-15 0.254832 -9.73422e-17 -1.59413e-16)
(0 -9.58351e-30 -5.98969e-31 12.5792 -3.13592e-15 -2.65148e-18 0.254832 -4.24739e-16 9.23648e-17)
(-5.97046e-16 -1.7153e-30 -3.48514e-31 12.5458 4.99763e-15 -7.78122e-15 0.258865 -1.0728e-16 -1.5917e-16)
(0 9.4079e-30 1.17599e-30 12.5458 -3.23076e-15 2.0479e-17 0.258865 -4.45751e-16 9.28042e-17)
(-5.79011e-16 -1.71136e-29 -1.24291e-30 12.5089 5.11667e-15 -7.6275e-15 0.262883 -9.72449e-17 -1.58949e-16)
(2.4578e-15 1.38533e-29 1.15444e-30 12.5089 -3.51764e-15 5.99923e-17 0.262883 -4.65191e-16 9.33299e-17)
(-6.32138e-16 2.9816e-30 2.49241e-31 12.4682 5.84336e-15 -7.47569e-15 0.266875 -1.16333e-16 -1.58658e-16)
(0 0 0 12.4682 -4.1053e-15 5.41393e-17 0.266875 -4.84968e-16 9.40289e-17)
(-1.30021e-15 1.93021e-29 2.45537e-30 12.4234 6.41271e-15 -7.30081e-15 0.27083 -1.32071e-16 -1.57299e-16)
(-2.60043e-15 -1.33502e-29 -1.9469e-30 12.4234 -4.62873e-15 1.41968e-17 0.27083 -5.12018e-16 9.43603e-17)
(6.68358e-16 1.01354e-29 8.32831e-31 12.374 7.0804e-15 -7.08608e-15 0.274735 -1.45588e-16 -1.55082e-16)
(-2.67343e-15 -1.74741e-29 -1.36516e-30 12.374 -4.7165e-15 -1.1716e-17 0.274735 -5.42204e-16 9.44018e-17)
(-6.03548e-16 8.57693e-30 1.34015e-30 12.3198 7.29932e-15 -6.86323e-15 0.278577 -1.66759e-16 -1.53124e-16)
(-1.2071e-15 -4.28847e-30 -5.36058e-31 12.3198 -4.08152e-15 1.84929e-17 0.278577 -5.72095e-16 9.40616e-17)
(-1.41139e-15 -1.0922e-29 -1.0403e-30 12.2603 6.9611e-15 -6.63489e-15 0.282341 -1.60997e-16 -1.50382e-16)
(5.64557e-15 1.26296e-29 1.05247e-30 12.2603 -3.31392e-15 7.94835e-17 0.282341 -5.95895e-16 9.39254e-17)
(-7.24778e-16 1.12204e-29 1.56547e-30 12.1952 6.67441e-15 -6.40258e-15 0.286012 -1.57426e-16 -1.47968e-16)
(2.89911e-15 -8.26547e-30 -1.29148e-30 12.1952 -4.03159e-15 7.55278e-17 0.286012 -6.16444e-16 9.35664e-17)
(0 -4.057e-30 -1.52138e-30 12.1241 6.6092e-15 -6.15294e-15 0.289574 -1.53579e-16 -1.44087e-16)
(0 4.057e-30 1.52138e-30 12.1241 -4.36473e-15 1.26558e-17 0.289574 -6.37847e-16 9.28658e-17)
(-1.88477e-15 1.09116e-29 2.83507e-31 12.0467 7.3293e-15 -5.89991e-15 0.293011 -1.60233e-16 -1.41193e-16)
(3.05498e-15 0 4.97833e-31 12.0467 -3.98491e-15 6.19147e-18 0.293011 -6.59215e-16 9.17052e-17)
(0 7.81936e-30 9.7742e-31 11.9626 8.07582e-15 -5.67047e-15 0.296306 -1.94513e-16 -1.38109e-16)
(0 -3.90968e-30 -4.8871e-31 11.9626 -4.47318e-15 3.08579e-17 0.296306 -6.83652e-16 9.08733e-17)
(-8.03746e-16 1.44434e-29 1.73186e-30 11.8716 8.34987e-15 -5.41423e-15 0.299442 -2.03388e-16 -1.33536e-16)
(-1.08031e-15 -7.67607e-30 -9.59509e-31 11.8716 -4.85003e-15 1.09618e-17 0.299442 -7.15452e-16 8.98918e-17)
(0 7.53541e-30 4.70963e-31 11.7734 7.95518e-15 -5.14558e-15 0.302404 -2.15723e-16 -1.29452e-16)
(0 -3.76771e-30 0 11.7734 -4.75059e-15 2.39814e-17 0.302404 -7.51652e-16 8.86846e-17)
(0 -1.47947e-29 -1.84933e-30 11.6678 6.79191e-15 -4.80259e-15 0.305175 -1.90689e-16 -1.20541e-16)
(3.37885e-15 1.47947e-29 1.84933e-30 11.6678 -4.61487e-15 4.19977e-17 0.305175 -7.86337e-16 8.82309e-17)
(-1.022e-15 2.17853e-29 3.17703e-30 11.5546 6.3704e-15 -4.38376e-15 0.307739 -1.62714e-16 -1.11907e-16)
(1.022e-15 -2.17853e-29 -3.17703e-30 11.5546 -4.64749e-15 5.23466e-17 0.307739 -8.19989e-16 8.7701e-17)
(-8.8656e-16 -6.51768e-31 -1.34617e-31 11.4337 6.23497e-15 -3.96489e-15 0.310083 -1.75308e-16 -1.02239e-16)
(3.54624e-15 3.56435e-30 8.91088e-31 11.4337 -3.96258e-15 9.49897e-17 0.310083 -8.56634e-16 8.69013e-17)
(0 -1.39961e-29 -2.1869e-30 11.3052 6.4103e-15 -3.49634e-15 0.312194 -1.61459e-16 -9.00932e-17)
(3.63113e-15 1.39961e-29 2.1869e-30 11.3052 -4.50392e-15 3.65608e-17 0.312194 -8.84657e-16 8.61613e-17)
(-9.29187e-16 1.66422e-29 2.46576e-30 11.169 7.06327e-15 -3.06599e-15 0.31406 -1.91654e-16 -8.17371e-17)
(-3.71675e-15 -1.37397e-29 -2.14682e-30 11.169 -5.69802e-15 -5.73471e-17 0.31406 -9.2587e-16 8.40752e-17)
(9.49126e-16 -6.74395e-30 -1.68599e-30 11.0252 7.15225e-15 -2.67214e-15 0.315671 -2.04496e-16 -7.07828e-17)
(-3.80302e-15 6.74395e-30 1.68599e-30 11.0252 -5.35853e-15 -1.60325e-17 0.315671 -9.69908e-16 8.16701e-17)
(-1.94494e-15 9.0921e-30 6.51e-31 10.8741 7.50677e-15 -2.28551e-15 0.31702 -2.04006e-16 -6.21123e-17)
(3.88989e-15 -3.31018e-30 0 10.8741 -5.33714e-15 4.65882e-17 0.31702 -1.00985e-15 8.02149e-17)
(-1.98864e-15 2.51107e-30 6.56102e-31 10.7159 8.36635e-15 -1.96378e-15 0.318102 -2.33021e-16 -5.42039e-17)
(0 3.24953e-30 0 10.7159 -5.92738e-15 9.17306e-18 0.318102 -1.05659e-15 7.91813e-17)
(0 -1.27599e-29 -1.19624e-30 10.551 8.37009e-15 -1.64655e-15 0.318913 -2.63114e-16 -4.51213e-17)
(4.06512e-15 1.27599e-29 1.19624e-30 10.551 -5.93228e-15 -1.28004e-17 0.318913 -1.09657e-15 7.73906e-17)
(-2.80123e-15 2.47871e-29 2.28986e-30 10.3796 7.21761e-15 -1.30064e-15 0.319453 -2.4203e-16 -3.47743e-17)
(-4.15334e-15 -1.87891e-29 -1.56576e-30 10.3796 -4.3368e-15 4.85984e-17 0.319453 -1.15075e-15 7.61892e-17)
(1.06046e-15 -9.01609e-30 -1.48815e-30 10.2024 6.53806e-15 -8.64712e-16 0.319721 -2.01488e-16 -1.9256e-17)
(0 6.14828e-30 1.1528e-30 10.2024 -3.26791e-15 4.84164e-17 0.319721 -1.19478e-15 7.59208e-17)
(1.08265e-15 -1.49327e-29 -7.19924e-31 10.0197 6.88237e-15 -4.04496e-16 0.319724 -2.08179e-16 -6.45362e-18)
(-4.33059e-15 1.20712e-29 3.77226e-31 10.0197 -4.43046e-15 -1.72613e-17 0.319724 -1.21281e-15 7.47453e-17)
(-3.87748e-15 1.45907e-29 1.20862e-44 9.83217 7.58256e-15 4.22138e-29 0.319465 -2.31259e-16 3.9443e-31)
(0 -5.92501e-30 -1.11094e-30 9.83217 -5.02575e-15 -3.75923e-17 0.319465 -1.25777e-15 7.28193e-17)
(0 8.72466e-30 -5.59504e-31 9.64039 8.32108e-15 1.26106e-16 0.318953 -2.61968e-16 -2.08779e-18)
(0 -1.16329e-29 -1.81764e-30 9.64039 -4.71049e-15 2.93824e-17 0.318953 -1.29398e-15 7.1476e-17)
(-4.57837e-16 2.88094e-30 -3.34373e-31 9.44497 8.61268e-15 5.37087e-16 0.318197 -2.89337e-16 -1.16546e-17)
(-9.19476e-15 -5.70985e-30 0 9.44497 -4.8705e-15 7.31107e-17 0.318197 -1.33068e-15 7.16949e-17)
(2.74929e-15 -1.12281e-29 -1.73256e-30 9.24654 8.53593e-15 9.2184e-16 0.317208 -2.91694e-16 -2.46978e-17)
(-1.57773e-15 8.40784e-30 1.40131e-30 9.24654 -5.18968e-15 1.6543e-17 0.317208 -1.38332e-15 7.17283e-17)
(0 -1.65075e-29 -1.37563e-30 9.04573 9.07873e-15 1.2434e-15 0.315999 -2.94917e-16 -3.87804e-17)
(4.77496e-15 1.65075e-29 1.37563e-30 9.04573 -5.65591e-15 -3.27339e-17 0.315999 -1.43787e-15 7.0694e-17)
(1.21586e-15 -8.19552e-30 -1.33701e-30 8.84318 8.77929e-15 1.44607e-15 0.314583 -3.41038e-16 -4.83485e-17)
(4.86345e-15 5.40168e-30 1.01281e-30 8.84318 -6.29672e-15 -2.80674e-17 0.314583 -1.48766e-15 6.9524e-17)
(5.09321e-16 -1.29765e-29 -2.00927e-30 8.63951 6.18964e-15 1.66206e-15 0.312974 -2.84478e-16 -5.48283e-17)
(-1.49258e-15 1.32567e-29 1.98851e-30 8.63951 -6.36054e-15 -2.59128e-17 0.312974 -1.55523e-15 6.88784e-17)
(-1.05454e-15 -1.0012e-29 -1.31813e-30 8.43533 4.64023e-15 1.9112e-15 0.311187 -1.64022e-16 -6.60065e-17)
(5.03952e-15 1.30138e-29 1.62673e-30 8.43533 -4.10529e-15 -2.62987e-17 0.311187 -1.60897e-15 6.91085e-17)
(1.28174e-15 -2.32356e-29 -1.59029e-30 8.2312 5.53122e-15 2.12107e-15 0.309237 -1.79477e-16 -7.55021e-17)
(1.02539e-14 2.04405e-29 1.27753e-30 8.2312 -2.86913e-15 -2.37905e-17 0.309237 -1.62375e-15 7.0133e-17)
(1.08525e-16 -2.23488e-30 3.0835e-31 8.02768 5.98029e-15 2.25665e-15 0.30714 -2.3799e-16 -8.44601e-17)
(-1.41202e-15 7.52474e-30 3.13531e-31 8.02768 -4.42103e-15 -3.75773e-17 0.30714 -1.66104e-15 7.09742e-17)
(-2.65023e-15 3.09583e-30 6.09016e-31 7.82528 5.92735e-15 2.33992e-15 0.304911 -2.21044e-16 -8.88547e-17)
(5.30045e-15 2.46228e-30 0 7.82528 -4.60589e-15 -4.60381e-17 0.304911 -1.72628e-15 7.22769e-17)
(-1.3466e-15 -2.06415e-30 -3.04053e-31 7.62445 6.95596e-15 2.41512e-15 0.302563 -2.42778e-16 -9.42171e-17)
(5.38639e-15 4.83433e-30 9.06436e-31 7.62445 -4.7874e-15 -3.25834e-17 0.302563 -1.76963e-15 7.33829e-17)
(-1.33581e-15 1.18643e-29 8.89826e-31 7.42563 7.59287e-15 2.44534e-15 0.300113 -3.12096e-16 -9.82508e-17)
(0 -4.74574e-30 0 7.42563 -5.5166e-15 4.49896e-19 0.300113 -1.84803e-15 7.49069e-17)
(1.38911e-15 -7.40502e-30 -1.16537e-30 7.22922 7.08496e-15 2.52408e-15 0.297573 -3.04103e-16 -1.00243e-16)
(5.55643e-15 4.65877e-30 8.7352e-31 7.22922 -4.84984e-15 -1.79335e-17 0.297573 -1.93771e-15 7.57717e-17)
(1.41012e-15 -7.31531e-30 -1.71581e-30 7.03554 6.48364e-15 2.61787e-15 0.294957 -2.8147e-16 -1.08524e-16)
(5.64048e-15 4.5734e-30 1.42919e-30 7.03554 -4.39886e-15 -5.57396e-17 0.294957 -1.97757e-15 7.59009e-17)
(-1.43096e-15 2.73686e-30 2.81939e-31 6.8449 6.98307e-15 2.62751e-15 0.292278 -2.64444e-16 -1.11994e-16)
(5.72383e-15 4.4896e-30 2.806e-31 6.8449 -5.21069e-15 -9.96726e-17 0.292278 -2.02243e-15 7.57944e-17)
(2.69217e-15 -1.15318e-29 -8.28355e-31 6.65757 7.58376e-15 2.5344e-15 0.289547 -3.35325e-16 -1.13448e-16)
(-1.24055e-15 8.81465e-30 5.50916e-31 6.65757 -5.89454e-15 -1.63698e-16 0.289547 -2.11382e-15 7.48589e-17)
(-1.47209e-15 1.56886e-29 1.6262e-30 6.47377 6.71979e-15 2.34679e-15 0.286775 -3.27398e-16 -1.08e-16)
(3.45274e-15 -8.65313e-30 -8.11231e-31 6.47377 -4.91533e-15 -1.24669e-16 0.286775 -2.18496e-15 7.52238e-17)
(1.49238e-15 -1.12037e-29 -5.36858e-31 6.29369 6.08754e-15 2.23893e-15 0.283973 -2.70324e-16 -1.00864e-16)
(0 8.49456e-30 2.65455e-31 6.29369 -3.43582e-15 -8.2214e-17 0.283973 -2.23647e-15 7.88138e-17)
(-1.51248e-15 1.52075e-29 1.83089e-30 6.11747 6.28599e-15 2.18806e-15 0.28115 -2.81861e-16 -1.02197e-16)
(6.04991e-15 -8.3389e-30 -1.04236e-30 6.11747 -2.21983e-15 -1.1863e-16 0.28115 -2.30831e-15 8.20558e-17)
(-7.718e-16 1.40329e-30 7.59542e-31 5.94524 6.25463e-15 2.05957e-15 0.278314 -2.99016e-16 -9.99215e-17)
(6.12952e-15 0 -5.11631e-31 5.94524 -1.02479e-15 -8.98277e-17 0.278314 -2.34036e-15 8.50734e-17)
(0 8.03609e-30 1.50677e-30 5.77708 6.13971e-15 2.00596e-15 0.275474 -2.89504e-16 -9.38428e-17)
(6.20835e-15 -4.01804e-30 -1.00451e-30 5.77708 -2.42152e-15 -2.75059e-17 0.275474 -2.34779e-15 8.90441e-17)
(0 3.94441e-30 4.93052e-31 5.61307 6.71496e-15 2.03966e-15 0.272636 -2.99163e-16 -9.85e-17)
(-6.28638e-15 0 0 5.61307 -3.86166e-15 -6.294e-17 0.272636 -2.40906e-15 9.41674e-17)
(-2.17982e-15 1.54885e-29 1.93607e-30 5.45324 7.09557e-15 1.999e-15 0.269806 -3.57112e-16 -1.007e-16)
(8.54344e-15 -1.54885e-29 -1.93607e-30 5.45324 -3.64426e-15 -1.15572e-16 0.269806 -2.4433e-15 1.00501e-16)
(-1.61002e-15 -1.25564e-29 -2.12726e-30 5.29761 6.80033e-15 1.9167e-15 0.266991 -3.48652e-16 -9.81295e-17)
(0 1.52047e-29 2.85088e-30 5.29761 -4.08385e-15 -8.55778e-17 0.266991 -2.49222e-15 1.06755e-16)
(-1.62893e-15 2.64126e-30 7.11389e-31 5.14617 6.41823e-15 1.80382e-15 0.264196 -3.40371e-16 -9.60771e-17)
(6.51573e-15 3.73152e-30 0 5.14617 -3.13169e-15 8.68657e-17 0.264196 -2.58015e-15 1.14652e-16)
(2.06217e-15 -1.09894e-29 -9.15786e-31 4.99892 5.91495e-15 1.76933e-15 0.261424 -3.2198e-16 -9.00668e-17)
(0 1.09894e-29 1.37368e-30 4.99892 -3.5915e-15 2.74446e-16 0.261424 -2.63638e-15 1.27105e-16)
(0 3.59602e-30 8.99004e-31 4.85582 6.48609e-15 1.73824e-15 0.25868 -2.99782e-16 -9.60366e-17)
(0 0 0 4.85582 -4.23087e-15 2.38865e-16 0.25868 -2.7125e-15 1.39098e-16)
(3.67178e-15 -2.37909e-29 -2.44135e-30 4.71683 7.55313e-15 1.64568e-15 0.255967 -3.95861e-16 -9.0099e-17)
(4.7507e-15 1.76506e-29 1.76506e-30 4.71683 -2.80909e-15 -8.92601e-18 0.255967 -2.72972e-15 1.49608e-16)
(-2.48237e-16 4.33497e-30 1.06715e-30 4.58188 7.31321e-15 1.50204e-15 0.253288 -4.28595e-16 -8.94621e-17)
(6.81052e-15 0 -4.33179e-31 4.58188 -3.36517e-15 -1.52112e-16 0.253288 -2.74715e-15 1.57095e-16)
(0 0 0 4.45092 6.53476e-15 1.21938e-15 0.250646 -3.83861e-16 -7.73796e-17)
(6.88229e-15 3.40193e-30 4.25241e-31 4.45092 -5.024e-15 -1.80421e-16 0.250646 -2.8294e-15 1.66738e-16)
(-3.47665e-15 5.15486e-30 4.66415e-31 4.32387 5.99677e-15 7.90166e-16 0.248042 -3.55783e-16 -6.05301e-17)
(6.9533e-15 0 0 4.32387 -4.6191e-15 -1.21792e-16 0.248042 -2.92795e-15 1.76317e-16)
(1.75589e-15 -1.2401e-29 -2.28618e-30 4.20066 4.96816e-15 3.80386e-16 0.245479 -3.35694e-16 -3.03278e-17)
(7.02357e-15 9.83518e-30 2.049e-30 4.20066 -3.66441e-15 1.56974e-16 0.245479 -2.99714e-15 1.93065e-16)
(0 9.65496e-30 2.01145e-30 4.08119 3.91861e-15 2.71809e-16 0.242957 -2.47208e-16 -1.42156e-17)
(-7.0931e-15 -9.65496e-30 -2.01145e-30 4.08119 -3.37394e-15 4.07558e-16 0.242957 -3.05688e-15 2.1725e-16)
(-3.55711e-15 6.31869e-30 0 3.96539 3.83275e-15 3.36065e-16 0.240478 -2.21555e-16 -1.83542e-17)
(0 -6.31869e-30 0 3.96539 -2.61085e-15 2.02714e-16 0.240478 -3.10705e-15 2.45421e-16)
(-3.615e-15 1.751e-29 2.41929e-30 3.85316 4.13996e-15 3.46166e-16 0.238044 -2.45958e-16 -2.26585e-17)
(0 -1.24058e-29 -1.93841e-30 3.85316 -2.34845e-15 2.33756e-17 0.238044 -3.15105e-15 2.65413e-16)
(-3.53832e-15 8.62707e-30 1.38359e-30 3.7444 4.75934e-15 3.77802e-16 0.235653 -2.68414e-16 -2.0312e-17)
(0 -3.04462e-30 -7.61154e-31 3.7444 -1.76005e-15 2.68023e-16 0.235653 -3.18959e-15 2.89995e-16)
(-3.36512e-15 2.09218e-29 2.24162e-30 3.63904 5.6027e-15 4.85809e-16 0.233307 -3.34317e-16 -2.75521e-17)
(-7.36412e-15 -1.49441e-29 -1.86802e-30 3.63904 -4.59113e-15 2.89564e-16 0.233307 -3.23637e-15 3.16861e-16)
(2.06335e-15 -2.06892e-30 -1.16667e-31 3.53696 5.98621e-15 6.49621e-16 0.231007 -3.88231e-16 -3.51267e-17)
(0 -2.93406e-30 -3.66757e-31 3.53696 -4.56724e-15 8.24381e-17 0.231007 -3.37699e-15 3.39486e-16)
(2.1263e-15 3.6737e-30 1.31929e-30 3.43807 5.78925e-15 7.01639e-16 0.228751 -3.97732e-16 -5.02965e-17)
(7.49552e-15 -1.15212e-29 -2.16022e-30 3.43807 -1.93563e-15 -1.2916e-17 0.228751 -3.41104e-15 3.59628e-16)
(-1.89006e-15 2.46616e-30 5.95063e-31 3.34229 5.96137e-15 5.75754e-16 0.226541 -3.76276e-16 -4.34718e-17)
(7.56024e-15 0 0 3.34229 -3.42993e-15 2.49308e-17 0.226541 -3.50772e-15 3.77076e-16)
(3.81216e-15 -2.10154e-30 -1.37988e-31 3.24951 6.02762e-15 3.84256e-16 0.224376 -4.36385e-16 -3.48827e-17)
(0 -2.7757e-30 -3.46962e-31 3.24951 -4.22825e-15 1.77887e-16 0.224376 -3.57824e-15 3.91244e-16)
(4.98983e-15 -2.4309e-30 -5.86643e-31 3.15964 4.19411e-15 3.48668e-16 0.222256 -3.99734e-16 -1.82874e-17)
(7.68777e-15 2.72483e-30 3.40604e-31 3.15964 -4.66767e-15 1.52077e-16 0.222256 -3.64153e-15 4.14335e-16)
(-1.93765e-15 1.04774e-29 1.24928e-30 3.0726 3.36937e-15 5.6249e-16 0.22018 -1.91223e-16 -3.11194e-17)
(0 -2.6749e-30 -6.68725e-31 3.0726 -8.40148e-16 -5.26974e-17 0.22018 -3.76039e-15 4.36391e-16)
(0 -2.62588e-30 -6.56471e-31 2.98828 4.12947e-15 7.79061e-16 0.218147 -2.94926e-16 -5.00543e-17)
(1.56257e-14 7.87765e-30 9.84707e-31 2.98828 5.01817e-16 -1.3149e-16 0.218147 -3.73117e-15 4.48934e-16)
(-4.87093e-15 -7.8919e-30 -1.37042e-30 2.90661 3.35517e-15 9.13113e-16 0.216158 -3.10966e-16 -6.43568e-17)
(0 1.28888e-29 1.6111e-30 2.90661 -2.81535e-15 -6.42317e-17 0.216158 -3.79328e-15 4.56289e-16)
(0 -7.59159e-30 -1.58158e-30 2.8275 3.57111e-15 1.07394e-15 0.214212 -1.8926e-16 -7.21584e-17)
(1.58712e-14 1.26526e-29 1.58158e-30 2.8275 -3.87539e-15 1.45531e-17 0.214212 -3.90239e-15 4.6283e-16)
(-4.79594e-15 1.48174e-29 1.47514e-30 2.75085 4.35195e-15 9.03556e-16 0.212308 -3.5586e-16 -9.14906e-17)
(2.79691e-15 -1.24208e-29 -1.24208e-30 2.75085 -5.91145e-15 1.70391e-16 0.212308 -3.93491e-15 4.65706e-16)
(2.74566e-15 -4.87727e-30 -9.14489e-31 2.67659 3.37158e-15 8.22454e-16 0.210446 -3.18596e-16 -4.82117e-17)
(8.05605e-15 9.75455e-30 9.14489e-31 2.67659 -4.85602e-15 1.44382e-16 0.210446 -3.99551e-15 4.82711e-16)
(2.02887e-15 -1.67576e-29 -2.02743e-30 2.60464 3.5081e-15 1.0273e-15 0.208624 -2.12973e-16 -8.20084e-17)
(1.6231e-14 1.43637e-29 1.79546e-30 2.60464 -2.4773e-15 3.13447e-17 0.208624 -4.01728e-15 4.97815e-16)
(-2.04359e-15 2.36313e-30 2.30803e-31 2.53493 4.60461e-15 9.77539e-16 0.206842 -3.52772e-16 -8.32956e-17)
(8.17437e-15 4.70016e-30 5.8752e-31 2.53493 -3.27033e-15 6.8436e-17 0.206842 -4.07549e-15 5.16313e-16)
(-5.39284e-16 4.57551e-30 6.34621e-31 2.46736 4.68242e-15 1.06256e-15 0.205099 -4.02397e-16 -7.68668e-17)
(8.23275e-15 0 0 2.46736 -3.17619e-15 -1.33762e-16 0.205099 -4.1529e-15 5.2908e-16)
(-4.14531e-15 1.14749e-29 1.01493e-30 2.40188 4.86852e-15 1.06716e-15 0.203395 -3.79178e-16 -1.00762e-16)
(8.29062e-15 -2.26474e-30 0 2.40188 -3.11777e-15 -2.46037e-17 0.203395 -4.23977e-15 5.18048e-16)
(-2.50315e-15 -4.44648e-30 -8.33715e-31 2.33841 6.05127e-15 7.4008e-16 0.201728 -4.49507e-16 -8.05533e-17)
(1.6696e-14 8.89296e-30 1.38953e-30 2.33841 -2.75245e-15 2.27673e-16 0.201728 -4.37996e-15 5.19907e-16)
(0 4.365e-30 1.09125e-30 2.27687 6.27446e-15 3.68706e-16 0.200098 -6.00295e-16 -4.73618e-17)
(8.40489e-15 0 -5.45625e-31 2.27687 -4.05816e-15 1.2781e-16 0.200098 -4.4418e-15 5.23078e-16)
(-2.11533e-15 6.57381e-30 1.03719e-30 2.21722 4.79746e-15 3.58004e-17 0.198504 -5.06204e-16 -1.74337e-17)
(-2.41225e-15 0 -2.67813e-31 2.21722 -5.42433e-15 1.76661e-16 0.198504 -4.5791e-15 5.25933e-16)
(2.12932e-15 6.11551e-30 8.15101e-31 2.15937 3.73921e-15 -9.79142e-17 0.196945 -3.54898e-16 -6.62624e-18)
(0 -1.26195e-29 -1.31453e-30 2.15937 -3.86698e-15 1.84278e-16 0.196945 -4.68811e-15 5.34843e-16)
(0 4.12941e-30 -9.60798e-33 2.10327 3.14187e-15 6.06275e-30 0.195421 -3.29662e-16 0)
(-2.32465e-15 0 0 2.10327 -2.02422e-15 -6.53307e-17 0.195421 -4.75027e-15 5.40571e-16)
(-2.15696e-15 1.03877e-29 2.00875e-30 2.04886 3.82347e-15 2.40613e-16 0.19393 -2.55793e-16 -1.52201e-17)
(-2.28205e-15 -8.10748e-30 -1.77351e-30 2.04886 -3.14308e-15 -1.25912e-16 0.19393 -4.7715e-15 5.30218e-16)
(-2.17062e-15 6.21559e-30 9.77539e-31 1.99607 5.63519e-15 2.84797e-16 0.192471 -4.72824e-16 -3.06486e-17)
(-8.68249e-15 0 -2.48716e-31 1.99607 -4.56904e-15 -1.12517e-16 0.192471 -4.91016e-15 5.21851e-16)
(-2.18418e-15 -5.60807e-30 -9.89024e-31 1.94486 5.22926e-15 1.1012e-16 0.191044 -6.19432e-16 -2.44269e-17)
(1.74734e-14 7.81307e-30 1.46495e-30 1.94486 -2.83809e-15 2.08825e-17 0.191044 -4.95855e-15 5.07682e-16)
(2.15888e-15 -1.15048e-29 -2.36006e-31 1.89517 3.26277e-15 4.70851e-30 0.189649 -4.09845e-16 0)
(6.63162e-15 1.15048e-29 1.67779e-30 1.89517 -2.78362e-15 1.13831e-16 0.189649 -5.00187e-15 5.022e-16)
(-2.21098e-15 5.99205e-30 1.17248e-30 1.84695 2.98725e-15 3.77553e-16 0.188283 -2.44054e-16 -2.62839e-17)
(6.72458e-15 0 -2.35292e-31 1.84695 -3.24536e-15 -4.28565e-17 0.188283 -5.1594e-15 4.86204e-16)
(0 3.69569e-30 9.23922e-31 1.80014 4.39511e-15 4.58524e-16 0.186947 -3.68383e-16 -5.12059e-17)