/*--------------------------------*- C++ -*----------------------------------*\
| =========                 |                                                 |
| \\      /  F ield         | OpenFOAM: The Open Source CFD Toolbox           |
|  \\    /   O peration     | Version:  2106                                  |
|   \\  /    A nd           | Website:  www.openfoam.com                      |
|    \\/     M anipulation  |                                                 |
\*---------------------------------------------------------------------------*/
FoamFile
{
    version     2.0;
    format      ascii;
    arch        "LSB;label=32;scalar=64";
    class       volScalarField;
    location    "10060";
    object      p;
}
// * * * * * * * * * * * * * * * * * * * * * * * * * * * * * * * * * * * * * //

dimensions      [0 2 -2 0 0 0 0];

internalField   nonuniform List<scalar> 
2000
(
5.60283e-15
3.33824e-14
1.17256e-14
3.33818e-14
1.28352e-14
3.33814e-14
1.2641e-14
3.33809e-14
1.2652e-14
3.33804e-14
1.28545e-14
3.33798e-14
1.31005e-14
3.33791e-14
1.33552e-14
3.33783e-14
1.36155e-14
3.33774e-14
1.38777e-14
3.33765e-14
1.41384e-14
3.33754e-14
1.43957e-14
3.33742e-14
1.46489e-14
3.33729e-14
1.48978e-14
3.33715e-14
1.51423e-14
3.337e-14
1.53824e-14
3.33684e-14
1.56184e-14
3.33666e-14
1.58503e-14
3.33648e-14
1.60781e-14
3.33629e-14
1.63017e-14
3.3361e-14
1.65214e-14
3.3359e-14
1.67372e-14
3.33571e-14
1.69491e-14
3.3355e-14
1.71575e-14
3.3353e-14
1.73621e-14
3.33509e-14
1.7563e-14
3.33489e-14
1.77602e-14
3.33469e-14
1.79541e-14
3.33449e-14
1.81444e-14
3.3343e-14
1.83313e-14
3.3341e-14
1.85143e-14
3.33391e-14
1.86943e-14
3.3337e-14
1.88713e-14
3.3335e-14
1.9045e-14
3.33329e-14
1.92155e-14
3.33309e-14
1.93831e-14
3.3329e-14
1.95474e-14
3.33271e-14
1.97086e-14
3.33256e-14
1.9867e-14
3.33241e-14
2.00229e-14
3.3322e-14
2.01759e-14
3.33201e-14
2.03261e-14
3.33181e-14
2.04738e-14
3.3316e-14
2.06194e-14
3.33138e-14
2.0762e-14
3.33115e-14
2.09021e-14
3.33093e-14
2.10395e-14
3.33072e-14
2.11747e-14
3.3305e-14
2.13075e-14
3.33035e-14
2.14384e-14
3.33026e-14
2.15667e-14
3.33011e-14
2.16931e-14
3.32996e-14
2.18161e-14
3.32986e-14
2.19375e-14
3.32974e-14
2.20573e-14
3.32962e-14
2.21746e-14
3.32945e-14
2.22901e-14
3.32927e-14
2.2404e-14
3.32915e-14
2.25157e-14
3.32905e-14
2.26254e-14
3.32893e-14
2.27332e-14
3.32875e-14
2.28384e-14
3.32856e-14
2.2942e-14
3.32841e-14
2.3043e-14
3.32834e-14
2.31433e-14
3.32823e-14
2.32414e-14
3.32812e-14
2.33374e-14
3.32807e-14
2.34312e-14
3.32797e-14
2.35226e-14
3.32792e-14
2.3614e-14
3.32785e-14
2.3704e-14
3.32778e-14
2.37927e-14
3.32776e-14
2.38811e-14
3.32776e-14
2.39679e-14
3.32768e-14
2.40545e-14
3.32759e-14
2.41395e-14
3.32756e-14
2.42229e-14
3.32765e-14
2.43058e-14
3.32784e-14
2.43863e-14
3.32807e-14
2.44677e-14
3.32815e-14
2.45494e-14
3.3282e-14
2.46298e-14
3.3283e-14
2.47084e-14
3.32855e-14
2.47862e-14
3.32863e-14
2.48637e-14
3.32861e-14
2.49403e-14
3.32878e-14
2.50144e-14
3.32915e-14
2.50893e-14
3.32947e-14
2.5164e-14
3.32983e-14
2.52391e-14
3.33031e-14
2.53139e-14
3.33065e-14
2.53888e-14
3.33108e-14
2.54631e-14
3.33161e-14
2.55338e-14
3.33212e-14
2.56063e-14
3.33264e-14
2.56789e-14
3.3333e-14
2.57501e-14
3.33414e-14
2.58205e-14
3.33503e-14
2.58891e-14
3.33599e-14
2.59592e-14
3.33683e-14
2.60293e-14
3.33771e-14
2.60976e-14
3.3388e-14
2.6167e-14
3.33967e-14
2.6237e-14
3.34019e-14
2.63047e-14
3.34084e-14
2.63741e-14
3.34162e-14
2.64407e-14
3.34241e-14
2.65085e-14
3.34293e-14
2.65744e-14
3.34319e-14
2.66426e-14
3.34351e-14
2.67037e-14
3.34393e-14
2.67649e-14
3.34447e-14
2.6823e-14
3.34547e-14
2.68822e-14
3.34649e-14
2.69455e-14
3.34723e-14
2.70078e-14
3.34754e-14
2.7072e-14
3.34828e-14
2.71378e-14
3.34864e-14
2.72014e-14
3.34865e-14
2.72711e-14
3.34816e-14
2.73396e-14
3.3482e-14
2.74066e-14
3.34848e-14
2.74734e-14
3.3485e-14
2.75484e-14
3.34847e-14
2.76208e-14
3.34769e-14
2.76936e-14
3.34691e-14
2.777e-14
3.34615e-14
2.78499e-14
3.34542e-14
2.79218e-14
3.34476e-14
2.80036e-14
3.34382e-14
2.80877e-14
3.34337e-14
2.81737e-14
3.34305e-14
2.82538e-14
3.34178e-14
2.83388e-14
3.34107e-14
2.8417e-14
3.34057e-14
2.84954e-14
3.34067e-14
2.85736e-14
3.34028e-14
2.86549e-14
3.34018e-14
2.87428e-14
3.33961e-14
2.8833e-14
3.33861e-14
2.89133e-14
3.33638e-14
2.89952e-14
3.33529e-14
2.9082e-14
3.33497e-14
2.91733e-14
3.33385e-14
2.92729e-14
3.33233e-14
2.93645e-14
3.332e-14
2.94516e-14
3.33248e-14
2.95459e-14
3.33257e-14
2.96348e-14
3.3331e-14
2.9726e-14
3.33407e-14
2.98067e-14
3.33386e-14
2.98927e-14
3.33289e-14
2.99837e-14
3.33114e-14
3.00959e-14
3.32943e-14
3.02047e-14
3.32853e-14
3.03017e-14
3.32841e-14
3.04033e-14
3.32822e-14
3.05093e-14
3.32793e-14
3.06031e-14
3.32498e-14
3.0693e-14
3.3235e-14
3.07959e-14
3.32343e-14
3.09034e-14
3.3222e-14
3.09988e-14
3.32226e-14
3.10821e-14
3.32272e-14
3.11786e-14
3.32443e-14
3.12711e-14
3.32393e-14
3.13511e-14
3.32371e-14
3.14528e-14
3.3237e-14
3.15506e-14
3.32638e-14
3.16445e-14
3.32741e-14
3.17432e-14
3.32673e-14
3.18387e-14
3.32593e-14
3.19231e-14
3.32575e-14
3.20396e-14
3.32782e-14
3.21374e-14
3.33118e-14
3.22514e-14
3.33142e-14
3.23309e-14
3.33185e-14
3.24196e-14
3.33234e-14
3.25096e-14
3.33536e-14
3.26099e-14
3.33907e-14
3.27384e-14
3.34078e-14
3.28198e-14
3.33938e-14
3.28901e-14
3.33978e-14
3.29844e-14
3.34013e-14
3.3087e-14
3.33852e-14
3.31835e-14
3.3432e-14
3.32582e-14
3.35398e-14
3.33265e-14
3.35896e-14
3.34053e-14
3.36324e-14
3.34782e-14
3.36329e-14
3.35465e-14
3.36739e-14
3.35936e-14
3.37372e-14
3.36526e-14
3.38226e-14
3.37051e-14
3.38968e-14
3.37669e-14
3.39597e-14
3.38375e-14
3.40452e-14
3.38821e-14
3.41696e-14
3.39477e-14
3.42346e-14
3.40498e-14
3.4325e-14
3.41545e-14
3.4374e-14
3.4247e-14
3.43959e-14
3.433e-14
3.447e-14
3.442e-14
3.45124e-14
3.45353e-14
3.45524e-14
3.45961e-14
3.45849e-14
3.46522e-14
3.47396e-14
3.47474e-14
3.47735e-14
3.48364e-14
3.4797e-14
3.49053e-14
3.49192e-14
3.49834e-14
3.50286e-14
3.5068e-14
3.51254e-14
3.51248e-14
3.52102e-14
3.51817e-14
3.53013e-14
3.52981e-14
3.54036e-14
3.54099e-14
3.54528e-14
3.54892e-14
3.55678e-14
3.5626e-14
3.57814e-14
3.5781e-14
3.59155e-14
3.59268e-14
3.59715e-14
3.60087e-14
3.60974e-14
3.62042e-14
3.62027e-14
3.63087e-14
3.62473e-14
3.63907e-14
3.63117e-14
3.651e-14
3.6453e-14
3.66026e-14
3.66424e-14
3.66892e-14
3.67435e-14
3.67949e-14
3.67905e-14
3.68628e-14
3.68649e-14
3.69215e-14
3.6964e-14
3.70207e-14
3.70073e-14
3.71108e-14
3.70486e-14
3.71428e-14
3.71077e-14
3.71427e-14
3.71568e-14
3.71046e-14
3.72029e-14
3.715e-14
3.72603e-14
3.70845e-14
3.73905e-14
3.70659e-14
3.74075e-14
3.71099e-14
3.74294e-14
3.71167e-14
3.74362e-14
3.71121e-14
3.74334e-14
3.71665e-14
3.74236e-14
3.72691e-14
3.73673e-14
3.74331e-14
3.74209e-14
3.74845e-14
3.74824e-14
3.753e-14
3.74794e-14
3.75309e-14
3.75073e-14
3.75275e-14
3.75264e-14
3.76132e-14
3.75895e-14
3.76933e-14
3.76342e-14
3.76823e-14
3.77074e-14
3.08468e-14
3.1638e-14
3.08466e-14
3.16379e-14
3.08464e-14
3.16379e-14
3.08462e-14
3.16379e-14
3.0846e-14
3.16378e-14
3.08458e-14
3.16377e-14
3.08456e-14
3.16377e-14
3.08453e-14
3.16375e-14
3.08451e-14
3.16373e-14
3.08448e-14
3.16371e-14
3.08445e-14
3.16369e-14
3.08442e-14
3.16366e-14
3.08438e-14
3.16363e-14
3.08434e-14
3.16361e-14
3.08431e-14
3.16358e-14
3.08427e-14
3.16353e-14
3.08423e-14
3.16348e-14
3.08419e-14
3.16342e-14
3.08414e-14
3.16337e-14
3.08409e-14
3.16332e-14
3.08405e-14
3.16326e-14
3.08402e-14
3.1632e-14
3.08397e-14
3.16314e-14
3.08392e-14
3.16308e-14
3.08387e-14
3.163e-14
3.08382e-14
3.16293e-14
3.08377e-14
3.16288e-14
3.08371e-14
3.1628e-14
3.08365e-14
3.16272e-14
3.0836e-14
3.16265e-14
3.08355e-14
3.16259e-14
3.08351e-14
3.16251e-14
3.08346e-14
3.16244e-14
3.08342e-14
3.16238e-14
3.08338e-14
3.1623e-14
3.08334e-14
3.16223e-14
3.08331e-14
3.16217e-14
3.08326e-14
3.16215e-14
3.0832e-14
3.16212e-14
3.08314e-14
3.16206e-14
3.08309e-14
3.162e-14
3.08302e-14
3.16198e-14
3.08298e-14
3.16193e-14
3.08291e-14
3.16189e-14
3.08286e-14
3.16185e-14
3.08281e-14
3.16183e-14
3.08282e-14
3.16177e-14
3.08282e-14
3.16166e-14
3.0828e-14
3.16167e-14
3.08282e-14
3.16169e-14
3.08286e-14
3.16159e-14
3.08292e-14
3.16144e-14
3.08297e-14
3.16136e-14
3.08303e-14
3.16121e-14
3.08311e-14
3.16109e-14
3.0832e-14
3.16102e-14
3.0833e-14
3.16094e-14
3.08337e-14
3.16088e-14
3.08348e-14
3.1608e-14
3.08362e-14
3.1607e-14
3.08379e-14
3.16058e-14
3.08393e-14
3.16053e-14
3.08408e-14
3.16052e-14
3.08428e-14
3.16051e-14
3.08449e-14
3.16042e-14
3.08472e-14
3.16033e-14
3.08489e-14
3.16031e-14
3.08513e-14
3.16026e-14
3.08546e-14
3.16003e-14
3.08578e-14
3.15983e-14
3.08601e-14
3.15987e-14
3.0863e-14
3.15994e-14
3.08666e-14
3.1599e-14
3.08699e-14
3.15983e-14
3.08747e-14
3.15969e-14
3.0879e-14
3.15944e-14
3.08831e-14
3.15948e-14
3.08864e-14
3.15965e-14
3.08917e-14
3.15952e-14
3.08975e-14
3.15932e-14
3.09033e-14
3.1593e-14
3.09086e-14
3.15934e-14
3.09138e-14
3.15931e-14
3.09199e-14
3.15901e-14
3.09267e-14
3.1587e-14
3.09344e-14
3.15864e-14
3.09423e-14
3.15869e-14
3.09491e-14
3.1586e-14
3.0955e-14
3.15849e-14
3.09619e-14
3.15843e-14
3.09704e-14
3.15836e-14
3.09787e-14
3.15833e-14
3.09861e-14
3.15855e-14
3.09974e-14
3.15888e-14
3.10086e-14
3.15906e-14
3.10204e-14
3.15962e-14
3.10321e-14
3.1603e-14
3.10439e-14
3.16095e-14
3.10578e-14
3.16158e-14
3.10711e-14
3.16205e-14
3.10837e-14
3.16276e-14
3.11002e-14
3.16403e-14
3.11176e-14
3.16541e-14
3.1136e-14
3.16617e-14
3.11511e-14
3.16735e-14
3.11717e-14
3.16864e-14
3.1192e-14
3.1699e-14
3.12121e-14
3.17142e-14
3.1232e-14
3.17306e-14
3.12578e-14
3.17451e-14
3.12899e-14
3.17576e-14
3.13157e-14
3.17728e-14
3.13448e-14
3.17891e-14
3.13709e-14
3.1808e-14
3.14021e-14
3.18265e-14
3.14353e-14
3.18427e-14
3.14657e-14
3.18665e-14
3.14983e-14
3.18897e-14
3.15332e-14
3.19072e-14
3.15705e-14
3.19223e-14
3.16106e-14
3.19467e-14
3.16448e-14
3.19842e-14
3.16801e-14
3.20157e-14
3.17201e-14
3.2036e-14
3.17544e-14
3.20625e-14
3.17867e-14
3.20951e-14
3.18277e-14
3.21306e-14
3.18739e-14
3.21688e-14
3.19184e-14
3.22099e-14
3.19503e-14
3.22429e-14
3.19879e-14
3.22715e-14
3.20313e-14
3.23067e-14
3.20771e-14
3.23524e-14
3.21178e-14
3.24011e-14
3.21724e-14
3.24455e-14
3.2226e-14
3.24894e-14
3.22826e-14
3.25366e-14
3.23347e-14
3.25833e-14
3.23747e-14
3.26334e-14
3.24219e-14
3.26755e-14
3.24728e-14
3.27134e-14
3.25353e-14
3.27669e-14
3.25941e-14
3.28242e-14
3.26334e-14
3.28737e-14
3.26731e-14
3.29235e-14
3.27171e-14
3.29777e-14
3.27575e-14
3.30328e-14
3.28146e-14
3.30929e-14
3.28642e-14
3.31543e-14
3.29105e-14
3.32132e-14
3.29657e-14
3.32535e-14
3.30056e-14
3.32875e-14
3.30549e-14
3.334e-14
3.30974e-14
3.33949e-14
3.3133e-14
3.34611e-14
3.31695e-14
3.35059e-14
3.32072e-14
3.35463e-14
3.3246e-14
3.36076e-14
3.32772e-14
3.36656e-14
3.33176e-14
3.37041e-14
3.33586e-14
3.37657e-14
3.33918e-14
3.38174e-14
3.34422e-14
3.38344e-14
3.34764e-14
3.38507e-14
3.35114e-14
3.38918e-14
3.35644e-14
3.39328e-14
3.36184e-14
3.39912e-14
3.36737e-14
3.40421e-14
3.37217e-14
3.40776e-14
3.37626e-14
3.41236e-14
3.38049e-14
3.41465e-14
3.38402e-14
3.41551e-14
3.38861e-14
3.41754e-14
3.39258e-14
3.42076e-14
3.39591e-14
3.42521e-14
3.40117e-14
3.42666e-14
3.40495e-14
3.42854e-14
3.40901e-14
3.43003e-14
3.41341e-14
3.43285e-14
3.41731e-14
3.43875e-14
3.41979e-14
3.44352e-14
3.42331e-14
3.44645e-14
3.42789e-14
3.4459e-14
3.43365e-14
3.44353e-14
3.43734e-14
3.44609e-14
3.43723e-14
3.45363e-14
3.44683e-14
3.45784e-14
3.45086e-14
3.462e-14
3.45622e-14
3.46446e-14
3.46128e-14
3.4669e-14
3.46614e-14
3.46932e-14
3.46919e-14
3.47683e-14
3.47205e-14
3.48282e-14
3.47462e-14
3.49252e-14
3.47836e-14
3.4978e-14
3.48153e-14
3.50898e-14
3.48378e-14
3.51802e-14
3.49163e-14
3.52185e-14
3.49849e-14
3.52379e-14
3.50455e-14
3.52867e-14
3.51148e-14
3.53486e-14
3.5176e-14
3.53919e-14
3.52467e-14
3.54832e-14
3.53423e-14
3.55423e-14
3.54312e-14
3.55863e-14
3.54672e-14
3.57136e-14
3.54954e-14
3.5781e-14
3.5594e-14
3.58266e-14
3.56516e-14
3.5899e-14
3.57166e-14
3.60316e-14
3.58008e-14
3.61009e-14
3.5905e-14
3.61401e-14
3.59871e-14
3.61296e-14
3.60869e-14
3.61898e-14
3.61753e-14
3.63175e-14
3.62814e-14
3.64241e-14
3.64067e-14
3.64798e-14
3.64626e-14
3.65379e-14
3.65718e-14
3.65967e-14
3.67373e-14
3.67157e-14
3.68128e-14
3.68289e-14
3.68842e-14
3.69723e-14
3.70051e-14
3.70362e-14
3.71226e-14
3.71393e-14
3.7179e-14
3.72189e-14
3.7292e-14
3.72734e-14
3.74402e-14
3.73254e-14
3.74902e-14
3.74246e-14
3.75857e-14
3.74607e-14
3.76209e-14
3.74534e-14
3.76586e-14
3.75116e-14
3.76664e-14
3.75808e-14
3.7637e-14
3.76133e-14
3.76756e-14
3.76186e-14
3.76245e-14
3.76183e-14
3.7612e-14
3.76731e-14
3.76048e-14
3.77048e-14
3.75158e-14
3.76127e-14
3.75008e-14
3.75818e-14
3.75604e-14
3.7579e-14
3.75235e-14
3.75934e-14
3.75082e-14
3.7531e-14
3.75126e-14
3.757e-14
3.75396e-14
3.75838e-14
3.75628e-14
3.75658e-14
3.76149e-14
3.75323e-14
3.76443e-14
3.75862e-14
3.77021e-14
3.76844e-14
3.77241e-14
3.76871e-14
3.77087e-14
3.77381e-14
3.77119e-14
3.77833e-14
3.78648e-14
3.78764e-14
3.791e-14
3.79222e-14
3.79501e-14
3.79182e-14
3.79893e-14
3.79539e-14
3.80888e-14
3.80273e-14
3.80691e-14
3.81019e-14
3.81087e-14
3.81464e-14
3.81358e-14
3.81643e-14
3.81271e-14
3.81829e-14
3.81563e-14
3.8177e-14
3.81778e-14
3.81953e-14
3.82401e-14
3.82624e-14
3.8294e-14
3.83284e-14
3.83121e-14
3.83441e-14
3.83219e-14
3.83338e-14
3.84081e-14
3.84038e-14
3.8463e-14
3.84967e-14
3.85089e-14
3.85364e-14
3.85744e-14
3.86117e-14
3.86342e-14
3.86982e-14
3.87156e-14
3.87689e-14
3.87626e-14
3.8818e-14
3.88317e-14
3.89012e-14
3.88929e-14
3.89619e-14
3.89462e-14
3.9029e-14
3.90184e-14
3.90726e-14
3.90533e-14
3.90896e-14
3.90826e-14
3.90777e-14
3.91709e-14
3.9094e-14
3.92317e-14
3.91321e-14
3.92648e-14
3.92185e-14
3.9298e-14
3.93301e-14
3.92932e-14
3.93842e-14
3.93694e-14
3.93837e-14
3.94419e-14
3.94775e-14
3.94784e-14
3.9572e-14
3.95066e-14
3.95745e-14
3.95932e-14
3.9642e-14
3.9612e-14
3.97099e-14
3.96235e-14
3.97167e-14
3.96608e-14
3.97112e-14
3.96785e-14
3.97892e-14
3.97209e-14
3.97912e-14
3.9758e-14
3.98446e-14
3.98052e-14
3.98534e-14
3.9849e-14
3.98968e-14
3.98399e-14
3.9923e-14
3.98748e-14
3.9934e-14
3.99222e-14
3.99616e-14
3.9949e-14
3.99866e-14
3.99389e-14
4.00263e-14
3.99742e-14
4.00487e-14
4.00062e-14
4.00198e-14
4.00206e-14
3.99878e-14
4.00355e-14
4.00177e-14
4.00839e-14
4.00935e-14
4.00807e-14
4.01321e-14
4.00923e-14
4.01186e-14
4.00853e-14
4.00865e-14
4.00945e-14
4.01205e-14
4.0102e-14
4.01537e-14
4.01075e-14
4.01872e-14
4.01107e-14
4.0205e-14
4.01108e-14
4.01905e-14
4.00915e-14
4.02117e-14
4.01032e-14
4.02178e-14
4.01292e-14
4.02255e-14
4.01529e-14
4.02341e-14
4.0175e-14
4.02091e-14
4.01619e-14
4.02009e-14
4.01563e-14
4.02013e-14
4.01754e-14
4.02451e-14
4.01842e-14
4.02725e-14
4.01912e-14
4.02751e-14
4.01965e-14
4.02872e-14
4.02085e-14
4.03175e-14
4.02272e-14
4.03063e-14
4.02444e-14
4.02788e-14
4.02523e-14
4.02945e-14
4.02508e-14
4.03275e-14
4.02649e-14
4.0361e-14
4.02859e-14
4.03783e-14
4.02968e-14
4.03796e-14
4.03149e-14
4.03649e-14
4.0332e-14
4.03766e-14
4.03569e-14
4.03887e-14
4.03727e-14
4.04012e-14
4.03794e-14
4.0414e-14
4.04025e-14
4.0427e-14
4.04253e-14
4.04485e-14
4.0431e-14
4.04869e-14
4.04445e-14
4.05007e-14
4.0466e-14
4.04982e-14
4.04788e-14
4.0521e-14
4.0483e-14
4.05359e-14
4.04868e-14
4.05429e-14
4.05069e-14
4.05505e-14
4.05267e-14
4.05585e-14
4.05381e-14
4.05668e-14
4.05414e-14
4.05753e-14
4.05487e-14
4.05924e-14
4.05559e-14
4.06018e-14
4.05631e-14
4.06116e-14
4.05621e-14
4.0634e-14
4.05769e-14
4.06449e-14
4.05835e-14
4.06483e-14
4.0582e-14
4.06562e-14
4.05803e-14
4.06685e-14
4.059e-14
4.06735e-14
4.05995e-14
4.0683e-14
4.06125e-14
4.06929e-14
4.06137e-14
4.07073e-14
4.06146e-14
4.07183e-14
4.06266e-14
4.07185e-14
4.06308e-14
4.07154e-14
4.06423e-14
4.07128e-14
4.06573e-14
4.07145e-14
4.06647e-14
4.07202e-14
4.06646e-14
4.073e-14
4.06644e-14
4.07326e-14
4.0664e-14
4.07357e-14
4.06599e-14
4.07427e-14
4.06628e-14
4.07537e-14
4.06655e-14
4.07687e-14
4.06608e-14
4.07732e-14
4.06559e-14
4.07677e-14
4.06578e-14
4.07731e-14
4.06629e-14
4.07858e-14
4.06608e-14
4.07902e-14
4.06602e-14
4.07899e-14
4.06577e-14
4.079e-14
4.06599e-14
4.07938e-14
4.06619e-14
4.07913e-14
4.06604e-14
4.07859e-14
4.06586e-14
4.07841e-14
4.06583e-14
4.07859e-14
4.06562e-14
4.07912e-14
4.06587e-14
4.07887e-14
4.06578e-14
4.07866e-14
4.06536e-14
4.07879e-14
4.06508e-14
4.07925e-14
4.06494e-14
4.07943e-14
4.06478e-14
4.07963e-14
4.0643e-14
4.08001e-14
4.06411e-14
4.08011e-14
4.06419e-14
4.08023e-14
4.06382e-14
4.08038e-14
4.06314e-14
4.08084e-14
4.06259e-14
4.08132e-14
4.0626e-14
4.08169e-14
4.06202e-14
4.08179e-14
4.06142e-14
4.08191e-14
4.06109e-14
4.08206e-14
4.06082e-14
4.08229e-14
4.06073e-14
4.08262e-14
4.06048e-14
4.08291e-14
4.06035e-14
4.08274e-14
4.06048e-14
4.08239e-14
4.06045e-14
4.08227e-14
4.0604e-14
4.08217e-14
4.06034e-14
4.08209e-14
4.06027e-14
4.08196e-14
4.06024e-14
4.08191e-14
4.06026e-14
4.08176e-14
4.06028e-14
4.08168e-14
4.06034e-14
4.08149e-14
4.0602e-14
4.08151e-14
4.06011e-14
4.08161e-14
4.0602e-14
4.08172e-14
4.06027e-14
4.08178e-14
4.06015e-14
4.08179e-14
4.06014e-14
4.08182e-14
4.06009e-14
4.08185e-14
4.06007e-14
4.082e-14
4.06003e-14
4.08225e-14
4.05999e-14
4.08232e-14
4.05993e-14
4.08227e-14
4.05984e-14
4.0823e-14
4.05983e-14
4.08227e-14
4.05981e-14
4.08235e-14
4.05976e-14
4.08234e-14
4.05966e-14
4.0822e-14
4.05962e-14
4.08221e-14
4.05954e-14
4.08233e-14
4.05946e-14
4.08232e-14
4.0594e-14
4.08228e-14
4.05936e-14
4.08235e-14
4.05929e-14
4.08244e-14
4.05932e-14
4.08238e-14
4.05931e-14
4.08226e-14
4.05925e-14
4.08224e-14
4.05925e-14
4.08222e-14
4.05928e-14
4.08217e-14
4.0593e-14
4.08212e-14
4.05924e-14
4.08212e-14
4.05919e-14
4.08214e-14
4.05921e-14
4.08215e-14
4.05921e-14
4.08212e-14
4.05924e-14
4.08214e-14
4.05926e-14
4.08217e-14
4.0593e-14
4.08206e-14
4.05932e-14
4.08203e-14
4.05937e-14
4.08207e-14
4.05943e-14
4.08211e-14
4.05946e-14
4.08208e-14
4.0595e-14
4.08206e-14
4.05954e-14
4.08204e-14
4.05957e-14
4.08207e-14
4.05959e-14
4.08207e-14
4.05959e-14
4.08203e-14
4.05962e-14
4.08203e-14
4.05967e-14
4.08205e-14
4.05971e-14
4.08205e-14
4.05972e-14
4.08206e-14
4.05973e-14
4.08205e-14
4.05973e-14
4.08204e-14
4.05976e-14
4.08202e-14
4.0598e-14
4.08199e-14
4.0598e-14
4.08197e-14
4.05981e-14
4.08196e-14
4.05982e-14
4.08193e-14
4.05983e-14
4.0819e-14
4.05984e-14
4.0819e-14
4.05986e-14
4.08189e-14
4.05989e-14
4.08187e-14
4.05992e-14
4.08184e-14
4.05994e-14
4.08182e-14
4.05995e-14
4.08179e-14
4.05995e-14
4.08178e-14
4.05997e-14
4.08176e-14
4.05998e-14
4.08174e-14
4.05999e-14
4.08174e-14
4.06001e-14
4.08174e-14
4.06001e-14
4.08172e-14
4.06002e-14
4.08172e-14
4.06003e-14
4.08171e-14
4.06004e-14
4.08171e-14
4.06005e-14
4.0817e-14
4.06005e-14
4.08169e-14
4.06005e-14
4.08169e-14
4.06006e-14
4.08169e-14
4.06007e-14
4.08168e-14
4.06007e-14
4.08168e-14
4.06007e-14
4.08168e-14
4.06007e-14
4.08168e-14
4.06008e-14
4.08168e-14
4.06008e-14
4.08168e-14
4.06008e-14
4.08168e-14
4.06008e-14
4.08168e-14
3.77913e-14
3.78014e-14
3.78819e-14
3.78701e-14
3.79268e-14
3.79349e-14
3.80236e-14
3.79521e-14
3.79921e-14
3.80077e-14
3.81133e-14
3.81259e-14
3.81827e-14
3.82066e-14
3.81543e-14
3.82253e-14
3.81686e-14
3.82145e-14
3.8177e-14
3.82717e-14
3.81987e-14
3.82489e-14
3.82966e-14
3.82966e-14
3.82965e-14
3.83266e-14
3.83238e-14
3.83402e-14
3.83509e-14
3.83854e-14
3.84039e-14
3.84121e-14
3.84624e-14
3.84746e-14
3.85237e-14
3.85164e-14
3.85909e-14
3.85016e-14
3.85905e-14
3.85293e-14
3.86285e-14
3.86305e-14
3.86954e-14
3.87576e-14
3.87831e-14
3.88631e-14
3.88332e-14
3.89225e-14
3.89031e-14
3.89941e-14
3.89937e-14
3.90782e-14
3.90481e-14
3.91143e-14
3.90974e-14
3.91294e-14
3.9146e-14
3.91191e-14
3.92622e-14
3.9139e-14
3.93639e-14
3.92424e-14
3.93587e-14
3.9278e-14
3.93959e-14
3.92782e-14
3.94472e-14
3.93606e-14
3.94489e-14
3.94354e-14
3.94866e-14
3.95433e-14
3.95218e-14
3.96585e-14
3.95488e-14
3.96911e-14
3.95997e-14
3.97378e-14
3.96417e-14
3.97973e-14
3.96585e-14
3.97726e-14
3.96693e-14
3.97567e-14
3.97406e-14
3.98128e-14
3.97769e-14
3.98575e-14
3.98269e-14
3.98429e-14
3.9845e-14
3.98951e-14
3.98782e-14
4.00175e-14
3.99219e-14
4.00339e-14
3.99456e-14
4.00584e-14
4.00159e-14
4.0158e-14
4.00319e-14
4.0168e-14
4.00102e-14
4.02215e-14
3.9998e-14
4.02374e-14
4.00104e-14
4.01991e-14
4.00665e-14
4.02391e-14
4.01001e-14
4.02735e-14
4.00947e-14
4.03016e-14
4.01165e-14
4.02895e-14
4.01331e-14
4.02687e-14
4.0146e-14
4.02375e-14
4.0157e-14
4.02285e-14
4.01326e-14
4.02404e-14
4.01227e-14
4.02395e-14
4.01441e-14
4.02426e-14
4.01289e-14
4.02488e-14
4.01281e-14
4.0276e-14
4.01241e-14
4.03249e-14
4.01328e-14
4.03282e-14
4.0137e-14
4.032e-14
4.01715e-14
4.03167e-14
4.01857e-14
4.02832e-14
4.0198e-14
4.02698e-14
4.02007e-14
4.0293e-14
4.02106e-14
4.03271e-14
4.02185e-14
4.03465e-14
4.02244e-14
4.03516e-14
4.02369e-14
4.03509e-14
4.02479e-14
4.03436e-14
4.0266e-14
4.03296e-14
4.02833e-14
4.03599e-14
4.03083e-14
4.04004e-14
4.03152e-14
4.04084e-14
4.03298e-14
4.03922e-14
4.03523e-14
4.03685e-14
4.03579e-14
4.03534e-14
4.03638e-14
4.03724e-14
4.03953e-14
4.03914e-14
4.041e-14
4.04103e-14
4.04079e-14
4.04292e-14
4.04142e-14
4.04484e-14
4.04202e-14
4.04681e-14
4.04257e-14
4.04798e-14
4.04306e-14
4.0492e-14
4.04517e-14
4.04962e-14
4.04555e-14
4.05009e-14
4.04588e-14
4.05142e-14
4.04533e-14
4.05194e-14
4.0472e-14
4.05251e-14
4.04735e-14
4.05311e-14
4.04745e-14
4.05292e-14
4.0483e-14
4.05275e-14
4.04747e-14
4.05342e-14
4.04739e-14
4.05369e-14
4.04887e-14
4.05398e-14
4.04907e-14
4.05629e-14
4.05002e-14
4.05862e-14
4.05088e-14
4.05937e-14
4.05287e-14
4.05975e-14
4.05283e-14
4.06015e-14
4.05273e-14
4.06017e-14
4.05337e-14
4.0606e-14
4.05395e-14
4.06105e-14
4.05487e-14
4.06112e-14
4.05536e-14
4.06197e-14
4.05542e-14
4.06205e-14
4.05658e-14
4.06176e-14
4.05733e-14
4.06223e-14
4.05841e-14
4.0627e-14
4.05908e-14
4.06354e-14
4.06009e-14
4.06363e-14
4.06071e-14
4.06335e-14
4.0613e-14
4.06343e-14
4.06187e-14
4.06422e-14
4.06243e-14
4.06501e-14
4.06297e-14
4.06542e-14
4.06278e-14
4.06546e-14
4.06294e-14
4.06585e-14
4.06273e-14
4.06762e-14
4.06251e-14
4.06869e-14
4.06244e-14
4.0689e-14
4.0627e-14
4.06859e-14
4.06243e-14
4.06913e-14
4.06298e-14
4.06984e-14
4.06302e-14
4.07005e-14
4.06303e-14
4.07026e-14
4.06205e-14
4.0708e-14
4.06251e-14
4.07103e-14
4.06295e-14
4.07126e-14
4.06242e-14
4.07117e-14
4.06219e-14
4.07157e-14
4.06257e-14
4.07198e-14
4.06261e-14
4.07208e-14
4.06234e-14
4.07203e-14
4.0619e-14
4.07215e-14
4.0619e-14
4.07212e-14
4.06203e-14
4.07195e-14
4.06201e-14
4.07209e-14
4.06182e-14
4.07238e-14
4.06162e-14
4.07253e-14
4.0614e-14
4.07298e-14
4.06118e-14
4.07328e-14
4.0608e-14
4.07345e-14
4.06055e-14
4.07335e-14
4.06064e-14
4.07318e-14
4.06058e-14
4.0731e-14
4.06058e-14
4.07309e-14
4.06063e-14
4.07309e-14
4.06074e-14
4.07309e-14
4.0609e-14
4.07304e-14
4.06073e-14
4.07325e-14
4.06061e-14
4.07334e-14
4.06054e-14
4.07324e-14
4.0606e-14
4.0732e-14
4.06046e-14
4.07318e-14
4.06024e-14
4.07322e-14
4.06002e-14
4.07334e-14
4.06004e-14
4.07327e-14
4.05987e-14
4.07333e-14
4.05968e-14
4.07352e-14
4.05962e-14
4.07353e-14
4.05955e-14
4.07354e-14
4.05948e-14
4.07356e-14
4.05945e-14
4.07364e-14
4.05933e-14
4.07383e-14
4.05926e-14
4.07393e-14
4.05922e-14
4.07403e-14
4.05918e-14
4.07407e-14
4.05912e-14
4.07409e-14
4.05906e-14
4.07401e-14
4.05896e-14
4.07409e-14
4.05889e-14
4.07419e-14
4.05888e-14
4.07415e-14
4.05886e-14
4.07408e-14
4.05891e-14
4.07412e-14
4.05888e-14
4.0742e-14
4.05874e-14
4.07425e-14
4.05874e-14
4.0743e-14
4.05873e-14
4.07432e-14
4.05883e-14
4.07434e-14
4.05889e-14
4.07433e-14
4.05896e-14
4.07436e-14
4.05903e-14
4.07439e-14
4.05904e-14
4.07438e-14
4.05909e-14
4.07436e-14
4.05918e-14
4.07436e-14
4.05924e-14
4.07441e-14
4.0593e-14
4.07441e-14
4.05936e-14
4.0744e-14
4.05943e-14
4.07439e-14
4.05951e-14
4.07443e-14
4.0595e-14
4.07451e-14
4.05953e-14
4.07452e-14
4.0596e-14
4.07447e-14
4.05967e-14
4.07443e-14
4.05973e-14
4.0744e-14
4.05973e-14
4.07441e-14
4.05976e-14
4.07445e-14
4.05978e-14
4.07445e-14
4.05979e-14
4.07443e-14
4.05987e-14
4.07439e-14
4.05993e-14
4.07442e-14
4.05995e-14
4.07441e-14
4.05995e-14
4.07438e-14
4.05996e-14
4.07435e-14
4.05998e-14
4.07434e-14
4.06e-14
4.07434e-14
4.06001e-14
4.07434e-14
4.06006e-14
4.07432e-14
4.06009e-14
4.07429e-14
4.06008e-14
4.07426e-14
4.0601e-14
4.07424e-14
4.06012e-14
4.07423e-14
4.06015e-14
4.07423e-14
4.06018e-14
4.07422e-14
4.06016e-14
4.07423e-14
4.06016e-14
4.07422e-14
4.06016e-14
4.0742e-14
4.06017e-14
4.07419e-14
4.06017e-14
4.0742e-14
4.06015e-14
4.07421e-14
4.06015e-14
4.0742e-14
4.06015e-14
4.07421e-14
4.06014e-14
4.07422e-14
4.06014e-14
4.07421e-14
4.06015e-14
4.0742e-14
4.06016e-14
4.0742e-14
4.06016e-14
4.07421e-14
4.06017e-14
4.0742e-14
4.06017e-14
4.07419e-14
4.06017e-14
4.07418e-14
4.06017e-14
4.07418e-14
4.06017e-14
4.07418e-14
4.06017e-14
4.07417e-14
4.06017e-14
4.07417e-14
4.06017e-14
4.07417e-14
4.06016e-14
4.07417e-14
4.06016e-14
4.07417e-14
4.06016e-14
4.07417e-14
4.06016e-14
4.07417e-14
4.06016e-14
4.07417e-14
)
;

boundaryField
{
    walls
    {
        type            zeroGradient;
    }
    inlet
    {
        type            cyclic;
    }
    outlet
    {
        type            cyclic;
    }
    sides
    {
        type            empty;
    }
}


// ************************************************************************* //
