/*--------------------------------*- C++ -*----------------------------------*\
| =========                 |                                                 |
| \\      /  F ield         | OpenFOAM: The Open Source CFD Toolbox           |
|  \\    /   O peration     | Version:  2106                                  |
|   \\  /    A nd           | Website:  www.openfoam.com                      |
|    \\/     M anipulation  |                                                 |
\*---------------------------------------------------------------------------*/
FoamFile
{
    version     2.0;
    format      ascii;
    arch        "LSB;label=32;scalar=64";
    class       surfaceScalarField;
    location    "10060";
    object      phi;
}
// * * * * * * * * * * * * * * * * * * * * * * * * * * * * * * * * * * * * * //

dimensions      [0 3 -1 0 0 0 0];

oriented        oriented;

internalField   nonuniform List<scalar> 
3996
(
1.11327e-08
-5.52849e-18
-1.14129e-22
-2.58289e-22
7.43721e-24
3.4229e-08
-5.52778e-18
-2.20826e-22
-7.4834e-22
1.22118e-23
5.86145e-08
-5.52706e-18
-2.33212e-22
-1.25858e-21
1.28985e-23
8.43451e-08
-5.52627e-18
-2.54159e-22
-1.81647e-21
1.36184e-23
1.11479e-07
-5.5254e-18
-2.71744e-22
-2.42082e-21
1.43721e-23
1.40078e-07
-5.5245e-18
-2.86562e-22
-3.05333e-21
1.51607e-23
1.70203e-07
-5.52359e-18
-3.00408e-22
-3.73551e-21
1.59859e-23
2.01922e-07
-5.52261e-18
-3.14108e-22
-4.43856e-21
1.68497e-23
2.35301e-07
-5.52157e-18
-3.28e-22
-5.18974e-21
1.77538e-23
2.70413e-07
-5.52054e-18
-3.4229e-22
-5.90272e-21
1.86976e-23
3.07329e-07
-5.51954e-18
-3.57106e-22
-6.63656e-21
1.96809e-23
3.46128e-07
-5.51828e-18
-3.72526e-22
-7.4708e-21
2.07057e-23
3.86889e-07
-5.5171e-18
-3.88601e-22
-8.29974e-21
2.17726e-23
4.29694e-07
-5.51576e-18
-4.05364e-22
-9.16866e-21
2.2881e-23
4.74629e-07
-5.51429e-18
-4.22854e-22
-1.00758e-20
2.4036e-23
5.21785e-07
-5.51313e-18
-4.41102e-22
-1.08953e-20
2.52418e-23
5.71252e-07
-5.51164e-18
-4.60128e-22
-1.1896e-20
2.64913e-23
6.23129e-07
-5.51017e-18
-4.79973e-22
-1.29195e-20
2.77943e-23
6.77515e-07
-5.5085e-18
-5.00668e-22
-1.40189e-20
2.91468e-23
7.34514e-07
-5.50679e-18
-5.22255e-22
-1.52298e-20
3.05536e-23
7.94235e-07
-5.5052e-18
-5.44776e-22
-1.63239e-20
3.20216e-23
8.5679e-07
-5.5034e-18
-5.68261e-22
-1.73836e-20
3.35459e-23
9.22296e-07
-5.50183e-18
-5.9275e-22
-1.86293e-20
3.51269e-23
9.90873e-07
-5.49992e-18
-6.18275e-22
-1.99256e-20
3.67657e-23
1.06265e-06
-5.49814e-18
-6.44886e-22
-2.14355e-20
3.84694e-23
1.13775e-06
-5.49584e-18
-6.72634e-22
-2.29099e-20
4.02413e-23
1.21632e-06
-5.49384e-18
-7.0158e-22
-2.43445e-20
4.20777e-23
1.2985e-06
-5.49145e-18
-7.31757e-22
-2.6056e-20
4.39951e-23
1.38442e-06
-5.48892e-18
-7.63237e-22
-2.77816e-20
4.59922e-23
1.47425e-06
-5.48572e-18
-7.96061e-22
-2.96314e-20
4.80585e-23
1.56814e-06
-5.48319e-18
-8.30304e-22
-3.11091e-20
5.01976e-23
1.66626e-06
-5.48069e-18
-8.65992e-22
-3.28642e-20
5.24022e-23
1.76877e-06
-5.4779e-18
-9.03161e-22
-3.49389e-20
5.46589e-23
1.87585e-06
-5.47504e-18
-9.41882e-22
-3.69075e-20
5.69819e-23
1.98769e-06
-5.47214e-18
-9.82196e-22
-3.92138e-20
5.9362e-23
2.10447e-06
-5.46827e-18
-1.02417e-21
-4.17819e-20
6.18096e-23
2.22639e-06
-5.4648e-18
-1.06791e-21
-4.44415e-20
6.43296e-23
2.35365e-06
-5.46132e-18
-1.11345e-21
-4.66433e-20
6.69181e-23
2.48646e-06
-5.45848e-18
-1.16083e-21
-4.79247e-20
6.95492e-23
2.62505e-06
-5.45501e-18
-1.21005e-21
-5.01726e-20
7.21652e-23
2.76963e-06
-5.45159e-18
-1.26122e-21
-5.23092e-20
7.47867e-23
2.92045e-06
-5.44726e-18
-1.31436e-21
-5.50123e-20
7.73795e-23
3.07773e-06
-5.44361e-18
-1.36956e-21
-5.79347e-20
7.99713e-23
3.24174e-06
-5.43893e-18
-1.42682e-21
-6.13478e-20
8.25174e-23
3.41272e-06
-5.43398e-18
-1.48625e-21
-6.46592e-20
8.50714e-23
3.59095e-06
-5.42819e-18
-1.54794e-21
-6.85977e-20
8.75943e-23
3.7767e-06
-5.42367e-18
-1.61197e-21
-7.17244e-20
9.01993e-23
3.97025e-06
-5.41795e-18
-1.67829e-21
-7.60412e-20
9.28426e-23
4.17188e-06
-5.41282e-18
-1.74699e-21
-8.04614e-20
9.55117e-23
4.3819e-06
-5.40669e-18
-1.81814e-21
-8.41912e-20
9.82777e-23
4.60061e-06
-5.39994e-18
-1.89168e-21
-8.84666e-20
1.0115e-22
4.82833e-06
-5.39204e-18
-1.96765e-21
-9.2972e-20
1.04102e-22
5.06536e-06
-5.38579e-18
-2.04612e-21
-9.6699e-20
1.07077e-22
5.31204e-06
-5.38006e-18
-2.12697e-21
-1.0079e-19
1.10017e-22
5.5687e-06
-5.37308e-18
-2.21022e-21
-1.04681e-19
1.12881e-22
5.83568e-06
-5.3669e-18
-2.29598e-21
-1.08401e-19
1.1556e-22
6.11331e-06
-5.36083e-18
-2.38409e-21
-1.13664e-19
1.18116e-22
6.40193e-06
-5.35216e-18
-2.47441e-21
-1.18894e-19
1.20708e-22
6.70191e-06
-5.34392e-18
-2.5672e-21
-1.25355e-19
1.23186e-22
7.01357e-06
-5.33434e-18
-2.66226e-21
-1.31241e-19
1.25561e-22
7.33728e-06
-5.32381e-18
-2.75947e-21
-1.37418e-19
1.27591e-22
7.67337e-06
-5.31403e-18
-2.85888e-21
-1.41573e-19
1.29309e-22
8.02219e-06
-5.30376e-18
-2.96032e-21
-1.48086e-19
1.30351e-22
8.38409e-06
-5.29521e-18
-3.06362e-21
-1.54224e-19
1.31308e-22
8.75939e-06
-5.28331e-18
-3.16831e-21
-1.60253e-19
1.32229e-22
9.14843e-06
-5.27058e-18
-3.27448e-21
-1.67645e-19
1.33068e-22
9.55153e-06
-5.25808e-18
-3.38179e-21
-1.74613e-19
1.33773e-22
9.96899e-06
-5.24304e-18
-3.49028e-21
-1.83003e-19
1.34369e-22
1.04011e-05
-5.23489e-18
-3.60023e-21
-1.90241e-19
1.35608e-22
1.08482e-05
-5.22309e-18
-3.70957e-21
-1.97522e-19
1.36897e-22
1.13105e-05
-5.21232e-18
-3.81844e-21
-2.0476e-19
1.37297e-22
1.17883e-05
-5.20364e-18
-3.92666e-21
-2.10441e-19
1.37195e-22
1.22819e-05
-5.18832e-18
-4.0334e-21
-2.21143e-19
1.36655e-22
1.27914e-05
-5.17789e-18
-4.13886e-21
-2.31414e-19
1.35786e-22
1.33172e-05
-5.16311e-18
-4.24225e-21
-2.40963e-19
1.35189e-22
1.38593e-05
-5.14711e-18
-4.34352e-21
-2.52501e-19
1.35036e-22
1.44181e-05
-5.132e-18
-4.44275e-21
-2.64394e-19
1.34711e-22
1.49937e-05
-5.11659e-18
-4.53898e-21
-2.73342e-19
1.34738e-22
1.55863e-05
-5.10545e-18
-4.63311e-21
-2.7746e-19
1.35436e-22
1.61961e-05
-5.09255e-18
-4.72304e-21
-2.86277e-19
1.35434e-22
1.68232e-05
-5.07569e-18
-4.80846e-21
-2.97683e-19
1.34807e-22
1.74678e-05
-5.05889e-18
-4.89001e-21
-3.09125e-19
1.35033e-22
1.813e-05
-5.03982e-18
-4.96743e-21
-3.18104e-19
1.36472e-22
1.88101e-05
-5.0226e-18
-5.04095e-21
-3.27738e-19
1.3802e-22
1.95082e-05
-5.00356e-18
-5.10948e-21
-3.40883e-19
1.38818e-22
2.02245e-05
-4.98104e-18
-5.17392e-21
-3.55333e-19
1.39589e-22
2.0959e-05
-4.96913e-18
-5.23459e-21
-3.69091e-19
1.41059e-22
2.17121e-05
-4.95848e-18
-5.2891e-21
-3.79179e-19
1.4498e-22
2.24839e-05
-4.94652e-18
-5.33592e-21
-3.85427e-19
1.50471e-22
2.32746e-05
-4.92988e-18
-5.3781e-21
-3.96042e-19
1.55998e-22
2.40845e-05
-4.9165e-18
-5.41733e-21
-4.07473e-19
1.63148e-22
2.49136e-05
-4.89992e-18
-5.45126e-21
-4.19896e-19
1.70117e-22
2.57624e-05
-4.87763e-18
-5.48084e-21
-4.33957e-19
1.77606e-22
2.6631e-05
-4.86189e-18
-5.50987e-21
-4.44805e-19
1.82666e-22
2.75197e-05
-4.84481e-18
-5.53357e-21
-4.575e-19
1.87909e-22
2.84288e-05
-4.82649e-18
-5.55439e-21
-4.70219e-19
1.92758e-22
2.93586e-05
-4.80451e-18
-5.57185e-21
-4.87018e-19
1.98006e-22
3.03094e-05
-4.78491e-18
-5.58793e-21
-5.03212e-19
2.08398e-22
3.12816e-05
-4.76944e-18
-5.60383e-21
-5.10471e-19
2.24505e-22
3.22754e-05
-4.75128e-18
-5.61513e-21
-5.16895e-19
2.41367e-22
3.32913e-05
-4.73021e-18
-5.62293e-21
-5.21924e-19
2.59443e-22
3.43296e-05
-4.71521e-18
-5.63193e-21
-5.26526e-19
2.77699e-22
3.53908e-05
-4.69335e-18
-5.63504e-21
-5.36261e-19
2.98973e-22
3.64752e-05
-4.67113e-18
-5.63205e-21
-5.50776e-19
3.28591e-22
3.75832e-05
-4.65144e-18
-5.62143e-21
-5.64097e-19
3.59204e-22
3.87154e-05
-4.62769e-18
-5.60995e-21
-5.76932e-19
3.93591e-22
3.98722e-05
-4.61197e-18
-5.59977e-21
-5.85468e-19
4.32132e-22
4.1054e-05
-4.5877e-18
-5.58707e-21
-6.01069e-19
4.66061e-22
4.22614e-05
-4.56413e-18
-5.57846e-21
-6.08102e-19
5.03404e-22
4.34948e-05
-4.53551e-18
-5.57994e-21
-6.1865e-19
5.47125e-22
4.47548e-05
-4.51477e-18
-5.59889e-21
-6.36651e-19
5.97923e-22
4.6042e-05
-4.49064e-18
-5.61957e-21
-6.5819e-19
6.55482e-22
4.73568e-05
-4.47061e-18
-5.6565e-21
-6.71057e-19
7.29906e-22
4.86998e-05
-4.46089e-18
-5.70335e-21
-6.83115e-19
8.15857e-22
5.00717e-05
-4.44257e-18
-5.7497e-21
-6.87672e-19
9.10333e-22
5.14731e-05
-4.42991e-18
-5.80241e-21
-7.0424e-19
1.00986e-21
5.29045e-05
-4.40972e-18
-5.85253e-21
-7.10869e-19
1.11787e-21
5.43666e-05
-4.38481e-18
-5.90655e-21
-7.23957e-19
1.2208e-21
5.586e-05
-4.36483e-18
-5.96467e-21
-7.36784e-19
1.3249e-21
5.73854e-05
-4.34091e-18
-6.01651e-21
-7.55032e-19
1.43434e-21
5.89435e-05
-4.3138e-18
-6.06038e-21
-7.68666e-19
1.53669e-21
6.0535e-05
-4.28214e-18
-6.10648e-21
-7.89589e-19
1.62175e-21
6.21606e-05
-4.26926e-18
-6.18086e-21
-8.01908e-19
1.73177e-21
6.3821e-05
-4.25473e-18
-6.26095e-21
-8.04001e-19
1.86204e-21
6.5517e-05
-4.23341e-18
-6.30996e-21
-8.05425e-19
1.96444e-21
6.72493e-05
-4.21643e-18
-6.35149e-21
-8.20989e-19
2.04765e-21
6.90187e-05
-4.20951e-18
-6.39701e-21
-8.34767e-19
2.11585e-21
7.08261e-05
-4.17086e-18
-6.41298e-21
-8.73865e-19
2.16775e-21
7.26721e-05
-4.1685e-18
-6.44714e-21
-8.90001e-19
2.26083e-21
7.45578e-05
-4.14872e-18
-6.43434e-21
-9.05524e-19
2.38255e-21
7.64838e-05
-4.1224e-18
-6.43351e-21
-9.23778e-19
2.51154e-21
7.84511e-05
-4.09764e-18
-6.44661e-21
-9.26158e-19
2.62088e-21
8.04606e-05
-4.07546e-18
-6.48318e-21
-9.55519e-19
2.64544e-21
8.25131e-05
-4.03998e-18
-6.52595e-21
-9.707e-19
2.67505e-21
8.46097e-05
-4.00272e-18
-6.63925e-21
-9.87549e-19
2.71853e-21
8.67512e-05
-3.97486e-18
-6.78265e-21
-1.02235e-18
2.77818e-21
8.89386e-05
-3.95823e-18
-6.94931e-21
-1.04644e-18
2.84258e-21
9.11728e-05
-3.93717e-18
-7.09613e-21
-1.05142e-18
2.91928e-21
9.3455e-05
-3.92116e-18
-7.21619e-21
-1.07669e-18
2.94067e-21
9.57861e-05
-3.87858e-18
-7.32019e-21
-1.09626e-18
2.95203e-21
9.81672e-05
-3.84382e-18
-7.496e-21
-1.12327e-18
2.94634e-21
0.000100599
-3.83149e-18
-7.74275e-21
-1.13774e-18
2.93288e-21
0.000103084
-3.81127e-18
-7.94285e-21
-1.15344e-18
2.88377e-21
0.000105621
-3.78293e-18
-8.07418e-21
-1.18085e-18
2.81053e-21
0.000108213
-3.74422e-18
-8.20229e-21
-1.21197e-18
2.75268e-21
0.00011086
-3.69714e-18
-8.38711e-21
-1.25219e-18
2.69253e-21
0.000113564
-3.67041e-18
-8.62829e-21
-1.28364e-18
2.71671e-21
0.000116326
-3.6119e-18
-8.90068e-21
-1.32351e-18
2.72582e-21
0.000119148
-3.58663e-18
-9.20189e-21
-1.34392e-18
2.72895e-21
0.000122029
-3.53794e-18
-9.46049e-21
-1.35519e-18
2.67712e-21
0.000124973
-3.51114e-18
-9.72666e-21
-1.38488e-18
2.59885e-21
0.000127979
-3.4873e-18
-9.85575e-21
-1.37717e-18
2.46267e-21
0.00013105
-3.47752e-18
-9.99704e-21
-1.39995e-18
2.09754e-21
0.000134186
-3.44806e-18
-9.94899e-21
-1.4357e-18
1.64452e-21
0.00013739
-3.40716e-18
-9.86278e-21
-1.45084e-18
1.16494e-21
0.000140662
-3.37172e-18
-9.79801e-21
-1.47706e-18
7.06055e-22
0.000144004
-3.33782e-18
-9.76447e-21
-1.50059e-18
3.22861e-22
0.000147417
-3.27444e-18
-9.67573e-21
-1.4906e-18
-1.79234e-22
0.000150903
-3.23416e-18
-9.64783e-21
-1.52106e-18
-9.11842e-22
0.000154464
-3.20453e-18
-9.72033e-21
-1.54308e-18
-1.44811e-21
0.000158101
-3.15234e-18
-9.77674e-21
-1.55186e-18
-2.07708e-21
0.000161816
-3.10878e-18
-9.9101e-21
-1.59763e-18
-2.77677e-21
0.000165609
-3.05945e-18
-1.02431e-20
-1.60987e-18
-3.19532e-21
0.000169484
-3.02978e-18
-1.0508e-20
-1.64222e-18
-3.64365e-21
0.000173441
-2.98787e-18
-1.0761e-20
-1.63216e-18
-4.00309e-21
0.000177483
-2.93631e-18
-1.13175e-20
-1.65059e-18
-4.43381e-21
0.000181611
-2.91509e-18
-1.20471e-20
-1.64971e-18
-5.01528e-21
0.000185826
-2.8922e-18
-1.26394e-20
-1.66979e-18
-5.60769e-21
0.000190131
-2.84842e-18
-1.30663e-20
-1.64776e-18
-5.99574e-21
0.000194528
-2.80899e-18
-1.33141e-20
-1.64998e-18
-6.62134e-21
0.000199018
-2.77456e-18
-1.36393e-20
-1.65933e-18
-7.1451e-21
0.000203604
-2.71422e-18
-1.37618e-20
-1.68422e-18
-7.64736e-21
0.000208287
-2.70846e-18
-1.39982e-20
-1.69654e-18
-7.96582e-21
0.00021307
-2.67166e-18
-1.40516e-20
-1.68745e-18
-8.26334e-21
0.000217953
-2.64105e-18
-1.39903e-20
-1.67334e-18
-8.77753e-21
0.000222941
-2.56516e-18
-1.38866e-20
-1.69316e-18
-9.21474e-21
0.000228034
-2.5301e-18
-1.38744e-20
-1.68638e-18
-9.75722e-21
0.000233234
-2.49862e-18
-1.39025e-20
-1.6867e-18
-1.01776e-20
0.000238545
-2.47916e-18
-1.36733e-20
-1.69385e-18
-1.05838e-20
0.000243968
-2.45962e-18
-1.29731e-20
-1.68809e-18
-1.11338e-20
0.000249506
-2.37021e-18
-1.16506e-20
-1.66896e-18
-1.15051e-20
0.00025516
-2.32571e-18
-1.10729e-20
-1.71202e-18
-1.21417e-20
0.000260933
-2.31714e-18
-1.09155e-20
-1.68825e-18
-1.19314e-20
0.000266829
-2.26908e-18
-1.03858e-20
-1.67753e-18
-1.20627e-20
0.000272848
-2.25284e-18
-1.06211e-20
-1.72738e-18
-1.26628e-20
0.000278993
-2.17623e-18
-1.02455e-20
-1.81014e-18
-1.32526e-20
0.000285268
-2.15179e-18
-1.161e-20
-1.79113e-18
-1.22807e-20
0.000291675
-2.15504e-18
-1.2243e-20
-1.79501e-18
-1.20253e-20
0.000298215
-2.11131e-18
-1.28e-20
-1.81828e-18
-1.21507e-20
0.000304893
-2.06672e-18
-1.38649e-20
-1.94033e-18
-1.28547e-20
0.000311711
-2.03582e-18
-1.55383e-20
-1.92891e-18
-1.23704e-20
0.00031867
-2.02528e-18
-1.67914e-20
-1.94767e-18
-1.39533e-20
0.000325775
-1.9984e-18
-1.73297e-20
-1.95279e-18
-1.49287e-20
0.000333029
-1.98861e-18
-1.7351e-20
-2.01199e-18
-1.60187e-20
0.000340433
-1.96686e-18
-1.74372e-20
-1.98554e-18
-1.58526e-20
0.000347991
-1.91732e-18
-1.73064e-20
-2.00395e-18
-1.6889e-20
0.000355706
-1.98778e-18
-1.82448e-20
-1.94919e-18
-1.6736e-20
0.00036358
-2.06264e-18
-1.92638e-20
-1.95656e-18
-1.65064e-20
0.000371618
-2.03756e-18
-1.87727e-20
-1.90198e-18
-1.59058e-20
0.000379822
-2.00343e-18
-1.72788e-20
-1.83247e-18
-1.65003e-20
0.000388195
-1.95125e-18
-1.60866e-20
-1.79415e-18
-1.86732e-20
0.00039674
-1.89581e-18
-1.55305e-20
-1.73216e-18
-2.02179e-20
0.000405461
-1.90294e-18
-1.55621e-20
-1.68774e-18
-2.38436e-20
0.000414361
-1.80452e-18
-1.41751e-20
-1.68725e-18
-2.82487e-20
0.000423444
-1.69947e-18
-1.40703e-20
-1.75371e-18
-3.15049e-20
0.000432711
-1.67202e-18
-1.46327e-20
-1.63564e-18
-3.08949e-20
0.000442168
-1.66233e-18
-1.28542e-20
-1.58516e-18
-3.17688e-20
0.000451817
-1.53962e-18
-1.41815e-20
-1.65913e-18
-3.43519e-20
0.000461662
-1.48139e-18
-1.60516e-20
-1.59304e-18
-3.36842e-20
0.000471706
-1.45883e-18
-1.81208e-20
-1.54964e-18
-3.73094e-20
0.000481953
-1.45557e-18
-2.21971e-20
-1.52137e-18
-3.9389e-20
0.000492406
-1.448e-18
-2.7457e-20
-1.55289e-18
-3.95506e-20
0.000503069
-1.54203e-18
-3.19061e-20
-1.48899e-18
-3.60803e-20
0.000513945
-1.57531e-18
-3.5145e-20
-1.5316e-18
-3.51941e-20
0.000525039
-1.60013e-18
-3.59354e-20
-1.62648e-18
-3.64286e-20
0.000536352
-1.69762e-18
-3.65426e-20
-1.61833e-18
-3.42448e-20
0.00054789
-1.75363e-18
-3.32652e-20
-1.55613e-18
-2.82713e-20
0.000559655
-1.73889e-18
-2.60493e-20
-1.60107e-18
-2.82828e-20
0.000571651
-1.64598e-18
-2.35922e-20
-1.67843e-18
-2.90246e-20
0.000583882
-1.81092e-18
-3.23625e-20
-1.61872e-18
-2.996e-20
0.000596351
-1.64764e-18
-2.77538e-20
-1.61055e-18
-3.19902e-20
0.000609061
-1.63523e-18
-3.03044e-20
-1.6446e-18
-3.55598e-20
0.000622016
-1.69367e-18
-3.33623e-20
-1.60326e-18
-3.74687e-20
0.000635219
-1.62405e-18
-3.05866e-20
-1.69977e-18
-4.49875e-20
0.000648674
-1.60003e-18
-2.81171e-20
-1.668e-18
-4.24019e-20
0.000662382
-1.60355e-18
-3.12574e-20
-1.68493e-18
-4.595e-20
0.000676348
-1.51862e-18
-3.71949e-20
-1.5407e-18
-4.7935e-20
0.000690574
-1.52109e-18
-4.61371e-20
-1.56845e-18
-5.05579e-20
0.000705063
-1.55932e-18
-5.89787e-20
-1.52116e-18
-4.51967e-20
0.000719817
-1.54642e-18
-5.74625e-20
-1.41072e-18
-4.62827e-20
0.000734838
-1.37202e-18
-5.32663e-20
-1.39363e-18
-5.43832e-20
0.000750128
-1.30647e-18
-5.67684e-20
-1.50783e-18
-6.09677e-20
0.000765689
-1.24108e-18
-5.54676e-20
-1.518e-18
-5.92861e-20
0.000781522
-1.34584e-18
-6.43031e-20
-1.44095e-18
-4.7997e-20
0.000797628
-1.30498e-18
-5.48406e-20
-1.52874e-18
-4.15338e-20
0.000814007
-1.29418e-18
-5.47637e-20
-1.44479e-18
-3.37493e-20
0.000830659
-1.45583e-18
-6.37893e-20
-1.5124e-18
-4.21623e-20
0.000847583
-1.41125e-18
-5.31537e-20
-1.39267e-18
-2.71015e-20
0.000864778
-1.3975e-18
-5.60248e-20
-1.4135e-18
-1.98381e-20
0.000882241
-1.53997e-18
-6.6261e-20
-1.40808e-18
-1.49952e-20
0.00089997
-1.50819e-18
-4.27029e-20
-1.26497e-18
-2.39384e-20
0.00091796
-1.65852e-18
-2.8533e-20
-1.34527e-18
-3.13265e-20
0.000936207
-1.46746e-18
3.28929e-21
-1.23226e-18
-3.50143e-20
0.000954704
-1.26794e-18
2.06836e-20
-1.20475e-18
-2.76309e-20
0.000973445
-1.07275e-18
2.92484e-20
-1.2992e-18
-1.09117e-20
0.000992421
-1.08648e-18
1.63686e-20
-1.12474e-18
1.56792e-20
0.00101162
-1.18876e-18
1.45769e-20
-1.19304e-18
-5.19391e-21
0.00103104
-1.15805e-18
-7.59781e-22
-1.08375e-18
-1.47804e-20
0.00105066
-9.36833e-19
1.48511e-20
-1.23457e-18
-1.55229e-20
0.00107046
-6.49944e-21
-9.6499e-19
-8.02345e-21
-1.18381e-18
1.11327e-08
-1.09873e-22
2.6617e-24
3.4229e-08
-3.22084e-22
1.41778e-23
5.86145e-08
-5.38754e-22
1.98675e-23
8.43451e-08
-7.81812e-22
1.01941e-23
1.11479e-07
-1.03995e-21
8.76737e-24
1.40078e-07
-1.36263e-21
5.26195e-23
1.70203e-07
-1.63891e-21
1.01923e-22
2.01922e-07
-2.00644e-21
1.80592e-22
2.35301e-07
-2.30398e-21
1.83474e-22
2.70413e-07
-2.57748e-21
1.83292e-22
3.07329e-07
-2.85492e-21
2.21181e-22
3.46128e-07
-3.18791e-21
1.90495e-22
3.86889e-07
-3.51762e-21
1.30225e-22
4.29694e-07
-3.95023e-21
1.97383e-22
4.74629e-07
-4.42075e-21
3.75274e-22
5.21785e-07
-4.68281e-21
3.28251e-22
5.71252e-07
-5.11301e-21
4.23621e-22
6.23129e-07
-5.47549e-21
3.36677e-22
6.77515e-07
-5.88454e-21
3.71082e-22
7.34514e-07
-6.46914e-21
4.29736e-22
7.94235e-07
-6.92546e-21
4.44712e-22
8.5679e-07
-7.31767e-21
6.05983e-22
9.22296e-07
-7.84558e-21
5.70715e-22
9.90873e-07
-8.20569e-21
6.59324e-22
1.06265e-06
-8.90416e-21
5.85277e-22
1.13775e-06
-9.41774e-21
2.75304e-22
1.21632e-06
-9.78683e-21
4.42536e-22
1.2985e-06
-1.04802e-20
4.07194e-22
1.38442e-06
-1.10156e-20
2.81753e-22
1.47425e-06
-1.16386e-20
1.8396e-22
1.56814e-06
-1.2508e-20
2.64103e-22
1.66626e-06
-1.31417e-20
1.70643e-23
1.76877e-06
-1.39416e-20
-1.01335e-22
1.87585e-06
-1.45092e-20
-3.85016e-22
1.98769e-06
-1.51594e-20
-6.96363e-22
2.10447e-06
-1.608e-20
-9.94742e-22
2.22639e-06
-1.65243e-20
-1.2946e-21
2.35365e-06
-1.72827e-20
-1.50302e-21
2.48646e-06
-1.7968e-20
-1.48517e-21
2.62505e-06
-1.91721e-20
-1.45268e-21
2.76963e-06
-2.01779e-20
-1.62581e-21
2.92045e-06
-2.1327e-20
-1.71928e-21
3.07773e-06
-2.24294e-20
-2.13038e-21
3.24174e-06
-2.35849e-20
-1.93071e-21
3.41272e-06
-2.53415e-20
-2.17184e-21
3.59095e-06
-2.68203e-20
-2.02486e-21
3.7767e-06
-2.80497e-20
-2.38062e-21
3.97025e-06
-2.88554e-20
-3.59235e-21
4.17188e-06
-3.11449e-20
-3.48748e-21
4.3819e-06
-3.2568e-20
-2.4928e-21
4.60061e-06
-3.41631e-20
-1.74987e-21
4.82833e-06
-3.54448e-20
-1.97956e-21
5.06536e-06
-3.69091e-20
-2.64241e-21
5.31204e-06
-3.85284e-20
-3.24536e-21
5.5687e-06
-3.99397e-20
-4.38091e-21
5.83568e-06
-4.15824e-20
-5.06459e-21
6.11331e-06
-4.27338e-20
-5.34043e-21
6.40193e-06
-4.4509e-20
-5.90038e-21
6.70191e-06
-4.67074e-20
-6.4959e-21
7.01357e-06
-4.84604e-20
-7.49423e-21
7.33728e-06
-5.04088e-20
-8.20521e-21
7.67337e-06
-5.26263e-20
-1.01932e-20
8.02219e-06
-5.47562e-20
-9.07564e-21
8.38409e-06
-5.72606e-20
-7.43837e-21
8.75939e-06
-5.9727e-20
-7.15254e-21
9.14843e-06
-6.13462e-20
-7.91918e-21
9.55153e-06
-6.46185e-20
-9.20584e-21
9.96899e-06
-6.87486e-20
-9.20199e-21
1.04011e-05
-6.99615e-20
-9.68075e-21
1.08482e-05
-7.0919e-20
-1.22982e-20
1.13105e-05
-7.47535e-20
-1.37223e-20
1.17883e-05
-7.97659e-20
-1.35562e-20
1.22819e-05
-8.208e-20
-1.54942e-20
1.27914e-05
-8.73251e-20
-1.55316e-20
1.33172e-05
-8.93664e-20
-1.56271e-20
1.38593e-05
-9.3069e-20
-1.73704e-20
1.44181e-05
-9.62241e-20
-1.8322e-20
1.49937e-05
-1.02942e-19
-2.09058e-20
1.55863e-05
-1.06763e-19
-2.16025e-20
1.61961e-05
-1.09583e-19
-2.21423e-20
1.68232e-05
-1.11832e-19
-2.20708e-20
1.74678e-05
-1.15907e-19
-2.16675e-20
1.813e-05
-1.20378e-19
-2.07775e-20
1.88101e-05
-1.22752e-19
-2.30646e-20
1.95082e-05
-1.26399e-19
-2.5274e-20
2.02245e-05
-1.26059e-19
-2.69569e-20
2.0959e-05
-1.26784e-19
-2.49828e-20
2.17121e-05
-1.24495e-19
-2.4384e-20
2.24839e-05
-1.30481e-19
-2.58027e-20
2.32746e-05
-1.36014e-19
-2.57005e-20
2.40845e-05
-1.39703e-19
-2.99193e-20
2.49136e-05
-1.43845e-19
-3.14928e-20
2.57624e-05
-1.51338e-19
-4.19558e-20
2.6631e-05
-1.54329e-19
-4.2019e-20
2.75197e-05
-1.59674e-19
-4.29034e-20
2.84288e-05
-1.61985e-19
-4.65644e-20
2.93586e-05
-1.64622e-19
-4.91072e-20
3.03094e-05
-1.69767e-19
-5.07209e-20
3.12816e-05
-1.71541e-19
-5.67306e-20
3.22754e-05
-1.74275e-19
-6.26926e-20
3.32913e-05
-1.84357e-19
-6.83446e-20
3.43296e-05
-1.91319e-19
-6.9373e-20
3.53908e-05
-1.93312e-19
-6.23108e-20
3.64752e-05
-1.92454e-19
-6.71683e-20
3.75832e-05
-2.01566e-19
-7.07694e-20
3.87154e-05
-2.06878e-19
-7.72064e-20
3.98722e-05
-2.1237e-19
-8.46262e-20
4.1054e-05
-2.18176e-19
-8.26563e-20
4.22614e-05
-2.30112e-19
-7.40166e-20
4.34948e-05
-2.38788e-19
-7.32497e-20
4.47548e-05
-2.29064e-19
-8.13028e-20
4.6042e-05
-2.27865e-19
-8.58147e-20
4.73568e-05
-2.23171e-19
-8.88073e-20
4.86998e-05
-2.22515e-19
-8.9414e-20
5.00717e-05
-2.22949e-19
-8.7731e-20
5.14731e-05
-2.20034e-19
-9.22004e-20
5.29045e-05
-2.20347e-19
-9.72287e-20
5.43666e-05
-2.25145e-19
-1.0068e-19
5.586e-05
-2.28196e-19
-9.78905e-20
5.73854e-05
-2.1688e-19
-1.12237e-19
5.89435e-05
-2.02074e-19
-1.26223e-19
6.0535e-05
-2.0395e-19
-1.16899e-19
6.21606e-05
-2.11944e-19
-1.11318e-19
6.3821e-05
-1.99096e-19
-1.28784e-19
6.5517e-05
-2.0319e-19
-1.31337e-19
6.72493e-05
-2.17672e-19
-1.40908e-19
6.90187e-05
-2.16317e-19
-1.44925e-19
7.08261e-05
-2.14573e-19
-1.2609e-19
7.26721e-05
-2.05176e-19
-1.03711e-19
7.45578e-05
-2.11662e-19
-1.04064e-19
7.64838e-05
-2.11606e-19
-1.0399e-19
7.84511e-05
-2.2217e-19
-1.15683e-19
8.04606e-05
-2.27488e-19
-1.24957e-19
8.25131e-05
-2.5453e-19
-1.34691e-19
8.46097e-05
-2.56956e-19
-1.32407e-19
8.67512e-05
-2.62523e-19
-1.39522e-19
8.89386e-05
-2.58664e-19
-1.32066e-19
9.11728e-05
-2.44311e-19
-1.37137e-19
9.3455e-05
-2.39727e-19
-1.36553e-19
9.57861e-05
-2.53285e-19
-1.26037e-19
9.81672e-05
-2.71963e-19
-1.25853e-19
0.000100599
-2.63194e-19
-1.35636e-19
0.000103084
-2.41188e-19
-1.44784e-19
0.000105621
-2.37828e-19
-1.47938e-19
0.000108213
-2.50704e-19
-1.61415e-19
0.00011086
-2.62531e-19
-1.51986e-19
0.000113564
-2.88769e-19
-1.55177e-19
0.000116326
-2.8238e-19
-1.60745e-19
0.000119148
-2.92165e-19
-1.73585e-19
0.000122029
-3.02864e-19
-1.77568e-19
0.000124973
-2.89679e-19
-1.85744e-19
0.000127979
-3.13443e-19
-1.77825e-19
0.00013105
-2.98185e-19
-1.71715e-19
0.000134186
-2.94115e-19
-1.92412e-19
0.00013739
-2.95274e-19
-1.98027e-19
0.000140662
-3.12784e-19
-1.8632e-19
0.000144004
-3.02259e-19
-2.01638e-19
0.000147417
-2.80147e-19
-2.19529e-19
0.000150903
-2.92432e-19
-2.05457e-19
0.000154464
-2.9769e-19
-2.20185e-19
0.000158101
-2.97171e-19
-2.09746e-19
0.000161816
-3.21376e-19
-2.01823e-19
0.000165609
-2.94571e-19
-2.05185e-19
0.000169484
-2.97429e-19
-2.01702e-19
0.000173441
-3.41454e-19
-1.87624e-19
0.000177483
-3.64894e-19
-2.08911e-19
0.000181611
-3.73943e-19
-2.27841e-19
0.000185826
-3.8009e-19
-2.40535e-19
0.000190131
-3.67324e-19
-2.4326e-19
0.000194528
-3.90052e-19
-2.42118e-19
0.000199018
-3.79482e-19
-2.67103e-19
0.000203604
-3.88533e-19
-2.51172e-19
0.000208287
-4.02402e-19
-2.48778e-19
0.00021307
-4.02437e-19
-2.7249e-19
0.000217953
-4.37535e-19
-2.67641e-19
0.000222941
-4.39445e-19
-3.15638e-19
0.000228034
-4.6641e-19
-3.0873e-19
0.000233234
-4.53827e-19
-3.22863e-19
0.000238545
-4.40342e-19
-3.51269e-19
0.000243968
-4.23463e-19
-3.37936e-19
0.000249506
-4.47221e-19
-3.4745e-19
0.00025516
-4.65683e-19
-3.47068e-19
0.000260933
-4.39458e-19
-3.71592e-19
0.000266829
-4.65033e-19
-3.60869e-19
0.000272848
-4.05298e-19
-4.06441e-19
0.000278993
-4.79313e-19
-3.8576e-19
0.000285268
-4.33968e-19
-3.82385e-19
0.000291675
-4.60818e-19
-3.60839e-19
0.000298215
-4.70212e-19
-4.17255e-19
0.000304893
-4.84451e-19
-4.73315e-19
0.000311711
-4.56856e-19
-6.17394e-19
0.00031867
-4.51273e-19
-6.2478e-19
0.000325775
-4.37877e-19
-6.38875e-19
0.000333029
-4.66539e-19
-6.04559e-19
0.000340433
-4.7154e-19
-6.37069e-19
0.000347991
-5.04032e-19
-6.08196e-19
0.000355706
-5.94479e-19
-5.32465e-19
0.00036358
-6.2927e-19
-4.86489e-19
0.000371618
-6.02573e-19
-4.81073e-19
0.000379822
-6.26602e-19
-5.45894e-19
0.000388195
-6.5539e-19
-5.62786e-19
0.00039674
-6.8447e-19
-6.16204e-19
0.000405461
-6.76925e-19
-6.69202e-19
0.000414361
-6.75513e-19
-7.45554e-19
0.000423444
-6.67452e-19
-7.70222e-19
0.000432711
-6.21298e-19
-7.24423e-19
0.000442168
-7.64147e-19
-7.04607e-19
0.000451817
-6.82773e-19
-6.56324e-19
0.000461662
-6.49239e-19
-7.39309e-19
0.000471706
-7.04908e-19
-7.00034e-19
0.000481953
-7.39612e-19
-6.61241e-19
0.000492406
-7.19881e-19
-5.9829e-19
0.000503069
-8.21129e-19
-6.0519e-19
0.000513945
-8.25477e-19
-6.75905e-19
0.000525039
-8.56416e-19
-7.35732e-19
0.000536352
-8.91783e-19
-7.54415e-19
0.00054789
-8.87943e-19
-8.56945e-19
0.000559655
-9.46869e-19
-8.95901e-19
0.000571651
-1.03002e-18
-9.84465e-19
0.000583882
-8.82516e-19
-9.00414e-19
0.000596351
-9.36323e-19
-9.0197e-19
0.000609061
-9.83129e-19
-9.48651e-19
0.000622016
-9.4552e-19
-9.99992e-19
0.000635219
-8.94844e-19
-8.45835e-19
0.000648674
-9.66938e-19
-9.23068e-19
0.000662382
-1.01539e-18
-9.25472e-19
0.000676348
-9.66084e-19
-8.84246e-19
0.000690574
-9.89037e-19
-8.53754e-19
0.000705063
-7.91543e-19
-7.95698e-19
0.000719817
-7.42237e-19
-7.42669e-19
0.000734838
-6.82158e-19
-7.48983e-19
0.000750128
-5.699e-19
-7.3649e-19
0.000765689
-6.8612e-19
-6.58991e-19
0.000781522
-5.70748e-19
-7.00027e-19
0.000797628
-6.05536e-19
-7.04164e-19
0.000814007
-6.70736e-19
-7.23696e-19
0.000830659
-5.85024e-19
-5.63995e-19
0.000847583
-6.72474e-19
-6.00602e-19
0.000864778
-7.749e-19
-6.26694e-19
0.000882241
-6.72295e-19
-8.37832e-19
0.00089997
-8.4744e-19
-8.43003e-19
0.00091796
-8.86553e-19
-9.64364e-19
0.000936207
-8.98705e-19
-7.67959e-19
0.000954704
-8.87373e-19
-7.80074e-19
0.000973445
-9.08124e-19
-8.51726e-19
0.000992421
-7.72316e-19
-9.6389e-19
0.00101162
-9.74804e-19
-9.20441e-19
0.00103104
-7.57853e-19
-8.25796e-19
0.00105066
-8.53463e-19
-8.89579e-19
0.00107046
-8.59831e-19
-8.91529e-19
0.00107046
-9.8518e-19
-1.78905e-20
-9.4414e-19
-2.54822e-21
0.00105066
-8.6487e-19
-1.12205e-20
-8.05375e-19
6.19844e-21
0.00103104
-8.39859e-19
-1.24681e-21
-8.01936e-19
1.20115e-20
0.00101162
-8.07057e-19
-2.2096e-20
-7.30823e-19
4.97503e-21
0.000992421
-8.73924e-19
-1.20173e-20
-7.46417e-19
-1.18723e-20
0.000973445
-6.52756e-19
-2.02177e-20
-8.02812e-19
-3.00689e-20
0.000954704
-8.01272e-19
-4.89893e-20
-8.26052e-19
-3.65625e-20
0.000936207
-8.02712e-19
-3.23944e-20
-7.98436e-19
-3.27159e-20
0.00091796
-7.72681e-19
-2.24419e-20
-7.97034e-19
-1.71e-20
0.00089997
-7.65501e-19
-1.44187e-20
-7.65511e-19
-1.8764e-20
0.000882241
-7.42697e-19
-1.29867e-20
-7.48389e-19
-1.5423e-20
0.000864778
-7.75668e-19
-1.55319e-20
-7.06275e-19
-1.85182e-20
0.000847583
-7.62402e-19
-9.60756e-21
-7.3733e-19
-1.65628e-20
0.000830659
-6.94446e-19
-7.32435e-21
-6.83842e-19
-9.55481e-21
0.000814007
-6.64088e-19
-1.48534e-20
-6.86322e-19
-1.29322e-20
0.000797628
-6.55949e-19
-2.09999e-20
-7.33511e-19
-1.77509e-20
0.000781522
-6.13716e-19
-2.29272e-20
-6.67356e-19
-1.37114e-20
0.000765689
-5.63047e-19
-2.0668e-20
-6.46671e-19
-5.88758e-21
0.000750128
-6.11991e-19
-2.3528e-20
-6.70396e-19
2.58122e-21
0.000734838
-6.94364e-19
-1.37859e-20
-6.89162e-19
1.80462e-21
0.000719817
-6.29265e-19
-8.40229e-22
-6.97326e-19
1.94023e-21
0.000705063
-5.79475e-19
1.11438e-21
-6.50031e-19
3.33643e-21
0.000690574
-5.79679e-19
-1.15476e-21
-5.29457e-19
6.99498e-22
0.000676348
-5.53786e-19
1.963e-22
-4.22406e-19
4.25439e-21
0.000662383
-5.24223e-19
-8.19659e-22
-4.686e-19
2.3688e-21
0.000648674
-5.11602e-19
-3.9522e-21
-4.52446e-19
-2.88381e-21
0.000635219
-4.70602e-19
-3.70411e-24
-4.89415e-19
-2.2569e-21
0.000622016
-5.63295e-19
-1.58776e-21
-4.68963e-19
1.68985e-21
0.000609061
-5.81919e-19
1.60476e-22
-4.78156e-19
-1.54768e-21
0.000596351
-4.93107e-19
-1.59781e-21
-4.40852e-19
-4.83942e-21
0.000583882
-4.71261e-19
-6.48991e-21
-5.17714e-19
-1.15308e-20
0.000571651
-4.65223e-19
-6.89002e-21
-5.26098e-19
-1.01925e-20
0.000559655
-3.99744e-19
-5.73599e-21
-5.39962e-19
-7.35004e-21
0.00054789
-4.7617e-19
-6.30575e-21
-4.82087e-19
-5.87334e-21
0.000536352
-4.90626e-19
-1.02807e-21
-5.71033e-19
-7.4514e-21
0.000525039
-4.74712e-19
1.94851e-22
-5.87734e-19
-4.66064e-21
0.000513945
-4.76044e-19
3.25504e-21
-4.6303e-19
-2.76161e-21
0.000503069
-5.53377e-19
4.08486e-21
-4.71763e-19
-4.25302e-21
0.000492406
-4.53914e-19
6.77001e-21
-4.88584e-19
-4.28985e-21
0.000481953
-4.3516e-19
5.84247e-21
-4.64663e-19
-2.85792e-21
0.000471706
-4.13857e-19
5.20725e-21
-4.67267e-19
-2.41843e-21
0.000461662
-3.69229e-19
5.22023e-21
-5.02453e-19
-8.21922e-22
0.000451817
-4.03774e-19
1.33007e-21
-3.63981e-19
7.29484e-22
0.000442168
-4.0776e-19
7.07299e-22
-3.81849e-19
-6.99675e-22
0.000432711
-3.95177e-19
-1.93215e-22
-3.17281e-19
-9.59307e-23
0.000423444
-3.65573e-19
-7.60862e-22
-3.30734e-19
-1.50163e-21
0.000414361
-2.77069e-19
-1.69208e-21
-2.78507e-19
-3.72429e-21
0.000405461
-2.86405e-19
-4.09983e-21
-3.12432e-19
-4.62023e-21
0.00039674
-2.82651e-19
-4.10285e-21
-3.1905e-19
-5.1795e-21
0.000388195
-2.66823e-19
-4.96193e-21
-2.84237e-19
-7.05979e-21
0.000379822
-2.25441e-19
-4.35755e-21
-2.85774e-19
-7.08608e-21
0.000371618
-2.93587e-19
-3.85971e-21
-2.47061e-19
-7.84588e-21
0.00036358
-2.40609e-19
-1.97958e-21
-2.20399e-19
-7.60386e-21
0.000355706
-2.01479e-19
-2.91485e-21
-2.10829e-19
-6.10397e-21
0.000347991
-2.15571e-19
-3.56617e-21
-1.77779e-19
-6.25941e-21
0.000340433
-2.2105e-19
-3.22633e-21
-1.97916e-19
-6.61904e-21
0.000333029
-1.50475e-19
-1.7796e-21
-1.53057e-19
-6.16741e-21
0.000325775
-1.62928e-19
-1.70113e-21
-1.09726e-19
-5.82157e-21
0.00031867
-1.19887e-19
-1.28821e-21
-1.07645e-19
-5.72526e-21
0.000311711
-1.44928e-19
-1.64344e-21
-1.87501e-19
-5.3567e-21
0.000304893
-1.14398e-19
-1.66724e-21
-1.6629e-19
-3.98761e-21
0.000298215
-1.4524e-19
-1.74627e-21
-1.76788e-19
-3.127e-21
0.000291675
-1.21264e-19
-1.52783e-21
-1.75729e-19
-2.74913e-21
0.000285268
-1.11087e-19