/*--------------------------------*- C++ -*----------------------------------*\
| =========                 |                                                 |
| \\      /  F ield         | OpenFOAM: The Open Source CFD Toolbox           |
|  \\    /   O peration     | Version:  2106                                  |
|   \\  /    A nd           | Website:  www.openfoam.com                      |
|    \\/     M anipulation  |                                                 |
\*---------------------------------------------------------------------------*/
FoamFile
{
    version     2.0;
    format      ascii;
    arch        "LSB;label=32;scalar=64";
    class       volSymmTensorField;
    location    "10060";
    object      turbulenceProperties:R;
}
// * * * * * * * * * * * * * * * * * * * * * * * * * * * * * * * * * * * * * //

dimensions      [0 2 -2 0 0 0 0];

internalField   nonuniform List<symmTensor> 
2000
(
(3.13639e-08 -1.87036e-13 -3.46167e-16 3.13639e-08 1.23227e-27 3.13639e-08)
(3.13639e-08 -1.87036e-13 -3.46167e-16 3.13639e-08 8.9747e-32 3.13639e-08)
(4.75239e-09 -1.63258e-13 -9.12175e-16 4.75239e-09 1.03137e-28 4.75239e-09)
(4.75239e-09 -1.63258e-13 -9.12175e-16 4.75239e-09 5.09932e-32 4.75239e-09)
(2.52424e-09 -2.56747e-13 -1.99041e-15 2.52424e-09 1.28113e-28 2.52424e-09)
(2.52424e-09 -2.56747e-13 -1.99041e-15 2.52424e-09 7.76348e-34 2.52424e-09)
(4.88503e-09 -1.05796e-12 -8.35481e-15 4.88503e-09 5.38389e-28 4.88503e-09)
(4.88503e-09 -1.05796e-12 -8.35481e-15 4.88503e-09 2.49944e-31 4.88503e-09)
(1.16562e-08 -4.47237e-12 -3.5978e-14 1.16562e-08 3.19336e-27 1.16562e-08)
(1.16562e-08 -4.47237e-12 -3.5978e-14 1.16562e-08 2.16564e-30 1.16562e-08)
(2.46544e-08 -1.49574e-11 -1.22571e-13 2.46544e-08 5.49358e-27 2.46544e-08)
(2.46544e-08 -1.49574e-11 -1.22571e-13 2.46544e-08 1.09827e-29 2.46544e-08)
(4.63617e-08 -4.12094e-11 -3.44e-13 4.63617e-08 1.58381e-26 4.63617e-08)
(4.63617e-08 -4.12094e-11 -3.44e-13 4.63617e-08 3.40442e-29 4.63617e-08)
(7.97474e-08 -9.83712e-11 -8.36489e-13 7.97474e-08 3.94775e-26 7.97474e-08)
(7.97474e-08 -9.83712e-11 -8.36489e-13 7.97474e-08 8.80126e-29 7.97474e-08)
(1.28252e-07 -2.10853e-10 -1.82643e-12 1.28252e-07 8.75095e-26 1.28252e-07)
(1.28252e-07 -2.10853e-10 -1.82643e-12 1.28252e-07 2.52808e-28 1.28252e-07)
(1.95807e-07 -4.15872e-10 -3.66956e-12 1.95807e-07 1.7744e-25 1.95807e-07)
(1.95807e-07 -4.15872e-10 -3.66956e-12 1.95807e-07 6.56833e-28 1.95807e-07)
(2.86869e-07 -7.67847e-10 -6.90176e-12 2.86869e-07 3.36122e-25 2.86869e-07)
(2.86869e-07 -7.67847e-10 -6.90176e-12 2.86869e-07 1.33395e-27 2.86869e-07)
(4.06458e-07 -1.34378e-09 -1.23039e-11 4.06458e-07 6.02747e-25 4.06458e-07)
(4.06458e-07 -1.34378e-09 -1.23039e-11 4.06458e-07 2.40181e-27 4.06458e-07)
(5.60202e-07 -2.2498e-09 -2.09841e-11 5.60202e-07 1.03275e-24 5.60202e-07)
(5.60202e-07 -2.2498e-09 -2.09841e-11 5.60202e-07 4.48219e-27 5.60202e-07)
(7.5439e-07 -3.62908e-09 -3.44805e-11 7.5439e-07 1.70375e-24 7.5439e-07)
(7.5439e-07 -3.62908e-09 -3.44805e-11 7.5439e-07 8.42963e-27 7.5439e-07)
(9.96017e-07 -5.6713e-09 -5.48897e-11 9.96017e-07 2.72259e-24 9.96017e-07)
(9.96017e-07 -5.6713e-09 -5.48897e-11 9.96017e-07 1.53988e-26 9.96017e-07)
(1.29285e-06 -8.62398e-09 -8.5025e-11 1.29285e-06 4.23167e-24 1.29285e-06)
(1.29285e-06 -8.62398e-09 -8.5025e-11 1.29285e-06 2.68243e-26 1.29285e-06)
(1.65349e-06 -1.28059e-08 -1.28611e-10 1.65349e-06 6.42311e-24 1.65349e-06)
(1.65349e-06 -1.28059e-08 -1.28611e-10 1.65349e-06 4.03892e-26 1.65349e-06)
(2.08744e-06 -1.86229e-08 -1.90523e-10 2.08744e-06 9.55085e-24 2.08744e-06)
(2.08744e-06 -1.86229e-08 -1.90523e-10 2.08744e-06 6.03042e-26 2.08744e-06)
(2.60515e-06 -2.65867e-08 -2.77073e-10 2.60515e-06 1.39387e-23 2.60515e-06)
(2.60515e-06 -2.65867e-08 -2.77073e-10 2.60515e-06 1.01743e-25 2.60515e-06)
(3.21816e-06 -3.73365e-08 -3.96365e-10 3.21816e-06 2.00097e-23 3.21816e-06)
(3.21816e-06 -3.73365e-08 -3.96365e-10 3.21816e-06 1.49566e-25 3.21816e-06)
(3.93911e-06 -5.1665e-08 -5.58712e-10 3.93911e-06 2.82961e-23 3.93911e-06)
(3.93911e-06 -5.1665e-08 -5.58712e-10 3.93911e-06 2.03759e-25 3.93911e-06)
(4.78187e-06 -7.05475e-08 -7.77148e-10 4.78187e-06 3.94814e-23 4.78187e-06)
(4.78187e-06 -7.05475e-08 -7.77148e-10 4.78187e-06 3.16726e-25 4.78187e-06)
(5.76164e-06 -9.51771e-08 -1.06803e-09 5.76164e-06 5.44356e-23 5.76164e-06)
(5.76164e-06 -9.51771e-08 -1.06803e-09 5.76164e-06 4.60904e-25 5.76164e-06)
(6.89501e-06 -1.27004e-07 -1.45178e-09 6.89501e-06 9.36005e-23 6.89501e-06)
(6.89501e-06 -1.27004e-07 -1.45178e-09 6.89501e-06 6.56115e-25 6.89501e-06)
(8.20013e-06 -1.67783e-07 -1.95371e-09 8.20013e-06 1.56953e-22 8.20013e-06)
(8.20013e-06 -1.67783e-07 -1.95371e-09 8.20013e-06 9.54319e-25 8.20013e-06)
(9.69677e-06 -2.19624e-07 -2.60509e-09 9.69677e-06 2.16863e-22 9.69677e-06)
(9.69677e-06 -2.19624e-07 -2.60509e-09 9.69677e-06 1.31116e-24 9.69677e-06)
(1.14065e-05 -2.85056e-07 -3.44431e-09 1.14065e-05 2.88678e-22 1.14065e-05)
(1.14065e-05 -2.85056e-07 -3.44431e-09 1.14065e-05 1.85509e-24 1.14065e-05)
(1.33527e-05 -3.67094e-07 -4.51834e-09 1.33527e-05 3.8118e-22 1.33527e-05)
(1.33527e-05 -3.67094e-07 -4.51834e-09 1.33527e-05 2.57574e-24 1.33527e-05)
(1.55609e-05 -4.69319e-07 -5.88437e-09 1.55609e-05 4.99592e-22 1.55609e-05)
(1.55609e-05 -4.69319e-07 -5.88437e-09 1.55609e-05 3.47912e-24 1.55609e-05)
(1.80587e-05 -5.95972e-07 -7.61178e-09 1.80587e-05 6.49789e-22 1.80587e-05)
(1.80587e-05 -5.95972e-07 -7.61178e-09 1.80587e-05 4.77879e-24 1.80587e-05)
(2.08762e-05 -7.5205e-07 -9.78445e-09 2.08762e-05 8.39448e-22 2.08762e-05)
(2.08762e-05 -7.5205e-07 -9.78445e-09 2.08762e-05 6.38316e-24 2.08762e-05)
(2.40458e-05 -9.43428e-07 -1.25034e-08 2.40458e-05 1.07789e-21 2.40458e-05)
(2.40458e-05 -9.43428e-07 -1.25034e-08 2.40458e-05 8.31827e-24 2.40458e-05)
(2.76027e-05 -1.17699e-06 -1.58898e-08 2.76027e-05 1.37578e-21 2.76027e-05)
(2.76027e-05 -1.17699e-06 -1.58898e-08 2.76027e-05 1.0898e-23 2.76027e-05)
(3.15849e-05 -1.46076e-06 -2.00887e-08 3.15849e-05 1.74607e-21 3.15849e-05)
(3.15849e-05 -1.46076e-06 -2.00887e-08 3.15849e-05 1.47318e-23 3.15849e-05)
(3.60335e-05 -1.80409e-06 -2.52731e-08 3.60335e-05 2.20591e-21 3.60335e-05)
(3.60335e-05 -1.80409e-06 -2.52731e-08 3.60335e-05 1.992e-23 3.60335e-05)
(4.09927e-05 -2.21784e-06 -3.16488e-08 4.09927e-05 2.7758e-21 4.09927e-05)
(4.09927e-05 -2.21784e-06 -3.16488e-08 4.09927e-05 2.49375e-23 4.09927e-05)
(4.65103e-05 -2.71456e-06 -3.94595e-08 4.65103e-05 3.47146e-21 4.65103e-05)
(4.65103e-05 -2.71456e-06 -3.94595e-08 4.65103e-05 3.0609e-23 4.65103e-05)
(5.26377e-05 -3.30873e-06 -4.89936e-08 5.26377e-05 4.3215e-21 5.26377e-05)
(5.26377e-05 -3.30873e-06 -4.89936e-08 5.26377e-05 4.25029e-23 5.26377e-05)
(5.943e-05 -4.01701e-06 -6.05906e-08 5.943e-05 5.36163e-21 5.943e-05)
(5.943e-05 -4.01701e-06 -6.05906e-08 5.943e-05 5.90873e-23 5.943e-05)
(6.69465e-05 -4.85851e-06 -7.46498e-08 6.69465e-05 6.621e-21 6.69465e-05)
(6.69465e-05 -4.85851e-06 -7.46498e-08 6.69465e-05 7.01655e-23 6.69465e-05)
(7.52506e-05 -5.85509e-06 -9.1639e-08 7.52506e-05 8.13745e-21 7.52506e-05)
(7.52506e-05 -5.85509e-06 -9.1639e-08 7.52506e-05 8.49884e-23 7.52506e-05)
(8.44105e-05 -7.03163e-06 -1.12105e-07 8.44105e-05 9.97765e-21 8.44105e-05)
(8.44105e-05 -7.03163e-06 -1.12105e-07 8.44105e-05 1.13296e-22 8.44105e-05)
(9.44988e-05 -8.41645e-06 -1.36683e-07 9.44988e-05 9.17131e-21 9.44988e-05)
(9.44988e-05 -8.41645e-06 -1.36683e-07 9.44988e-05 1.4713e-22 9.44988e-05)
(0.000105593 -1.00416e-05 -1.66114e-07 0.000105593 7.13363e-21 0.000105593)
(0.000105593 -1.00416e-05 -1.66114e-07 0.000105593 1.84429e-22 0.000105593)
(0.000117776 -1.19433e-05 -2.01254e-07 0.000117776 8.08465e-21 0.000117776)
(0.000117776 -1.19433e-05 -2.01254e-07 0.000117776 2.25896e-22 0.000117776)
(0.000131135 -1.41622e-05 -2.43089e-07 0.000131135 9.59252e-21 0.000131135)
(0.000131135 -1.41622e-05 -2.43089e-07 0.000131135 2.80263e-22 0.000131135)
(0.000145763 -1.67441e-05 -2.92756e-07 0.000145763 1.13084e-20 0.000145763)
(0.000145763 -1.67441e-05 -2.92756e-07 0.000145763 3.46047e-22 0.000145763)
(0.000161759 -1.97398e-05 -3.51556e-07 0.000161759 1.32957e-20 0.000161759)
(0.000161759 -1.97398e-05 -3.51556e-07 0.000161759 3.92997e-22 0.000161759)
(0.000179227 -2.32061e-05 -4.20978e-07 0.000179227 1.5604e-20 0.000179227)
(0.000179227 -2.32061e-05 -4.20978e-07 0.000179227 4.90542e-22 0.000179227)
(0.000198277 -2.72058e-05 -5.02712e-07 0.000198277 1.81746e-20 0.000198277)
(0.000198277 -2.72058e-05 -5.02712e-07 0.000198277 7.00274e-22 0.000198277)
(0.000219022 -3.1808e-05 -5.98676e-07 0.000219022 2.11153e-20 0.000219022)
(0.000219022 -3.1808e-05 -5.98676e-07 0.000219022 8.406e-22 0.000219022)
(0.000241583 -3.70886e-05 -7.11034e-07 0.000241583 2.44922e-20 0.000241583)
(0.000241583 -3.70886e-05 -7.11034e-07 0.000241583 9.38354e-22 0.000241583)
(0.000266084 -4.31304e-05 -8.42214e-07 0.000266084 2.82204e-20 0.000266084)
(0.000266084 -4.31304e-05 -8.42214e-07 0.000266084 1.23273e-21 0.000266084)
(0.000292656 -5.00232e-05 -9.94935e-07 0.000292656 3.22736e-20 0.000292656)
(0.000292656 -5.00232e-05 -9.94935e-07 0.000292656 1.61712e-21 0.000292656)
(0.000321432 -5.78638e-05 -1.17222e-06 0.000321432 3.68754e-20 0.000321432)
(0.000321432 -5.78638e-05 -1.17222e-06 0.000321432 1.96598e-21 0.000321432)
(0.000352548 -6.67557e-05 -1.37741e-06 0.000352548 4.19744e-20 0.000352548)
(0.000352548 -6.67557e-05 -1.37741e-06 0.000352548 2.26286e-21 0.000352548)
(0.000386144 -7.68089e-05 -1.61419e-06 0.000386144 4.74325e-20 0.000386144)
(0.000386144 -7.68089e-05 -1.61419e-06 0.000386144 2.48806e-21 0.000386144)
(0.000422362 -8.81396e-05 -1.88658e-06 0.000422362 5.36691e-20 0.000422362)
(0.000422362 -8.81396e-05 -1.88658e-06 0.000422362 3.04559e-21 0.000422362)
(0.000461344 -0.000100869 -2.19894e-06 0.000461344 6.03495e-20 0.000461344)
(0.000461344 -0.000100869 -2.19894e-06 0.000461344 4.04194e-21 0.000461344)
(0.000503232 -0.000115122 -2.556e-06 0.000503232 6.72798e-20 0.000503232)
(0.000503232 -0.000115122 -2.556e-06 0.000503232 5.1534e-21 0.000503232)
(0.000548165 -0.000131027 -2.9628e-06 0.000548165 7.47672e-20 0.000548165)
(0.000548165 -0.000131027 -2.9628e-06 0.000548165 5.88781e-21 0.000548165)
(0.000596279 -0.000148713 -3.42469e-06 0.000596279 8.24315e-20 0.000596279)
(0.000596279 -0.000148713 -3.42469e-06 0.000596279 6.26388e-21 0.000596279)
(0.000647703 -0.000168309 -3.94732e-06 0.000647703 9.05363e-20 0.000647703)
(0.000647703 -0.000168309 -3.94732e-06 0.000647703 7.46532e-21 0.000647703)
(0.000702561 -0.000189941 -4.53657e-06 0.000702561 9.88001e-20 0.000702561)
(0.000702561 -0.000189941 -4.53657e-06 0.000702561 9.79446e-21 0.000702561)
(0.000760964 -0.000213729 -5.1985e-06 0.000760964 1.07517e-19 0.000760964)
(0.000760964 -0.000213729 -5.1985e-06 0.000760964 1.15857e-20 0.000760964)
(0.000823016 -0.000239786 -5.93932e-06 0.000823016 1.17561e-19 0.000823016)
(0.000823016 -0.000239786 -5.93932e-06 0.000823016 1.3085e-20 0.000823016)
(0.000888801 -0.000268214 -6.76527e-06 0.000888801 1.26918e-19 0.000888801)
(0.000888801 -0.000268214 -6.76527e-06 0.000888801 1.59165e-20 0.000888801)
(0.000958391 -0.000299104 -7.68258e-06 0.000958391 1.36204e-19 0.000958391)
(0.000958391 -0.000299104 -7.68258e-06 0.000958391 1.84865e-20 0.000958391)
(0.00103184 -0.000332527 -8.69736e-06 0.00103184 1.42306e-19 0.00103184)
(0.00103184 -0.000332527 -8.69736e-06 0.00103184 2.12134e-20 0.00103184)
(0.00110917 -0.000368539 -9.81549e-06 0.00110917 1.45012e-19 0.00110917)
(0.00110917 -0.000368539 -9.81549e-06 0.00110917 2.44843e-20 0.00110917)
(0.0011904 -0.000407174 -1.10426e-05 0.0011904 1.47439e-19 0.0011904)
(0.0011904 -0.000407174 -1.10426e-05 0.0011904 2.71234e-20 0.0011904)
(0.0012755 -0.000448441 -1.23837e-05 0.0012755 1.45093e-19 0.0012755)
(0.0012755 -0.000448441 -1.23837e-05 0.0012755 3.36413e-20 0.0012755)
(0.00136445 -0.000492327 -1.38437e-05 0.00136445 1.43596e-19 0.00136445)
(0.00136445 -0.000492327 -1.38437e-05 0.00136445 4.334e-20 0.00136445)
(0.00145716 -0.000538793 -1.54265e-05 0.00145716 1.40578e-19 0.00145716)
(0.00145716 -0.000538793 -1.54265e-05 0.00145716 4.81819e-20 0.00145716)
(0.00155354 -0.000587772 -1.71357e-05 0.00155354 1.34564e-19 0.00155354)
(0.00155354 -0.000587772 -1.71357e-05 0.00155354 5.20666e-20 0.00155354)
(0.00165347 -0.000639175 -1.89739e-05 0.00165347 1.31033e-19 0.00165347)
(0.00165347 -0.000639175 -1.89739e-05 0.00165347 6.24755e-20 0.00165347)
(0.0017568 -0.000692884 -2.09431e-05 0.0017568 1.25408e-19 0.0017568)
(0.0017568 -0.000692884 -2.09431e-05 0.0017568 7.28524e-20 0.0017568)
(0.00186336 -0.000748759 -2.30445e-05 0.00186336 1.11284e-19 0.00186336)
(0.00186336 -0.000748759 -2.30445e-05 0.00186336 7.95065e-20 0.00186336)
(0.00197294 -0.000806641 -2.52785e-05 0.00197294 8.42983e-20 0.00197294)
(0.00197294 -0.000806641 -2.52785e-05 0.00197294 9.06362e-20 0.00197294)
(0.00208533 -0.000866348 -2.76448e-05 0.00208533 5.29747e-20 0.00208533)
(0.00208533 -0.000866348 -2.76448e-05 0.00208533 1.06358e-19 0.00208533)
(0.00220027 -0.000927686 -3.01422e-05 0.00220027 2.18198e-20 0.00220027)
(0.00220027 -0.000927686 -3.01422e-05 0.00220027 1.2222e-19 0.00220027)
(0.00231752 -0.000990446 -3.27689e-05 0.00231752 1.39584e-20 0.00231752)
(0.00231752 -0.000990446 -3.27689e-05 0.00231752 1.29924e-19 0.00231752)
(0.0024368 -0.00105441 -3.55226e-05 0.0024368 -2.76581e-20 0.0024368)
(0.0024368 -0.00105441 -3.55226e-05 0.0024368 1.40392e-19 0.0024368)
(0.00255783 -0.00111936 -3.84003e-05 0.00255783 -7.62837e-20 0.00255783)
(0.00255783 -0.00111936 -3.84003e-05 0.00255783 1.65458e-19 0.00255783)
(0.00268031 -0.00118507 -4.13985e-05 0.00268031 -1.24259e-19 0.00268031)
(0.00268031 -0.00118507 -4.13985e-05 0.00268031 1.92662e-19 0.00268031)
(0.00280396 -0.00125131 -4.45134e-05 0.00280396 -1.56361e-19 0.00280396)
(0.00280396 -0.00125131 -4.45134e-05 0.00280396 2.14475e-19 0.00280396)
(0.00292847 -0.00131786 -4.77408e-05 0.00292847 -2.10135e-19 0.00292847)
(0.00292847 -0.00131786 -4.77408e-05 0.00292847 2.41187e-19 0.00292847)
(0.00305354 -0.00138453 -5.10764e-05 0.00305354 -2.86772e-19 0.00305354)
(0.00305354 -0.00138453 -5.10764e-05 0.00305354 2.68404e-19 0.00305354)
(0.0031789 -0.00145109 -5.45158e-05 0.0031789 -3.42285e-19 0.0031789)
(0.0031789 -0.00145109 -5.45158e-05 0.0031789 2.90446e-19 0.0031789)
(0.00330425 -0.00151736 -5.80543e-05 0.00330425 -3.81558e-19 0.00330425)
(0.00330425 -0.00151736 -5.80543e-05 0.00330425 3.21065e-19 0.00330425)
(0.00342932 -0.00158316 -6.16875e-05 0.00342932 -4.28677e-19 0.00342932)
(0.00342932 -0.00158316 -6.16875e-05 0.00342932 3.58564e-19 0.00342932)
(0.00355385 -0.00164832 -6.54108e-05 0.00355385 -4.69637e-19 0.00355385)
(0.00355385 -0.00164832 -6.54108e-05 0.00355385 3.89618e-19 0.00355385)
(0.0036776 -0.0017127 -6.922e-05 0.0036776 -4.92027e-19 0.0036776)
(0.0036776 -0.0017127 -6.922e-05 0.0036776 4.26139e-19 0.0036776)
(0.00380032 -0.00177615 -7.31109e-05 0.00380032 -5.45427e-19 0.00380032)
(0.00380032 -0.00177615 -7.31109e-05 0.00380032 4.80483e-19 0.00380032)
(0.00392181 -0.00183856 -7.70795e-05 0.00392181 -6.10559e-19 0.00392181)
(0.00392181 -0.00183856 -7.70795e-05 0.00392181 5.31352e-19 0.00392181)
(0.00404185 -0.00189981 -8.11222e-05 0.00404185 -6.55873e-19 0.00404185)
(0.00404185 -0.00189981 -8.11222e-05 0.00404185 5.88992e-19 0.00404185)
(0.00416027 -0.00195982 -8.52354e-05 0.00416027 -6.47352e-19 0.00416027)
(0.00416027 -0.00195982 -8.52354e-05 0.00416027 6.70443e-19 0.00416027)
(0.00427689 -0.00201851 -8.94159e-05 0.00427689 -6.29641e-19 0.00427689)
(0.00427689 -0.00201851 -8.94159e-05 0.00427689 7.20139e-19 0.00427689)
(0.00439156 -0.0020758 -9.36609e-05 0.00439156 -6.49292e-19 0.00439156)
(0.00439156 -0.0020758 -9.36609e-05 0.00439156 7.64756e-19 0.00439156)
(0.00450415 -0.00213165 -9.79677e-05 0.00450415 -6.64221e-19 0.00450415)
(0.00450415 -0.00213165 -9.79677e-05 0.00450415 8.45674e-19 0.00450415)
(0.00461454 -0.00218601 -0.000102334 0.00461454 -6.4734e-19 0.00461454)
(0.00461454 -0.00218601 -0.000102334 0.00461454 8.9356e-19 0.00461454)
(0.00472262 -0.00223885 -0.000106757 0.00472262 -6.65197e-19 0.00472262)
(0.00472262 -0.00223885 -0.000106757 0.00472262 9.20522e-19 0.00472262)
(0.00482831 -0.00229015 -0.000111236 0.00482831 -7.10127e-19 0.00482831)
(0.00482831 -0.00229015 -0.000111236 0.00482831 1.00858e-18 0.00482831)
(0.00493153 -0.00233988 -0.000115769 0.00493153 -7.04504e-19 0.00493153)
(0.00493153 -0.00233988 -0.000115769 0.00493153 1.09797e-18 0.00493153)
(0.00503222 -0.00238805 -0.000120354 0.00503222 -7.06843e-19 0.00503222)
(0.00503222 -0.00238805 -0.000120354 0.00503222 1.16202e-18 0.00503222)
(0.00513032 -0.00243465 -0.000124991 0.00513032 -6.92357e-19 0.00513032)
(0.00513032 -0.00243465 -0.000124991 0.00513032 1.17957e-18 0.00513032)
(0.0052258 -0.00247968 -0.000129678 0.0052258 -7.17948e-19 0.0052258)
(0.0052258 -0.00247968 -0.000129678 0.0052258 1.17162e-18 0.0052258)
(0.00531863 -0.00252316 -0.000134414 0.00531863 -7.47443e-19 0.00531863)
(0.00531863 -0.00252316 -0.000134414 0.00531863 1.28534e-18 0.00531863)
(0.0054088 -0.0025651 -0.0001392 0.0054088 -6.79676e-19 0.0054088)
(0.0054088 -0.0025651 -0.0001392 0.0054088 1.48933e-18 0.0054088)
(0.00549629 -0.00260552 -0.000144034 0.00549629 -6.10424e-19 0.00549629)
(0.00549629 -0.00260552 -0.000144034 0.00549629 1.64869e-18 0.00549629)
(0.00558109 -0.00264444 -0.000148917 0.00558109 -4.96411e-19 0.00558109)
(0.00558109 -0.00264444 -0.000148917 0.00558109 1.78823e-18 0.00558109)
(0.00566323 -0.00268188 -0.000153848 0.00566323 -2.69426e-19 0.00566323)
(0.00566323 -0.00268188 -0.000153848 0.00566323 1.8916e-18 0.00566323)
(0.0057427 -0.00271787 -0.000158827 0.0057427 -2.89159e-20 0.0057427)
(0.0057427 -0.00271787 -0.000158827 0.0057427 1.83762e-18 0.0057427)
(0.00581952 -0.00275244 -0.000163855 0.00581952 -1.65913e-20 0.00581952)
(0.00581952 -0.00275244 -0.000163855 0.00581952 1.78676e-18 0.00581952)
(0.00589372 -0.00278561 -0.000168932 0.00589372 -8.04412e-20 0.00589372)
(0.00589372 -0.00278561 -0.000168932 0.00589372 2.04025e-18 0.00589372)
(0.00596532 -0.00281742 -0.000174057 0.00596532 -7.32718e-20 0.00596532)
(0.00596532 -0.00281742 -0.000174057 0.00596532 2.28695e-18 0.00596532)
(0.00603435 -0.00284789 -0.000179231 0.00603435 -8.31973e-20 0.00603435)
(0.00603435 -0.00284789 -0.000179231 0.00603435 2.22207e-18 0.00603435)
(0.00610084 -0.00287707 -0.000184456 0.00610084 -1.19772e-19 0.00610084)
(0.00610084 -0.00287707 -0.000184456 0.00610084 2.32978e-18 0.00610084)
(0.00616483 -0.00290497 -0.00018973 0.00616483 -2.14684e-19 0.00616483)
(0.00616483 -0.00290497 -0.00018973 0.00616483 2.70588e-18 0.00616483)
(0.00622636 -0.00293163 -0.000195055 0.00622636 -2.5914e-19 0.00622636)
(0.00622636 -0.00293163 -0.000195055 0.00622636 2.91959e-18 0.00622636)
(0.00628546 -0.00295708 -0.000200432 0.00628546 -1.76488e-19 0.00628546)
(0.00628546 -0.00295708 -0.000200432 0.00628546 3.08139e-18 0.00628546)
(0.00634217 -0.00298135 -0.00020586 0.00634217 4.7827e-20 0.00634217)
(0.00634217 -0.00298135 -0.00020586 0.00634217 3.11974e-18 0.00634217)
(0.00639655 -0.00300447 -0.000211341 0.00639655 4.85582e-20 0.00639655)
(0.00639655 -0.00300447 -0.000211341 0.00639655 3.31809e-18 0.00639655)
(0.00644863 -0.00302648 -0.000216874 0.00644863 -3.65694e-19 0.00644863)
(0.00644863 -0.00302648 -0.000216874 0.00644863 3.75585e-18 0.00644863)
(0.00649845 -0.00304739 -0.000222462 0.00649845 -4.93711e-19 0.00649845)
(0.00649845 -0.00304739 -0.000222462 0.00649845 3.93906e-18 0.00649845)
(0.00654605 -0.00306725 -0.000228104 0.00654605 -6.35425e-19 0.00654605)
(0.00654605 -0.00306725 -0.000228104 0.00654605 4.07069e-18 0.00654605)
(0.00659149 -0.00308607 -0.000233802 0.00659149 -9.65582e-19 0.00659149)
(0.00659149 -0.00308607 -0.000233802 0.00659149 4.24337e-18 0.00659149)
(0.00663479 -0.00310388 -0.000239555 0.00663479 -6.17985e-19 0.00663479)
(0.00663479 -0.00310388 -0.000239555 0.00663479 4.24764e-18 0.00663479)
(0.00667602 -0.00312071 -0.000245365 0.00667602 -5.87462e-19 0.00667602)
(0.00667602 -0.00312071 -0.000245365 0.00667602 4.49014e-18 0.00667602)
(0.0067152 -0.00313659 -0.000251232 0.0067152 -9.80636e-19 0.0067152)
(0.0067152 -0.00313659 -0.000251232 0.0067152 4.79999e-18 0.0067152)
(0.00675238 -0.00315154 -0.000257156 0.00675238 -7.76741e-19 0.00675238)
(0.00675238 -0.00315154 -0.000257156 0.00675238 4.98177e-18 0.00675238)
(0.00678761 -0.00316558 -0.000263139 0.00678761 -8.4698e-19 0.00678761)
(0.00678761 -0.00316558 -0.000263139 0.00678761 5.49972e-18 0.00678761)
(0.00682091 -0.00317874 -0.000269181 0.00682091 -9.10506e-19 0.00682091)
(0.00682091 -0.00317874 -0.000269181 0.00682091 5.64364e-18 0.00682091)
(0.00685234 -0.00319103 -0.000275282 0.00685234 -3.96521e-19 0.00685234)
(0.00685234 -0.00319103 -0.000275282 0.00685234 5.66629e-18 0.00685234)
(0.00688192 -0.00320249 -0.000281444 0.00688192 3.25737e-19 0.00688192)
(0.00688192 -0.00320249 -0.000281444 0.00688192 6.06774e-18 0.00688192)
(0.0069097 -0.00321312 -0.000287666 0.0069097 6.81693e-19 0.0069097)
(0.0069097 -0.00321312 -0.000287666 0.0069097 6.37987e-18 0.0069097)
(0.00693571 -0.00322294 -0.000293949 0.00693571 6.7584e-19 0.00693571)
(0.00693571 -0.00322294 -0.000293949 0.00693571 6.72215e-18 0.00693571)
(0.00696 -0.00323199 -0.000300293 0.00696 5.06576e-19 0.00696)
(0.00696 -0.00323199 -0.000300293 0.00696 7.39989e-18 0.00696)
(0.00698258 -0.00324026 -0.0003067 0.00698258 2.40085e-20 0.00698258)
(0.00698258 -0.00324026 -0.0003067 0.00698258 7.74525e-18 0.00698258)
(0.0070035 -0.00324779 -0.000313168 0.0070035 3.05938e-19 0.0070035)
(0.0070035 -0.00324779 -0.000313168 0.0070035 8.17235e-18 0.0070035)
(0.00702279 -0.00325458 -0.000319698 0.00702279 8.52296e-19 0.00702279)
(0.00702279 -0.00325458 -0.000319698 0.00702279 8.26282e-18 0.00702279)
(0.00704048 -0.00326065 -0.000326291 0.00704048 7.05141e-19 0.00704048)
(0.00704048 -0.00326065 -0.000326291 0.00704048 8.4099e-18 0.00704048)
(0.0070566 -0.00326602 -0.000332947 0.0070566 -2.3607e-19 0.0070566)
(0.0070566 -0.00326602 -0.000332947 0.0070566 9.19933e-18 0.0070566)
(0.00707118 -0.0032707 -0.000339666 0.00707118 -1.63779e-19 0.00707118)
(0.00707118 -0.0032707 -0.000339666 0.00707118 9.53675e-18 0.00707118)
(0.00708424 -0.00327469 -0.000346447 0.00708424 5.22791e-19 0.00708424)
(0.00708424 -0.00327469 -0.000346447 0.00708424 9.8329e-18 0.00708424)
(0.00709581 -0.00327802 -0.000353291 0.00709581 1.55257e-18 0.00709581)
(0.00709581 -0.00327802 -0.000353291 0.00709581 1.03752e-17 0.00709581)
(0.00710592 -0.0032807 -0.000360198 0.00710592 1.78516e-18 0.00710592)
(0.00710592 -0.0032807 -0.000360198 0.00710592 1.10686e-17 0.00710592)
(0.00711459 -0.00328273 -0.000367167 0.00711459 2.24104e-18 0.00711459)
(0.00711459 -0.00328273 -0.000367167 0.00711459 9.88445e-18 0.00711459)
(0.00712184 -0.00328413 -0.000374198 0.00712184 2.41671e-18 0.00712184)
(0.00712184 -0.00328413 -0.000374198 0.00712184 7.70635e-18 0.00712184)
(0.0071277 -0.0032849 -0.00038129 0.0071277 1.4169e-18 0.0071277)
(0.0071277 -0.0032849 -0.00038129 0.0071277 8.74776e-18 0.0071277)
(0.00713219 -0.00328506 -0.000388444 0.00713219 1.41237e-18 0.00713219)
(0.00713219 -0.00328506 -0.000388444 0.00713219 1.09011e-17 0.00713219)
(0.00713532 -0.0032846 -0.000395659 0.00713532 2.15343e-19 0.00713532)
(0.00713532 -0.0032846 -0.000395659 0.00713532 1.17129e-17 0.00713532)
(0.00713712 -0.00328355 -0.000402933 0.00713712 -3.9469e-18 0.00713712)
(0.00713712 -0.00328355 -0.000402933 0.00713712 1.42832e-17 0.00713712)
(0.0071376 -0.00328191 -0.000410267 0.0071376 -7.61692e-18 0.0071376)
(0.0071376 -0.00328191 -0.000410267 0.0071376 1.97464e-17 0.0071376)
(0.00713678 -0.00327968 -0.000417659 0.00713678 -6.16625e-18 0.00713678)
(0.00713678 -0.00327968 -0.000417659 0.00713678 2.04969e-17 0.00713678)
(0.00713468 -0.00327687 -0.000425108 0.00713468 -5.2808e-18 0.00713468)
(0.00713468 -0.00327687 -0.000425108 0.00713468 2.04923e-17 0.00713468)
(0.00713131 -0.00327348 -0.000432613 0.00713131 -5.79941e-18 0.00713131)
(0.00713131 -0.00327348 -0.000432613 0.00713131 2.09718e-17 0.00713131)
(0.00712669 -0.00326953 -0.000440173 0.00712669 -5.16176e-18 0.00712669)
(0.00712669 -0.00326953 -0.000440173 0.00712669 2.29896e-17 0.00712669)
(0.00712082 -0.00326501 -0.000447786 0.00712082 -1.58609e-18 0.00712082)
(0.00712082 -0.00326501 -0.000447786 0.00712082 2.38602e-17 0.00712082)
(0.00711373 -0.00325993 -0.000455451 0.00711373 5.96671e-19 0.00711373)
(0.00711373 -0.00325993 -0.000455451 0.00711373 2.36855e-17 0.00711373)
(0.00710542 -0.00325429 -0.000463167 0.00710542 1.17026e-18 0.00710542)
(0.00710542 -0.00325429 -0.000463167 0.00710542 2.4758e-17 0.00710542)
(0.0070959 -0.00324809 -0.00047093 0.0070959 2.46377e-18 0.0070959)
(0.0070959 -0.00324809 -0.00047093 0.0070959 2.44013e-17 0.0070959)
(0.00708518 -0.00324135 -0.00047874 0.00708518 2.91571e-18 0.00708518)
(0.00708518 -0.00324135 -0.00047874 0.00708518 2.41544e-17 0.00708518)
(0.00707327 -0.00323405 -0.000486594 0.00707327 2.59144e-18 0.00707327)
(0.00707327 -0.00323405 -0.000486594 0.00707327 2.42795e-17 0.00707327)
(0.00706018 -0.00322621 -0.00049449 0.00706018 3.38379e-18 0.00706018)
(0.00706018 -0.00322621 -0.00049449 0.00706018 2.4596e-17 0.00706018)
(0.00704592 -0.00321782 -0.000502425 0.00704592 5.60201e-18 0.00704592)
(0.00704592 -0.00321782 -0.000502425 0.00704592 2.60457e-17 0.00704592)
(0.00703049 -0.00320889 -0.000510397 0.00703049 5.46855e-18 0.00703049)
(0.00703049 -0.00320889 -0.000510397 0.00703049 2.73073e-17 0.00703049)
(0.0070139 -0.00319941 -0.000518402 0.0070139 3.27171e-18 0.0070139)
(0.0070139 -0.00319941 -0.000518402 0.0070139 2.762e-17 0.0070139)
(0.00699616 -0.00318939 -0.000526437 0.00699616 1.66929e-18 0.00699616)
(0.00699616 -0.00318939 -0.000526437 0.00699616 2.77928e-17 0.00699616)
(0.00697726 -0.00317883 -0.000534499 0.00697726 2.58868e-18 0.00697726)
(0.00697726 -0.00317883 -0.000534499 0.00697726 2.87495e-17 0.00697726)
(0.00695722 -0.00316772 -0.000542585 0.00695722 1.88191e-18 0.00695722)
(0.00695722 -0.00316772 -0.000542585 0.00695722 2.88461e-17 0.00695722)
(0.00693603 -0.00315606 -0.00055069 0.00693603 2.39503e-18 0.00693603)
(0.00693603 -0.00315606 -0.00055069 0.00693603 2.89962e-17 0.00693603)
(0.0069137 -0.00314386 -0.00055881 0.0069137 1.63447e-18 0.0069137)
(0.0069137 -0.00314386 -0.00055881 0.0069137 2.85677e-17 0.0069137)
(0.00689023 -0.00313111 -0.000566942 0.00689023 -1.11843e-18 0.00689023)
(0.00689023 -0.00313111 -0.000566942 0.00689023 2.98332e-17 0.00689023)
(0.00686562 -0.00311781 -0.00057508 0.00686562 -2.91567e-20 0.00686562)
(0.00686562 -0.00311781 -0.00057508 0.00686562 3.08657e-17 0.00686562)
(0.00683987 -0.00310396 -0.00058322 0.00683987 1.00587e-18 0.00683987)
(0.00683987 -0.00310396 -0.00058322 0.00683987 3.19922e-17 0.00683987)
(0.00681298 -0.00308956 -0.000591356 0.00681298 1.70389e-18 0.00681298)
(0.00681298 -0.00308956 -0.000591356 0.00681298 3.28804e-17 0.00681298)
(0.00678496 -0.00307459 -0.000599482 0.00678496 1.59322e-19 0.00678496)
(0.00678496 -0.00307459 -0.000599482 0.00678496 3.26753e-17 0.00678496)
(0.00675579 -0.00305907 -0.000607594 0.00675579 -3.60827e-18 0.00675579)
(0.00675579 -0.00305907 -0.000607594 0.00675579 3.39626e-17 0.00675579)
(0.00672548 -0.00304299 -0.000615684 0.00672548 -6.52567e-18 0.00672548)
(0.00672548 -0.00304299 -0.000615684 0.00672548 3.43142e-17 0.00672548)
(0.00669403 -0.00302634 -0.000623746 0.00669403 -3.11203e-18 0.00669403)
(0.00669403 -0.00302634 -0.000623746 0.00669403 3.50559e-17 0.00669403)
(0.00666143 -0.00300912 -0.000631774 0.00666143 7.19841e-19 0.00666143)
(0.00666143 -0.00300912 -0.000631774 0.00666143 3.34605e-17 0.00666143)
(0.00662769 -0.00299132 -0.00063976 0.00662769 -1.36646e-18 0.00662769)
(0.00662769 -0.00299132 -0.00063976 0.00662769 3.39233e-17 0.00662769)
(0.00659279 -0.00297294 -0.000647695 0.00659279 2.28595e-19 0.00659279)
(0.00659279 -0.00297294 -0.000647695 0.00659279 3.6701e-17 0.00659279)
(0.00655673 -0.00295398 -0.000655574 0.00655673 3.4634e-19 0.00655673)
(0.00655673 -0.00295398 -0.000655574 0.00655673 3.84367e-17 0.00655673)
(0.00651952 -0.00293443 -0.000663385 0.00651952 4.81103e-18 0.00651952)
(0.00651952 -0.00293443 -0.000663385 0.00651952 3.33649e-17 0.00651952)
(0.00648113 -0.00291429 -0.000671122 0.00648113 8.47385e-18 0.00648113)
(0.00648113 -0.00291429 -0.000671122 0.00648113 2.20967e-17 0.00648113)
(0.00644158 -0.00289355 -0.000678773 0.00644158 2.74751e-18 0.00644158)
(0.00644158 -0.00289355 -0.000678773 0.00644158 2.47681e-17 0.00644158)
(0.00640085 -0.0028722 -0.00068633 0.00640085 4.26541e-18 0.00640085)
(0.00640085 -0.0028722 -0.00068633 0.00640085 2.48427e-17 0.00640085)
(0.00635894 -0.00285024 -0.000693781 0.00635894 9.01601e-18 0.00635894)
(0.00635894 -0.00285024 -0.000693781 0.00635894 1.56023e-17 0.00635894)
(0.00631584 -0.00282766 -0.000701116 0.00631584 8.85226e-18 0.00631584)
(0.00631584 -0.00282766 -0.000701116 0.00631584 1.03332e-17 0.00631584)
(0.00627155 -0.00280445 -0.000708324 0.00627155 3.68928e-18 0.00627155)
(0.00627155 -0.00280445 -0.000708324 0.00627155 1.25277e-17 0.00627155)
(0.00622606 -0.00278062 -0.000715391 0.00622606 2.10503e-18 0.00622606)
(0.00622606 -0.00278062 -0.000715391 0.00622606 8.92294e-18 0.00622606)
(0.00617936 -0.00275614 -0.000722306 0.00617936 -3.86903e-19 0.00617936)
(0.00617936 -0.00275614 -0.000722306 0.00617936 3.73551e-18 0.00617936)
(0.00613144 -0.00273102 -0.000729055 0.00613144 1.82951e-18 0.00613144)
(0.00613144 -0.00273102 -0.000729055 0.00613144 5.78067e-19 0.00613144)
(0.00608231 -0.00270525 -0.000735624 0.00608231 3.83172e-18 0.00608231)
(0.00608231 -0.00270525 -0.000735624 0.00608231 4.09402e-18 0.00608231)
(0.00603195 -0.00267881 -0.000741998 0.00603195 9.18933e-18 0.00603195)
(0.00603195 -0.00267881 -0.000741998 0.00603195 -1.02235e-18 0.00603195)
(0.00598036 -0.0026517 -0.000748162 0.00598036 1.35743e-18 0.00598036)
(0.00598036 -0.0026517 -0.000748162 0.00598036 1.68785e-18 0.00598036)
(0.00592752 -0.00262392 -0.0007541 0.00592752 -5.57954e-18 0.00592752)
(0.00592752 -0.00262392 -0.0007541 0.00592752 9.50942e-18 0.00592752)