/*--------------------------------*- C++ -*----------------------------------*\
| =========                 |                                                 |
| \\      /  F ield         | OpenFOAM: The Open Source CFD Toolbox           |
|  \\    /   O peration     | Version:  2106                                  |
|   \\  /    A nd           | Website:  www.openfoam.com                      |
|    \\/     M anipulation  |                                                 |
\*---------------------------------------------------------------------------*/
FoamFile
{
    version     2.0;
    format      ascii;
    arch        "LSB;label=32;scalar=64";
    class       volVectorField;
    location    "10060";
    object      U;
}
// * * * * * * * * * * * * * * * * * * * * * * * * * * * * * * * * * * * * * //

dimensions      [0 1 -1 0 0 0 0];

internalField   nonuniform List<vector> 
2000
(
(0.00120312 -7.41992e-16 -8.80063e-18)
(0.00120312 -1.28692e-19 4.47164e-33)
(0.00363138 -2.45643e-15 -2.02626e-17)
(0.00363138 -1.44374e-19 -1.85135e-21)
(0.00610449 -2.37102e-15 -2.10366e-17)
(0.00610449 -3.97754e-19 -9.79143e-22)
(0.00862328 -2.27284e-15 -2.14378e-17)
(0.00862328 -6.10348e-19 -3.66608e-22)
(0.0111886 -2.13593e-15 -2.20895e-17)
(0.0111886 -8.434e-19 1.86035e-22)
(0.0138012 -2.20099e-15 -2.29539e-17)
(0.0138012 -1.09354e-18 4.70437e-22)
(0.0164621 -2.20649e-15 -2.39379e-17)
(0.0164621 -1.36053e-18 6.99125e-22)
(0.019172 -2.20757e-15 -2.50008e-17)
(0.019172 -1.6319e-18 1.53668e-21)
(0.0219319 -2.2079e-15 -2.61279e-17)
(0.0219319 -1.91964e-18 2.46162e-21)
(0.0247427 -2.20798e-15 -2.73117e-17)
(0.0247427 -2.21655e-18 2.76845e-21)
(0.0276053 -2.20784e-15 -2.85489e-17)
(0.0276053 -2.50991e-18 2.83974e-21)
(0.0305206 -2.20751e-15 -2.98389e-17)
(0.0305206 -2.81877e-18 3.57008e-21)
(0.0334896 -2.20707e-15 -3.11826e-17)
(0.0334896 -3.15024e-18 4.74223e-21)
(0.0365133 -2.20658e-15 -3.25818e-17)
(0.0365133 -3.49987e-18 5.86512e-21)
(0.0395926 -2.20603e-15 -3.40387e-17)
(0.0395926 -3.84746e-18 6.72501e-21)
(0.0427286 -2.2055e-15 -3.55555e-17)
(0.0427286 -4.19389e-18 6.91635e-21)
(0.0459222 -2.20497e-15 -3.71345e-17)
(0.0459222 -4.5689e-18 6.79621e-21)
(0.0491746 -2.20438e-15 -3.87784e-17)
(0.0491746 -4.95803e-18 8.61169e-21)
(0.0524867 -2.20375e-15 -4.04895e-17)
(0.0524867 -5.38606e-18 9.93345e-21)
(0.0558597 -2.20307e-15 -4.22705e-17)
(0.0558597 -5.86954e-18 1.0048e-20)
(0.0592947 -2.20241e-15 -4.41243e-17)
(0.0592947 -6.3012e-18 1.27811e-20)
(0.0627927 -2.20174e-15 -4.60537e-17)
(0.0627927 -6.726e-18 1.55619e-20)
(0.0663548 -2.20106e-15 -4.80614e-17)
(0.0663548 -7.20954e-18 1.65824e-20)
(0.0699823 -2.20035e-15 -5.01509e-17)
(0.0699823 -7.70794e-18 1.94885e-20)
(0.0736763 -2.19962e-15 -5.34519e-17)
(0.0736763 -8.28852e-18 2.10354e-20)
(0.0774379 -2.19881e-15 -5.71111e-17)
(0.0774379 -8.87706e-18 2.34946e-20)
(0.0812685 -2.19796e-15 -6.09304e-17)
(0.0812685 -9.43448e-18 2.6835e-20)
(0.0851691 -2.19711e-15 -6.49211e-17)
(0.0851691 -1.00771e-17 2.87891e-20)
(0.0891411 -2.19611e-15 -6.90853e-17)
(0.0891411 -1.07367e-17 3.21169e-20)
(0.0931856 -2.19496e-15 -7.34307e-17)
(0.0931856 -1.14862e-17 3.51723e-20)
(0.097304 -2.19382e-15 -7.79574e-17)
(0.097304 -1.21508e-17 3.86861e-20)
(0.101498 -2.19278e-15 -8.26801e-17)
(0.101498 -1.2764e-17 4.24426e-20)
(0.105768 -2.19173e-15 -8.7601e-17)
(0.105768 -1.35643e-17 4.75224e-20)
(0.110115 -2.19061e-15 -9.27264e-17)
(0.110115 -1.44033e-17 5.33887e-20)
(0.114542 -2.18946e-15 -9.80598e-17)
(0.114542 -1.52173e-17 5.801e-20)
(0.119049 -2.1881e-15 -1.0362e-16)
(0.119049 -1.61846e-17 6.18948e-20)
(0.123638 -2.18664e-15 -1.09407e-16)
(0.123638 -1.72637e-17 7.2627e-20)
(0.12831 -2.18526e-15 -1.15422e-16)
(0.12831 -1.81629e-17 8.53247e-20)
(0.133067 -2.184e-15 -1.21683e-16)
(0.133067 -1.89162e-17 8.83676e-20)
(0.137909 -2.1827e-15 -1.28197e-16)
(0.137909 -1.96564e-17 9.02241e-20)
(0.142839 -2.18134e-15 -1.34961e-16)
(0.142839 -2.04481e-17 1.02049e-19)
(0.147857 -2.17983e-15 -1.41982e-16)
(0.147857 -2.14458e-17 1.08443e-19)
(0.152964 -2.17817e-15 -1.49283e-16)
(0.152964 -2.25609e-17 1.13696e-19)
(0.158163 -2.17655e-15 -1.53126e-16)
(0.158163 -2.39205e-17 1.1608e-19)
(0.163454 -2.17463e-15 -1.56678e-16)
(0.163454 -2.52022e-17 1.24143e-19)
(0.168839 -2.17243e-15 -1.60289e-16)
(0.168839 -2.66037e-17 1.31404e-19)
(0.174319 -2.17039e-15 -1.63962e-16)
(0.174319 -2.81782e-17 1.41128e-19)
(0.179894 -2.16839e-15 -1.67684e-16)
(0.179894 -2.95478e-17 1.5565e-19)
(0.185566 -2.16619e-15 -1.71468e-16)
(0.185566 -3.11543e-17 1.89635e-19)
(0.191336 -2.16398e-15 -1.75298e-16)
(0.191336 -3.28968e-17 2.0515e-19)
(0.197205 -2.16136e-15 -1.79162e-16)
(0.197205 -3.46178e-17 2.02154e-19)
(0.203174 -2.15836e-15 -1.83058e-16)
(0.203174 -3.63111e-17 2.25246e-19)
(0.209242 -2.15551e-15 -1.86996e-16)
(0.209242 -3.79171e-17 2.48806e-19)
(0.215411 -2.15312e-15 -1.90954e-16)
(0.215411 -3.9501e-17 2.51129e-19)
(0.221681 -2.15068e-15 -1.94926e-16)
(0.221681 -4.10883e-17 2.49276e-19)
(0.228052 -2.148e-15 -1.98912e-16)
(0.228052 -4.26518e-17 2.48474e-19)
(0.234523 -2.14557e-15 -2.02891e-16)
(0.234523 -4.43968e-17 2.70448e-19)
(0.241095 -2.14266e-15 -2.06865e-16)
(0.241095 -4.63213e-17 3.11201e-19)
(0.247767 -2.13936e-15 -2.10831e-16)
(0.247767 -4.8762e-17 3.27728e-19)
(0.254538 -2.13572e-15 -2.14764e-16)
(0.254538 -5.13306e-17 3.26396e-19)
(0.261406 -2.13155e-15 -2.18641e-16)
(0.261406 -5.3961e-17 3.14719e-19)
(0.268371 -2.12753e-15 -2.22469e-16)
(0.268371 -5.59067e-17 3.4757e-19)
(0.275429 -2.12359e-15 -2.26228e-16)
(0.275429 -5.77501e-17 4.05859e-19)
(0.28258 -2.11975e-15 -2.29927e-16)
(0.28258 -6.06131e-17 4.35297e-19)
(0.289819 -2.11575e-15 -2.3353e-16)
(0.289819 -6.29251e-17 4.2047e-19)
(0.297144 -2.11088e-15 -2.37059e-16)
(0.297144 -6.54325e-17 4.43129e-19)
(0.304552 -2.1058e-15 -2.40512e-16)
(0.304552 -6.84385e-17 4.58403e-19)
(0.312038 -2.10041e-15 -2.43851e-16)
(0.312038 -7.15175e-17 4.56723e-19)
(0.319598 -2.09564e-15 -2.47087e-16)
(0.319598 -7.45085e-17 4.89367e-19)
(0.327227 -2.09157e-15 -2.501e-16)
(0.327227 -7.75253e-17 5.11296e-19)
(0.334921 -2.08719e-15 -2.52898e-16)
(0.334921 -8.06727e-17 5.59021e-19)
(0.342673 -2.08315e-15 -2.55454e-16)
(0.342673 -8.28693e-17 6.39917e-19)
(0.350478 -2.07836e-15 -2.57706e-16)
(0.350478 -8.68871e-17 6.0829e-19)
(0.358329 -2.07325e-15 -2.5975e-16)
(0.358329 -9.08559e-17 5.59372e-19)
(0.366221 -2.06815e-15 -2.61519e-16)
(0.366221 -9.45358e-17 5.86096e-19)
(0.374147 -2.06232e-15 -2.63072e-16)
(0.374147 -9.86228e-17 6.27271e-19)
(0.382099 -2.05574e-15 -2.64427e-16)
(0.382099 -1.03324e-16 5.99046e-19)
(0.390072 -2.04969e-15 -2.65555e-16)
(0.390072 -1.07573e-16 6.08297e-19)
(0.398058 -2.04466e-15 -2.66425e-16)
(0.398058 -1.09975e-16 6.74293e-19)
(0.406051 -2.03945e-15 -2.66906e-16)
(0.406051 -1.12694e-16 6.83604e-19)
(0.414044 -2.03367e-15 -2.67067e-16)
(0.414044 -1.17059e-16 6.46322e-19)
(0.422031 -2.02712e-15 -2.67015e-16)
(0.422031 -1.20857e-16 6.22633e-19)
(0.430005 -2.01989e-15 -2.66724e-16)
(0.430005 -1.24859e-16 6.95864e-19)
(0.43796 -2.0126e-15 -2.66106e-16)
(0.43796 -1.29073e-16 7.45718e-19)
(0.44589 -2.00522e-15 -2.65137e-16)
(0.44589 -1.3378e-16 7.23619e-19)
(0.45379 -1.9967e-15 -2.63928e-16)
(0.45379 -1.38975e-16 6.8831e-19)
(0.461655 -1.98958e-15 -2.62558e-16)
(0.461655 -1.45013e-16 6.73775e-19)
(0.469479 -1.98548e-15 -2.60907e-16)
(0.469479 -1.50521e-16 6.41084e-19)
(0.477259 -1.981e-15 -2.5902e-16)
(0.477259 -1.52575e-16 6.25281e-19)
(0.48499 -1.97505e-15 -2.56908e-16)
(0.48499 -1.5594e-16 5.9613e-19)
(0.492668 -1.96952e-15 -2.54687e-16)
(0.492668 -1.61078e-16 5.53019e-19)
(0.500291 -1.96345e-15 -2.52331e-16)
(0.500291 -1.64935e-16 5.0607e-19)
(0.507855 -1.95565e-15 -2.49875e-16)
(0.507855 -1.70631e-16 4.88386e-19)
(0.515358 -1.94805e-15 -2.47369e-16)
(0.515358 -1.76126e-16 5.07321e-19)
(0.522797 -1.94101e-15 -2.44656e-16)
(0.522797 -1.80647e-16 4.50618e-19)
(0.530171 -1.9344e-15 -2.41856e-16)
(0.530171 -1.85391e-16 3.8992e-19)
(0.537478 -1.92602e-15 -2.3902e-16)
(0.537478 -1.91839e-16 2.3597e-19)
(0.544717 -1.91783e-15 -2.3632e-16)
(0.544717 -1.9827e-16 3.17889e-20)
(0.551886 -1.91107e-15 -2.33798e-16)
(0.551886 -2.02761e-16 -4.02857e-20)
(0.558985 -1.90403e-15 -2.31243e-16)
(0.558985 -2.06048e-16 -1.55005e-19)
(0.566014 -1.89655e-15 -2.28745e-16)
(0.566014 -2.07875e-16 -3.14686e-19)
(0.572972 -1.88931e-15 -2.26399e-16)
(0.572972 -2.08448e-16 -3.65333e-19)
(0.579859 -1.88183e-15 -2.23937e-16)
(0.579859 -2.13721e-16 -3.80276e-19)
(0.586675 -1.87291e-15 -2.21419e-16)
(0.586675 -2.17865e-16 -5.20146e-19)
(0.59342 -1.86419e-15 -2.18966e-16)
(0.59342 -2.22792e-16 -6.67764e-19)
(0.600095 -1.85568e-15 -2.16564e-16)
(0.600095 -2.28215e-16 -7.36211e-19)
(0.606699 -1.84763e-15 -2.14313e-16)
(0.606699 -2.30848e-16 -4.40227e-19)
(0.613235 -1.84014e-15 -2.11912e-16)
(0.613235 -2.37696e-16 -1.35417e-20)
(0.619702 -1.83024e-15 -2.09659e-16)
(0.619702 -2.42155e-16 1.97427e-19)
(0.626101 -1.81953e-15 -2.07423e-16)
(0.626101 -2.45347e-16 -4.20559e-20)
(0.632433 -1.80993e-15 -2.05488e-16)
(0.632433 -2.51534e-16 -2.24732e-19)
(0.6387 -1.80103e-15 -2.03975e-16)
(0.6387 -2.59585e-16 -5.54119e-19)
(0.644901 -1.79264e-15 -2.03217e-16)
(0.644901 -2.64827e-16 -5.73046e-19)
(0.651038 -1.78646e-15 -2.02861e-16)
(0.651038 -2.70351e-16 -8.83813e-20)
(0.657112 -1.78092e-15 -2.02402e-16)
(0.657112 -2.74913e-16 6.48757e-19)
(0.663124 -1.77477e-15 -2.01836e-16)
(0.663124 -2.78298e-16 5.21495e-19)
(0.669075 -1.76806e-15 -2.01328e-16)
(0.669075 -2.8221e-16 7.24389e-19)
(0.674966 -1.75971e-15 -2.00639e-16)
(0.674966 -2.83844e-16 1.37334e-18)
(0.680799 -1.75e-15 -1.99761e-16)
(0.680799 -2.9711e-16 1.65393e-18)
(0.686574 -1.74006e-15 -1.98504e-16)
(0.686574 -2.98726e-16 1.64119e-18)
(0.692293 -1.73065e-15 -1.97417e-16)
(0.692293 -3.03611e-16 1.61058e-18)
(0.697956 -1.71974e-15 -1.96545e-16)
(0.697956 -3.10425e-16 1.72746e-18)
(0.703566 -1.70975e-15 -1.96088e-16)
(0.703566 -3.1829e-16 2.2313e-18)
(0.709122 -1.70497e-15 -1.9531e-16)
(0.709122 -3.26928e-16 2.26052e-18)
(0.714626 -1.69759e-15 -1.94058e-16)
(0.714626 -3.21181e-16 2.03927e-18)
(0.72008 -1.68982e-15 -1.92449e-16)
(0.72008 -3.25178e-16 1.77795e-18)
(0.725484 -1.68509e-15 -1.90646e-16)
(0.725484 -3.31722e-16 1.80196e-18)
(0.730839 -1.67619e-15 -1.88358e-16)
(0.730839 -3.39941e-16 1.8334e-18)
(0.736147 -1.66823e-15 -1.87153e-16)
(0.736147 -3.54698e-16 2.46805e-18)
(0.741408 -1.6629e-15 -1.85103e-16)
(0.741408 -3.59019e-16 2.397e-18)
(0.746624 -1.65408e-15 -1.8302e-16)
(0.746624 -3.64675e-16 2.59663e-18)
(0.751795 -1.64402e-15 -1.81099e-16)
(0.751795 -3.72439e-16 2.67632e-18)
(0.756922 -1.63454e-15 -1.7858e-16)
(0.756922 -3.77912e-16 2.0316e-18)
(0.762007 -1.62331e-15 -1.76566e-16)
(0.762007 -3.85718e-16 2.58276e-18)
(0.76705 -1.6083e-15 -1.75382e-16)
(0.76705 -3.89799e-16 3.01665e-18)
(0.772053 -1.59564e-15 -1.74946e-16)
(0.772053 -4.03714e-16 3.14385e-18)
(0.777015 -1.58677e-15 -1.75227e-16)
(0.777015 -4.14147e-16 3.8157e-18)
(0.781939 -1.57853e-15 -1.75393e-16)
(0.781939 -4.21389e-16 3.98289e-18)
(0.786825 -1.57213e-15 -1.75013e-16)
(0.786825 -4.23541e-16 3.50504e-18)
(0.791673 -1.56031e-15 -1.74246e-16)
(0.791673 -4.36421e-16 3.38802e-18)
(0.796485 -1.54483e-15 -1.73636e-16)
(0.796485 -4.45619e-16 2.9576e-18)
(0.801261 -1.53458e-15 -1.7371e-16)
(0.801261 -4.50372e-16 3.49997e-18)
(0.806002 -1.52848e-15 -1.73053e-16)
(0.806002 -4.5964e-16 3.52447e-18)
(0.810709 -1.51927e-15 -1.71773e-16)
(0.810709 -4.66957e-16 3.27822e-18)
(0.815383 -1.50553e-15 -1.70665e-16)
(0.815383 -4.79173e-16 3.60312e-18)
(0.820024 -1.48855e-15 -1.7035e-16)
(0.820024 -4.91565e-16 4.02471e-18)
(0.824633 -1.4732e-15 -1.71386e-16)
(0.824633 -5.04752e-16 4.3032e-18)
(0.82921 -1.45663e-15 -1.71962e-16)
(0.82921 -5.22732e-16 4.21886e-18)
(0.833757 -1.43989e-15 -1.73908e-16)
(0.833757 -5.32538e-16 9.78738e-18)
(0.838274 -1.42477e-15 -1.74794e-16)
(0.838274 -5.34524e-16 1.70685e-17)
(0.842762 -1.40856e-15 -1.74885e-16)
(0.842762 -5.51642e-16 2.13722e-17)
(0.84722 -1.40014e-15 -1.74521e-16)
(0.84722 -5.51162e-16 2.44652e-17)
(0.851651 -1.39277e-15 -1.71413e-16)
(0.851651 -5.56172e-16 2.72625e-17)
(0.856054 -1.38429e-15 -1.5926e-16)
(0.856054 -5.69207e-16 2.09828e-17)
(0.860429 -1.37253e-15 -1.48929e-16)
(0.860429 -5.75484e-16 1.45913e-17)
(0.864779 -1.35637e-15 -1.39863e-16)
(0.864779 -5.87361e-16 8.68156e-18)
(0.869102 -1.34088e-15 -1.30749e-16)
(0.869102 -5.94221e-16 3.89711e-18)
(0.873399 -1.32232e-15 -1.20472e-16)
(0.873399 -5.97586e-16 -2.12381e-18)
(0.877671 -1.30269e-15 -1.12226e-16)
(0.877671 -6.0676e-16 -1.06067e-17)
(0.881919 -1.28777e-15 -1.10997e-16)
(0.881919 -6.0983e-16 -1.65361e-17)
(0.886142 -1.27033e-15 -1.09595e-16)
(0.886142 -6.1962e-16 -2.32837e-17)
(0.890342 -1.25206e-15 -1.09055e-16)
(0.890342 -6.30339e-16 -3.05567e-17)
(0.894518 -1.23482e-15 -1.10654e-16)
(0.894518 -6.42235e-16 -3.45182e-17)
(0.898671 -1.21738e-15 -1.11435e-16)
(0.898671 -6.50969e-16 -3.86401e-17)
(0.902802 -1.20292e-15 -1.12027e-16)
(0.902802 -6.52462e-16 -4.1674e-17)
(0.90691 -1.18553e-15 -1.15661e-16)
(0.90691 -6.58177e-16 -4.53121e-17)
(0.910997 -1.16967e-15 -1.20861e-16)
(0.910997 -6.62225e-16 -5.03154e-17)
(0.915062 -1.16102e-15 -1.2448e-16)
(0.915062 -6.6218e-16 -5.52278e-17)
(0.919105 -1.14871e-15 -1.26327e-16)
(0.919105 -6.61677e-16 -5.79675e-17)
(0.923128 -1.13153e-15 -1.26363e-16)
(0.923128 -6.60288e-16 -6.28428e-17)
(0.92713 -1.11772e-15 -1.27077e-16)
(0.92713 -6.62773e-16 -6.65711e-17)
(0.931112 -1.09649e-15 -1.25869e-16)
(0.931112 -6.69779e-16 -6.9945e-17)
(0.935073 -1.0829e-15 -1.25686e-16)
(0.935073 -6.76771e-16 -7.15227e-17)
(0.939015 -1.0779e-15 -1.23853e-16)
(0.939015 -6.74747e-16 -7.28344e-17)
(0.942937 -1.06216e-15 -1.21053e-16)
(0.942937 -6.70669e-16 -7.59488e-17)
(0.946839 -1.04121e-15 -1.17954e-16)
(0.946839 -6.74178e-16 -7.82708e-17)
(0.950722 -1.01924e-15 -1.15691e-16)
(0.950722 -6.80001e-16 -8.13599e-17)
(0.954586 -1.00339e-15 -1.13801e-16)
(0.954586 -6.73394e-16 -8.33098e-17)
(0.958431 -9.97407e-16 -1.09874e-16)
(0.958431 -6.75953e-16 -8.50475e-17)
(0.962257 -9.8942e-16 -1.02337e-16)
(0.962257 -6.73714e-16 -8.78279e-17)
(0.966065 -9.64237e-16 -9.02202e-17)
(0.966065 -6.70848e-16 -8.90937e-17)
(0.969854 -9.39053e-16 -8.41753e-17)
(0.969854 -6.81007e-16 -9.23006e-17)
(0.973624 -9.28256e-16 -8.1458e-17)
(0.973624 -6.77208e-16 -8.90393e-17)
(0.977376 -9.15201e-16 -7.60849e-17)
(0.977376 -6.77035e-16 -8.837e-17)
(0.98111 -9.04892e-16 -7.63831e-17)
(0.98111 -6.80203e-16 -9.10659e-17)
(0.984825 -8.86832e-16 -7.23314e-17)
(0.984825 -7.00889e-16 -9.35613e-17)
(0.988522 -8.64234e-16 -8.04627e-17)
(0.988522 -7.17564e-16 -8.51114e-17)
(0.992201 -8.60115e-16 -8.32953e-17)
(0.992201 -7.18077e-16 -8.18136e-17)
(0.995862 -8.53298e-16 -8.54886e-17)
(0.995862 -7.26543e-16 -8.11523e-17)
(0.999504 -8.35886e-16 -9.09038e-17)
(0.999504 -7.51398e-16 -8.42811e-17)
(1.00313 -8.20974e-16 -1.00009e-16)
(1.00313 -7.75399e-16 -7.96191e-17)
(1.00673 -8.13309e-16 -1.06094e-16)
(1.00673 -7.75571e-16 -8.81617e-17)
(1.01032 -8.0281e-16 -1.07489e-16)
(1.01032 -7.76469e-16 -9.2596e-17)
(1.01389 -7.98499e-16 -1.05648e-16)
(1.01389 -7.93854e-16 -9.75364e-17)
(1.01744 -7.91471e-16 -1.04227e-16)
(1.01744 -8.07963e-16 -9.47563e-17)
(1.02097 -7.74761e-16 -1.0155e-16)
(1.02097 -7.91563e-16 -9.91007e-17)
(1.02448 -7.8233e-16 -1.05095e-16)
(1.02448 -7.86008e-16 -9.64035e-17)
(1.02797 -8.1229e-16 -1.08931e-16)
(1.02797 -7.90161e-16 -9.33386e-17)
(1.03144 -8.1859e-16 -1.04209e-16)
(1.03144 -7.69016e-16 -8.82946e-17)
(1.03489 -8.09505e-16 -9.41584e-17)
(1.03489 -7.54784e-16 -8.9916e-17)
(1.03832 -7.94575e-16 -8.60553e-17)
(1.03832 -7.25487e-16 -9.98925e-17)
(1.04174 -7.70221e-16 -8.1558e-17)
(1.04174 -6.99722e-16 -1.06174e-16)
(1.04513 -7.55656e-16 -8.02266e-17)
(1.04513 -6.83265e-16 -1.22919e-16)
(1.04849 -7.42555e-16 -7.1737e-17)
(1.04849 -6.86859e-16 -1.4296e-16)
(1.05184 -7.0359e-16 -6.99016e-17)
(1.05184 -6.42566e-16 -1.56517e-16)
(1.05517 -6.71078e-16 -7.13639e-17)
(1.05517 -6.61387e-16 -1.50674e-16)
(1.05847 -6.64442e-16 -6.1541e-17)
(1.05847 -6.62769e-16 -1.52097e-16)
(1.06175 -6.40407e-16 -6.66515e-17)
(1.06175 -6.02684e-16 -1.6145e-16)
(1.065 -6.03601e-16 -7.40584e-17)
(1.065 -6.41851e-16 -1.55412e-16)
(1.06823 -5.86973e-16 -8.20732e-17)
(1.06823 -6.33564e-16 -1.68983e-16)
(1.07144 -5.78807e-16 -9.86934e-17)
(1.07144 -6.07064e-16 -1.75133e-16)
(1.07462 -5.82211e-16 -1.19843e-16)
(1.07462 -6.14737e-16 -1.72629e-16)
(1.07777 -5.97742e-16 -1.3671e-16)
(1.07777 -6.10226e-16 -1.54596e-16)
(1.08089 -6.18388e-16 -1.47829e-16)
(1.08089 -5.93139e-16 -1.48035e-16)
(1.08399 -6.35544e-16 -1.48384e-16)
(1.08399 -6.42287e-16 -1.5042e-16)
(1.08706 -6.63011e-16 -1.48126e-16)
(1.08706 -6.63922e-16 -1.38812e-16)
(1.09009 -6.88867e-16 -1.3237e-16)
(1.09009 -6.20768e-16 -1.12498e-16)
(1.09309 -6.96151e-16 -1.01757e-16)
(1.09309 -6.37235e-16 -1.10481e-16)
(1.09606 -6.70242e-16 -9.04696e-17)
(1.09606 -6.58169e-16 -1.11301e-16)
(1.099 -6.63914e-16 -1.21827e-16)
(1.099 -6.50762e-16 -1.12783e-16)
(1.1019 -6.93757e-16 -1.02564e-16)
(1.1019 -6.50218e-16 -1.18219e-16)
(1.10476 -6.53894e-16 -1.09937e-16)
(1.10476 -6.55897e-16 -1.29002e-16)
(1.10759 -6.67557e-16 -1.18812e-16)
(1.10759 -6.36847e-16 -1.33437e-16)
(1.11037 -6.61789e-16 -1.06932e-16)
(1.11037 -6.46166e-16 -1.57278e-16)
(1.11311 -6.43014e-16 -9.64969e-17)
(1.11311 -6.68659e-16 -1.45522e-16)
(1.11581 -6.41498e-16 -1.05308e-16)
(1.11581 -6.87957e-16 -1.54809e-16)
(1.11846 -6.25546e-16 -1.23016e-16)
(1.11846 -6.49468e-16 -1.58537e-16)
(1.12105 -6.0811e-16 -1.49795e-16)
(1.12105 -5.99041e-16 -1.64148e-16)
(1.1236 -6.3606e-16 -1.87979e-16)
(1.1236 -6.25043e-16 -1.44052e-16)
(1.12609 -6.20086e-16 -1.7979e-16)
(1.12609 -6.19599e-16 -1.44811e-16)
(1.12852 -5.79952e-16 -1.63607e-16)
(1.12852 -5.40698e-16 -1.67038e-16)
(1.1309 -5.39549e-16 -1.71169e-16)
(1.1309 -5.82064e-16 -1.8383e-16)
(1.1332 -5.17872e-16 -1.64182e-16)
(1.1332 -6.1338e-16 -1.75484e-16)
(1.13544 -5.28443e-16 -1.86846e-16)
(1.13544 -5.92552e-16 -1.39466e-16)
(1.1376 -5.3317e-16 -1.56431e-16)
(1.1376 -5.88774e-16 -1.18474e-16)
(1.13969 -5.3681e-16 -1.53349e-16)
(1.13969 -5.89162e-16 -9.45049e-17)
(1.14169 -5.27205e-16 -1.7535e-16)
(1.14169 -6.09061e-16 -1.15899e-16)
(1.14361 -5.7886e-16 -1.37029e-16)
(1.14361 -5.82446e-16 -7.31338e-17)
(1.14543 -5.69153e-16 -1.3388e-16)
(1.14543 -5.5056e-16 -5.25523e-17)
(1.14714 -5.51635e-16 -1.72313e-16)
(1.14714 -5.7092e-16 -3.89953e-17)
(1.14875 -6.10452e-16 -1.09015e-16)
(1.14875 -5.44544e-16 -6.11116e-17)
(1.15024 -6.29224e-16 -7.15062e-17)
(1.15024 -5.18278e-16 -7.8507e-17)
(1.15161 -6.30169e-16 8.0922e-18)
(1.15161 -5.12531e-16 -8.6141e-17)
(1.15284 -5.49e-16 4.99526e-17)
(1.15284 -4.79387e-16 -6.67309e-17)
(1.15393 -4.56189e-16 6.93428e-17)
(1.15393 -4.75921e-16 -2.58697e-17)
(1.15487 -4.35631e-16 3.80961e-17)
(1.15487 -5.07173e-16 3.64914e-17)
(1.15564 -4.21338e-16 3.33044e-17)
(1.15564 -4.65602e-16 -1.57649e-17)
(1.15624 -4.62137e-16 -1.70409e-18)
(1.15624 -4.37222e-16 -3.31505e-17)
(1.15665 -4.16909e-16 3.26986e-17)
(1.15665 -4.67407e-16 -5.72009e-17)
(1.15686 -3.92449e-16 -2.66039e-18)
(1.15686 -4.9139e-16 -5.66111e-17)
(0.00120312 -3.65523e-20 7.07308e-19)
(0.00120312 4.16958e-22 1.60749e-18)
(0.00363138 -5.91444e-20 9.15916e-19)
(0.00363138 4.73912e-21 2.59111e-18)
(0.00610449 -1.71101e-19 9.51287e-19)
(0.00610449 6.62357e-21 2.68667e-18)
(0.00862328 -2.6133e-19 9.88561e-19)
(0.00862328 5.41669e-21 2.78463e-18)
(0.0111886 -3.65218e-19 1.02791e-18)
(0.0111886 3.6975e-21 2.8849e-18)
(0.0138012 -4.82683e-19 1.06946e-18)
(0.0138012 1.33549e-20 2.98743e-18)
(0.0164621 -6.02903e-19 1.11294e-18)
(0.0164621 3.13107e-20 3.09231e-18)
(0.019172 -7.26727e-19 1.15849e-18)
(0.019172 5.21738e-20 3.19968e-18)
(0.0219319 -8.60653e-19 1.20588e-18)
(0.0219319 7.50421e-20 3.30959e-18)
(0.0247427 -9.78639e-19 1.25587e-18)
(0.0247427 8.0005e-20 3.42165e-18)
(0.0276053 -1.08655e-18 1.30854e-18)
(0.0276053 7.74042e-20 3.5356e-18)
(0.0305206 -1.20382e-18 1.36383e-18)
(0.0305206 8.19917e-20 3.65153e-18)
(0.0334896 -1.33969e-18 1.42211e-18)
(0.0334896 7.00648e-20 3.76932e-18)
(0.0365133 -1.49726e-18 1.48374e-18)
(0.0365133 6.68625e-20 3.88863e-18)
(0.0395926 -1.6706e-18 1.54785e-18)
(0.0395926 1.07865e-19 4.01007e-18)
(0.0427286 -1.82283e-18 1.61408e-18)
(0.0427286 1.48491e-19 4.13406e-18)
(0.0459222 -1.96323e-18 1.6843e-18)
(0.0459222 1.46276e-19 4.2592e-18)
(0.0491746 -2.11577e-18 1.7573e-18)
(0.0491746 1.44756e-19 4.38682e-18)
(0.0524867 -2.27281e-18 1.83447e-18)
(0.0524867 1.51378e-19 4.51598e-18)
(0.0558597 -2.46998e-18 1.91535e-18)
(0.0558597 1.48106e-19 4.6472e-18)
(0.0592947 -2.67726e-18 1.99934e-18)
(0.0592947 1.69388e-19 4.78122e-18)
(0.0627927 -2.83849e-18 2.0878e-18)
(0.0627927 2.19524e-19 4.91704e-18)
(0.0663548 -3.03437e-18 2.18087e-18)
(0.0663548 2.44723e-19 5.05443e-18)
(0.0699823 -3.2126e-18 2.27889e-18)
(0.0699823 2.4165e-19 5.19329e-18)
(0.0736763 -3.42171e-18 2.38218e-18)
(0.0736763 2.45863e-19 5.33437e-18)
(0.0774379 -3.66938e-18 2.49037e-18)
(0.0774379 1.79882e-19 5.47783e-18)
(0.0812685 -3.85075e-18 2.60562e-18)
(0.0812685 1.44526e-19 5.62284e-18)
(0.0851691 -4.05664e-18 2.72617e-18)
(0.0851691 1.56005e-19 5.77133e-18)
(0.0891411 -4.29489e-18 2.85169e-18)
(0.0891411 1.43431e-19 5.92276e-18)
(0.0931856 -4.5282e-18 2.98397e-18)
(0.0931856 1.06408e-19 6.07544e-18)
(0.097304 -4.82266e-18 3.1225e-18)
(0.097304 8.02058e-20 6.22957e-18)
(0.101498 -5.123e-18 3.26549e-18)
(0.101498 5.72046e-20 6.38399e-18)
(0.105768 -5.40347e-18 3.41677e-18)
(0.105768 1.38544e-21 6.53691e-18)
(0.110115 -5.69259e-18 3.5753e-18)
(0.110115 -1.22896e-19 6.68984e-18)
(0.114542 -5.94354e-18 3.74427e-18)
(0.114542 -2.19318e-19 6.84156e-18)
(0.119049 -6.25749e-18 3.92464e-18)
(0.119049 -3.37149e-19 6.99312e-18)
(0.123638 -6.51142e-18 4.11505e-18)
(0.123638 -4.83302e-19 7.14486e-18)
(0.12831 -6.7502e-18 4.31978e-18)
(0.12831 -5.00088e-19 7.29615e-18)
(0.133067 -7.03478e-18 4.53706e-18)
(0.133067 -6.29513e-19 7.44406e-18)
(0.137909 -7.41733e-18 4.76673e-18)
(0.137909 -6.61823e-19 7.58253e-18)
(0.142839 -7.85521e-18 5.01044e-18)
(0.142839 -5.22572e-19 7.71398e-18)
(0.147857 -8.30021e-18 5.27211e-18)
(0.147857 -6.77801e-19 7.83516e-18)
(0.152964 -8.76686e-18 5.54936e-18)
(0.152964 -7.75873e-19 7.94921e-18)
(0.158163 -9.1901e-18 5.8457e-18)
(0.158163 -8.45337e-19 8.05199e-18)
(0.163454 -9.81716e-18 6.15922e-18)
(0.163454 -8.0981e-19 8.14909e-18)
(0.168839 -1.04314e-17 6.49005e-18)
(0.168839 -6.59941e-19 8.237e-18)
(0.174319 -1.10023e-17 6.83061e-18)
(0.174319 -9.7543e-19 8.32653e-18)
(0.179894 -1.14398e-17 7.18216e-18)
(0.179894 -1.29002e-18 8.41349e-18)
(0.185566 -1.19285e-17 7.55806e-18)
(0.185566 -1.26356e-18 8.49676e-18)
(0.191336 -1.27146e-17 7.93715e-18)
(0.191336 -1.18952e-18 8.58261e-18)
(0.197205 -1.33619e-17 8.31597e-18)
(0.197205 -1.03048e-18 8.67163e-18)
(0.203174 -1.38896e-17 8.70114e-18)
(0.203174 -6.30422e-19 8.76115e-18)
(0.209242 -1.44756e-17 9.10579e-18)
(0.209242 -8.93893e-19 8.84636e-18)
(0.215411 -1.51439e-17 9.52807e-18)
(0.215411 -1.31347e-18 8.92267e-18)
(0.221681 -1.57004e-17 9.96859e-18)
(0.221681 -1.38563e-18 8.9872e-18)
(0.228052 -1.62717e-17 1.04315e-17)
(0.228052 -1.92329e-18 9.03195e-18)
(0.234523 -1.69162e-17 1.09082e-17)
(0.234523 -2.12228e-18 9.06254e-18)
(0.241095 -1.7443e-17 1.14019e-17)
(0.241095 -2.17558e-18 9.09169e-18)
(0.247767 -1.82485e-17 1.1906e-17)
(0.247767 -2.43978e-18 9.1083e-18)
(0.254538 -1.9065e-17 1.24114e-17)
(0.254538 -2.88985e-18 9.11378e-18)
(0.261406 -1.97524e-17 1.29247e-17)
(0.261406 -3.24852e-18 9.09144e-18)
(0.268371 -2.05723e-17 1.34491e-17)
(0.268371 -3.68282e-18 9.04497e-18)
(0.275429 -2.14119e-17 1.40018e-17)
(0.275429 -3.89427e-18 8.95078e-18)
(0.28258 -2.2315e-17 1.45617e-17)
(0.28258 -3.17153e-18 8.85129e-18)
(0.289819 -2.32887e-17 1.51222e-17)
(0.289819 -2.99639e-18 8.75005e-18)
(0.297144 -2.43312e-17 1.5703e-17)
(0.297144 -2.93273e-18 8.6442e-18)
(0.304552 -2.53199e-17 1.63238e-17)
(0.304552 -3.10677e-18 8.53077e-18)
(0.312038 -2.67266e-17 1.69415e-17)
(0.312038 -3.64771e-18 8.41173e-18)
(0.319598 -2.77448e-17 1.75023e-17)
(0.319598 -4.12519e-18 8.33372e-18)
(0.327227 -2.81782e-17 1.80488e-17)
(0.327227 -4.47364e-18 8.2588e-18)
(0.334921 -2.90806e-17 1.86278e-17)
(0.334921 -4.99079e-18 8.13111e-18)
(0.342673 -3.07313e-17 1.91906e-17)
(0.342673 -5.59643e-18 7.97621e-18)
(0.350478 -3.23279e-17 1.97115e-17)
(0.350478 -5.69987e-18 7.79923e-18)
(0.358329 -3.38736e-17 2.0256e-17)
(0.358329 -6.13489e-18 7.60764e-18)
(0.366221 -3.54072e-17 2.07607e-17)
(0.366221 -6.44939e-18 7.43539e-18)
(0.374147 -3.64542e-17 2.12661e-17)
(0.374147 -7.03633e-18 7.29086e-18)
(0.382099 -3.78261e-17 2.18101e-17)
(0.382099 -6.33261e-18 7.14001e-18)
(0.390072 -3.99876e-17 2.23752e-17)
(0.390072 -7.50257e-18 7.01062e-18)
(0.398058 -4.19712e-17 2.28576e-17)
(0.398058 -9.50295e-18 6.91779e-18)
(0.406051 -4.32515e-17 2.32929e-17)
(0.406051 -8.58721e-18 6.79093e-18)
(0.414044 -4.4232e-17 2.37444e-17)
(0.414044 -8.71791e-18 6.63561e-18)
(0.422031 -4.5457e-17 2.41995e-17)
(0.422031 -8.54116e-18 6.52496e-18)
(0.430005 -4.74917e-17 2.46174e-17)
(0.430005 -8.20836e-18 6.47363e-18)
(0.43796 -4.882e-17 2.49405e-17)
(0.43796 -9.25907e-18 6.42711e-18)
(0.44589 -4.98543e-17 2.52213e-17)
(0.44589 -1.00073e-17 6.34579e-18)
(0.45379 -5.05854e-17 2.54825e-17)
(0.45379 -9.79049e-18 6.26409e-18)
(0.461655 -5.03286e-17 2.57438e-17)
(0.461655 -1.05104e-17 6.21406e-18)
(0.469479 -5.01631e-17 2.59064e-17)
(0.469479 -1.03762e-17 6.26977e-18)
(0.477259 -5.10028e-17 2.6104e-17)
(0.477259 -9.79953e-18 6.38802e-18)
(0.48499 -5.31121e-17 2.62725e-17)
(0.48499 -1.01639e-17 6.50129e-18)
(0.492668 -5.51039e-17 2.63802e-17)
(0.492668 -1.15502e-17 6.67468e-18)
(0.500291 -5.69459e-17 2.65657e-17)
(0.500291 -1.20281e-17 6.83222e-18)
(0.507855 -5.90794e-17 2.67852e-17)
(0.507855 -1.41718e-17 7.00231e-18)
(0.515358 -6.12428e-17 2.70478e-17)
(0.515358 -1.76446e-17 7.06984e-18)
(0.522797 -6.2892e-17 2.7272e-17)
(0.522797 -1.71095e-17 7.13948e-18)
(0.530171 -6.41595e-17 2.74986e-17)
(0.530171 -1.68519e-17 7.18952e-18)
(0.537478 -6.54277e-17 2.77589e-17)
(0.537478 -1.95426e-17 7.24992e-18)
(0.544717 -6.68718e-17 2.79786e-17)
(0.544717 -2.02269e-17 7.4906e-18)
(0.551886 -6.81233e-17 2.81455e-17)
(0.551886 -2.0886e-17 7.92166e-18)
(0.558985 -6.91113e-17 2.83834e-17)
(0.558985 -2.47824e-17 8.36058e-18)
(0.566014 -7.15254e-17 2.87231e-17)
(0.566014 -2.61616e-17 8.82203e-18)
(0.572972 -7.51486e-17 2.91326e-17)
(0.572972 -2.63308e-17 9.26975e-18)
(0.579859 -7.69671e-17 2.94858e-17)
(0.579859 -2.71842e-17 9.79702e-18)
(0.586675 -7.74256e-17 2.96748e-17)
(0.586675 -2.64655e-17 1.05702e-17)
(0.59342 -7.89673e-17 3.01039e-17)
(0.59342 -2.64308e-17 1.13433e-17)
(0.600095 -8.15839e-17 3.04528e-17)
(0.600095 -2.97993e-17 1.22014e-17)
(0.606699 -8.39032e-17 3.07484e-17)
(0.606699 -3.27903e-17 1.31507e-17)
(0.613235 -8.59736e-17 3.1077e-17)
(0.613235 -3.35547e-17 1.39234e-17)
(0.619702 -9.01744e-17 3.12956e-17)
(0.619702 -3.08172e-17 1.47634e-17)
(0.626101 -9.38775e-17 3.10261e-17)
(0.626101 -2.93683e-17 1.57516e-17)
(0.632433 -9.38835e-17 3.0353e-17)
(0.632433 -3.14059e-17 1.68986e-17)
(0.6387 -9.17793e-17 2.98782e-17)
(0.6387 -3.32102e-17 1.81859e-17)
(0.644901 -8.97891e-17 2.92775e-17)
(0.644901 -3.48875e-17 1.98796e-17)
(0.651038 -8.88579e-17 2.85588e-17)
(0.651038 -3.53367e-17 2.18134e-17)
(0.657112 -8.92772e-17 2.7598e-17)
(0.657112 -3.57921e-17 2.38933e-17)
(0.663124 -8.87977e-17 2.63121e-17)
(0.663124 -3.68067e-17 2.60198e-17)
(0.669075 -8.74792e-17 2.5021e-17)
(0.669075 -3.67492e-17 2.82751e-17)
(0.674966 -8.87985e-17 2.36658e-17)
(0.674966 -3.97928e-17 3.03128e-17)
(0.680799 -9.13339e-17 2.20767e-17)
(0.680799 -4.05895e-17 3.22946e-17)
(0.686574 -8.93301e-17 2.0216e-17)
(0.686574 -4.23779e-17 3.43216e-17)
(0.692293 -8.40299e-17 1.89615e-17)
(0.692293 -4.7161e-17 3.6097e-17)
(0.697956 -8.11067e-17 1.8335e-17)
(0.697956 -4.73987e-17 3.73969e-17)
(0.703566 -8.18748e-17 1.69693e-17)
(0.703566 -4.58635e-17 3.92022e-17)
(0.709122 -8.15007e-17 1.4799e-17)
(0.709122 -4.91108e-17 4.13786e-17)
(0.714626 -8.0565e-17 1.35525e-17)
(0.714626 -5.19353e-17 4.28542e-17)
(0.72008 -8.44668e-17 1.25798e-17)
(0.72008 -5.41501e-17 4.3851e-17)
(0.725484 -8.6992e-17 1.16813e-17)
(0.725484 -5.85165e-17 4.4481e-17)
(0.730839 -8.63554e-17 1.12726e-17)
(0.730839 -5.35508e-17 4.47372e-17)
(0.736147 -8.47858e-17 1.07347e-17)
(0.736147 -4.48529e-17 4.5803e-17)
(0.741408 -8.33939e-17 9.75105e-18)
(0.741408 -4.27085e-17 4.73845e-17)
(0.746624 -8.40074e-17 8.37979e-18)
(0.746624 -4.2874e-17 4.90346e-17)
(0.751795 -8.63557e-17 7.31157e-18)
(0.751795 -4.28509e-17 5.02316e-17)
(0.756922 -8.97586e-17 6.82719e-18)
(0.756922 -4.60658e-17 4.97732e-17)
(0.762007 -9.62889e-17 6.6238e-18)
(0.762007 -5.22784e-17 4.9408e-17)
(0.76705 -1.02216e-16 5.71101e-18)
(0.76705 -5.43808e-17 4.92911e-17)
(0.772053 -1.0423e-16 4.77028e-18)
(0.772053 -5.4196e-17 4.94494e-17)
(0.777015 -1.04222e-16 4.13292e-18)
(0.777015 -5.46644e-17 4.96686e-17)
(0.781939 -1.01158e-16 3.59968e-18)
(0.781939 -5.36378e-17 5.00742e-17)
(0.786825 -9.64833e-17 3.98557e-18)
(0.786825 -5.36096e-17 4.95168e-17)
(0.791673 -9.82767e-17 4.44649e-18)
(0.791673 -5.45947e-17 4.87971e-17)
(0.796485 -1.05987e-16 4.18681e-18)
(0.796485 -5.02358e-17 4.78106e-17)
(0.801261 -1.06451e-16 3.64979e-18)
(0.801261 -4.98148e-17 4.672e-17)
(0.806002 -1.00922e-16 3.7478e-18)
(0.806002 -5.62996e-17 4.50959e-17)
(0.810709 -9.61224e-17 4.67827e-18)
(0.810709 -5.93387e-17 4.31453e-17)
(0.815383 -9.68197e-17 5.5737e-18)
(0.815383 -6.1755e-17 4.14828e-17)
(0.820024 -1.02123e-16 6.43995e-18)
(0.820024 -6.28196e-17 3.98328e-17)
(0.824633 -1.1012e-16 6.6254e-18)
(0.824633 -6.15039e-17 3.94541e-17)
(0.82921 -1.14229e-16 6.20758e-18)
(0.82921 -6.37034e-17 3.24344e-17)
(0.833757 -1.14499e-16 6.93207e-18)
(0.833757 -6.40727e-17 2.4926e-17)
(0.838274 -1.17977e-16 8.03653e-18)
(0.838274 -7.6723e-17 1.95666e-17)
(0.842762 -1.19636e-16 8.64891e-18)
(0.842762 -7.37548e-17 1.33523e-17)
(0.84722 -1.20821e-16 1.14257e-17)
(0.84722 -7.09993e-17 7.01905e-18)
(0.851651 -1.22895e-16 1.46588e-17)
(0.851651 -6.81119e-17 7.67682e-18)