/*--------------------------------*- C++ -*----------------------------------*\
| =========                 |                                                 |
| \\      /  F ield         | OpenFOAM: The Open Source CFD Toolbox           |
|  \\    /   O peration     | Version:  2106                                  |
|   \\  /    A nd           | Website:  www.openfoam.com                      |
|    \\/     M anipulation  |                                                 |
\*---------------------------------------------------------------------------*/
FoamFile
{
    version     2.0;
    format      ascii;
    arch        "LSB;label=32;scalar=64";
    class       volVectorField;
    location    "10020";
    object      grad(T);
}
// * * * * * * * * * * * * * * * * * * * * * * * * * * * * * * * * * * * * * //

dimensions      [0 -1 0 1 0 0 0];

internalField   nonuniform List<vector> 
2000
(
(0 874.936 1.61919)
(0 874.936 1.61919)
(0 874.934 4.88779)
(0 874.934 4.88779)
(1.56531e-15 874.929 6.78346)
(-1.76431e-15 874.929 6.78346)
(-6.52138e-16 874.919 6.90997)
(2.60855e-15 874.919 6.90997)
(0 874.895 7.03869)
(-1.70024e-15 874.895 7.03869)
(0 874.842 7.16947)
(-6.33603e-15 874.842 7.16947)
(6.554e-15 874.726 7.302)
(1.69839e-15 874.726 7.302)
(0 874.496 7.43572)
(2.04098e-14 874.496 7.43572)
(-3.04858e-15 874.068 7.56973)
(0 874.068 7.56973)
(6.20026e-15 873.318 7.70269)
(0 873.318 7.70269)
(6.08665e-15 872.079 7.83269)
(0 872.079 7.83269)
(4.59804e-15 870.128 7.9572)
(6.44195e-15 870.128 7.9572)
(0 867.187 8.07298)
(0 867.187 8.07298)
(-1.71962e-14 862.933 8.17619)
(0 862.933 8.17619)
(-2.88458e-14 857.009 8.26251)
(0 857.009 8.26251)
(1.78977e-14 849.058 8.32747)
(-2.71986e-14 849.058 8.32747)
(0 838.753 8.36684)
(0 838.753 8.36684)
(2.65974e-14 825.844 8.3771)
(3.18046e-14 825.844 8.3771)
(-8.53537e-15 810.194 8.35588)
(-1.04991e-14 810.194 8.35588)
(1.94293e-14 791.806 8.30229)
(2.61838e-14 791.806 8.30229)
(-9.71053e-15 770.832 8.21704)
(7.76843e-14 770.832 8.21704)
(-1.98648e-14 747.561 8.10234)
(4.11865e-14 747.561 8.10234)
(1.95008e-14 722.386 7.96159)
(4.35135e-14 722.386 7.96159)
(0 695.769 7.79904)
(4.58135e-14 695.769 7.79904)
(6.77317e-15 668.193 7.61929)
(-1.87927e-14 668.193 7.61929)
(0 640.126 7.42697)
(5.02995e-14 640.126 7.42697)
(2.31024e-14 611.992 7.22639)
(-1.81102e-14 611.992 7.22639)
(-1.36479e-14 584.153 7.02138)
(0 584.153 7.02138)
(0 556.901 6.81519)
(0 556.901 6.81519)
(-3.17978e-14 530.462 6.61046)
(-5.86603e-14 530.462 6.61046)
(1.51517e-14 504.997 6.40924)
(4.37879e-14 504.997 6.40924)
(-1.65106e-14 480.613 6.2131)
(0 480.613 6.2131)
(-3.22892e-14 457.373 6.02312)
(1.62081e-14 457.373 6.02312)
(-1.65245e-14 435.304 5.84007)
(0 435.304 5.84007)
(0 414.405 5.6644)
(6.78163e-14 414.405 5.6644)
(0 394.655 5.49633)
(0 394.655 5.49633)
(1.77741e-14 376.02 5.33592)
(7.10964e-14 376.02 5.33592)
(-1.81656e-14 358.454 5.1831)
(7.26622e-14 358.454 5.1831)
(-1.85454e-14 341.909 5.0377)
(0 341.909 5.0377)
(-2.84798e-14 326.329 4.89948)
(1.04136e-13 326.329 4.89948)
(-3.85446e-14 311.659 4.76818)
(7.70893e-14 311.659 4.76818)
(0 297.846 4.64349)
(0 297.846 4.64349)
(0 284.836 4.5251)
(0 284.836 4.5251)
(-4.67376e-14 272.576 4.41268)
(-8.11549e-14 272.576 4.41268)
(2.06097e-14 261.019 4.30593)
(8.24389e-14 261.019 4.30593)
(2.09226e-14 250.117 4.20451)
(-8.36903e-14 250.117 4.20451)
(-2.12277e-14 239.827 4.10815)
(8.49108e-14 239.827 4.10815)
(-2.45629e-14 230.107 4.01654)
(1.72204e-13 230.107 4.01654)
(7.00418e-14 220.921 3.9294)
(3.90395e-14 220.921 3.9294)
(-2.21004e-14 212.231 3.84649)
(-8.84017e-14 212.231 3.84649)
(4.64743e-14 204.005 3.76755)
(-4.64743e-14 204.005 3.76755)
(-4.54615e-14 196.212 3.69236)
(-4.56227e-14 196.212 3.69236)
(4.47867e-14 188.823 3.62068)
(0 188.823 3.62068)
(-2.1983e-14 181.813 3.55232)
(-7.07251e-14 181.813 3.55232)
(-4.13079e-14 175.157 3.48708)
(0 175.157 3.48708)
(1.86862e-14 168.832 3.42479)
(-4.23694e-14 168.832 3.42479)
(-2.70617e-14 162.816 3.36527)
(9.57164e-14 162.816 3.36527)
(-2.41705e-14 157.092 3.30837)
(0 157.092 3.30837)
(-4.88152e-14 151.641 3.25394)
(-9.76305e-14 151.641 3.25394)
(-1.47075e-14 146.445 3.20185)
(-5.92144e-14 146.445 3.20185)
(-3.86271e-14 141.491 3.15197)
(0 141.491 3.15197)
(-5.01901e-14 136.762 3.10417)
(2.00761e-13 136.762 3.10417)
(-2.53168e-14 132.247 3.05834)
(1.01267e-13 132.247 3.05834)
(3.65423e-14 127.932 3.01438)
(0 127.932 3.01438)
(-2.57502e-14 123.805 2.9722)
(1.03001e-13 123.805 2.9722)
(-3.52153e-14 119.858 2.93169)
(0 119.858 2.93169)
(-6.07408e-14 116.078 2.89277)
(0 116.078 2.89277)
(0 112.458 2.85537)
(0 112.458 2.85537)
(0 108.988 2.8194)
(1.0632e-13 108.988 2.8194)
(-3.27041e-14 105.66 2.78479)
(3.27041e-14 105.66 2.78479)
(-2.69782e-14 102.467 2.75149)
(1.07913e-13 102.467 2.75149)
(0 99.401 2.71942)
(1.08694e-13 99.401 2.71942)
(-2.73665e-14 96.4563 2.68852)
(-1.09466e-13 96.4563 2.68852)
(3.0372e-14 93.6264 2.65875)
(-1.10229e-13 93.6264 2.65875)
(-5.54914e-14 90.9054 2.63004)
(1.10983e-13 90.9054 2.63004)
(-5.58641e-14 88.288 2.60236)
(0 88.288 2.60236)
(0 85.769 2.57565)
(1.12465e-13 85.769 2.57565)
(-5.65049e-14 83.3436 2.54986)
(-1.13194e-13 83.3436 2.54986)
(2.8479e-14 81.0073 2.52497)
(0 81.0073 2.52497)
(2.86575e-14 78.756 2.50092)
(-1.1463e-13 78.756 2.50092)
(-8.43525e-14 76.5855 2.47769)
(0 76.5855 2.47769)
(0 74.4921 2.45524)
(0 74.4921 2.45524)
(3.46783e-15 72.4723 2.43353)
(-2.33462e-13 72.4723 2.43353)
(2.93545e-14 70.5228 2.41254)
(0 70.5228 2.41254)
(0 68.6403 2.39223)
(1.18099e-13 68.6403 2.39223)
(7.83474e-14 66.822 2.37257)
(1.18774e-13 66.822 2.37257)
(-1.1959e-14 65.065 2.35355)
(0 65.065 2.35355)
(-6.00532e-14 63.3667 2.33513)
(1.20106e-13 63.3667 2.33513)
(7.62191e-14 61.7245 2.3173)
(1.95501e-13 61.7245 2.3173)
(-3.03543e-14 60.136 2.30002)
(0 60.136 2.30002)
(-6.10324e-14 58.5991 2.28328)
(1.22065e-13 58.5991 2.28328)
(-3.06769e-14 57.1115 2.26706)
(1.22708e-13 57.1115 2.26706)
(-4.27458e-14 55.6712 2.25133)
(0 55.6712 2.25133)
(3.09947e-14 54.2764 2.23608)
(1.23979e-13 54.2764 2.23608)
(3.11519e-14 52.9251 2.2213)
(1.24608e-13 52.9251 2.2213)
(-3.1308e-14 51.6157 2.20695)
(1.25232e-13 51.6157 2.20695)
(3.14631e-14 50.3465 2.19304)
(0 50.3465 2.19304)
(-3.16172e-14 49.1159 2.17953)
(8.74984e-14 49.1159 2.17953)
(7.00263e-14 47.9224 2.16643)
(-3.82561e-14 47.9224 2.16643)
(-3.19223e-14 46.7647 2.15371)
(1.27689e-13 46.7647 2.15371)
(3.20735e-14 45.6413 2.14136)
(9.1427e-14 45.6413 2.14136)
(0 44.551 2.12937)
(9.27035e-14 44.551 2.12937)
(0 43.4925 2.11772)
(-1.29492e-13 43.4925 2.11772)
(0 42.4647 2.10641)
(1.30086e-13 42.4647 2.10641)
(1.56868e-15 41.4664 2.09542)
(0 41.4664 2.09542)
(-3.28162e-14 40.4966 2.08474)
(1.31265e-13 40.4966 2.08474)
(0 39.5542 2.07436)
(0 39.5542 2.07436)
(-3.23901e-14 38.6384 2.06428)
(0 38.6384 2.06428)
(3.32522e-14 37.748 2.05447)
(1.33009e-13 37.748 2.05447)
(2.18223e-15 36.8823 2.04494)
(1.0237e-13 36.8823 2.04494)
(0 36.0405 2.03568)
(1.34157e-13 36.0405 2.03568)
(-6.73635e-14 35.2215 2.02667)
(1.34727e-13 35.2215 2.02667)
(3.38236e-14 34.4248 2.0179)
(1.35294e-13 34.4248 2.0179)
(0 33.6496 2.00938)
(-1.35859e-13 33.6496 2.00938)
(0 32.895 2.00109)
(0 32.895 2.00109)
(-6.84907e-14 32.1605 1.99302)
(0 32.1605 1.99302)
(-3.43848e-14 31.4454 1.98518)
(0 31.4454 1.98518)
(-5.38419e-14 30.749 1.97754)
(-1.38094e-13 30.749 1.97754)
(6.93236e-14 30.0707 1.97011)
(0 30.0707 1.97011)
(6.9599e-14 29.41 1.96287)
(1.39198e-13 29.41 1.96287)
(-3.49367e-14 28.7663 1.95583)
(1.39747e-13 28.7663 1.95583)
(7.01467e-14 28.139 1.94898)
(0 28.139 1.94898)
(3.52095e-14 27.5276 1.9423)
(1.40838e-13 27.5276 1.9423)
(-3.53452e-14 26.9317 1.9358)
(-4.81867e-14 26.9317 1.9358)
(0 26.3507 1.92947)
(2.36539e-13 26.3507 1.92947)
(-3.56151e-14 25.7842 1.92331)
(-4.64369e-14 25.7842 1.92331)
(0 25.2317 1.9173)
(2.4041e-13 25.2317 1.9173)
(-3.58833e-14 24.6929 1.91145)
(0 24.6929 1.91145)
(0 24.1672 1.90575)
(1.44067e-13 24.1672 1.90575)
(3.61497e-14 23.6544 1.90019)
(2.89198e-13 23.6544 1.90019)
(-3.62823e-14 23.154 1.89477)
(1.45129e-13 23.154 1.89477)
(3.64145e-14 22.6656 1.88949)
(1.45658e-13 22.6656 1.88949)
(-7.30927e-14 22.1889 1.88434)
(1.46185e-13 22.1889 1.88434)
(-4.00503e-14 21.7236 1.87932)
(2.53372e-13 21.7236 1.87932)
(0 21.2693 1.87442)
(1.47236e-13 21.2693 1.87442)
(-3.69396e-14 20.8257 1.86964)
(-3.8596e-14 20.8257 1.86964)
(3.707e-14 20.3925 1.86498)
(0 20.3925 1.86498)
(0 19.9694 1.86042)
(0 19.9694 1.86042)
(-3.73297e-14 19.5561 1.85598)
(-3.65128e-14 19.5561 1.85598)
(-3.74591e-14 19.1524 1.85164)
(-1.8568e-13 19.1524 1.85164)
(-3.75882e-14 18.7579 1.8474)
(3.00706e-13 18.7579 1.8474)
(0 18.3724 1.84325)
(1.50868e-13 18.3724 1.84325)
(-3.78454e-14 17.9957 1.8392)
(1.51382e-13 17.9957 1.8392)
(0 17.6274 1.83524)
(1.51894e-13 17.6274 1.83524)
(-3.81015e-14 17.2675 1.83136)
(1.52406e-13 17.2675 1.83136)
(0 16.9156 1.82756)
(1.52916e-13 16.9156 1.82756)
(-3.83564e-14 16.5715 1.82385)
(0 16.5715 1.82385)
(2.33447e-14 16.2351 1.82021)
(-6.18282e-14 16.2351 1.82021)
(-3.86103e-14 15.9061 1.81664)
(-6.06952e-14 15.9061 1.81664)
(-2.08462e-14 15.5842 1.81314)
(-1.54947e-13 15.5842 1.81314)
(0 15.2694 1.8097)
(0 15.2694 1.8097)
(-5.74193e-14 14.9614 1.80633)
(5.74193e-14 14.9614 1.80633)
(9.54821e-14 14.6601 1.80301)
(0 14.6601 1.80301)
(-3.92405e-14 14.3652 1.79975)
(1.56962e-13 14.3652 1.79975)
(-3.93658e-14 14.0767 1.79654)
(1.57463e-13 14.0767 1.79654)
(-3.94909e-14 13.7942 1.79338)
(0 13.7942 1.79338)
(0 13.5178 1.79027)
(1.58463e-13 13.5178 1.79027)
(-3.97405e-14 13.2472 1.78719)
(-1.58962e-13 13.2472 1.78719)
(3.98649e-14 12.9822 1.78416)
(1.5946e-13 12.9822 1.78416)
(3.99891e-14 12.7228 1.78115)
(1.59956e-13 12.7228 1.78115)
(4.01131e-14 12.4687 1.77818)
(0 12.4687 1.77818)
(0 12.2199 1.77524)
(1.60948e-13 12.2199 1.77524)
(6.48896e-15 11.9761 1.77232)
(-4.68495e-14 11.9761 1.77232)
(4.5991e-14 11.7374 1.76942)
(1.15945e-13 11.7374 1.76942)
(-8.57552e-14 11.5035 1.76653)
(0 11.5035 1.76653)
(0 11.2743 1.76366)
(0 11.2743 1.76366)
(0 11.0497 1.7608)
(1.63411e-13 11.0497 1.7608)
(0 10.8296 1.75794)
(1.63902e-13 10.8296 1.75794)
(8.30977e-16 10.6139 1.75508)
(-4.19287e-14 10.6139 1.75508)
(-4.12199e-14 10.4024 1.75222)
(0 10.4024 1.75222)
(-4.13419e-14 10.1951 1.74935)
(0 10.1951 1.74935)
(4.32617e-14 9.99186 1.74646)
(1.26189e-13 9.99186 1.74646)
(-8.5817e-14 9.79254 1.74356)
(1.66341e-13 9.79254 1.74356)
(-3.82253e-14 9.59706 1.74064)
(1.66827e-13 9.59706 1.74064)
(-7.93527e-14 9.40532 1.73769)
(0 9.40532 1.73769)
(-7.87861e-14 9.21724 1.73471)
(0 9.21724 1.73471)
(-3.61622e-14 9.03272 1.7317)
(3.61622e-14 9.03272 1.7317)
(0 8.85166 1.72864)
(1.68761e-13 8.85166 1.72864)
(-4.23106e-14 8.67398 1.72554)
(-1.69242e-13 8.67398 1.72554)
(0 8.4996 1.72238)
(0 8.4996 1.72238)
(-1.76885e-13 8.32842 1.71916)
(-3.40406e-13 8.32842 1.71916)
(-4.26705e-14 8.16037 1.71588)
(-6.59362e-14 8.16037 1.71588)
(0 7.99537 1.71253)
(0 7.99537 1.71253)
(0 7.83333 1.7091)
(1.71637e-13 7.83333 1.7091)
(-8.60568e-14 7.67419 1.70559)
(3.44227e-13 7.67419 1.70559)
(6.12344e-14 7.51786 1.70198)
(1.11355e-13 7.51786 1.70198)
(-4.32659e-14 7.36426 1.69828)
(0 7.36426 1.69828)
(5.90108e-14 7.21334 1.69447)
(-1.73537e-13 7.21334 1.69447)
(-4.35024e-14 7.06501 1.69054)
(0 7.06501 1.69054)
(5.68679e-14 6.91921 1.68649)
(1.17613e-13 6.91921 1.68649)
(5.58258e-14 6.77587 1.68231)
(1.19126e-13 6.77587 1.68231)
(4.38552e-14 6.63492 1.67799)
(3.50841e-13 6.63492 1.67799)
(4.39722e-14 6.49629 1.67352)
(1.75889e-13 6.49629 1.67352)
(0 6.35992 1.66888)
(1.76356e-13 6.35992 1.66888)
(1.47895e-13 6.22575 1.66408)
(1.76822e-13 6.22575 1.66408)
(-4.43216e-14 6.09371 1.65909)
(3.54573e-13 6.09371 1.65909)
(-4.44375e-14 5.96373 1.6539)
(-1.7775e-13 5.96373 1.6539)
(4.90467e-14 5.83576 1.64851)
(-4.90467e-14 5.83576 1.64851)
(-4.46681e-14 5.70973 1.6429)
(0 5.70973 1.6429)
(-8.95659e-14 5.58559 1.63705)
(0 5.58559 1.63705)
(4.79017e-14 5.46327 1.63095)
(8.67905e-14 5.46327 1.63095)
(0 5.34271 1.62459)
(0 5.34271 1.62459)
(-4.51251e-14 5.22385 1.61794)
(0 5.22385 1.61794)
(-4.38952e-14 5.10664 1.611)
(0 5.10664 1.611)
(4.53511e-14 4.99102 1.60374)
(3.62809e-13 4.99102 1.60374)
(9.09269e-14 4.87691 1.59614)
(-2.24155e-13 4.87691 1.59614)
(9.11506e-14 4.76427 1.58818)
(0 4.76427 1.58818)
(9.13733e-14 4.65304 1.57984)
(3.65493e-13 4.65304 1.57984)
(4.57975e-14 4.54315 1.5711)
(1.03154e-13 4.54315 1.5711)
(4.59078e-14 4.43455 1.56192)
(1.83631e-13 4.43455 1.56192)
(-4.60175e-14 4.32716 1.55229)
(1.8407e-13 4.32716 1.55229)
(-4.61266e-14 4.22094 1.54218)
(0 4.22094 1.54218)
(0 4.11581 1.53154)
(1.8494e-13 4.11581 1.53154)
(-1.65653e-13 4.01172 1.52036)
(1.85372e-13 4.01172 1.52036)
(2.51797e-14 3.90859 1.50858)
(-7.16298e-14 3.90859 1.50858)
(7.03172e-14 3.80636 1.49619)
(3.02135e-13 3.80636 1.49619)
(0 3.70495 1.48312)
(0 3.70495 1.48312)
(4.67669e-14 3.6043 1.46935)
(-2.54831e-13 3.6043 1.46935)
(1.13393e-13 3.50433 1.45481)
(-6.6522e-14 3.50433 1.45481)
(-2.86449e-14 3.40497 1.43946)
(0 3.40497 1.43946)
(3.00459e-14 3.30613 1.42324)
(-1.28213e-13 3.30613 1.42324)
(0 3.20772 1.40609)
(1.88709e-13 3.20772 1.40609)
(6.17784e-14 3.10966 1.38794)
(1.27331e-13 3.10966 1.38794)
(4.73763e-14 3.01185 1.36871)
(1.89505e-13 3.01185 1.36871)
(-5.9535e-14 2.9142 1.34833)
(-1.89896e-13 2.9142 1.34833)
(-1.06015e-13 2.81659 1.32671)
(5.84441e-14 2.81659 1.32671)
(-4.76659e-14 2.71893 1.30376)
(7.59175e-14 2.71893 1.30376)
(5.63218e-14 2.62107 1.27937)
(1.34717e-13 2.62107 1.27937)
(7.43753e-15 2.52291 1.25341)
(-1.91409e-13 2.52291 1.25341)
(4.7943e-14 2.4243 1.22578)
(3.29267e-13 2.4243 1.22578)
(-5.32819e-14 2.3251 1.19633)
(1.92128e-13 2.3251 1.19633)
(-4.81195e-14 2.22515 1.1649)
(0 2.22515 1.1649)
(4.8205e-14 2.12427 1.13133)
(1.9282e-13 2.12427 1.13133)
(5.25238e-14 2.0223 1.09545)
(1.93154e-13 2.0223 1.09545)
(-4.83698e-14 1.91903 1.05704)
(1.93479e-13 1.91903 1.05704)
(0 1.81427 1.01589)
(0 1.81427 1.01589)
(4.85255e-14 1.7078 0.971767)
(0 1.7078 0.971767)
(-9.71989e-14 1.59939 0.924416)
(1.94398e-13 1.59939 0.924416)
(0 1.48882 0.873564)
(0 1.48882 0.873564)
(9.02237e-14 1.37583 0.818923)
(-9.02237e-14 1.37583 0.818923)
(1.37374e-13 1.2602 0.76019)
(1.06645e-13 1.2602 0.76019)
(-5.39166e-15 1.1417 0.697056)
(1.95461e-13 1.1417 0.697056)
(-9.16002e-14 1.02012 0.629208)
(0 1.02012 0.629208)
(0 0.895257 0.55634)
(0 0.895257 0.55634)
(0 0.76698 0.478161)
(-1.96105e-13 0.76698 0.478161)
(-4.90712e-14 0.63519 0.39441)
(0 0.63519 0.39441)
(3.01567e-14 0.499857 0.304862)
(1.96444e-13 0.499857 0.304862)
(0 0.361025 0.209346)
(1.96581e-13 0.361025 0.209346)
(-4.9174e-14 0.218821 0.107744)
(0 0.218821 0.107744)
(2.57929e-14 4.74943e-07 1.75789e-07)
(3.18692e-13 4.74924e-07 1.75782e-07)
(-2.28849e-16 874.936 -1.61919)
(0 874.936 -1.61919)
(-1.79724e-15 874.934 -4.88779)
(8.98622e-16 874.934 -4.88779)
(-3.97996e-16 874.929 -6.78346)
(0 874.929 -6.78346)
(6.52138e-16 874.919 -6.90997)
(0 874.919 -6.90997)
(-2.2275e-15 874.895 -7.03869)
(0 874.895 -7.03869)
(1.58401e-15 874.842 -7.16947)
(0 874.842 -7.16947)
(-3.277e-15 874.726 -7.302)
(-3.277e-15 874.726 -7.302)
(1.88549e-15 874.496 -7.43572)
(3.21695e-15 874.496 -7.43572)
(-9.36458e-15 874.068 -7.56973)
(1.21943e-14 874.068 -7.56973)
(3.55538e-15 873.318 -7.70269)
(-2.04218e-14 873.318 -7.70269)
(2.05699e-15 872.079 -7.83269)
(-1.62873e-14 872.079 -7.83269)
(-1.37707e-15 870.128 -7.9572)
(5.97511e-15 870.128 -7.9572)
(-5.13412e-15 867.187 -8.07298)
(-2.05365e-14 867.187 -8.07298)
(0 862.933 -8.17619)
(-2.27199e-14 862.933 -8.17619)
(6.23533e-15 857.009 -8.26251)
(-2.49413e-14 857.009 -8.26251)
(0 849.058 -8.32747)
(0 849.058 -8.32747)
(7.37201e-15 838.753 -8.36684)
(-2.9488e-14 838.753 -8.36684)
(1.86462e-14 825.844 -8.3771)
(2.11095e-14 825.844 -8.3771)
(8.53537e-15 810.194 -8.35588)
(0 810.194 -8.35588)
(1.82452e-14 791.806 -8.30229)
(0 791.806 -8.30229)
(-4.07283e-16 770.832 -8.21704)
(3.88421e-14 770.832 -8.21704)
(1.02966e-14 747.561 -8.10234)
(4.11865e-14 747.561 -8.10234)
(-1.08784e-14 722.386 -7.96159)
(0 722.386 -7.96159)
(3.76329e-15 695.769 -7.79904)
(1.91435e-14 695.769 -7.79904)
(3.08121e-14 668.193 -7.61929)
(-1.87927e-14 668.193 -7.61929)
(1.84483e-14 640.126 -7.42697)
(0 640.126 -7.42697)
(0 611.992 -7.22639)
(0 611.992 -7.22639)
(2.72959e-14 584.153 -7.02138)
(0 584.153 -7.02138)
(1.41638e-14 556.901 -6.81519)
(5.6655e-14 556.901 -6.81519)
(2.93301e-14 530.462 -6.61046)
(0 530.462 -6.61046)
(1.51517e-14 504.997 -6.40924)
(0 504.997 -6.40924)
(-8.86981e-16 480.613 -6.2131)
(0 480.613 -6.2131)
(1.60811e-14 457.373 -6.02312)
(-6.43245e-14 457.373 -6.02312)
(0 435.304 -5.84007)
(-6.60979e-14 435.304 -5.84007)
(1.56195e-14 414.405 -5.6644)
(0 414.405 -5.6644)
(2.03718e-15 394.655 -5.49633)
(-5.41485e-14 394.655 -5.49633)
(2.04959e-14 376.02 -5.33592)
(0 376.02 -5.33592)
(-1.81656e-14 358.454 -5.1831)
(-7.26622e-14 358.454 -5.1831)
(-1.85454e-14 341.909 -5.0377)
(-1.48363e-13 341.909 -5.0377)
(-1.89141e-14 326.329 -4.89948)
(0 326.329 -4.89948)
(-1.92723e-14 311.659 -4.76818)
(0 311.659 -4.76818)
(-1.96205e-14 297.846 -4.64349)
(-1.56964e-13 297.846 -4.64349)
(3.99182e-14 284.836 -4.5251)
(0 284.836 -4.5251)
(-6.1602e-15 272.576 -4.41268)
(-8.11549e-14 272.576 -4.41268)
(1.52552e-14 261.019 -4.30593)
(8.24389e-14 261.019 -4.30593)
(2.09226e-14 250.117 -4.20451)
(-8.36903e-14 250.117 -4.20451)
(-6.74768e-14 239.827 -4.10815)
(-5.98894e-14 239.827 -4.10815)
(4.30509e-14 230.107 -4.01654)
(8.61019e-14 230.107 -4.01654)
(2.41128e-14 220.921 -3.9294)
(0 220.921 -3.9294)
(-2.21004e-14 212.231 -3.84649)
(-1.76803e-13 212.231 -3.84649)
(2.23783e-14 204.005 -3.76755)
(-8.95132e-14 204.005 -3.76755)
(2.26502e-14 196.212 -3.69236)
(0 196.212 -3.69236)
(-4.47867e-14 188.823 -3.62068)
(-1.38544e-13 188.823 -3.62068)
(2.3177e-14 181.813 -3.55232)
(0 181.813 -3.55232)
(4.68652e-14 175.157 -3.48708)
(0 175.157 -3.48708)
(-4.23694e-14 168.832 -3.42479)
(-9.47327e-14 168.832 -3.42479)
(3.13259e-15 162.816 -3.36527)
(0 162.816 -3.36527)
(2.41705e-14 157.092 -3.30837)
(-9.6682e-14 157.092 -3.30837)
(0 151.641 -3.25394)
(-9.76305e-14 151.641 -3.25394)
(-3.93481e-14 146.445 -3.20185)
(-5.92144e-14 146.445 -3.20185)
(6.34968e-14 141.491 -3.15197)
(-3.86271e-14 141.491 -3.15197)
(0 136.762 -3.10417)
(0 136.762 -3.10417)
(6.25412e-14 132.247 -3.05834)
(0 132.247 -3.05834)
(2.55351e-14 127.932 -3.01438)
(0 127.932 -3.01438)
(0 123.805 -2.9722)
(-1.03001e-13 123.805 -2.9722)
(3.52153e-14 119.858 -2.93169)
(-3.52153e-14 119.858 -2.93169)
(2.61708e-14 116.078 -2.89277)
(-1.04683e-13 116.078 -2.89277)
(0 112.458 -2.85537)
(-1.05507e-13 112.458 -2.85537)
(0 108.988 -2.8194)
(0 108.988 -2.8194)
(-2.67803e-14 105.66 -2.78479)
(2.14243e-13 105.66 -2.78479)
(3.21048e-14 102.467 -2.75149)
(0 102.467 -2.75149)
(2.71736e-14 99.401 -2.71942)
(-1.08694e-13 99.401 -2.71942)
(2.73665e-14 96.4563 -2.68852)
(-1.09466e-13 96.4563 -2.68852)
(6.07441e-14 93.6264 -2.65875)
(-2.5083e-13 93.6264 -2.65875)
(-5.75612e-14 90.9054 -2.63004)
(0 90.9054 -2.63004)
(2.92691e-14 88.288 -2.60236)
(0 88.288 -2.60236)
(0 85.769 -2.57565)
(1.12465e-13 85.769 -2.57565)
(-9.23576e-17 83.3436 -2.54986)
(-4.52778e-13 83.3436 -2.54986)
(5.6958e-14 81.0073 -2.52497)
(-1.13916e-13 81.0073 -2.52497)
(-2.86575e-14 78.756 -2.50092)
(0 78.756 -2.50092)
(-2.88343e-14 76.5855 -2.47769)
(-1.15337e-13 76.5855 -2.47769)
(-5.80187e-14 74.4921 -2.45524)
(-1.16037e-13 74.4921 -2.45524)
(-2.91827e-14 72.4723 -2.43353)
(-2.33462e-13 72.4723 -2.43353)
(5.8709e-14 70.5228 -2.41254)
(-1.17418e-13 70.5228 -2.41254)
(2.95247e-14 68.6403 -2.39223)
(1.18099e-13 68.6403 -2.39223)
(0 66.822 -2.37257)
(9.44468e-14 66.822 -2.37257)
(-1.79017e-14 65.065 -2.35355)
(-1.67205e-13 65.065 -2.35355)
(-1.0694e-13 63.3667 -2.33513)
(1.20106e-13 63.3667 -2.33513)
(3.01911e-14 61.7245 -2.3173)
(0 61.7245 -2.3173)
(-3.03543e-14 60.136 -2.30002)
(0 60.136 -2.30002)
(0 58.5991 -2.28328)
(-4.43566e-14 58.5991 -2.28328)
(3.06769e-14 57.1115 -2.26706)
(1.22708e-13 57.1115 -2.26706)
(4.27458e-14 55.6712 -2.25133)
(-1.23346e-13 55.6712 -2.25133)
(-4.19625e-14 54.2764 -2.23608)
(0 54.2764 -2.23608)
(3.11519e-14 52.9251 -2.2213)
(1.24608e-13 52.9251 -2.2213)
(0 51.6157 -2.20695)
(0 51.6157 -2.20695)
(0 50.3465 -2.19304)
(-2.51705e-13 50.3465 -2.19304)
(0 49.1159 -2.17953)
(0 49.1159 -2.17953)
(3.17702e-14 47.9224 -2.16643)
(-1.65337e-13 47.9224 -2.16643)
(3.19223e-14 46.7647 -2.15371)
(0 46.7647 -2.15371)
(6.89404e-14 45.6413 -2.14136)
(2.19721e-13 45.6413 -2.14136)
(3.22237e-14 44.551 -2.12937)
(0 44.551 -2.12937)
(3.23731e-14 43.4925 -2.11772)
(-1.6502e-13 43.4925 -2.11772)
(-3.72326e-14 42.4647 -2.10641)
(1.30086e-13 42.4647 -2.10641)
(3.4238e-14 41.4664 -2.09542)
(0 41.4664 -2.09542)
(-3.28162e-14 40.4966 -2.08474)
(-1.31265e-13 40.4966 -2.08474)
(0 39.5542 -2.07436)
(-3.29947e-14 39.5542 -2.07436)
(0 38.6384 -2.06428)
(0 38.6384 -2.06428)
(3.17965e-14 37.748 -2.05447)
(-3.17965e-14 37.748 -2.05447)
(6.24277e-14 36.8823 -2.04494)
(-1.64798e-13 36.8823 -2.04494)
(-9.19256e-14 36.0405 -2.03568)
(0 36.0405 -2.03568)
(0 35.2215 -2.02667)
(0 35.2215 -2.02667)
(4.29446e-15 34.4248 -2.0179)
(0 34.4248 -2.0179)
(-3.39648e-14 33.6496 -2.00938)
(0 33.6496 -2.00938)
(-3.41054e-14 32.895 -2.00109)
(0 32.895 -2.00109)
(-4.95608e-14 32.1605 -1.99302)
(2.79354e-14 32.1605 -1.99302)
(0 31.4454 -1.98518)
(-5.48469e-14 31.4454 -1.98518)
(-6.90471e-14 30.749 -1.97754)
(-2.76188e-13 30.749 -1.97754)
(0 30.0707 -1.97011)
(0 30.0707 -1.97011)
(3.47995e-14 29.41 -1.96287)
(0 29.41 -1.96287)
(-1.01872e-13 28.7663 -1.95583)
(1.90683e-13 28.7663 -1.95583)
(-5.00025e-14 28.139 -1.94898)
(-1.40293e-13 28.139 -1.94898)
(-4.90862e-14 27.5276 -1.9423)
(-1.40838e-13 27.5276 -1.9423)
(-8.35319e-14 26.9317 -1.9358)
(-9.31941e-14 26.9317 -1.9358)
(-4.73037e-14 26.3507 -1.92947)
(1.41922e-13 26.3507 -1.92947)
(3.56151e-14 25.7842 -1.92331)
(0 25.7842 -1.92331)
(7.14989e-14 25.2317 -1.9173)
(1.42998e-13 25.2317 -1.9173)
(-3.58833e-14 24.6929 -1.91145)
(9.87825e-14 24.6929 -1.91145)
(-4.39306e-14 24.1672 -1.90575)
(0 24.1672 -1.90575)
(3.61497e-14 23.6544 -1.90019)
(0 23.6544 -1.90019)
(3.62823e-14 23.154 -1.89477)
(1.45129e-13 23.154 -1.89477)
(3.64145e-14 22.6656 -1.88949)
(1.45658e-13 22.6656 -1.88949)
(3.65464e-14 22.1889 -1.88434)
(0 22.1889 -1.88434)
(4.00503e-14 21.7236 -1.87932)
(-1.46711e-13 21.7236 -1.87932)
(3.68089e-14 21.2693 -1.87442)
(0 21.2693 -1.87442)
(-3.69396e-14 20.8257 -1.86964)
(0 20.8257 -1.86964)
(0 20.3925 -1.86498)
(0 20.3925 -1.86498)
(5.61877e-18 19.9694 -1.86042)
(0 19.9694 -1.86042)
(1.11172e-13 19.5561 -1.85598)
(0 19.5561 -1.85598)
(0 19.1524 -1.85164)
(0 19.1524 -1.85164)
(7.27751e-14 18.7579 -1.8474)
(2.65519e-13 18.7579 -1.8474)
(0 18.3724 -1.84325)
(0 18.3724 -1.84325)
(-1.39573e-13 17.9957 -1.8392)
(3.39092e-14 17.9957 -1.8392)
(-3.79736e-14 17.6274 -1.83524)
(0 17.6274 -1.83524)
(3.26778e-14 17.2675 -1.83136)
(0 17.2675 -1.83136)
(3.82291e-14 16.9156 -1.82756)
(0 16.9156 -1.82756)
(9.44735e-14 16.5715 -1.82385)
(-3.14912e-14 16.5715 -1.82385)
(7.6967e-14 16.2351 -1.82021)
(-1.53934e-13 16.2351 -1.82021)
(7.72205e-14 15.9061 -1.81664)
(-1.54441e-13 15.9061 -1.81664)
(2.08462e-14 15.5842 -1.81314)
(-4.64842e-13 15.5842 -1.81314)
(-3.88631e-14 15.2694 -1.8097)
(0 15.2694 -1.8097)
(0 14.9614 -1.80633)
(1.55957e-13 14.9614 -1.80633)
(-5.63671e-14 14.6601 -1.80301)
(0 14.6601 -1.80301)
(3.92405e-14 14.3652 -1.79975)
(0 14.3652 -1.79975)
(-3.93658e-14 14.0767 -1.79654)
(-1.57463e-13 14.0767 -1.79654)
(0 13.7942 -1.79338)
(0 13.7942 -1.79338)
(3.96158e-14 13.5178 -1.79027)
(1.58463e-13 13.5178 -1.79027)
(7.94809e-14 13.2472 -1.78719)
(-1.58962e-13 13.2472 -1.78719)
(0 12.9822 -1.78416)
(-2.09906e-13 12.9822 -1.78416)
(3.99891e-14 12.7228 -1.78115)
(0 12.7228 -1.78115)
(-4.86148e-14 12.4687 -1.77818)
(-1.60452e-13 12.4687 -1.77818)
(0 12.2199 -1.77524)
(-3.21895e-13 12.2199 -1.77524)
(-4.68495e-14 11.9761 -1.77232)
(-4.68495e-14 11.9761 -1.77232)
(8.09677e-14 11.7374 -1.76942)
(1.61935e-13 11.7374 -1.76942)
(-4.54113e-15 11.5035 -1.76653)
(0 11.5035 -1.76653)
(0 11.2743 -1.76366)
(1.6292e-13 11.2743 -1.76366)
(4.08528e-14 11.0497 -1.7608)
(-1.63411e-13 11.0497 -1.7608)
(-4.27114e-14 10.8296 -1.75794)
(-1.63902e-13 10.8296 -1.75794)
(4.19287e-14 10.6139 -1.75508)
(0 10.6139 -1.75508)
(4.12199e-14 10.4024 -1.75222)
(-2.0604e-13 10.4024 -1.75222)
(8.26838e-14 10.1951 -1.74935)
(-1.65368e-13 10.1951 -1.74935)
(4.14637e-14 9.99186 -1.74646)
(1.65855e-13 9.99186 -1.74646)
(5.29287e-15 9.79254 -1.74356)
(1.66341e-13 9.79254 -1.74356)
(4.17067e-14 9.59706 -1.74064)
(0 9.59706 -1.74064)
(-4.30302e-15 9.40532 -1.73769)
(-3.75249e-14 9.40532 -1.73769)
(4.19489e-14 9.21724 -1.73471)
(-1.67795e-13 9.21724 -1.73471)
(4.20697e-14 9.03272 -1.7317)
(1.68279e-13 9.03272 -1.7317)
(8.43805e-14 8.85166 -1.72864)
(0 8.85166 -1.72864)
(3.4849e-14 8.67398 -1.72554)
(1.69242e-13 8.67398 -1.72554)
(-4.24308e-14 8.4996 -1.72238)
(-2.03934e-13 8.4996 -1.72238)
(8.51015e-14 8.32842 -1.71916)
(-1.70203e-13 8.32842 -1.71916)
(-4.26705e-14 8.16037 -1.71588)
(-3.41364e-13 8.16037 -1.71588)
(4.279e-14 7.99537 -1.71253)
(-1.7116e-13 7.99537 -1.71253)
(-1.27084e-13 7.83333 -1.7091)
(1.71637e-13 7.83333 -1.7091)
(2.36794e-14 7.67419 -1.70559)
(1.72114e-13 7.67419 -1.70559)
(1.04382e-13 7.51786 -1.70198)
(-2.33823e-13 7.51786 -1.70198)
(-1.68464e-14 7.36426 -1.69828)
(0 7.36426 -1.69828)
(0 7.21334 -1.69447)
(-2.32548e-13 7.21334 -1.69447)
(0 7.06501 -1.69054)
(-1.74009e-13 7.06501 -1.69054)
(0 6.91921 -1.68649)
(-1.74481e-13 6.91921 -1.68649)
(0 6.77587 -1.68231)
(0 6.77587 -1.68231)
(-1.09476e-14 6.63492 -1.67799)
(0 6.63492 -1.67799)
(4.39722e-14 6.49629 -1.67352)
(1.75889e-13 6.49629 -1.67352)
(4.4089e-14 6.35992 -1.66888)
(0 6.35992 -1.66888)
(0 6.22575 -1.66408)
(1.76822e-13 6.22575 -1.66408)
(0 6.09371 -1.65909)
(0 6.09371 -1.65909)
(0 5.96373 -1.6539)
(-1.7775e-13 5.96373 -1.6539)
(-4.90467e-14 5.83576 -1.64851)
(0 5.83576 -1.64851)
(-4.46681e-14 5.70973 -1.6429)
(-4.8148e-14 5.70973 -1.6429)
(-4.4783e-14 5.58559 -1.63705)
(-1.79132e-13 5.58559 -1.63705)
(-9.12969e-14 5.46327 -1.63095)
(-1.7959e-13 5.46327 -1.63095)
(0 5.34271 -1.62459)
(0 5.34271 -1.62459)
(4.47146e-14 5.22385 -1.61794)
(-3.61001e-13 5.22385 -1.61794)
(0 5.10664 -1.611)
(-1.80953e-13 5.10664 -1.611)
(0 4.99102 -1.60374)
(0 4.99102 -1.60374)
(-8.46025e-14 4.87691 -1.59614)
(-1.81854e-13 4.87691 -1.59614)
(-4.04924e-15 4.76427 -1.58818)
(0 4.76427 -1.58818)
(5.06082e-14 4.65304 -1.57984)
(1.82747e-13 4.65304 -1.57984)
(9.1595e-14 4.54315 -1.5711)
(0 4.54315 -1.5711)
(9.18156e-14 4.43455 -1.56192)
(-1.83631e-13 4.43455 -1.56192)
(8.45824e-14 4.32716 -1.55229)
(0 4.32716 -1.55229)
(-4.61266e-14 4.22094 -1.54218)
(0 4.22094 -1.54218)
(0 4.11581 -1.53154)
(1.8494e-13 4.11581 -1.53154)
(-1.1931e-13 4.01172 -1.52036)
(1.85372e-13 4.01172 -1.52036)
(0 3.90859 -1.50858)
(-1.858e-13 3.90859 -1.50858)
(0 3.80636 -1.49619)
(-2.56543e-13 3.80636 -1.49619)
(-1.15691e-13 3.70495 -1.48312)
(-1.86648e-13 3.70495 -1.48312)
(9.35339e-14 3.6043 -1.46935)
(-1.87068e-13 3.6043 -1.46935)
(4.68709e-14 3.50433 -1.45481)
(0 3.50433 -1.45481)
(-1.30606e-13 3.40497 -1.43946)
(1.87896e-13 3.40497 -1.43946)
(0 3.30613 -1.42324)
(0 3.30613 -1.42324)
(-6.29316e-14 3.20772 -1.40609)
(-1.88709e-13 3.20772 -1.40609)
(-6.17784e-14 3.10966 -1.38794)
(0 3.10966 -1.38794)
(-1.327e-14 3.01185 -1.36871)
(6.82125e-14 3.01185 -1.36871)
(4.74741e-14 2.9142 -1.34833)
(-3.79793e-13 2.9142 -1.34833)
(-5.84441e-14 2.81659 -1.32671)
(5.84441e-14 2.81659 -1.32671)
(-1.24453e-13 2.71893 -1.30376)
(1.14746e-13 2.71893 -1.30376)
(4.77598e-14 2.62107 -1.27937)
(-1.91039e-13 2.62107 -1.27937)
(-1.58432e-13 2.52291 -1.25341)
(1.91409e-13 2.52291 -1.25341)
(4.16094e-14 2.4243 -1.22578)
(1.91772e-13 2.4243 -1.22578)
(4.27823e-14 2.3251 -1.19633)
(0 2.3251 -1.19633)
(-4.18607e-15 2.22515 -1.1649)
(0 2.22515 -1.1649)
(4.8205e-14 2.12427 -1.13133)
(0 2.12427 -1.13133)
(-2.1177e-15 2.0223 -1.09545)
(-1.93154e-13 2.0223 -1.09545)
(4.83698e-14 1.91903 -1.05704)
(1.93479e-13 1.91903 -1.05704)
(0 1.81427 -1.01589)
(-1.93795e-13 1.81427 -1.01589)
(4.85255e-14 1.7078 -0.971767)
(-1.94102e-13 1.7078 -0.971767)
(9.54112e-14 1.59939 -0.924416)
(0 1.59939 -0.924416)
(9.19079e-14 1.48882 -0.873564)
(1.48729e-13 1.48882 -0.873564)
(-9.02237e-14 1.37583 -0.818923)
(-2.99687e-13 1.37583 -0.818923)
(0 1.2602 -0.76019)
(-1.95215e-13 1.2602 -0.76019)
(5.39166e-15 1.1417 -0.697056)
(-1.51988e-13 1.1417 -0.697056)
(4.89231e-14 1.02012 -0.629208)
(1.95693e-13 1.02012 -0.629208)
(4.89769e-14 0.895257 -0.55634)
(-3.91815e-13 0.895257 -0.55634)
(9.80527e-14 0.76698 -0.478161)
(-1.96105e-13 0.76698 -0.478161)
(0 0.63519 -0.39441)
(0 0.63519 -0.39441)
(-8.87448e-14 0.499857 -0.304862)
(1.17176e-13 0.499857 -0.304862)
(-7.78151e-14 0.361025 -0.209346)
(-1.96581e-13 0.361025 -0.209346)
(-4.9174e-14 0.218821 -0.107744)
(1.96696e-13 0.218821 -0.107744)
(4.91964e-14 4.7497e-07 -1.75799e-07)
(1.97006e-13 4.74938e-07 -1.75788e-07)
(4.92515e-14 6.29714e-12 5.68434e-14)
(1.96786e-13 -1.82268e-08 6.74623e-09)
(-7.63891e-14 -0.21882 0.107744)
(3.93392e-13 -0.21882 0.107744)
(-4.91454e-14 -0.361025 0.209345)
(-7.78151e-14 -0.361025 0.209345)
(-7.92676e-14 -0.499856 0.304862)
(2.75711e-13 -0.499856 0.304862)
(0 -0.63519 0.394409)
(3.92569e-13 -0.63519 0.394409)
(-4.90264e-14 -0.76698 0.478161)
(-1.96105e-13 -0.76698 0.478161)
(8.379e-14 -0.895257 0.55634)
(0 -0.895257 0.55634)
(-9.16002e-14 -1.02012 0.629208)
(-1.53015e-13 -1.02012 0.629208)
(0 -1.1417 0.697056)
(0 -1.1417 0.697056)
(1.37374e-13 -1.2602 0.76019)
(0 -1.2602 0.76019)
(0 -1.37583 0.818923)
(1.94955e-13 -1.37583 0.818923)
(0 -1.48882 0.873564)
(1.94683e-13 -1.48882 0.873564)
(0 -1.59939 0.924416)
(0 -1.59939 0.924416)
(-4.85255e-14 -1.7078 0.971767)
(-1.94102e-13 -1.7078 0.971767)
(9.68977e-14 -1.81427 1.01589)
(0 -1.81427 1.01589)
(0 -1.91903 1.05704)
(0 -1.91903 1.05704)
(-4.23539e-15 -2.0223 1.09545)
(1.93154e-13 -2.0223 1.09545)
(-9.9552e-14 -2.12427 1.13133)
(-1.9282e-13 -2.12427 1.13133)
(-9.62389e-14 -2.22515 1.1649)
(0 -2.22515 1.1649)
(-4.80321e-14 -2.3251 1.19633)