/*--------------------------------*- C++ -*----------------------------------*\
| =========                 |                                                 |
| \\      /  F ield         | OpenFOAM: The Open Source CFD Toolbox           |
|  \\    /   O peration     | Version:  2106                                  |
|   \\  /    A nd           | Website:  www.openfoam.com                      |
|    \\/     M anipulation  |                                                 |
\*---------------------------------------------------------------------------*/
FoamFile
{
    version     2.0;
    format      ascii;
    arch        "LSB;label=32;scalar=64";
    class       volTensorField;
    location    "10020";
    object      grad(U);
}
// * * * * * * * * * * * * * * * * * * * * * * * * * * * * * * * * * * * * * //

dimensions      [0 0 -1 0 0 0 0];

internalField   nonuniform List<tensor> 
2000
(
(0 -7.53604e-26 3.55703e-31 61.5046 -8.87985e-12 -4.35297e-13 0.113833 -8.22067e-15 -2.95869e-16)
(0 -8.13036e-30 -3.55703e-31 61.5046 -5.15645e-15 -1.2661e-17 0.113833 -1.3534e-17 4.64315e-17)
(0 0 1.56062e-30 61.4929 0 -5.58908e-14 0.343582 0 -2.10729e-16)
(-5.61639e-17 -3.19255e-29 -1.39674e-30 61.4929 -4.71143e-15 1.05858e-17 0.343582 -7.1002e-18 -3.57584e-16)
(-1.40091e-17 -9.17206e-30 -1.05808e-31 61.4811 8.5963e-13 -2.6135e-14 0.476628 -6.46716e-15 -1.90597e-16)
(0 1.88043e-29 5.87634e-31 61.4811 -9.72683e-15 4.72832e-17 0.476628 -3.2298e-17 -3.71101e-16)
(6.2388e-17 -3.06014e-30 -9.88844e-32 61.4688 5.32613e-13 -2.49195e-14 0.485426 -6.74184e-15 -1.99469e-16)
(7.51945e-17 1.84597e-29 3.84577e-31 61.4688 -8.53314e-15 3.73057e-17 0.485426 -5.09256e-17 -3.85235e-16)
(-2.1253e-16 1.2081e-29 5.66295e-31 61.4556 7.49753e-14 -2.55274e-14 0.494374 -1.54537e-15 -2.0756e-16)
(0 -6.04048e-30 -3.7753e-31 61.4556 -8.84107e-15 3.1227e-17 0.494374 -7.04751e-17 -4e-16)
(0 -7.54138e-28 1.29714e-30 61.4398 9.84498e-28 -2.59289e-14 0.503459 0 -2.13566e-16)
(-4.45382e-16 -2.37191e-29 -1.29714e-30 61.4398 -9.20674e-15 2.55202e-17 0.503459 -9.1316e-17 -4.15435e-16)
(4.09625e-16 -6.72469e-28 -5.4573e-31 61.419 4.07886e-16 -2.61793e-14 0.512655 -1.68687e-18 -2.19563e-16)
(5.80015e-16 1.74634e-29 5.4573e-31 61.419 -9.29069e-15 2.69922e-17 0.512655 -1.12494e-16 -4.3154e-16)
(0 0 0 61.3885 1.97423e-14 -2.6416e-14 0.521913 -1.69499e-16 -2.2564e-16)
(1.43433e-15 1.14289e-29 1.78577e-31 61.3885 -9.39688e-15 3.10497e-17 0.521913 -1.33484e-16 -4.48282e-16)
(-2.14223e-16 9.56914e-30 2.89948e-31 61.3416 1.83964e-14 -2.66031e-14 0.531159 -1.63128e-16 -2.31078e-16)
(0 5.60974e-30 0 61.3416 -9.97604e-15 2.23658e-17 0.531159 -1.55679e-16 -4.6564e-16)
(0 -1.10139e-29 -6.88368e-31 61.2678 1.72611e-14 -2.66607e-14 0.540278 -1.52566e-16 -2.35158e-16)
(0 1.10139e-29 6.88368e-31 61.2678 -1.04099e-14 1.76555e-17 0.540278 -1.80846e-16 -4.83613e-16)
(1.14125e-15 -4.32482e-29 -2.02726e-30 61.153 1.71523e-14 -2.65102e-14 0.549111 -1.49238e-16 -2.37081e-16)
(-7.60831e-16 4.32482e-29 2.02726e-30 61.153 -1.03873e-14 2.22212e-17 0.549111 -2.06558e-16 -5.02014e-16)
(3.23023e-16 1.19721e-29 1.19585e-30 60.9788 1.79494e-14 -2.60665e-14 0.557445 -1.56357e-16 -2.35893e-16)
(1.29209e-15 -5.30696e-30 -6.63371e-31 60.9788 -1.08812e-14 2.61534e-17 0.557445 -2.32333e-16 -5.2071e-16)
(0 0 0 60.722 1.87007e-14 -2.5246e-14 0.565012 -1.69462e-16 -2.30706e-16)
(0 0 0 60.722 -1.18544e-14 3.64184e-17 0.565012 -2.61675e-16 -5.39466e-16)
(-1.11873e-15 2.95089e-29 1.74248e-30 60.3561 1.92037e-14 -2.39755e-14 0.571496 -1.76265e-16 -2.20636e-16)
(0 -2.55712e-29 -1.5982e-30 60.3561 -1.2136e-14 3.88009e-17 0.571496 -2.92821e-16 -5.57942e-16)
(-1.85107e-15 2.4014e-29 1.40693e-30 59.8521 1.96724e-14 -2.21995e-14 0.576546 -1.85407e-16 -2.05017e-16)
(0 -5.02053e-30 -3.13783e-31 59.8521 -1.20764e-14 2.44062e-17 0.576546 -3.24073e-16 -5.758e-16)
(1.86473e-15 -1.87118e-29 -1.08387e-30 59.1814 1.95454e-14 -1.99036e-14 0.579805 -1.9198e-16 -1.83672e-16)
(-1.90987e-15 1.47856e-29 9.241e-31 59.1814 -1.2562e-14 2.17105e-17 0.579805 -3.56077e-16 -5.9267e-16)
(0 -9.67644e-30 -3.02389e-31 58.3191 1.9429e-14 -1.71224e-14 0.580947 -1.8989e-16 -1.56873e-16)
(0 9.67644e-30 6.04777e-31 58.3191 -1.29348e-14 4.81629e-17 0.580947 -3.91235e-16 -6.0802e-16)
(1.78449e-15 -3.15796e-29 -2.72725e-30 57.2472 1.96588e-14 -1.39439e-14 0.579719 -1.96876e-16 -1.25548e-16)
(2.23209e-15 2.37478e-29 2.07793e-30 57.2472 -1.28269e-14 5.69409e-17 0.579719 -4.26591e-16 -6.21313e-16)
(-5.98769e-16 8.57297e-30 1.0584e-30 55.9585 1.96931e-14 -1.05067e-14 0.575973 -2.01748e-16 -9.11319e-17)
(0 0 -2.91408e-31 55.9585 -1.24744e-14 3.98579e-17 0.575973 -4.62356e-16 -6.32347e-16)
(6.39606e-16 -8.48216e-30 -4.77567e-31 54.4578 2.00901e-14 -6.9827e-15 0.569695 -2.0501e-16 -5.54458e-17)
(2.55843e-15 1.37313e-29 8.58204e-31 54.4578 -1.22e-14 4.44811e-17 0.569695 -4.97815e-16 -6.4089e-16)
(-6.80343e-16 3.89817e-30 1.97903e-31 52.7625 2.0776e-14 -3.55365e-15 0.561006 -2.1778e-16 -2.03903e-17)
(5.44274e-15 0 0 52.7625 -1.24579e-14 7.99702e-17 0.561006 -5.30862e-16 -6.46694e-16)
(0 4.41088e-30 -1.8571e-29 50.9012 2.0852e-14 -4.93038e-32 0.550148 -2.27573e-16 -1.97215e-31)
(2.88311e-15 0 -2.7568e-31 50.9012 -1.26888e-14 9.32766e-17 0.550148 -5.67377e-16 -6.49683e-16)
(1.2188e-15 -8.6601e-30 -9.13571e-30 48.9101 2.06152e-14 2.22412e-15 0.537453 -2.2766e-16 -1.23656e-17)
(1.82405e-15 1.29901e-29 5.41256e-31 48.9101 -1.2886e-14 9.03316e-17 0.537453 -6.09625e-16 -6.50306e-16)
(0 1.27521e-29 5.31338e-31 46.8296 2.03689e-14 4.71453e-15 0.523305 -2.30834e-16 -4.13137e-17)
(3.19988e-15 -4.2507e-30 -2.65669e-31 46.8296 -1.3378e-14 1.09208e-16 0.523305 -6.55278e-16 -6.48753e-16)
(-8.38392e-16 -3.0084e-31 -7.0585e-32 44.7 2.00205e-14 6.52499e-15 0.508102 -2.30605e-16 -6.57161e-17)
(0 8.34562e-30 7.82402e-31 44.7 -1.31892e-14 1.20094e-16 0.508102 -7.03063e-16 -6.45249e-16)
(0 -2.04817e-29 -2.04817e-30 42.5589 1.96087e-14 7.84406e-15 0.492223 -2.31419e-16 -8.50406e-17)
(3.50341e-15 2.04817e-29 2.04817e-30 42.5589 -1.29055e-14 1.24944e-16 0.492223 -7.49969e-16 -6.40312e-16)
(-9.12257e-16 -4.18275e-30 -5.72377e-31 40.4389 1.89992e-14 8.71915e-15 0.476008 -2.29523e-16 -9.94904e-17)
(0 1.60851e-29 1.00532e-30 40.4389 -1.33779e-14 1.37417e-16 0.476008 -7.95393e-16 -6.34253e-16)
(-9.47544e-16 3.85419e-30 4.24597e-31 38.3665 1.91161e-14 9.21016e-15 0.459744 -2.25408e-16 -1.09396e-16)
(0 7.89518e-30 2.46724e-31 38.3665 -1.28667e-14 1.40712e-16 0.459744 -8.43614e-16 -6.27226e-16)
(-1.09079e-15 7.75051e-30 9.68813e-31 36.3618 2.00544e-14 9.38472e-15 0.443664 -2.41048e-16 -1.15329e-16)
(0 0 -4.84407e-31 36.3618 -1.26947e-14 1.30075e-16 0.443664 -8.88334e-16 -6.19673e-16)
(-4.22704e-15 3.42697e-29 2.31149e-30 34.439 2.01399e-14 9.31126e-15 0.427943 -2.57436e-16 -1.17897e-16)
(-2.98778e-15 -2.66297e-29 -1.90212e-30 34.439 -1.26039e-14 1.46963e-16 0.427943 -9.39366e-16 -6.11914e-16)
(1.04645e-15 -3.82993e-30 -4.02443e-31 32.6074 1.89614e-14 9.04033e-15 0.412713 -2.52316e-16 -1.17798e-16)
(3.13463e-15 0 2.33408e-31 32.6074 -1.11617e-14 1.60956e-16 0.412713 -9.84465e-16 -6.03897e-16)
(0 1.09983e-29 6.87393e-31 30.872 1.78746e-14 8.62433e-15 0.398061 -2.36466e-16 -1.15288e-16)
(-1.03191e-15 -3.66609e-30 -2.29131e-31 30.872 -1.1372e-14 1.56852e-16 0.398061 -1.02191e-15 -5.95964e-16)
(-2.11969e-15 1.1019e-29 1.28973e-30 29.2346 1.77032e-14 8.11757e-15 0.384042 -2.33009e-16 -1.11208e-16)
(1.013e-15 -7.19783e-30 -1.12466e-30 29.2346 -1.1998e-14 1.69191e-16 0.384042 -1.06937e-15 -5.88146e-16)
(-1.13519e-15 -3.25212e-30 -2.78061e-31 27.6943 1.77909e-14 7.55642e-15 0.370685 -2.40749e-16 -1.05946e-16)
(0 1.05989e-29 8.83241e-31 27.6943 -1.09618e-14 1.70304e-16 0.370685 -1.11858e-15 -5.8053e-16)
(0 -2.77458e-29 -1.30058e-30 26.2486 1.67335e-14 6.9643e-15 0.358001 -2.44201e-16 -9.99606e-17)
(4.65069e-15 2.77458e-29 1.30058e-30 26.2486 -9.787e-15 1.57029e-16 0.358001 -1.15873e-15 -5.7328e-16)
(-1.91666e-15 1.36187e-29 6.38376e-31 24.894 1.46991e-14 6.35599e-15 0.345983 -2.20188e-16 -9.33445e-17)
(0 -3.40467e-30 -2.12792e-31 24.894 -8.64759e-15 1.46049e-16 0.345983 -1.19756e-15 -5.66413e-16)
(1.21477e-15 -4.5928e-31 2.57245e-31 23.626 1.33761e-14 5.74729e-15 0.334616 -1.95326e-16 -8.63616e-17)
(4.85907e-15 -3.34228e-30 -4.17785e-31 23.626 -6.80094e-15 1.50437e-16 0.334616 -1.23459e-15 -5.60071e-16)
(-1.23948e-15 -2.24513e-29 -1.07042e-30 22.4397 1.3331e-14 5.14726e-15 0.323877 -1.90013e-16 -7.91604e-17)
(4.9579e-15 2.62483e-29 1.43545e-30 22.4397 -5.88622e-15 1.22968e-16 0.323877 -1.26106e-15 -5.54295e-16)
(-1.26336e-15 -1.55351e-29 -8.46933e-31 21.3301 1.34243e-14 4.56788e-15 0.31374 -2.01348e-16 -7.18411e-17)
(0 2.57673e-29 1.20784e-30 21.3301 -6.43452e-15 8.41186e-17 0.31374 -1.29754e-15 -5.49415e-16)
(0 2.21332e-29 1.38333e-30 20.2921 1.28101e-14 4.01006e-15 0.304174 -1.9999e-16 -6.46597e-17)
(5.14581e-15 -2.21332e-29 -1.38333e-30 20.2921 -6.67965e-15 1.27862e-16 0.304174 -1.3301e-15 -5.45303e-16)
(-2.61763e-15 1.37732e-29 1.28876e-30 19.3208 1.18344e-14 3.48095e-15 0.295148 -1.90053e-16 -5.74012e-17)
(5.23525e-15 0 -5.8199e-31 19.3208 -6.51027e-15 1.84017e-16 0.295148 -1.35339e-15 -5.41396e-16)
(1.71535e-15 -6.09414e-30 -9.52209e-31 18.4115 1.10862e-14 2.98018e-15 0.286632 -1.76975e-16 -5.05277e-17)
(-1.71535e-15 1.21883e-29 1.33309e-30 18.4115 -6.20154e-15 1.35347e-16 0.286632 -1.38816e-15 -5.37981e-16)
(1.68391e-15 -1.19649e-29 -7.47808e-31 17.5598 1.09327e-14 2.50372e-15 0.278594 -1.73348e-16 -4.35908e-17)
(-1.68391e-15 1.79474e-29 9.3476e-31 17.5598 -6.66684e-15 7.48017e-17 0.278594 -1.41993e-15 -5.35535e-16)
(-1.37186e-15 1.55189e-29 8.94383e-31 16.7613 1.13429e-14 2.05933e-15 0.271004 -1.78658e-16 -3.695e-17)
(-7.14051e-15 -5.87284e-30 -3.67052e-31 16.7613 -6.73461e-15 8.67759e-17 0.271004 -1.45571e-15 -5.33748e-16)
(-1.85387e-15 7.76371e-30 5.59761e-31 16.0122 1.21534e-14 1.64547e-15 0.263834 -1.93458e-16 -3.05239e-17)
(5.56665e-15 -5.76522e-30 -7.20653e-31 16.0122 -6.3298e-15 9.33912e-17 0.263834 -1.47675e-15 -5.32321e-16)
(1.41091e-15 1.8879e-29 1.25326e-30 15.3088 1.20912e-14 1.25116e-15 0.257056 -2.12718e-16 -2.43878e-17)
(-5.64364e-15 -2.26383e-29 -1.41489e-30 15.3088 -7.17392e-15 8.31791e-17 0.257056 -1.49493e-15 -5.31396e-16)
(-1.42964e-15 3.75745e-30 -1.84625e-31 14.6478 1.11151e-14 8.79825e-16 0.250646 -1.98612e-16 -1.81306e-17)
(5.71855e-15 0 3.47242e-31 14.6478 -6.72325e-15 1.30064e-16 0.250646 -1.53822e-15 -5.30919e-16)
(0 -1.63622e-29 -1.36351e-30 14.0259 1.04229e-14 5.348e-16 0.244579 -1.86578e-16 -1.23146e-17)
(1.1583e-14 2.18162e-29 1.70439e-30 14.0259 -4.91677e-15 1.39262e-16 0.244579 -1.56988e-15 -5.30468e-16)
(4.47974e-15 -3.05222e-29 -1.83806e-30 13.4404 1.06825e-14 1.91911e-16 0.238832 -1.81427e-16 -6.51659e-18)
(5.86256e-15 2.14164e-29 1.33853e-30 13.4404 -5.35606e-15 8.46052e-17 0.238832 -1.58706e-15 -5.30754e-16)
(-2.9624e-15 9.00062e-30 4.9426e-31 12.8885 1.16253e-14 -1.19475e-16 0.233385 -2.03032e-16 -4.75431e-18)
(-5.93187e-15 -5.256e-30 0 12.8885 -6.71288e-15 6.01982e-17 0.233385 -1.62655e-15 -5.31825e-16)
(2.90464e-15 -1.03194e-29 -3.2248e-31 12.3679 1.18029e-14 -3.94098e-16 0.228218 -2.23133e-16 -1.00045e-17)
(0 1.03194e-29 3.2248e-31 12.3679 -5.48855e-15 6.16122e-17 0.228218 -1.67115e-15 -5.33205e-16)
(-2.94211e-15 1.89265e-29 1.11585e-30 11.8763 1.16129e-14 -6.46911e-16 0.223313 -2.17375e-16 -1.4636e-17)
(0 -1.01303e-29 -3.16571e-31 11.8763 -4.48126e-15 7.78608e-18 0.223313 -1.68918e-15 -5.34665e-16)
(2.79917e-15 -4.97232e-30 -3.1077e-31 11.4117 1.15417e-14 -8.79206e-16 0.218653 -2.24248e-16 -1.9463e-17)
(0 4.97232e-30 3.1077e-31 11.4117 -6.08702e-15 8.73493e-18 0.218653 -1.71921e-15 -5.36826e-16)
(-1.37394e-15 4.8812e-30 6.1015e-31 10.9721 1.16657e-14 -1.10032e-15 0.214222 -2.22784e-16 -2.3993e-17)
(-4.81937e-15 -1.46436e-29 -1.2203e-30 10.9721 -7.04391e-15 2.29734e-17 0.214222 -1.76633e-15 -5.38699e-16)
(2.15016e-16 1.06636e-29 7.30326e-31 10.5559 1.19567e-14 -1.2968e-15 0.210006 -2.37638e-16 -2.81672e-17)
(0 -4.79176e-30 -7.50175e-32 10.5559 -6.61084e-15 -7.46645e-30 0.210006 -1.80343e-15 -5.40558e-16)
(-1.5789e-15 -9.99313e-31 -4.18845e-31 10.1614 1.07297e-14 -1.47544e-15 0.205992 -2.42982e-16 -3.22797e-17)
(0 9.4079e-30 8.8199e-31 10.1614 -5.8189e-15 -6.33282e-18 0.205992 -1.8471e-15 -5.42979e-16)
(7.11886e-16 -6.4411e-30 -8.13828e-31 9.78717 8.93629e-15 -1.64806e-15 0.202167 -1.95888e-16 -3.6495e-17)
(3.77535e-15 9.2355e-30 0 9.78717 -4.44697e-15 -7.25459e-30 0.202167 -1.87891e-15 -5.45105e-16)
(-1.60826e-15 -8.29021e-31 1.71592e-31 9.4319 8.17408e-15 -1.8128e-15 0.19852 -1.76641e-16 -4.05607e-17)
(0 4.53313e-30 -5.44628e-31 9.4319 -4.81926e-15 -1.90655e-17 0.19852 -1.89631e-15 -5.4742e-16)
(-3.24504e-15 2.52028e-29 2.01491e-30 9.09433 7.9419e-15 -1.96508e-15 0.195039 -1.70584e-16 -4.45221e-17)
(-6.49008e-15 -1.78003e-29 -1.66877e-30 9.09433 -6.46561e-15 -6.15132e-17 0.195039 -1.92686e-15 -5.49625e-16)
(1.63652e-15 5.04014e-30 6.44345e-31 8.77331 9.53583e-15 -2.10463e-15 0.191715 -1.73155e-16 -4.82989e-17)
(-6.54606e-15 -1.74741e-29 -1.09213e-30 8.77331 -6.70887e-15 -8.58495e-17 0.191715 -1.96996e-15 -5.51403e-16)
(0 8.57693e-30 8.04087e-31 8.46779 1.08335e-14 -2.21789e-15 0.18854 -2.47939e-16 -5.13337e-17)
(0 -4.28847e-30 0 8.46779 -5.13345e-15 -1.13386e-16 0.18854 -2.01125e-15 -5.52809e-16)
(-3.32753e-15 -5.28276e-30 -6.95301e-31 8.17679 9.45239e-15 -2.319e-15 0.185503 -2.38502e-16 -5.47877e-17)
(1.33101e-14 8.41976e-30 1.05247e-30 8.17679 -4.01788e-15 -1.38694e-16 0.185503 -2.03269e-15 -5.53785e-16)
(-1.67704e-15 1.60723e-29 1.4721e-30 7.89941 8.7319e-15 -2.42071e-15 0.182597 -1.93508e-16 -5.80521e-17)
(6.70816e-15 -1.23982e-29 -1.29148e-30 7.89941 -6.07559e-15 -1.17607e-16 0.182597 -2.05913e-15 -5.54105e-16)
(2.28389e-15 -8.11401e-30 -7.60688e-31 7.63483 8.8151e-15 -2.52424e-15 0.179816 -2.136e-16 -6.18127e-17)
(0 4.057e-30 1.01425e-30 7.63483 -6.46757e-15 -6.8595e-17 0.179816 -2.1096e-15 -5.53146e-16)
(-1.70294e-15 3.66213e-30 4.33818e-31 7.38227 8.89487e-15 -2.62602e-15 0.177151 -2.04786e-16 -6.52075e-17)
(6.81177e-15 3.98266e-30 4.97833e-31 7.38227 -3.92976e-15 -4.34856e-17 0.177151 -2.16044e-15 -5.51709e-16)
(0 1.1729e-29 4.8871e-31 7.14102 9.38816e-15 -2.71768e-15 0.174596 -2.25543e-16 -6.86993e-17)
(0 -7.81936e-30 0 7.14102 -3.11639e-15 -9.6806e-18 0.174596 -2.19746e-15 -5.50022e-16)
(-1.72804e-15 1.13228e-29 9.09204e-31 6.91041 9.56956e-15 -2.80846e-15 0.172146 -2.37029e-16 -7.22622e-17)
(0 0 -4.39008e-31 6.91041 -3.22978e-15 6.06283e-30 0.172146 -2.22828e-15 -5.47982e-16)
(-2.12103e-15 7.53541e-30 1.17741e-30 6.68984 9.40643e-15 -2.89128e-15 0.169795 -2.43229e-16 -7.55613e-17)
(0 -3.76771e-30 -7.06445e-31 6.68984 -3.39043e-15 -1.06813e-18 0.169795 -2.26213e-15 -5.45803e-16)
(0 -2.2192e-29 -1.84933e-30 6.47873 9.19709e-15 -2.97329e-15 0.167538 -2.37544e-16 -7.92953e-17)
(7.00964e-15 2.2192e-29 1.84933e-30 6.47873 -4.08051e-15 -3.05109e-17 0.167538 -2.30696e-15 -5.43535e-16)
(0 2.54162e-29 1.58851e-30 6.27655 9.3006e-15 -3.05347e-15 0.165369 -2.41392e-16 -8.27013e-17)
(0 -2.54162e-29 -7.49663e-32 6.27655 -4.45931e-15 -5.65325e-30 0.165369 -2.34501e-15 -5.40189e-16)
(-1.7761e-15 3.62005e-30 4.23518e-31 6.08281 9.45157e-15 -3.13012e-15 0.163285 -2.52037e-16 -8.64638e-17)
(7.1044e-15 7.1287e-30 2.22772e-31 6.08281 -3.51999e-15 -3.09341e-17 0.163285 -2.382e-15 -5.37379e-16)
(1.96978e-15 -2.09942e-29 -1.53083e-30 5.89704 9.03222e-15 -3.21169e-15 0.16128 -2.58722e-16 -9.03488e-17)
(5.18105e-15 2.09942e-29 1.53083e-30 5.89704 -3.12812e-15 3.34555e-19 0.16128 -2.42058e-15 -5.33999e-16)
(-1.79917e-15 2.76546e-29 1.70998e-30 5.71882 8.5285e-15 -3.29916e-15 0.159351 -2.38238e-16 -9.46726e-17)
(-7.19667e-15 -2.40444e-29 -1.50278e-30 5.71882 -4.75125e-15 5.14489e-17 0.159351 -2.44664e-15 -5.2944e-16)
(3.79651e-15 -6.74395e-30 -8.42994e-31 5.54774 9.16074e-15 -3.38883e-15 0.157495 -2.39964e-16 -9.89226e-17)
(-1.10384e-14 6.74395e-30 -7.26576e-32 5.54774 -4.90997e-15 -5.08754e-30 0.157495 -2.49265e-15 -5.23553e-16)
(-3.64332e-15 7.18248e-30 4.30265e-31 5.38344 9.49649e-15 -3.4504e-15 0.155707 -2.83663e-16 -1.01855e-16)
(7.28664e-15 0 0 5.38344 -4.41378e-15 -3.46445e-17 0.155707 -2.53312e-15 -5.18192e-16)
(-3.66541e-15 7.16937e-30 3.27537e-32 5.22555 1.02906e-14 -3.48593e-15 0.153985 -2.68723e-16 -1.04776e-16)
(0 0 4.06191e-31 5.22555 -5.04669e-15 -5.56519e-17 0.153985 -2.57859e-15 -5.12249e-16)
(0 -9.56994e-30 -7.97495e-31 5.07376 1.14136e-14 -3.50904e-15 0.152325 -3.41856e-16 -1.07101e-16)
(7.37447e-15 9.56994e-30 7.97495e-31 5.07376 -5.47624e-15 -7.15446e-17 0.152325 -2.60844e-15 -5.06418e-16)
(-5.38019e-15 2.86044e-29 2.57701e-30 4.92776 1.03543e-14 -3.51636e-15 0.150724 -3.4728e-16 -1.09179e-16)
(-7.41764e-15 -1.87891e-29 -2.34864e-30 4.92776 -5.7414e-15 -9.60375e-17 0.150724 -2.67394e-15 -5.00442e-16)
(1.86508e-15 -6.6253e-30 -1.00144e-30 4.78725 9.53553e-15 -3.51949e-15 0.14918 -2.88983e-16 -1.11335e-16)
(0 3.07414e-30 7.68535e-31 4.78725 -5.55779e-15 -1.34789e-16 0.14918 -2.75109e-15 -4.93333e-16)
(1.87564e-15 -1.25922e-29 -9.91974e-31 4.65197 9.28636e-15 -3.51783e-15 0.14769 -3.08593e-16 -1.13186e-16)
(-7.50256e-15 9.05342e-30 7.54452e-31 4.65197 -5.86311e-15 -1.93578e-16 0.14769 -2.77726e-15 -4.85112e-16)
(-3.77218e-15 1.29954e-29 1.22473e-30 4.52167 8.00251e-15 -3.50939e-15 0.146251 -2.83823e-16 -1.14977e-16)
(-1.66774e-15 -5.92501e-30 0 4.52167 -4.42356e-15 -1.51895e-16 0.146251 -2.83338e-15 -4.76729e-16)
(1.63718e-15 1.16329e-29 1.45411e-30 4.3961 6.93996e-15 -3.52141e-15 0.144862 -2.3598e-16 -1.18254e-16)
(-1.63718e-15 -1.74493e-29 -1.81764e-30 4.3961 -3.13272e-15 -2.43782e-17 0.144862 -2.85062e-15 -4.65422e-16)
(1.90667e-15 -3.5339e-30 -2.5081e-31 4.27505 6.52329e-15 -3.54872e-15 0.14352 -2.23494e-16 -1.21169e-16)
(-1.52533e-14 0 -1.25477e-31 4.27505 -4.17223e-15 -7.44012e-30 0.14352 -2.88641e-15 -4.5208e-16)
(1.91681e-15 -9.13414e-30 -1.30621e-30 4.1583 6.40593e-15 -3.58003e-15 0.142223 -2.16501e-16 -1.24882e-16)
(0 5.60522e-30 1.05098e-30 4.1583 -4.95387e-15 -4.81005e-17 0.142223 -2.95347e-15 -4.39093e-16)
(0 -2.201e-29 -1.37563e-30 4.04565 7.96091e-15 -3.61686e-15 0.140969 -2.23776e-16 -1.28337e-16)
(7.7074e-15 2.201e-29 1.37563e-30 4.04565 -6.85616e-15 -2.77323e-16 0.140969 -3.00796e-15 -4.28185e-16)
(4.97767e-15 -8.89694e-30 -1.27772e-30 3.93691 9.27504e-15 -3.61644e-15 0.139756 -3.34527e-16 -1.29558e-16)
(7.7472e-15 5.40168e-30 1.01281e-30 3.93691 -8.22802e-15 -1.85567e-16 0.139756 -3.07906e-15 -4.1414e-16)
(2.07698e-15 -8.94459e-30 -2.77415e-30 3.83192 7.95918e-15 -3.58114e-15 0.138583 -3.26792e-16 -1.30585e-16)
(0 1.59081e-29 2.65135e-30 3.83192 -8.8397e-15 -2.29737e-16 0.138583 -3.18015e-15 -3.96783e-16)
(-3.91287e-15 -1.386e-29 -1.72682e-30 3.73049 7.37789e-15 -3.53377e-15 0.137447 -2.50657e-16 -1.30901e-16)
(7.82573e-15 2.08221e-29 1.95207e-30 3.73049 -6.89244e-15 -1.92739e-16 0.137447 -3.27526e-15 -3.78741e-16)
(1.96612e-15 -2.39079e-29 -1.87687e-30 3.63249 7.25142e-15 -3.52459e-15 0.136348 -2.95691e-16 -1.34808e-16)
(1.5729e-14 2.04405e-29 1.59692e-30 3.63249 -3.74964e-15 -5.65455e-17 0.136348 -3.29387e-15 -3.54648e-16)
(-1.97573e-15 3.47007e-30 -9.69051e-31 3.53775 5.6023e-15 -3.56224e-15 0.135284 -2.50481e-16 -1.38751e-16)
(0 5.01649e-30 1.56765e-30 3.53775 -4.0574e-15 -4.43649e-17 0.135284 -3.32492e-15 -3.29152e-16)
(-3.97052e-15 6.95507e-30 2.73437e-31 3.44613 4.96212e-15 -3.58052e-15 0.134253 -1.79025e-16 -1.41331e-16)
(7.94105e-15 0 3.07785e-31 3.44613 -3.0112e-15 -2.65986e-17 0.134253 -3.3917e-15 -3.02257e-16)
(-1.99472e-15 3.46494e-30 -3.08132e-31 3.35751 6.06507e-15 -3.56563e-15 0.133255 -2.09379e-16 -1.42782e-16)
(7.97886e-15 4.83433e-30 1.20858e-30 3.35751 -2.04987e-15 -1.95746e-17 0.133255 -3.42011e-15 -2.75789e-16)
(-2.67161e-15 9.49148e-30 5.93217e-31 3.27176 6.41699e-15 -3.54854e-15 0.132287 -2.74472e-16 -1.45256e-16)
(-2.67161e-15 -4.74574e-30 0 3.27176 -2.99318e-15 -7.06099e-18 0.132287 -3.46815e-15 -2.50174e-16)
(2.01341e-15 -1.27636e-29 -5.96724e-31 3.18875 5.84103e-15 -3.58783e-15 0.131349 -2.46099e-16 -1.51442e-16)
(8.05362e-15 9.31755e-30 2.91173e-31 3.18875 -3.53832e-15 -6.88723e-18 0.131349 -3.52274e-15 -2.23962e-16)
(2.02265e-15 -1.71658e-29 -8.82097e-31 3.10838 6.09851e-15 -3.66108e-15 0.13044 -2.36749e-16 -1.56957e-16)
(8.09059e-15 1.37202e-29 5.71675e-31 3.10838 -4.17198e-15 -5.99794e-17 0.13044 -3.55451e-15 -1.99261e-16)
(-2.03182e-15 -1.05429e-30 3.15735e-31 3.03053 7.01807e-15 -3.69786e-15 0.129557 -2.7726e-16 -1.60333e-16)
(8.12728e-15 8.97919e-30 5.612e-31 3.03053 -4.54505e-15 3.92792e-17 0.129557 -3.58236e-15 -1.72496e-16)
(2.04093e-15 -1.66447e-29 -1.42267e-30 2.95511 7.08516e-15 -3.72499e-15 0.128702 -3.25301e-16 -1.65265e-16)
(0 1.3222e-29 -2.03446e-32 2.95511 -4.70177e-15 -9.33691e-31 0.128702 -3.64851e-15 -1.46598e-16)
(-2.04997e-15 1.64e-29 1.40825e-30 2.88202 7.13042e-15 -3.74925e-15 0.127871 -2.93626e-16 -1.68554e-16)
(8.1999e-15 -8.65313e-30 -5.40821e-31 2.88202 -5.02655e-15 -4.04801e-17 0.127871 -3.70193e-15 -1.20844e-16)
(2.05896e-15 -1.18992e-29 -1.39427e-30 2.81116 7.55754e-15 -3.75291e-15 0.127066 -3.41626e-16 -1.71827e-16)
(0 8.49456e-30 1.06182e-30 2.81116 -6.11314e-15 -5.00678e-17 0.127066 -3.77476e-15 -9.53282e-17)
(-2.06788e-15 1.59054e-29 1.38083e-30 2.74245 7.45809e-15 -3.76025e-15 0.126283 -3.43787e-16 -1.7559e-16)
(8.27154e-15 -8.3389e-30 -5.21181e-31 2.74245 -6.18219e-15 -6.15313e-17 0.126283 -3.9049e-15 -6.8633e-17)
(2.07675e-15 8.89115e-30 6.78617e-31 2.67581 7.6809e-15 -3.76039e-15 0.125524 -3.45226e-16 -1.78315e-16)
(6.00283e-15 -8.18609e-30 -5.11631e-31 2.67581 -4.15903e-15 3.6636e-17 0.125524 -3.97297e-15 -4.3197e-17)
(2.26196e-15 8.03609e-30 1.50677e-30 2.61116 7.04524e-15 -3.76681e-15 0.124786 -3.77905e-16 -1.82828e-16)
(6.0803e-15 -4.01804e-30 -1.00451e-30 2.61116 -3.4816e-15 1.4726e-16 0.124786 -3.99884e-15 -1.51168e-17)
(2.22051e-15 7.88883e-30 9.86104e-31 2.54841 6.86769e-15 -3.78505e-15 0.124069 -2.96729e-16 -1.86832e-16)
(-1.05978e-14 -3.94441e-30 -4.93052e-31 2.54841 -5.03002e-15 5.14763e-17 0.124069 -4.08632e-15 1.06505e-17)
(0 1.54885e-29 2.42008e-30 2.48751 7.29668e-15 -3.7853e-15 0.123373 -3.74646e-16 -1.89743e-16)
(8.41212e-15 -1.54885e-29 -2.42008e-30 2.48751 -5.75234e-15 3.14765e-18 0.123373 -4.17654e-15 3.4048e-17)
(-2.11168e-15 -1.18631e-29 -2.00696e-30 2.42837 6.51278e-15 -3.79731e-15 0.122696 -3.50983e-16 -1.95101e-16)
(0 1.90059e-29 2.85088e-30 2.42837 -6.4644e-15 -1.87398e-17 0.122696 -4.25209e-15 5.54271e-17)
(-2.12029e-15 -3.93789e-31 3.74697e-31 2.37094 6.64719e-15 -3.8198e-15 0.122038 -3.08586e-16 -1.99236e-16)
(8.48115e-15 3.73152e-30 4.6644e-31 2.37094 -6.86928e-15 -8.2669e-18 0.122038 -4.38593e-15 7.32182e-17)
(0 -7.32629e-30 -9.15786e-31 2.31515 7.21961e-15 -3.81875e-15 0.121399 -3.78213e-16 -2.02341e-16)
(0 7.32629e-30 9.15786e-31 2.31515 -7.04688e-15 8.4379e-17 0.121399 -4.47015e-15 9.18494e-17)
(0 1.07881e-29 1.34851e-30 2.26095 7.61835e-15 -3.84155e-15 0.120777 -3.80967e-16 -2.09209e-16)
(0 -3.59602e-30 -8.99004e-31 2.26095 -6.93174e-15 6.35454e-17 0.120777 -4.54757e-15 1.12167e-16)
(2.14582e-15 -2.4466e-29 -3.92256e-30 2.20827 8.8114e-15 -3.88448e-15 0.120172 -4.35574e-16 -2.14693e-16)
(8.58328e-15 2.11807e-29 2.64759e-30 2.20827 -6.34733e-15 -2.34473e-17 0.120172 -4.6247e-15 1.2798e-16)
(2.03374e-16 1.06005e-29 1.31398e-30 2.15707 8.66791e-15 -2.62057e-15 0.119583 -5.26716e-16 -7.52974e-17)
(8.61696e-15 -1.03963e-29 -4.33179e-31 2.15707 -6.64563e-15 2.80599e-18 0.119583 -4.74184e-15 1.41534e-16)
(0 0 0 2.10729 6.26559e-15 1.52478e-29 0.119011 -4.35889e-16 3.9443e-31)
(8.65047e-15 3.40193e-30 4.25241e-31 2.10729 -5.49042e-15 5.12801e-17 0.119011 -4.85276e-15 1.55692e-16)
(-4.34191e-15 3.21809e-30 7.76459e-31 2.05887 4.80239e-15 4.51018e-15 0.118453 -2.72021e-16 -2.48883e-16)
(8.68381e-15 3.33959e-30 0 2.05887 -3.49851e-15 -4.73945e-17 0.118453 -4.88823e-15 1.70112e-16)
(3.33675e-16 -1.31023e-29 -3.65439e-30 2.01179 5.08079e-15 4.69462e-15 0.117911 -2.81975e-16 -2.71526e-16)
(1.05626e-14 9.83518e-30 3.27839e-30 2.01179 -4.10049e-15 -6.60158e-17 0.117911 -4.9374e-15 1.80747e-16)
(0 9.65496e-30 2.81603e-30 1.96597 5.65969e-15 5.15029e-15 0.117383 -3.15286e-16 -2.80134e-16)
(-8.75001e-15 -9.65496e-30 -2.81603e-30 1.96597 -5.17685e-15 7.93158e-18 0.117383 -5.02892e-15 1.94954e-16)
(3.55711e-15 0 3.94918e-31 1.9214 7.11371e-15 5.81105e-15 0.116869 -3.62533e-16 -3.36804e-16)
(-3.55711e-15 0 -3.94918e-31 1.9214 -4.88768e-15 -1.68945e-16 0.116869 -5.11621e-15 2.08566e-16)
(-4.4078e-15 2.189e-29 4.14452e-30 1.87801 8.98747e-15 5.68314e-15 0.116368 -5.06095e-16 -3.72001e-16)
(0 -1.55073e-29 -3.48913e-30 1.87801 -6.79237e-15 -2.84025e-16 0.116368 -5.19026e-15 2.16272e-16)
(-2.21204e-15 1.22868e-29 1.46281e-30 1.83578 1.05685e-14 5.33052e-15 0.11588 -6.11078e-16 -3.33462e-16)
(0 -3.04462e-30 -7.61154e-31 1.83578 -9.4128e-15 -1.22808e-16 0.11588 -5.29008e-15 2.30182e-16)
(0 2.09218e-29 2.61522e-30 1.79467 1.20198e-14 5.04874e-15 0.115404 -7.27059e-16 -3.40993e-16)
(-8.88059e-15 -1.49441e-29 -1.86802e-30 1.79467 -1.00216e-14 -2.52236e-17 0.115404 -5.47777e-15 2.51116e-16)
(4.45644e-15 2.63788e-30 4.94975e-31 1.75463 1.17114e-14 5.09235e-15 0.114941 -8.22889e-16 -3.09373e-16)
(0 -5.86811e-30 -1.10027e-30 1.75463 -7.65758e-15 1.1741e-16 0.114941 -5.70096e-15 2.72134e-16)
(1.2296e-15 1.11404e-29 1.23428e-30 1.71563 8.3788e-15 5.46498e-15 0.114489 -7.1359e-16 -3.59621e-16)
(8.94503e-15 -1.15212e-29 -1.80018e-30 1.71563 -3.64012e-15 2.30171e-16 0.114489 -5.83223e-15 2.95251e-16)
(-2.24426e-15 3.10222e-30 -4.39116e-31 1.67765 4.53346e-15 2.92154e-15 0.114049 -4.04059e-16 -3.71328e-16)
(8.97705e-15 5.65502e-30 1.06032e-30 1.67765 -2.50901e-15 3.57031e-16 0.114049 -5.87779e-15 3.08233e-16)
(4.50447e-15 -6.25084e-30 -2.81748e-31 1.64064 2.58423e-15 4.2068e-16 0.11362 -2.11746e-16 -2.34508e-17)
(0 0 -3.46962e-31 1.64064 -2.0415e-15 4.2228e-16 0.11362 -5.89041e-15 3.21241e-16)
(5.32807e-15 -3.13333e-30 -1.33413e-30 1.60457 2.84695e-15 9.13131e-16 0.113201 -1.46264e-16 -3.50345e-17)
(9.04071e-15 0 1.02181e-30 1.60457 -2.19321e-15 2.82845e-16 0.113201 -5.88123e-15 3.29459e-16)
(7.43582e-16 1.38118e-29 6.36925e-31 1.56942 5.15827e-15 1.52261e-15 0.112792 -2.57211e-16 -9.45976e-17)
(-3.01167e-15 -1.06996e-29 0 1.56942 -2.88272e-15 1.31733e-16 0.112792 -5.96973e-15 3.33949e-16)
(0 -5.25177e-30 -6.56471e-31 1.53516 7.39741e-15 1.7303e-15 0.112394 -4.87712e-16 -1.24939e-16)
(1.82078e-14 5.25177e-30 9.84707e-31 1.53516 -3.0446e-15 -1.0318e-17 0.112394 -6.01807e-15 3.27468e-16)
(-5.18613e-15 -7.28698e-30 -1.64164e-30 1.50175 8.40016e-15 1.64069e-15 0.112004 -5.98424e-16 -1.28912e-16)
(2.90231e-15 1.03111e-29 1.93332e-30 1.50175 -3.80791e-15 -4.55087e-17 0.112004 -6.08983e-15 3.19194e-16)
(0 -1.51832e-29 -1.8979e-30 1.46918 8.44241e-15 1.47828e-15 0.111625 -6.57325e-16 -1.16132e-16)
(1.83332e-14 1.51832e-29 1.8979e-30 1.46918 -1.82577e-15 -6.73824e-18 0.111625 -6.19748e-15 3.10307e-16)
(-2.29945e-15 1.2912e-29 2.77242e-30 1.43742 6.39402e-15 1.47072e-15 0.111254 -6.27465e-16 -1.08818e-16)
(0 -9.93663e-30 -2.48416e-30 1.43742 -3.92517e-15 3.46842e-17 0.111254 -6.15508e-15 3.01181e-16)
(0 -9.75455e-30 -6.09659e-31 1.40643 4.85159e-15 1.70827e-15 0.110891 -3.61513e-16 -1.19325e-16)
(9.22886e-15 4.87727e-30 6.09659e-31 1.40643 -6.36295e-15 -6.03409e-17 0.110891 -6.30586e-15 2.89005e-16)
(2.31496e-15 -1.25495e-29 -2.07017e-30 1.37621 5.48245e-15 1.60679e-15 0.110537 -4.05206e-16 -1.5079e-16)
(1.85197e-14 9.5758e-30 1.79546e-30 1.37621 -5.13977e-15 -1.0681e-16 0.110537 -6.39411e-15 2.73265e-16)
(-2.32268e-15 2.94742e-30 -1.46311e-32 1.34672 5.82421e-15 1.23625e-15 0.110191 -4.77589e-16 -1.07341e-16)
(9.29071e-15 4.70016e-30 8.81281e-31 1.34672 -4.68227e-15 3.91351e-17 0.110191 -6.48445e-15 2.74405e-16)
(-2.67099e-16 6.29696e-30 8.74358e-31 1.31794 6.05426e-15 1.01553e-15 0.109853 -4.77012e-16 -9.51724e-17)
(6.72401e-15 0 -2.88377e-31 1.31794 -2.49365e-15 1.24187e-16 0.109853 -6.54358e-15 2.76833e-16)
(-4.67608e-15 1.03368e-29 1.12681e-30 1.28986 6.18229e-15 9.13035e-16 0.109522 -5.34354e-16 -7.41891e-17)
(6.80228e-15 0 0 1.28986 -2.23756e-15 5.71827e-17 0.109522 -6.58644e-15 2.729e-16)
(-2.50315e-15 -4.44648e-30 -8.33715e-31 1.26245 5.32401e-15 6.90085e-16 0.109199 -5.16965e-16 -8.11639e-17)
(1.87655e-14 4.44648e-30 1.38953e-30 1.26245 -2.79796e-15 4.30832e-17 0.109199 -6.69543e-15 2.55759e-16)
(0 4.365e-30 2.72813e-31 1.23569 4.01518e-15 6.16166e-16 0.108882 -4.04401e-16 -3.79971e-17)
(6.95594e-15 0 0 1.23569 -3.09226e-15 1.82575e-16 0.108882 -6.77051e-15 2.46683e-16)
(5.13455e-17 2.91573e-30 8.09282e-31 1.20956 4.5217e-15 8.57263e-16 0.108573 -3.03297e-16 -7.10548e-17)
(-2.41225e-15 0 -2.67813e-31 1.20956 -3.34692e-15 2.16434e-16 0.108573 -6.84718e-15 2.34574e-16)
(2.36848e-15 5.53751e-30 1.04597e-30 1.18405 5.67164e-15 9.84066e-16 0.10827 -5.11552e-16 -8.31785e-17)
(0 -8.41298e-30 -1.84034e-30 1.18405 -3.32017e-15 -6.53754e-17 0.10827 -6.89657e-15 2.07389e-16)
(0 4.12941e-30 2.58088e-31 1.15913 5.34112e-15 9.30859e-16 0.107972 -5.27291e-16 -9.71714e-17)
(0 -4.12941e-30 0 1.15913 -3.8107e-15 -1.88034e-16 0.107972 -7.00202e-15 1.42719e-16)
(-2.38357e-15 1.50054e-29 2.28573e-30 1.1348 4.67219e-15 7.49698e-16 0.107681 -4.68592e-16 -7.62941e-17)
(-2.28205e-15 -1.21612e-29 -2.02687e-30 1.1348 -3.25704e-15 7.11383e-17 0.107681 -7.13001e-15 9.09789e-17)
(-2.39108e-15 6.81733e-30 1.00174e-30 1.11103 4.39988e-15 9.07251e-16 0.107396 -4.18849e-16 -6.60839e-17)
(-1.18045e-14 0 -2.48716e-31 1.11103 -3.65668e-15 7.03026e-16 0.107396 -7.24241e-15 4.3508e-17)
(-2.39857e-15 -1.08207e-30 -9.7814e-31 1.0878 5.58591e-15 1.05065e-15 0.107117 -4.33043e-16 -1.09954e-16)
(1.91885e-14 3.90653e-30 -7.00649e-46 1.0878 -3.70837e-15 6.31256e-31 0.107117 -7.36237e-15 1.70226e-45)
(-2.15888e-15 -1.53398e-29 -1.67779e-30 1.06511 6.57653e-15 6.3531e-16 0.106842 -6.70701e-16 -9.71163e-17)
(1.1783e-14 1.53398e-29 1.67779e-30 1.06511 -4.00377e-15 -8.02976e-16 0.106842 -7.42498e-15 4.78125e-17)
(-2.41349e-15 6.51657e-30 9.48562e-31 1.04293 5.68222e-15 3.90028e-16 0.106573 -6.50216e-16 -2.98843e-17)
(7.53464e-15 0 -2.35292e-31 1.04293 -3.85935e-15 -9.07423e-16 0.106573 -7.59882e-15 2.18461e-17)