/*--------------------------------*- C++ -*----------------------------------*\
| =========                 |                                                 |
| \\      /  F ield         | OpenFOAM: The Open Source CFD Toolbox           |
|  \\    /   O peration     | Version:  2106                                  |
|   \\  /    A nd           | Website:  www.openfoam.com                      |
|    \\/     M anipulation  |                                                 |
\*---------------------------------------------------------------------------*/
FoamFile
{
    version     2.0;
    format      ascii;
    arch        "LSB;label=32;scalar=64";
    class       volScalarField;
    location    "10020";
    object      p;
}
// * * * * * * * * * * * * * * * * * * * * * * * * * * * * * * * * * * * * * //

dimensions      [0 2 -2 0 0 0 0];

internalField   nonuniform List<scalar> 
2000
(
8.3528e-16
2.15463e-14
1.75757e-15
2.15459e-14
1.96128e-15
2.15455e-14
1.9847e-15
2.1545e-14
2.03934e-15
2.15445e-14
2.11064e-15
2.15439e-14
2.17978e-15
2.15431e-14
2.24545e-15
2.15421e-14
2.30914e-15
2.15411e-14
2.37138e-15
2.15399e-14
2.43241e-15
2.15386e-14
2.49251e-15
2.15371e-14
2.55172e-15
2.15355e-14
2.61026e-15
2.15337e-14
2.66817e-15
2.15319e-14
2.72559e-15
2.15299e-14
2.7829e-15
2.15277e-14
2.84019e-15
2.15254e-14
2.89768e-15
2.1523e-14
2.95561e-15
2.15205e-14
3.01426e-15
2.15177e-14
3.0738e-15
2.1515e-14
3.13436e-15
2.15121e-14
3.19647e-15
2.15091e-14
3.26001e-15
2.15061e-14
3.3253e-15
2.15031e-14
3.39244e-15
2.15001e-14
3.46175e-15
2.14972e-14
3.53323e-15
2.14945e-14
3.60694e-15
2.14918e-14
3.68259e-15
2.14893e-14
3.76086e-15
2.1487e-14
3.84142e-15
2.1485e-14
3.92439e-15
2.14833e-14
4.00972e-15
2.14818e-14
4.09753e-15
2.14807e-14
4.18782e-15
2.14796e-14
4.28093e-15
2.14788e-14
4.37671e-15
2.14779e-14
4.47497e-15
2.14769e-14
4.57606e-15
2.1476e-14
4.67921e-15
2.14756e-14
4.78534e-15
2.14753e-14
4.89444e-15
2.14747e-14
5.00588e-15
2.14742e-14
5.11958e-15
2.14737e-14
5.23571e-15
2.1473e-14
5.35421e-15
2.14725e-14
5.47502e-15
2.14733e-14
5.59926e-15
2.14741e-14
5.72448e-15
2.14749e-14
5.85228e-15
2.14755e-14
5.98058e-15
2.14766e-14
6.11208e-15
2.14779e-14
6.24513e-15
2.14797e-14
6.37803e-15
2.1482e-14
6.51252e-15
2.14852e-14
6.64961e-15
2.14893e-14
6.78723e-15
2.14941e-14
6.92641e-15
2.14997e-14
7.06761e-15
2.15056e-14
7.20894e-15
2.15112e-14
7.35146e-15
2.15189e-14
7.49442e-15
2.15296e-14
7.63957e-15
2.15407e-14
7.78551e-15
2.15525e-14
7.93212e-15
2.15642e-14
8.07924e-15
2.15754e-14
8.22672e-15
2.15867e-14
8.37576e-15
2.15995e-14
8.52485e-15
2.16119e-14
8.67452e-15
2.1626e-14
8.82462e-15
2.16412e-14
8.97427e-15
2.16556e-14
9.12544e-15
2.16683e-14
9.27581e-15
2.16825e-14
9.4252e-15
2.16989e-14
9.57412e-15
2.17169e-14
9.72017e-15
2.17352e-14
9.86684e-15
2.17539e-14
1.00132e-14
2.17745e-14
1.01575e-14
2.17973e-14
1.03019e-14
2.18216e-14
1.04469e-14
2.18414e-14
1.05924e-14
2.18606e-14
1.07356e-14
2.18872e-14
1.08749e-14
2.19184e-14
1.10147e-14
2.19478e-14
1.11515e-14
2.19822e-14
1.12868e-14
2.20184e-14
1.14218e-14
2.20534e-14
1.15564e-14
2.20891e-14
1.16919e-14
2.21255e-14
1.1823e-14
2.21578e-14
1.19579e-14
2.21896e-14
1.20946e-14
2.22245e-14
1.22277e-14
2.2261e-14
1.23603e-14
2.22942e-14
1.24938e-14
2.23277e-14
1.26262e-14
2.236e-14
1.27554e-14
2.2393e-14
1.28845e-14
2.24307e-14
1.30133e-14
2.24661e-14
1.3143e-14
2.24942e-14
1.32716e-14
2.25223e-14
1.34005e-14
2.25525e-14
1.35275e-14
2.25851e-14
1.3654e-14
2.26186e-14
1.37832e-14
2.26442e-14
1.39147e-14
2.2673e-14
1.4039e-14
2.27036e-14
1.41648e-14
2.27344e-14
1.42934e-14
2.27659e-14
1.44245e-14
2.28e-14
1.45613e-14
2.2828e-14
1.46977e-14
2.28501e-14
1.48315e-14
2.28815e-14
1.49658e-14
2.29152e-14
1.50889e-14
2.29477e-14
1.5219e-14
2.29795e-14
1.53481e-14
2.30108e-14
1.54756e-14
2.30458e-14
1.562e-14
2.3066e-14
1.5777e-14
2.30829e-14
1.59347e-14
2.30931e-14
1.60927e-14
2.31006e-14
1.62506e-14
2.31095e-14
1.64039e-14
2.31199e-14
1.65601e-14
2.31168e-14
1.67226e-14
2.31156e-14
1.68833e-14
2.31282e-14
1.70456e-14
2.31432e-14
1.72013e-14
2.31491e-14
1.73618e-14
2.3146e-14
1.75112e-14
2.31613e-14
1.76683e-14
2.31796e-14
1.78252e-14
2.31894e-14
1.79813e-14
2.31985e-14
1.81403e-14
2.32149e-14
1.82978e-14
2.3227e-14
1.84575e-14
2.3223e-14
1.86152e-14
2.32343e-14
1.87706e-14
2.32649e-14
1.89274e-14
2.32832e-14
1.9093e-14
2.32934e-14
1.92477e-14
2.33189e-14
1.94069e-14
2.33558e-14
1.95704e-14
2.33805e-14
1.97302e-14
2.34126e-14
1.9878e-14
2.34441e-14
2.00216e-14
2.34672e-14
2.01684e-14
2.34817e-14
2.03106e-14
2.35034e-14
2.04715e-14
2.35241e-14
2.06197e-14
2.35592e-14
2.0755e-14
2.3593e-14
2.0893e-14
2.36332e-14
2.10336e-14
2.36719e-14
2.11764e-14
2.36932e-14
2.13139e-14
2.37203e-14
2.14539e-14
2.37684e-14
2.16041e-14
2.38059e-14
2.17412e-14
2.38402e-14
2.18731e-14
2.38787e-14
2.20078e-14
2.39289e-14
2.21452e-14
2.39672e-14
2.22701e-14
2.40084e-14
2.24135e-14
2.40597e-14
2.25524e-14
2.41203e-14
2.26868e-14
2.41823e-14
2.28167e-14
2.42217e-14
2.295e-14
2.42612e-14
2.30642e-14
2.4292e-14
2.31981e-14
2.43518e-14
2.33289e-14
2.44166e-14
2.34646e-14
2.44625e-14
2.35753e-14
2.45038e-14
2.3692e-14
2.45547e-14
2.38076e-14
2.46294e-14
2.39447e-14
2.4697e-14
2.40966e-14
2.47411e-14
2.42042e-14
2.4759e-14
2.42994e-14
2.47637e-14
2.43984e-14
2.47977e-14
2.45021e-14
2.48294e-14
2.45967e-14
2.49014e-14
2.46829e-14
2.49977e-14
2.47745e-14
2.50737e-14
2.48566e-14
2.51292e-14
2.49591e-14
2.51482e-14
2.50396e-14
2.51867e-14
2.51137e-14
2.52431e-14
2.5196e-14
2.53162e-14
2.52862e-14
2.53909e-14
2.53695e-14
2.54515e-14
2.54605e-14
2.55257e-14
2.55448e-14
2.56259e-14
2.56212e-14
2.57089e-14
2.57026e-14
2.58033e-14
2.57882e-14
2.58528e-14
2.5865e-14
2.58836e-14
2.59488e-14
2.59635e-14
2.60256e-14
2.60494e-14
2.61092e-14
2.6099e-14
2.61446e-14
2.61664e-14
2.6199e-14
2.62679e-14
2.62269e-14
2.63371e-14
2.62942e-14
2.63495e-14
2.63884e-14
2.64116e-14
2.6457e-14
2.64928e-14
2.654e-14
2.65656e-14
2.6611e-14
2.66292e-14
2.66427e-14
2.66834e-14
2.67531e-14
2.67698e-14
2.68352e-14
2.68858e-14
2.69121e-14
2.69788e-14
2.70607e-14
2.70764e-14
2.71265e-14
2.72018e-14
2.71854e-14
2.72562e-14
2.72364e-14
2.73175e-14
2.73522e-14
2.73867e-14
2.73595e-14
2.7434e-14
2.74059e-14
2.74621e-14
2.74911e-14
2.75457e-14
2.7589e-14
2.76352e-14
2.76778e-14
2.76559e-14
2.77405e-14
2.77004e-14
2.7753e-14
2.77661e-14
2.77832e-14
2.78079e-14
2.78753e-14
2.78278e-14
2.78947e-14
2.78663e-14
2.79103e-14
2.79003e-14
2.78935e-14
2.79303e-14
2.7862e-14
2.79599e-14
2.79191e-14
2.80241e-14
2.78578e-14
2.81293e-14
2.78777e-14
2.81918e-14
2.79227e-14
2.82454e-14
2.79719e-14
2.82564e-14
2.79873e-14
2.82451e-14
2.80115e-14
2.8228e-14
2.80508e-14
2.82178e-14
2.81391e-14
2.81861e-14
2.81529e-14
2.81921e-14
2.81599e-14
2.81928e-14
2.81402e-14
2.81689e-14
2.80531e-14
2.81408e-14
2.8091e-14
2.81395e-14
2.80964e-14
2.81384e-14
2.80724e-14
2.81394e-14
1.88551e-14
2.04539e-14
1.8855e-14
2.04538e-14
1.88549e-14
2.04538e-14
1.88549e-14
2.04537e-14
1.8855e-14
2.04536e-14
1.8855e-14
2.04536e-14
1.88551e-14
2.04535e-14
1.88552e-14
2.04533e-14
1.88554e-14
2.04532e-14
1.88556e-14
2.0453e-14
1.88558e-14
2.04528e-14
1.88561e-14
2.04526e-14
1.88565e-14
2.04524e-14
1.88568e-14
2.04521e-14
1.88573e-14
2.04518e-14
1.88578e-14
2.04515e-14
1.88584e-14
2.04511e-14
1.88591e-14
2.04506e-14
1.88598e-14
2.04502e-14
1.88606e-14
2.04498e-14
1.88615e-14
2.04492e-14
1.88626e-14
2.04486e-14
1.88637e-14
2.04479e-14
1.88649e-14
2.04473e-14
1.88662e-14
2.04467e-14
1.88676e-14
2.04461e-14
1.88692e-14
2.04457e-14
1.88707e-14
2.04449e-14
1.88724e-14
2.04443e-14
1.88743e-14
2.04438e-14
1.88763e-14
2.04433e-14
1.88787e-14
2.04428e-14
1.88813e-14
2.04422e-14
1.88842e-14
2.04418e-14
1.88873e-14
2.0441e-14
1.88907e-14
2.04403e-14
1.88946e-14
2.04396e-14
1.88982e-14
2.04393e-14
1.89023e-14
2.04388e-14
1.89069e-14
2.04383e-14
1.89116e-14
2.04379e-14
1.89168e-14
2.04376e-14
1.89225e-14
2.0437e-14
1.89285e-14
2.04367e-14
1.89347e-14
2.04366e-14
1.89417e-14
2.04363e-14
1.89496e-14
2.04354e-14
1.89574e-14
2.04343e-14
1.89656e-14
2.04343e-14
1.89748e-14
2.04353e-14
1.89847e-14
2.04352e-14
1.89949e-14
2.04346e-14
1.90055e-14
2.0435e-14
1.9017e-14
2.04346e-14
1.90293e-14
2.04345e-14
1.90422e-14
2.0436e-14
1.90562e-14
2.04366e-14
1.90701e-14
2.0438e-14
1.90848e-14
2.0439e-14
1.91003e-14
2.04397e-14
1.91167e-14
2.044e-14
1.91327e-14
2.04417e-14
1.9149e-14
2.04436e-14
1.91668e-14
2.04457e-14
1.91849e-14
2.04488e-14
1.92039e-14
2.04521e-14
1.92233e-14
2.04575e-14
1.92437e-14
2.04633e-14
1.92652e-14
2.04667e-14
1.92877e-14
2.04711e-14
1.93107e-14
2.04792e-14
1.93342e-14
2.04889e-14
1.93588e-14
2.04976e-14
1.93846e-14
2.05045e-14
1.94138e-14
2.05103e-14
1.94422e-14
2.05149e-14
1.94697e-14
2.05249e-14
1.94957e-14
2.05389e-14
1.95245e-14
2.05466e-14
1.95533e-14
2.05538e-14
1.95812e-14
2.05658e-14
1.961e-14
2.05805e-14
1.96387e-14
2.05939e-14
1.96682e-14
2.06038e-14
1.96994e-14
2.06139e-14
1.97331e-14
2.06291e-14
1.97661e-14
2.06493e-14
1.9797e-14
2.06667e-14
1.98256e-14
2.06843e-14
1.98585e-14
2.07023e-14
1.98942e-14
2.07205e-14
1.99295e-14
2.07406e-14
1.9961e-14
2.0766e-14
1.99955e-14
2.07917e-14
2.00313e-14
2.08159e-14
2.00702e-14
2.08456e-14
2.01107e-14
2.08771e-14
2.01526e-14
2.09055e-14
2.01945e-14
2.09359e-14
2.02381e-14
2.09647e-14
2.02834e-14
2.09955e-14
2.03306e-14
2.10371e-14
2.03797e-14
2.10788e-14
2.04309e-14
2.11155e-14
2.0477e-14
2.11577e-14
2.05271e-14
2.12073e-14
2.05777e-14
2.12553e-14
2.06269e-14
2.12999e-14
2.06786e-14
2.13466e-14
2.0731e-14
2.14008e-14
2.07952e-14
2.14535e-14
2.08511e-14
2.15027e-14
2.09154e-14
2.1554e-14
2.09733e-14
2.16092e-14
2.10343e-14
2.16666e-14
2.11004e-14
2.17224e-14
2.11567e-14
2.17823e-14
2.12181e-14
2.18425e-14
2.1285e-14
2.18955e-14
2.13499e-14
2.19527e-14
2.14204e-14
2.20178e-14
2.14853e-14
2.20909e-14
2.15562e-14
2.21569e-14
2.16294e-14
2.22119e-14
2.17011e-14
2.22674e-14
2.17677e-14
2.23234e-14
2.18369e-14
2.23839e-14
2.19089e-14
2.24528e-14
2.19799e-14
2.25186e-14
2.20385e-14
2.25775e-14
2.21039e-14
2.26257e-14
2.21688e-14
2.26865e-14
2.2233e-14
2.27485e-14
2.22929e-14
2.28156e-14
2.23562e-14
2.28763e-14
2.24231e-14
2.29347e-14
2.24937e-14
2.29946e-14
2.25603e-14
2.30524e-14
2.26152e-14
2.31121e-14
2.26779e-14
2.3166e-14
2.27369e-14
2.32181e-14
2.2804e-14
2.32884e-14
2.28792e-14
2.33534e-14
2.29312e-14
2.34093e-14
2.29915e-14
2.34603e-14
2.30563e-14
2.35144e-14
2.31137e-14
2.35718e-14
2.31835e-14
2.36366e-14
2.3254e-14
2.37051e-14
2.33173e-14
2.37616e-14
2.33971e-14
2.37986e-14
2.34702e-14
2.38396e-14
2.35447e-14
2.38924e-14
2.36051e-14
2.39414e-14
2.36674e-14
2.39869e-14
2.37315e-14
2.40209e-14
2.37899e-14
2.40591e-14
2.38509e-14
2.41252e-14
2.39064e-14
2.41879e-14
2.39721e-14
2.42398e-14
2.40481e-14
2.43047e-14
2.41033e-14
2.43671e-14
2.41688e-14
2.44038e-14
2.42215e-14
2.44383e-14
2.42851e-14
2.45019e-14
2.43516e-14
2.45713e-14
2.44211e-14
2.46626e-14
2.45011e-14
2.47377e-14
2.45838e-14
2.47891e-14
2.46697e-14
2.48633e-14
2.47513e-14
2.49218e-14
2.4829e-14
2.49723e-14
2.4911e-14
2.50304e-14
2.49748e-14
2.51039e-14
2.50433e-14
2.51855e-14
2.51238e-14
2.52452e-14
2.51937e-14
2.53062e-14
2.5261e-14
2.53689e-14
2.5341e-14
2.54337e-14
2.5419e-14
2.55233e-14
2.54946e-14
2.56233e-14
2.5567e-14
2.5705e-14
2.56361e-14
2.57545e-14
2.57177e-14
2.57879e-14
2.5768e-14
2.58497e-14
2.57868e-14
2.5941e-14
2.58766e-14
2.60044e-14
2.5919e-14
2.60695e-14
2.5973e-14
2.61375e-14
2.60381e-14
2.61947e-14
2.60995e-14
2.62277e-14
2.61585e-14
2.62806e-14
2.623e-14
2.63244e-14
2.63007e-14
2.64027e-14
2.63852e-14
2.64724e-14
2.64553e-14
2.65778e-14
2.65246e-14
2.66635e-14
2.66216e-14
2.67309e-14
2.6662e-14
2.67797e-14
2.67173e-14
2.68391e-14
2.67728e-14
2.68963e-14
2.68145e-14
2.69388e-14
2.68562e-14
2.70094e-14
2.69243e-14
2.70397e-14
2.69787e-14
2.7043e-14
2.70372e-14
2.70724e-14
2.70743e-14
2.70973e-14
2.71473e-14
2.71168e-14
2.71777e-14
2.71843e-14
2.72311e-14
2.72613e-14
2.72656e-14
2.73091e-14
2.73341e-14
2.73429e-14
2.73854e-14
2.73739e-14
2.74899e-14
2.74548e-14
2.75696e-14
2.75843e-14
2.76486e-14
2.76606e-14
2.77549e-14
2.77109e-14
2.77605e-14
2.7783e-14
2.7817e-14
2.78286e-14
2.79255e-14
2.78737e-14
2.79398e-14
2.79131e-14
2.79839e-14
2.79743e-14
2.80334e-14
2.79838e-14
2.80938e-14
2.80145e-14
2.81178e-14
2.80612e-14
2.81764e-14
2.80744e-14
2.82492e-14
2.80995e-14
2.82448e-14
2.81798e-14
2.83027e-14
2.8203e-14
2.8332e-14
2.81894e-14
2.8361e-14
2.82293e-14
2.83908e-14
2.82758e-14
2.83506e-14
2.83322e-14
2.83705e-14
2.83196e-14
2.83182e-14
2.83031e-14
2.83235e-14
2.83295e-14
2.8319e-14
2.83731e-14
2.82735e-14
2.83253e-14
2.82728e-14
2.83168e-14
2.8337e-14
2.83446e-14
2.83418e-14
2.83605e-14
2.83304e-14
2.83254e-14
2.8326e-14
2.83452e-14
2.83374e-14
2.83191e-14
2.83287e-14
2.82808e-14
2.82843e-14
2.82639e-14
2.82837e-14
2.82753e-14
2.8248e-14
2.82358e-14
2.82354e-14
2.82055e-14
2.81624e-14
2.81763e-14
2.80611e-14
2.81538e-14
2.81375e-14
2.81499e-14
2.81607e-14
2.81465e-14
2.81385e-14
2.81345e-14
2.815e-14
2.81627e-14
2.81996e-14
2.82365e-14
2.82156e-14
2.82964e-14
2.82749e-14
2.83086e-14
2.83047e-14
2.83289e-14
2.83064e-14
2.83563e-14
2.83148e-14
2.83929e-14
2.83678e-14
2.84214e-14
2.84674e-14
2.84593e-14
2.85415e-14
2.85185e-14
2.8548e-14
2.85293e-14
2.85527e-14
2.85363e-14
2.86022e-14
2.85853e-14
2.86519e-14
2.86311e-14
2.86781e-14
2.86272e-14
2.8685e-14
2.86657e-14
2.87193e-14
2.86822e-14
2.87597e-14
2.86943e-14
2.87596e-14
2.86733e-14
2.87463e-14
2.86857e-14
2.87413e-14
2.86866e-14
2.8767e-14
2.86765e-14
2.87265e-14
2.87036e-14
2.866e-14
2.87018e-14
2.86347e-14
2.86539e-14
2.86548e-14
2.86329e-14
2.86751e-14
2.866e-14
2.8668e-14
2.86849e-14
2.86575e-14
2.86856e-14
2.86172e-14
2.86897e-14
2.86197e-14
2.87004e-14
2.86404e-14
2.86906e-14
2.86567e-14
2.87101e-14
2.86411e-14
2.87059e-14
2.86487e-14
2.87054e-14
2.86536e-14
2.87079e-14
2.86152e-14
2.8672e-14
2.85737e-14
2.86522e-14
2.85955e-14
2.86509e-14
2.85577e-14
2.86394e-14
2.85404e-14
2.86331e-14
2.85442e-14
2.86056e-14
2.85442e-14
2.86102e-14
2.84846e-14
2.8618e-14
2.84879e-14
2.85902e-14
2.84855e-14
2.85954e-14
2.84763e-14
2.8605e-14
2.84453e-14
2.86343e-14
2.84472e-14
2.8628e-14
2.84979e-14
2.85852e-14
2.85018e-14
2.85591e-14
2.85029e-14
2.85913e-14
2.8529e-14
2.86542e-14
2.85216e-14
2.86766e-14
2.85231e-14
2.86595e-14
2.85195e-14
2.86169e-14
2.85412e-14
2.86209e-14
2.85599e-14
2.86416e-14
2.85609e-14
2.86495e-14
2.8559e-14
2.86448e-14
2.8569e-14
2.8627e-14
2.8562e-14
2.86399e-14
2.85676e-14
2.86541e-14
2.85856e-14
2.86695e-14
2.86015e-14
2.86711e-14
2.86311e-14
2.86582e-14
2.86145e-14
2.86602e-14
2.86119e-14
2.86628e-14
2.86386e-14
2.86964e-14
2.86413e-14
2.87155e-14
2.86425e-14
2.87126e-14
2.86501e-14
2.87102e-14
2.86567e-14
2.87313e-14
2.86621e-14
2.873e-14
2.86664e-14
2.8706e-14
2.86702e-14
2.87284e-14
2.86653e-14
2.87586e-14
2.869e-14
2.8774e-14
2.87058e-14
2.87821e-14
2.87128e-14
2.87829e-14
2.87346e-14
2.87765e-14
2.87559e-14
2.87781e-14
2.87771e-14
2.87796e-14
2.87907e-14
2.87808e-14
2.87891e-14
2.87891e-14
2.88034e-14
2.87969e-14
2.88102e-14
2.8812e-14
2.88015e-14
2.88423e-14
2.88005e-14
2.88569e-14
2.87991e-14
2.8856e-14
2.87972e-14
2.88631e-14
2.88026e-14
2.88784e-14
2.88074e-14
2.8886e-14
2.88116e-14
2.88939e-14
2.88151e-14
2.89101e-14
2.88179e-14
2.89109e-14
2.8812e-14
2.89122e-14
2.88132e-14
2.8914e-14
2.88136e-14
2.89163e-14
2.88132e-14
2.8927e-14
2.88198e-14
2.89383e-14
2.88296e-14
2.89461e-14
2.88385e-14
2.89426e-14
2.88271e-14
2.89435e-14
2.88228e-14
2.89487e-14
2.88217e-14
2.89505e-14
2.88239e-14
2.89526e-14
2.88175e-14
2.89671e-14
2.88142e-14
2.89742e-14
2.88102e-14
2.89779e-14
2.88053e-14
2.89783e-14
2.88037e-14
2.89675e-14
2.88013e-14
2.89652e-14
2.87982e-14
2.89672e-14
2.87945e-14
2.89736e-14
2.87823e-14
2.89884e-14
2.87733e-14
2.89883e-14
2.87634e-14
2.89889e-14
2.87489e-14
2.89864e-14
2.87414e-14
2.89924e-14
2.87291e-14
2.90069e-14
2.87197e-14
2.90029e-14
2.87057e-14
2.89922e-14
2.86984e-14
2.89861e-14
2.8698e-14
2.89962e-14
2.8689e-14
2.89956e-14
2.8683e-14
2.89921e-14
2.86762e-14
2.89857e-14
2.86724e-14
2.89914e-14
2.86716e-14
2.89904e-14
2.86662e-14
2.89788e-14
2.86639e-14
2.89718e-14
2.86665e-14
2.89693e-14
2.86666e-14
2.89674e-14
2.86717e-14
2.8955e-14
2.86744e-14
2.89377e-14
2.86711e-14
2.89265e-14
2.86674e-14
2.89231e-14
2.86669e-14
2.89129e-14
2.86642e-14
2.89068e-14
2.86594e-14
2.89029e-14
2.86579e-14
2.8894e-14
2.86524e-14
2.88891e-14
2.86467e-14
2.88863e-14
2.86389e-14
2.88839e-14
2.86345e-14
2.88871e-14
2.86332e-14
2.88889e-14
2.86282e-14
2.88875e-14
2.8623e-14
2.88829e-14
2.8621e-14
2.88804e-14
2.86188e-14
2.88834e-14
2.86163e-14
2.88883e-14
2.86119e-14
2.88935e-14
2.8609e-14
2.88922e-14
2.86093e-14
2.88862e-14
2.86093e-14
2.88838e-14
2.86074e-14
2.88817e-14
2.86054e-14
2.88799e-14
2.86032e-14
2.88783e-14
2.86025e-14
2.88753e-14
2.86016e-14
2.88725e-14
2.86006e-14
2.88685e-14
2.85994e-14
2.88599e-14
2.85973e-14
2.88554e-14
2.8595e-14
2.88543e-14
2.8595e-14
2.88519e-14
2.85956e-14
2.88488e-14
2.85931e-14
2.88437e-14
2.8592e-14
2.88395e-14
2.85915e-14
2.88362e-14
2.85916e-14
2.88353e-14
2.85917e-14
2.88352e-14
2.85916e-14
2.88331e-14
2.85908e-14
2.88291e-14
2.85885e-14
2.88265e-14
2.85888e-14
2.88234e-14
2.85892e-14
2.88225e-14
2.85874e-14
2.88197e-14
2.85862e-14
2.88163e-14
2.8585e-14
2.88157e-14
2.85831e-14
2.88171e-14
2.85818e-14
2.88173e-14
2.85805e-14
2.88163e-14
2.85791e-14
2.88179e-14
2.85777e-14
2.88201e-14
2.85762e-14
2.88188e-14
2.85741e-14
2.88181e-14
2.8572e-14
2.88187e-14
2.85705e-14
2.88204e-14
2.85689e-14
2.88222e-14
2.85679e-14
2.88238e-14
2.85658e-14
2.88251e-14
2.85639e-14
2.88262e-14
2.8563e-14
2.88273e-14
2.85619e-14
2.88279e-14
2.85618e-14
2.88286e-14
2.85616e-14
2.88285e-14
2.85618e-14
2.88269e-14
2.8562e-14
2.8826e-14
2.85626e-14
2.88266e-14
2.85632e-14
2.88269e-14
2.85633e-14
2.88265e-14
2.85633e-14
2.88261e-14
2.85635e-14
2.88257e-14
2.85637e-14
2.88258e-14
2.8564e-14
2.88255e-14
2.85641e-14
2.88248e-14
2.85644e-14
2.88244e-14
2.85648e-14
2.88244e-14
2.85653e-14
2.88243e-14
2.85655e-14
2.88242e-14
2.85658e-14
2.88242e-14
2.85661e-14
2.88239e-14
2.85664e-14
2.88235e-14
2.85667e-14
2.88232e-14
2.85668e-14
2.8823e-14
2.8567e-14
2.88229e-14
2.8567e-14
2.88227e-14
2.85672e-14
2.88224e-14
2.85673e-14
2.88223e-14
2.85674e-14
2.88222e-14
2.85676e-14
2.8822e-14
2.85677e-14
2.88217e-14
2.85678e-14
2.88216e-14
2.8568e-14
2.88214e-14
2.8568e-14
2.88213e-14
2.85681e-14
2.88212e-14
2.85683e-14
2.8821e-14
2.85685e-14
2.88209e-14
2.85686e-14
2.88208e-14
2.85687e-14
2.88207e-14
2.85688e-14
2.88206e-14
2.85689e-14
2.88206e-14
2.8569e-14
2.88205e-14
2.85691e-14
2.88204e-14
2.85692e-14
2.88203e-14
2.85693e-14
2.88203e-14
2.85693e-14
2.88202e-14
2.85694e-14
2.88202e-14
2.85694e-14
2.88202e-14
2.85694e-14
2.88201e-14
2.85694e-14
2.88201e-14
2.85694e-14
2.88201e-14
2.85694e-14
2.88201e-14
2.85694e-14
2.88201e-14
2.85694e-14
2.88201e-14
2.81846e-14
2.81558e-14
2.81883e-14
2.81712e-14
2.82033e-14
2.81848e-14
2.82284e-14
2.81552e-14
2.81733e-14
2.81755e-14
2.823e-14
2.8242e-14
2.82656e-14
2.829e-14
2.82794e-14
2.82986e-14
2.8312e-14
2.83103e-14
2.83684e-14
2.83647e-14
2.84094e-14
2.8397e-14
2.85076e-14
2.84275e-14
2.85192e-14
2.8467e-14
2.85678e-14
2.84983e-14
2.86076e-14
2.85395e-14
2.86167e-14
2.85707e-14
2.86383e-14
2.85976e-14
2.86927e-14
2.86195e-14
2.87133e-14
2.8606e-14
2.86794e-14
2.85998e-14
2.87042e-14
2.86754e-14
2.87564e-14
2.86984e-14
2.87424e-14
2.87636e-14
2.87246e-14
2.87631e-14
2.87507e-14
2.87716e-14
2.87752e-14
2.87372e-14
2.87791e-14
2.8727e-14
2.8766e-14
2.86871e-14
2.8715e-14
2.86637e-14
2.86983e-14
2.86615e-14
2.87387e-14
2.86829e-14
2.87092e-14
2.86745e-14
2.86845e-14
2.86625e-14
2.87152e-14
2.86739e-14
2.8674e-14
2.87079e-14
2.86586e-14
2.87184e-14
2.86928e-14
2.87345e-14
2.8618e-14
2.87278e-14
2.86154e-14
2.87294e-14
2.86175e-14
2.87395e-14
2.85969e-14
2.87041e-14
2.85963e-14
2.86487e-14
2.86346e-14
2.86375e-14
2.86463e-14
2.86122e-14
2.86069e-14
2.85702e-14
2.8571e-14
2.85663e-14
2.8536e-14
2.86171e-14
2.85387e-14
2.8602e-14
2.85256e-14
2.85895e-14
2.85672e-14
2.86224e-14
2.85655e-14
2.86159e-14
2.85492e-14
2.86546e-14
2.85307e-14
2.86552e-14
2.85088e-14
2.86325e-14
2.85401e-14
2.86589e-14
2.85533e-14
2.86916e-14
2.85333e-14
2.87166e-14
2.85509e-14
2.87199e-14
2.8578e-14
2.86854e-14
2.8588e-14
2.86548e-14
2.8597e-14
2.86562e-14
2.85903e-14
2.866e-14
2.85968e-14
2.8666e-14
2.86168e-14
2.86742e-14
2.86063e-14
2.86843e-14
2.86092e-14
2.86972e-14
2.86105e-14
2.87281e-14
2.86095e-14
2.87325e-14
2.86059e-14
2.87406e-14
2.86297e-14
2.87373e-14
2.86361e-14
2.87067e-14
2.86412e-14
2.87084e-14
2.86453e-14
2.87348e-14
2.86478e-14
2.87634e-14
2.86482e-14
2.87869e-14
2.86462e-14
2.87906e-14
2.86571e-14
2.87974e-14
2.8658e-14
2.87994e-14
2.86643e-14
2.87965e-14
2.86763e-14
2.88272e-14
2.86862e-14
2.88609e-14
2.86938e-14
2.88747e-14
2.86989e-14
2.88605e-14
2.87174e-14
2.88333e-14
2.87267e-14
2.88235e-14
2.8727e-14
2.88386e-14
2.87336e-14
2.88554e-14
2.87386e-14
2.8874e-14
2.87418e-14
2.88947e-14
2.8751e-14
2.89018e-14
2.87583e-14
2.89111e-14
2.8764e-14
2.89144e-14
2.87759e-14
2.89275e-14
2.87942e-14
2.89422e-14
2.87954e-14
2.89428e-14
2.88032e-14
2.89608e-14
2.88098e-14
2.89647e-14
2.8823e-14
2.89701e-14
2.88273e-14
2.89769e-14
2.88385e-14
2.89693e-14
2.88566e-14
2.89628e-14
2.88585e-14
2.89651e-14
2.88676e-14
2.89603e-14
2.88685e-14
2.89721e-14
2.88689e-14
2.89846e-14
2.88687e-14
2.90019e-14
2.88719e-14
2.90043e-14
2.88784e-14
2.90154e-14
2.88645e-14
2.90275e-14
2.88618e-14
2.90209e-14
2.88624e-14
2.90192e-14
2.88583e-14
2.90263e-14
2.88536e-14
2.90303e-14
2.88483e-14
2.90352e-14
2.88383e-14
2.90292e-14
2.88393e-14
2.90241e-14
2.88358e-14
2.90238e-14
2.88356e-14
2.90125e-14
2.8827e-14
2.90059e-14
2.88295e-14
2.9e-14
2.88354e-14
2.89752e-14
2.88332e-14
2.89626e-14
2.88346e-14
2.89581e-14
2.88318e-14
2.89539e-14
2.88289e-14
2.89424e-14
2.88258e-14
2.89233e-14
2.88302e-14
2.89084e-14
2.88231e-14
2.8905e-14
2.88198e-14
2.88979e-14
2.88202e-14
2.88795e-14
2.88207e-14
2.88573e-14
2.88098e-14
2.88503e-14
2.88067e-14
2.88509e-14
2.8796e-14
2.88476e-14
2.87891e-14
2.88442e-14
2.8771e-14
2.88409e-14
2.87661e-14
2.88413e-14
2.87611e-14
2.8838e-14
2.87449e-14
2.88329e-14
2.87269e-14
2.88353e-14
2.87217e-14
2.88358e-14
2.87145e-14
2.8831e-14
2.87054e-14
2.88264e-14
2.86926e-14
2.88236e-14
2.8685e-14
2.88174e-14
2.8681e-14
2.88113e-14
2.86732e-14
2.8809e-14
2.86654e-14
2.88068e-14
2.86556e-14
2.88012e-14
2.86475e-14
2.8801e-14
2.86393e-14
2.88009e-14
2.86309e-14
2.87958e-14
2.86224e-14
2.87907e-14
2.8619e-14
2.87841e-14
2.8612e-14
2.87777e-14
2.86083e-14
2.87731e-14
2.86045e-14
2.87686e-14
2.86023e-14
2.87642e-14
2.85983e-14
2.876e-14
2.85891e-14
2.87625e-14
2.85832e-14
2.87634e-14
2.85772e-14
2.87628e-14
2.8576e-14
2.87606e-14
2.85714e-14
2.8757e-14
2.85668e-14
2.87566e-14
2.8562e-14
2.87579e-14
2.85635e-14
2.87546e-14
2.85616e-14
2.87553e-14
2.8559e-14
2.87599e-14
2.85577e-14
2.87592e-14
2.85563e-14
2.87586e-14
2.85549e-14
2.87581e-14
2.85533e-14
2.87591e-14
2.85488e-14
2.87632e-14
2.85463e-14
2.87658e-14
2.8543e-14
2.87671e-14
2.85418e-14
2.87677e-14
2.85399e-14
2.87677e-14
2.85378e-14
2.87663e-14
2.85357e-14
2.87685e-14
2.85335e-14
2.87715e-14
2.85319e-14
2.87717e-14
2.85302e-14
2.87714e-14
2.85305e-14
2.87725e-14
2.8528e-14
2.87742e-14
2.85243e-14
2.8776e-14
2.85224e-14
2.87779e-14
2.85217e-14
2.87785e-14
2.85221e-14
2.87786e-14
2.85219e-14
2.87788e-14
2.85216e-14
2.87796e-14
2.85218e-14
2.87804e-14
2.85208e-14
2.87801e-14
2.85203e-14
2.87794e-14
2.85203e-14
2.87792e-14
2.852e-14
2.87799e-14
2.85194e-14
2.87799e-14
2.85187e-14
2.87796e-14
2.85185e-14
2.87797e-14
2.85188e-14
2.87795e-14
2.8518e-14
2.87797e-14
2.85179e-14
2.87789e-14
2.85182e-14
2.87772e-14
2.85185e-14
2.87756e-14
2.85185e-14
2.8775e-14
2.8518e-14
2.87746e-14
2.85184e-14
2.87743e-14
2.85183e-14
2.87734e-14
2.85181e-14
2.87724e-14
2.85184e-14
2.87722e-14
2.85189e-14
2.87722e-14
2.85189e-14
2.87721e-14
2.85188e-14
2.87716e-14
2.85189e-14
2.87713e-14
2.85191e-14
2.87711e-14
2.85191e-14
2.87711e-14
2.85191e-14
2.8771e-14
2.85194e-14
2.87708e-14
2.85197e-14
2.87705e-14
2.85196e-14
2.87703e-14
2.85197e-14
2.87701e-14
2.852e-14
2.87698e-14
2.85202e-14
2.87696e-14
2.85204e-14
2.87695e-14
2.85204e-14
2.87694e-14
2.85203e-14
2.87694e-14
2.85203e-14
2.87692e-14
2.85203e-14
2.87692e-14
2.85203e-14
2.87692e-14
2.85202e-14
2.87693e-14
2.85202e-14
2.87692e-14
2.85202e-14
2.87693e-14
2.85201e-14
2.87695e-14
2.852e-14
2.87695e-14
2.852e-14
2.87695e-14
2.852e-14
2.87696e-14
2.852e-14
2.87696e-14
2.85199e-14
2.87696e-14
2.85199e-14
2.87696e-14
2.85198e-14
2.87696e-14
2.85198e-14
2.87696e-14
2.85197e-14
2.87697e-14
2.85197e-14
2.87696e-14
2.85197e-14
2.87696e-14
2.85197e-14
2.87697e-14
2.85196e-14
2.87696e-14
2.85196e-14
2.87697e-14
2.85196e-14
2.87696e-14
2.85196e-14
2.87696e-14
2.85196e-14
2.87696e-14
)
;

boundaryField
{
    walls
    {
        type            zeroGradient;
    }
    inlet
    {
        type            cyclic;
    }
    outlet
    {
        type            cyclic;
    }
    sides
    {
        type            empty;
    }
}


// ************************************************************************* //
