/*--------------------------------*- C++ -*----------------------------------*\
| =========                 |                                                 |
| \\      /  F ield         | OpenFOAM: The Open Source CFD Toolbox           |
|  \\    /   O peration     | Version:  2106                                  |
|   \\  /    A nd           | Website:  www.openfoam.com                      |
|    \\/     M anipulation  |                                                 |
\*---------------------------------------------------------------------------*/
FoamFile
{
    version     2.0;
    format      ascii;
    arch        "LSB;label=32;scalar=64";
    class       surfaceScalarField;
    location    "10020";
    object      phi;
}
// * * * * * * * * * * * * * * * * * * * * * * * * * * * * * * * * * * * * * //

dimensions      [0 3 -1 0 0 0 0];

oriented        oriented;

internalField   nonuniform List<scalar> 
3996
(
5.2666e-08
-7.20891e-18
-7.47922e-22
-1.68753e-21
2.14785e-23
1.61928e-07
-7.20303e-18
-1.9635e-21
-5.40917e-21
-1.68502e-22
2.77289e-07
-7.19678e-18
-2.05904e-21
-9.38574e-21
-1.78187e-22
3.99014e-07
-7.19023e-18
-2.17332e-21
-1.3546e-20
-1.88463e-22
5.27377e-07
-7.1834e-18
-2.293e-21
-1.7876e-20
-1.9937e-22
6.62665e-07
-7.1762e-18
-2.41877e-21
-2.24922e-20
-2.10953e-22
8.05168e-07
-7.16854e-18
-2.55194e-21
-2.72863e-20
-2.23242e-22
9.55181e-07
-7.16053e-18
-2.69257e-21
-3.2267e-20
-2.36259e-22
1.113e-06
-7.15197e-18
-2.84039e-21
-3.75102e-20
-2.50016e-22
1.2789e-06
-7.14308e-18
-2.995e-21
-4.34459e-20
-2.6452e-22
1.45315e-06
-7.13418e-18
-3.1558e-21
-4.89882e-20
-2.79728e-22
1.63595e-06
-7.12396e-18
-3.32177e-21
-5.51603e-20
-2.9558e-22
1.82749e-06
-7.11331e-18
-3.49146e-21
-6.21081e-20
-3.11971e-22
2.02783e-06
-7.10223e-18
-3.66285e-21
-6.92923e-20
-3.28724e-22
2.23696e-06
-7.08995e-18
-3.83336e-21
-7.6587e-20
-3.45614e-22
2.45473e-06
-7.07832e-18
-3.99994e-21
-8.39943e-20
-3.62387e-22
2.68087e-06
-7.06616e-18
-4.15917e-21
-9.22231e-20
-3.78744e-22
2.91495e-06
-7.05369e-18
-4.30762e-21
-1.00539e-19
-3.94342e-22
3.15644e-06
-7.0409e-18
-4.44214e-21
-1.0853e-19
-4.08902e-22
3.4047e-06
-7.02798e-18
-4.5602e-21
-1.1601e-19
-4.22209e-22
3.65903e-06
-7.01388e-18
-4.66014e-21
-1.25207e-19
-4.34077e-22
3.9187e-06
-6.99933e-18
-4.74136e-21
-1.33336e-19
-4.4441e-22
4.18302e-06
-6.98584e-18
-4.80419e-21
-1.4216e-19
-4.53297e-22
4.45135e-06
-6.97065e-18
-4.84982e-21
-1.51974e-19
-4.60854e-22
4.72313e-06
-6.95692e-18
-4.88018e-21
-1.6113e-19
-4.67178e-22
4.99793e-06
-6.9421e-18
-4.89748e-21
-1.70377e-19
-4.72528e-22
5.2754e-06
-6.92843e-18
-4.90416e-21
-1.80875e-19
-4.77103e-22
5.5553e-06
-6.91363e-18
-4.90249e-21
-1.90743e-19
-4.80986e-22
5.83751e-06
-6.89854e-18
-4.89469e-21
-2.00092e-19
-4.84425e-22
6.12195e-06
-6.88125e-18
-4.88268e-21
-2.10781e-19
-4.87637e-22
6.40864e-06
-6.86709e-18
-4.86816e-21
-2.19164e-19
-4.90718e-22
6.69766e-06
-6.8523e-18
-4.85241e-21
-2.28733e-19
-4.93771e-22
6.9891e-06
-6.83763e-18
-4.83652e-21
-2.39025e-19
-4.969e-22
7.28312e-06
-6.82193e-18
-4.82134e-21
-2.47943e-19
-5.00195e-22
7.57989e-06
-6.80733e-18
-4.80751e-21
-2.57246e-19
-5.03732e-22
7.8796e-06
-6.7944e-18
-4.79544e-21
-2.64322e-19
-5.07529e-22
8.18244e-06
-6.78274e-18
-4.78533e-21
-2.70643e-19
-5.11751e-22
8.48863e-06
-6.77082e-18
-4.7773e-21
-2.75921e-19
-5.16534e-22
8.79838e-06
-6.7573e-18
-4.77155e-21
-2.81244e-19
-5.2192e-22
9.11191e-06
-6.74648e-18
-4.76823e-21
-2.87908e-19
-5.28039e-22
9.42945e-06
-6.73356e-18
-4.76722e-21
-2.95139e-19
-5.34759e-22
9.75121e-06
-6.72355e-18
-4.76865e-21
-3.00423e-19
-5.42115e-22
1.00774e-05
-6.71233e-18
-4.77233e-21
-3.07163e-19
-5.50085e-22
1.04083e-05
-6.70063e-18
-4.77822e-21
-3.14201e-19
-5.58822e-22
1.0744e-05
-6.68781e-18
-4.78621e-21
-3.20926e-19
-5.68203e-22
1.10849e-05
-6.67509e-18
-4.79608e-21
-3.27889e-19
-5.78207e-22
1.1431e-05
-6.66303e-18
-4.80794e-21
-3.35212e-19
-5.88861e-22
1.17827e-05
-6.65032e-18
-4.82137e-21
-3.42085e-19
-6.00219e-22
1.21401e-05
-6.64198e-18
-4.83637e-21
-3.46697e-19
-6.12244e-22
1.25035e-05
-6.62532e-18
-4.8526e-21
-3.54569e-19
-6.2526e-22
1.2873e-05
-6.61403e-18
-4.87044e-21
-3.61598e-19
-6.38815e-22
1.32489e-05
-6.59782e-18
-4.88948e-21
-3.65541e-19
-6.52881e-22
1.36313e-05
-6.58511e-18
-4.91018e-21
-3.74138e-19
-6.67705e-22
1.40206e-05
-6.57131e-18
-4.9322e-21
-3.82956e-19
-6.82561e-22
1.44168e-05
-6.55462e-18
-4.95555e-21
-3.90241e-19
-6.97839e-22
1.48203e-05
-6.5407e-18
-4.98068e-21
-3.98715e-19
-7.13863e-22
1.52312e-05
-6.53044e-18
-5.00707e-21
-4.04039e-19
-7.29977e-22
1.56497e-05
-6.51907e-18
-5.03416e-21
-4.1003e-19
-7.46611e-22
1.60761e-05
-6.50799e-18
-5.06227e-21
-4.19034e-19
-7.63171e-22
1.65105e-05
-6.49704e-18
-5.09133e-21
-4.28292e-19
-7.79312e-22
1.69532e-05
-6.47818e-18
-5.12082e-21
-4.35416e-19
-7.95068e-22
1.74045e-05
-6.46722e-18
-5.15165e-21
-4.41344e-19
-8.10262e-22
1.78644e-05
-6.45229e-18
-5.1827e-21
-4.51451e-19
-8.24603e-22
1.83333e-05
-6.44168e-18
-5.21459e-21
-4.60611e-19
-8.37818e-22
1.88114e-05
-6.42711e-18
-5.2465e-21
-4.66199e-19
-8.50828e-22
1.92989e-05
-6.41208e-18
-5.27911e-21
-4.71582e-19
-8.63771e-22
1.97961e-05
-6.39825e-18
-5.31259e-21
-4.75536e-19
-8.76863e-22
2.03031e-05
-6.38154e-18
-5.34627e-21
-4.80125e-19
-8.89744e-22
2.08202e-05
-6.36877e-18
-5.38049e-21
-4.89216e-19
-9.01894e-22
2.13477e-05
-6.3514e-18
-5.4144e-21
-4.94487e-19
-9.13316e-22
2.18858e-05
-6.33629e-18
-5.44893e-21
-5.01452e-19
-9.25187e-22
2.24348e-05
-6.32042e-18
-5.48341e-21
-5.07331e-19
-9.36368e-22
2.29949e-05
-6.30565e-18
-5.51797e-21
-5.15719e-19
-9.46155e-22
2.35663e-05
-6.2908e-18
-5.55275e-21
-5.22039e-19
-9.543e-22
2.41494e-05
-6.27216e-18
-5.5872e-21
-5.31443e-19
-9.62031e-22
2.47444e-05
-6.25402e-18
-5.6211e-21
-5.40715e-19
-9.68388e-22
2.53516e-05
-6.2317e-18
-5.65435e-21
-5.51306e-19
-9.7451e-22
2.59712e-05
-6.21096e-18
-5.68747e-21
-5.61842e-19
-9.80109e-22
2.66035e-05
-6.19381e-18
-5.72036e-21
-5.72822e-19
-9.82716e-22
2.72489e-05
-6.17494e-18
-5.75186e-21
-5.83859e-19
-9.82253e-22
2.79075e-05
-6.15566e-18
-5.78307e-21
-5.96636e-19
-9.79727e-22
2.85798e-05
-6.1442e-18
-5.81507e-21
-6.01876e-19
-9.73435e-22
2.9266e-05
-6.12952e-18
-5.84547e-21
-6.08545e-19
-9.63846e-22
2.99664e-05
-6.1177e-18
-5.87412e-21
-6.15612e-19
-9.53505e-22
3.06813e-05
-6.10175e-18
-5.90119e-21
-6.35992e-19
-9.41628e-22
3.14111e-05
-6.07666e-18
-5.92936e-21
-6.55293e-19
-9.23025e-22
3.21561e-05
-6.06114e-18
-5.96124e-21
-6.70123e-19
-8.98342e-22
3.29166e-05
-6.04138e-18
-5.99292e-21
-6.93825e-19
-8.66262e-22
3.36929e-05
-6.02436e-18
-6.02589e-21
-6.97849e-19
-8.24601e-22
3.44854e-05
-6.01263e-18
-6.06437e-21
-7.08421e-19
-7.77355e-22
3.52945e-05
-6e-18
-6.1039e-21
-7.15096e-19
-7.25542e-22
3.61205e-05
-5.98691e-18
-6.14121e-21
-7.20531e-19
-6.72483e-22
3.69637e-05
-5.96542e-18
-6.17172e-21
-7.27947e-19
-6.19794e-22
3.78246e-05
-5.95577e-18
-6.20292e-21
-7.34748e-19
-5.63547e-22
3.87035e-05
-5.93951e-18
-6.23172e-21
-7.50802e-19
-5.04934e-22
3.96008e-05
-5.91814e-18
-6.26208e-21
-7.60394e-19
-4.43458e-22
4.0517e-05
-5.90049e-18
-6.29403e-21
-7.71894e-19
-3.82438e-22
4.14523e-05
-5.88163e-18
-6.32823e-21
-7.8624e-19
-3.173e-22
4.24073e-05
-5.85666e-18
-6.36307e-21
-8.04919e-19
-2.48709e-22
4.33823e-05
-5.83836e-18
-6.40601e-21
-8.21074e-19
-1.75258e-22
4.43778e-05
-5.81206e-18
-6.45144e-21
-8.38672e-19
-1.00214e-22
4.53942e-05
-5.79403e-18
-6.50295e-21
-8.43794e-19
-2.42134e-23
4.6432e-05
-5.77288e-18
-6.55582e-21
-8.5801e-19
4.95833e-23
4.74916e-05
-5.74802e-18
-6.61207e-21
-8.78621e-19
1.2385e-22
4.85734e-05
-5.72962e-18
-6.67149e-21
-8.97242e-19
1.92983e-22
4.9678e-05
-5.70832e-18
-6.73376e-21
-9.22268e-19
2.56434e-22
5.08059e-05
-5.68175e-18
-6.79805e-21
-9.45037e-19
3.20598e-22
5.19574e-05
-5.65964e-18
-6.86533e-21
-9.65033e-19
3.89013e-22
5.31332e-05
-5.62973e-18
-6.93623e-21
-9.87908e-19
4.50129e-22
5.43337e-05
-5.59458e-18
-7.01351e-21
-1.01334e-18
5.0792e-22
5.55595e-05
-5.57803e-18
-7.11229e-21
-1.03105e-18
5.64819e-22
5.68111e-05
-5.55883e-18
-7.20435e-21
-1.04083e-18
6.24833e-22
5.80891e-05
-5.53801e-18
-7.31555e-21
-1.06131e-18
6.83209e-22
5.93939e-05
-5.52058e-18
-7.42111e-21
-1.07809e-18
7.48466e-22
6.07262e-05
-5.49243e-18
-7.53085e-21
-1.09155e-18
8.14044e-22
6.20866e-05
-5.45604e-18
-7.6489e-21
-1.12523e-18
8.79586e-22
6.34755e-05
-5.4183e-18
-7.76243e-21
-1.1637e-18
9.6498e-22
6.48938e-05
-5.36413e-18
-7.89389e-21
-1.20061e-18
1.06858e-21
6.63419e-05
-5.31618e-18
-8.05905e-21
-1.23669e-18
1.17679e-21
6.78204e-05
-5.28158e-18
-8.22002e-21
-1.2461e-18
1.277e-21
6.93301e-05
-5.25968e-18
-8.38485e-21
-1.26283e-18
1.3421e-21
7.08716e-05
-5.25459e-18
-8.53993e-21
-1.26356e-18
1.38487e-21
7.24455e-05
-5.24626e-18
-8.67464e-21
-1.27506e-18
1.42185e-21
7.40525e-05
-5.21984e-18
-8.78724e-21
-1.28611e-18
1.44932e-21
7.56933e-05
-5.18584e-18
-8.8867e-21
-1.30252e-18
1.44473e-21
7.73687e-05
-5.14288e-18
-8.97958e-21
-1.32133e-18
1.43686e-21
7.90793e-05
-5.10444e-18
-9.0774e-21
-1.34046e-18
1.42563e-21
8.08259e-05
-5.06744e-18
-9.18736e-21
-1.35381e-18
1.40489e-21
8.26092e-05
-5.05598e-18
-9.30722e-21
-1.37273e-18
1.36756e-21
8.443e-05
-5.02055e-18
-9.38169e-21
-1.41179e-18
1.32962e-21
8.62892e-05
-4.99609e-18
-9.48559e-21
-1.43325e-18
1.36623e-21
8.81874e-05
-4.95704e-18
-9.60192e-21
-1.44793e-18
1.38978e-21
9.01255e-05
-4.92895e-18
-9.74767e-21
-1.45049e-18
1.38218e-21
9.21043e-05
-4.88878e-18
-9.89664e-21
-1.47434e-18
1.315e-21
9.41247e-05
-4.88326e-18
-1.00974e-20
-1.49029e-18
1.27929e-21
9.61876e-05
-4.84862e-18
-1.02777e-20
-1.50401e-18
1.20005e-21
9.82938e-05
-4.81756e-18
-1.04729e-20
-1.51845e-18
1.07839e-21
0.000100444
-4.78846e-18
-1.06474e-20
-1.55054e-18
9.15607e-22
0.00010264
-4.75636e-18
-1.07718e-20
-1.57912e-18
7.58927e-22
0.000104881
-4.73647e-18
-1.09199e-20
-1.59024e-18
6.21552e-22
0.00010717
-4.70093e-18
-1.10096e-20
-1.60615e-18
4.4313e-22
0.000109507
-4.65398e-18
-1.1123e-20
-1.64738e-18
2.01206e-22
0.000111893
-4.6144e-18
-1.13126e-20
-1.66272e-18
6.11976e-23
0.000114328
-4.59439e-18
-1.14373e-20
-1.67423e-18
-9.36986e-23
0.000116815
-4.52528e-18
-1.15322e-20
-1.72402e-18
-2.65636e-22
0.000119354
-4.49612e-18
-1.17246e-20
-1.7555e-18
-3.82059e-22
0.000121946
-4.45002e-18
-1.18548e-20
-1.77427e-18
-5.06168e-22
0.000124593
-4.40245e-18
-1.20101e-20
-1.79639e-18
-7.28724e-22
0.000127295
-4.32934e-18
-1.21187e-20
-1.81933e-18
-1.01356e-21
0.000130053
-4.27029e-18
-1.22391e-20
-1.83391e-18
-1.27803e-21
0.00013287
-4.22786e-18
-1.24966e-20
-1.86115e-18
-1.45484e-21
0.000135745
-4.17721e-18
-1.27212e-20
-1.88966e-18
-1.62276e-21
0.00013868
-4.1218e-18
-1.29725e-20
-1.91456e-18
-1.75017e-21
0.000141677
-4.09217e-18
-1.31707e-20
-1.93999e-18
-1.79989e-21
0.000144736
-4.02479e-18
-1.32792e-20
-1.9495e-18
-1.77292e-21
0.000147859
-3.96597e-18
-1.34502e-20
-1.99059e-18
-1.77379e-21
0.000151048
-3.93221e-18
-1.35035e-20
-2.00648e-18
-1.75676e-21
0.000154303
-3.88864e-18
-1.33773e-20
-2.01921e-18
-1.95391e-21
0.000157626
-3.83327e-18
-1.32782e-20
-2.03368e-18
-2.22798e-21
0.000161019
-3.77927e-18
-1.32324e-20
-2.0721e-18
-2.52679e-21
0.000164482
-3.73193e-18
-1.32983e-20
-2.07638e-18
-2.70676e-21
0.000168017
-3.6856e-18
-1.31737e-20
-2.08792e-18
-2.94262e-21
0.000171626
-3.63613e-18
-1.31443e-20
-2.10367e-18
-3.17229e-21
0.000175311
-3.58124e-18
-1.31416e-20
-2.12271e-18
-3.38433e-21
0.000179072
-3.55213e-18
-1.32629e-20
-2.14604e-18
-3.72513e-21
0.000182911
-3.50534e-18
-1.33557e-20
-2.18723e-18
-4.21555e-21
0.00018683
-3.48627e-18
-1.35166e-20
-2.19748e-18
-4.76202e-21
0.000190831
-3.44796e-18
-1.37147e-20
-2.18837e-18
-5.05921e-21
0.000194915
-3.39309e-18
-1.40671e-20
-2.20467e-18
-5.15615e-21
0.000199084
-3.35108e-18
-1.46001e-20
-2.19904e-18
-5.43137e-21
0.000203339
-3.32547e-18
-1.51451e-20
-2.20563e-18
-5.78543e-21
0.000207683
-3.2373e-18
-1.55059e-20
-2.18792e-18
-6.10443e-21
0.000212117
-3.22208e-18
-1.60751e-20
-2.20499e-18
-6.4306e-21
0.000216643
-3.19977e-18
-1.6353e-20
-2.21126e-18
-6.65331e-21
0.000221263
-3.16752e-18
-1.65653e-20
-2.20849e-18
-6.90161e-21
0.000225978
-3.11347e-18
-1.68756e-20
-2.19973e-18
-7.11064e-21
0.000230791
-3.06776e-18
-1.72028e-20
-2.21974e-18
-7.70179e-21
0.000235703
-3.02967e-18
-1.74977e-20
-2.22659e-18
-8.21653e-21
0.000240718
-3.02127e-18
-1.79997e-20
-2.21346e-18
-8.49709e-21
0.000245835
-3.00882e-18
-1.81332e-20
-2.15828e-18
-9.10196e-21
0.000251059
-2.91448e-18
-1.77311e-20
-2.19335e-18
-1.04964e-20
0.00025639
-2.82544e-18
-1.74045e-20
-2.15895e-18
-1.1638e-20
0.000261832
-2.77876e-18
-1.76225e-20
-2.25277e-18
-1.30511e-20
0.000267385
-2.74113e-18
-1.79741e-20
-2.2773e-18
-1.35304e-20
0.000273053
-2.74454e-18
-1.78756e-20
-2.31596e-18
-1.49254e-20
0.000278837
-2.67271e-18
-1.69545e-20
-2.35348e-18
-1.58117e-20
0.000284741
-2.68969e-18
-1.75757e-20
-2.39053e-18
-1.55457e-20
0.000290765
-2.6241e-18
-1.68872e-20
-2.40673e-18
-1.50848e-20
0.000296914
-2.67283e-18
-1.75131e-20
-2.41101e-18
-1.5492e-20
0.000303188
-2.63142e-18
-1.80186e-20
-2.40399e-18
-1.63111e-20
0.000309591
-2.59218e-18
-1.94844e-20
-2.42153e-18
-1.69528e-20
0.000316126
-2.59866e-18
-2.06147e-20
-2.426e-18
-1.81714e-20
0.000322793
-2.57848e-18
-2.13996e-20
-2.46581e-18
-1.89013e-20
0.000329598
-2.54974e-18
-2.2199e-20
-2.46634e-18
-1.95733e-20
0.000336541
-2.53809e-18
-2.36292e-20
-2.4568e-18
-2.09761e-20
0.000343625
-2.53103e-18
-2.49073e-20
-2.41684e-18
-2.28406e-20
0.000350854
-2.52132e-18
-2.59323e-20
-2.44915e-18
-2.44723e-20
0.00035823
-2.46322e-18
-2.65783e-20
-2.44761e-18
-2.6144e-20
0.000365756
-2.45494e-18
-2.59924e-20
-2.36064e-18
-2.65004e-20
0.000373435
-2.4007e-18
-2.57186e-20
-2.33278e-18
-2.91834e-20
0.000381269
-2.36266e-18
-2.65034e-20
-2.31037e-18
-3.1074e-20
0.000389261
-2.35706e-18
-2.68196e-20
-2.30659e-18
-3.17038e-20
0.000397416
-2.30759e-18
-2.55636e-20
-2.25829e-18
-3.14868e-20
0.000405735
-2.16691e-18
-2.47437e-20
-2.22437e-18
-3.14498e-20
0.000414221
-2.12786e-18
-2.57437e-20
-2.18481e-18
-2.84149e-20
0.000422878
-2.04163e-18
-2.62767e-20
-2.16865e-18
-2.50123e-20
0.000431709
-2.10587e-18
-2.91138e-20
-2.04599e-18
-2.32307e-20
0.000440717
-2.0733e-18
-3.11803e-20
-2.03018e-18
-2.49527e-20
0.000449905
-1.9849e-18
-3.00686e-20
-2.02535e-18
-2.64362e-20
0.000459277
-1.98062e-18
-3.09286e-20
-1.96337e-18
-2.62063e-20
0.000468835
-1.92601e-18
-2.97279e-20
-1.91425e-18
-2.59048e-20
0.000478584
-1.84017e-18
-3.06435e-20
-1.90911e-18
-2.48359e-20
0.000488525
-1.96281e-18
-3.56517e-20
-1.93562e-18
-2.59189e-20
0.000498664
-2.00336e-18
-3.80181e-20
-2.02624e-18
-2.97987e-20
0.000509002
-1.98479e-18
-3.58407e-20
-2.02141e-18
-3.4353e-20
0.000519544
-2.05666e-18
-3.38042e-20
-1.91078e-18
-3.2058e-20
0.000530293
-1.85729e-18
-2.91564e-20
-1.90802e-18
-3.11029e-20
0.000541252
-1.8825e-18
-2.86487e-20
-1.85547e-18
-3.00652e-20
0.000552425
-1.79124e-18
-3.04323e-20
-1.92109e-18
-3.16438e-20
0.000563814
-1.87081e-18
-3.84019e-20
-1.90962e-18
-3.33345e-20
0.000575425
-1.72159e-18
-3.73008e-20
-1.79891e-18
-3.11466e-20
0.000587259
-1.80109e-18
-4.50498e-20
-1.72934e-18
-3.48689e-20
0.00059932
-1.80495e-18
-4.46966e-20
-1.72717e-18
-3.25656e-20
0.000611612
-1.77828e-18
-4.33807e-20
-1.71525e-18
-2.70408e-20
0.000624138
-1.80851e-18
-3.95331e-20
-1.69257e-18
-2.45435e-20
0.000636901
-1.74867e-18
-3.53376e-20
-1.74319e-18
-2.28801e-20
0.000649904
-1.58934e-18
-3.44377e-20
-1.70898e-18
-2.29017e-20
0.000663151
-1.61961e-18
-3.57071e-20
-1.56579e-18
-2.42739e-20
0.000676643
-1.69007e-18
-4.09308e-20
-1.63478e-18
-2.59757e-20
0.000690385
-1.49387e-18
-3.39455e-20
-1.53851e-18
-2.99365e-20
0.000704378
-1.42526e-18
-3.66527e-20
-1.53026e-18
-3.7713e-20
0.000718626
-1.36839e-18
-4.83874e-20
-1.52401e-18
-3.85412e-20
0.00073313
-1.28714e-18
-5.2085e-20
-1.56908e-18
-4.11994e-20
0.000747892
-1.47243e-18
-6.55902e-20
-1.60783e-18
-3.04808e-20
0.000762915
-1.31621e-18
-4.98071e-20
-1.6342e-18
-1.63641e-20
0.0007782
-1.55387e-18
-5.69045e-20
-1.67048e-18
-7.99911e-21
0.000793747
-1.56163e-18
-5.11575e-20
-1.63287e-18
-6.7055e-21
0.000809559
-1.62608e-18
-4.54453e-20
-1.46989e-18
3.28065e-21
0.000825634
-1.53784e-18
-4.05314e-20
-1.42547e-18
1.79215e-21
0.000841973
-1.56987e-18
-4.36595e-20
-1.40562e-18
-1.10093e-20
0.000858575
-1.44447e-18
-4.3846e-20
-1.38228e-18
-2.38071e-20
0.000875438
-1.47568e-18
-4.48339e-20
-1.29364e-18
-2.39929e-20
0.000892561
-1.33242e-18
-3.90474e-20
-1.26407e-18
-3.05661e-20
0.00090994
-1.26713e-18
-4.19683e-20
-1.22622e-18
-2.45871e-20
0.000927572
-1.1359e-18
-4.74545e-20
-1.19645e-18
-1.59932e-20
0.000945453
-9.30439e-19
-4.24476e-20
-1.14602e-18
-1.96882e-20
0.000963577
-1.16532e-18
-6.49526e-20
-1.10375e-18
-2.68835e-20
0.000981938
-1.06559e-18
-5.04439e-20
-1.07324e-18
-1.51654e-20
0.00100053
-9.39582e-19
-5.73228e-20
-1.19321e-18
-1.72225e-20
0.00101934
-5.25371e-20
-1.05549e-18
7.70259e-21
-1.03316e-18
5.2666e-08
-6.2587e-22
-1.08491e-22
1.61928e-07
-2.25366e-21
-6.03494e-22
2.77289e-07
-3.97348e-21
-1.15176e-21
3.99014e-07
-5.76498e-21
-1.70196e-21
5.27377e-07
-7.58329e-21
-2.4412e-21
6.62665e-07
-9.7316e-21
-2.9568e-21
8.05168e-07
-1.16313e-20
-3.41502e-21
9.55181e-07
-1.40895e-20
-3.71639e-21
1.113e-06
-1.64749e-20
-4.48166e-21
1.2789e-06
-1.90778e-20
-5.14658e-21
1.45315e-06
-2.17923e-20
-5.57394e-21
1.63595e-06
-2.45627e-20
-6.53609e-21
1.82749e-06
-2.78384e-20
-7.27645e-21
2.02783e-06
-3.12615e-20
-7.72851e-21
2.23696e-06
-3.48064e-20
-8.61328e-21
2.45473e-06
-3.81237e-20
-9.36569e-21
2.68087e-06
-4.14943e-20
-9.88797e-21
2.91495e-06
-4.53597e-20
-1.07125e-20
3.15644e-06
-4.93611e-20
-1.19489e-20
3.4047e-06
-5.33261e-20
-1.19243e-20
3.65903e-06
-5.80401e-20
-1.2352e-20
3.9187e-06
-6.10736e-20
-1.35011e-20
4.18302e-06
-6.42123e-20
-1.60088e-20
4.45135e-06
-6.72696e-20
-1.76018e-20
4.72313e-06
-7.06244e-20
-2.01714e-20
4.99793e-06
-7.42174e-20
-2.27813e-20
5.2754e-06
-7.69159e-20
-2.36753e-20
5.5553e-06
-7.99583e-20
-2.56779e-20
5.83751e-06
-8.28064e-20
-2.78746e-20
6.12195e-06
-8.60612e-20
-3.04347e-20
6.40864e-06
-9.07754e-20
-3.09933e-20
6.69766e-06
-9.50337e-20
-3.24728e-20
6.9891e-06
-9.93231e-20
-3.47444e-20
7.28312e-06
-1.02616e-19
-3.63993e-20
7.57989e-06
-1.06066e-19
-3.7793e-20
7.8796e-06
-1.0805e-19
-3.92139e-20
8.18244e-06
-1.09487e-19
-4.1711e-20
8.48863e-06
-1.12781e-19
-4.36231e-20
8.79838e-06
-1.16296e-19
-4.67043e-20
9.11191e-06
-1.2047e-19
-4.68789e-20
9.42945e-06
-1.24008e-19
-4.89457e-20
9.75121e-06
-1.2885e-19
-4.96222e-20
1.00774e-05
-1.33142e-19
-5.24501e-20
1.04083e-05
-1.37722e-19
-5.23736e-20
1.0744e-05
-1.40831e-19
-5.06215e-20
1.10849e-05
-1.47914e-19
-4.98936e-20
1.1431e-05
-1.51e-19
-5.23325e-20
1.17827e-05
-1.55016e-19
-5.33761e-20
1.21401e-05
-1.61557e-19
-5.53756e-20
1.25035e-05
-1.65034e-19
-5.70086e-20
1.2873e-05
-1.68578e-19
-5.83387e-20
1.32489e-05
-1.72065e-19
-6.02372e-20
1.36313e-05
-1.76862e-19
-6.06672e-20
1.40206e-05
-1.80726e-19
-6.29625e-20
1.44168e-05
-1.85419e-19
-6.60952e-20
1.48203e-05
-1.88651e-19
-6.6496e-20
1.52312e-05
-1.90932e-19
-6.87229e-20
1.56497e-05
-1.94674e-19
-6.71977e-20
1.60761e-05
-1.99059e-19
-6.70536e-20
1.65105e-05
-2.01283e-19
-6.87991e-20
1.69532e-05
-2.03949e-19
-6.95405e-20
1.74045e-05
-2.05278e-19
-6.98683e-20
1.78644e-05
-2.08379e-19
-6.97644e-20
1.83333e-05
-2.11909e-19
-7.3947e-20
1.88114e-05
-2.16295e-19
-7.85775e-20
1.92989e-05
-2.21607e-19
-8.37861e-20
1.97961e-05
-2.25147e-19
-8.58447e-20
2.03031e-05
-2.28807e-19
-8.8575e-20
2.08202e-05
-2.32765e-19
-9.31646e-20
2.13477e-05
-2.37745e-19
-9.63429e-20
2.18858e-05
-2.41576e-19
-1.0007e-19
2.24348e-05
-2.46162e-19
-1.026e-19
2.29949e-05
-2.53474e-19
-1.01562e-19
2.35663e-05
-2.59544e-19
-1.03896e-19
2.41494e-05
-2.60423e-19
-1.0553e-19
2.47444e-05
-2.61777e-19
-1.07255e-19
2.53516e-05
-2.63867e-19
-1.11221e-19
2.59712e-05
-2.66476e-19
-1.14774e-19
2.66035e-05
-2.67442e-19
-1.15964e-19
2.72489e-05
-2.70768e-19
-1.165e-19
2.79075e-05
-2.76423e-19
-1.18389e-19
2.85798e-05
-2.82762e-19
-1.1563e-19
2.9266e-05
-2.857e-19
-1.20596e-19
2.99664e-05
-2.88349e-19
-1.24925e-19
3.06813e-05
-2.92091e-19
-1.25945e-19
3.14111e-05
-2.90513e-19
-1.31612e-19
3.21561e-05
-2.83519e-19
-1.31325e-19
3.29166e-05
-2.79359e-19
-1.33102e-19
3.36929e-05
-2.92647e-19
-1.28089e-19
3.44854e-05
-3.01131e-19
-1.30084e-19
3.52945e-05
-3.03479e-19
-1.35376e-19
3.61205e-05
-2.96295e-19
-1.4351e-19
3.69637e-05
-3.01545e-19
-1.45314e-19
3.78246e-05
-3.13406e-19
-1.45688e-19
3.87035e-05
-3.25846e-19
-1.45224e-19
3.96008e-05
-3.32271e-19
-1.46386e-19
4.0517e-05
-3.43045e-19
-1.44248e-19
4.14523e-05
-3.45263e-19
-1.47411e-19
4.24073e-05
-3.5486e-19
-1.54558e-19
4.33823e-05
-3.60634e-19
-1.61264e-19
4.43778e-05
-3.65479e-19
-1.65193e-19
4.53942e-05
-3.68002e-19
-1.66101e-19
4.6432e-05
-3.69184e-19
-1.68443e-19
4.74916e-05
-3.67152e-19
-1.76269e-19
4.85734e-05
-3.70681e-19
-1.82539e-19
4.9678e-05
-3.71419e-19
-1.89156e-19
5.08059e-05
-3.70218e-19
-1.80615e-19
5.19574e-05
-3.78547e-19
-1.79156e-19
5.31332e-05
-3.85647e-19
-1.82254e-19
5.43337e-05
-4.04023e-19
-1.90353e-19
5.55595e-05
-3.9885e-19
-1.84881e-19
5.68111e-05
-4.14276e-19
-1.83897e-19
5.80891e-05
-4.00024e-19
-1.87385e-19
5.93939e-05
-4.07084e-19
-1.89702e-19
6.07262e-05
-4.08426e-19
-1.91098e-19
6.20866e-05
-3.90961e-19
-1.87785e-19
6.34755e-05
-4.02755e-19
-1.85049e-19
6.48938e-05
-4.20551e-19
-1.93367e-19
6.63419e-05
-4.11094e-19
-2.08447e-19
6.78204e-05
-4.16868e-19
-2.1879e-19
6.93301e-05
-4.18983e-19
-2.21652e-19
7.08716e-05
-4.30051e-19
-2.00658e-19
7.24455e-05
-4.38722e-19
-1.99246e-19
7.40525e-05
-4.38711e-19
-2.11261e-19
7.56933e-05
-4.35257e-19
-2.08872e-19
7.73687e-05
-4.29208e-19
-2.13506e-19
7.90793e-05
-4.32462e-19
-2.17173e-19
8.08259e-05
-4.33291e-19
-2.09375e-19
8.26092e-05
-4.19934e-19
-2.1021e-19
8.443e-05
-4.24159e-19
-1.94964e-19
8.62892e-05
-4.24863e-19
-1.98974e-19
8.81874e-05
-4.22761e-19
-1.97021e-19
9.01255e-05
-4.22149e-19
-2.10352e-19
9.21043e-05
-4.40058e-19
-2.07098e-19
9.41247e-05
-4.57027e-19
-2.18513e-19
9.61876e-05
-4.69172e-19
-2.1036e-19
9.82938e-05
-4.74288e-19
-2.11e-19
0.000100444
-4.62499e-19
-2.23266e-19
0.00010264
-4.74772e-19
-2.28529e-19
0.000104881
-4.6838e-19
-2.29138e-19
0.00010717
-4.79126e-19
-2.47367e-19
0.000109507
-4.94916e-19
-2.39358e-19
0.000111893
-4.71234e-19
-2.4722e-19
0.000114328
-4.85656e-19
-2.44657e-19
0.000116815
-4.92891e-19
-2.59389e-19
0.000119354
-4.918e-19
-2.70565e-19
0.000121946
-5.14254e-19
-2.84903e-19
0.000124593
-5.12304e-19
-2.99322e-19
0.000127295
-5.04845e-19
-3.15821e-19
0.000130053
-5.50632e-19
-3.20028e-19
0.00013287
-5.5078e-19
-3.35589e-19
0.000135745
-5.49562e-19
-3.17717e-19
0.00013868
-5.2884e-19
-2.9337e-19
0.000141677
-5.2991e-19
-2.9384e-19
0.000144736
-5.47343e-19
-3.10099e-19
0.000147859
-5.41438e-19
-3.21919e-19
0.000151048
-5.30325e-19
-3.45157e-19
0.000154303
-5.44325e-19
-3.49243e-19
0.000157626
-5.52786e-19
-3.71986e-19
0.000161019
-5.73502e-19
-3.75437e-19
0.000164482
-5.39153e-19
-3.73567e-19
0.000168017
-5.54556e-19
-3.89302e-19
0.000171626
-5.4708e-19
-3.89007e-19
0.000175311
-5.45233e-19
-4.10032e-19
0.000179072
-5.48693e-19
-4.36779e-19
0.000182911
-5.64663e-19
-4.6453e-19
0.00018683
-6.04349e-19
-4.64138e-19
0.000190831
-6.38947e-19
-4.54558e-19
0.000194915
-6.55321e-19
-4.85425e-19
0.000199084
-6.53268e-19
-5.04108e-19
0.000203339
-6.44859e-19
-5.33974e-19
0.000207683
-6.29341e-19
-5.16846e-19
0.000212117
-6.14298e-19
-5.23469e-19
0.000216643
-6.32501e-19
-5.42508e-19
0.000221263
-6.72239e-19
-5.41649e-19
0.000225978
-6.72741e-19
-5.77857e-19
0.000230791
-6.75551e-19
-5.93338e-19
0.000235703
-7.07165e-19
-5.83546e-19
0.000240718
-7.30286e-19
-6.00677e-19
0.000245835
-7.52785e-19
-6.26889e-19
0.000251059
-7.2252e-19
-6.45694e-19
0.00025639
-7.20072e-19
-6.53671e-19
0.000261832
-7.19203e-19
-6.43327e-19
0.000267385
-6.70758e-19
-6.59975e-19
0.000273053
-6.18916e-19
-6.35168e-19
0.000278837
-6.75972e-19
-6.12019e-19
0.000284741
-6.1764e-19
-6.13702e-19
0.000290765
-6.51363e-19
-6.5077e-19
0.000296914
-6.83482e-19
-6.82812e-19
0.000303188
-7.24902e-19
-6.78358e-19
0.000309591
-7.08598e-19
-7.40172e-19
0.000316126
-7.48556e-19
-7.24152e-19
0.000322793
-7.75545e-19
-7.70463e-19
0.000329598
-8.23803e-19
-8.21407e-19
0.000336541
-8.50608e-19
-8.44698e-19
0.000343625
-8.56552e-19
-8.10605e-19
0.000350854
-8.49833e-19
-8.42595e-19
0.00035823
-7.79807e-19
-7.58868e-19
0.000365756
-8.17833e-19
-7.84642e-19
0.000373435
-8.35187e-19
-7.77295e-19
0.000381269
-8.41357e-19
-7.81333e-19
0.000389261
-8.58221e-19
-7.87356e-19
0.000397416
-9.05737e-19
-8.13293e-19
0.000405735
-8.90962e-19
-7.59207e-19
0.000414221
-8.69442e-19
-8.01998e-19
0.000422878
-9.06532e-19
-8.77543e-19
0.000431709
-9.92594e-19
-8.83959e-19
0.000440717
-8.90717e-19
-8.99844e-19
0.000449905
-8.98973e-19
-9.06634e-19
0.000459277
-8.70323e-19
-9.38415e-19
0.000468835
-9.14073e-19
-9.1798e-19
0.000478584
-9.88436e-19
-9.53212e-19
0.000488525
-1.08551e-18
-1.00796e-18
0.000498664
-1.03039e-18
-1.07111e-18
0.000509002
-1.04113e-18
-9.37387e-19
0.000519544
-1.06537e-18
-9.89808e-19
0.000530293
-9.60146e-19
-1.01575e-18
0.000541252
-9.96955e-19
-1.00342e-18
0.000552425
-1.00394e-18
-1.0388e-18
0.000563814
-8.74235e-19
-8.62583e-19
0.000575425
-9.43208e-19
-8.94136e-19
0.000587259
-9.26338e-19
-8.36086e-19
0.00059932
-9.63627e-19
-8.40053e-19
0.000611612
-9.20564e-19
-8.91319e-19
0.000624138
-9.69948e-19
-9.14344e-19
0.000636901
-9.92615e-19
-1.00449e-18
0.000649904
-9.12202e-19
-1.04994e-18
0.000663151
-1.04489e-18
-9.5296e-19
0.000676643
-9.29176e-19
-9.59134e-19
0.000690385
-8.58048e-19
-8.98761e-19
0.000704378
-8.90096e-19
-8.26792e-19
0.000718626
-6.89465e-19
-7.91497e-19
0.00073313
-7.66852e-19
-6.59283e-19
0.000747892
-5.6917e-19
-6.87642e-19
0.000762915
-6.21495e-19
-7.10863e-19
0.0007782
-6.68548e-19
-7.64845e-19
0.000793747
-6.95498e-19
-6.97317e-19
0.000809559
-7.70341e-19
-7.35177e-19
0.000825634
-8.2092e-19
-8.0597e-19
0.000841973
-9.28433e-19
-8.74495e-19
0.000858575
-9.08278e-19
-9.1165e-19
0.000875438
-9.31425e-19
-9.54917e-19
0.000892561
-8.81084e-19
-7.75411e-19
0.00090994
-8.92538e-19
-7.95102e-19
0.000927572
-7.48868e-19
-9.48067e-19
0.000945453
-8.18913e-19
-8.86666e-19
0.000963577
-7.68853e-19
-6.93071e-19
0.000981938
-8.38762e-19
-8.10848e-19
0.00100053
-6.25239e-19
-6.86611e-19
0.00101934
-7.64079e-19
-6.92948e-19
0.00101934
-1.00273e-18
-4.38379e-20
-7.73872e-19
1.02996e-20
0.00100053
-8.21319e-19
-2.53917e-20
-7.77064e-19
-2.78189e-20
0.000981938
-8.18632e-19
-2.22681e-20
-8.43228e-19
-3.21657e-20
0.000963577
-8.02248e-19
-3.03194e-20
-8.05767e-19
-1.29902e-21
0.000945453
-8.30013e-19
1.99548e-21
-8.35329e-19
1.20616e-20
0.000927572
-7.76824e-19
1.03262e-20
-7.87769e-19
2.94156e-20
0.00090994
-7.81473e-19
1.60847e-20
-7.25115e-19
3.93962e-20
0.000892561
-8.25303e-19
1.75612e-20
-7.2632e-19
3.4324e-20
0.000875438
-8.00009e-19
4.73374e-21
-8.35508e-19
1.68259e-20
0.000858575
-6.61762e-19
-7.49202e-21
-8.43238e-19
7.37043e-21
0.000841973
-8.44893e-19
-2.39983e-20
-7.0508e-19
5.89622e-21
0.000825634
-9.04918e-19
-1.84299e-20
-6.95499e-19
1.17779e-21
0.000809559
-8.36997e-19
-3.78281e-21
-7.16012e-19
4.26379e-21
0.000793747
-6.32644e-19
2.24323e-21
-6.87977e-19
1.19262e-20
0.0007782
-6.99391e-19
-1.10512e-20
-6.88298e-19
8.37817e-21
0.000762915
-6.8144e-19
-5.12544e-21
-6.69799e-19
3.50374e-21
0.000747892
-5.76013e-19
-2.55019e-21
-6.03774e-19
5.75045e-21
0.00073313
-5.25545e-19
-9.64399e-21
-6.76558e-19
9.85918e-21
0.000718625
-5.43176e-19
-1.26546e-20
-5.54697e-19
1.54713e-20
0.000704378
-6.19611e-19
-1.13972e-20
-5.1374e-19
1.33245e-20
0.000690385
-6.23848e-19
-1.21016e-20
-5.38077e-19
5.68617e-21
0.000676643
-4.47055e-19
-8.99827e-21
-4.58355e-19
8.99549e-22
0.000663151
-3.93648e-19
-1.84826e-21
-3.44062e-19
-1.27084e-20
0.000649904
-3.57902e-19
-5.21363e-22
-3.13395e-19
-1.40819e-20
0.000636901
-4.73181e-19
-5.7527e-21
-3.21983e-19
-1.84361e-20
0.000624138
-2.2277e-19
-8.05883e-21
-4.16233e-19
-1.40528e-20
0.000611612
-2.32993e-19
-1.7749e-20
-4.05134e-19
-6.4206e-21
0.00059932
-3.31592e-19
-2.19562e-20
-4.11529e-19
1.12648e-21
0.000587259
-4.09861e-19
-1.28278e-20
-4.33674e-19
-1.65223e-21
0.000575425
-4.42382e-19
-5.10623e-21
-4.59541e-19
-3.32497e-21
0.000563814
-3.96594e-19
-4.93787e-21
-4.38817e-19
-3.53881e-21
0.000552425
-3.55644e-19
-2.50214e-21
-4.05237e-19
-2.50531e-21
0.000541252
-3.38768e-19
-3.63285e-21
-4.01031e-19
-3.11771e-21
0.000530293
-4.10321e-19
-8.93977e-21
-3.72658e-19
-5.19981e-21
0.000519544
-4.08285e-19
-5.54755e-21
-3.90936e-19
-8.49254e-21
0.000509002
-4.29607e-19
-5.44262e-21
-4.24727e-19
-6.69563e-21
0.000498664
-4.23683e-19
-5.24917e-21
-4.01926e-19
-4.42622e-21
0.000488525
-3.86091e-19
5.46826e-22
-3.89508e-19
-2.57391e-21
0.000478584
-4.24434e-19
1.42384e-21
-3.90533e-19
-3.78385e-21
0.000468835
-3.02069e-19
2.13538e-21
-3.80232e-19
-4.25184e-21
0.000459277
-2.70649e-19
-5.41167e-23
-3.94888e-19
-4.83447e-21
0.000449905
-3.77454e-19
-3.90806e-21
-3.4252e-19
-1.0647e-21
0.000440717
-2.89762e-19
-4.72098e-21
-3.29196e-19
4.86833e-22
0.000431709
-2.98875e-19
-6.92527e-21
-3.02637e-19
3.29491e-21
0.000422878
-2.88882e-19
-4.19767e-21
-3.03802e-19
3.99219e-21
0.000414221
-2.9514e-19
-2.45132e-21
-3.23301e-19
4.13959e-21
0.000405735
-1.77822e-19
-2.23042e-21
-3.38847e-19
3.9942e-21
0.000397416
-2.85959e-19
-5.16534e-21
-2.4833e-19
6.2996e-21
0.000389261
-2.36476e-19
-4.62501e-21
-3.16658e-19
4.6003e-21
0.000381269
-2.44946e-19
-6.1892e-21
-3.12137e-19
3.27647e-21
0.000373435
-1.92282e-19
-6.4352e-21
-3.30849e-19
2.0126e-21
0.000365756
-2.59735e-19
-7.27097e-21
-2.2743e-19
6.00103e-22
0.00035823
-3.13203e-19
-6.14819e-21
-2.27094e-19
-3.68961e-22
0.000350854
-2.3033e-19
-4.30774e-21
-2.42757e-19
-6.39184e-22
0.000343625
-2.01139e-19
-4.30321e-21
-2.12102e-19
-1.37946e-21
0.000336541
-2.4036e-19
-4.26078e-21
-2.16297e-19
-2.20122e-21
0.000329598
-1.72803e-19
-2.65847e-21
-1.83963e-19
-2.12275e-21
0.000322794
-1.50549e-19
-2.62856e-21
-1.38037e-19
-1.10956e-21
0.000316126
-1.31497e-19
-2.73008e-21
-9.40954e-20
-1.5717e-22
0.000309591
-2.11696e-19
-2.14772e-21
-1.40579e-19
-8.733e-22
0.000303188
-2.0351e-19
-6.59808e-22
-1.07615e-19
-7.17234e-22