/*--------------------------------*- C++ -*----------------------------------*\
| =========                 |                                                 |
| \\      /  F ield         | OpenFOAM: The Open Source CFD Toolbox           |
|  \\    /   O peration     | Version:  2106                                  |
|   \\  /    A nd           | Website:  www.openfoam.com                      |
|    \\/     M anipulation  |                                                 |
\*---------------------------------------------------------------------------*/
FoamFile
{
    version     2.0;
    format      ascii;
    arch        "LSB;label=32;scalar=64";
    class       volSymmTensorField;
    location    "10020";
    object      turbulenceProperties:R;
}
// * * * * * * * * * * * * * * * * * * * * * * * * * * * * * * * * * * * * * //

dimensions      [0 2 -2 0 0 0 0];

internalField   nonuniform List<symmTensor> 
2000
(
(7.04657e-07 -1.73944e-10 -3.21937e-13 7.04657e-07 1.25433e-24 7.04657e-07)
(7.04657e-07 -1.73944e-10 -3.21937e-13 7.04657e-07 7.4083e-29 7.04657e-07)
(1.47882e-07 -2.10286e-10 -1.17494e-12 1.47882e-07 1.91129e-25 1.47882e-07)
(1.47882e-07 -2.10286e-10 -1.17494e-12 1.47882e-07 -1.19196e-29 1.47882e-07)
(3.54917e-07 -1.49425e-09 -1.15841e-11 3.54917e-07 7.92371e-25 3.54917e-07)
(3.54917e-07 -1.49425e-09 -1.15841e-11 3.54917e-07 -3.64205e-28 3.54917e-07)
(1.21687e-06 -1.09072e-08 -8.61352e-11 1.21687e-06 5.61807e-24 1.21687e-06)
(1.21687e-06 -1.09072e-08 -8.61352e-11 1.21687e-06 2.41674e-27 1.21687e-06)
(3.18233e-06 -5.05188e-08 -4.06394e-10 3.18233e-06 2.22548e-23 3.18233e-06)
(3.18233e-06 -5.05188e-08 -4.06394e-10 3.18233e-06 3.22634e-26 3.18233e-06)
(6.84885e-06 -1.71787e-07 -1.40768e-09 6.84885e-06 7.24977e-23 6.84885e-06)
(6.84885e-06 -1.71787e-07 -1.40768e-09 6.84885e-06 1.83966e-25 6.84885e-06)
(1.29311e-05 -4.74544e-07 -3.96095e-09 1.29311e-05 2.02284e-22 1.29311e-05)
(1.29311e-05 -4.74544e-07 -3.96095e-09 1.29311e-05 6.60618e-25 1.29311e-05)
(2.22572e-05 -1.1308e-06 -9.6138e-09 2.22572e-05 4.89714e-22 2.22572e-05)
(2.22572e-05 -1.1308e-06 -9.6138e-09 2.22572e-05 1.88687e-24 2.22572e-05)
(3.57672e-05 -2.41266e-06 -2.08913e-08 3.57672e-05 1.05276e-21 3.57672e-05)
(3.57672e-05 -2.41266e-06 -2.08913e-08 3.57672e-05 5.24341e-24 3.57672e-05)
(5.45076e-05 -4.72252e-06 -4.16446e-08 5.45076e-05 2.06676e-21 5.45076e-05)
(5.45076e-05 -4.72252e-06 -4.16446e-08 5.45076e-05 1.25787e-23 5.45076e-05)
(7.96187e-05 -8.62138e-06 -7.74139e-08 7.96187e-05 3.75846e-21 7.96187e-05)
(7.96187e-05 -8.62138e-06 -7.74139e-08 7.96187e-05 2.59879e-23 7.96187e-05)
(0.000112309 -1.48491e-05 -1.35745e-07 0.000112309 6.3856e-21 0.000112309)
(0.000112309 -1.48491e-05 -1.35745e-07 0.000112309 5.02073e-23 0.000112309)
(0.000153818 -2.43273e-05 -2.26363e-07 0.000153818 1.01823e-20 0.000153818)
(0.000153818 -2.43273e-05 -2.26363e-07 0.000153818 9.02456e-23 0.000153818)
(0.000205353 -3.81352e-05 -3.61092e-07 0.000205353 1.52599e-20 0.000205353)
(0.000205353 -3.81352e-05 -3.61092e-07 0.000205353 1.60499e-22 0.000205353)
(0.000268016 -5.74479e-05 -5.53386e-07 0.000268016 2.14857e-20 0.000268016)
(0.000268016 -5.74479e-05 -5.53386e-07 0.000268016 2.8763e-22 0.000268016)
(0.000342709 -8.34357e-05 -8.17426e-07 0.000342709 2.83313e-20 0.000342709)
(0.000342709 -8.34357e-05 -8.17426e-07 0.000342709 4.714e-22 0.000342709)
(0.000430032 -0.000117129 -1.16679e-06 0.000430032 3.47704e-20 0.000430032)
(0.000430032 -0.000117129 -1.16679e-06 0.000430032 6.89033e-22 0.000430032)
(0.000530192 -0.00015927 -1.61286e-06 0.000530192 3.93417e-20 0.000530192)
(0.000530192 -0.00015927 -1.61286e-06 0.000530192 1.02842e-21 0.000530192)
(0.000642928 -0.000210179 -2.16335e-06 0.000642928 4.02207e-20 0.000642928)
(0.000642928 -0.000210179 -2.16335e-06 0.000642928 1.5869e-21 0.000642928)
(0.000767485 -0.000269671 -2.82109e-06 0.000767485 3.5593e-20 0.000767485)
(0.000767485 -0.000269671 -2.82109e-06 0.000767485 2.24488e-21 0.000767485)
(0.000902636 -0.000337044 -3.58368e-06 0.000902636 2.40917e-20 0.000902636)
(0.000902636 -0.000337044 -3.58368e-06 0.000902636 2.88027e-21 0.000902636)
(0.00104675 -0.000411145 -4.44372e-06 0.00104675 1.83818e-21 0.00104675)
(0.00104675 -0.000411145 -4.44372e-06 0.00104675 3.82946e-21 0.00104675)
(0.00119793 -0.000490498 -5.38988e-06 0.00119793 -2.00216e-20 0.00119793)
(0.00119793 -0.000490498 -5.38988e-06 0.00119793 5.20777e-21 0.00119793)
(0.0013541 -0.000573465 -6.40829e-06 0.0013541 -5.49064e-20 0.0013541)
(0.0013541 -0.000573465 -6.40829e-06 0.0013541 6.68706e-21 0.0013541)
(0.00151318 -0.000658399 -7.48398e-06 0.00151318 -9.27118e-20 0.00151318)
(0.00151318 -0.000658399 -7.48398e-06 0.00151318 8.58673e-21 0.00151318)
(0.00167322 -0.000743774 -8.60225e-06 0.00167322 -1.33041e-19 0.00167322)
(0.00167322 -0.000743774 -8.60225e-06 0.00167322 1.09231e-20 0.00167322)
(0.00183242 -0.000828274 -9.74963e-06 0.00183242 -1.73885e-19 0.00183242)
(0.00183242 -0.000828274 -9.74963e-06 0.00183242 1.34767e-20 0.00183242)
(0.00198928 -0.000910829 -1.09144e-05 0.00198928 -2.133e-19 0.00198928)
(0.00198928 -0.000910829 -1.09144e-05 0.00198928 1.66871e-20 0.00198928)
(0.00214253 -0.00099063 -1.20871e-05 0.00214253 -2.49108e-19 0.00214253)
(0.00214253 -0.00099063 -1.20871e-05 0.00214253 2.06578e-20 0.00214253)
(0.0022912 -0.0010671 -1.326e-05 0.0022912 -2.80536e-19 0.0022912)
(0.0022912 -0.0010671 -1.326e-05 0.0022912 2.45528e-20 0.0022912)
(0.00243456 -0.00113988 -1.44275e-05 0.00243456 -3.07209e-19 0.00243456)
(0.00243456 -0.00113988 -1.44275e-05 0.00243456 2.8788e-20 0.00243456)
(0.00257211 -0.00120877 -1.55858e-05 0.00257211 -3.28421e-19 0.00257211)
(0.00257211 -0.00120877 -1.55858e-05 0.00257211 3.38707e-20 0.00257211)
(0.00270355 -0.00127371 -1.67321e-05 0.00270355 -3.43519e-19 0.00270355)
(0.00270355 -0.00127371 -1.67321e-05 0.00270355 3.92195e-20 0.00270355)
(0.00282873 -0.00133472 -1.78651e-05 0.00282873 -3.52578e-19 0.00282873)
(0.00282873 -0.00133472 -1.78651e-05 0.00282873 4.5702e-20 0.00282873)
(0.00294763 -0.00139192 -1.89841e-05 0.00294763 -3.56355e-19 0.00294763)
(0.00294763 -0.00139192 -1.89841e-05 0.00294763 5.31186e-20 0.00294763)
(0.00306032 -0.00144545 -2.00892e-05 0.00306032 -3.5627e-19 0.00306032)
(0.00306032 -0.00144545 -2.00892e-05 0.00306032 6.10548e-20 0.00306032)
(0.00316695 -0.0014955 -2.11807e-05 0.00316695 -3.51432e-19 0.00316695)
(0.00316695 -0.0014955 -2.11807e-05 0.00316695 6.86254e-20 0.00316695)
(0.00326772 -0.00154225 -2.22597e-05 0.00326772 -3.40706e-19 0.00326772)
(0.00326772 -0.00154225 -2.22597e-05 0.00326772 7.822e-20 0.00326772)
(0.00336286 -0.00158593 -2.33271e-05 0.00336286 -3.24659e-19 0.00336286)
(0.00336286 -0.00158593 -2.33271e-05 0.00336286 9.02199e-20 0.00336286)
(0.00345263 -0.00162672 -2.43842e-05 0.00345263 -3.05436e-19 0.00345263)
(0.00345263 -0.00162672 -2.43842e-05 0.00345263 9.63777e-20 0.00345263)
(0.0035373 -0.00166483 -2.54322e-05 0.0035373 -2.83569e-19 0.0035373)
(0.0035373 -0.00166483 -2.54322e-05 0.0035373 1.00762e-19 0.0035373)
(0.00361714 -0.00170044 -2.64726e-05 0.00361714 -2.58897e-19 0.00361714)
(0.00361714 -0.00170044 -2.64726e-05 0.00361714 1.15706e-19 0.00361714)
(0.00369242 -0.00173375 -2.75067e-05 0.00369242 -2.30087e-19 0.00369242)
(0.00369242 -0.00173375 -2.75067e-05 0.00369242 1.3281e-19 0.00369242)
(0.0037634 -0.0017649 -2.85357e-05 0.0037634 -1.98028e-19 0.0037634)
(0.0037634 -0.0017649 -2.85357e-05 0.0037634 1.44144e-19 0.0037634)
(0.00383034 -0.00179408 -2.95611e-05 0.00383034 -1.62689e-19 0.00383034)
(0.00383034 -0.00179408 -2.95611e-05 0.00383034 1.54998e-19 0.00383034)
(0.00389349 -0.00182141 -3.0584e-05 0.00389349 -1.23551e-19 0.00389349)
(0.00389349 -0.00182141 -3.0584e-05 0.00389349 1.67967e-19 0.00389349)
(0.00395308 -0.00184704 -3.16058e-05 0.00395308 -8.5899e-20 0.00395308)
(0.00395308 -0.00184704 -3.16058e-05 0.00395308 1.77564e-19 0.00395308)
(0.00400932 -0.00187109 -3.26275e-05 0.00400932 -4.64537e-20 0.00400932)
(0.00400932 -0.00187109 -3.26275e-05 0.00400932 1.90848e-19 0.00400932)
(0.00406244 -0.00189368 -3.36502e-05 0.00406244 -1.47712e-21 0.00406244)
(0.00406244 -0.00189368 -3.36502e-05 0.00406244 2.11688e-19 0.00406244)
(0.00411261 -0.00191491 -3.46751e-05 0.00411261 4.79163e-20 0.00411261)
(0.00411261 -0.00191491 -3.46751e-05 0.00411261 2.32719e-19 0.00411261)
(0.00416003 -0.00193487 -3.57031e-05 0.00416003 9.65615e-20 0.00416003)
(0.00416003 -0.00193487 -3.57031e-05 0.00416003 2.51801e-19 0.00416003)
(0.00420487 -0.00195367 -3.67352e-05 0.00420487 1.42176e-19 0.00420487)
(0.00420487 -0.00195367 -3.67352e-05 0.00420487 2.76592e-19 0.00420487)
(0.00424728 -0.00197137 -3.77724e-05 0.00424728 1.90622e-19 0.00424728)
(0.00424728 -0.00197137 -3.77724e-05 0.00424728 2.95486e-19 0.00424728)
(0.00428741 -0.00198806 -3.88154e-05 0.00428741 2.39736e-19 0.00428741)
(0.00428741 -0.00198806 -3.88154e-05 0.00428741 3.15883e-19 0.00428741)
(0.00432541 -0.0020038 -3.98652e-05 0.00432541 2.91279e-19 0.00432541)
(0.00432541 -0.0020038 -3.98652e-05 0.00432541 3.42343e-19 0.00432541)
(0.0043614 -0.00201866 -4.09225e-05 0.0043614 3.41383e-19 0.0043614)
(0.0043614 -0.00201866 -4.09225e-05 0.0043614 3.68204e-19 0.0043614)
(0.0043955 -0.0020327 -4.19881e-05 0.0043955 3.82969e-19 0.0043955)
(0.0043955 -0.0020327 -4.19881e-05 0.0043955 3.90232e-19 0.0043955)
(0.00442782 -0.00204596 -4.30626e-05 0.00442782 4.31548e-19 0.00442782)
(0.00442782 -0.00204596 -4.30626e-05 0.00442782 4.15481e-19 0.00442782)
(0.00445846 -0.0020585 -4.4147e-05 0.00445846 4.83406e-19 0.00445846)
(0.00445846 -0.0020585 -4.4147e-05 0.00445846 4.50068e-19 0.00445846)
(0.00448753 -0.00207036 -4.52417e-05 0.00448753 5.3752e-19 0.00448753)
(0.00448753 -0.00207036 -4.52417e-05 0.00448753 4.85138e-19 0.00448753)
(0.0045151 -0.00208158 -4.63475e-05 0.0045151 6.06159e-19 0.0045151)
(0.0045151 -0.00208158 -4.63475e-05 0.0045151 5.22286e-19 0.0045151)
(0.00454127 -0.00209221 -4.74649e-05 0.00454127 6.54393e-19 0.00454127)
(0.00454127 -0.00209221 -4.74649e-05 0.00454127 5.55594e-19 0.00454127)
(0.00456611 -0.00210227 -4.85946e-05 0.00456611 6.95723e-19 0.00456611)
(0.00456611 -0.00210227 -4.85946e-05 0.00456611 5.79296e-19 0.00456611)
(0.00458969 -0.00211181 -4.97372e-05 0.00458969 7.57291e-19 0.00458969)
(0.00458969 -0.00211181 -4.97372e-05 0.00458969 6.02492e-19 0.00458969)
(0.00461208 -0.00212084 -5.08933e-05 0.00461208 8.13258e-19 0.00461208)
(0.00461208 -0.00212084 -5.08933e-05 0.00461208 6.33161e-19 0.00461208)
(0.00463334 -0.0021294 -5.20634e-05 0.00463334 8.7765e-19 0.00463334)
(0.00463334 -0.0021294 -5.20634e-05 0.00463334 6.58154e-19 0.00463334)
(0.00465353 -0.00213752 -5.3248e-05 0.00465353 9.42025e-19 0.00465353)
(0.00465353 -0.00213752 -5.3248e-05 0.00465353 6.89249e-19 0.00465353)
(0.00467271 -0.00214521 -5.44478e-05 0.00467271 1.00514e-18 0.00467271)
(0.00467271 -0.00214521 -5.44478e-05 0.00467271 7.25735e-19 0.00467271)
(0.00469092 -0.00215251 -5.56631e-05 0.00469092 1.06678e-18 0.00469092)
(0.00469092 -0.00215251 -5.56631e-05 0.00469092 7.76608e-19 0.00469092)
(0.00470821 -0.00215942 -5.68946e-05 0.00470821 1.13359e-18 0.00470821)
(0.00470821 -0.00215942 -5.68946e-05 0.00470821 8.06792e-19 0.00470821)
(0.00472462 -0.00216598 -5.81427e-05 0.00472462 1.20433e-18 0.00472462)
(0.00472462 -0.00216598 -5.81427e-05 0.00472462 8.59203e-19 0.00472462)
(0.0047402 -0.00217219 -5.94079e-05 0.0047402 1.27833e-18 0.0047402)
(0.0047402 -0.00217219 -5.94079e-05 0.0047402 8.91503e-19 0.0047402)
(0.00475499 -0.00217807 -6.06908e-05 0.00475499 1.34726e-18 0.00475499)
(0.00475499 -0.00217807 -6.06908e-05 0.00475499 9.12236e-19 0.00475499)
(0.00476901 -0.00218365 -6.19917e-05 0.00476901 1.42833e-18 0.00476901)
(0.00476901 -0.00218365 -6.19917e-05 0.00476901 9.81133e-19 0.00476901)
(0.00478231 -0.00218893 -6.33112e-05 0.00478231 1.51828e-18 0.00478231)
(0.00478231 -0.00218893 -6.33112e-05 0.00478231 1.04406e-18 0.00478231)
(0.00479491 -0.00219392 -6.46497e-05 0.00479491 1.57637e-18 0.00479491)
(0.00479491 -0.00219392 -6.46497e-05 0.00479491 1.10597e-18 0.00479491)
(0.00480684 -0.00219864 -6.60077e-05 0.00480684 1.66873e-18 0.00480684)
(0.00480684 -0.00219864 -6.60077e-05 0.00480684 1.16133e-18 0.00480684)
(0.00481813 -0.0022031 -6.73857e-05 0.00481813 1.72736e-18 0.00481813)
(0.00481813 -0.0022031 -6.73857e-05 0.00481813 1.2384e-18 0.00481813)
(0.00482881 -0.00220731 -6.87841e-05 0.00482881 1.75602e-18 0.00482881)
(0.00482881 -0.00220731 -6.87841e-05 0.00482881 1.33062e-18 0.00482881)
(0.0048389 -0.00221128 -7.02033e-05 0.0048389 1.81886e-18 0.0048389)
(0.0048389 -0.00221128 -7.02033e-05 0.0048389 1.41217e-18 0.0048389)
(0.00484842 -0.00221502 -7.16439e-05 0.00484842 1.85817e-18 0.00484842)
(0.00484842 -0.00221502 -7.16439e-05 0.00484842 1.46239e-18 0.00484842)
(0.0048574 -0.00221854 -7.31063e-05 0.0048574 1.89621e-18 0.0048574)
(0.0048574 -0.00221854 -7.31063e-05 0.0048574 1.4509e-18 0.0048574)
(0.00486585 -0.00222185 -7.45908e-05 0.00486585 1.96052e-18 0.00486585)
(0.00486585 -0.00222185 -7.45908e-05 0.00486585 1.50014e-18 0.00486585)
(0.00487378 -0.00222495 -7.6098e-05 0.00487378 2.03138e-18 0.00487378)
(0.00487378 -0.00222495 -7.6098e-05 0.00487378 1.60603e-18 0.00487378)
(0.00488123 -0.00222785 -7.76284e-05 0.00488123 2.11496e-18 0.00488123)
(0.00488123 -0.00222785 -7.76284e-05 0.00488123 1.80913e-18 0.00488123)
(0.0048882 -0.00223056 -7.91822e-05 0.0048882 2.23852e-18 0.0048882)
(0.0048882 -0.00223056 -7.91822e-05 0.0048882 1.84965e-18 0.0048882)
(0.00489471 -0.00223308 -8.076e-05 0.00489471 2.27738e-18 0.00489471)
(0.00489471 -0.00223308 -8.076e-05 0.00489471 1.98714e-18 0.00489471)
(0.00490077 -0.00223542 -8.23623e-05 0.00490077 2.26773e-18 0.00490077)
(0.00490077 -0.00223542 -8.23623e-05 0.00490077 2.07812e-18 0.00490077)
(0.00490641 -0.00223758 -8.39894e-05 0.00490641 2.35326e-18 0.00490641)
(0.00490641 -0.00223758 -8.39894e-05 0.00490641 2.06383e-18 0.00490641)
(0.00491162 -0.00223958 -8.56418e-05 0.00491162 2.41364e-18 0.00491162)
(0.00491162 -0.00223958 -8.56418e-05 0.00491162 2.13293e-18 0.00491162)
(0.00491642 -0.0022414 -8.73199e-05 0.00491642 2.44525e-18 0.00491642)
(0.00491642 -0.0022414 -8.73199e-05 0.00491642 2.2233e-18 0.00491642)
(0.00492082 -0.00224307 -8.90241e-05 0.00492082 2.52199e-18 0.00492082)
(0.00492082 -0.00224307 -8.90241e-05 0.00492082 2.29796e-18 0.00492082)
(0.00492484 -0.00224457 -9.0755e-05 0.00492484 2.62276e-18 0.00492484)
(0.00492484 -0.00224457 -9.0755e-05 0.00492484 2.38415e-18 0.00492484)
(0.00492848 -0.00224593 -9.25129e-05 0.00492848 2.70035e-18 0.00492848)
(0.00492848 -0.00224593 -9.25129e-05 0.00492848 2.48602e-18 0.00492848)
(0.00493174 -0.00224713 -9.42982e-05 0.00493174 2.81785e-18 0.00493174)
(0.00493174 -0.00224713 -9.42982e-05 0.00493174 2.61301e-18 0.00493174)
(0.00493465 -0.00224818 -9.61114e-05 0.00493465 2.94892e-18 0.00493465)
(0.00493465 -0.00224818 -9.61114e-05 0.00493465 2.62842e-18 0.00493465)
(0.00493721 -0.00224909 -9.79529e-05 0.00493721 3.08262e-18 0.00493721)
(0.00493721 -0.00224909 -9.79529e-05 0.00493721 2.77682e-18 0.00493721)
(0.00493942 -0.00224986 -9.98232e-05 0.00493942 3.15608e-18 0.00493942)
(0.00493942 -0.00224986 -9.98232e-05 0.00493942 2.92152e-18 0.00493942)
(0.00494129 -0.00225048 -0.000101723 0.00494129 3.27789e-18 0.00494129)
(0.00494129 -0.00225048 -0.000101723 0.00494129 3.06197e-18 0.00494129)
(0.00494283 -0.00225097 -0.000103652 0.00494283 3.36854e-18 0.00494283)
(0.00494283 -0.00225097 -0.000103652 0.00494283 3.2556e-18 0.00494283)
(0.00494404 -0.00225133 -0.000105611 0.00494404 3.45431e-18 0.00494404)
(0.00494404 -0.00225133 -0.000105611 0.00494404 3.31188e-18 0.00494404)
(0.00494493 -0.00225155 -0.0001076 0.00494493 3.57391e-18 0.00494493)
(0.00494493 -0.00225155 -0.0001076 0.00494493 3.32114e-18 0.00494493)
(0.0049455 -0.00225164 -0.000109621 0.0049455 3.60643e-18 0.0049455)
(0.0049455 -0.00225164 -0.000109621 0.0049455 3.56496e-18 0.0049455)
(0.00494577 -0.00225159 -0.000111672 0.00494577 3.76542e-18 0.00494577)
(0.00494577 -0.00225159 -0.000111672 0.00494577 3.77759e-18 0.00494577)
(0.00494573 -0.00225143 -0.000113756 0.00494573 3.84602e-18 0.00494573)
(0.00494573 -0.00225143 -0.000113756 0.00494573 3.95963e-18 0.00494573)
(0.00494538 -0.00225113 -0.000115871 0.00494538 3.91976e-18 0.00494538)
(0.00494538 -0.00225113 -0.000115871 0.00494538 4.17214e-18 0.00494538)
(0.00494474 -0.0022507 -0.000118019 0.00494474 4.08013e-18 0.00494474)
(0.00494474 -0.0022507 -0.000118019 0.00494474 4.26368e-18 0.00494474)
(0.00494379 -0.00225016 -0.0001202 0.00494379 4.20236e-18 0.00494379)
(0.00494379 -0.00225016 -0.0001202 0.00494379 4.46261e-18 0.00494379)
(0.00494256 -0.00224948 -0.000122414 0.00494256 4.40067e-18 0.00494256)
(0.00494256 -0.00224948 -0.000122414 0.00494256 4.73489e-18 0.00494256)
(0.00494104 -0.00224869 -0.000124662 0.00494104 3.28096e-18 0.00494104)
(0.00494104 -0.00224869 -0.000124662 0.00494104 4.94031e-18 0.00494104)
(0.00493923 -0.00224777 -0.000126944 0.00493923 4.64947e-19 0.00493923)
(0.00493923 -0.00224777 -0.000126944 0.00493923 5.12157e-18 0.00493923)
(0.00493714 -0.00224673 -0.000129261 0.00493714 -4.62485e-18 0.00493714)
(0.00493714 -0.00224673 -0.000129261 0.00493714 5.38595e-18 0.00493714)
(0.00493476 -0.00224556 -0.000131613 0.00493476 -4.92541e-18 0.00493476)
(0.00493476 -0.00224556 -0.000131613 0.00493476 5.58484e-18 0.00493476)
(0.0049321 -0.00224428 -0.000134 0.0049321 -5.51945e-18 0.0049321)
(0.0049321 -0.00224428 -0.000134 0.0049321 5.73177e-18 0.0049321)
(0.00492917 -0.00224287 -0.000136422 0.00492917 -6.36012e-18 0.00492917)
(0.00492917 -0.00224287 -0.000136422 0.00492917 6.16943e-18 0.00492917)
(0.00492595 -0.00224135 -0.000138881 0.00492595 -6.17862e-18 0.00492595)
(0.00492595 -0.00224135 -0.000138881 0.00492595 6.53337e-18 0.00492595)
(0.00492246 -0.0022397 -0.000141376 0.00492246 -5.75784e-18 0.00492246)
(0.00492246 -0.0022397 -0.000141376 0.00492246 6.60385e-18 0.00492246)
(0.0049187 -0.00223793 -0.000143908 0.0049187 -5.38909e-18 0.0049187)
(0.0049187 -0.00223793 -0.000143908 0.0049187 6.86217e-18 0.0049187)
(0.00491465 -0.00223604 -0.000146477 0.00491465 -5.44086e-18 0.00491465)
(0.00491465 -0.00223604 -0.000146477 0.00491465 7.11548e-18 0.00491465)
(0.00491034 -0.00223403 -0.000149083 0.00491034 -6.18706e-18 0.00491034)
(0.00491034 -0.00223403 -0.000149083 0.00491034 7.29478e-18 0.00491034)
(0.00490575 -0.00223189 -0.000151728 0.00490575 -3.34919e-18 0.00490575)
(0.00490575 -0.00223189 -0.000151728 0.00490575 7.34466e-18 0.00490575)
(0.00490089 -0.00222964 -0.00015441 0.00490089 -2.83943e-19 0.00490089)
(0.00490089 -0.00222964 -0.00015441 0.00490089 7.43123e-18 0.00490089)
(0.00489575 -0.00222726 -0.000157131 0.00489575 -1.06447e-18 0.00489575)
(0.00489575 -0.00222726 -0.000157131 0.00489575 7.77096e-18 0.00489575)
(0.00489035 -0.00222476 -0.000159891 0.00489035 -1.79379e-18 0.00489035)
(0.00489035 -0.00222476 -0.000159891 0.00489035 8.27575e-18 0.00489035)
(0.00488467 -0.00222214 -0.000162689 0.00488467 -1.79864e-18 0.00488467)
(0.00488467 -0.00222214 -0.000162689 0.00488467 8.72607e-18 0.00488467)
(0.00487871 -0.00221939 -0.000165527 0.00487871 -1.54033e-18 0.00487871)
(0.00487871 -0.00221939 -0.000165527 0.00487871 9.06719e-18 0.00487871)
(0.00487248 -0.00221651 -0.000168405 0.00487248 -1.23855e-18 0.00487248)
(0.00487248 -0.00221651 -0.000168405 0.00487248 9.36013e-18 0.00487248)
(0.00486598 -0.00221351 -0.000171322 0.00486598 -1.29855e-18 0.00486598)
(0.00486598 -0.00221351 -0.000171322 0.00486598 9.42494e-18 0.00486598)
(0.0048592 -0.00221039 -0.00017428 0.0048592 -2.1166e-18 0.0048592)
(0.0048592 -0.00221039 -0.00017428 0.0048592 1.00053e-17 0.0048592)
(0.00485215 -0.00220713 -0.000177277 0.00485215 -1.92708e-18 0.00485215)
(0.00485215 -0.00220713 -0.000177277 0.00485215 1.0426e-17 0.00485215)
(0.00484481 -0.00220375 -0.000180315 0.00484481 -1.24147e-18 0.00484481)
(0.00484481 -0.00220375 -0.000180315 0.00484481 1.0547e-17 0.00484481)
(0.0048372 -0.00220024 -0.000183394 0.0048372 -8.99028e-19 0.0048372)
(0.0048372 -0.00220024 -0.000183394 0.0048372 1.07169e-17 0.0048372)
(0.00482931 -0.0021966 -0.000186514 0.00482931 -6.44886e-19 0.00482931)
(0.00482931 -0.0021966 -0.000186514 0.00482931 1.11192e-17 0.00482931)
(0.00482114 -0.00219283 -0.000189675 0.00482114 -3.00703e-19 0.00482114)
(0.00482114 -0.00219283 -0.000189675 0.00482114 1.15549e-17 0.00482114)
(0.00481269 -0.00218892 -0.000192876 0.00481269 -3.75125e-19 0.00481269)
(0.00481269 -0.00218892 -0.000192876 0.00481269 1.167e-17 0.00481269)
(0.00480395 -0.00218488 -0.000196119 0.00480395 -1.00065e-18 0.00480395)
(0.00480395 -0.00218488 -0.000196119 0.00480395 1.19774e-17 0.00480395)
(0.00479492 -0.0021807 -0.000199404 0.00479492 -8.70243e-19 0.00479492)
(0.00479492 -0.0021807 -0.000199404 0.00479492 1.28221e-17 0.00479492)
(0.00478561 -0.00217639 -0.000202729 0.00478561 -7.57739e-19 0.00478561)
(0.00478561 -0.00217639 -0.000202729 0.00478561 1.35e-17 0.00478561)
(0.00477601 -0.00217193 -0.000206096 0.00477601 -5.38019e-19 0.00477601)
(0.00477601 -0.00217193 -0.000206096 0.00477601 1.35102e-17 0.00477601)
(0.00476611 -0.00216734 -0.000209504 0.00476611 -9.52753e-19 0.00476611)
(0.00476611 -0.00216734 -0.000209504 0.00476611 1.27567e-17 0.00476611)
(0.00475593 -0.00216261 -0.000212953 0.00475593 -1.22784e-18 0.00475593)
(0.00475593 -0.00216261 -0.000212953 0.00475593 1.46368e-17 0.00475593)
(0.00474544 -0.00215773 -0.000216444 0.00474544 7.16965e-20 0.00474544)
(0.00474544 -0.00215773 -0.000216444 0.00474544 1.66684e-17 0.00474544)
(0.00473466 -0.00215271 -0.000219976 0.00473466 5.37051e-19 0.00473466)
(0.00473466 -0.00215271 -0.000219976 0.00473466 1.75576e-17 0.00473466)
(0.00472358 -0.00214754 -0.000223548 0.00472358 -6.90908e-19 0.00472358)
(0.00472358 -0.00214754 -0.000223548 0.00472358 1.81144e-17 0.00472358)
(0.00471219 -0.00214222 -0.000227162 0.00471219 -1.66857e-19 0.00471219)
(0.00471219 -0.00214222 -0.000227162 0.00471219 1.84378e-17 0.00471219)
(0.0047005 -0.00213675 -0.000230816 0.0047005 3.39693e-19 0.0047005)
(0.0047005 -0.00213675 -0.000230816 0.0047005 1.88272e-17 0.0047005)
(0.0046885 -0.00213113 -0.00023451 0.0046885 -8.00539e-19 0.0046885)
(0.0046885 -0.00213113 -0.00023451 0.0046885 2.00364e-17 0.0046885)
(0.00467618 -0.00212536 -0.000238244 0.00467618 -1.61738e-18 0.00467618)
(0.00467618 -0.00212536 -0.000238244 0.00467618 2.15995e-17 0.00467618)
(0.00466355 -0.00211943 -0.000242018 0.00466355 -1.30437e-18 0.00466355)
(0.00466355 -0.00211943 -0.000242018 0.00466355 2.23045e-17 0.00466355)
(0.00465061 -0.00211334 -0.000245831 0.00465061 -1.01835e-18 0.00465061)
(0.00465061 -0.00211334 -0.000245831 0.00465061 2.23363e-17 0.00465061)
(0.00463734 -0.00210709 -0.000249683 0.00463734 -2.5332e-18 0.00463734)
(0.00463734 -0.00210709 -0.000249683 0.00463734 2.25208e-17 0.00463734)
(0.00462375 -0.00210068 -0.000253573 0.00462375 -1.84312e-18 0.00462375)
(0.00462375 -0.00210068 -0.000253573 0.00462375 2.25843e-17 0.00462375)
(0.00460983 -0.0020941 -0.000257501 0.00460983 1.19983e-18 0.00460983)
(0.00460983 -0.0020941 -0.000257501 0.00460983 2.24512e-17 0.00460983)
(0.00459557 -0.00208736 -0.000261466 0.00459557 1.02511e-18 0.00459557)
(0.00459557 -0.00208736 -0.000261466 0.00459557 2.21815e-17 0.00459557)
(0.00458099 -0.00208044 -0.000265467 0.00458099 6.63647e-19 0.00458099)
(0.00458099 -0.00208044 -0.000265467 0.00458099 2.24813e-17 0.00458099)
(0.00456606 -0.00207336 -0.000269504 0.00456606 1.39663e-18 0.00456606)
(0.00456606 -0.00207336 -0.000269504 0.00456606 2.35755e-17 0.00456606)
(0.0045508 -0.0020661 -0.000273576 0.0045508 -5.71109e-19 0.0045508)
(0.0045508 -0.0020661 -0.000273576 0.0045508 2.51479e-17 0.0045508)
(0.00453518 -0.00205866 -0.000277682 0.00453518 -1.9018e-18 0.00453518)
(0.00453518 -0.00205866 -0.000277682 0.00453518 2.71887e-17 0.00453518)
(0.00451922 -0.00205105 -0.00028182 0.00451922 -9.18351e-19 0.00451922)
(0.00451922 -0.00205105 -0.00028182 0.00451922 2.86806e-17 0.00451922)
(0.0045029 -0.00204325 -0.000285991 0.0045029 3.63767e-19 0.0045029)
(0.0045029 -0.00204325 -0.000285991 0.0045029 2.8792e-17 0.0045029)
(0.00448622 -0.00203527 -0.000290193 0.00448622 -6.75004e-20 0.00448622)
(0.00448622 -0.00203527 -0.000290193 0.00448622 2.90447e-17 0.00448622)
(0.00446918 -0.00202709 -0.000294424 0.00446918 -5.41909e-19 0.00446918)
(0.00446918 -0.00202709 -0.000294424 0.00446918 2.99653e-17 0.00446918)
(0.00445178 -0.00201873 -0.000298684 0.00445178 -6.40816e-20 0.00445178)
(0.00445178 -0.00201873 -0.000298684 0.00445178 3.066e-17 0.00445178)
(0.004434 -0.00201018 -0.00030297 0.004434 9.66068e-19 0.004434)
(0.004434 -0.00201018 -0.00030297 0.004434 3.16503e-17 0.004434)
(0.00441585 -0.00200143 -0.000307282 0.00441585 9.1152e-19 0.00441585)
(0.00441585 -0.00200143 -0.000307282 0.00441585 3.37274e-17 0.00441585)
(0.00439731 -0.00199248 -0.000311618 0.00439731 6.81655e-19 0.00439731)
(0.00439731 -0.00199248 -0.000311618 0.00439731 3.5773e-17 0.00439731)
(0.00437839 -0.00198332 -0.000315976 0.00437839 1.2395e-18 0.00437839)
(0.00437839 -0.00198332 -0.000315976 0.00437839 3.57634e-17 0.00437839)
(0.00435908 -0.00197396 -0.000320355 0.00435908 1.70455e-18 0.00435908)
(0.00435908 -0.00197396 -0.000320355 0.00435908 3.46303e-17 0.00435908)
(0.00433937 -0.0019644 -0.000324752 0.00433937 3.57948e-18 0.00433937)
(0.00433937 -0.0019644 -0.000324752 0.00433937 3.5023e-17 0.00433937)
(0.00431927 -0.00195461 -0.000329165 0.00431927 4.49985e-18 0.00431927)
(0.00431927 -0.00195461 -0.000329165 0.00431927 3.67588e-17 0.00431927)
(0.00429876 -0.00194462 -0.000333592 0.00429876 2.81509e-18 0.00429876)
(0.00429876 -0.00194462 -0.000333592 0.00429876 3.81045e-17 0.00429876)
(0.00427783 -0.0019344 -0.000338032 0.00427783 4.67266e-18 0.00427783)
(0.00427783 -0.0019344 -0.000338032 0.00427783 3.84475e-17 0.00427783)
(0.00425649 -0.00192397 -0.000342481 0.00425649 2.85518e-18 0.00425649)
(0.00425649 -0.00192397 -0.000342481 0.00425649 3.82344e-17 0.00425649)
(0.00423473 -0.0019133 -0.000346936 0.00423473 3.13869e-19 0.00423473)
(0.00423473 -0.0019133 -0.000346936 0.00423473 3.88299e-17 0.00423473)
(0.00421254 -0.00190241 -0.000351396 0.00421254 1.74438e-18 0.00421254)
(0.00421254 -0.00190241 -0.000351396 0.00421254 3.95066e-17 0.00421254)
(0.00418992 -0.00189128 -0.000355857 0.00418992 2.25064e-18 0.00418992)
(0.00418992 -0.00189128 -0.000355857 0.00418992 4.15183e-17 0.00418992)
(0.00416686 -0.00187992 -0.000360316 0.00416686 2.70892e-18 0.00416686)
(0.00416686 -0.00187992 -0.000360316 0.00416686 4.34942e-17 0.00416686)
(0.00414335 -0.00186831 -0.00036477 0.00414335 3.21709e-18 0.00414335)
(0.00414335 -0.00186831 -0.00036477 0.00414335 4.30258e-17 0.00414335)
(0.0041194 -0.00185646 -0.000369216 0.0041194 8.1804e-19 0.0041194)
(0.0041194 -0.00185646 -0.000369216 0.0041194 4.38114e-17 0.0041194)
(0.00409498 -0.00184436 -0.000373649 0.00409498 -1.21823e-18 0.00409498)
(0.00409498 -0.00184436 -0.000373649 0.00409498 4.71981e-17 0.00409498)
(0.00407011 -0.00183201 -0.000378066 0.00407011 -2.76865e-19 0.00407011)
(0.00407011 -0.00183201 -0.000378066 0.00407011 4.95331e-17 0.00407011)
(0.00404476 -0.00181939 -0.000382463 0.00404476 2.78246e-18 0.00404476)
(0.00404476 -0.00181939 -0.000382463 0.00404476 4.91393e-17 0.00404476)
(0.00401894 -0.00180652 -0.000386836 0.00401894 4.18919e-18 0.00401894)
(0.00401894 -0.00180652 -0.000386836 0.00401894 4.26871e-17 0.00401894)
(0.00399264 -0.00179338 -0.00039118 0.00399264 3.33611e-18 0.00399264)
(0.00399264 -0.00179338 -0.00039118 0.00399264 3.42981e-17 0.00399264)
(0.00396584 -0.00177997 -0.000395491 0.00396584 -3.58102e-18 0.00396584)
(0.00396584 -0.00177997 -0.000395491 0.00396584 3.31851e-17 0.00396584)
(0.00393856 -0.00176628 -0.000399763 0.00393856 -5.56999e-19 0.00393856)
(0.00393856 -0.00176628 -0.000399763 0.00393856 2.59677e-17 0.00393856)
(0.00391077 -0.00175232 -0.000403992 0.00391077 2.15957e-18 0.00391077)
(0.00391077 -0.00175232 -0.000403992 0.00391077 1.78828e-17 0.00391077)
(0.00388247 -0.00173807 -0.000408172 0.00388247 -1.18191e-19 0.00388247)
(0.00388247 -0.00173807 -0.000408172 0.00388247 1.56734e-17 0.00388247)
(0.00385366 -0.00172353 -0.000412296 0.00385366 1.73481e-18 0.00385366)
(0.00385366 -0.00172353 -0.000412296 0.00385366 1.68293e-17 0.00385366)
(0.00382433 -0.00170869 -0.00041636 0.00382433 2.98896e-18 0.00382433)
(0.00382433 -0.00170869 -0.00041636 0.00382433 1.91654e-17 0.00382433)
(0.00379447 -0.00169356 -0.000420357 0.00379447 7.11868e-18 0.00379447)
(0.00379447 -0.00169356 -0.000420357 0.00379447 1.68434e-17 0.00379447)
(0.00376407 -0.00167812 -0.00042428 0.00376407 4.04236e-18 0.00376407)
(0.00376407 -0.00167812 -0.00042428 0.00376407 1.50066e-17 0.00376407)
(0.00373314 -0.00166237 -0.000428123 0.00373314 2.60651e-18 0.00373314)
(0.00373314 -0.00166237 -0.000428123 0.00373314 1.21841e-17 0.00373314)
(0.00370165 -0.00164631 -0.000431877 0.00370165 4.21162e-18 0.00370165)
(0.00370165 -0.00164631 -0.000431877 0.00370165 9.96399e-18 0.00370165)
(0.00366961 -0.00162993 -0.000435535 0.00366961 5.5847e-18 0.00366961)
(0.00366961 -0.00162993 -0.000435535 0.00366961 9.71372e-18 0.00366961)
(0.00363701 -0.00161322 -0.00043909 0.00363701 3.94822e-18 0.00363701)
(0.00363701 -0.00161322 -0.00043909 0.00363701 1.32349e-17 0.00363701)
(0.00360384 -0.00159618 -0.000442532 0.00360384 1.24867e-18 0.00360384)
(0.00360384 -0.00159618 -0.000442532 0.00360384 1.31567e-17 0.00360384)
(0.0035701 -0.0015788 -0.000445853 0.0035701 3.11613e-18 0.0035701)
(0.0035701 -0.0015788 -0.000445853 0.0035701 4.06142e-18 0.0035701)
(0.00353578 -0.00156108 -0.000449044 0.00353578 1.52529e-19 0.00353578)
(0.00353578 -0.00156108 -0.000449044 0.00353578 9.70002e-18 0.00353578)
(0.00350087 -0.00154301 -0.000452095 0.00350087 3.17385e-19 0.00350087)
(0.00350087 -0.00154301 -0.000452095 0.00350087 1.2101e-17 0.00350087)
(0.00346538 -0.00152458 -0.000454996 0.00346538 3.49798e-18 0.00346538)
(0.00346538 -0.00152458 -0.000454996 0.00346538 5.85067e-18 0.00346538)
(0.00342928 -0.00150579 -0.000457736 0.00342928 -5.38883e-19 0.00342928)
(0.00342928 -0.00150579 -0.000457736 0.00342928 5.46955e-18 0.00342928)