/*--------------------------------*- C++ -*----------------------------------*\
| =========                 |                                                 |
| \\      /  F ield         | OpenFOAM: The Open Source CFD Toolbox           |
|  \\    /   O peration     | Version:  2106                                  |
|   \\  /    A nd           | Website:  www.openfoam.com                      |
|    \\/     M anipulation  |                                                 |
\*---------------------------------------------------------------------------*/
FoamFile
{
    version     2.0;
    format      ascii;
    arch        "LSB;label=32;scalar=64";
    class       volVectorField;
    location    "10020";
    object      U;
}
// * * * * * * * * * * * * * * * * * * * * * * * * * * * * * * * * * * * * * //

dimensions      [0 1 -1 0 0 0 0];

internalField   nonuniform List<vector> 
2000
(
(0.00569167 -8.21668e-16 -4.38957e-17)
(0.00569167 -1.10098e-18 7.49317e-22)
(0.0171791 -3.23128e-15 -1.17904e-16)
(0.0171791 -8.0482e-19 -5.49321e-21)
(0.0288787 -3.0696e-15 -1.23172e-16)
(0.0288787 -2.89947e-18 4.89432e-21)
(0.0407944 -2.90106e-15 -1.27937e-16)
(0.0407944 -4.53641e-18 1.26426e-20)
(0.05293 -2.86242e-15 -1.32924e-16)
(0.05293 -6.23861e-18 1.94815e-20)
(0.0652894 -2.87162e-15 -1.38113e-16)
(0.0652894 -8.0611e-18 2.50766e-20)
(0.0778758 -2.87158e-15 -1.43452e-16)
(0.0778758 -9.97729e-18 2.98347e-20)
(0.0906922 -2.86734e-15 -1.48941e-16)
(0.0906922 -1.19035e-17 3.6255e-20)
(0.10374 -2.86326e-15 -1.54582e-16)
(0.10374 -1.3937e-17 4.29177e-20)
(0.117019 -2.85945e-15 -1.60359e-16)
(0.117019 -1.61867e-17 4.58185e-20)
(0.130526 -2.85572e-15 -1.66238e-16)
(0.130526 -1.84883e-17 5.06538e-20)
(0.144254 -2.85181e-15 -1.72165e-16)
(0.144254 -2.08126e-17 5.57161e-20)
(0.15819 -2.84757e-15 -1.78062e-16)
(0.15819 -2.34271e-17 6.25341e-20)
(0.172315 -2.84316e-15 -1.8383e-16)
(0.172315 -2.62928e-17 7.25749e-20)
(0.186603 -2.83853e-15 -1.89346e-16)
(0.186603 -2.91397e-17 8.07817e-20)
(0.201016 -2.83373e-15 -1.94471e-16)
(0.201016 -3.20845e-17 8.4234e-20)
(0.215511 -2.82898e-15 -1.99063e-16)
(0.215511 -3.5278e-17 9.14211e-20)
(0.230035 -2.82406e-15 -2.02985e-16)
(0.230035 -3.85211e-17 1.08289e-19)
(0.244528 -2.81902e-15 -2.06124e-16)
(0.244528 -4.17798e-17 1.20237e-19)
(0.258927 -2.81389e-15 -2.08402e-16)
(0.258927 -4.49613e-17 1.28837e-19)
(0.27317 -2.80845e-15 -2.09788e-16)
(0.27317 -4.81971e-17 1.43691e-19)
(0.287195 -2.80276e-15 -2.10298e-16)
(0.287195 -5.1638e-17 1.71807e-19)
(0.300949 -2.79707e-15 -2.09989e-16)
(0.300949 -5.51229e-17 1.94551e-19)
(0.314385 -2.7913e-15 -2.08956e-16)
(0.314385 -5.88041e-17 2.22074e-19)
(0.327467 -2.78553e-15 -2.07313e-16)
(0.327467 -6.27016e-17 2.56465e-19)
(0.34017 -2.77974e-15 -2.05187e-16)
(0.34017 -6.64116e-17 2.91364e-19)
(0.352476 -2.77401e-15 -2.027e-16)
(0.352476 -7.02877e-17 3.29928e-19)
(0.364376 -2.76837e-15 -1.99965e-16)
(0.364376 -7.44229e-17 3.73679e-19)
(0.375869 -2.76235e-15 -1.97081e-16)
(0.375869 -7.81304e-17 4.15725e-19)
(0.386961 -2.75591e-15 -1.94134e-16)
(0.386961 -8.23136e-17 4.54455e-19)
(0.39766 -2.7496e-15 -1.91189e-16)
(0.39766 -8.61028e-17 5.08871e-19)
(0.407977 -2.74369e-15 -1.88307e-16)
(0.407977 -8.95053e-17 5.58165e-19)
(0.417929 -2.73786e-15 -1.85527e-16)
(0.417929 -9.35766e-17 6.11913e-19)
(0.42753 -2.73185e-15 -1.82878e-16)
(0.42753 -9.75299e-17 6.71395e-19)
(0.436797 -2.72574e-15 -1.80379e-16)
(0.436797 -1.01042e-16 7.27933e-19)
(0.445747 -2.72024e-15 -1.78045e-16)
(0.445747 -1.04321e-16 7.80356e-19)
(0.454397 -2.71535e-15 -1.75886e-16)
(0.454397 -1.07153e-16 8.31189e-19)
(0.462762 -2.7106e-15 -1.73907e-16)
(0.462762 -1.09213e-16 8.88777e-19)
(0.470859 -2.70557e-15 -1.72111e-16)
(0.470859 -1.11473e-16 9.21182e-19)
(0.478702 -2.70057e-15 -1.70495e-16)
(0.478702 -1.14025e-16 9.51632e-19)
(0.486307 -2.69582e-15 -1.6906e-16)
(0.486307 -1.16559e-16 1.01887e-18)
(0.493686 -2.69139e-15 -1.67797e-16)
(0.493686 -1.19074e-16 1.09443e-18)
(0.500851 -2.68706e-15 -1.66707e-16)
(0.500851 -1.21457e-16 1.1254e-18)
(0.507816 -2.68259e-15 -1.65783e-16)
(0.507816 -1.24445e-16 1.15462e-18)
(0.514591 -2.67776e-15 -1.6502e-16)
(0.514591 -1.26975e-16 1.19666e-18)
(0.521187 -2.67244e-15 -1.6441e-16)
(0.521187 -1.29734e-16 1.23256e-18)
(0.527614 -2.66747e-15 -1.63957e-16)
(0.527614 -1.33083e-16 1.26741e-18)
(0.53388 -2.66281e-15 -1.63649e-16)
(0.53388 -1.35552e-16 1.34567e-18)
(0.539994 -2.65827e-15 -1.63486e-16)
(0.539994 -1.37418e-16 1.39004e-18)
(0.545965 -2.6532e-15 -1.63478e-16)
(0.545965 -1.40379e-16 1.42164e-18)
(0.5518 -2.64762e-15 -1.63597e-16)
(0.5518 -1.4357e-16 1.44511e-18)
(0.557505 -2.64219e-15 -1.63847e-16)
(0.557505 -1.45489e-16 1.47923e-18)
(0.563088 -2.63658e-15 -1.64213e-16)
(0.563088 -1.47833e-16 1.48108e-18)
(0.568554 -2.63101e-15 -1.64699e-16)
(0.568554 -1.51394e-16 1.48774e-18)
(0.57391 -2.62507e-15 -1.65299e-16)
(0.57391 -1.5478e-16 1.50383e-18)
(0.57916 -2.61899e-15 -1.66003e-16)
(0.57916 -1.58036e-16 1.49602e-18)
(0.58431 -2.6141e-15 -1.6681e-16)
(0.58431 -1.60731e-16 1.49743e-18)
(0.589364 -2.60968e-15 -1.67723e-16)
(0.589364 -1.62665e-16 1.49237e-18)
(0.594327 -2.60542e-15 -1.68737e-16)
(0.594327 -1.65861e-16 1.46592e-18)
(0.599203 -2.60109e-15 -1.6985e-16)
(0.599203 -1.69667e-16 1.42569e-18)
(0.603996 -2.59489e-15 -1.71057e-16)
(0.603996 -1.73253e-16 1.37117e-18)
(0.608709 -2.58893e-15 -1.72341e-16)
(0.608709 -1.75417e-16 1.29822e-18)
(0.613347 -2.58409e-15 -1.7371e-16)
(0.613347 -1.77851e-16 1.21242e-18)
(0.617912 -2.57875e-15 -1.75162e-16)
(0.617912 -1.82516e-16 1.16152e-18)
(0.622407 -2.57363e-15 -1.76707e-16)
(0.622407 -1.85511e-16 1.13121e-18)
(0.626836 -2.56799e-15 -1.78337e-16)
(0.626836 -1.87255e-16 1.10902e-18)
(0.631201 -2.56206e-15 -1.80055e-16)
(0.631201 -1.89353e-16 1.11959e-18)
(0.635504 -2.55598e-15 -1.81861e-16)
(0.635504 -1.91306e-16 1.11925e-18)
(0.639749 -2.55005e-15 -1.8375e-16)
(0.639749 -1.93689e-16 1.07202e-18)
(0.643938 -2.54401e-15 -1.85733e-16)
(0.643938 -1.96623e-16 1.08004e-18)
(0.648072 -2.53771e-15 -1.878e-16)
(0.648072 -1.99603e-16 1.05447e-18)
(0.652154 -2.53124e-15 -1.89962e-16)
(0.652154 -2.01366e-16 1.03834e-18)
(0.656186 -2.52529e-15 -1.92221e-16)
(0.656186 -2.03915e-16 1.05523e-18)
(0.66017 -2.51929e-15 -1.94587e-16)
(0.66017 -2.08041e-16 1.11081e-18)
(0.664107 -2.51219e-15 -1.9706e-16)
(0.664107 -2.10914e-16 1.09238e-18)
(0.668 -2.50548e-15 -1.99607e-16)
(0.668 -2.14467e-16 1.0603e-18)
(0.67185 -2.49693e-15 -2.02226e-16)
(0.67185 -2.18395e-16 1.00975e-18)
(0.675658 -2.48825e-15 -2.04904e-16)
(0.675658 -2.22737e-16 9.52245e-19)
(0.679426 -2.48102e-15 -2.07633e-16)
(0.679426 -2.27224e-16 8.61786e-19)
(0.683155 -2.47331e-15 -2.10417e-16)
(0.683155 -2.31439e-16 7.40853e-19)
(0.686848 -2.46621e-15 -2.13246e-16)
(0.686848 -2.36587e-16 5.52313e-19)
(0.690504 -2.46031e-15 -2.16121e-16)
(0.690504 -2.38599e-16 4.952e-19)
(0.694125 -2.45473e-15 -2.19077e-16)
(0.694125 -2.41785e-16 5.12642e-19)
(0.697713 -2.44931e-15 -2.22106e-16)
(0.697713 -2.45642e-16 4.91983e-19)
(0.701269 -2.44372e-15 -2.25228e-16)
(0.701269 -2.50303e-16 2.2619e-19)
(0.704793 -2.43536e-15 -2.28437e-16)
(0.704793 -2.57666e-16 7.08655e-21)
(0.708287 -2.42719e-15 -2.31676e-16)
(0.708287 -2.6497e-16 -1.0362e-19)
(0.711752 -2.42092e-15 -2.3494e-16)
(0.711752 -2.73732e-16 -4.11941e-19)
(0.715188 -2.41353e-15 -2.38213e-16)
(0.715188 -2.77676e-16 -4.57738e-19)
(0.718596 -2.40727e-15 -2.41583e-16)
(0.718596 -2.8079e-16 -5.18636e-19)
(0.721979 -2.40279e-15 -2.45052e-16)
(0.721979 -2.85479e-16 -5.42559e-19)
(0.725335 -2.39756e-15 -2.48585e-16)
(0.725335 -2.86646e-16 -5.70687e-19)
(0.728666 -2.39069e-15 -2.52155e-16)
(0.728666 -2.89579e-16 -5.81389e-19)
(0.731973 -2.38454e-15 -2.55786e-16)
(0.731973 -2.92721e-16 -5.84948e-19)
(0.735257 -2.37862e-15 -2.59572e-16)
(0.735257 -2.96902e-16 -7.41434e-19)
(0.738518 -2.37169e-15 -2.63496e-16)
(0.738518 -3.01509e-16 -7.09497e-19)
(0.741757 -2.36356e-15 -2.67504e-16)
(0.741757 -3.06656e-16 -6.56994e-19)
(0.744975 -2.35622e-15 -2.71636e-16)
(0.744975 -3.11782e-16 -6.79518e-19)
(0.748171 -2.34768e-15 -2.7585e-16)
(0.748171 -3.17852e-16 -7.57118e-19)
(0.751348 -2.33908e-15 -2.80145e-16)
(0.751348 -3.25658e-16 -7.92646e-19)
(0.754505 -2.33045e-15 -2.84535e-16)
(0.754505 -3.32118e-16 -9.1206e-19)
(0.757643 -2.321e-15 -2.88993e-16)
(0.757643 -3.35414e-16 -7.03419e-19)
(0.760763 -2.31359e-15 -2.93564e-16)
(0.760763 -3.40478e-16 -5.59737e-19)
(0.763865 -2.30422e-15 -2.98235e-16)
(0.763865 -3.47714e-16 -5.79257e-19)
(0.766949 -2.29545e-15 -3.02978e-16)
(0.766949 -3.54782e-16 -5.51471e-19)
(0.770016 -2.28773e-15 -3.07856e-16)
(0.770016 -3.64111e-16 -6.27693e-19)
(0.773067 -2.27828e-15 -3.12837e-16)
(0.773067 -3.725e-16 -5.71582e-19)
(0.776102 -2.26875e-15 -3.17895e-16)
(0.776102 -3.82653e-16 -4.04855e-19)
(0.779122 -2.25786e-15 -3.23125e-16)
(0.779122 -3.91046e-16 -4.0294e-19)
(0.782126 -2.24469e-15 -3.28493e-16)
(0.782126 -3.99972e-16 -4.69449e-19)
(0.785116 -2.2338e-15 -3.30375e-16)
(0.785116 -4.09519e-16 -3.93828e-19)
(0.788091 -2.227e-15 -3.24153e-16)
(0.788091 -4.1548e-16 -3.2435e-19)
(0.791052 -2.21995e-15 -3.17365e-16)
(0.791052 -4.1959e-16 -5.33062e-19)
(0.794 -2.21206e-15 -3.10361e-16)
(0.794 -4.2756e-16 -5.16172e-19)
(0.796934 -2.203e-15 -3.01941e-16)
(0.796934 -4.35075e-16 -5.09423e-19)
(0.799856 -2.19035e-15 -2.92641e-16)
(0.799856 -4.42457e-16 -1.03605e-18)
(0.802765 -2.17507e-15 -2.84305e-16)
(0.802765 -4.56224e-16 -1.38969e-18)
(0.805662 -2.1569e-15 -2.7578e-16)
(0.805662 -4.72249e-16 -1.42149e-18)
(0.808547 -2.13632e-15 -2.68046e-16)
(0.808547 -4.88515e-16 -1.47112e-18)
(0.811421 -2.11848e-15 -2.59055e-16)
(0.811421 -4.97312e-16 -1.03163e-18)
(0.814283 -2.10838e-15 -2.49772e-16)
(0.814283 -5.00634e-16 -7.02616e-19)
(0.817134 -2.10309e-15 -2.49186e-16)
(0.817134 -5.05875e-16 1.89518e-19)
(0.819975 -2.09943e-15 -2.4831e-16)
(0.819975 -5.07685e-16 7.59408e-19)
(0.822805 -2.093e-15 -2.45945e-16)
(0.822805 -5.13664e-16 1.18779e-18)
(0.825625 -2.08081e-15 -2.42821e-16)
(0.825625 -5.18048e-16 1.23008e-18)
(0.828435 -2.06585e-15 -2.39599e-16)
(0.828435 -5.24852e-16 1.14881e-18)
(0.831235 -2.04942e-15 -2.36695e-16)
(0.831235 -5.32279e-16 1.06e-18)
(0.834025 -2.03373e-15 -2.33975e-16)
(0.834025 -5.31726e-16 1.12459e-18)
(0.836807 -2.02469e-15 -2.30992e-16)
(0.836807 -5.47647e-16 1.1945e-18)
(0.839579 -2.01456e-15 -2.27222e-16)
(0.839579 -5.56789e-16 8.82787e-19)
(0.842342 -2.00262e-15 -2.24538e-16)
(0.842342 -5.68344e-16 7.66668e-19)
(0.845097 -1.9907e-15 -2.22159e-16)
(0.845097 -5.75938e-16 1.04681e-18)
(0.847843 -1.97734e-15 -2.20304e-16)
(0.847843 -5.78708e-16 1.28464e-18)
(0.850582 -1.96441e-15 -2.18275e-16)
(0.850582 -5.8549e-16 1.28778e-18)
(0.853312 -1.9543e-15 -2.17325e-16)
(0.853312 -5.90813e-16 1.47294e-18)
(0.856034 -1.94672e-15 -2.15549e-16)
(0.856034 -5.99161e-16 2.0974e-18)
(0.858748 -1.93393e-15 -2.1347e-16)
(0.858748 -6.05841e-16 2.44313e-18)
(0.861455 -1.92075e-15 -2.1104e-16)
(0.861455 -6.1438e-16 1.78884e-18)
(0.864154 -1.90903e-15 -2.09133e-16)
(0.864154 -6.2362e-16 1.57018e-18)
(0.866846 -1.89856e-15 -2.07481e-16)
(0.866846 -6.29826e-16 2.13405e-18)
(0.869531 -1.88774e-15 -2.04732e-16)
(0.869531 -6.41366e-16 4.99383e-18)
(0.872209 -1.87097e-15 -2.02304e-16)
(0.872209 -6.48063e-16 3.20516e-18)
(0.87488 -1.85471e-15 -2.01557e-16)
(0.87488 -6.61536e-16 9.56998e-19)
(0.877544 -1.84193e-15 -2.00304e-16)
(0.877544 -6.6774e-16 -1.43839e-18)
(0.880202 -1.82361e-15 -1.97163e-16)
(0.880202 -6.80373e-16 -4.00313e-18)
(0.882853 -1.80529e-15 -1.96019e-16)
(0.882853 -6.94289e-16 -5.65211e-18)
(0.885498 -1.78937e-15 -1.94034e-16)
(0.885498 -7.05412e-16 -7.35094e-18)
(0.888137 -1.77062e-15 -1.90513e-16)
(0.888137 -7.16337e-16 -1.03891e-17)
(0.890769 -1.74571e-15 -1.85803e-16)
(0.890769 -7.22942e-16 -1.41851e-17)
(0.893395 -1.71922e-15 -1.81585e-16)
(0.893395 -7.30913e-16 -1.75588e-17)
(0.896016 -1.69845e-15 -1.77102e-16)
(0.896016 -7.40005e-16 -1.96216e-17)
(0.89863 -1.68207e-15 -1.70342e-16)
(0.89863 -7.48314e-16 -2.14853e-17)
(0.901239 -1.66058e-15 -1.68608e-16)
(0.901239 -7.61835e-16 -2.27476e-17)
(0.903841 -1.64147e-15 -1.68048e-16)
(0.903841 -7.73071e-16 -2.29652e-17)
(0.906439 -1.62452e-15 -1.66327e-16)
(0.906439 -7.75595e-16 -2.22065e-17)
(0.90903 -1.59837e-15 -1.65382e-16)
(0.90903 -7.89428e-16 -2.18103e-17)
(0.911616 -1.57792e-15 -1.62995e-16)
(0.911616 -7.97611e-16 -2.12051e-17)
(0.914197 -1.56392e-15 -1.58512e-16)
(0.914197 -8.04368e-16 -2.31526e-17)
(0.916772 -1.54533e-15 -1.54455e-16)
(0.916772 -8.15884e-16 -2.59163e-17)
(0.919341 -1.52281e-15 -1.51101e-16)
(0.919341 -8.1781e-16 -2.88536e-17)
(0.921906 -1.50199e-15 -1.49072e-16)
(0.921906 -8.29514e-16 -3.03423e-17)
(0.924465 -1.48232e-15 -1.44969e-16)
(0.924465 -8.3319e-16 -3.23817e-17)
(0.927018 -1.46393e-15 -1.41995e-16)
(0.927018 -8.38676e-16 -3.42694e-17)
(0.929567 -1.44279e-15 -1.39364e-16)
(0.929567 -8.45754e-16 -3.58902e-17)
(0.93211 -1.42592e-15 -1.38073e-16)
(0.93211 -8.51197e-16 -3.87804e-17)
(0.934648 -1.41248e-15 -1.36492e-16)
(0.934648 -8.6879e-16 -4.30816e-17)
(0.93718 -1.39809e-15 -1.35604e-16)
(0.93718 -8.78701e-16 -4.77746e-17)
(0.939708 -1.38586e-15 -1.3507e-16)
(0.939708 -8.75375e-16 -4.9826e-17)
(0.94223 -1.36864e-15 -1.36002e-16)
(0.94223 -8.77482e-16 -4.98502e-17)
(0.944747 -1.34945e-15 -1.38568e-16)
(0.944747 -8.81452e-16 -5.15488e-17)
(0.947259 -1.33661e-15 -1.41108e-16)
(0.947259 -8.82638e-16 -5.3903e-17)
(0.949765 -1.3112e-15 -1.41821e-16)
(0.949765 -8.80051e-16 -5.58329e-17)
(0.952266 -1.2904e-15 -1.44333e-16)
(0.952266 -8.78192e-16 -5.77384e-17)
(0.954762 -1.28599e-15 -1.44138e-16)
(0.954762 -8.80728e-16 -5.86434e-17)
(0.957253 -1.27149e-15 -1.43333e-16)
(0.957253 -8.83361e-16 -5.97171e-17)
(0.959738 -1.25609e-15 -1.43342e-16)
(0.959738 -8.82846e-16 -6.03984e-17)
(0.962217 -1.23749e-15 -1.43444e-16)
(0.962217 -8.87514e-16 -6.42208e-17)
(0.964691 -1.21874e-15 -1.4323e-16)
(0.964691 -8.87398e-16 -6.72576e-17)
(0.96716 -1.21329e-15 -1.44639e-16)
(0.96716 -8.87335e-16 -6.82795e-17)
(0.969622 -1.20554e-15 -1.43041e-16)
(0.969622 -8.72512e-16 -7.17998e-17)
(0.972079 -1.18135e-15 -1.37306e-16)
(0.972079 -8.6861e-16 -8.12822e-17)
(0.97453 -1.14969e-15 -1.32307e-16)
(0.97453 -8.73777e-16 -8.84712e-17)
(0.976976 -1.12179e-15 -1.3151e-16)
(0.976976 -8.77626e-16 -9.73957e-17)
(0.979415 -1.10104e-15 -1.31676e-16)
(0.979415 -9.10344e-16 -9.91223e-17)
(0.981848 -1.0962e-15 -1.28555e-16)
(0.981848 -9.20776e-16 -1.07338e-16)
(0.984274 -1.08447e-15 -1.19696e-16)
(0.984274 -9.2831e-16 -1.11628e-16)
(0.986695 -1.07157e-15 -1.21808e-16)
(0.986695 -9.45261e-16 -1.07739e-16)
(0.989108 -1.06179e-15 -1.14892e-16)
(0.989108 -9.60174e-16 -1.02629e-16)
(0.991515 -1.05897e-15 -1.16967e-16)
(0.991515 -9.6996e-16 -1.03468e-16)
(0.993915 -1.06228e-15 -1.18138e-16)
(0.993915 -9.6372e-16 -1.06942e-16)
(0.996308 -1.04629e-15 -1.25407e-16)
(0.996308 -9.66459e-16 -1.09113e-16)
(0.998694 -1.03813e-15 -1.30251e-16)
(0.998694 -9.7012e-16 -1.14813e-16)
(1.00107 -1.03323e-15 -1.32732e-16)
(1.00107 -9.74244e-16 -1.17237e-16)
(1.00344 -1.02632e-15 -1.35167e-16)
(1.00344 -9.87231e-16 -1.1918e-16)
(1.0058 -1.01666e-15 -1.41239e-16)
(1.0058 -9.91838e-16 -1.25381e-16)
(1.00816 -1.01052e-15 -1.46151e-16)
(1.00816 -9.68415e-16 -1.34024e-16)
(1.01051 -1.0145e-15 -1.49377e-16)
(1.01051 -9.69881e-16 -1.40967e-16)
(1.01284 -9.98231e-16 -1.50293e-16)
(1.01284 -9.87994e-16 -1.47837e-16)
(1.01517 -9.79819e-16 -1.44286e-16)
(1.01517 -9.57116e-16 -1.47106e-16)
(1.01749 -9.7384e-16 -1.4015e-16)
(1.01749 -9.44668e-16 -1.59031e-16)
(1.0198 -9.57359e-16 -1.4178e-16)
(1.0198 -9.29539e-16 -1.6623e-16)
(1.0221 -9.43777e-16 -1.40842e-16)
(1.0221 -9.16425e-16 -1.66492e-16)
(1.02439 -9.29558e-16 -1.31786e-16)
(1.02439 -9.11759e-16 -1.62322e-16)
(1.02667 -8.9643e-16 -1.25222e-16)
(1.02667 -9.07697e-16 -1.5916e-16)
(1.02893 -8.59867e-16 -1.27896e-16)
(1.02893 -8.75996e-16 -1.41166e-16)
(1.03119 -8.31182e-16 -1.28151e-16)
(1.03119 -8.57244e-16 -1.21985e-16)
(1.03343 -8.31358e-16 -1.39386e-16)
(1.03343 -8.58376e-16 -1.1122e-16)
(1.03566 -8.3534e-16 -1.46544e-16)
(1.03566 -8.178e-16 -1.17275e-16)
(1.03788 -8.11315e-16 -1.3873e-16)
(1.03788 -8.05507e-16 -1.21971e-16)
(1.04009 -7.93345e-16 -1.40083e-16)
(1.04009 -8.00646e-16 -1.18694e-16)
(1.04228 -7.77477e-16 -1.32177e-16)
(1.04228 -7.6941e-16 -1.15179e-16)
(1.04445 -7.5707e-16 -1.33752e-16)
(1.04445 -7.6186e-16 -1.08403e-16)
(1.04661 -7.55982e-16 -1.52759e-16)
(1.04661 -7.75198e-16 -1.11057e-16)
(1.04875 -7.86883e-16 -1.59914e-16)
(1.04875 -7.85652e-16 -1.25341e-16)
(1.05088 -8.08249e-16 -1.47993e-16)
(1.05088 -8.20503e-16 -1.4185e-16)
(1.05299 -8.27145e-16 -1.37026e-16)
(1.05299 -7.87783e-16 -1.29948e-16)
(1.05508 -7.80074e-16 -1.1602e-16)
(1.05508 -7.45067e-16 -1.23766e-16)
(1.05715 -7.5457e-16 -1.11911e-16)
(1.05715 -7.57908e-16 -1.17444e-16)
(1.0592 -7.35986e-16 -1.167e-16)
(1.0592 -7.6102e-16 -1.21345e-16)
(1.06123 -7.27583e-16 -1.44563e-16)
(1.06123 -7.6242e-16 -1.25487e-16)
(1.06324 -7.23041e-16 -1.37844e-16)
(1.06324 -7.45204e-16 -1.15102e-16)
(1.06522 -6.82507e-16 -1.6343e-16)
(1.06522 -7.10345e-16 -1.26496e-16)
(1.06717 -7.3698e-16 -1.59177e-16)
(1.06717 -6.91949e-16 -1.15975e-16)
(1.06911 -7.16605e-16 -1.5166e-16)
(1.06911 -6.77301e-16 -9.45354e-17)
(1.07101 -7.15077e-16 -1.35676e-16)
(1.07101 -6.76251e-16 -8.42324e-17)
(1.07288 -7.13712e-16 -1.19055e-16)
(1.07288 -6.90594e-16 -7.70846e-17)
(1.07473 -6.65463e-16 -1.13897e-16)
(1.07473 -7.0135e-16 -7.57435e-17)
(1.07653 -6.31415e-16 -1.15931e-16)
(1.07653 -6.35078e-16 -7.88108e-17)
(1.07831 -7.02113e-16 -1.30456e-16)
(1.07831 -6.46216e-16 -8.27906e-17)
(1.08005 -6.47504e-16 -1.0621e-16)
(1.08005 -6.55239e-16 -9.36662e-17)
(1.08175 -5.82631e-16 -1.12578e-16)
(1.08175 -5.97291e-16 -1.15835e-16)
(1.0834 -5.61849e-16 -1.45898e-16)
(1.0834 -6.13851e-16 -1.1621e-16)
(1.08502 -5.36103e-16 -1.54169e-16)
(1.08502 -6.22386e-16 -1.21948e-16)
(1.08658 -5.52577e-16 -1.90586e-16)
(1.08658 -6.30765e-16 -8.85685e-17)
(1.0881 -5.58821e-16 -1.42073e-16)
(1.0881 -6.43939e-16 -4.6678e-17)
(1.08956 -6.23952e-16 -1.59344e-16)
(1.08956 -6.56793e-16 -2.23991e-17)
(1.09096 -6.18875e-16 -1.40626e-16)
(1.09096 -6.73662e-16 -1.84327e-17)
(1.0923 -6.39902e-16 -1.22635e-16)
(1.0923 -6.22686e-16 8.85287e-18)
(1.09358 -6.38369e-16 -9.25925e-17)
(1.09358 -5.7064e-16 4.74752e-18)
(1.09478 -6.21629e-16 -1.13537e-16)
(1.09478 -5.71943e-16 -2.863e-17)
(1.09591 -6.08967e-16 -1.11933e-16)
(1.09591 -5.66514e-16 -6.07764e-17)
(1.09696 -5.83291e-16 -1.12358e-16)
(1.09696 -5.31884e-16 -6.01282e-17)
(1.09792 -5.56942e-16 -9.60631e-17)
(1.09792 -5.07805e-16 -7.51977e-17)
(1.09879 -5.26967e-16 -1.01357e-16)
(1.09879 -4.92558e-16 -5.938e-17)
(1.09956 -4.78138e-16 -1.12506e-16)
(1.09956 -4.84569e-16 -3.79172e-17)
(1.10022 -4.17264e-16 -9.87918e-17)
(1.10022 -4.79888e-16 -4.58221e-17)
(1.10076 -5.06774e-16 -1.48399e-16)
(1.10076 -4.48648e-16 -6.14216e-17)
(1.10118 -4.46764e-16 -1.13139e-16)
(1.10118 -4.2506e-16 -3.4014e-17)
(1.10147 -4.04766e-16 -1.26211e-16)
(1.10147 -4.62832e-16 -3.79199e-17)
(1.10161 -4.08035e-16 -1.13555e-16)
(1.10161 -4.62937e-16 1.66485e-17)
(0.00569167 -3.99198e-19 1.43088e-17)
(0.00569167 -2.52413e-19 4.6424e-18)
(0.0171791 -2.7779e-19 3.77884e-17)
(0.0171791 9.48009e-20 -3.57529e-17)
(0.0288787 -1.22071e-18 3.92105e-17)
(0.0288787 -3.30326e-19 -3.7115e-17)
(0.0407944 -1.92985e-18 4.06853e-17)
(0.0407944 -5.56144e-19 -3.85361e-17)
(0.05293 -2.65954e-18 4.22144e-17)
(0.05293 -8.08896e-19 -4.00194e-17)
(0.0652894 -3.45345e-18 4.3799e-17)
(0.0652894 -1.07049e-18 -4.15685e-17)
(0.0778758 -4.27158e-18 4.54372e-17)
(0.0778758 -1.27214e-18 -4.31839e-17)
(0.0906922 -5.1248e-18 4.71279e-17)
(0.0906922 -1.44489e-18 -4.48644e-17)
(0.10374 -6.10244e-18 4.88649e-17)
(0.10374 -1.63082e-18 -4.66069e-17)
(0.117019 -7.11751e-18 5.0643e-17)
(0.117019 -1.89789e-18 -4.84071e-17)
(0.130526 -8.17316e-18 5.24482e-17)
(0.130526 -2.16748e-18 -5.02521e-17)
(0.144254 -9.25696e-18 5.42606e-17)
(0.144254 -2.42072e-18 -5.21267e-17)
(0.15819 -1.04735e-17 5.60576e-17)
(0.15819 -2.74043e-18 -5.40092e-17)
(0.172315 -1.18293e-17 5.78043e-17)
(0.172315 -2.98928e-18 -5.58667e-17)
(0.186603 -1.3195e-17 5.94595e-17)
(0.186603 -3.26766e-18 -5.76608e-17)
(0.201016 -1.45792e-17 6.09806e-17)
(0.201016 -3.52319e-18 -5.93513e-17)
(0.215511 -1.59156e-17 6.23217e-17)
(0.215511 -3.84545e-18 -6.08934e-17)
(0.230035 -1.73387e-17 6.34378e-17)
(0.230035 -4.13796e-18 -6.22395e-17)
(0.244528 -1.89291e-17 6.42939e-17)
(0.244528 -4.45587e-18 -6.33549e-17)
(0.258927 -2.05118e-17 6.48675e-17)
(0.258927 -4.82019e-18 -6.42179e-17)
(0.27317 -2.22611e-17 6.51445e-17)
(0.27317 -4.88916e-18 -6.48131e-17)
(0.287195 -2.3783e-17 6.51322e-17)
(0.287195 -5.09972e-18 -6.51401e-17)
(0.300949 -2.50706e-17 6.48613e-17)
(0.300949 -5.8396e-18 -6.52252e-17)
(0.314385 -2.63461e-17 6.43659e-17)
(0.314385 -6.72369e-18 -6.50974e-17)
(0.327467 -2.75781e-17 6.36765e-17)
(0.327467 -7.6047e-18 -6.47814e-17)
(0.34017 -2.89181e-17 6.28359e-17)
(0.34017 -8.58528e-18 -6.43225e-17)
(0.352476 -3.02305e-17 6.18846e-17)
(0.352476 -9.2516e-18 -6.37552e-17)
(0.364376 -3.14059e-17 6.08544e-17)
(0.364376 -9.93848e-18 -6.30963e-17)
(0.375869 -3.25613e-17 5.97805e-17)
(0.375869 -1.0703e-17 -6.2383e-17)
(0.386961 -3.38127e-17 5.86916e-17)
(0.386961 -1.1623e-17 -6.16458e-17)
(0.39766 -3.53871e-17 5.76064e-17)
(0.39766 -1.23437e-17 -6.08985e-17)
(0.407977 -3.72054e-17 5.65227e-17)
(0.407977 -1.26858e-17 -6.01545e-17)
(0.417929 -3.88925e-17 5.54596e-17)
(0.417929 -1.33604e-17 -5.94265e-17)
(0.42753 -4.0372e-17 5.44261e-17)
(0.42753 -1.43279e-17 -5.87244e-17)
(0.436797 -4.17948e-17 5.34304e-17)
(0.436797 -1.48312e-17 -5.80559e-17)
(0.445747 -4.29002e-17 5.24755e-17)
(0.445747 -1.54344e-17 -5.74216e-17)
(0.454397 -4.3493e-17 5.15686e-17)
(0.454397 -1.63064e-17 -5.68383e-17)
(0.462762 -4.44321e-17 5.07224e-17)
(0.462762 -1.68937e-17 -5.63183e-17)
(0.470859 -4.5823e-17 4.99221e-17)
(0.470859 -1.82805e-17 -5.58627e-17)
(0.478702 -4.7387e-17 4.91741e-17)
(0.478702 -1.89851e-17 -5.5482e-17)
(0.486307 -4.88869e-17 4.84688e-17)
(0.486307 -1.87801e-17 -5.51585e-17)
(0.493686 -5.05969e-17 4.78162e-17)
(0.493686 -1.97416e-17 -5.48925e-17)
(0.500851 -5.24177e-17 4.71858e-17)
(0.500851 -2.05358e-17 -5.46789e-17)
(0.507816 -5.41369e-17 4.65957e-17)
(0.507816 -2.11255e-17 -5.45294e-17)
(0.514591 -5.58072e-17 4.60329e-17)
(0.514591 -2.07005e-17 -5.44288e-17)
(0.521187 -5.77118e-17 4.55006e-17)
(0.521187 -1.97589e-17 -5.43722e-17)
(0.527614 -5.99133e-17 4.49666e-17)
(0.527614 -2.07389e-17 -5.43594e-17)
(0.53388 -6.13649e-17 4.44726e-17)
(0.53388 -2.14357e-17 -5.43925e-17)
(0.539994 -6.32198e-17 4.4011e-17)
(0.539994 -2.12882e-17 -5.44655e-17)
(0.545965 -6.53863e-17 4.35603e-17)
(0.545965 -2.22758e-17 -5.46041e-17)
(0.5518 -6.6806e-17 4.31144e-17)
(0.5518 -2.35455e-17 -5.47656e-17)
(0.557505 -6.80877e-17 4.26722e-17)
(0.557505 -2.34297e-17 -5.49458e-17)
(0.563088 -6.9796e-17 4.22418e-17)
(0.563088 -2.40879e-17 -5.51637e-17)
(0.568554 -7.16253e-17 4.17853e-17)
(0.568554 -2.52387e-17 -5.53577e-17)
(0.57391 -7.32167e-17 4.13335e-17)
(0.57391 -2.55632e-17 -5.55597e-17)
(0.57916 -7.47751e-17 4.0891e-17)
(0.57916 -2.66743e-17 -5.5794e-17)
(0.58431 -7.60021e-17 4.04436e-17)
(0.58431 -2.71607e-17 -5.60079e-17)
(0.589364 -7.70763e-17 4.00219e-17)
(0.589364 -2.69655e-17 -5.62344e-17)
(0.594327 -7.86874e-17 3.95742e-17)
(0.594327 -2.68251e-17 -5.64284e-17)
(0.599203 -8.01176e-17 3.90977e-17)
(0.599203 -2.73298e-17 -5.6566e-17)
(0.603996 -8.10026e-17 3.86318e-17)
(0.603996 -2.78717e-17 -5.66521e-17)
(0.608709 -8.19185e-17 3.81784e-17)
(0.608709 -2.78517e-17 -5.66767e-17)
(0.613347 -8.2736e-17 3.77521e-17)
(0.613347 -2.80621e-17 -5.66229e-17)
(0.617912 -8.40646e-17 3.73336e-17)
(0.617912 -2.84441e-17 -5.64761e-17)
(0.622407 -8.56895e-17 3.69509e-17)
(0.622407 -3.05322e-17 -5.63021e-17)
(0.626836 -8.76431e-17 3.65845e-17)
(0.626836 -3.24906e-17 -5.61112e-17)
(0.631201 -8.93895e-17 3.62271e-17)
(0.631201 -3.34755e-17 -5.59178e-17)
(0.635504 -9.07508e-17 3.58368e-17)
(0.635504 -3.49077e-17 -5.56995e-17)
(0.639749 -9.2314e-17 3.53935e-17)
(0.639749 -3.70071e-17 -5.54255e-17)
(0.643938 -9.41923e-17 3.49476e-17)
(0.643938 -3.78784e-17 -5.50989e-17)
(0.648072 -9.60175e-17 3.45014e-17)
(0.648072 -3.85971e-17 -5.47923e-17)
(0.652154 -9.74586e-17 3.40207e-17)
(0.652154 -4.06917e-17 -5.44383e-17)
(0.656186 -9.99537e-17 3.34464e-17)
(0.656186 -4.07495e-17 -5.39993e-17)
(0.66017 -1.02499e-16 3.27079e-17)
(0.66017 -4.12243e-17 -5.34661e-17)
(0.664107 -1.03933e-16 3.18555e-17)
(0.664107 -4.23984e-17 -5.29116e-17)
(0.668 -1.04434e-16 3.09828e-17)
(0.668 -4.33914e-17 -5.22852e-17)
(0.67185 -1.04809e-16 3.01691e-17)
(0.67185 -4.24486e-17 -5.16516e-17)
(0.675658 -1.06125e-16 2.94327e-17)
(0.675658 -4.46578e-17 -5.09964e-17)
(0.679426 -1.06756e-16 2.86707e-17)
(0.679426 -4.78848e-17 -5.01951e-17)
(0.683155 -1.07515e-16 2.79453e-17)
(0.683155 -4.62868e-17 -4.9252e-17)
(0.686848 -1.09548e-16 2.7332e-17)
(0.686848 -4.67511e-17 -4.82252e-17)
(0.690504 -1.11902e-16 2.67993e-17)
(0.690504 -4.64628e-17 -4.70374e-17)
(0.694125 -1.1407e-16 2.62321e-17)
(0.694125 -4.68568e-17 -4.57206e-17)
(0.697713 -1.15191e-16 2.57019e-17)
(0.697713 -4.97053e-17 -4.44013e-17)
(0.701269 -1.16162e-16 2.51673e-17)
(0.701269 -5.04934e-17 -4.30447e-17)
(0.704793 -1.16697e-16 2.45982e-17)
(0.704793 -5.02401e-17 -4.14211e-17)
(0.708287 -1.14356e-16 2.40511e-17)
(0.708287 -5.3045e-17 -3.95747e-17)
(0.711752 -1.12488e-16 2.34759e-17)
(0.711752 -5.37938e-17 -3.74622e-17)
(0.715188 -1.14529e-16 2.30024e-17)
(0.715188 -5.17113e-17 -3.50071e-17)
(0.718596 -1.18231e-16 2.2292e-17)
(0.718596 -5.17023e-17 -3.23966e-17)
(0.721979 -1.20942e-16 2.15111e-17)
(0.721979 -5.36904e-17 -2.96832e-17)
(0.725335 -1.20133e-16 2.09016e-17)
(0.725335 -5.53652e-17 -2.70083e-17)
(0.728666 -1.1951e-16 2.06788e-17)
(0.728666 -5.7236e-17 -2.4436e-17)
(0.731973 -1.23233e-16 2.04696e-17)
(0.731973 -5.95528e-17 -2.18113e-17)
(0.735257 -1.27888e-16 2.01941e-17)
(0.735257 -5.85486e-17 -1.91847e-17)
(0.738518 -1.31432e-16 1.99518e-17)
(0.738518 -5.6727e-17 -1.65401e-17)
(0.741757 -1.35335e-16 1.97902e-17)
(0.741757 -5.81952e-17 -1.40028e-17)
(0.744975 -1.37748e-16 1.94354e-17)
(0.744975 -5.84106e-17 -1.14049e-17)
(0.748171 -1.39811e-16 1.91088e-17)
(0.748171 -5.96236e-17 -8.7757e-18)
(0.751348 -1.43135e-16 1.86976e-17)
(0.751348 -6.48317e-17 -6.07065e-18)
(0.754505 -1.45377e-16 1.83606e-17)
(0.754505 -6.51796e-17 -3.40764e-18)
(0.757643 -1.47009e-16 1.82032e-17)
(0.757643 -6.44702e-17 -8.08258e-19)
(0.760763 -1.4738e-16 1.79948e-17)
(0.760763 -6.81536e-17 1.62479e-18)
(0.763865 -1.47289e-16 1.77038e-17)
(0.763865 -6.99397e-17 3.98406e-18)
(0.766949 -1.47504e-16 1.77345e-17)
(0.766949 -7.04265e-17 6.09419e-18)
(0.770016 -1.48218e-16 1.79343e-17)
(0.770016 -7.44815e-17 7.94952e-18)
(0.773067 -1.4851e-16 1.82822e-17)
(0.773067 -7.45151e-17 9.75652e-18)
(0.776102 -1.49415e-16 1.85821e-17)
(0.776102 -7.21042e-17 1.16216e-17)
(0.779122 -1.53003e-16 1.88742e-17)
(0.779122 -7.1424e-17 1.3201e-17)
(0.782126 -1.57924e-16 1.92323e-17)
(0.782126 -7.42117e-17 1.46229e-17)
(0.785116 -1.60809e-16 1.93676e-17)
(0.785116 -7.57571e-17 1.5963e-17)
(0.788091 -1.62858e-16 1.95158e-17)
(0.788091 -7.33429e-17 1.73355e-17)
(0.791052 -1.6245e-16 1.92783e-17)
(0.791052 -7.41506e-17 1.86078e-17)
(0.794 -1.61514e-16 1.94083e-17)
(0.794 -7.53321e-17 2.00115e-17)
(0.796934 -1.63595e-16 1.9395e-17)
(0.796934 -7.65455e-17 2.13661e-17)
(0.799856 -1.59893e-16 1.93117e-17)
(0.799856 -7.6569e-17 2.26633e-17)
(0.802765 -1.58001e-16 1.95962e-17)
(0.802765 -7.27839e-17 2.44079e-17)
(0.805662 -1.64178e-16 1.94982e-17)
(0.805662 -7.55285e-17 2.65331e-17)
(0.808547 -1.66885e-16 1.90275e-17)
(0.808547 -8.15811e-17 2.86845e-17)
(0.811421 -1.65542e-16 1.92064e-17)
(0.811421 -8.59111e-17 3.05567e-17)
(0.814283 -1.67408e-16 1.96964e-17)
(0.814283 -8.7145e-17 3.15259e-17)
(0.817134 -1.7019e-16 2.03237e-17)
(0.817134 -8.31658e-17 3.19346e-17)
(0.819975 -1.72995e-16 1.97552e-17)
(0.819975 -8.04381e-17 3.21865e-17)
(0.822805 -1.75296e-16 1.84659e-17)
(0.822805 -8.33085e-17 3.22071e-17)
(0.825625 -1.74909e-16 1.74413e-17)
(0.825625 -8.37595e-17 3.15167e-17)
(0.828435 -1.73079e-16 1.65282e-17)
(0.828435 -8.41311e-17 3.07706e-17)
(0.831235 -1.72212e-16 1.58922e-17)
(0.831235 -8.74694e-17 2.99707e-17)
(0.834025 -1.7297e-16 1.53764e-17)
(0.834025 -8.37818e-17 2.89935e-17)
(0.836807 -1.71284e-16 1.47271e-17)
(0.836807 -8.29393e-17 2.7706e-17)
(0.839579 -1.68743e-16 1.41939e-17)
(0.839579 -8.26223e-17 2.64437e-17)
(0.842342 -1.68978e-16 1.26707e-17)
(0.842342 -8.01014e-17 2.66738e-17)
(0.845097 -1.69094e-16 1.14929e-17)
(0.845097 -7.84199e-17 2.66365e-17)
(0.847843 -1.68413e-16 1.08992e-17)
(0.847843 -7.99364e-17 2.60054e-17)
(0.850582 -1.72923e-16 1.11966e-17)
(0.850582 -8.40532e-17 2.42881e-17)
(0.853312 -1.79186e-16 1.10489e-17)
(0.853312 -8.62384e-17 2.31954e-17)
(0.856034 -1.84616e-16 1.12539e-17)
(0.856034 -8.5557e-17 2.136e-17)
(0.858748 -1.89225e-16 1.16323e-17)
(0.858748 -8.38168e-17 1.82958e-17)
(0.861455 -1.88699e-16 1.27012e-17)
(0.861455 -8.58224e-17 1.2483e-17)
(0.864154 -1.87257e-16 1.49727e-17)
(0.864154 -8.93809e-17 7.52771e-18)
(0.866846 -1.88227e-16 1.67008e-17)
(0.866846 -9.44151e-17 2.21675e-18)
(0.869531 -1.90807e-16 1.88875e-17)
(0.869531 -9.48706e-17 2.1418e-18)
(0.872209 -1.94265e-16 2.19117e-17)
(0.872209 -9.44351e-17 1.57609e-18)
(0.87488 -1.93261e-16 2.36951e-17)
(0.87488 -9.83457e-17 1.22761e-18)
(0.877544 -1.92093e-16 2.61648e-17)
(0.877544 -9.85418e-17 6.61843e-19)
(0.880202 -1.95511e-16 2.73767e-17)
(0.880202 -1.00847e-16 8.39751e-19)
(0.882853 -1.9632e-16 2.82192e-17)
(0.882853 -1.06751e-16 1.03702e-18)
(0.885498 -2.01133e-16 2.9221e-17)
(0.885498 -1.10571e-16 1.43518e-18)
(0.888137 -2.05904e-16 2.96787e-17)
(0.888137 -1.16619e-16 1.68158e-18)
(0.890769 -2.02299e-16 3.03825e-17)
(0.890769 -1.19731e-16 1.21404e-18)
(0.893395 -2.10219e-16 3.09921e-17)
(0.893395 -1.27847e-16 -5.13891e-19)
(0.896016 -2.21739e-16 2.81798e-17)
(0.896016 -1.37021e-16 -2.56151e-19)
(0.89863 -2.2063e-16 2.591e-17)
(0.89863 -1.29188e-16 -5.17335e-19)
(0.901239 -2.15896e-16 2.32526e-17)