/*--------------------------------*- C++ -*----------------------------------*\
| =========                 |                                                 |
| \\      /  F ield         | OpenFOAM: The Open Source CFD Toolbox           |
|  \\    /   O peration     | Version:  2106                                  |
|   \\  /    A nd           | Website:  www.openfoam.com                      |
|    \\/     M anipulation  |                                                 |
\*---------------------------------------------------------------------------*/
FoamFile
{
    version     2.0;
    format      ascii;
    arch        "LSB;label=32;scalar=64";
    class       volTensorField;
    location    "10080";
    object      grad(U);
}
// * * * * * * * * * * * * * * * * * * * * * * * * * * * * * * * * * * * * * //

dimensions      [0 0 -1 0 0 0 0];

internalField   nonuniform List<tensor> 
2000
(
(-3.57577e-18 -6.40694e-26 1.01629e-31 10.5618 -8.53993e-12 -9.03745e-14 0.0195478 -7.90265e-15 -1.15315e-16)
(3.57577e-18 -6.50429e-30 -1.01629e-31 10.5618 -8.363e-16 1.95348e-15 0.0195478 -1.60088e-18 2.86104e-18)
(0 -5.60519e-45 2.67659e-31 10.5598 0 -1.56203e-14 0.0590011 0 -5.8894e-17)
(-7.02049e-18 -2.55404e-29 -2.24476e-31 10.5598 -5.16056e-16 1.71449e-15 0.0590011 -1.5065e-18 9.50574e-18)
(-2.40564e-18 -9.41387e-30 -7.07729e-32 10.5578 8.28412e-13 -6.02074e-15 0.0818489 -6.19293e-15 -3.33664e-17)
(0 1.88043e-29 1.46908e-31 10.5578 -9.08091e-16 1.26514e-16 0.0818489 -3.39934e-18 9.78013e-18)
(-7.87529e-18 -2.28759e-31 -2.00891e-32 10.5558 4.76889e-13 -4.41374e-15 0.0833604 -6.53712e-15 -3.57293e-17)
(3.15011e-17 1.23065e-29 1.48008e-31 10.5558 -8.28074e-16 1.2058e-16 0.0833604 -4.99199e-18 1.01191e-17)
(0 9.06071e-30 1.41574e-31 10.5537 4.02097e-14 -4.68872e-15 0.0848994 -8.737e-16 -3.90484e-17)
(0 -3.02024e-30 -9.43824e-32 10.5537 -8.23575e-16 1.17464e-16 0.0848994 -6.48953e-18 1.04763e-17)
(0 2.96489e-29 2.31632e-31 10.5515 -2.15069e-14 -4.91506e-15 0.0864665 -1.04977e-16 -4.07856e-17)
(-7.64784e-17 -2.96489e-29 -2.35648e-31 10.5515 -8.55457e-16 1.15424e-16 0.0864665 -8.075e-18 1.08306e-17)
(5.12031e-17 -3.44637e-28 -9.09551e-32 10.5494 -1.80649e-27 -5.02126e-15 0.088062 -3.15544e-30 -4.2293e-17)
(9.9592e-17 1.16422e-29 1.86041e-31 10.5494 -8.45404e-16 1.13627e-16 0.088062 -9.8636e-18 1.11796e-17)
(0 -5.71445e-30 4.46442e-32 10.5471 2.85165e-15 -5.11957e-15 0.0896866 -2.30544e-17 -4.39947e-17)
(2.46265e-16 1.14289e-29 8.50874e-33 10.5471 -8.29703e-16 1.12124e-16 0.0896866 -1.16471e-17 1.15103e-17)
(-3.67768e-17 3.73226e-30 3.34964e-32 10.5448 2.07456e-15 -5.22954e-15 0.0913407 -2.50181e-17 -4.5792e-17)
(0 1.12195e-29 8.76522e-32 10.5448 -8.65901e-16 1.10741e-16 0.0913407 -1.32987e-17 1.18197e-17)
(4.84396e-17 -1.10139e-29 -1.29069e-31 10.5425 1.16113e-15 -5.34157e-15 0.0930249 -1.04591e-17 -4.76296e-17)
(0 1.65208e-29 1.29069e-31 10.5425 -9.00152e-16 1.08371e-16 0.0930249 -1.50989e-17 1.21163e-17)
(1.90208e-16 -3.78422e-29 -4.22346e-31 10.5401 1.2547e-15 -5.45295e-15 0.0947396 -9.83918e-18 -4.95201e-17)
(0 3.78422e-29 3.80111e-31 10.5401 -9.36511e-16 1.057e-16 0.0947396 -1.71181e-17 1.24039e-17)
(5.54296e-17 1.21876e-29 8.6795e-32 10.5376 1.46746e-15 -5.56493e-15 0.0964854 -1.25354e-17 -5.14754e-17)
(2.21718e-16 -1.06139e-29 -7.80947e-32 10.5376 -1.02135e-15 1.04808e-16 0.0964854 -1.93292e-17 1.26583e-17)
(0 0 0 10.5351 1.59986e-15 -5.6787e-15 0.0982629 -1.41066e-17 -5.35087e-17)
(0 0 0 10.5351 -1.11409e-15 1.03776e-16 0.0982629 -2.18879e-17 1.28594e-17)
(-2.48387e-16 2.93034e-29 4.00185e-31 10.5326 1.67549e-15 -5.79444e-15 0.100073 -1.54779e-17 -5.56146e-17)
(8.99708e-17 -2.0457e-29 -3.19641e-31 10.5326 -1.12334e-15 1.0141e-16 0.100073 -2.45903e-17 1.30461e-17)
(-1.63456e-16 2.38138e-29 1.99071e-31 10.53 1.63725e-15 -5.91203e-15 0.101915 -1.60754e-17 -5.78015e-17)
(0 -5.02053e-30 0 10.53 -1.11504e-15 9.89868e-17 0.101915 -2.72047e-17 1.32189e-17)
(2.55352e-16 -2.34455e-29 -1.97847e-31 10.5273 1.58713e-15 -6.03215e-15 0.103791 -1.5321e-17 -6.00792e-17)
(-4.14483e-16 1.97141e-29 1.48418e-31 10.5273 -1.17738e-15 9.7824e-17 0.103791 -2.9908e-17 1.33493e-17)
(0 -1.45147e-29 -1.51194e-31 10.5246 1.68545e-15 -6.15445e-15 0.105701 -1.56927e-17 -6.24365e-17)
(0 1.93529e-29 1.51194e-31 10.5246 -1.18553e-15 9.78538e-17 0.105701 -3.30034e-17 1.34185e-17)
(3.59003e-16 -3.12082e-29 -5.3993e-31 10.5218 1.85251e-15 -6.27879e-15 0.107645 -1.78735e-17 -6.48875e-17)
(2.16675e-16 2.37478e-29 4.51388e-31 10.5218 -1.22223e-15 9.9792e-17 0.107645 -3.59719e-17 1.3403e-17)
(-1.03141e-16 1.30545e-29 1.22034e-31 10.519 1.88126e-15 -6.4054e-15 0.109624 -1.97026e-17 -6.74285e-17)
(0 -4.66253e-30 7.2852e-32 10.519 -1.32422e-15 1.01868e-16 0.109624 -3.92583e-17 1.32699e-17)
(1.10468e-16 -1.28832e-29 -1.94139e-31 10.516 1.86411e-15 -6.53488e-15 0.111639 -1.91464e-17 -7.00823e-17)
(4.41873e-16 1.37313e-29 2.92911e-31 10.516 -1.28761e-15 1.0197e-16 0.111639 -4.31336e-17 1.30604e-17)
(-1.1793e-16 3.72843e-30 5.31056e-32 10.5131 2.01447e-15 -6.66687e-15 0.113691 -2.00808e-17 -7.28244e-17)
(9.4344e-16 0 1.45763e-32 10.5131 -1.31127e-15 1.05542e-16 0.113691 -4.67241e-17 1.27129e-17)
(-1.55194e-16 8.82175e-30 1.3784e-31 10.51 2.11683e-15 -6.80062e-15 0.115779 -2.31205e-17 -7.56703e-17)
(5.02116e-16 -4.41088e-30 7.82305e-33 10.51 -1.43318e-15 1.09552e-16 0.115779 -5.04533e-17 1.22155e-17)
(1.5235e-16 -1.29901e-29 -2.02971e-31 10.5069 2.12745e-15 -6.93732e-15 0.117905 -2.30931e-17 -7.8637e-17)
(3.80721e-16 1.73202e-29 2.79036e-31 10.5069 -1.44447e-15 1.11221e-16 0.117905 -5.44272e-17 1.16176e-17)
(0 1.27521e-29 1.99252e-31 10.5037 2.23632e-15 -7.0766e-15 0.120069 -2.423e-17 -8.17066e-17)
(5.64595e-16 -4.2507e-30 -5.73504e-32 10.5037 -1.51533e-15 1.15183e-16 0.120069 -5.86783e-17 1.08775e-17)
(-1.49175e-16 -4.62046e-30 -3.28003e-33 10.5005 2.23907e-15 -7.21804e-15 0.122272 -2.64526e-17 -8.48946e-17)
(0 1.66912e-29 1.956e-31 10.5005 -1.52194e-15 1.19682e-16 0.122272 -6.3564e-17 9.95836e-18)
(1.44127e-16 -2.45781e-29 -5.12043e-31 10.4971 2.23915e-15 -7.36256e-15 0.124514 -2.52072e-17 -8.82146e-17)
(4.85264e-16 2.45781e-29 5.22726e-31 10.4971 -1.46205e-15 1.22838e-16 0.124514 -6.84795e-17 8.83743e-18)
(4.00274e-16 -8.34015e-30 -5.88065e-32 10.4937 2.32225e-15 -7.50918e-15 0.126797 -2.74512e-17 -9.16375e-17)
(-2.82972e-16 1.60851e-29 1.25665e-31 10.4937 -1.54514e-15 1.2428e-16 0.126797 -7.29893e-17 7.53376e-18)
(-1.74147e-16 3.72283e-30 6.94689e-32 10.4902 2.32104e-15 -7.65895e-15 0.12912 -2.81656e-17 -9.52261e-17)
(0 7.89518e-30 1.23362e-31 10.4902 -1.49551e-15 1.24785e-16 0.12912 -7.79269e-17 6.13473e-18)
(-2.72697e-16 7.75051e-30 3.63305e-31 10.4866 2.51024e-15 -7.8128e-15 0.131485 -2.84558e-17 -9.89493e-17)
(0 0 -2.42203e-31 10.4866 -1.67161e-15 1.28023e-16 0.131485 -8.27243e-17 4.46736e-18)
(-7.26967e-16 3.79586e-29 1.02606e-30 10.4829 2.86898e-15 -7.96857e-15 0.133892 -3.39724e-17 -1.02794e-16)
(-4.98571e-16 -2.66297e-29 -8.47254e-31 10.4829 -1.95702e-15 1.42115e-16 0.133892 -8.88861e-17 2.3891e-18)
(2.00518e-16 1.56924e-32 -7.79322e-32 10.4792 3.09762e-15 -8.12702e-15 0.136341 -3.86937e-17 -1.06802e-16)
(8.02073e-16 -3.73453e-30 1.55209e-32 10.4792 -1.80895e-15 1.5188e-16 0.136341 -9.45768e-17 1.95744e-18)
(-2.57978e-16 7.33219e-30 3.43696e-31 10.4753 3.07799e-15 -8.28878e-15 0.138834 -4.12031e-17 -1.10956e-16)
(0 0 -2.29131e-31 10.4753 -1.83948e-15 1.52736e-16 0.138834 -9.87492e-17 2.05536e-18)
(-4.72165e-16 2.17113e-29 4.21554e-31 10.4713 2.94442e-15 -8.45349e-15 0.141372 -3.96313e-17 -1.15275e-16)
(2.53251e-16 -1.79946e-29 -3.37398e-31 10.4713 -2.04627e-15 1.60142e-16 0.141372 -1.05263e-16 2.23122e-18)
(-2.28366e-16 -3.35007e-30 -1.33357e-31 10.4672 2.92303e-15 -8.6215e-15 0.143953 -3.91484e-17 -1.19759e-16)
(0 1.76648e-29 3.31215e-31 10.4672 -1.95322e-15 1.64197e-16 0.143953 -1.1278e-16 2.24436e-18)
(2.44055e-16 -2.42776e-29 -6.50292e-31 10.463 2.9592e-15 -1.16859e-14 0.146581 -4.05361e-17 -2.05496e-16)
(7.07905e-16 2.42776e-29 6.66273e-31 10.463 -1.8716e-15 1.68871e-16 0.146581 -1.18584e-16 2.44627e-18)
(0 1.70234e-29 3.19188e-31 10.4587 3.10401e-15 -1.84778e-14 0.149254 -4.16374e-17 -3.18166e-16)
(-2.39582e-16 -1.0214e-29 -1.06396e-31 10.4587 -2.06226e-15 1.79456e-16 0.149254 -1.2571e-16 2.63112e-18)
(2.57769e-16 -3.69331e-31 2.45934e-32 10.4542 3.10739e-15 -2.26184e-14 0.151974 -4.61975e-17 -3.33651e-16)
(7.95884e-16 -3.34228e-30 -8.84838e-32 10.4542 -2.11585e-15 1.93642e-16 0.151974 -1.34432e-16 2.95096e-18)
(-2.6793e-16 -1.26943e-29 -9.36236e-31 10.4496 2.99104e-15 -2.32846e-14 0.154742 -4.33047e-17 -3.4989e-16)
(1.07172e-15 1.96862e-29 1.04136e-30 10.4496 -2.14865e-15 2.03847e-16 0.154742 -1.41591e-16 3.03259e-18)
(-2.78277e-16 -1.23949e-29 -9.07756e-31 10.4449 3.39688e-15 -2.3969e-14 0.157557 -4.44917e-17 -3.66877e-16)
(0 1.93255e-29 1.00653e-30 10.4449 -2.3488e-15 2.03855e-16 0.157557 -1.50482e-16 3.0624e-18)
(0 1.89713e-29 1.18571e-30 10.4399 3.90043e-15 -1.75005e-14 0.160421 -5.71832e-17 -1.64235e-16)
(1.15525e-15 -1.89713e-29 -1.16971e-30 10.4399 -2.45847e-15 2.12584e-16 0.160421 -1.59733e-16 3.4152e-18)
(-5.99079e-16 1.36158e-29 8.76792e-31 10.4348 3.7394e-15 -1.00672e-14 0.163334 -6.16471e-17 -1.47938e-16)
(1.19816e-15 0 -1.78107e-31 10.4348 -2.56647e-15 2.2976e-16 0.163334 -1.69127e-16 3.71562e-18)
(0 -3.04707e-30 -5.71326e-31 10.4295 3.49666e-15 -9.48329e-15 0.166296 -5.42956e-17 -1.51798e-16)
(0 9.14121e-30 5.71326e-31 10.4295 -2.47544e-15 2.31025e-16 0.166296 -1.80451e-16 3.58424e-18)
(0 -5.98247e-30 -3.73904e-31 10.4239 3.69996e-15 -9.56163e-15 0.169308 -5.62273e-17 -1.56058e-16)
(0 8.9737e-30 3.73904e-31 10.4239 -2.54004e-15 2.33536e-16 0.169308 -1.89225e-16 3.93722e-18)
(-3.32906e-16 1.54451e-29 5.28189e-31 10.4181 4.03102e-15 -9.65198e-15 0.172371 -6.29474e-17 -1.60509e-16)
(-1.33162e-15 -5.87284e-30 -1.55931e-32 10.4181 -2.73384e-15 2.50066e-16 0.172371 -1.99937e-16 4.26647e-18)
(3.44435e-16 2.06836e-30 3.74561e-31 10.4121 4.24144e-15 -9.7504e-15 0.175484 -6.93039e-17 -1.65257e-16)
(1.37774e-15 0 -3.45075e-31 10.4121 -2.70744e-15 2.702e-16 0.175484 -2.09508e-16 4.76445e-18)
(3.56172e-16 1.89435e-29 1.24396e-30 10.4057 4.10497e-15 -9.84003e-15 0.178648 -7.24145e-17 -1.69636e-16)
(-1.42469e-15 -2.26383e-29 -1.43008e-30 10.4057 -2.78177e-15 2.81118e-16 0.178648 -2.18906e-16 4.80222e-18)
(4.13796e-16 3.69405e-30 -1.7117e-31 10.3991 3.89003e-15 -9.91549e-15 0.181863 -6.72278e-17 -1.74124e-16)
(1.47249e-15 0 3.62057e-31 10.3991 -2.56804e-15 2.89032e-16 0.181863 -2.33367e-16 5.22089e-18)
(7.6759e-16 -2.72703e-29 -1.19307e-30 10.392 4.07529e-15 -9.99389e-15 0.185129 -6.76229e-17 -1.78823e-16)
(2.27472e-15 2.72703e-29 1.39172e-30 10.392 -2.48151e-15 3.21183e-16 0.185129 -2.43979e-16 6.12909e-18)
(3.92674e-16 -3.04598e-29 -1.19059e-30 10.3846 4.40591e-15 -1.00841e-14 0.188447 -7.6364e-17 -1.8396e-16)
(1.57069e-15 2.67706e-29 1.0175e-30 10.3846 -2.80054e-15 3.56058e-16 0.188447 -2.5481e-16 6.68383e-18)
(-4.05282e-16 1.41985e-29 5.2083e-31 10.3767 4.50213e-15 -1.0159e-14 0.191815 -8.2175e-17 -1.88331e-16)
(-1.62113e-15 -5.256e-30 -3.42995e-31 10.3767 -2.97499e-15 3.37146e-16 0.191815 -2.67884e-16 5.66056e-18)
(0 -5.15968e-30 -6.44961e-31 10.3684 4.81754e-15 -1.0217e-14 0.195233 -8.28e-17 -1.93079e-16)
(0 5.15968e-30 0 10.3684 -3.06734e-15 -3.16235e-32 0.195233 -2.81246e-16 0)
(-1.14404e-15 1.38101e-29 1.47022e-30 10.3595 5.41346e-15 -1.02904e-14 0.198701 -9.71547e-17 -1.98244e-16)
(-7.12854e-16 -5.06514e-30 -6.33142e-31 10.3595 -3.10413e-15 -5.91601e-17 0.198701 -2.9339e-16 5.62365e-19)
(0 -4.97232e-30 -9.3231e-31 10.35 5.81187e-15 -1.03649e-14 0.202219 -1.0879e-16 -2.03267e-16)
(0 4.97232e-30 1.24308e-30 10.35 -3.62732e-15 -1.00156e-16 0.202219 -3.10694e-16 1.83845e-18)
(0 9.7624e-30 1.2203e-30 10.3398 5.91911e-15 -1.04399e-14 0.205784 -1.16391e-16 -2.087e-16)
(-1.83208e-15 -1.95248e-29 -1.54222e-30 10.3398 -4.0343e-15 -1.01788e-16 0.205784 -3.33532e-16 2.04277e-18)
(-2.02582e-16 1.07077e-29 6.75901e-31 10.3289 5.8006e-15 -1.05063e-14 0.209396 -1.1716e-16 -2.13622e-16)
(0 -4.79176e-30 -2.99485e-31 10.3289 -3.70221e-15 -1.18638e-16 0.209396 -3.51665e-16 1.97272e-18)
(-4.8582e-16 -1.03923e-30 -6.49522e-32 10.3172 5.64973e-15 -1.05667e-14 0.213053 -1.1597e-16 -2.19059e-16)
(0 4.70395e-30 8.8199e-31 10.3172 -3.6514e-15 -1.46973e-16 0.213053 -3.72752e-16 2.80332e-18)
(-1.00018e-15 -6.52969e-30 -9.7162e-31 10.3045 5.7473e-15 -1.06331e-14 0.216753 -1.15341e-16 -2.24468e-16)
(2.00036e-15 4.61775e-30 1.16945e-30 10.3045 -3.83696e-15 -1.62209e-16 0.216753 -3.94131e-16 3.21802e-18)
(-5.14611e-16 3.65685e-30 5.25824e-31 10.2908 6.15048e-15 -1.07002e-14 0.220494 -1.24447e-16 -2.3019e-16)
(0 0 -2.83321e-31 10.2908 -4.10086e-15 -1.75422e-16 0.220494 -4.15031e-16 3.55032e-18)
(-1.05877e-15 2.95528e-29 2.44594e-30 10.276 6.57625e-15 -1.0761e-14 0.224273 -1.36977e-16 -2.3558e-16)
(-2.11755e-15 -2.22503e-29 -1.96054e-30 10.276 -4.32859e-15 -1.93952e-16 0.224273 -4.39857e-16 3.90588e-18)
(5.44419e-16 9.45972e-30 5.62265e-31 10.2599 6.74716e-15 -1.07888e-14 0.228087 -1.47734e-16 -2.40104e-16)
(-2.17768e-15 -1.74741e-29 -1.37794e-30 10.2599 -4.36304e-15 -2.30914e-16 0.228087 -4.65739e-16 4.49353e-18)
(-6.03548e-16 8.57693e-30 1.07212e-30 10.2424 6.58086e-15 -1.0799e-14 0.231932 -1.49743e-16 -2.44918e-16)
(0 -4.28847e-30 -2.68029e-31 10.2424 -4.16145e-15 -2.7781e-16 0.231932 -4.92474e-16 5.69779e-18)
(-1.15054e-15 -5.35183e-30 -7.72017e-31 10.2234 6.59654e-15 -1.08148e-14 0.235804 -1.45763e-16 -2.49881e-16)
(4.00966e-15 8.41976e-30 1.0718e-30 10.2234 -3.89981e-15 -3.09267e-16 0.235804 -5.15071e-16 6.78863e-18)
(-5.91091e-16 1.60322e-29 1.82927e-30 10.2027 6.82748e-15 -1.08293e-14 0.239697 -1.5611e-16 -2.54832e-16)
(2.36436e-15 -1.23982e-29 -1.54141e-30 10.2027 -4.30698e-15 -3.30023e-16 0.239697 -5.39041e-16 7.36499e-18)
(5.70973e-16 -4.057e-30 -5.07126e-31 10.1801 6.89983e-15 -1.08073e-14 0.243607 -1.62119e-16 -2.58239e-16)
(-5.70973e-16 4.057e-30 5.07126e-31 10.1801 -4.55593e-15 -3.58783e-16 0.243607 -5.66243e-16 8.02073e-18)
(-1.18405e-15 1.15894e-29 7.93502e-31 10.1555 7.2258e-15 -1.0767e-14 0.247528 -1.65459e-16 -2.62471e-16)
(2.49416e-15 0 5.03015e-31 10.1555 -4.31621e-15 -3.83196e-16 0.247528 -5.94141e-16 9.02055e-18)
(0 7.81936e-30 1.46613e-30 10.1286 7.40967e-15 -1.07237e-14 0.251451 -1.84138e-16 -2.65815e-16)
(0 -3.90968e-30 -9.7742e-31 10.1286 -4.36713e-15 -4.09086e-16 0.251451 -6.22356e-16 9.51457e-18)
(-6.57075e-16 1.51265e-29 7.92292e-31 10.0993 7.11031e-15 -1.06515e-14 0.25537 -1.80836e-16 -2.68703e-16)
(0 -7.67607e-30 0 10.0993 -4.39058e-15 -4.4523e-16 0.25537 -6.5374e-16 1.06477e-17)
(0 3.76771e-30 4.70963e-31 10.0674 7.13344e-15 -1.0552e-14 0.259277 -1.75915e-16 -2.70698e-16)
(-1.06051e-15 0 0 10.0674 -4.3363e-15 -4.68306e-16 0.259277 -6.863e-16 1.07062e-17)
(0 -2.2192e-29 -1.84933e-30 10.0325 7.60309e-15 -1.04469e-14 0.263161 -1.88843e-16 -2.73307e-16)
(2.76682e-15 2.2192e-29 1.84933e-30 10.0325 -4.9005e-15 -4.76236e-16 0.263161 -7.19257e-16 8.19898e-18)
(0 2.54162e-29 2.2693e-30 9.99453 8.17709e-15 -1.0343e-14 0.267014 -2.07227e-16 -2.75334e-16)
(0 -2.54162e-29 -2.2693e-30 9.99453 -5.5898e-15 -5.02709e-16 0.267014 -7.54854e-16 4.46261e-18)
(-7.2743e-16 3.58613e-30 7.93443e-31 9.9532 8.90706e-15 -1.02251e-14 0.270824 -2.2669e-16 -2.77179e-16)
(2.90972e-15 3.56435e-30 0 9.9532 -5.62078e-15 -5.46726e-16 0.270824 -7.94763e-16 1.85032e-19)
(9.84891e-16 -2.09942e-29 -3.06166e-30 9.90828 9.0252e-15 -1.00917e-14 0.27458 -2.54847e-16 -2.78295e-16)
(1.99791e-15 2.09942e-29 3.06166e-30 9.90828 -5.42102e-15 -5.87943e-16 0.27458 -8.42074e-16 -3.76003e-18)
(-2.69793e-15 2.41803e-29 3.37224e-30 9.85951 8.23393e-15 -9.87901e-15 0.278269 -2.41795e-16 -2.75588e-16)
(-1.12328e-15 -2.06095e-29 -3.00555e-30 9.85951 -5.31591e-15 -6.56287e-16 0.278269 -8.83262e-16 -7.2636e-18)
(9.49126e-16 -6.74395e-30 -1.68599e-30 9.80667 7.92919e-15 -9.59048e-15 0.28188 -2.1967e-16 -2.72148e-16)
(-3.1322e-15 6.74395e-30 1.68599e-30 9.80667 -5.09178e-15 -7.44106e-16 0.28188 -9.25148e-16 -1.15084e-17)
(-1.60424e-15 7.12354e-30 7.71318e-31 9.74951 8.36101e-15 -9.31931e-15 0.285398 -2.33339e-16 -2.70048e-16)
(3.20848e-15 0 0 9.74951 -5.28283e-15 -7.80141e-16 0.285398 -9.6021e-16 -1.66947e-17)
(-1.6429e-15 7.10507e-30 1.19598e-30 9.68782 9.29053e-15 -9.08069e-15 0.288811 -2.53306e-16 -2.68129e-16)
(0 0 -4.06191e-31 9.68782 -5.9083e-15 -8.03765e-16 0.288811 -9.99784e-16 -2.2625e-17)
(8.97899e-16 -3.18998e-30 -3.98747e-31 9.62138 1.05616e-14 -8.81749e-15 0.292104 -2.97736e-16 -2.64185e-16)
(2.46623e-15 3.18998e-30 3.98747e-31 9.62138 -6.70209e-15 -8.58392e-16 0.292104 -1.03962e-15 -3.02044e-17)
(-1.74231e-15 3.17074e-29 4.32759e-30 9.55 1.11839e-14 -8.5632e-15 0.295263 -3.40308e-16 -2.62447e-16)
(-3.44345e-15 -2.19207e-29 -3.13152e-30 9.55 -6.97805e-15 -8.71835e-16 0.295263 -1.10117e-15 -3.59971e-17)
(8.80934e-16 -1.27361e-29 -1.96016e-30 9.47353 1.06929e-14 -8.23565e-15 0.298275 -3.47584e-16 -2.53428e-16)
(0 9.22242e-30 1.53707e-30 9.47353 -6.17101e-15 -9.05884e-16 0.298275 -1.16871e-15 -4.05495e-17)
(2.60011e-15 -1.55797e-29 -1.94164e-30 9.39181 9.97824e-15 -7.79724e-15 0.301126 -3.22084e-16 -2.44097e-16)
(-5.30381e-15 1.20712e-29 1.5089e-30 9.39181 -6.12503e-15 -1.01869e-15 0.301126 -1.21309e-15 -4.86322e-17)
(-3.51126e-15 1.58902e-29 3.10591e-30 9.30474 9.8255e-15 -7.36221e-15 0.303802 -3.14648e-16 -2.34432e-16)
(0 -5.92501e-30 -1.48125e-30 9.30474 -6.23899e-15 -1.13397e-15 0.303802 -1.27537e-15 -5.89808e-17)
(0 5.81644e-30 2.18116e-30 9.21227 1.05067e-14 -6.8903e-15 0.306291 -3.24198e-16 -2.21752e-16)
(0 -1.16329e-29 -2.90822e-30 9.21227 -6.45702e-15 -1.22272e-15 0.306291 -1.32568e-15 -6.86999e-17)
(9.63429e-16 2.23431e-30 -4.60652e-31 9.11434 1.15573e-14 -6.33484e-15 0.308582 -3.72039e-16 -2.05445e-16)
(-7.70743e-15 -5.70985e-30 0 9.11434 -7.63125e-15 -1.34311e-15 0.308582 -1.40364e-15 -7.7357e-17)
(9.84552e-16 -3.45962e-30 -1.87045e-30 9.01098 1.20918e-14 -5.77033e-15 0.310664 -4.0795e-16 -1.90953e-16)
(0 0 1.40131e-30 9.01098 -8.03605e-15 -1.4629e-15 0.310664 -1.47886e-15 -8.79061e-17)
(0 -2.75125e-29 -2.75125e-30 8.90225 1.21493e-14 -5.26658e-15 0.312527 -4.23125e-16 -1.77594e-16)
(4.0234e-15 2.75125e-29 2.75125e-30 8.90225 -7.61488e-15 -1.5573e-15 0.312527 -1.55816e-15 -1.01764e-16)
(2.54775e-15 -3.43414e-30 -1.15991e-30 8.78825 1.17928e-14 -4.75109e-15 0.314165 -4.27392e-16 -1.61047e-16)
(4.10924e-15 0 6.7521e-31 8.78825 -7.9309e-15 -1.68048e-15 0.314165 -1.62734e-15 -1.18023e-16)
(-6.05251e-16 -1.43652e-29 -3.6567e-30 8.66912 1.09918e-14 -4.22631e-15 0.31557 -4.13406e-16 -1.4581e-16)
(0 1.59081e-29 3.31418e-30 8.66912 -8.18003e-15 -1.78929e-15 0.31557 -1.72436e-15 -1.33677e-16)
(-2.1413e-15 -1.9197e-29 -2.25748e-30 8.54507 1.06077e-14 -3.71664e-15 0.316739 -3.84767e-16 -1.2905e-16)
(4.28259e-15 2.60276e-29 3.25345e-30 8.54507 -6.58565e-15 -1.91091e-15 0.316739 -1.81328e-15 -1.49447e-16)
(1.0925e-15 -2.38432e-29 -3.05855e-30 8.41633 1.0827e-14 -3.21952e-15 0.317667 -4.00299e-16 -1.13484e-16)
(8.73998e-15 2.04405e-29 2.55507e-30 8.41633 -5.86755e-15 -2.02663e-15 0.317667 -1.873e-15 -1.68229e-16)
(2.97572e-16 -1.62591e-30 -7.45245e-31 8.28319 1.06937e-14 -2.70753e-15 0.318355 -4.1595e-16 -9.42328e-17)
(-1.41202e-15 1.0033e-29 2.50825e-30 8.28319 -6.80157e-15 -2.09818e-15 0.318355 -1.95058e-15 -1.8755e-16)
(-2.27295e-15 1.84529e-30 1.0272e-30 8.14595 1.06415e-14 -2.17162e-15 0.318803 -4.05057e-16 -7.5452e-17)
(4.54589e-15 4.92457e-30 0 8.14595 -6.49953e-15 -2.1605e-15 0.318803 -2.03417e-15 -2.07827e-16)
(-1.15857e-15 3.37261e-30 -8.59707e-32 8.00498 1.09931e-14 -1.60786e-15 0.319014 -4.275e-16 -5.24456e-17)
(4.63426e-15 4.83433e-30 1.81287e-30 8.00498 -6.43074e-15 -2.2439e-15 0.319014 -2.10071e-15 -2.30323e-16)
(-1.33581e-15 1.42372e-29 2.37287e-30 7.86063 1.14311e-14 -1.00099e-15 0.318991 -4.48592e-16 -2.8579e-17)
(0 -4.74574e-30 -1.18643e-30 7.86063 -7.25907e-15 -2.34107e-15 0.318991 -2.18786e-15 -2.54035e-16)
(1.20287e-15 -8.00238e-30 -6.62315e-30 7.71332 1.19062e-14 -1.76604e-16 0.318741 -4.79492e-16 -3.65039e-18)
(4.81149e-15 4.65877e-30 1.74704e-30 7.71332 -7.1896e-15 -2.40911e-15 0.318741 -2.29175e-15 -2.76815e-16)
(1.22506e-15 -1.70476e-29 -5.25061e-31 7.56345 1.21579e-14 2.38865e-29 0.318271 -5.0515e-16 0)
(4.90022e-15 1.37202e-29 2.85838e-30 7.56345 -6.98204e-15 -2.48096e-15 0.318271 -2.35865e-15 -3.01844e-16)
(-1.24723e-15 3.31093e-30 5.20413e-31 7.41145 1.20955e-14 7.01581e-16 0.317589 -5.18952e-16 -1.97828e-17)
(4.98894e-15 0 1.1224e-30 7.41145 -7.23746e-15 -2.54649e-15 0.317589 -2.43381e-15 -3.30048e-16)
(1.26939e-15 -1.21121e-29 -1.61673e-30 7.25774 1.20236e-14 1.25038e-15 0.316706 -5.18783e-16 -4.0602e-17)
(0 8.81465e-30 1.10183e-30 7.25774 -7.18011e-15 -2.62005e-15 0.316706 -2.5553e-15 -3.57097e-16)
(-1.29152e-15 1.19348e-29 2.12989e-30 7.10276 1.22552e-14 1.77059e-15 0.31563 -5.32164e-16 -6.89393e-17)
(5.16608e-15 -4.32656e-30 -1.08164e-30 7.10276 -7.28175e-15 -2.69987e-15 0.31563 -2.65009e-15 -3.85705e-16)
(1.3136e-15 -1.17569e-29 -2.62404e-30 6.94692 1.27005e-14 2.13924e-15 0.314375 -5.59141e-16 -8.88778e-17)
(0 8.49456e-30 2.12364e-30 6.94692 -7.85861e-15 -2.75414e-15 0.314375 -2.74384e-15 -4.15945e-16)
(-1.33561e-15 1.15798e-29 2.05685e-30 6.79064 1.34065e-14 1.58462e-15 0.312951 -5.9298e-16 -1.05282e-16)
(5.34243e-15 -4.16945e-30 -5.21181e-31 6.79064 -8.14474e-15 -2.80794e-15 0.312951 -2.88761e-15 -4.46647e-16)
(1.35754e-15 4.96888e-30 5.23682e-31 6.6343 1.3556e-14 8.35955e-16 0.311371 -6.46045e-16 -4.05112e-17)
(3.12599e-15 -4.09305e-30 -5.11631e-31 6.6343 -7.64141e-15 -2.83759e-15 0.311371 -3.00217e-15 -4.80104e-16)
(0 8.03609e-30 1.50677e-30 6.47828 1.31088e-14 9.62258e-16 0.309648 -6.29523e-16 -3.81364e-17)
(3.25559e-15 -4.01804e-30 -5.02255e-31 6.47828 -7.33299e-15 -2.84894e-15 0.309648 -3.10397e-15 -5.16714e-16)
(0 7.88883e-30 1.47916e-30 6.32294 1.30405e-14 1.01523e-15 0.307793 -6.27116e-16 -5.42586e-17)
(-5.60452e-15 -3.94441e-30 -4.93052e-31 6.32294 -7.54432e-15 -2.78244e-15 0.307793 -3.24574e-15 -5.51167e-16)
(0 1.93607e-29 2.9041e-30 6.16861 1.27823e-14 1.13916e-15 0.30582 -6.46512e-16 -4.47944e-17)
(5.69105e-15 -1.93607e-29 -2.9041e-30 6.16861 -7.00719e-15 -2.64043e-15 0.30582 -3.35245e-15 -5.81655e-16)
(6.95603e-16 -1.96576e-29 -2.36688e-30 6.01558 1.24384e-14 1.29766e-15 0.30374 -6.24826e-16 -6.8747e-17)
(-2.13987e-15 2.28071e-29 3.80118e-30 6.01558 -6.60212e-15 -2.4934e-15 0.30374 -3.44034e-15 -6.15162e-16)
(-1.46565e-15 3.12938e-30 4.81808e-31 5.86414 1.27323e-14 1.21939e-15 0.301565 -6.35699e-16 -6.26932e-17)
(5.86259e-15 3.73152e-30 1.86576e-30 5.86414 -6.89566e-15 -2.2818e-15 0.301565 -3.57343e-15 -6.45122e-16)
(2.06217e-15 -1.09894e-29 -9.15786e-31 5.71454 1.3637e-14 1.35461e-15 0.299308 -6.78986e-16 -6.3183e-17)
(0 7.32629e-30 1.83157e-30 5.71454 -8.29099e-15 -2.03232e-15 0.299308 -3.68882e-15 -6.72168e-16)
(0 1.07881e-29 8.99004e-31 5.56701 1.39526e-14 1.35776e-15 0.296978 -7.5568e-16 -7.94071e-17)
(0 -3.59602e-30 0 5.56701 -8.89802e-15 -1.82645e-15 0.296978 -3.83606e-15 -6.99646e-16)
(1.52892e-15 -1.71711e-29 -3.11956e-30 5.42173 1.38536e-14 1.21159e-15 0.294587 -7.38692e-16 -6.59043e-17)
(6.11567e-15 1.41205e-29 2.64759e-30 5.42173 -7.49617e-15 -1.69753e-15 0.294587 -3.98325e-15 -7.25856e-16)
(-2.35203e-15 7.36985e-30 2.13037e-30 5.2789 1.44232e-14 9.6935e-16 0.292144 -7.73245e-16 -6.63009e-17)
(6.19879e-15 -3.46543e-30 -8.66358e-31 5.2789 -7.14557e-15 -1.63571e-15 0.292144 -4.12712e-15 -7.49406e-16)
(0 0 -8.50483e-31 5.13864 1.41262e-14 1.08278e-15 0.289659 -8.30435e-16 -4.12112e-17)
(6.28126e-15 3.40193e-30 1.70097e-30 5.13864 -7.73143e-15 -1.58197e-15 0.289659 -4.27145e-15 -7.7096e-16)
(-3.18153e-15 5.95766e-30 9.21039e-31 5.00109 1.33555e-14 1.37165e-15 0.28714 -7.68435e-16 -8.17621e-17)
(6.36305e-15 0 0 5.00109 -7.31459e-15 -1.53113e-15 0.28714 -4.3989e-15 -7.92442e-16)
(1.61104e-15 -1.93445e-29 -2.91641e-30 4.86636 1.31368e-14 1.61028e-15 0.284596 -7.72012e-16 -7.63939e-17)
(6.44416e-15 1.6392e-29 2.4588e-30 4.86636 -7.25307e-15 -1.4236e-15 0.284596 -4.5161e-15 -8.16792e-16)
(-1.81175e-15 6.43664e-30 1.60916e-30 4.73451 1.3052e-14 1.83746e-15 0.282033 -7.71459e-16 -1.13141e-16)
(-4.71282e-15 -6.43664e-30 -1.60916e-30 4.73451 -7.78811e-15 -1.35155e-15 0.282033 -4.65336e-15 -8.38829e-16)
(0 3.15934e-30 0 4.60563 1.28096e-14 1.7656e-15 0.279459 -7.90857e-16 -1.06717e-16)
(0 -3.15934e-30 0 4.60563 -7.08461e-15 -1.33752e-15 0.279459 -4.80511e-15 -8.58681e-16)
(-3.34164e-15 2.12708e-29 3.9801e-30 4.47974 1.25871e-14 2.1771e-15 0.27688 -7.70694e-16 -1.08561e-16)
(0 -1.55073e-29 -3.10145e-30 4.47974 -5.78385e-15 -1.38253e-15 0.27688 -4.96209e-15 -8.82675e-16)
(-1.69039e-15 1.19849e-29 1.18576e-30 4.35689 1.38329e-14 2.63821e-15 0.274302 -7.92775e-16 -1.62322e-16)
(0 -3.04462e-30 0 4.35689 -6.79759e-15 -1.40103e-15 0.274302 -5.06675e-15 -9.09146e-16)
(-1.68256e-15 1.49441e-29 2.98883e-30 4.23709 1.54017e-14 2.53079e-15 0.27173 -9.58816e-16 -1.71533e-16)
(-6.83912e-15 -1.19553e-29 -2.24162e-30 4.23709 -9.10937e-15 -1.09945e-15 0.27173 -5.2808e-15 -9.28494e-16)
(3.45798e-15 3.33855e-31 -9.07124e-32 4.12034 1.43832e-14 2.22494e-15 0.269168 -1.02671e-15 -1.54465e-16)
(0 -5.86811e-30 0 4.12034 -7.6316e-15 -7.08034e-16 0.269168 -5.43878e-15 -9.35404e-16)
(2.53126e-16 5.98555e-30 1.34042e-30 4.00663 1.12561e-14 2.33884e-15 0.266621 -8.59997e-16 -1.3747e-16)
(6.99209e-15 -1.15212e-29 -2.16022e-30 4.00663 -4.24292e-15 -5.89532e-16 0.266621 -5.55467e-15 -9.45061e-16)
(-1.76687e-15 2.77729e-30 3.98023e-31 3.89594 8.99013e-15 2.94362e-15 0.264092 -6.4329e-16 -1.7566e-16)
(7.0675e-15 2.82751e-30 7.06878e-31 3.89594 -2.65835e-15 -7.4142e-16 0.264092 -5.64377e-15 -9.69395e-16)
(3.57109e-15 1.37907e-32 -7.01867e-32 3.78826 8.85234e-15 3.22566e-15 0.261585 -5.80839e-16 -2.25808e-16)
(-3.12516e-15 -5.55139e-30 0 3.78826 -1.84431e-15 -1.01027e-15 0.261585 -5.69799e-15 -9.87846e-16)
(1.80404e-15 -8.19136e-30 -3.74145e-31 3.68354 8.87231e-15 3.24996e-15 0.259102 -6.48231e-16 -2.21783e-16)
(7.21617e-15 0 0 3.68354 -2.65531e-15 -1.23079e-15 0.259102 -5.78817e-15 -9.99936e-16)
(-1.82236e-15 1.07575e-29 1.03149e-30 3.58175 9.09145e-15 3.40775e-15 0.256647 -6.05576e-16 -2.37784e-16)
(0 -5.3498e-30 -6.68725e-31 3.58175 -4.1268e-15 -1.37185e-15 0.256647 -5.90219e-15 -1.0186e-15)
(0 -5.25177e-30 -6.56471e-31 3.48283 1.03496e-14 3.56618e-15 0.25422 -7.04509e-16 -2.53073e-16)
(1.47241e-14 7.87765e-30 6.56471e-31 3.48283 -5.90648e-15 -1.30356e-15 0.25422 -5.98823e-15 -1.04798e-15)
(-1.85848e-15 -7.64891e-30 -1.59528e-30 3.38673 1.06912e-14 3.50915e-15 0.251824 -8.14674e-16 -2.70201e-16)
(0 1.03111e-29 2.57777e-30 3.38673 -7.00742e-15 -9.91462e-16 0.251824 -6.13037e-15 -1.07094e-15)
(-2.84912e-15 -1.01221e-29 -1.26526e-30 3.29341 1.08091e-14 3.27266e-15 0.249461 -7.82576e-16 -2.54008e-16)
(1.50103e-14 1.01221e-29 1.8979e-30 3.29341 -5.21894e-15 -7.53498e-16 0.249461 -6.30175e-15 -1.0907e-15)
(-4.69083e-15 1.25402e-29 2.18554e-30 3.20279 1.01483e-14 3.00702e-15 0.247132 -8.63485e-16 -2.44049e-16)
(2.79691e-15 -9.93663e-30 -1.86312e-30 3.20279 -5.45654e-15 -7.75024e-16 0.247132 -6.4011e-15 -1.11271e-15)
(0 0 -1.21932e-30 3.11483 9.09809e-15 3.31178e-15 0.244838 -7.08651e-16 -2.22006e-16)
(7.64553e-15 4.87727e-30 1.21932e-30 3.11483 -6.06145e-15 -7.75792e-16 0.244838 -6.58865e-15 -1.13122e-15)
(1.92868e-15 -1.69292e-29 -2.08796e-30 3.02946 9.31129e-15 3.74907e-15 0.24258 -7.28589e-16 -3.01832e-16)
(1.54295e-14 1.43637e-29 1.79546e-30 3.02946 -4.54414e-15 -4.51601e-16 0.24258 -6.74508e-15 -1.13797e-15)
(-1.94582e-15 2.5423e-30 2.81262e-31 2.94662 9.80496e-15 3.55894e-15 0.240359 -7.69978e-16 -3.01388e-16)
(7.7833e-15 0 5.8752e-31 2.94662 -4.4737e-15 -9.20772e-17 0.240359 -6.74621e-15 -1.1372e-15)
(-6.34664e-16 1.13304e-29 3.01442e-31 2.86623 1.01278e-14 3.13624e-15 0.238174 -8.37713e-16 -2.81752e-16)
(7.85122e-15 0 0 2.86623 -4.94031e-15 -6.44633e-17 0.238174 -6.8459e-15 -1.14492e-15)
(-3.95926e-15 9.5012e-30 1.67946e-30 2.78824 1.03978e-14 3.12053e-15 0.236027 -8.53404e-16 -2.41511e-16)
(5.36865e-15 0 0 2.78824 -3.96273e-15 -1.97268e-16 0.236027 -7.01185e-15 -1.16276e-15)
(-2.50315e-15 0 0 2.71257 1.09447e-14 3.13655e-15 0.233918 -9.15629e-16 -2.89673e-16)
(1.59704e-14 8.89296e-30 5.5581e-31 2.71257 -2.92691e-15 -1.5518e-16 0.233918 -7.18639e-15 -1.16854e-15)
(-2.45728e-15 4.365e-30 1.09125e-30 2.63918 1.01771e-14 2.74898e-15 0.231846 -9.81201e-16 -2.53414e-16)
(8.05128e-15 0 0 2.63918 -4.63316e-15 3.11959e-16 0.231846 -7.25425e-15 -1.15992e-15)
(-2.02919e-15 6.71638e-30 2.53075e-31 2.56798 9.08898e-15 2.43013e-15 0.229813 -8.13386e-16 -2.31547e-16)
(0 0 0 2.56798 -5.99251e-15 1.12353e-15 0.229813 -7.42867e-15 -1.1387e-15)
(2.04541e-15 6.0085e-30 8.00359e-31 2.49891 9.27091e-15 2.82311e-15 0.227816 -8.20725e-16 -2.05104e-16)
(0 -8.41298e-30 -1.05162e-30 2.49891 -5.07611e-15 1.40466e-15 0.227816 -7.62702e-15 -1.1093e-15)
(0 4.12941e-30 5.16176e-31 2.43191 9.37634e-15 3.70175e-15 0.225857 -8.77665e-16 -3.12914e-16)
(0 -4.12941e-30 0 2.43191 -4.41577e-15 1.1873e-15 0.225857 -7.78949e-15 -1.09116e-15)
(-2.07743e-15 1.04491e-29 1.21737e-30 2.36693 8.94525e-15 3.69513e-15 0.223935 -8.71505e-16 -3.7828e-16)
(0 -8.10748e-30 -1.01343e-30 2.36693 -5.36737e-15 1.2217e-15 0.223935 -7.9472e-15 -1.06529e-15)
(-2.09323e-15 6.31207e-30 1.19709e-30 2.30389 7.40236e-15 2.78208e-15 0.22205 -8.28047e-16 -3.23435e-16)
(-8.37293e-15 0 -4.97432e-31 2.30389 -4.06061e-15 1.50514e-15 0.22205 -8.13063e-15 -1.05563e-15)
(-2.1089e-15 -1.54962e-30 -2.75661e-31 2.24273 5.19407e-15 2.05717e-15 0.220202 -6.02872e-16 -2.14129e-16)
(1.4672e-14 3.90653e-30 9.76634e-31 2.24273 2.10981e-16 1.60019e-15 0.220202 -8.19955e-15 -1.04297e-15)
(0 -7.6699e-30 -1.43811e-30 2.18341 4.73285e-15 2.21684e-15 0.218389 -4.1971e-16 -1.91336e-16)
(8.49771e-15 7.6699e-30 1.43811e-30 2.18341 1.01267e-15 1.24169e-15 0.218389 -8.20605e-15 -1.04552e-15)
(-2.13983e-15 9.85766e-30 1.96822e-31 2.12585 5.08884e-15 2.88284e-15 0.216611 -5.32074e-16 -2.54572e-16)
(8.55931e-15 0 0 2.12585 2.88357e-16 8.91757e-16 0.216611 -8.33998e-15 -1.06463e-15)
(0 3.69569e-30 4.61961e-31 2.07 4.55334e-15 3.31605e-15 0.214868 -5.09051e-16 -3.36104e-16)