/*--------------------------------*- C++ -*----------------------------------*\
| =========                 |                                                 |
| \\      /  F ield         | OpenFOAM: The Open Source CFD Toolbox           |
|  \\    /   O peration     | Version:  2106                                  |
|   \\  /    A nd           | Website:  www.openfoam.com                      |
|    \\/     M anipulation  |                                                 |
\*---------------------------------------------------------------------------*/
FoamFile
{
    version     2.0;
    format      ascii;
    arch        "LSB;label=32;scalar=64";
    class       volScalarField;
    location    "10080";
    object      p;
}
// * * * * * * * * * * * * * * * * * * * * * * * * * * * * * * * * * * * * * //

dimensions      [0 2 -2 0 0 0 0];

internalField   nonuniform List<scalar> 
2000
(
9.35787e-15
6.29426e-14
1.9214e-14
6.29418e-14
2.14215e-14
6.29411e-14
2.1712e-14
6.29402e-14
2.21313e-14
6.2939e-14
2.27302e-14
6.29375e-14
2.33273e-14
6.29357e-14
2.38967e-14
6.29336e-14
2.44532e-14
6.29312e-14
2.50022e-14
6.29286e-14
2.55427e-14
6.29256e-14
2.60741e-14
6.29222e-14
2.65962e-14
6.29187e-14
2.71093e-14
6.29149e-14
2.76135e-14
6.29109e-14
2.81088e-14
6.29066e-14
2.8596e-14
6.29019e-14
2.90748e-14
6.28971e-14
2.95453e-14
6.2892e-14
3.00077e-14
6.28867e-14
3.04622e-14
6.2881e-14
3.0909e-14
6.28753e-14
3.13479e-14
6.28694e-14
3.17795e-14
6.28632e-14
3.22036e-14
6.28569e-14
3.26204e-14
6.28504e-14
3.30303e-14
6.28435e-14
3.34332e-14
6.28365e-14
3.38293e-14
6.28292e-14
3.4219e-14
6.28215e-14
3.46016e-14
6.28137e-14
3.49779e-14
6.28058e-14
3.53477e-14
6.27976e-14
3.57113e-14
6.27893e-14
3.60688e-14
6.27806e-14
3.64204e-14
6.27717e-14
3.67661e-14
6.27625e-14
3.71061e-14
6.27532e-14
3.74406e-14
6.27436e-14
3.77697e-14
6.27337e-14
3.80931e-14
6.27237e-14
3.84107e-14
6.27138e-14
3.87237e-14
6.27036e-14
3.90317e-14
6.26931e-14
3.93344e-14
6.26822e-14
3.96322e-14
6.26711e-14
3.99252e-14
6.26594e-14
4.02136e-14
6.26477e-14
4.04976e-14
6.2636e-14
4.07773e-14
6.26246e-14
4.10523e-14
6.2612e-14
4.13236e-14
6.2599e-14
4.15896e-14
6.2586e-14
4.1852e-14
6.25729e-14
4.21105e-14
6.25597e-14
4.23644e-14
6.25456e-14
4.26146e-14
6.25316e-14
4.28618e-14
6.25179e-14
4.3105e-14
6.25041e-14
4.33442e-14
6.24896e-14
4.35802e-14
6.24739e-14
4.38127e-14
6.24579e-14
4.40419e-14
6.24424e-14
4.42678e-14
6.24268e-14
4.44916e-14
6.24104e-14
4.47119e-14
6.23941e-14
4.49294e-14
6.23773e-14
4.5144e-14
6.236e-14
4.53562e-14
6.23414e-14
4.55667e-14
6.23231e-14
4.57743e-14
6.23044e-14
4.59789e-14
6.22865e-14
4.61815e-14
6.22686e-14
4.63817e-14
6.22494e-14
4.65811e-14
6.22283e-14
4.6779e-14
6.22071e-14
4.69746e-14
6.21866e-14
4.71694e-14
6.21657e-14
4.736e-14
6.21455e-14
4.75508e-14
6.21237e-14
4.77412e-14
6.21009e-14
4.79305e-14
6.20778e-14
4.81189e-14
6.2055e-14
4.83065e-14
6.20292e-14
4.84938e-14
6.20028e-14
4.86792e-14
6.19781e-14
4.88639e-14
6.19531e-14
4.90485e-14
6.19274e-14
4.92327e-14
6.19012e-14
4.94163e-14
6.1876e-14
4.96006e-14
6.18491e-14
4.97846e-14
6.18223e-14
4.99697e-14
6.17956e-14
5.01535e-14
6.17678e-14
5.03394e-14
6.17397e-14
5.05265e-14
6.17123e-14
5.07132e-14
6.16849e-14
5.09009e-14
6.16562e-14
5.10886e-14
6.16271e-14
5.12777e-14
6.15976e-14
5.14652e-14
6.15686e-14
5.16525e-14
6.15424e-14
5.18407e-14
6.15168e-14
5.20269e-14
6.14892e-14
5.22125e-14
6.14638e-14
5.23987e-14
6.14393e-14
5.25825e-14
6.14172e-14
5.27668e-14
6.13963e-14
5.29469e-14
6.13749e-14
5.31333e-14
6.13563e-14
5.33107e-14
6.13389e-14
5.34881e-14
6.13258e-14
5.36639e-14
6.13141e-14
5.3841e-14
6.1307e-14
5.40177e-14
6.12982e-14
5.41908e-14
6.12894e-14
5.43649e-14
6.12853e-14
5.45368e-14
6.12813e-14
5.47015e-14
6.12789e-14
5.48684e-14
6.12767e-14
5.50311e-14
6.1281e-14
5.51958e-14
6.12856e-14
5.53626e-14
6.12821e-14
5.55331e-14
6.12771e-14
5.57023e-14
6.12704e-14
5.58667e-14
6.12705e-14
5.60297e-14
6.12741e-14
5.61878e-14
6.1281e-14
5.63373e-14
6.12845e-14
5.64922e-14
6.12879e-14
5.66419e-14
6.13017e-14
5.67898e-14
6.13154e-14
5.69323e-14
6.13219e-14
5.70729e-14
6.13319e-14
5.72006e-14
6.13489e-14
5.73335e-14
6.13658e-14
5.74569e-14
6.13827e-14
5.75814e-14
6.14034e-14
5.76997e-14
6.14278e-14
5.78115e-14
6.14525e-14
5.79166e-14
6.147e-14
5.80184e-14
6.14917e-14
5.81242e-14
6.15218e-14
5.82263e-14
6.1545e-14
5.83282e-14
6.15693e-14
5.84258e-14
6.15946e-14
5.85306e-14
6.16252e-14
5.86306e-14
6.16534e-14
5.87336e-14
6.16833e-14
5.88393e-14
6.1711e-14
5.89197e-14
6.17447e-14
5.90021e-14
6.17727e-14
5.90781e-14
6.17954e-14
5.91795e-14
6.18211e-14
5.92822e-14
6.185e-14
5.9378e-14
6.18658e-14
5.94584e-14
6.19013e-14
5.95396e-14
6.19325e-14
5.96128e-14
6.1943e-14
5.96859e-14
6.19576e-14
5.97752e-14
6.19683e-14
5.9864e-14
6.19748e-14
5.99442e-14
6.19768e-14
6.0024e-14
6.19827e-14
6.01035e-14
6.19924e-14
6.01744e-14
6.19888e-14
6.02452e-14
6.198e-14
6.03328e-14
6.19738e-14
6.04039e-14
6.20035e-14
6.04752e-14
6.20098e-14
6.05468e-14
6.2001e-14
6.06104e-14
6.20019e-14
6.06661e-14
6.19865e-14
6.07567e-14
6.19971e-14
6.0823e-14
6.20156e-14
6.08993e-14
6.20162e-14
6.09347e-14
6.20065e-14
6.09974e-14
6.20034e-14
6.10451e-14
6.20233e-14
6.11028e-14
6.20319e-14
6.11881e-14
6.20194e-14
6.12421e-14
6.19836e-14
6.12661e-14
6.19394e-14
6.12948e-14
6.19197e-14
6.13455e-14
6.18723e-14
6.13686e-14
6.18634e-14
6.13819e-14
6.18748e-14
6.14015e-14
6.18376e-14
6.14285e-14
6.17842e-14
6.14645e-14
6.16947e-14
6.14786e-14
6.16329e-14
6.14727e-14
6.15955e-14
6.14815e-14
6.15975e-14
6.14874e-14
6.15873e-14
6.14907e-14
6.15464e-14
6.15092e-14
6.15578e-14
6.15093e-14
6.15861e-14
6.14892e-14
6.15818e-14
6.14977e-14
6.15967e-14
6.15008e-14
6.15975e-14
6.14984e-14
6.15502e-14
6.14922e-14
6.15868e-14
6.1497e-14
6.15582e-14
6.14976e-14
6.15282e-14
6.14956e-14
6.14439e-14
6.14435e-14
6.15008e-14
6.14343e-14
6.14373e-14
6.14202e-14
6.13823e-14
6.13691e-14
6.14161e-14
6.13741e-14
6.14274e-14
6.13686e-14
6.13994e-14
6.13533e-14
6.13788e-14
6.13104e-14
6.13643e-14
6.13004e-14
6.1391e-14
6.13191e-14
6.13627e-14
6.1305e-14
6.13387e-14
6.12891e-14
6.13811e-14
6.12965e-14
6.14325e-14
6.12939e-14
6.13103e-14
6.12298e-14
6.12566e-14
6.12572e-14
6.12705e-14
6.11916e-14
6.11644e-14
6.11298e-14
6.11179e-14
6.11314e-14
6.11604e-14
6.10965e-14
6.12373e-14
6.1044e-14
6.11799e-14
6.1034e-14
6.11088e-14
6.1012e-14
6.10739e-14
6.09508e-14
6.10691e-14
6.08975e-14
6.10745e-14
6.08998e-14
6.10457e-14
6.09321e-14
6.10086e-14
6.09184e-14
6.09512e-14
6.08672e-14
6.09225e-14
6.09165e-14
6.09257e-14
6.09341e-14
6.09285e-14
6.09519e-14
6.09229e-14
6.10039e-14
6.096e-14
6.09899e-14
6.09655e-14
6.09909e-14
6.09461e-14
6.10106e-14
6.08893e-14
6.09568e-14
6.09128e-14
6.09779e-14
6.09835e-14
6.09594e-14
6.10103e-14
6.09215e-14
6.10028e-14
6.09079e-14
6.09442e-14
6.08721e-14
6.0881e-14
6.08657e-14
6.08529e-14
6.08485e-14
6.08488e-14
6.08168e-14
6.07735e-14
6.20374e-14
6.26783e-14
6.2037e-14
6.26783e-14
6.20366e-14
6.26782e-14
6.20362e-14
6.26782e-14
6.20355e-14
6.26781e-14
6.20347e-14
6.26779e-14
6.20338e-14
6.26777e-14
6.20327e-14
6.26775e-14
6.20315e-14
6.26773e-14
6.20301e-14
6.26771e-14
6.20287e-14
6.26768e-14
6.20272e-14
6.26764e-14
6.20256e-14
6.2676e-14
6.20237e-14
6.26756e-14
6.20219e-14
6.26751e-14
6.20199e-14
6.26746e-14
6.20176e-14
6.2674e-14
6.20154e-14
6.26733e-14
6.20129e-14
6.26726e-14
6.20104e-14
6.2672e-14
6.20078e-14
6.26712e-14
6.2005e-14
6.26705e-14
6.20022e-14
6.26698e-14
6.19992e-14
6.26691e-14
6.19961e-14
6.26682e-14
6.19929e-14
6.26674e-14
6.19897e-14
6.26667e-14
6.19862e-14
6.26656e-14
6.19827e-14
6.26645e-14
6.19791e-14
6.26636e-14
6.19755e-14
6.26625e-14
6.19718e-14
6.26612e-14
6.19681e-14
6.26596e-14
6.19643e-14
6.26581e-14
6.19605e-14
6.26562e-14
6.19565e-14
6.26544e-14
6.19527e-14
6.26527e-14
6.19484e-14
6.26512e-14
6.19441e-14
6.26496e-14
6.19397e-14
6.26474e-14
6.19352e-14
6.26454e-14
6.19304e-14
6.26438e-14
6.19256e-14
6.26417e-14
6.19206e-14
6.26398e-14
6.19158e-14
6.26377e-14
6.19108e-14
6.26355e-14
6.19065e-14
6.2633e-14
6.19017e-14
6.26301e-14
6.18967e-14
6.26283e-14
6.18918e-14
6.26267e-14
6.1887e-14
6.26237e-14
6.18823e-14
6.26204e-14
6.1877e-14
6.26178e-14
6.18716e-14
6.26145e-14
6.18664e-14
6.26112e-14
6.18612e-14
6.26086e-14
6.18561e-14
6.26058e-14
6.18502e-14
6.26031e-14
6.18447e-14
6.26004e-14
6.18389e-14
6.25971e-14
6.18329e-14
6.25939e-14
6.18269e-14
6.25911e-14
6.1821e-14
6.25882e-14
6.18157e-14
6.25853e-14
6.18101e-14
6.25819e-14
6.18043e-14
6.25784e-14
6.17982e-14
6.25752e-14
6.17919e-14
6.25719e-14
6.1786e-14
6.25667e-14
6.17804e-14
6.25619e-14
6.17741e-14
6.25584e-14
6.17679e-14
6.25556e-14
6.17611e-14
6.25524e-14
6.17543e-14
6.2548e-14
6.17488e-14
6.25432e-14
6.17426e-14
6.25373e-14
6.17358e-14
6.25334e-14
6.17282e-14
6.25304e-14
6.17222e-14
6.25241e-14
6.17163e-14
6.25172e-14
6.17099e-14
6.25127e-14
6.1703e-14
6.25092e-14
6.16958e-14
6.25048e-14
6.16891e-14
6.2498e-14
6.16823e-14
6.24912e-14
6.16768e-14
6.24866e-14
6.16707e-14
6.24833e-14
6.16633e-14
6.24787e-14
6.16546e-14
6.24748e-14
6.1647e-14
6.2471e-14
6.16411e-14
6.24666e-14
6.16357e-14
6.24624e-14
6.16294e-14
6.24598e-14
6.16251e-14
6.24561e-14
6.16208e-14
6.24512e-14
6.16165e-14
6.24474e-14
6.16123e-14
6.2444e-14
6.16082e-14
6.24389e-14
6.16037e-14
6.24343e-14
6.15994e-14
6.24266e-14
6.1594e-14
6.24203e-14
6.1594e-14
6.24168e-14
6.15931e-14
6.24147e-14
6.15941e-14
6.24069e-14
6.15913e-14
6.24021e-14
6.15919e-14
6.23974e-14
6.15933e-14
6.239e-14
6.15909e-14
6.23829e-14
6.15877e-14
6.23776e-14
6.15883e-14
6.23741e-14
6.15942e-14
6.23696e-14
6.1595e-14
6.23657e-14
6.15981e-14
6.23607e-14
6.15975e-14
6.2358e-14
6.1601e-14
6.23545e-14
6.16055e-14
6.23502e-14
6.16046e-14
6.2353e-14
6.16047e-14
6.23521e-14
6.16059e-14
6.23458e-14
6.16128e-14
6.23341e-14
6.16193e-14
6.23301e-14
6.16203e-14
6.23321e-14
6.16257e-14
6.23306e-14
6.16306e-14
6.23237e-14
6.16349e-14
6.23183e-14
6.16386e-14
6.23127e-14
6.1645e-14
6.23069e-14
6.16544e-14
6.23046e-14
6.16631e-14
6.23057e-14
6.16572e-14
6.23035e-14
6.16576e-14
6.22909e-14
6.16643e-14
6.22784e-14
6.16702e-14
6.22733e-14
6.16718e-14
6.2272e-14
6.16798e-14
6.22639e-14
6.16943e-14
6.22525e-14
6.17119e-14
6.22414e-14
6.17214e-14
6.22342e-14
6.17192e-14
6.22311e-14
6.17275e-14
6.22171e-14
6.17428e-14
6.22033e-14
6.1769e-14
6.21973e-14
6.17913e-14
6.2199e-14
6.17943e-14
6.21969e-14
6.17932e-14
6.22027e-14
6.17996e-14
6.22048e-14
6.18058e-14
6.22072e-14
6.18274e-14
6.22138e-14
6.18409e-14
6.22287e-14
6.18503e-14
6.224e-14
6.18792e-14
6.22279e-14
6.19003e-14
6.22119e-14
6.19137e-14
6.22158e-14
6.19114e-14
6.22237e-14
6.19255e-14
6.22275e-14
6.19399e-14
6.2219e-14
6.19465e-14
6.22226e-14
6.19698e-14
6.22464e-14
6.19936e-14
6.22578e-14
6.2018e-14
6.22649e-14
6.20514e-14
6.22844e-14
6.2061e-14
6.23078e-14
6.20796e-14
6.23024e-14
6.20741e-14
6.23012e-14
6.20861e-14
6.23211e-14
6.20986e-14
6.23459e-14
6.21199e-14
6.23759e-14
6.21415e-14
6.24033e-14
6.21547e-14
6.24117e-14
6.21679e-14
6.24349e-14
6.21979e-14
6.24394e-14
6.22196e-14
6.24423e-14
6.22501e-14
6.24434e-14
6.22732e-14
6.24683e-14
6.22884e-14
6.25003e-14
6.23212e-14
6.25059e-14
6.23461e-14
6.25019e-14
6.23726e-14
6.25054e-14
6.24098e-14
6.25247e-14
6.24324e-14
6.25858e-14
6.24484e-14
6.26472e-14
6.24735e-14
6.26678e-14
6.25081e-14
6.26487e-14
6.25364e-14
6.26065e-14
6.25262e-14
6.25914e-14
6.24773e-14
6.26212e-14
6.25079e-14
6.26301e-14
6.24813e-14
6.2635e-14
6.24826e-14
6.26208e-14
6.24779e-14
6.26054e-14
6.24673e-14
6.25901e-14
6.2451e-14
6.25935e-14
6.24458e-14
6.25659e-14
6.24355e-14
6.25757e-14
6.24368e-14
6.25559e-14
6.23995e-14
6.25756e-14
6.24063e-14
6.25526e-14
6.24248e-14
6.25027e-14
6.23739e-14
6.24745e-14
6.23541e-14
6.24517e-14
6.23146e-14
6.24347e-14
6.22881e-14
6.24091e-14
6.22408e-14
6.24418e-14
6.22187e-14
6.24215e-14
6.22379e-14
6.23498e-14
6.22205e-14
6.23744e-14
6.2199e-14
6.23307e-14
6.22082e-14
6.2253e-14
6.21549e-14
6.22529e-14
6.21358e-14
6.22674e-14
6.2116e-14
6.22505e-14
6.21281e-14
6.22206e-14
6.21272e-14
6.21601e-14
6.212e-14
6.21947e-14
6.21047e-14
6.2199e-14
6.21118e-14
6.21771e-14
6.2113e-14
6.21289e-14
6.20185e-14
6.20485e-14
6.19522e-14
6.19649e-14
6.19453e-14
6.19114e-14
6.18794e-14
6.1853e-14
6.1814e-14
6.18198e-14
6.17476e-14
6.1788e-14
6.17704e-14
6.17322e-14
6.17074e-14
6.17334e-14
6.16445e-14
6.17032e-14
6.16092e-14
6.16787e-14
6.15391e-14
6.16958e-14
6.15423e-14
6.16193e-14
6.15135e-14
6.14982e-14
6.14678e-14
6.14627e-14
6.14321e-14
6.1455e-14
6.13701e-14
6.14234e-14
6.13338e-14
6.13763e-14
6.12977e-14
6.13128e-14
6.12894e-14
6.1368e-14
6.1269e-14
6.13581e-14
6.12042e-14
6.12314e-14
6.11805e-14
6.11899e-14
6.11727e-14
6.12539e-14
6.11667e-14
6.12244e-14
6.11102e-14
6.11574e-14
6.10872e-14
6.11524e-14
6.10353e-14
6.1179e-14
6.10139e-14
6.11485e-14
6.10257e-14
6.10591e-14
6.10435e-14
6.10444e-14
6.09769e-14
6.10499e-14
6.09584e-14
6.09944e-14
6.08929e-14
6.09157e-14
6.07865e-14
6.07711e-14
6.07542e-14
6.0797e-14
6.07036e-14
6.08271e-14
6.06648e-14
6.07794e-14
6.06888e-14
6.07053e-14
6.07017e-14
6.07386e-14
6.06969e-14
6.07184e-14
6.06796e-14
6.07404e-14
6.06734e-14
6.07127e-14
6.06555e-14
6.06884e-14
6.07058e-14
6.06661e-14
6.0731e-14
6.07151e-14
6.07776e-14
6.08127e-14
6.07841e-14
6.08938e-14
6.0799e-14
6.08877e-14
6.08014e-14
6.08121e-14
6.0774e-14
6.08498e-14
6.07618e-14
6.08978e-14
6.0785e-14
6.08199e-14
6.07738e-14
6.08022e-14
6.07592e-14
6.079e-14
6.07415e-14
6.07804e-14
6.0719e-14
6.07711e-14
6.07185e-14
6.07915e-14
6.07078e-14
6.0878e-14
6.07666e-14
6.08631e-14
6.0786e-14
6.08577e-14
6.07686e-14
6.08273e-14
6.0747e-14
6.07378e-14
6.0757e-14
6.07367e-14
6.07669e-14
6.07617e-14
6.07752e-14
6.08118e-14
6.07793e-14
6.08946e-14
6.07396e-14
6.08961e-14
6.08098e-14
6.08502e-14
6.08749e-14
6.09048e-14
6.09049e-14
6.09629e-14
6.09287e-14
6.09604e-14
6.0982e-14
6.09928e-14
6.10014e-14
6.10582e-14
6.10164e-14
6.10605e-14
6.10612e-14
6.10814e-14
6.11057e-14
6.11693e-14
6.11136e-14
6.11944e-14
6.11336e-14
6.12559e-14
6.11631e-14
6.12591e-14
6.11874e-14
6.13011e-14
6.11559e-14
6.13639e-14
6.11972e-14
6.1369e-14
6.1247e-14
6.13983e-14
6.12721e-14
6.14333e-14
6.1272e-14
6.14756e-14
6.12625e-14
6.15099e-14
6.12929e-14
6.14701e-14
6.12993e-14
6.14202e-14
6.12999e-14
6.14418e-14
6.13109e-14
6.15352e-14
6.13131e-14
6.15842e-14
6.13215e-14
6.15567e-14
6.13371e-14
6.15025e-14
6.13791e-14
6.14875e-14
6.13983e-14
6.15265e-14
6.14119e-14
6.15339e-14
6.14377e-14
6.15265e-14
6.14422e-14
6.15202e-14
6.14431e-14
6.15317e-14
6.14404e-14
6.1561e-14
6.14332e-14
6.15741e-14
6.14731e-14
6.15714e-14
6.14926e-14
6.15517e-14
6.14755e-14
6.15483e-14
6.1473e-14
6.15618e-14
6.1502e-14
6.16098e-14
6.15194e-14
6.16414e-14
6.15251e-14
6.16484e-14
6.15365e-14
6.16565e-14
6.1545e-14
6.16828e-14
6.15592e-14
6.16849e-14
6.15709e-14
6.16628e-14
6.15806e-14
6.1684e-14
6.15883e-14
6.17146e-14
6.16191e-14
6.17292e-14
6.1631e-14
6.17449e-14
6.16409e-14
6.17448e-14
6.16574e-14
6.17458e-14
6.16641e-14
6.1756e-14
6.16864e-14
6.17669e-14
6.16908e-14
6.17698e-14
6.1686e-14
6.17731e-14
6.16884e-14
6.17767e-14
6.16981e-14
6.17888e-14
6.1715e-14
6.18095e-14
6.17228e-14
6.18224e-14
6.17297e-14
6.18111e-14
6.1744e-14
6.18084e-14
6.17416e-14
6.18222e-14
6.17387e-14
6.18283e-14
6.17432e-14
6.18347e-14
6.17471e-14
6.18416e-14
6.17343e-14
6.1849e-14
6.17366e-14
6.18411e-14
6.17421e-14
6.18417e-14
6.17429e-14
6.18467e-14
6.17507e-14
6.18483e-14
6.1754e-14
6.1862e-14
6.17643e-14
6.18646e-14
6.1774e-14
6.1856e-14
6.17755e-14
6.18515e-14
6.17764e-14
6.1855e-14
6.17844e-14
6.18549e-14
6.17883e-14
6.1855e-14
6.17992e-14
6.1859e-14
6.17985e-14
6.18669e-14
6.17976e-14
6.1875e-14
6.17999e-14
6.18758e-14
6.17945e-14
6.18732e-14
6.17925e-14
6.18744e-14
6.17901e-14
6.18795e-14
6.17873e-14
6.18847e-14
6.17842e-14
6.18936e-14
6.17806e-14
6.18957e-14
6.17835e-14
6.18946e-14
6.17826e-14
6.18937e-14
6.1788e-14
6.18965e-14
6.17897e-14
6.19062e-14
6.17874e-14
6.1906e-14
6.17848e-14
6.18958e-14
6.17851e-14
6.18926e-14
6.17884e-14
6.18979e-14
6.17846e-14
6.19e-14
6.17838e-14
6.18957e-14
6.17826e-14
6.18949e-14
6.17858e-14
6.18958e-14
6.17871e-14
6.18937e-14
6.1788e-14
6.18886e-14
6.17902e-14
6.18868e-14
6.17921e-14
6.18898e-14
6.17936e-14
6.18928e-14
6.1798e-14
6.18883e-14
6.18005e-14
6.18824e-14
6.18013e-14
6.18812e-14
6.18019e-14
6.18816e-14
6.18023e-14
6.18805e-14
6.18025e-14
6.1881e-14
6.18024e-14
6.18815e-14
6.18022e-14
6.18821e-14
6.18018e-14
6.18843e-14
6.18013e-14
6.18879e-14
6.17991e-14
6.18887e-14
6.17982e-14
6.18925e-14
6.18e-14
6.18949e-14
6.1798e-14
6.18959e-14
6.17952e-14
6.18963e-14
6.17944e-14
6.18967e-14
6.17948e-14
6.18972e-14
6.1795e-14
6.19e-14
6.17938e-14
6.19042e-14
6.17937e-14
6.19049e-14
6.1795e-14
6.19044e-14
6.17954e-14
6.1906e-14
6.17957e-14
6.19077e-14
6.17959e-14
6.19094e-14
6.17953e-14
6.19113e-14
6.17966e-14
6.19118e-14
6.17972e-14
6.1913e-14
6.17984e-14
6.19137e-14
6.17995e-14
6.19129e-14
6.17997e-14
6.19122e-14
6.17999e-14
6.1913e-14
6.18023e-14
6.19135e-14
6.18038e-14
6.19133e-14
6.18037e-14
6.19127e-14
6.18039e-14
6.19122e-14
6.18045e-14
6.19114e-14
6.18054e-14
6.19114e-14
6.18054e-14
6.19118e-14
6.18066e-14
6.19107e-14
6.18073e-14
6.19091e-14
6.18072e-14
6.1908e-14
6.18083e-14
6.19065e-14
6.18093e-14
6.19062e-14
6.18099e-14
6.19047e-14
6.18104e-14
6.19023e-14
6.18113e-14
6.19012e-14
6.18118e-14
6.19011e-14
6.18122e-14
6.19003e-14
6.18126e-14
6.18992e-14
6.18128e-14
6.18996e-14
6.18129e-14
6.19e-14
6.18132e-14
6.18992e-14
6.18135e-14
6.18982e-14
6.1813e-14
6.18976e-14
6.1813e-14
6.18976e-14
6.18134e-14
6.18973e-14
6.18139e-14
6.1897e-14
6.18135e-14
6.18971e-14
6.18131e-14
6.18968e-14
6.18135e-14
6.18966e-14
6.1814e-14
6.18963e-14
6.18146e-14
6.18961e-14
6.18155e-14
6.18954e-14
6.18163e-14
6.18938e-14
6.18168e-14
6.1893e-14
6.18176e-14
6.18933e-14
6.18184e-14
6.18934e-14
6.18189e-14
6.1893e-14
6.18194e-14
6.18927e-14
6.18202e-14
6.18923e-14
6.18209e-14
6.18923e-14
6.18217e-14
6.18919e-14
6.18223e-14
6.18912e-14
6.18232e-14
6.18906e-14
6.1824e-14
6.18905e-14
6.18248e-14
6.18901e-14
6.18253e-14
6.18897e-14
6.18257e-14
6.18895e-14
6.1826e-14
6.18892e-14
6.18265e-14
6.18888e-14
6.18272e-14
6.18883e-14
6.18273e-14
6.1888e-14
6.18276e-14
6.18879e-14
6.18278e-14
6.18877e-14
6.1828e-14
6.18874e-14
6.18279e-14
6.18876e-14
6.1828e-14
6.18878e-14
6.18281e-14
6.18878e-14
6.18281e-14
6.18878e-14
6.18281e-14
6.18877e-14
6.18281e-14
6.18877e-14
6.1828e-14
6.18878e-14
6.1828e-14
6.18878e-14
6.1828e-14
6.18877e-14
6.18281e-14
6.18878e-14
6.18282e-14
6.18879e-14
6.18282e-14
6.1888e-14
6.18282e-14
6.1888e-14
6.18282e-14
6.18881e-14
6.18283e-14
6.18881e-14
6.18284e-14
6.1888e-14
6.18284e-14
6.1888e-14
6.18285e-14
6.18881e-14
6.18285e-14
6.18881e-14
6.18285e-14
6.1888e-14
6.18286e-14
6.1888e-14
6.18286e-14
6.1888e-14
6.18286e-14
6.1888e-14
6.18285e-14
6.18881e-14
6.18285e-14
6.18881e-14
6.18285e-14
6.18881e-14
6.18285e-14
6.18881e-14
6.08316e-14
6.09148e-14
6.08058e-14
6.08521e-14
6.07745e-14
6.0861e-14
6.07825e-14
6.07914e-14
6.075e-14
6.07251e-14
6.07836e-14
6.08142e-14
6.07664e-14
6.08659e-14
6.0708e-14
6.08218e-14
6.07092e-14
6.0756e-14
6.07317e-14
6.0731e-14
6.07621e-14
6.07099e-14
6.08356e-14
6.0766e-14
6.08483e-14
6.07585e-14
6.07989e-14
6.08148e-14
6.07761e-14
6.08674e-14
6.07932e-14
6.08481e-14
6.08012e-14
6.0869e-14
6.0801e-14
6.09017e-14
6.07889e-14
6.08622e-14
6.07666e-14
6.0777e-14
6.07423e-14
6.08093e-14
6.07377e-14
6.08519e-14
6.07483e-14
6.08838e-14
6.07444e-14
6.08486e-14
6.076e-14
6.08592e-14
6.0737e-14
6.088e-14
6.07581e-14
6.08867e-14
6.07334e-14
6.08775e-14
6.07544e-14
6.08232e-14
6.08005e-14
6.08107e-14
6.08165e-14
6.0897e-14
6.07958e-14
6.08707e-14
6.0833e-14
6.07898e-14
6.08763e-14
6.07962e-14
6.08676e-14
6.08242e-14
6.08968e-14
6.08801e-14
6.09606e-14
6.09664e-14
6.09612e-14
6.09562e-14
6.09959e-14
6.10107e-14
6.10302e-14
6.10998e-14
6.10282e-14
6.108e-14
6.10399e-14
6.10969e-14
6.10971e-14
6.11841e-14
6.1116e-14
6.12437e-14
6.11613e-14
6.11955e-14
6.11721e-14
6.12476e-14
6.11793e-14
6.13705e-14
6.12103e-14
6.13874e-14
6.12174e-14
6.13967e-14
6.1301e-14
6.14487e-14
6.13286e-14
6.1424e-14
6.13195e-14
6.14539e-14
6.13228e-14
6.14552e-14
6.13049e-14
6.14606e-14
6.13665e-14
6.14889e-14
6.13907e-14
6.15402e-14
6.1377e-14
6.15815e-14
6.14259e-14
6.15794e-14
6.14716e-14
6.1548e-14
6.15173e-14
6.15189e-14
6.15487e-14
6.15417e-14
6.15311e-14
6.15822e-14
6.15313e-14
6.16078e-14
6.15653e-14
6.16194e-14
6.15653e-14
6.16336e-14
6.1565e-14
6.16683e-14
6.15637e-14
6.17072e-14
6.15604e-14
6.17341e-14
6.15546e-14
6.17496e-14
6.15799e-14
6.17542e-14
6.15851e-14
6.17302e-14
6.15884e-14
6.17196e-14
6.15989e-14
6.17391e-14
6.16077e-14
6.17624e-14
6.16143e-14
6.17725e-14
6.1619e-14
6.17693e-14
6.16218e-14
6.17697e-14
6.16228e-14
6.17647e-14
6.16306e-14
6.17541e-14
6.16539e-14
6.17801e-14
6.16675e-14
6.18001e-14
6.16796e-14
6.18057e-14
6.16989e-14
6.1788e-14
6.1709e-14
6.17803e-14
6.17017e-14
6.17907e-14
6.16936e-14
6.18191e-14
6.1701e-14
6.18494e-14
6.17067e-14
6.18733e-14
6.17108e-14
6.1883e-14
6.17131e-14
6.18949e-14
6.17137e-14
6.1901e-14
6.17125e-14
6.19012e-14
6.17095e-14
6.19037e-14
6.17211e-14
6.19e-14
6.17229e-14
6.1882e-14
6.17151e-14
6.18901e-14
6.17058e-14
6.18999e-14
6.17272e-14
6.18872e-14
6.17392e-14
6.18841e-14
6.175e-14
6.18902e-14
6.17679e-14
6.18894e-14
6.1769e-14
6.18935e-14
6.17695e-14
6.18908e-14
6.17732e-14
6.18889e-14
6.17723e-14
6.19035e-14
6.17785e-14
6.1915e-14
6.17916e-14
6.1912e-14
6.18118e-14
6.19097e-14
6.18123e-14
6.19119e-14
6.18086e-14
6.1911e-14
6.18121e-14
6.19107e-14
6.18188e-14
6.19111e-14
6.18252e-14
6.19119e-14
6.18238e-14
6.19243e-14
6.18183e-14
6.19298e-14
6.18235e-14
6.19285e-14
6.18246e-14
6.1935e-14
6.1829e-14
6.19384e-14
6.18294e-14
6.19494e-14
6.18366e-14
6.19538e-14
6.18399e-14
6.19586e-14
6.18464e-14
6.19639e-14
6.18526e-14
6.19731e-14
6.18584e-14
6.19827e-14
6.1864e-14
6.19858e-14
6.18693e-14
6.19792e-14
6.18777e-14
6.19764e-14
6.18826e-14
6.19807e-14
6.18873e-14
6.19836e-14
6.18919e-14
6.19803e-14
6.19013e-14
6.19691e-14
6.19025e-14
6.19696e-14
6.19084e-14
6.1972e-14
6.19095e-14
6.19697e-14
6.19122e-14
6.19645e-14
6.19071e-14
6.1961e-14
6.19129e-14
6.19578e-14
6.19171e-14
6.19532e-14
6.19137e-14
6.19487e-14
6.19134e-14
6.19474e-14
6.19192e-14
6.19462e-14
6.19235e-14
6.19421e-14
6.19248e-14
6.19412e-14
6.19217e-14
6.19417e-14
6.19232e-14
6.19394e-14
6.19247e-14
6.19386e-14
6.19262e-14
6.19394e-14
6.19249e-14
6.19416e-14
6.19207e-14
6.19424e-14
6.19181e-14
6.19462e-14
6.19184e-14
6.19464e-14
6.19173e-14
6.19453e-14
6.1914e-14
6.19449e-14
6.19123e-14
6.19439e-14
6.19091e-14
6.19429e-14
6.19067e-14
6.19427e-14
6.1905e-14
6.19433e-14
6.1904e-14
6.19424e-14
6.19038e-14
6.19417e-14
6.19007e-14
6.19431e-14
6.18983e-14
6.19438e-14
6.18967e-14
6.19432e-14
6.18972e-14
6.19426e-14
6.1897e-14
6.19413e-14
6.1896e-14
6.19415e-14
6.18958e-14
6.19418e-14
6.18963e-14
6.19406e-14
6.18953e-14
6.19402e-14
6.18951e-14
6.19413e-14
6.18953e-14
6.19402e-14
6.18947e-14
6.19395e-14
6.1894e-14
6.19388e-14
6.18938e-14
6.19389e-14
6.1892e-14
6.19406e-14
6.18906e-14
6.19416e-14
6.18899e-14
6.19422e-14
6.18889e-14
6.19428e-14
6.18874e-14
6.19435e-14
6.18863e-14
6.19434e-14
6.18856e-14
6.19446e-14
6.18853e-14
6.19458e-14
6.18858e-14
6.19449e-14
6.1886e-14
6.1944e-14
6.1887e-14
6.1944e-14
6.18866e-14
6.19445e-14
6.18854e-14
6.19451e-14
6.18852e-14
6.19454e-14
6.18851e-14
6.19455e-14
6.18854e-14
6.19454e-14
6.18855e-14
6.19451e-14
6.18859e-14
6.19453e-14
6.18862e-14
6.19455e-14
6.1886e-14
6.19449e-14
6.18861e-14
6.19441e-14
6.18864e-14
6.19439e-14
6.18865e-14
6.19439e-14
6.18866e-14
6.19434e-14
6.18866e-14
6.19426e-14
6.1887e-14
6.19424e-14
6.18873e-14
6.19425e-14
6.18871e-14
6.19429e-14
6.18873e-14
6.19427e-14
6.18876e-14
6.1942e-14
6.1888e-14
6.19413e-14
6.18882e-14
6.1941e-14
6.18876e-14
6.19409e-14
6.18875e-14
6.19411e-14
6.1887e-14
6.19408e-14
6.18863e-14
6.19403e-14
6.18862e-14
6.19402e-14
6.18862e-14
6.19403e-14
6.18861e-14
6.194e-14
6.18857e-14
6.19395e-14
6.18856e-14
6.19389e-14
6.18856e-14
6.19385e-14
6.18855e-14
6.19384e-14
6.18853e-14
6.19383e-14
6.18857e-14
6.1938e-14
6.18858e-14
6.19377e-14
6.18854e-14
6.19374e-14
6.18855e-14
6.19372e-14
6.18856e-14
6.1937e-14
6.18859e-14
6.1937e-14
6.1886e-14
6.1937e-14
6.18858e-14
6.19371e-14
6.18856e-14
6.1937e-14
6.18856e-14
6.19368e-14
6.18856e-14
6.19366e-14
6.18856e-14
6.19367e-14
6.18855e-14
6.19368e-14
6.18854e-14
6.19368e-14
6.18854e-14
6.19369e-14
6.18852e-14
6.19371e-14
6.18852e-14
6.19371e-14
6.18852e-14
6.1937e-14
6.18853e-14
6.1937e-14
6.18852e-14
6.19371e-14
6.18851e-14
6.19372e-14
6.18851e-14
6.19372e-14
6.1885e-14
6.19372e-14
6.18851e-14
6.19372e-14
6.18851e-14
6.19373e-14
6.18851e-14
6.19373e-14
6.18852e-14
6.19373e-14
6.18851e-14
6.19373e-14
6.18851e-14
6.19373e-14
6.18851e-14
6.19373e-14
6.18851e-14
6.19373e-14
6.18851e-14
6.19373e-14
6.18851e-14
6.19373e-14
)
;

boundaryField
{
    walls
    {
        type            zeroGradient;
    }
    inlet
    {
        type            cyclic;
    }
    outlet
    {
        type            cyclic;
    }
    sides
    {
        type            empty;
    }
}


// ************************************************************************* //
