/*--------------------------------*- C++ -*----------------------------------*\
| =========                 |                                                 |
| \\      /  F ield         | OpenFOAM: The Open Source CFD Toolbox           |
|  \\    /   O peration     | Version:  2106                                  |
|   \\  /    A nd           | Website:  www.openfoam.com                      |
|    \\/     M anipulation  |                                                 |
\*---------------------------------------------------------------------------*/
FoamFile
{
    version     2.0;
    format      ascii;
    arch        "LSB;label=32;scalar=64";
    class       volScalarField;
    location    "10080";
    object      p;
}
// * * * * * * * * * * * * * * * * * * * * * * * * * * * * * * * * * * * * * //

dimensions      [0 2 -2 0 0 0 0];

internalField   nonuniform List<scalar> 
800
(
3.21613e-16
-1.07466e-14
8.256e-16
-1.07492e-14
1.67678e-16
-1.07544e-14
-9.03137e-16
-1.07627e-14
-1.8749e-15
-1.07743e-14
-2.75122e-15
-1.0789e-14
-3.57622e-15
-1.08068e-14
-4.35978e-15
-1.08277e-14
-5.10227e-15
-1.08517e-14
-5.80521e-15
-1.08785e-14
-6.46989e-15
-1.09083e-14
-7.09796e-15
-1.09411e-14
-7.69098e-15
-1.09766e-14
-8.25039e-15
-1.10145e-14
-8.77725e-15
-1.10553e-14
-9.27317e-15
-1.10987e-14
-9.73907e-15
-1.11447e-14
-1.01765e-14
-1.11929e-14
-1.05867e-14
-1.12441e-14
-1.09715e-14
-1.12982e-14
-1.13318e-14
-1.13547e-14
-1.16684e-14
-1.14144e-14
-1.19828e-14
-1.14766e-14
-1.22768e-14
-1.15405e-14
-1.25497e-14
-1.16079e-14
-1.28046e-14
-1.16787e-14
-1.30426e-14
-1.17533e-14
-1.32639e-14
-1.18318e-14
-1.34719e-14
-1.19136e-14
-1.36668e-14
-1.19997e-14
-1.38499e-14
-1.20897e-14
-1.40207e-14
-1.2185e-14
-1.41822e-14
-1.2284e-14
-1.43331e-14
-1.23892e-14
-1.44753e-14
-1.24994e-14
-1.46088e-14
-1.26155e-14
-1.47363e-14
-1.27385e-14
-1.48614e-14
-1.28648e-14
-1.49794e-14
-1.29954e-14
-1.50899e-14
-1.31301e-14
-1.51986e-14
-1.32709e-14
-1.52964e-14
-1.34178e-14
-1.53927e-14
-1.35707e-14
-1.5487e-14
-1.37322e-14
-1.55702e-14
-1.38969e-14
-1.56524e-14
-1.40677e-14
-1.57355e-14
-1.4242e-14
-1.582e-14
-1.44199e-14
-1.59002e-14
-1.45957e-14
-1.59889e-14
-1.47664e-14
-1.60676e-14
-1.4945e-14
-1.61458e-14
-1.51159e-14
-1.623e-14
-1.52797e-14
-1.63104e-14
-1.5447e-14
-1.639e-14
-1.56119e-14
-1.64794e-14
-1.57755e-14
-1.65676e-14
-1.59387e-14
-1.66692e-14
-1.60914e-14
-1.6769e-14
-1.62571e-14
-1.68662e-14
-1.64302e-14
-1.69752e-14
-1.6597e-14
-1.70868e-14
-1.67344e-14
-1.7192e-14
-1.68752e-14
-1.72979e-14
-1.70629e-14
-1.74098e-14
-1.72514e-14
-1.75237e-14
-1.74272e-14
-1.76446e-14
-1.75768e-14
-1.77995e-14
-1.77292e-14
-1.79429e-14
-1.79111e-14
-1.80897e-14
-1.80702e-14
-1.82398e-14
-1.82267e-14
-1.83939e-14
-1.83994e-14
-1.85681e-14
-1.85515e-14
-1.87458e-14
-1.87201e-14
-1.8869e-14
-1.88851e-14
-1.90156e-14
-1.89913e-14
-1.91485e-14
-1.9115e-14
-1.931e-14
-1.92938e-14
-1.94306e-14
-1.94234e-14
-1.95481e-14
-1.95264e-14
-1.97045e-14
-1.97295e-14
-1.99544e-14
-1.99517e-14
-2.01124e-14
-2.01389e-14
-2.0269e-14
-2.03509e-14
-2.04473e-14
-2.05585e-14
-2.07776e-14
-2.07846e-14
-2.09724e-14
-2.09543e-14
-2.11899e-14
-2.11525e-14
-2.14349e-14
-2.14159e-14
-2.16522e-14
-2.16464e-14
-2.19392e-14
-2.18866e-14
-2.21038e-14
-2.20861e-14
-2.22578e-14
-2.22529e-14
-2.23584e-14
-2.23545e-14
-2.24758e-14
-2.24713e-14
-2.2628e-14
-2.2584e-14
-2.27428e-14
-2.26611e-14
-2.27496e-14
-2.27862e-14
-2.27101e-14
-2.29603e-14
-2.29924e-14
-2.30102e-14
-1.28544e-14
-1.31242e-14
-1.28556e-14
-1.31245e-14
-1.28581e-14
-1.31251e-14
-1.28623e-14
-1.3126e-14
-1.28681e-14
-1.31273e-14
-1.28755e-14
-1.31291e-14
-1.28845e-14
-1.31313e-14
-1.28949e-14
-1.3134e-14
-1.29068e-14
-1.31373e-14
-1.29204e-14
-1.31411e-14
-1.29352e-14
-1.31456e-14
-1.29512e-14
-1.31508e-14
-1.29687e-14
-1.31566e-14
-1.29876e-14
-1.31628e-14
-1.30077e-14
-1.31697e-14
-1.30286e-14
-1.31779e-14
-1.30507e-14
-1.31867e-14
-1.30741e-14
-1.31959e-14
-1.30983e-14
-1.32061e-14
-1.31237e-14
-1.32173e-14
-1.315e-14
-1.32294e-14
-1.3177e-14
-1.32425e-14
-1.32052e-14
-1.3257e-14
-1.32348e-14
-1.32719e-14
-1.32653e-14
-1.32873e-14
-1.32967e-14
-1.33047e-14
-1.33299e-14
-1.33235e-14
-1.33643e-14
-1.33428e-14
-1.34002e-14
-1.3364e-14
-1.34378e-14
-1.33869e-14
-1.34775e-14
-1.34101e-14
-1.35188e-14
-1.34359e-14
-1.35622e-14
-1.34654e-14
-1.36079e-14
-1.34973e-14
-1.36568e-14
-1.35322e-14
-1.37087e-14
-1.35703e-14
-1.37617e-14
-1.36144e-14
-1.38223e-14
-1.36587e-14
-1.38871e-14
-1.37063e-14
-1.39525e-14
-1.37634e-14
-1.40185e-14
-1.38278e-14
-1.40899e-14
-1.38972e-14
-1.4164e-14
-1.39701e-14
-1.42433e-14
-1.40519e-14
-1.4325e-14
-1.41398e-14
-1.44073e-14
-1.42423e-14
-1.44955e-14
-1.43438e-14
-1.45834e-14
-1.44529e-14
-1.46731e-14
-1.45664e-14
-1.47735e-14
-1.46779e-14
-1.48874e-14
-1.479e-14
-1.50054e-14
-1.49051e-14
-1.51238e-14
-1.50292e-14
-1.52422e-14
-1.51549e-14
-1.53598e-14
-1.52923e-14
-1.54976e-14
-1.54305e-14
-1.56301e-14
-1.55761e-14
-1.5783e-14
-1.57251e-14
-1.59336e-14
-1.5869e-14
-1.6082e-14
-1.60299e-14
-1.62597e-14
-1.61917e-14
-1.64444e-14
-1.63445e-14
-1.66133e-14
-1.65024e-14
-1.67587e-14
-1.669e-14
-1.69209e-14
-1.68834e-14
-1.70727e-14
-1.70482e-14
-1.72129e-14
-1.72097e-14
-1.74034e-14
-1.74055e-14
-1.75895e-14
-1.75912e-14
-1.7743e-14
-1.77652e-14
-1.78984e-14
-1.79678e-14
-1.81086e-14
-1.81474e-14
-1.82999e-14
-1.83194e-14
-1.8453e-14
-1.84814e-14
-1.85826e-14
-1.86325e-14
-1.8768e-14
-1.87739e-14
-1.89551e-14
-1.89646e-14
-1.91246e-14
-1.91237e-14
-1.92998e-14
-1.9267e-14
-1.94939e-14
-1.94557e-14
-1.96947e-14
-1.96759e-14
-1.99518e-14
-1.98873e-14
-2.0087e-14
-2.00723e-14
-2.02759e-14
-2.02944e-14
-2.05141e-14
-2.04664e-14
-2.06871e-14
-2.06023e-14
-2.09354e-14
-2.082e-14
-2.11838e-14
-2.10588e-14
-2.13942e-14
-2.13182e-14
-2.16432e-14
-2.16207e-14
-2.19098e-14
-2.19059e-14
-2.21741e-14
-2.21419e-14
-2.22558e-14
-2.22582e-14
-2.23363e-14
-2.23194e-14
-2.2424e-14
-2.24748e-14
-2.25605e-14
-2.25606e-14
-2.26602e-14
-2.26346e-14
-2.27417e-14
-2.27945e-14
-2.28825e-14
-2.29009e-14
-2.29915e-14
-2.29926e-14
-2.31064e-14
-2.31055e-14
-2.32262e-14
-2.32254e-14
-2.33305e-14
-2.3345e-14
-2.34349e-14
-2.3496e-14
-2.34656e-14
-2.34871e-14
-2.35706e-14
-2.35312e-14
-2.37011e-14
-2.36403e-14
-2.38793e-14
-2.37919e-14
-2.40099e-14
-2.39873e-14
-2.41065e-14
-2.40987e-14
-2.41979e-14
-2.41266e-14
-2.43285e-14
-2.4308e-14
-2.44191e-14
-2.43668e-14
-2.45261e-14
-2.45077e-14
-2.46179e-14
-2.45916e-14
-2.47134e-14
-2.47089e-14
-2.47093e-14
-2.47741e-14
-2.47233e-14
-2.48244e-14
-2.47428e-14
-2.48227e-14
-2.4863e-14
-2.48868e-14
-2.49127e-14
-2.49007e-14
-2.49381e-14
-2.49071e-14
-2.4927e-14
-2.49045e-14
-2.48992e-14
-2.48962e-14
-2.49372e-14
-2.49089e-14
-2.49838e-14
-2.49413e-14
-2.4977e-14
-2.49668e-14
-2.49744e-14
-2.49704e-14
-2.49747e-14
-2.4954e-14
-2.49811e-14
-2.49547e-14
-2.50305e-14
-2.49916e-14
-2.50289e-14
-2.50244e-14
-2.50317e-14
-2.50203e-14
-2.50294e-14
-2.50076e-14
-2.50311e-14
-2.49951e-14
-2.50371e-14
-2.49898e-14
-2.50302e-14
-2.49992e-14
-2.50267e-14
-2.50158e-14
-2.50164e-14
-2.50159e-14
-2.50069e-14
-2.50168e-14
-2.50053e-14
-2.50267e-14
-2.5011e-14
-2.50143e-14
-2.50086e-14
-2.50029e-14
-2.50064e-14
-2.50074e-14
-2.50116e-14
-2.50125e-14
-2.50275e-14
-2.50001e-14
-2.50293e-14
-2.49983e-14
-2.50181e-14
-2.50065e-14
-2.50141e-14
-2.50079e-14
-2.50271e-14
-2.5006e-14
-2.50272e-14
-2.50073e-14
-2.50246e-14
-2.50085e-14
-2.50254e-14
-2.50066e-14
-2.50206e-14
-2.50048e-14
-2.50278e-14
-2.5006e-14
-2.50323e-14
-2.50043e-14
-2.50316e-14
-2.50025e-14
-2.50326e-14
-2.50007e-14
-2.5034e-14
-2.50014e-14
-2.50344e-14
-2.50019e-14
-2.50327e-14
-2.50061e-14
-2.50312e-14
-2.501e-14
-2.50312e-14
-2.50104e-14
-2.50314e-14
-2.50084e-14
-2.50306e-14
-2.50077e-14
-2.50306e-14
-2.50096e-14
-2.50302e-14
-2.50116e-14
-2.50299e-14
-2.50119e-14
-2.50282e-14
-2.50117e-14
-2.50276e-14
-2.50131e-14
-2.50276e-14
-2.5014e-14
-2.50282e-14
-2.50138e-14
-2.50278e-14
-2.50134e-14
-2.50271e-14
-2.50138e-14
-2.50268e-14
-2.50142e-14
-2.50268e-14
-2.50141e-14
-2.50263e-14
-2.50143e-14
-2.50258e-14
-2.50148e-14
-2.50262e-14
-2.50151e-14
-2.50266e-14
-2.50151e-14
-2.50266e-14
-2.5015e-14
-2.50267e-14
-2.5015e-14
-2.50268e-14
-2.50149e-14
-2.50267e-14
-2.50144e-14
-2.50268e-14
-2.50143e-14
-2.50267e-14
-2.50142e-14
-2.50267e-14
-2.5014e-14
-2.50266e-14
-2.50138e-14
-2.50264e-14
-2.50139e-14
-2.50264e-14
-2.50138e-14
-2.50265e-14
-2.50137e-14
-2.50264e-14
-2.50136e-14
-2.50263e-14
-2.50134e-14
-2.50264e-14
-2.50134e-14
-2.50264e-14
-2.50134e-14
-2.50264e-14
-2.50134e-14
-2.50264e-14
-2.50135e-14
-2.50264e-14
-2.50134e-14
-2.50264e-14
-2.50134e-14
-2.50264e-14
-2.50134e-14
-2.30993e-14
-2.30725e-14
-2.32443e-14
-2.32204e-14
-2.32981e-14
-2.33246e-14
-2.34261e-14
-2.3449e-14
-2.35169e-14
-2.34384e-14
-2.35964e-14
-2.3568e-14
-2.37176e-14
-2.36845e-14
-2.38758e-14
-2.37882e-14
-2.3984e-14
-2.3994e-14
-2.41313e-14
-2.41467e-14
-2.42152e-14
-2.42083e-14
-2.43075e-14
-2.4291e-14
-2.44571e-14
-2.43569e-14
-2.46142e-14
-2.44731e-14
-2.46465e-14
-2.46148e-14
-2.4699e-14
-2.46921e-14
-2.47502e-14
-2.47102e-14
-2.4773e-14
-2.4751e-14
-2.48606e-14
-2.48691e-14
-2.49621e-14
-2.49467e-14
-2.49386e-14
-2.49325e-14
-2.49206e-14
-2.49211e-14
-2.49233e-14
-2.49117e-14
-2.49059e-14
-2.49007e-14
-2.48906e-14
-2.48676e-14
-2.49396e-14
-2.49343e-14
-2.49429e-14
-2.49563e-14
-2.49417e-14
-2.49585e-14
-2.49159e-14
-2.49622e-14
-2.49605e-14
-2.49521e-14
-2.49651e-14
-2.49801e-14
-2.49457e-14
-2.49894e-14
-2.49561e-14
-2.49822e-14
-2.49702e-14
-2.49665e-14
-2.49821e-14
-2.49764e-14
-2.49835e-14
-2.4985e-14
-2.4983e-14
-2.49759e-14
-2.49902e-14
-2.49745e-14
-2.4997e-14
-2.49796e-14
-2.49959e-14
-2.49911e-14
-2.50029e-14
-2.49935e-14
-2.501e-14
-2.49789e-14
-2.50104e-14
-2.49629e-14
-2.50123e-14
-2.49601e-14
-2.50234e-14
-2.49625e-14
-2.50324e-14
-2.49698e-14
-2.50216e-14
-2.49749e-14
-2.50154e-14
-2.49716e-14
-2.50069e-14
-2.49807e-14
-2.50123e-14
-2.49822e-14
-2.50179e-14
-2.49732e-14
-2.50146e-14
-2.49697e-14
-2.50119e-14
-2.49685e-14
-2.50098e-14
-2.49695e-14
-2.50082e-14
-2.49697e-14
-2.50098e-14
-2.49665e-14
-2.50075e-14
-2.49683e-14
-2.50055e-14
-2.49682e-14
-2.50037e-14
-2.49689e-14
-2.50034e-14
-2.49692e-14
-2.50021e-14
-2.49692e-14
-2.49996e-14
-2.49689e-14
-2.49962e-14
-2.49683e-14
-2.49974e-14
-2.49663e-14
-2.49976e-14
-2.49663e-14
-2.4999e-14
-2.49672e-14
-2.49982e-14
-2.497e-14
-2.49991e-14
-2.49711e-14
-2.49989e-14
-2.49709e-14
-2.49988e-14
-2.49716e-14
-2.49982e-14
-2.49711e-14
-2.49981e-14
-2.49716e-14
-2.49984e-14
-2.49717e-14
-2.49987e-14
-2.4972e-14
-2.49978e-14
-2.49734e-14
-2.4997e-14
-2.49744e-14
-2.49973e-14
-2.49745e-14
-2.49971e-14
-2.49748e-14
-2.49967e-14
-2.49752e-14
-2.49964e-14
-2.49755e-14
-2.49963e-14
-2.49752e-14
-2.49963e-14
-2.49751e-14
-2.49962e-14
-2.49751e-14
-2.49961e-14
-2.4975e-14
-2.49961e-14
-2.49751e-14
-2.49959e-14
-2.49754e-14
-2.49959e-14
-2.49756e-14
-2.49961e-14
-2.49756e-14
-2.49962e-14
-2.49759e-14
-2.49962e-14
-2.49761e-14
-2.49961e-14
-2.49764e-14
-2.49962e-14
-2.49763e-14
-2.49962e-14
-2.49763e-14
-2.49962e-14
-2.49763e-14
-2.49963e-14
-2.49763e-14
-2.49962e-14
-2.49763e-14
-2.49962e-14
-2.49763e-14
-2.49962e-14
-2.49763e-14
-2.49962e-14
-2.49763e-14
-2.49962e-14
-2.49762e-14
)
;

boundaryField
{
    walls
    {
        type            zeroGradient;
    }
    inlet
    {
        type            cyclic;
    }
    outlet
    {
        type            cyclic;
    }
    sides
    {
        type            empty;
    }
}


// ************************************************************************* //
