/*--------------------------------*- C++ -*----------------------------------*\
| =========                 |                                                 |
| \\      /  F ield         | OpenFOAM: The Open Source CFD Toolbox           |
|  \\    /   O peration     | Version:  2106                                  |
|   \\  /    A nd           | Website:  www.openfoam.com                      |
|    \\/     M anipulation  |                                                 |
\*---------------------------------------------------------------------------*/
FoamFile
{
    version     2.0;
    format      ascii;
    arch        "LSB;label=32;scalar=64";
    class       surfaceScalarField;
    location    "10080";
    object      phi;
}
// * * * * * * * * * * * * * * * * * * * * * * * * * * * * * * * * * * * * * //

dimensions      [0 3 -1 0 0 0 0];

oriented        oriented;

internalField   nonuniform List<scalar> 
1596
(
7.04068e-08
-8.08055e-19
1.25122e-21
1.97519e-21
1.94205e-22
2.24721e-07
-8.26062e-19
6.38428e-21
1.27533e-20
7.96289e-22
4.01021e-07
-8.45422e-19
6.92395e-21
2.43388e-20
9.12928e-22
6.0177e-07
-8.66141e-19
7.42419e-21
3.65783e-20
1.04486e-21
8.29684e-07
-8.88135e-19
7.9593e-21
4.93612e-20
1.19383e-21
1.08776e-06
-9.11612e-19
8.53186e-21
6.30182e-20
1.3618e-21
1.37929e-06
-9.36396e-19
9.13612e-21
7.75196e-20
1.55086e-21
1.70791e-06
-9.63285e-19
9.77074e-21
9.26528e-20
1.76335e-21
2.07764e-06
-9.9213e-19
1.04366e-20
1.09144e-19
2.00187e-21
2.49288e-06
-1.02249e-18
1.11348e-20
1.26246e-19
2.26926e-21
2.95847e-06
-1.05466e-18
1.18659e-20
1.43524e-19
2.56861e-21
3.47977e-06
-1.08787e-18
1.26301e-20
1.6131e-19
2.90341e-21
4.06263e-06
-1.12217e-18
1.34277e-20
1.79964e-19
3.27734e-21
4.7135e-06
-1.15931e-18
1.42584e-20
1.9934e-19
3.69408e-21
5.43946e-06
-1.19785e-18
1.51212e-20
2.19305e-19
4.1582e-21
6.24824e-06
-1.23884e-18
1.60142e-20
2.40247e-19
4.6748e-21
7.14832e-06
-1.28091e-18
1.69357e-20
2.60451e-19
5.24853e-21
8.14895e-06
-1.32671e-18
1.78824e-20
2.82491e-19
5.88473e-21
9.26015e-06
-1.36858e-18
1.88503e-20
3.03252e-19
6.58766e-21
1.04928e-05
-1.41532e-18
1.98302e-20
3.2208e-19
7.36266e-21
1.18585e-05
-1.46434e-18
2.0813e-20
3.42239e-19
8.21556e-21
1.33698e-05
-1.51564e-18
2.17876e-20
3.62503e-19
9.14687e-21
1.50398e-05
-1.57007e-18
2.27406e-20
3.82393e-19
1.01582e-20
1.6882e-05
-1.62544e-18
2.36552e-20
4.01614e-19
1.12453e-20
1.89104e-05
-1.68278e-18
2.45004e-20
4.19792e-19
1.24015e-20
2.1139e-05
-1.73252e-18
2.52529e-20
4.3574e-19
1.36141e-20
2.35813e-05
-1.78512e-18
2.5876e-20
4.49241e-19
1.48655e-20
2.62503e-05
-1.82857e-18
2.63368e-20
4.58425e-19
1.61299e-20
2.91579e-05
-1.87925e-18
2.65916e-20
4.71271e-19
1.73885e-20
3.23146e-05
-1.92188e-18
2.66178e-20
4.66179e-19
1.85981e-20
3.57297e-05
-1.97469e-18
2.63725e-20
4.73636e-19
1.97402e-20
3.94111e-05
-2.00587e-18
2.58619e-20
4.59211e-19
2.07715e-20
4.33659e-05
-2.05814e-18
2.50563e-20
4.52584e-19
2.1696e-20
4.76004e-05
-2.09057e-18
2.40119e-20
4.30132e-19
2.24384e-20
5.21208e-05
-2.123e-18
2.27289e-20
4.19093e-19
2.30165e-20
5.69339e-05
-2.13781e-18
2.12324e-20
3.91509e-19
2.33939e-20
6.20472e-05
-2.1166e-18
1.95147e-20
3.39867e-19
2.35861e-20
6.74693e-05
-2.12534e-18
1.75771e-20
3.08961e-19
2.36023e-20
7.32104e-05
-2.13251e-18
1.545e-20
2.51048e-19
2.34425e-20
7.92821e-05
-2.10735e-18
1.31457e-20
2.11172e-19
2.32637e-20
8.56977e-05
-2.13459e-18
1.05454e-20
1.77762e-19
2.29597e-20
9.24721e-05
-2.12968e-18
7.9367e-21
1.47325e-19
2.24451e-20
9.96218e-05
-2.10451e-18
5.20231e-21
1.26892e-19
2.1616e-20
0.000107165
-2.09125e-18
2.43512e-21
9.26056e-20
2.04708e-20
0.000115121
-2.0546e-18
-2.00811e-22
4.95433e-20
1.90574e-20
0.000123512
-1.98313e-18
-2.82617e-21
-1.15765e-20
1.75379e-20
0.000132359
-1.92425e-18
-5.57818e-21
-6.57385e-20
1.5648e-20
0.000141688
-1.87941e-18
-8.46309e-21
-1.27194e-19
1.34828e-20
0.000151523
-1.78658e-18
-1.14708e-20
-1.99842e-19
1.10591e-20
0.000161893
-1.76452e-18
-1.48465e-20
-2.71572e-19
8.27072e-21
0.000172825
-1.6906e-18
-1.75379e-20
-3.45432e-19
4.83042e-21
0.00018435
-1.63186e-18
-2.03435e-20
-3.90816e-19
1.38177e-21
0.000196501
-1.557e-18
-2.29457e-20
-4.45963e-19
-1.91169e-21
0.000209311
-1.50759e-18
-2.54373e-20
-5.13184e-19
-5.48971e-21
0.000222815
-1.39886e-18
-2.76392e-20
-5.53653e-19
-8.71668e-21
0.000237051
-1.33774e-18
-2.93867e-20
-5.62317e-19
-1.21392e-20
0.000252058
-1.23661e-18
-3.10197e-20
-5.5696e-19
-1.5357e-20
0.000267877
-1.17659e-18
-3.3029e-20
-5.20503e-19
-1.74935e-20
0.000284552
-1.13824e-18
-3.4468e-20
-5.48861e-19
-2.0864e-20
0.000302128
-1.08218e-18
-3.5133e-20
-5.579e-19
-2.38962e-20
0.000320653
-1.0064e-18
-3.40035e-20
-6.31211e-19
-2.66689e-20
0.000340176
-9.97938e-19
-3.29899e-20
-6.04697e-19
-2.67393e-20
0.000360751
-9.39393e-19
-3.19153e-20
-5.21054e-19
-2.62782e-20
0.000382433
-9.13296e-19
-3.27757e-20
-5.08773e-19
-2.61181e-20
0.000405279
-8.24285e-19
-3.17311e-20
-4.9371e-19
-2.59444e-20
0.000429351
-7.63799e-19
-3.253e-20
-4.92789e-19
-2.69723e-20
0.000454711
-6.27766e-19
-3.34549e-20
-5.28956e-19
-2.7967e-20
0.000481427
-5.74246e-19
-3.34615e-20
-4.48536e-19
-2.50822e-20
0.000509568
-6.14186e-19
-3.33287e-20
-4.82033e-19
-2.63323e-20
0.000539208
-5.94109e-19
-3.31638e-20
-5.09399e-19
-2.62603e-20
0.000570422
-5.67861e-19
-3.35654e-20
-5.46599e-19
-2.26658e-20
0.000603292
-5.35502e-19
-2.92362e-20
-6.43362e-19
-2.1702e-20
0.000637901
-5.33343e-19
-2.88745e-20
-6.49601e-19
-1.79095e-20
0.000674336
-7.15645e-19
-3.41479e-20
-6.42105e-19
-1.99616e-20
0.00071269
-6.93372e-19
-3.12016e-20
-7.03005e-19
-2.6714e-20
0.000753057
-6.00733e-19
-2.22222e-20
-7.18959e-19
-2.68226e-20
0.000795537
-6.70556e-19
-2.02266e-20
-6.66044e-19
-1.58773e-20
0.000840234
-6.04387e-19
-1.48302e-20
-6.90166e-19
-2.4008e-20
0.000887257
-6.28727e-19
-1.22438e-20
-6.69205e-19
-2.07586e-20
0.000936718
-5.28126e-19
-1.6187e-21
-4.33709e-19
6.60183e-21
0.000988732
-2.89277e-19
3.50225e-21
-1.93973e-19
1.21898e-20
0.00104342
-3.63327e-19
-2.26974e-21
-1.5213e-19
1.49249e-21
0.00110091
-4.43089e-19
3.74511e-21
-2.25207e-19
-2.42192e-20
0.00116133
-4.34794e-19
3.49974e-20
-3.09288e-19
-3.31996e-20
0.00122481
-5.78916e-20
8.28787e-20
-4.37575e-19
-5.40798e-20
0.00129149
-3.88443e-19
1.22806e-20
-4.41724e-19
-4.69405e-20
0.0013615
-1.16447e-19
6.70152e-20
-2.44656e-19
-4.78397e-20
0.00143498
-1.95675e-19
4.68397e-20
-1.76452e-19
-6.04245e-20
0.00151207
-2.88655e-19
-1.48848e-20
-2.75498e-19
-6.48595e-20
0.00159292
-1.39274e-19
6.83905e-21
-1.74982e-19
-3.10534e-20
0.00167764
-4.66237e-19
-1.35718e-20
-3.9685e-19
-4.07431e-20
0.00176637
-4.73159e-19
5.05464e-20
-4.47756e-19
-1.11962e-20
0.00185922
-4.63216e-19
4.43198e-20
-5.68713e-19
-3.02726e-20
0.00195629
-3.75195e-19
3.63276e-20
-3.84808e-19
-7.77169e-21
0.00205764
-3.52695e-19
-4.81357e-20
-3.68365e-19
3.26479e-20
0.0021633
-4.61384e-19
-4.63605e-20
-6.41768e-19
-3.88066e-20
0.00227324
-4.81099e-19
-2.98554e-20
-3.45173e-19
2.92769e-20
0.00238736
-4.79245e-19
4.67754e-20
-1.94763e-19
2.15927e-20
0.00250547
-2.21561e-20
1.14185e-19
-2.51968e-19
-9.1854e-20
0.00262728
-3.26464e-20
-1.55811e-19
-3.43041e-20
-1.68849e-19
7.04068e-08
1.19173e-21
2.54839e-22
2.24721e-07
7.14756e-21
1.45377e-21
4.01021e-07
1.36527e-20
2.77641e-21
6.0177e-07
2.06099e-20
4.29793e-21
8.29684e-07
2.79869e-20
6.07893e-21
1.08776e-06
3.5634e-20
8.11125e-21
1.37929e-06
4.39525e-20
1.06262e-20
1.70791e-06
5.29557e-20
1.32581e-20
2.07764e-06
6.28058e-20
1.66347e-20
2.49288e-06
7.27347e-20
2.04371e-20
2.95847e-06
8.29999e-20
2.46503e-20
3.47977e-06
9.42903e-20
2.87826e-20
4.06263e-06
1.07224e-19
3.28097e-20
4.7135e-06
1.18674e-19
3.8556e-20
5.43946e-06
1.30072e-19
4.5706e-20
6.24824e-06
1.43809e-19
5.30664e-20
7.14832e-06
1.58426e-19
6.06124e-20
8.14895e-06
1.72645e-19
6.88426e-20
9.26015e-06
1.87698e-19
7.89541e-20
1.04928e-05
2.01008e-19
9.16927e-20
1.18585e-05
2.16031e-19
1.03843e-19
1.33698e-05
2.34159e-19
1.19064e-19
1.50398e-05
2.55266e-19
1.31981e-19
1.6882e-05
2.66687e-19
1.50087e-19
1.89104e-05
2.85371e-19
1.71149e-19
2.1139e-05
3.04515e-19
1.92771e-19
2.35813e-05
3.22589e-19
2.12774e-19
2.62503e-05
3.42292e-19
2.36363e-19
2.91579e-05
3.61543e-19
2.57087e-19
3.23146e-05
3.73667e-19
2.8236e-19
3.57297e-05
3.89533e-19
3.14283e-19
3.94111e-05
4.01625e-19
3.52992e-19
4.33659e-05
4.16934e-19
3.78344e-19
4.76004e-05
4.37162e-19
4.08532e-19
5.21208e-05
4.54519e-19
4.37468e-19
5.69339e-05
4.72609e-19
4.67651e-19
6.20472e-05
5.1573e-19
4.83911e-19
6.74693e-05
5.28483e-19
5.20538e-19
7.32104e-05
5.3947e-19
5.78404e-19
7.92821e-05
5.35461e-19
6.23619e-19
8.56977e-05
5.47942e-19
6.62129e-19
9.24721e-05
5.37939e-19
6.84272e-19
9.96218e-05
5.37217e-19
7.2568e-19
0.000107165
5.31677e-19
7.55859e-19
0.000115121
5.14104e-19
8.12143e-19
0.000123512
5.12732e-19
8.03867e-19
0.000132359
5.14156e-19
7.98923e-19
0.000141688
5.11474e-19
7.81625e-19
0.000151523
5.28691e-19
7.56176e-19
0.000161893
5.86858e-19
7.1611e-19
0.000172825
5.72249e-19
7.03737e-19
0.00018435
5.73354e-19
7.01623e-19
0.000196501
5.63185e-19
6.7182e-19
0.000209311
5.25888e-19
6.55339e-19
0.000222815
5.74754e-19
6.13181e-19
0.000237051
5.70664e-19
6.37882e-19
0.000252058
5.73453e-19
6.80059e-19
0.000267877
5.84929e-19
6.06184e-19
0.000284552
5.75448e-19
5.69893e-19
0.000302128
6.18263e-19
5.56014e-19
0.000320653
5.73937e-19
5.56678e-19
0.000340176
4.83391e-19
5.27681e-19
0.000360751
3.84119e-19
5.39669e-19
0.000382433
3.69886e-19
5.20018e-19
0.000405279
3.04819e-19
4.78354e-19
0.000429351
2.81748e-19
4.00915e-19
0.000454711
3.43526e-19
4.16062e-19
0.000481427
3.0714e-19
3.83106e-19
0.000509568
2.4422e-19
3.27754e-19
0.000539208
2.55775e-19
3.62278e-19
0.000570422
3.146e-19
2.83579e-19
0.000603292
2.44759e-19
2.26651e-19
0.000637901
1.71839e-19
1.5172e-19
0.000674336
1.06229e-19
9.28603e-20
0.00071269
1.63528e-19
5.20792e-20
0.000753057
1.79794e-19
1.72183e-19
0.000795537
1.67342e-19
1.31338e-19
0.000840234
1.4323e-19
1.37893e-19
0.000887257
8.74518e-20
1.29819e-19
0.000936718
7.95803e-21
4.64585e-20
0.000988732
1.79091e-20
5.66081e-20
0.00104342
-9.5668e-20
-1.47172e-19
0.00110091
-1.17681e-19
-1.85956e-19
0.00116133
-7.25211e-20
-2.2015e-19
0.00122481
-1.91629e-19
-6.37542e-20
0.00129149
2.78514e-20
-1.87371e-19
0.0013615
-6.08758e-20
-1.14451e-19
0.00143498
-2.54668e-19
3.2237e-20
0.00151207
-7.19023e-20
-5.52185e-20
0.00159292
-8.02054e-20
-1.66848e-19
0.00167764
-1.98496e-19
-2.45464e-19
0.00176637
-4.31967e-19
-4.14137e-19
0.00185922
-4.46569e-19
-4.32449e-19
0.00195629
-5.07028e-19
-2.65955e-19
0.00205764
-3.34304e-19
-5.17448e-19
0.0021633
-4.11885e-19
-5.04786e-19
0.00227324
-3.18315e-19
-2.74702e-19
0.00238736
-3.36973e-19
-2.7908e-19
0.00250547
-2.45738e-19
-2.41962e-19
0.00262728
-9.08474e-20
-2.96269e-19
0.00262728
8.79077e-20
1.23839e-19
6.44462e-21
-3.02932e-20
0.00250547
6.18949e-20
-1.55666e-20
1.41767e-19
2.58035e-20
0.00238736
5.14934e-20
-9.19597e-20
1.96707e-19
-4.64625e-20
0.00227324
-8.91215e-20
-5.38091e-20
-2.36563e-19
-1.08707e-19
0.0021633
-1.04324e-21
-1.98078e-20
-5.22811e-20
-9.82392e-20
0.00205764
-2.7241e-20
-6.73052e-20
-1.70069e-19
2.37909e-20
0.00195629
2.97156e-21
3.43242e-20
-1.27491e-19
2.76971e-20
0.00185922
-9.1969e-20
2.1824e-20
2.99161e-20
-8.21225e-21
0.00176637
-4.62666e-20
-8.34813e-21
-1.69537e-20
-4.32299e-20
0.00167764
-1.12518e-19
-2.23081e-20
-1.87934e-19
-1.83354e-20
0.00159292
6.6729e-21
-2.25312e-20
1.46275e-19
2.23732e-20
0.00151207
-2.69506e-20
-1.74054e-20
4.45955e-20
-2.8168e-20
0.00143498
-7.05576e-20
1.96327e-20
1.26244e-20
-5.62912e-20
0.0013615
-2.1024e-20
4.4388e-20
-4.08853e-20
-3.12715e-20
0.00129149
-4.70426e-20
-9.8471e-21
-1.34014e-19
-1.41884e-20
0.00122481
-3.15327e-19
-2.60779e-20
-1.59672e-19
-2.8561e-21
0.00116133
-3.06984e-19
-4.4428e-21
1.79917e-20
-1.45764e-20
0.00110091
-1.03532e-19
1.97171e-20
-3.11962e-19
-3.68714e-20
0.00104342
-2.1083e-20
4.01988e-20
-2.4918e-19
4.59688e-21
0.000988732
-1.27111e-19
2.89008e-20
-1.82267e-19
1.17807e-20
0.000936718
-5.19338e-20
1.41021e-20
-1.88089e-19
7.76138e-21
0.000887257
-1.79008e-19
-7.97896e-21
-9.42804e-20
4.64969e-21
0.000840234
-1.67315e-19
-1.20866e-20
-1.31127e-19
-2.55902e-21
0.000795537
-1.02297e-19
-1.22141e-20
-1.84476e-19
-7.24911e-21
0.000753057
-4.54586e-20
-1.73553e-20
-1.17882e-19
-1.05989e-20
0.000712689
-1.62914e-19
-1.74902e-20
-3.5942e-20
3.11977e-21
0.000674336
-8.13212e-20
-9.30279e-21
-3.77592e-20
1.87834e-21
0.000637901
-7.89813e-20
-1.038e-20
-1.40297e-19
-2.61838e-21
0.000603292
-9.34835e-20
-1.55495e-20
-1.14127e-19
1.0579e-21
0.000570422
-3.76742e-20
-1.17054e-20
-4.38466e-20
-1.88938e-21
0.000539208
-1.65591e-19
-1.74154e-20
-4.9159e-20
-3.54215e-21
0.000509568
-1.17392e-19
-1.84056e-20
-1.3535e-19
-9.08998e-21
0.000481427
-1.32053e-19
-1.54207e-20
-1.04458e-19
-5.71778e-21
0.000454711
-8.49167e-20
-1.05023e-20
-1.54149e-19
-4.01338e-21
0.000429351
-1.05261e-19
-8.8642e-21
-8.92505e-20
7.51578e-22
0.000405279
-1.40441e-19
-7.92405e-21
-5.7243e-20
2.43568e-21
0.000382433
-1.13046e-19
-6.0668e-21
-7.20228e-20
1.53292e-21
0.000360751
-1.42879e-19
-4.75944e-21
-5.53146e-20
1.25687e-21
0.000340176
-1.35397e-19
-2.81398e-21
-6.06647e-20
1.64533e-21
0.000320653
-1.16368e-19
-9.88892e-22
-3.92493e-20
1.75003e-21
0.000302128
-5.08757e-20
4.08775e-22
-7.81771e-20
5.61461e-22
0.000284552
-5.38875e-20
5.82139e-22
-6.40031e-20
-1.16477e-22
0.000267877
-4.97217e-20
7.69453e-22
-1.02211e-19
-7.18125e-22
0.000252058
-4.76198e-20
9.94168e-22
-7.49167e-20
-7.01104e-22
0.000237051
-3.97526e-21
1.2555e-21
-1.30273e-19
-1.0589e-21
0.000222815
-3.82848e-20
6.49935e-22
-7.25383e-20
-2.15276e-22
0.000209311
-7.17306e-20
-2.39708e-23
-3.71312e-20
-2.59245e-22
0.000196501
-6.35892e-20
-1.54329e-22
-3.2806e-20
-7.43205e-22
0.00018435
-1.0974e-21
-4.94955e-22
-4.31653e-20
-5.12193e-22
0.000172825
-3.10944e-20
-1.03275e-21
-1.18802e-20
-3.95123e-22
0.000161893
-3.38936e-20
-9.38074e-22
-1.02605e-20
-7.08935e-22
0.000151523
-2.50659e-20
-9.90596e-22
-4.27286e-21
-7.17932e-22
0.000141688
-2.80252e-20
-8.45511e-22
-2.95899e-20
-8.74586e-22
0.000132359
2.55611e-20
-6.27202e-22
-3.91009e-21
-8.47553e-22
0.000123512
1.87255e-20
-7.31749e-22
-2.85061e-20
-9.84407e-22
0.000115121
-9.90034e-21
-8.35888e-22
-3.13923e-20
-1.01147e-21
0.000107165
2.41507e-22
-8.63202e-22
-3.36769e-20
-8.75767e-22
9.96218e-05
-4.36782e-21
-9.06309e-22
-1.93441e-21
-7.39601e-22
9.24721e-05
-5.49582e-21
-9.09514e-22
-7.05264e-21
-7.49637e-22
8.56977e-05
-1.28106e-20
-8.85682e-22
2.46448e-21
-6.90924e-22
7.92821e-05
-2.02452e-20
-8.23144e-22
8.07103e-21
-7.09405e-22
7.32104e-05
-1.32435e-20
-7.53903e-22
3.26165e-21
-7.51646e-22
6.74693e-05
-1.25656e-20
-7.15184e-22
1.77873e-21
-7.28307e-22
6.20472e-05
-1.66821e-20
-6.17529e-22
-4.52189e-22
-6.96431e-22
5.69339e-05
-1.35441e-20
-5.31772e-22
-6.20671e-21
-6.36861e-22
5.21208e-05
-1.90648e-20
-4.51875e-22
-2.27453e-21
-5.86168e-22
4.76004e-05
-1.88099e-20
-3.92213e-22
-2.50101e-21
-5.25177e-22
4.33659e-05
-2.52094e-20
-3.2851e-22
-2.86937e-21
-4.70315e-22
3.94111e-05
-1.7035e-20
-2.7604e-22
-2.09306e-21
-4.2377e-22
3.57297e-05
-1.5053e-20
-2.41386e-22
-3.42138e-21
-3.77556e-22
3.23146e-05
-6.24251e-21
-2.08966e-22
-9.69052e-21
-3.44079e-22
2.91579e-05
-1.27723e-20
-1.85012e-22
-8.97128e-21
-2.98363e-22
2.62503e-05
-1.08288e-20
-1.52903e-22
-6.14793e-21
-2.60153e-22
2.35813e-05
-1.10692e-20
-1.2603e-22
-4.3024e-21
-2.28057e-22
2.1139e-05
-8.83594e-21
-1.10945e-22
-5.14902e-21
-1.92006e-22
1.89104e-05
-1.09535e-20
-1.01781e-22
-4.41291e-21
-1.59983e-22
1.6882e-05
-7.82695e-21
-8.88321e-23
-1.7724e-21
-1.36972e-22
1.50398e-05
-1.96098e-21
-8.01773e-23
-1.24923e-21
-1.18517e-22
1.33698e-05
-1.541e-21
-7.50517e-23
-6.44462e-22
-1.00865e-22
1.18585e-05
-1.79104e-21
-6.89078e-23
-1.38987e-21
-8.62916e-23
1.04928e-05
-1.85553e-21
-6.13353e-23
-6.52276e-22
-7.42191e-23
9.26015e-06
-9.35756e-22
-5.46118e-23
-7.30463e-22
-6.38696e-23
8.14895e-06
-1.14452e-21
-4.8651e-23
-1.14262e-21
-5.49392e-23
7.14833e-06
-5.86306e-22
-4.27525e-23
-1.06172e-21
-4.68693e-23
6.24824e-06
-7.70092e-22
-3.72824e-23
-1.25487e-21
-3.97201e-23
5.43946e-06
-1.0888e-23
-3.23466e-23
-1.31649e-21
-3.30945e-23
4.7135e-06
-7.78813e-23
-2.80944e-23
-1.72703e-21
-2.76347e-23
4.06263e-06
-9.9933e-23
-2.41323e-23
-2.96938e-22
-2.32096e-23
3.47977e-06
1.48676e-22
-2.07796e-23
-6.16916e-22
-1.97127e-23
2.95847e-06
1.65833e-22
-1.79424e-23
-6.27733e-22
-1.67546e-23
2.49288e-06
-2.63718e-22
-1.56776e-23
-1.84213e-22
-1.42533e-23
2.07764e-06
1.11405e-23
-1.35449e-23
9.05302e-24
-1.22784e-23
1.70792e-06
2.58368e-22
-1.17422e-23
-4.01642e-23
-1.06679e-23
1.37929e-06
1.0215e-22
-1.02297e-23
2.61707e-23
-9.31916e-24
1.08776e-06
-4.30003e-23
-8.86264e-24
-3.90362e-24
-8.13613e-24
8.29683e-07
-3.27353e-23
-7.71161e-24
5.63056e-23
-7.0883e-24
6.01771e-07
-2.00711e-23
-6.71192e-24
-1.37955e-23
-6.16913e-24
4.01021e-07
-7.98185e-24
-5.82966e-24
-1.79248e-23
-5.36402e-24
2.2472e-07
-3.18974e-24
-5.07028e-24
4.08268e-24
-4.66278e-24
7.04069e-08
-2.08805e-24
-2.4538e-24
0.00262728
-1.11394e-19
8.08635e-20
0.00250547
-9.84513e-21
1.03405e-19
0.00238736
1.15091e-19
9.60918e-20
0.00227324
1.29462e-21
-1.89377e-19
0.0021633
-8.03543e-20
1.94676e-19
0.00205764
1.53101e-19
-1.50372e-19
0.00195629
3.34823e-20
-8.96035e-20
0.00185922
-7.76658e-20
7.38489e-20
0.00176637
-4.72784e-20
6.38043e-20
0.00167764
-7.90969e-20
-5.05662e-20
0.00159292
1.64998e-20
-1.07259e-20
0.00151207
-6.14531e-21
-1.95921e-19
0.00143498
-1.21584e-19
-9.74221e-20
0.0013615
-3.36549e-19
-7.05739e-20
0.00129149
-1.62772e-19
-4.70461e-20
0.00122481
-2.41891e-19
-1.86017e-19
0.00116133
-1.92418e-19
-1.66107e-19
0.00110091
4.17571e-20
-8.28011e-20
0.00104342
-7.69572e-20
-1.6631e-19
0.000988732
-2.80626e-19
-2.33452e-19
0.000936718
-3.00886e-19
-3.05411e-19
0.000887257
-3.05036e-19
-2.95244e-19
0.000840234
-2.88953e-19
-2.82234e-19
0.000795537
-2.83869e-19
-3.26022e-19
0.000753057
-1.70443e-19
-5.90938e-20
0.000712689
-1.59587e-19
-1.15284e-19
0.000674336
-1.597e-19
-1.91951e-19
0.000637901
-2.06671e-19
-1.74095e-19
0.000603292
-4.56874e-20
-1.63687e-19
0.000570422
-1.10253e-19
-1.05025e-20
0.000539208
-1.40046e-19
-1.0795e-19
0.000509568
-3.52501e-20
-4.54892e-20
0.000481427
-1.70112e-20
-9.17756e-20
0.000454711
-3.19589e-20
-6.56224e-20
0.000429351
-5.58934e-20
-5.57544e-20
0.000405279
-6.80398e-20
-6.95209e-20
0.000382433
-6.28579e-20
-8.13008e-20
0.000360751
-5.82473e-20
-8.47721e-20
0.000340176
-4.13974e-20
-8.27523e-20
0.000320653
-4.00153e-20
-8.62539e-20
0.000302128
-4.08479e-20
-1.08552e-19
0.000284552
-3.9906e-20
-1.09434e-19
0.000267877
-2.66002e-20
-8.5722e-20
0.000252058
-1.76285e-20
-5.51041e-20
0.000237051
-3.39444e-20
-4.24445e-20
0.000222815
-8.35517e-20
-5.41374e-20
0.000209311
-7.88728e-20
-6.55771e-20
0.000196501
-8.48562e-20
-2.95225e-20
0.00018435
-4.55842e-20
-4.55219e-20
0.000172825
-2.32516e-20
-4.99479e-20
0.000161893
-6.84695e-20
-2.00401e-20
0.000151523
-5.49882e-20
-3.65116e-20
0.000141688
-5.40365e-20
-3.3403e-20
0.000132359
-4.73529e-20
-2.84576e-20
0.000123512
-4.76285e-20
-3.60545e-20
0.000115121
-5.50263e-20
-9.94263e-21
0.000107165
-4.57782e-20
-8.69006e-21
9.96218e-05
-4.33556e-20
-2.28552e-20
9.24721e-05
-4.06798e-20
-1.70226e-20
8.56977e-05
-3.88421e-20
-3.11536e-20
7.92821e-05
-4.3653e-20
-3.75427e-20
7.32104e-05
-4.62915e-20
-2.20593e-20
6.74693e-05
-1.78847e-20
-2.36928e-20
6.20472e-05
-1.49256e-20
-8.74503e-21
5.69339e-05
-4.3622e-21
-1.23503e-20
5.21208e-05
-1.29742e-20
-6.662e-21
4.76004e-05
-2.4446e-21
-9.00204e-21
4.33659e-05
-7.96414e-21
-1.03074e-20
3.94111e-05
-7.65788e-21
-4.70989e-21
3.57297e-05
-6.24492e-21
-7.97397e-21
3.23146e-05
-4.94575e-21
-9.23693e-22
2.91579e-05
-4.53293e-21
-3.02586e-21
2.62503e-05
-3.74897e-21
-2.38131e-21
2.35813e-05
-1.01947e-20
3.78767e-21
2.1139e-05
-1.09167e-20
2.47887e-21
1.89104e-05
-5.87915e-21
1.04501e-21
1.6882e-05
-6.29593e-21
1.88532e-21
1.50398e-05
-5.39391e-21
1.98305e-21
1.33698e-05
-4.30498e-21
1.51198e-22
1.18585e-05
-2.25237e-21
-1.71163e-21
1.04928e-05
-2.83644e-21
-1.16817e-21
9.26015e-06
-2.13901e-21
-1.54661e-21
8.14895e-06
-1.83857e-21
-1.64941e-21
7.14833e-06
-1.53646e-21
-8.75937e-22
6.24824e-06
-1.4336e-21
8.7995e-22
5.43946e-06
-6.2101e-22
5.15288e-22
4.7135e-06
5.70598e-22
-1.6844e-22
4.06263e-06
2.99934e-22
1.97585e-22
3.47977e-06
5.1444e-22
-8.36801e-23
2.95847e-06
-1.58519e-22
4.25334e-22
2.49288e-06
3.0579e-22
3.41982e-22
2.07764e-06
2.87371e-22
1.83708e-22
1.70792e-06
1.60886e-22
-8.61119e-24
1.37929e-06
2.74672e-22
8.36234e-23
1.08776e-06
-1.98623e-22
6.29738e-23
8.29683e-07
-1.77929e-22
7.63744e-23
6.01771e-07
-1.35893e-23
7.39025e-24
4.01021e-07
-5.90869e-23
3.48014e-23
2.2472e-07
3.84325e-24
7.30692e-24
7.04069e-08
)
;

boundaryField
{
    walls
    {
        type            calculated;
        value           uniform 0;
    }
    inlet
    {
        type            cyclic;
        value           nonuniform List<scalar> 
400
(
-7.04068e-08
-2.24721e-07
-4.01021e-07
-6.0177e-07
-8.29684e-07
-1.08776e-06
-1.37929e-06
-1.70791e-06
-2.07764e-06
-2.49288e-06
-2.95847e-06
-3.47977e-06
-4.06263e-06
-4.7135e-06
-5.43946e-06
-6.24824e-06
-7.14832e-06
-8.14895e-06
-9.26015e-06
-1.04928e-05
-1.18585e-05
-1.33698e-05
-1.50398e-05
-1.6882e-05
-1.89104e-05
-2.1139e-05
-2.35813e-05
-2.62503e-05
-2.91579e-05
-3.23146e-05
-3.57297e-05
-3.94111e-05
-4.33659e-05
-4.76004e-05
-5.21208e-05
-5.69339e-05
-6.20472e-05
-6.74693e-05
-7.32104e-05
-7.92821e-05
-8.56977e-05
-9.24721e-05
-9.96218e-05
-0.000107165
-0.000115121
-0.000123512
-0.000132359
-0.000141688
-0.000151523
-0.000161893
-0.000172825
-0.00018435
-0.000196501
-0.000209311
-0.000222815
-0.000237051
-0.000252058
-0.000267877
-0.000284552
-0.000302128
-0.000320653
-0.000340176
-0.000360751
-0.000382433
-0.000405279
-0.000429351
-0.000454711
-0.000481427
-0.000509568
-0.000539208
-0.000570422
-0.000603292
-0.000637901
-0.000674336
-0.00071269
-0.000753057
-0.000795537
-0.000840234
-0.000887257
-0.000936718
-0.000988732
-0.00104342
-0.00110091
-0.00116133
-0.00122481
-0.00129149
-0.0013615
-0.00143498
-0.00151207
-0.00159292
-0.00167764
-0.00176637
-0.00185922
-0.00195629
-0.00205764
-0.0021633
-0.00227324
-0.00238736
-0.00250547
-0.00262728
-7.04068e-08
-2.24721e-07
-4.01021e-07
-6.0177e-07
-8.29684e-07
-1.08776e-06
-1.37929e-06
-1.70791e-06
-2.07764e-06
-2.49288e-06
-2.95847e-06
-3.47977e-06
-4.06263e-06
-4.7135e-06
-5.43946e-06
-6.24824e-06
-7.14832e-06
-8.14895e-06
-9.26015e-06
-1.04928e-05
-1.18585e-05
-1.33698e-05
-1.50398e-05
-1.6882e-05
-1.89104e-05
-2.1139e-05
-2.35813e-05
-2.62503e-05
-2.91579e-05
-3.23146e-05
-3.57297e-05
-3.94111e-05
-4.33659e-05
-4.76004e-05
-5.21208e-05
-5.69339e-05
-6.20472e-05
-6.74693e-05
-7.32104e-05
-7.92821e-05
-8.56977e-05
-9.24721e-05
-9.96218e-05
-0.000107165
-0.000115121
-0.000123512
-0.000132359
-0.000141688
-0.000151523
-0.000161893
-0.000172825
-0.00018435
-0.000196501
-0.000209311
-0.000222815
-0.000237051
-0.000252058
-0.000267877
-0.000284552
-0.000302128
-0.000320653
-0.000340176
-0.000360751
-0.000382433
-0.000405279
-0.000429351
-0.000454711
-0.000481427
-0.000509568
-0.000539208
-0.000570422
-0.000603292
-0.000637901
-0.000674336
-0.00071269
-0.000753057
-0.000795537
-0.000840234
-0.000887257
-0.000936718
-0.000988732
-0.00104342
-0.00110091
-0.00116133
-0.00122481
-0.00129149
-0.0013615
-0.00143498
-0.00151207
-0.00159292
-0.00167764
-0.00176637
-0.00185922
-0.00195629
-0.00205764
-0.0021633
-0.00227324
-0.00238736
-0.00250547
-0.00262728
-0.00262728
-0.00250547
-0.00238736
-0.00227324
-0.0021633
-0.00205764
-0.00195629
-0.00185922
-0.00176637
-0.00167764
-0.00159292
-0.00151207
-0.00143498
-0.0013615
-0.00129149
-0.00122481
-0.00116133
-0.00110091
-0.00104342
-0.000988732
-0.000936718
-0.000887257
-0.000840234
-0.000795537
-0.000753057
-0.000712689
-0.000674336
-0.000637901
-0.000603292
-0.000570422
-0.000539208
-0.000509568
-0.000481427
-0.000454711
-0.000429351
-0.000405279
-0.000382433
-0.000360751
-0.000340176
-0.000320653
-0.000302128
-0.000284552
-0.000267877
-0.000252058
-0.000237051
-0.000222815
-0.000209311
-0.000196501
-0.00018435
-0.000172825
-0.000161893
-0.000151523
-0.000141688
-0.000132359
-0.000123512
-0.000115121
-0.000107165
-9.96218e-05
-9.24721e-05
-8.56977e-05
-7.92821e-05
-7.32104e-05
-6.74693e-05
-6.20472e-05
-5.69339e-05
-5.21208e-05
-4.76004e-05
-4.33659e-05
-3.94111e-05
-3.57297e-05
-3.23146e-05
-2.91579e-05
-2.62503e-05
-2.35813e-05
-2.1139e-05
-1.89104e-05
-1.6882e-05
-1.50398e-05
-1.33698e-05
-1.18585e-05
-1.04928e-05
-9.26015e-06
-8.14895e-06
-7.14833e-06
-6.24824e-06
-5.43946e-06
-4.7135e-06
-4.06263e-06
-3.47977e-06
-2.95847e-06
-2.49288e-06
-2.07764e-06
-1.70792e-06
-1.37929e-06
-1.08776e-06
-8.29683e-07
-6.01771e-07
-4.01021e-07
-2.2472e-07
-7.04069e-08
-0.00262728
-0.00250547
-0.00238736
-0.00227324
-0.0021633
-0.00205764
-0.00195629
-0.00185922
-0.00176637
-0.00167764
-0.00159292
-0.00151207
-0.00143498
-0.0013615
-0.00129149
-0.00122481
-0.00116133
-0.00110091
-0.00104342
-0.000988732
-0.000936718
-0.000887257
-0.000840234
-0.000795537
-0.000753057
-0.000712689
-0.000674336
-0.000637901
-0.000603292
-0.000570422
-0.000539208
-0.000509568
-0.000481427
-0.000454711
-0.000429351
-0.000405279
-0.000382433
-0.000360751
-0.000340176
-0.000320653
-0.000302128
-0.000284552
-0.000267877
-0.000252058
-0.000237051
-0.000222815
-0.000209311
-0.000196501
-0.00018435
-0.000172825
-0.000161893
-0.000151523
-0.000141688
-0.000132359
-0.000123512
-0.000115121
-0.000107165
-9.96218e-05
-9.24721e-05
-8.56977e-05
-7.92821e-05
-7.32104e-05
-6.74693e-05
-6.20472e-05
-5.69339e-05
-5.21208e-05
-4.76004e-05
-4.33659e-05
-3.94111e-05
-3.57297e-05
-3.23146e-05
-2.91579e-05
-2.62503e-05
-2.35813e-05
-2.1139e-05
-1.89104e-05
-1.6882e-05
-1.50398e-05
-1.33698e-05
-1.18585e-05
-1.04928e-05
-9.26015e-06
-8.14895e-06
-7.14833e-06
-6.24824e-06
-5.43946e-06
-4.7135e-06
-4.06263e-06
-3.47977e-06
-2.95847e-06
-2.49288e-06
-2.07764e-06
-1.70792e-06
-1.37929e-06
-1.08776e-06
-8.29683e-07
-6.01771e-07
-4.01021e-07
-2.2472e-07
-7.04069e-08
)
;
    }
    outlet
    {
        type            cyclic;
        value           nonuniform List<scalar> 
400
(
7.04068e-08
2.24721e-07
4.01021e-07
6.0177e-07
8.29684e-07
1.08776e-06
1.37929e-06
1.70791e-06
2.07764e-06
2.49288e-06
2.95847e-06
3.47977e-06
4.06263e-06
4.7135e-06
5.43946e-06
6.24824e-06
7.14832e-06
8.14895e-06
9.26015e-06
1.04928e-05
1.18585e-05
1.33698e-05
1.50398e-05
1.6882e-05
1.89104e-05
2.1139e-05
2.35813e-05
2.62503e-05
2.91579e-05
3.23146e-05
3.57297e-05
3.94111e-05
4.33659e-05
4.76004e-05
5.21208e-05
5.69339e-05
6.20472e-05
6.74693e-05
7.32104e-05
7.92821e-05
8.56977e-05
9.24721e-05
9.96218e-05
0.000107165
0.000115121
0.000123512
0.000132359
0.000141688
0.000151523
0.000161893
0.000172825
0.00018435
0.000196501
0.000209311
0.000222815
0.000237051
0.000252058
0.000267877
0.000284552
0.000302128
0.000320653
0.000340176
0.000360751
0.000382433
0.000405279
0.000429351
0.000454711
0.000481427
0.000509568
0.000539208
0.000570422
0.000603292
0.000637901
0.000674336
0.00071269
0.000753057
0.000795537
0.000840234
0.000887257
0.000936718
0.000988732
0.00104342
0.00110091
0.00116133
0.00122481
0.00129149
0.0013615
0.00143498
0.00151207
0.00159292
0.00167764
0.00176637
0.00185922
0.00195629
0.00205764
0.0021633
0.00227324
0.00238736
0.00250547
0.00262728
7.04068e-08
2.24721e-07
4.01021e-07
6.0177e-07
8.29684e-07
1.08776e-06
1.37929e-06
1.70791e-06
2.07764e-06
2.49288e-06
2.95847e-06
3.47977e-06
4.06263e-06
4.7135e-06
5.43946e-06
6.24824e-06
7.14832e-06
8.14895e-06
9.26015e-06
1.04928e-05
1.18585e-05
1.33698e-05
1.50398e-05
1.6882e-05
1.89104e-05
2.1139e-05
2.35813e-05
2.62503e-05
2.91579e-05
3.23146e-05
3.57297e-05
3.94111e-05
4.33659e-05
4.76004e-05
5.21208e-05
5.69339e-05
6.20472e-05
6.74693e-05
7.32104e-05
7.92821e-05
8.56977e-05
9.24721e-05
9.96218e-05
0.000107165
0.000115121
0.000123512
0.000132359
0.000141688
0.000151523
0.000161893
0.000172825
0.00018435
0.000196501
0.000209311
0.000222815
0.000237051
0.000252058
0.000267877
0.000284552
0.000302128
0.000320653
0.000340176
0.000360751
0.000382433
0.000405279
0.000429351
0.000454711
0.000481427
0.000509568
0.000539208
0.000570422
0.000603292
0.000637901
0.000674336
0.00071269
0.000753057
0.000795537
0.000840234
0.000887257
0.000936718
0.000988732
0.00104342
0.00110091
0.00116133
0.00122481
0.00129149
0.0013615
0.00143498
0.00151207
0.00159292
0.00167764
0.00176637
0.00185922
0.00195629
0.00205764
0.0021633
0.00227324
0.00238736
0.00250547
0.00262728
0.00262728
0.00250547
0.00238736
0.00227324
0.0021633
0.00205764
0.00195629
0.00185922
0.00176637
0.00167764
0.00159292
0.00151207
0.00143498
0.0013615
0.00129149
0.00122481
0.00116133
0.00110091
0.00104342
0.000988732
0.000936718
0.000887257
0.000840234
0.000795537
0.000753057
0.000712689
0.000674336
0.000637901
0.000603292
0.000570422
0.000539208
0.000509568
0.000481427
0.000454711
0.000429351
0.000405279
0.000382433
0.000360751
0.000340176
0.000320653
0.000302128
0.000284552
0.000267877
0.000252058
0.000237051
0.000222815
0.000209311
0.000196501
0.00018435
0.000172825
0.000161893
0.000151523
0.000141688
0.000132359
0.000123512
0.000115121
0.000107165
9.96218e-05
9.24721e-05
8.56977e-05
7.92821e-05
7.32104e-05
6.74693e-05
6.20472e-05
5.69339e-05
5.21208e-05
4.76004e-05
4.33659e-05
3.94111e-05
3.57297e-05
3.23146e-05
2.91579e-05
2.62503e-05
2.35813e-05
2.1139e-05
1.89104e-05
1.6882e-05
1.50398e-05
1.33698e-05
1.18585e-05
1.04928e-05
9.26015e-06
8.14895e-06
7.14833e-06
6.24824e-06
5.43946e-06
4.7135e-06
4.06263e-06
3.47977e-06
2.95847e-06
2.49288e-06
2.07764e-06
1.70792e-06
1.37929e-06
1.08776e-06
8.29683e-07
6.01771e-07
4.01021e-07
2.2472e-07
7.04069e-08
0.00262728
0.00250547
0.00238736
0.00227324
0.0021633
0.00205764
0.00195629
0.00185922
0.00176637
0.00167764
0.00159292
0.00151207
0.00143498
0.0013615
0.00129149
0.00122481
0.00116133
0.00110091
0.00104342
0.000988732
0.000936718
0.000887257
0.000840234
0.000795537
0.000753057
0.000712689
0.000674336
0.000637901
0.000603292
0.000570422
0.000539208
0.000509568
0.000481427
0.000454711
0.000429351
0.000405279
0.000382433