/*--------------------------------*- C++ -*----------------------------------*\
| =========                 |                                                 |
| \\      /  F ield         | OpenFOAM: The Open Source CFD Toolbox           |
|  \\    /   O peration     | Version:  2106                                  |
|   \\  /    A nd           | Website:  www.openfoam.com                      |
|    \\/     M anipulation  |                                                 |
\*---------------------------------------------------------------------------*/
FoamFile
{
    version     2.0;
    format      ascii;
    arch        "LSB;label=32;scalar=64";
    class       surfaceScalarField;
    location    "10080";
    object      phi;
}
// * * * * * * * * * * * * * * * * * * * * * * * * * * * * * * * * * * * * * //

dimensions      [0 3 -1 0 0 0 0];

oriented        oriented;

internalField   nonuniform List<scalar> 
3996
(
9.04397e-09
-6.73287e-18
-1.60866e-22
-3.29148e-22
1.32381e-24
2.7807e-08
-6.73233e-18
-1.73838e-22
-7.02163e-22
7.4736e-24
4.76172e-08
-6.73181e-18
-1.71105e-22
-1.07065e-21
7.88429e-24
6.85204e-08
-6.73124e-18
-1.81538e-22
-1.4692e-21
8.30992e-24
9.05638e-08
-6.73064e-18
-1.92016e-22
-1.87617e-21
8.75e-24
1.13797e-07
-6.73002e-18
-2.02078e-22
-2.30422e-21
9.20415e-24
1.38271e-07
-6.72936e-18
-2.12546e-22
-2.75084e-21
9.67248e-24
1.64039e-07
-6.72869e-18
-2.23589e-22
-3.18595e-21
1.01549e-23
1.91156e-07
-6.72799e-18
-2.35168e-22
-3.66089e-21
1.06516e-23
2.19681e-07
-6.72726e-18
-2.47294e-22
-4.14207e-21
1.11625e-23
2.49673e-07
-6.72647e-18
-2.60008e-22
-4.63707e-21
1.1687e-23
2.81194e-07
-6.72558e-18
-2.7335e-22
-5.24677e-21
1.22241e-23
3.1431e-07
-6.72471e-18
-2.87352e-22
-5.87149e-21
1.27734e-23
3.49086e-07
-6.72368e-18
-3.02045e-22
-6.55852e-21
1.33353e-23
3.85594e-07
-6.72265e-18
-3.17469e-22
-7.20376e-21
1.39124e-23
4.23905e-07
-6.72178e-18
-3.33658e-22
-7.91502e-21
1.4502e-23
4.64096e-07
-6.72068e-18
-3.50646e-22
-8.66314e-21
1.51042e-23
5.06244e-07
-6.71951e-18
-3.68478e-22
-9.43748e-21
1.57225e-23
5.50432e-07
-6.71822e-18
-3.87199e-22
-1.03203e-20
1.63527e-23
5.96744e-07
-6.71712e-18
-4.06852e-22
-1.11086e-20
1.69986e-23
6.45268e-07
-6.71574e-18
-4.27479e-22
-1.20166e-20
1.76559e-23
6.96095e-07
-6.71417e-18
-4.49131e-22
-1.30201e-20
1.83281e-23
7.4932e-07
-6.71286e-18
-4.71868e-22
-1.39837e-20
1.90191e-23
8.05043e-07
-6.71118e-18
-4.95728e-22
-1.50984e-20
1.97262e-23
8.63365e-07
-6.70953e-18
-5.20778e-22
-1.62097e-20
2.04517e-23
9.24393e-07
-6.70803e-18
-5.47072e-22
-1.72066e-20
2.1189e-23
9.88237e-07
-6.70609e-18
-5.74659e-22
-1.84778e-20
2.19244e-23
1.05501e-06
-6.70443e-18
-6.0361e-22
-1.95515e-20
2.26865e-23
1.12484e-06
-6.70265e-18
-6.33981e-22
-2.06887e-20
2.34467e-23
1.19784e-06
-6.70013e-18
-6.65836e-22
-2.2533e-20
2.42037e-23
1.27415e-06
-6.69778e-18
-6.99284e-22
-2.3807e-20
2.49949e-23
1.35389e-06
-6.69514e-18
-7.34387e-22
-2.53545e-20
2.58068e-23
1.4372e-06
-6.69277e-18
-7.71244e-22
-2.70803e-20
2.664e-23
1.52424e-06
-6.69015e-18
-8.09927e-22
-2.87633e-20
2.74797e-23
1.61514e-06
-6.68771e-18
-8.5054e-22
-3.03485e-20
2.8337e-23
1.71007e-06
-6.68497e-18
-8.9315e-22
-3.20833e-20
2.91892e-23
1.80918e-06
-6.68198e-18
-9.3787e-22
-3.41832e-20
3.00265e-23
1.91265e-06
-6.67958e-18
-9.84792e-22
-3.60601e-20
3.08621e-23
2.02064e-06
-6.67628e-18
-1.03401e-21
-3.81913e-20
3.16819e-23
2.13333e-06
-6.67246e-18
-1.08565e-21
-4.04921e-20
3.25198e-23
2.25092e-06
-6.66855e-18
-1.13985e-21
-4.32935e-20
3.33154e-23
2.37359e-06
-6.66566e-18
-1.19671e-21
-4.54474e-20
3.40866e-23
2.50155e-06
-6.66171e-18
-1.25633e-21
-4.80054e-20
3.48443e-23
2.635e-06
-6.6577e-18
-1.31885e-21
-5.08512e-20
3.55585e-23
2.77416e-06
-6.65291e-18
-1.38443e-21
-5.39146e-20
3.62608e-23
2.91925e-06
-6.64877e-18
-1.45325e-21
-5.66336e-20
3.69487e-23
3.0705e-06
-6.64456e-18
-1.52543e-21
-5.9333e-20
3.75753e-23
3.22816e-06
-6.64024e-18
-1.60107e-21
-6.20761e-20
3.81627e-23
3.39247e-06
-6.63495e-18
-1.68035e-21
-6.5898e-20
3.8659e-23
3.56369e-06
-6.62977e-18
-1.76349e-21
-6.82626e-20
3.91083e-23
3.74209e-06
-6.62477e-18
-1.85062e-21
-7.24617e-20
3.94783e-23
3.92793e-06
-6.61759e-18
-1.94185e-21
-7.58728e-20
3.98329e-23
4.12151e-06
-6.61095e-18
-2.03747e-21
-8.02067e-20
4.00201e-23
4.32311e-06
-6.60349e-18
-2.13753e-21
-8.57256e-20
4.01375e-23
4.53304e-06
-6.59641e-18
-2.24227e-21
-8.97775e-20
4.02673e-23
4.75162e-06
-6.58895e-18
-2.35183e-21
-9.46461e-20
4.01222e-23
4.97915e-06
-6.58184e-18
-2.46646e-21
-9.97712e-20
3.98226e-23
5.21599e-06
-6.57342e-18
-2.58624e-21
-1.05416e-19
3.93876e-23
5.46246e-06
-6.5642e-18
-2.7115e-21
-1.11253e-19
3.88022e-23
5.71892e-06
-6.55523e-18
-2.84249e-21
-1.16732e-19
3.79788e-23
5.98572e-06
-6.54595e-18
-2.97929e-21
-1.22646e-19
3.66886e-23
6.26324e-06
-6.53659e-18
-3.12208e-21
-1.28394e-19
3.49472e-23
6.55186e-06
-6.52619e-18
-3.27116e-21
-1.3516e-19
3.29181e-23
6.85195e-06
-6.51666e-18
-3.42674e-21
-1.41026e-19
3.05579e-23
7.16392e-06
-6.50532e-18
-3.58853e-21
-1.48228e-19
2.77204e-23
7.48817e-06
-6.49388e-18
-3.75695e-21
-1.54585e-19
2.45762e-23
7.82511e-06
-6.48307e-18
-3.93203e-21
-1.6203e-19
2.08607e-23
8.17514e-06
-6.47138e-18
-4.11358e-21
-1.67734e-19
1.65762e-23
8.53869e-06
-6.45952e-18
-4.30209e-21
-1.76943e-19
1.19066e-23
8.91619e-06
-6.44541e-18
-4.49756e-21
-1.85398e-19
6.92337e-24
9.30806e-06
-6.43059e-18
-4.69988e-21
-1.954e-19
1.09289e-24
9.71472e-06
-6.41428e-18
-4.90934e-21
-2.05541e-19
-5.52415e-24
1.01366e-05
-6.40055e-18
-5.12562e-21
-2.13689e-19
-1.30476e-23
1.05742e-05
-6.38673e-18
-5.3479e-21
-2.22042e-19
-2.21641e-23
1.10278e-05
-6.3718e-18
-5.57655e-21
-2.32641e-19
-3.28692e-23
1.1498e-05
-6.35337e-18
-5.81085e-21
-2.43497e-19
-4.40168e-23
1.1985e-05
-6.33554e-18
-6.05135e-21
-2.56101e-19
-5.65866e-23
1.24895e-05
-6.31063e-18
-6.29714e-21
-2.70795e-19
-7.05853e-23
1.30116e-05
-6.29169e-18
-6.54981e-21
-2.81207e-19
-8.49615e-23
1.3552e-05
-6.27179e-18
-6.80704e-21
-2.93485e-19
-1.01557e-22
1.41108e-05
-6.25129e-18
-7.06815e-21
-3.06882e-19
-1.21205e-22
1.46886e-05
-6.23043e-18
-7.33267e-21
-3.21308e-19
-1.43543e-22
1.52856e-05
-6.20564e-18
-7.59914e-21
-3.34479e-19
-1.68464e-22
1.59023e-05
-6.18041e-18
-7.86727e-21
-3.52965e-19
-1.97626e-22
1.65389e-05
-6.15281e-18
-8.13675e-21
-3.7055e-19
-2.29809e-22
1.71959e-05
-6.12737e-18
-8.40772e-21
-3.87122e-19
-2.6583e-22
1.78734e-05
-6.10206e-18
-8.67821e-21
-4.06626e-19
-3.06504e-22
1.85719e-05
-6.07694e-18
-8.94704e-21
-4.2018e-19
-3.51005e-22
1.92916e-05
-6.05153e-18
-9.21455e-21
-4.36129e-19
-4.01361e-22
2.00329e-05
-6.02605e-18
-9.48061e-21
-4.50922e-19
-4.55892e-22
2.07959e-05
-5.99929e-18
-9.74543e-21
-4.67918e-19
-5.14957e-22
2.1581e-05
-5.9732e-18
-1.00084e-20
-4.83834e-19
-5.78283e-22
2.23884e-05
-5.94335e-18
-1.02658e-20
-5.0149e-19
-6.47768e-22
2.32184e-05
-5.91351e-18
-1.0517e-20
-5.20086e-19
-7.22839e-22
2.40713e-05
-5.88232e-18
-1.07612e-20
-5.38981e-19
-8.03264e-22
2.49473e-05
-5.84709e-18
-1.09973e-20
-5.59218e-19
-8.90168e-22
2.58467e-05
-5.81796e-18
-1.12268e-20
-5.76888e-19
-9.82731e-22
2.67697e-05
-5.78071e-18
-1.14473e-20
-5.98018e-19
-1.08302e-21
2.77166e-05
-5.74799e-18
-1.16609e-20
-6.19467e-19
-1.1901e-21
2.86878e-05
-5.70654e-18
-1.18657e-20
-6.42515e-19
-1.30413e-21
2.96835e-05
-5.66668e-18
-1.2065e-20
-6.67118e-19
-1.42569e-21
3.0704e-05
-5.62892e-18
-1.22645e-20
-6.88149e-19
-1.55329e-21
3.17496e-05
-5.58759e-18
-1.24596e-20
-7.09844e-19
-1.6878e-21
3.28207e-05
-5.54787e-18
-1.26529e-20
-7.33676e-19
-1.82295e-21
3.39175e-05
-5.51117e-18
-1.28413e-20
-7.53566e-19
-1.95931e-21
3.50406e-05
-5.46686e-18
-1.30275e-20
-7.76821e-19
-2.09536e-21
3.61901e-05
-5.42575e-18
-1.32153e-20
-8.02878e-19
-2.22655e-21
3.73666e-05
-5.37046e-18
-1.33951e-20
-8.33509e-19
-2.35306e-21
3.85705e-05
-5.33425e-18
-1.35813e-20
-8.60568e-19
-2.47717e-21
3.98021e-05
-5.27482e-18
-1.37583e-20
-8.82664e-19
-2.60255e-21
4.10619e-05
-5.2308e-18
-1.39476e-20
-9.12055e-19
-2.73133e-21
4.23504e-05
-5.17877e-18
-1.41255e-20
-9.36387e-19
-2.862e-21
4.36681e-05
-5.1321e-18
-1.43061e-20
-9.67221e-19
-2.99635e-21
4.50154e-05
-5.08496e-18
-1.44753e-20
-9.91425e-19
-3.12617e-21
4.6393e-05
-5.03362e-18
-1.46398e-20
-1.01981e-18
-3.26337e-21
4.78013e-05
-4.9873e-18
-1.47997e-20
-1.04411e-18
-3.40217e-21
4.92409e-05
-4.93541e-18
-1.49315e-20
-1.06544e-18
-3.55616e-21
5.07125e-05
-4.86526e-18
-1.50506e-20
-1.10907e-18
-3.70878e-21
5.22165e-05
-4.81021e-18
-1.51728e-20
-1.13663e-18
-3.8352e-21
5.37536e-05
-4.76267e-18
-1.52978e-20
-1.1584e-18
-3.94546e-21
5.53246e-05
-4.72406e-18
-1.53992e-20
-1.17131e-18
-4.06367e-21
5.69299e-05
-4.68868e-18
-1.54694e-20
-1.16885e-18
-4.20381e-21
5.85704e-05
-4.64791e-18
-1.5515e-20
-1.18627e-18
-4.37185e-21
6.02467e-05
-4.60997e-18
-1.55414e-20
-1.20002e-18
-4.55808e-21
6.19595e-05
-4.5581e-18
-1.55488e-20
-1.23073e-18
-4.76311e-21
6.37097e-05
-4.51021e-18
-1.55475e-20
-1.26715e-18
-4.95286e-21
6.54979e-05
-4.46111e-18
-1.55368e-20
-1.2939e-18
-5.1185e-21
6.73249e-05
-4.40216e-18
-1.55219e-20
-1.31253e-18
-5.27834e-21
6.91915e-05
-4.3691e-18
-1.55173e-20
-1.34523e-18
-5.45982e-21
7.10987e-05
-4.31346e-18
-1.54412e-20
-1.37174e-18
-5.63113e-21
7.30471e-05
-4.27001e-18
-1.53942e-20
-1.39123e-18
-5.75815e-21
7.50377e-05
-4.2104e-18
-1.53728e-20
-1.41669e-18
-5.86277e-21
7.70713e-05
-4.16624e-18
-1.53724e-20
-1.43744e-18
-5.98962e-21
7.9149e-05
-4.08943e-18
-1.53625e-20
-1.45396e-18
-6.1292e-21
8.12715e-05
-4.04727e-18
-1.54079e-20
-1.47986e-18
-6.25221e-21
8.34398e-05
-3.98674e-18
-1.54549e-20
-1.5172e-18
-6.3629e-21
8.5655e-05
-3.94581e-18
-1.54899e-20
-1.53784e-18
-6.48881e-21
8.7918e-05
-3.88194e-18
-1.54589e-20
-1.56938e-18
-6.65291e-21
9.02298e-05
-3.8359e-18
-1.5406e-20
-1.59988e-18
-6.818e-21
9.25914e-05
-3.78067e-18
-1.53853e-20
-1.62644e-18
-6.93499e-21
9.5004e-05
-3.75484e-18
-1.54364e-20
-1.6201e-18
-7.04891e-21
9.74686e-05
-3.72678e-18
-1.55198e-20
-1.62119e-18
-7.19763e-21
9.99863e-05
-3.68882e-18
-1.55758e-20
-1.60856e-18
-7.37524e-21
0.000102558
-3.6636e-18
-1.55793e-20
-1.61429e-18
-7.5715e-21
0.000105186
-3.63182e-18
-1.55583e-20
-1.60572e-18
-7.775e-21
0.000107869
-3.6093e-18
-1.55565e-20
-1.61418e-18
-7.92533e-21
0.000110611
-3.56773e-18
-1.55144e-20
-1.6114e-18
-7.98943e-21
0.000113412
-3.54437e-18
-1.55463e-20
-1.62117e-18
-8.08652e-21
0.000116273
-3.50668e-18
-1.54929e-20
-1.62129e-18
-8.15941e-21
0.000119195
-3.43121e-18
-1.539e-20
-1.66444e-18
-8.24344e-21
0.000122181
-3.40594e-18
-1.54498e-20
-1.67114e-18
-8.17526e-21
0.00012523
-3.3625e-18
-1.54157e-20
-1.66368e-18
-8.02082e-21
0.000128345
-3.38911e-18
-1.5381e-20
-1.69139e-18
-7.93318e-21
0.000131527
-3.36164e-18
-1.50381e-20
-1.70667e-18
-7.82365e-21
0.000134778
-3.3654e-18
-1.4813e-20
-1.66944e-18
-7.65835e-21
0.000138098
-3.29394e-18
-1.4523e-20
-1.72808e-18
-7.62569e-21
0.00014149
-3.27298e-18
-1.44906e-20
-1.72918e-18
-7.37459e-21
0.000144954
-3.24491e-18
-1.46115e-20
-1.74534e-18
-7.28427e-21
0.000148492
-3.21928e-18
-1.47783e-20
-1.75491e-18
-7.11474e-21
0.000152107
-3.20795e-18
-1.49613e-20
-1.73543e-18
-6.9592e-21
0.000155799
-3.18679e-18
-1.50295e-20
-1.74703e-18
-7.0356e-21
0.00015957
-3.16252e-18
-1.4885e-20
-1.75813e-18
-7.12803e-21
0.000163422
-3.14159e-18
-1.48271e-20
-1.78903e-18
-7.1676e-21
0.000167357
-3.0978e-18
-1.45259e-20
-1.78735e-18
-7.18077e-21
0.000171375
-3.07188e-18
-1.44115e-20
-1.79714e-18
-7.26453e-21
0.00017548
-3.05398e-18
-1.43367e-20
-1.82239e-18
-7.43035e-21
0.000179672
-3.04756e-18
-1.41821e-20
-1.81932e-18
-7.52027e-21
0.000183954
-2.99054e-18
-1.3899e-20
-1.86866e-18
-7.54782e-21
0.000188328
-2.9669e-18
-1.37625e-20
-1.86422e-18
-7.04716e-21
0.000192795
-2.94073e-18
-1.36016e-20
-1.85768e-18
-6.85179e-21
0.000197357
-2.90043e-18
-1.35325e-20
-1.88479e-18
-6.69499e-21
0.000202017
-2.8604e-18
-1.34426e-20
-1.8679e-18
-6.51621e-21
0.000206776
-2.87171e-18
-1.36098e-20
-1.87505e-18
-6.35261e-21
0.000211636
-2.81977e-18
-1.34472e-20
-1.8708e-18
-6.06482e-21
0.0002166
-2.79557e-18
-1.34033e-20
-1.87773e-18
-5.7949e-21
0.000221669
-2.71135e-18
-1.32557e-20
-1.88375e-18
-5.29713e-21
0.000226846
-2.70469e-18
-1.35707e-20
-1.89998e-18
-4.78103e-21
0.000232133
-2.66145e-18
-1.36987e-20
-1.89149e-18
-4.40217e-21
0.000237533
-2.6443e-18
-1.41138e-20
-1.85939e-18
-4.45609e-21
0.000243047
-2.63579e-18
-1.41678e-20
-1.86442e-18
-5.37703e-21
0.000248677
-2.58144e-18
-1.37146e-20
-1.88063e-18
-6.5488e-21
0.000254427
-2.52839e-18
-1.3672e-20
-1.90035e-18
-7.18776e-21
0.000260299
-2.45592e-18
-1.3636e-20
-1.9483e-18
-7.50887e-21
0.000266295
-2.44031e-18
-1.39219e-20
-1.90289e-18
-6.84361e-21
0.000272417
-2.39204e-18
-1.35243e-20
-1.92732e-18
-6.71651e-21
0.000278669
-2.36002e-18
-1.29744e-20
-1.91886e-18
-6.56867e-21
0.000285053
-2.37868e-18
-1.35322e-20
-1.86499e-18
-6.26086e-21
0.000291571
-2.37905e-18
-1.28167e-20
-1.93027e-18
-7.39278e-21
0.000298226
-2.35213e-18
-1.2864e-20
-1.93697e-18
-8.42572e-21
0.000305021
-2.2853e-18
-1.32521e-20
-2.01701e-18
-1.04539e-20
0.000311958
-2.28386e-18
-1.44845e-20
-2.05751e-18
-1.21084e-20
0.000319041
-2.26838e-18
-1.54649e-20
-2.07447e-18
-1.36662e-20
0.000326273
-2.24438e-18
-1.5903e-20
-2.09679e-18
-1.47298e-20
0.000333655
-2.22936e-18
-1.63823e-20
-2.10359e-18
-1.66063e-20
0.000341192
-2.23566e-18
-1.64847e-20
-2.17181e-18
-1.79474e-20
0.000348886
-2.19734e-18
-1.49135e-20
-2.1265e-18
-1.77724e-20
0.00035674
-2.19825e-18
-1.57576e-20
-2.13817e-18
-1.64726e-20
0.000364758
-2.19074e-18
-1.64893e-20
-2.2234e-18
-1.50855e-20
0.000372942
-2.16207e-18
-1.52956e-20
-2.21535e-18
-1.34614e-20
0.000381295
-2.18295e-18
-1.4726e-20
-2.12232e-18
-1.26605e-20
0.000389821
-2.15333e-18
-1.3751e-20
-2.11798e-18
-1.34674e-20
0.000398524
-2.11939e-18
-1.47179e-20
-2.03818e-18
-1.27913e-20
0.000407406
-2.10961e-18
-1.49755e-20
-2.02867e-18
-1.45286e-20
0.00041647
-2.06261e-18
-1.50552e-20
-1.87684e-18
-1.55969e-20
0.000425721
-1.93904e-18
-1.82676e-20
-1.97957e-18
-1.82709e-20
0.000435161
-1.92568e-18
-2.22574e-20
-1.88924e-18
-1.94887e-20
0.000444794
-1.92187e-18
-2.35388e-20
-1.9018e-18
-2.1712e-20
0.000454624
-1.76986e-18
-2.41598e-20
-1.92991e-18
-2.24057e-20
0.000464654
-1.80406e-18
-2.66846e-20
-1.86567e-18
-2.24087e-20
0.000474886
-1.74788e-18
-2.80913e-20
-1.726e-18
-2.41918e-20
0.000485327
-1.75179e-18
-3.05923e-20
-1.74208e-18
-2.95113e-20
0.000495977
-1.68682e-18
-3.41073e-20
-1.75613e-18
-3.18412e-20
0.000506842
-1.74666e-18
-3.92636e-20
-1.8745e-18
-3.56238e-20
0.000517924
-1.84393e-18
-4.16047e-20
-1.78916e-18
-3.64791e-20
0.000529228
-1.82102e-18
-4.1067e-20
-1.74598e-18
-3.84874e-20
0.000540757
-1.80084e-18
-4.0872e-20
-1.72232e-18
-4.25618e-20
0.000552515
-1.79926e-18
-4.1142e-20
-1.82311e-18
-4.3905e-20
0.000564504
-1.76039e-18
-3.63974e-20
-1.50182e-18
-3.5544e-20
0.00057673
-1.61679e-18
-3.3043e-20
-1.66309e-18
-4.17731e-20
0.000589194
-1.71894e-18
-3.79491e-20
-1.68213e-18
-4.17359e-20
0.000601901
-1.56888e-18
-3.57163e-20
-1.67211e-18
-3.98001e-20
0.000614855
-1.59658e-18
-4.16196e-20
-1.67952e-18
-3.92828e-20
0.000628058
-1.66159e-18
-4.52667e-20
-1.69974e-18
-3.96619e-20
0.000641513
-1.59221e-18
-4.8799e-20
-1.6941e-18
-3.73286e-20
0.000655225
-1.53372e-18
-4.78956e-20
-1.58659e-18
-3.99291e-20
0.000669195
-1.60625e-18
-4.94862e-20
-1.59066e-18
-4.56893e-20
0.000683427
-1.55371e-18
-4.72091e-20
-1.62451e-18
-5.48711e-20
0.000697924
-1.55604e-18
-4.35456e-20
-1.56667e-18
-5.91487e-20
0.000712688
-1.53307e-18
-5.19522e-20
-1.69149e-18
-5.87546e-20
0.000727722
-1.61472e-18
-5.33967e-20
-1.5003e-18
-4.33686e-20
0.000743027
-1.64215e-18
-4.50649e-20
-1.48832e-18
-4.2971e-20
0.000758605
-1.54502e-18
-3.87952e-20
-1.54867e-18
-4.82498e-20
0.000774457
-1.4957e-18
-3.70333e-20
-1.54815e-18
-4.64632e-20
0.000790586
-1.66914e-18
-3.92646e-20
-1.52283e-18
-4.88337e-20
0.00080699
-1.72033e-18
-3.68961e-20
-1.49929e-18
-5.02779e-20
0.000823671
-1.64614e-18
-3.81203e-20
-1.63084e-18
-6.75256e-20
0.000840628
-1.72612e-18
-4.17901e-20
-1.76081e-18
-6.94246e-20
0.000857858
-1.63823e-18
-3.00245e-20
-1.62432e-18
-4.25792e-20
0.000875362
-1.57735e-18
-2.23901e-20
-1.50864e-18
-3.63773e-20
0.000893135
-1.63171e-18
-2.69946e-20
-1.54588e-18
-4.84237e-20
0.000911174
-1.40146e-18
-2.23506e-20
-1.60561e-18
-5.16646e-20
0.000929475
-1.58139e-18
-2.69361e-20
-1.53591e-18
-3.72717e-20
0.000948032
-1.45644e-18
-1.23678e-20
-1.51173e-18
-3.28446e-20
0.000966837
-1.36423e-18
5.23985e-21
-1.32574e-18
-2.65881e-20
0.000985882
-1.3019e-18
8.01264e-21
-1.26913e-18
-2.1951e-20
0.00100516
-1.18473e-18
2.01157e-21
-1.34414e-18
-2.14754e-20
0.00102466
-1.19171e-18
-1.68843e-20
-1.21556e-18
-2.13039e-20
0.00104436
-1.12728e-18
-1.55869e-20
-1.16087e-18
-1.93346e-20
0.00106426
-1.07392e-18
-2.58859e-20
-1.0653e-18
-1.7531e-20
0.00108434
-1.65384e-20
-1.03633e-18
-1.80107e-20
-1.12903e-18
9.04397e-09
-1.55259e-22
-3.31036e-24
2.7807e-08
-3.30916e-22
6.24859e-24
4.76172e-08
-5.05645e-22
1.82503e-23
6.85204e-08
-6.90053e-22
3.98383e-23
9.05638e-08
-8.82422e-22
5.86709e-23
1.13797e-07
-1.08707e-21
7.9927e-23
1.38271e-07
-1.25785e-21
5.73726e-23
1.64039e-07
-1.4975e-21
6.78749e-23
1.91156e-07
-1.77374e-21
9.95109e-23
2.19681e-07
-2.04855e-21
1.2566e-22
2.49673e-07
-2.3191e-21
1.36923e-22
2.81194e-07
-2.55975e-21
7.65856e-23
3.1431e-07
-2.83611e-21
6.51426e-23
3.49086e-07
-3.13499e-21
9.08799e-23
3.85594e-07
-3.4176e-21
8.64022e-23
4.23905e-07
-3.67094e-21
5.64122e-23
4.64096e-07
-3.94531e-21
1.0135e-22
5.06244e-07
-4.32293e-21
1.85901e-23
5.50432e-07
-4.61157e-21
2.43383e-23
5.96744e-07
-4.99018e-21
-7.61414e-23
6.45268e-07
-5.30534e-21
-1.35817e-22
6.96095e-07
-5.77704e-21
-9.3487e-23
7.4932e-07
-6.19249e-21
-1.14933e-22
8.05043e-07
-6.67923e-21
-1.63127e-22
8.63365e-07
-7.13342e-21
-2.63734e-22
9.24393e-07
-7.6106e-21
-5.87478e-22
9.88237e-07
-7.92641e-21
-3.2434e-22
1.05501e-06
-8.45619e-21
-5.4168e-22
1.12484e-06
-8.91946e-21
-6.72633e-22
1.19784e-06
-9.6149e-21
-5.71194e-22
1.27415e-06
-1.02697e-20
-2.57929e-22
1.35389e-06
-1.10565e-20
-3.69488e-23
1.4372e-06
-1.17484e-20
-2.431e-22
1.52424e-06
-1.26654e-20
-8.77402e-23
1.61514e-06
-1.33464e-20
-1.24253e-22
1.71007e-06
-1.41245e-20
-3.03177e-22
1.80918e-06
-1.45738e-20
-4.47725e-22
1.91265e-06
-1.54895e-20
-5.97146e-22
2.02064e-06
-1.61688e-20
-1.97504e-22
2.13333e-06
-1.69575e-20
-5.03635e-22
2.25092e-06
-1.76324e-20
-8.70728e-22
2.37359e-06
-1.8976e-20
-4.93616e-22
2.50155e-06
-1.97935e-20
-6.07824e-22
2.635e-06
-2.10209e-20
-2.46579e-22
2.77416e-06
-2.22546e-20
1.13896e-22
2.91925e-06
-2.41727e-20
8.87583e-23
3.0705e-06
-2.52875e-20
5.51185e-23
3.22816e-06
-2.67868e-20
-1.99342e-22
3.39247e-06
-2.81268e-20
-4.66575e-22
3.56369e-06
-2.98045e-20
4.04553e-22
3.74209e-06
-3.1466e-20
7.67531e-22
3.92793e-06
-3.26753e-20
3.5505e-22
4.12151e-06
-3.38196e-20
-1.12515e-22
4.32311e-06
-3.54968e-20
8.62657e-23
4.53304e-06
-3.71895e-20
-6.1398e-22
4.75162e-06
-3.9159e-20
-1.1616e-21
4.97915e-06
-4.03921e-20
-1.48623e-21
5.21599e-06
-4.18144e-20
-1.81109e-21
5.46246e-06
-4.37148e-20
-2.0402e-21
5.71892e-06
-4.59595e-20
-2.61207e-21
5.98572e-06
-4.85627e-20
-3.259e-21
6.26324e-06
-5.20994e-20
-3.24544e-21
6.55186e-06
-5.55354e-20
-3.6994e-21
6.85195e-06
-5.74533e-20
-3.48309e-21
7.16392e-06
-6.04165e-20
-3.91622e-21
7.48817e-06
-6.33648e-20
-4.74967e-21
7.82511e-06
-6.52606e-20
-6.66196e-21
8.17514e-06
-6.92337e-20
-6.48059e-21
8.53869e-06
-7.37576e-20
-7.47787e-21
8.91619e-06
-7.60546e-20
-7.74106e-21
9.30806e-06
-8.08481e-20
-9.40045e-21
9.71472e-06
-8.40807e-20
-1.1306e-20
1.01366e-05
-8.72747e-20
-1.21555e-20
1.05742e-05
-9.38182e-20
-1.31876e-20
1.10278e-05
-9.72907e-20
-1.13517e-20
1.1498e-05
-1.01873e-19
-1.14585e-20
1.1985e-05
-1.06151e-19
-1.24492e-20
1.24895e-05
-1.12338e-19
-1.34625e-20
1.30116e-05
-1.1729e-19
-1.50123e-20
1.3552e-05
-1.2172e-19
-1.73543e-20
1.41108e-05
-1.27256e-19
-1.91696e-20
1.46886e-05
-1.32696e-19
-1.95564e-20
1.52856e-05
-1.38139e-19
-2.22032e-20
1.59023e-05
-1.44683e-19
-2.55261e-20
1.65389e-05
-1.51413e-19
-2.84656e-20
1.71959e-05
-1.55266e-19
-3.16884e-20
1.78734e-05
-1.56474e-19
-3.51898e-20
1.85719e-05
-1.61075e-19
-3.95991e-20
1.92916e-05
-1.68145e-19
-4.3488e-20
2.00329e-05
-1.79212e-19
-4.61933e-20
2.07959e-05
-1.9166e-19
-4.88535e-20
2.1581e-05
-1.99917e-19
-5.35425e-20
2.23884e-05
-2.08705e-19
-5.70493e-20
2.32184e-05
-2.19354e-19
-5.90999e-20
2.40713e-05
-2.26273e-19
-6.09999e-20
2.49473e-05
-2.32817e-19
-6.42919e-20
2.58467e-05
-2.42381e-19
-7.13873e-20
2.67697e-05
-2.48872e-19
-7.71758e-20
2.77166e-05
-2.56566e-19
-8.35524e-20
2.86878e-05
-2.62108e-19
-9.17211e-20
2.96835e-05
-2.79108e-19
-9.73249e-20
3.0704e-05
-2.88625e-19
-1.07262e-19
3.17496e-05
-2.9549e-19
-1.10918e-19
3.28207e-05
-2.97603e-19
-1.16863e-19
3.39175e-05
-3.05262e-19
-1.22484e-19
3.50406e-05
-3.11815e-19
-1.30442e-19
3.61901e-05
-3.10949e-19
-1.35185e-19
3.73666e-05
-3.20869e-19
-1.42757e-19
3.85705e-05
-3.32052e-19
-1.55785e-19
3.98021e-05
-3.4883e-19
-1.65459e-19
4.10619e-05
-3.49225e-19
-1.73108e-19
4.23504e-05
-3.56385e-19
-1.78158e-19
4.36681e-05
-3.55583e-19
-1.81771e-19
4.50154e-05
-3.67258e-19
-1.88925e-19
4.6393e-05
-3.76705e-19
-1.96848e-19
4.78013e-05
-3.69784e-19
-2.18862e-19
4.92409e-05
-3.7865e-19
-2.23748e-19
5.07125e-05
-3.9049e-19
-2.29732e-19
5.22165e-05
-4.16537e-19
-2.301e-19
5.37536e-05
-4.19468e-19
-2.45043e-19
5.53246e-05
-4.20384e-19
-2.55861e-19
5.69299e-05
-4.3076e-19
-2.56461e-19
5.85704e-05
-4.40235e-19
-2.73064e-19
6.02467e-05
-4.52458e-19
-2.83013e-19
6.19595e-05
-4.60267e-19
-2.82682e-19
6.37097e-05
-4.68495e-19
-2.88123e-19
6.54979e-05
-4.74242e-19
-2.98254e-19
6.73249e-05
-4.77655e-19
-3.08543e-19
6.91915e-05
-4.54214e-19
-3.1836e-19
7.10987e-05
-4.68909e-19
-3.11232e-19
7.30471e-05
-4.91114e-19
-3.00502e-19
7.50377e-05
-5.00096e-19
-3.15727e-19
7.70713e-05
-5.11051e-19
-3.35209e-19
7.9149e-05
-5.29211e-19
-3.45633e-19
8.12715e-05
-5.60559e-19
-3.52009e-19
8.34398e-05
-5.68554e-19
-3.69664e-19
8.5655e-05
-5.7142e-19
-3.84358e-19
8.7918e-05
-5.66431e-19
-4.00923e-19
9.02298e-05
-5.92472e-19
-3.99768e-19
9.25914e-05
-6.15302e-19
-4.14516e-19
9.5004e-05
-6.36213e-19
-4.25052e-19
9.74686e-05
-6.28912e-19
-4.56241e-19
9.99863e-05
-6.09775e-19
-4.72729e-19
0.000102558
-6.12875e-19
-5.06194e-19
0.000105186
-6.27169e-19
-5.08591e-19
0.000107869
-6.4101e-19
-5.08744e-19
0.000110611
-6.76834e-19
-5.25556e-19
0.000113412
-6.8006e-19
-5.33977e-19
0.000116273
-6.87904e-19
-5.52072e-19
0.000119195
-7.23485e-19
-5.75402e-19
0.000122181
-7.21163e-19
-5.62906e-19
0.00012523
-7.13121e-19
-5.51666e-19
0.000128345
-6.89155e-19
-5.56757e-19
0.000131527
-7.08995e-19
-5.72466e-19
0.000134778
-7.12999e-19
-5.94929e-19
0.000138098
-7.24636e-19
-6.03327e-19
0.00014149
-7.53707e-19
-6.24117e-19
0.000144954
-7.53982e-19
-6.20659e-19
0.000148492
-7.62471e-19
-6.43001e-19
0.000152107
-7.61831e-19
-6.57034e-19
0.000155799
-7.29685e-19
-6.65778e-19
0.00015957
-7.45625e-19
-6.84418e-19
0.000163422
-7.06129e-19
-7.02978e-19
0.000167357
-7.29502e-19
-7.02686e-19
0.000171375
-7.48967e-19
-7.16142e-19
0.00017548
-7.61114e-19
-7.1376e-19
0.000179672
-7.80154e-19
-7.29016e-19
0.000183954
-7.93762e-19
-7.22309e-19
0.000188328
-8.12334e-19
-7.42941e-19
0.000192795
-8.33374e-19
-7.42194e-19
0.000197357
-8.22338e-19
-7.78245e-19
0.000202017
-8.4685e-19
-7.50263e-19
0.000206776
-8.39998e-19
-7.38085e-19
0.000211636
-8.44023e-19
-7.46377e-19
0.0002166
-8.62131e-19
-7.39266e-19
0.000221669
-8.70159e-19
-7.45237e-19
0.000226846
-8.76367e-19
-7.61898e-19
0.000232133
-8.87463e-19
-7.73071e-19
0.000237533
-8.71832e-19
-7.90192e-19
0.000243047
-8.68323e-19
-7.94043e-19
0.000248677
-8.84627e-19
-7.47755e-19
0.000254427
-8.52677e-19
-7.50953e-19
0.000260299
-8.26289e-19
-7.12601e-19
0.000266295
-7.62817e-19
-6.66704e-19
0.000272417
-6.9091e-19
-6.91121e-19
0.000278669
-7.28014e-19
-6.98572e-19
0.000285053
-6.60845e-19
-6.97531e-19
0.000291571
-7.23958e-19
-6.7471e-19
0.000298226
-7.20817e-19
-7.31367e-19
0.000305021
-7.3091e-19
-7.85671e-19
0.000311958
-7.55622e-19
-8.16501e-19
0.000319041
-7.69021e-19
-8.05046e-19
0.000326273
-8.04413e-19
-8.58313e-19
0.000333655
-8.15183e-19
-8.10975e-19
0.000341192
-7.83265e-19
-8.09631e-19
0.000348886
-8.91388e-19
-7.52089e-19
0.00035674
-8.79385e-19
-7.64538e-19
0.000364758
-7.96578e-19
-8.00447e-19
0.000372942
-8.0956e-19
-8.06139e-19
0.000381295
-8.17805e-19
-8.38093e-19
0.000389821
-8.96496e-19
-8.65002e-19
0.000398524
-8.6207e-19
-9.36737e-19
0.000407406
-8.8453e-19
-9.44188e-19
0.00041647
-1.00775e-18
-9.11552e-19
0.000425721
-9.91289e-19
-1.00754e-18
0.000435161
-9.70091e-19
-9.47133e-19
0.000444794
-9.98041e-19
-8.90521e-19
0.000454624
-9.45848e-19
-9.29449e-19
0.000464654
-9.78236e-19
-9.61041e-19
0.000474886
-9.80564e-19
-1.01335e-18
0.000485327
-1.03619e-18
-1.0106e-18
0.000495977
-1.06814e-18
-1.07755e-18
0.000506842
-1.10195e-18
-1.06878e-18
0.000517924
-1.13049e-18
-9.43316e-19
0.000529228
-1.10019e-18
-9.7584e-19
0.000540757
-1.09491e-18
-1.02251e-18
0.000552515
-9.72677e-19
-9.71635e-19
0.000564504
-9.48713e-19
-9.91337e-19
0.00057673
-9.83889e-19
-9.72457e-19
0.000589194
-9.31787e-19
-8.78168e-19
0.000601901
-9.61761e-19
-8.82887e-19
0.000614855
-9.54481e-19
-1.00932e-18
0.000628058
-1.05364e-18
-1.01283e-18
0.000641513
-9.51161e-19
-1.07153e-18
0.000655225
-9.65484e-19
-1.04607e-18
0.000669195
-9.87188e-19
-1.10415e-18
0.000683427
-9.21599e-19
-1.10686e-18
0.000697924
-1.11087e-18
-1.02502e-18
0.000712688
-9.75598e-19
-8.10185e-19
0.000727722
-8.90154e-19
-8.11522e-19
0.000743027
-8.91217e-19
-8.87737e-19
0.000758605
-8.05762e-19
-7.74282e-19
0.000774457
-7.86143e-19
-8.47434e-19
0.000790586
-8.78394e-19
-8.6388e-19
0.00080699
-9.33202e-19
-9.45916e-19
0.000823671
-8.97129e-19
-8.19134e-19
0.000840628
-8.504e-19
-7.32238e-19
0.000857858
-8.3457e-19
-8.90541e-19
0.000875362
-9.5077e-19
-9.09756e-19
0.000893135
-1.00298e-18
-9.30608e-19
0.000911174
-9.80311e-19
-1.00487e-18
0.000929475
-1.04082e-18
-1.09163e-18
0.000948032
-9.40707e-19
-1.01985e-18
0.000966837
-1.0491e-18
-9.53874e-19
0.000985882
-1.05679e-18
-1.00016e-18
0.00100516
-1.02659e-18
-1.00685e-18
0.00102466
-8.79635e-19
-8.84264e-19
0.00104436
-9.16509e-19
-9.18231e-19
0.00106426
-7.27252e-19
-8.03378e-19
0.00108434
-7.26968e-19
-7.78814e-19
0.00108434
-9.30684e-19
-1.03299e-20
-9.54379e-19
-1.42445e-20
0.00106426
-8.17483e-19
-1.42457e-20
-1.0525e-18
-9.16043e-21
0.00104436
-8.90801e-19
-2.2716e-20
-8.94428e-19
5.57202e-21
0.00102466
-1.00571e-18
-2.44089e-20
-6.8099e-19
8.8976e-21
0.00100516
-9.46676e-19
1.36006e-21
-6.88629e-19
-3.65462e-21
0.000985882
-8.05502e-19
1.98162e-21
-7.24027e-19
-2.45914e-20
0.000966837
-8.02672e-19
-6.89904e-22
-8.44076e-19
-3.84553e-20
0.000948032
-7.59271e-19
8.08942e-21
-8.58352e-19
-1.92468e-20
0.000929475
-7.26115e-19
1.34599e-21
-8.41538e-19
-3.25052e-21
0.000911175
-8.95202e-19
-1.43195e-20
-8.37947e-19
6.78521e-21
0.000893135
-8.92045e-19
-1.19032e-20
-8.32099e-19
1.41277e-20
0.000875362
-8.07174e-19
-8.6682e-21
-8.36414e-19
2.12733e-20
0.000857858
-7.46955e-19
-1.04263e-21
-8.41227e-19
3.48935e-20
0.000840628
-7.45842e-19
1.16391e-20
-6.96953e-19
3.55581e-20
0.000823671
-7.03235e-19
2.13117e-20
-5.92239e-19
2.28662e-20
0.00080699
-5.71861e-19
1.62979e-20
-6.35172e-19
9.01361e-21
0.000790586
-4.80138e-19
7.02589e-21
-5.33855e-19
3.86206e-21
0.000774458
-5.30774e-19
-3.20524e-21
-4.64141e-19
-7.90884e-22
0.000758605
-5.10384e-19
-3.53472e-21
-4.87733e-19
-9.41487e-21
0.000743027
-4.80698e-19
-5.7152e-21
-4.92578e-19
-1.06261e-20
0.000727722
-4.5402e-19
-2.8778e-21
-4.76962e-19
-1.72845e-20
0.000712688
-4.23442e-19
-8.51104e-22
-5.43068e-19
-2.73817e-20
0.000697924
-4.85297e-19
-7.02668e-21
-4.59835e-19
-2.28429e-20
0.000683427
-4.49559e-19
-5.36591e-21
-5.60231e-19
-1.11184e-20
0.000669195
-5.73331e-19
-5.61078e-21
-3.4547e-19
3.9146e-21
0.000655225
-4.54502e-19
3.69089e-21
-3.70893e-19
-1.42837e-22
0.000641513
-4.27808e-19
4.00093e-21
-4.80661e-19
1.35751e-21
0.000628058
-4.29889e-19
4.95049e-21
-4.32468e-19
2.61152e-21
0.000614855
-4.61712e-19
3.37292e-21
-5.05489e-19
-3.5692e-21
0.000601901
-4.44778e-19
2.87558e-21
-4.67567e-19
-7.21515e-21
0.000589194
-5.07273e-19
5.04568e-21
-5.03952e-19
-1.5063e-20
0.00057673
-4.23611e-19
7.34514e-21
-4.77172e-19
-8.40213e-21
0.000564504
-3.65761e-19
2.31956e-21
-4.31549e-19
-1.73933e-22
0.000552515
-5.42193e-19
-3.25174e-21
-3.65566e-19
-6.53695e-22
0.000540757
-5.45931e-19
1.68201e-21
-5.22713e-19
-4.7374e-21
0.000529228
-5.40639e-19
5.62981e-21
-5.20411e-19
-4.06308e-21
0.000517924
-4.9034e-19
5.29107e-21
-4.58491e-19
-2.86171e-21
0.000506842
-4.75751e-19
5.52893e-21
-4.6205e-19
-1.38173e-21
0.000495977
-4.58625e-19
4.03109e-21
-4.77112e-19
-4.20246e-21
0.000485327
-4.44233e-19
2.38179e-21
-5.16463e-19
-5.15759e-21
0.000474887
-4.11149e-19
2.48361e-21
-5.17153e-19
-1.76049e-21
0.000464654
-4.22901e-19
2.32757e-21
-5.24921e-19
-6.02183e-22
0.000454624
-3.31267e-19
2.17075e-21
-4.18826e-19
-8.31448e-22
0.000444794
-3.49557e-19
1.25327e-21
-4.25647e-19
-2.16311e-21
0.000435161
-3.23153e-19
-8.03363e-22
-3.19135e-19
2.27875e-21
0.000425721
-2.91812e-19
-1.64451e-21
-3.29542e-19
1.47253e-21
0.00041647
-2.06069e-19
-2.65902e-21
-3.8522e-19
-8.0562e-22
0.000407406
-2.97314e-19
-4.85529e-21
-3.04979e-19
1.17763e-21
0.000398524
-2.94535e-19
-4.24694e-21
-2.84737e-19
2.21665e-21
0.000389821
-2.57501e-19
-3.91418e-21
-3.02735e-19
2.35323e-21
0.000381295
-2.26526e-19
-3.33907e-21
-3.06359e-19
4.59865e-21
0.000372942
-1.61057e-19
-2.93244e-21
-2.32412e-19
5.39424e-21
0.000364758
-2.0977e-19
-4.08627e-21
-1.89562e-19
4.72223e-21
0.00035674
-1.67661e-19
-3.66271e-21
-1.59629e-19
2.31648e-21
0.000348886
-1.49915e-19
-4.73115e-21
-1.68226e-19
-2.12698e-22
0.000341192
-1.32977e-19
-5.46488e-21
-2.45318e-19
-1.53005e-21
0.000333655
-1.56874e-19
-5.62118e-21
-1.7963e-19
-6.09355e-22
0.000326273
-1.52721e-19
-6.56341e-21
-5.85985e-20
3.9171e-22
0.000319041
-1.25279e-19
-7.60199e-21
-5.67233e-20
1.65427e-22
0.000311958
-2.10567e-19
-8.19372e-21
-4.22217e-20
-8.88001e-22
0.000305021
-1.56583e-19
-6.77365e-21
-7.14152e-20
-3.04492e-21
0.000298226
-1.24374e-19
-5.28238e-21
-8.83253e-20
-4.01232e-21
0.000291571