/*--------------------------------*- C++ -*----------------------------------*\
| =========                 |                                                 |
| \\      /  F ield         | OpenFOAM: The Open Source CFD Toolbox           |
|  \\    /   O peration     | Version:  2106                                  |
|   \\  /    A nd           | Website:  www.openfoam.com                      |
|    \\/     M anipulation  |                                                 |
\*---------------------------------------------------------------------------*/
FoamFile
{
    version     2.0;
    format      ascii;
    arch        "LSB;label=32;scalar=64";
    class       volSymmTensorField;
    location    "10080";
    object      turbulenceProperties:R;
}
// * * * * * * * * * * * * * * * * * * * * * * * * * * * * * * * * * * * * * //

dimensions      [0 2 -2 0 0 0 0];

internalField   nonuniform List<symmTensor> 
2000
(
(2.06966e-08 -7.31103e-14 -1.35313e-16 2.06966e-08 6.80289e-28 2.06966e-08)
(2.06966e-08 -7.31103e-14 -1.35313e-16 2.06966e-08 -1.35112e-29 2.06966e-08)
(3.10261e-09 -6.31358e-14 -3.5276e-16 3.10261e-09 9.33914e-29 3.10261e-09)
(3.10261e-09 -6.31358e-14 -3.5276e-16 3.10261e-09 -1.02417e-29 3.10261e-09)
(1.42329e-09 -8.57545e-14 -6.64807e-16 1.42329e-09 9.92039e-29 1.42329e-09)
(1.42329e-09 -8.57545e-14 -6.64807e-16 1.42329e-09 -9.99984e-31 1.42329e-09)
(2.32356e-09 -2.98088e-13 -2.35404e-15 2.32356e-09 3.09244e-28 2.32356e-09)
(2.32356e-09 -2.98088e-13 -2.35404e-15 2.32356e-09 -3.26412e-30 2.32356e-09)
(5.31745e-09 -1.20858e-12 -9.72247e-15 5.31745e-09 6.36995e-28 5.31745e-09)
(5.31745e-09 -1.20858e-12 -9.72247e-15 5.31745e-09 -1.27085e-29 5.31745e-09)
(1.11503e-08 -4.00721e-12 -3.28378e-14 1.11503e-08 1.90648e-27 1.11503e-08)
(1.11503e-08 -4.00721e-12 -3.28378e-14 1.11503e-08 -4.07686e-29 1.11503e-08)
(2.0921e-08 -1.10158e-11 -9.19556e-14 2.0921e-08 5.24327e-27 2.0921e-08)
(2.0921e-08 -1.10158e-11 -9.19556e-14 2.0921e-08 -1.08351e-28 2.0921e-08)
(3.5961e-08 -2.62775e-11 -2.23448e-13 3.5961e-08 1.28125e-26 3.5961e-08)
(3.5961e-08 -2.62775e-11 -2.23448e-13 3.5961e-08 -2.50331e-28 3.5961e-08)
(5.78182e-08 -5.63098e-11 -4.87763e-13 5.78182e-08 2.80596e-26 5.78182e-08)
(5.78182e-08 -5.63098e-11 -4.87763e-13 5.78182e-08 -5.20347e-28 5.78182e-08)
(8.82634e-08 -1.11051e-10 -9.79888e-13 8.82634e-08 5.63762e-26 8.82634e-08)
(8.82634e-08 -1.11051e-10 -9.79888e-13 8.82634e-08 -9.82489e-28 8.82634e-08)
(1.29304e-07 -2.0503e-10 -1.84291e-12 1.29304e-07 1.06264e-25 1.29304e-07)
(1.29304e-07 -2.0503e-10 -1.84291e-12 1.29304e-07 -1.72312e-27 1.29304e-07)
(1.83202e-07 -3.58809e-10 -3.28535e-12 1.83202e-07 1.89914e-25 1.83202e-07)
(1.83202e-07 -3.58809e-10 -3.28535e-12 1.83202e-07 -2.91058e-27 1.83202e-07)
(2.52495e-07 -6.0073e-10 -5.6031e-12 2.52495e-07 3.24612e-25 2.52495e-07)
(2.52495e-07 -6.0073e-10 -5.6031e-12 2.52495e-07 -4.66941e-27 2.52495e-07)
(3.40015e-07 -9.69025e-10 -9.20693e-12 3.40015e-07 5.34527e-25 3.40015e-07)
(3.40015e-07 -9.69025e-10 -9.20693e-12 3.40015e-07 -7.0676e-27 3.40015e-07)
(4.48916e-07 -1.51435e-09 -1.46568e-11 4.48916e-07 8.52542e-25 4.48916e-07)
(4.48916e-07 -1.51435e-09 -1.46568e-11 4.48916e-07 -1.03232e-26 4.48916e-07)
(5.82698e-07 -2.30283e-09 -2.27041e-11 5.82698e-07 1.32287e-24 5.82698e-07)
(5.82698e-07 -2.30283e-09 -2.27041e-11 5.82698e-07 -1.48565e-26 5.82698e-07)
(7.45237e-07 -3.4196e-09 -3.43438e-11 7.45237e-07 2.00478e-24 7.45237e-07)
(7.45237e-07 -3.4196e-09 -3.43438e-11 7.45237e-07 -2.10709e-26 7.45237e-07)
(9.40814e-07 -4.97311e-09 -5.08782e-11 9.40814e-07 2.97611e-24 9.40814e-07)
(9.40814e-07 -4.97311e-09 -5.08782e-11 9.40814e-07 -3.01645e-26 9.40814e-07)
(1.17415e-06 -7.10009e-09 -7.39943e-11 1.17415e-06 4.33682e-24 1.17415e-06)
(1.17415e-06 -7.10009e-09 -7.39943e-11 1.17415e-06 -4.22602e-26 1.17415e-06)
(1.45043e-06 -9.97141e-09 -1.05858e-10 1.45043e-06 6.21459e-24 1.45043e-06)
(1.45043e-06 -9.97141e-09 -1.05858e-10 1.45043e-06 -5.5789e-26 1.45043e-06)
(1.77537e-06 -1.3799e-08 -1.49225e-10 1.77537e-06 8.777e-24 1.77537e-06)
(1.77537e-06 -1.3799e-08 -1.49225e-10 1.77537e-06 -7.72019e-26 1.77537e-06)
(2.15522e-06 -1.88437e-08 -2.07584e-10 2.15522e-06 1.22345e-23 2.15522e-06)
(2.15522e-06 -1.88437e-08 -2.07584e-10 2.15522e-06 -1.05959e-25 2.15522e-06)
(2.59683e-06 -2.54249e-08 -2.85309e-10 2.59683e-06 1.6843e-23 2.59683e-06)
(2.59683e-06 -2.54249e-08 -2.85309e-10 2.59683e-06 -1.3743e-25 2.59683e-06)
(3.10769e-06 -3.39308e-08 -3.87866e-10 3.10769e-06 2.29382e-23 3.10769e-06)
(3.10769e-06 -3.39308e-08 -3.87866e-10 3.10769e-06 -1.8253e-25 3.10769e-06)
(3.696e-06 -4.48314e-08 -5.22036e-10 3.696e-06 3.09301e-23 3.696e-06)
(3.696e-06 -4.48314e-08 -5.22036e-10 3.696e-06 -2.39594e-25 3.696e-06)
(4.37067e-06 -5.86927e-08 -6.96198e-10 4.37067e-06 4.13073e-23 4.37067e-06)
(4.37067e-06 -5.86927e-08 -6.96198e-10 4.37067e-06 -3.03938e-25 4.37067e-06)
(5.14146e-06 -7.61931e-08 -9.20651e-10 5.14146e-06 5.47223e-23 5.14146e-06)
(5.14146e-06 -7.61931e-08 -9.20651e-10 5.14146e-06 -3.72412e-25 5.14146e-06)
(6.01894e-06 -9.81429e-08 -1.208e-09 6.01894e-06 7.19181e-23 6.01894e-06)
(6.01894e-06 -9.81429e-08 -1.208e-09 6.01894e-06 -4.38387e-25 6.01894e-06)
(7.01466e-06 -1.25506e-07 -1.57363e-09 7.01466e-06 9.38454e-23 7.01466e-06)
(7.01466e-06 -1.25506e-07 -1.57363e-09 7.01466e-06 -5.4214e-25 7.01466e-06)
(8.14114e-06 -1.59423e-07 -2.03621e-09 8.14114e-06 1.21702e-22 8.14114e-06)
(8.14114e-06 -1.59423e-07 -2.03621e-09 8.14114e-06 -8.09506e-25 8.14114e-06)
(9.41198e-06 -2.01245e-07 -2.61834e-09 9.41198e-06 1.56817e-22 9.41198e-06)
(9.41198e-06 -2.01245e-07 -2.61834e-09 9.41198e-06 -1.10047e-24 9.41198e-06)
(1.08419e-05 -2.5256e-07 -3.3473e-09 1.08419e-05 2.00836e-22 1.08419e-05)
(1.08419e-05 -2.5256e-07 -3.3473e-09 1.08419e-05 -1.30162e-24 1.08419e-05)
(1.2447e-05 -3.15232e-07 -4.25589e-09 1.2447e-05 2.55679e-22 1.2447e-05)
(1.2447e-05 -3.15232e-07 -4.25589e-09 1.2447e-05 -1.65209e-24 1.2447e-05)
(1.42444e-05 -3.91446e-07 -5.38346e-09 1.42444e-05 3.23884e-22 1.42444e-05)
(1.42444e-05 -3.91446e-07 -5.38346e-09 1.42444e-05 -1.92284e-24 1.42444e-05)
(1.62531e-05 -4.83751e-07 -6.77706e-09 1.62531e-05 5.42162e-22 1.62531e-05)
(1.62531e-05 -4.83751e-07 -6.77706e-09 1.62531e-05 -2.32495e-24 1.62531e-05)
(1.84931e-05 -5.95117e-07 -8.4928e-09 1.84931e-05 1.05378e-21 1.84931e-05)
(1.84931e-05 -5.95117e-07 -8.4928e-09 1.84931e-05 -3.05822e-24 1.84931e-05)
(2.09864e-05 -7.28993e-07 -1.05974e-08 2.09864e-05 1.58045e-21 2.09864e-05)
(2.09864e-05 -7.28993e-07 -1.05974e-08 2.09864e-05 -4.12883e-24 2.09864e-05)
(2.37567e-05 -8.89378e-07 -1.31702e-08 2.37567e-05 1.98546e-21 2.37567e-05)
(2.37567e-05 -8.89378e-07 -1.31702e-08 2.37567e-05 -5.29872e-24 2.37567e-05)
(2.68293e-05 -1.0809e-06 -1.6305e-08 2.68293e-05 2.48506e-21 2.68293e-05)
(2.68293e-05 -1.0809e-06 -1.6305e-08 2.68293e-05 -5.52338e-24 2.68293e-05)
(3.02319e-05 -1.30888e-06 -2.01124e-08 3.02319e-05 2.20126e-21 3.02319e-05)
(3.02319e-05 -1.30888e-06 -2.01124e-08 3.02319e-05 -6.62616e-24 3.02319e-05)
(3.39939e-05 -1.57948e-06 -2.47233e-08 3.39939e-05 1.53317e-21 3.39939e-05)
(3.39939e-05 -1.57948e-06 -2.47233e-08 3.39939e-05 -9.17786e-24 3.39939e-05)
(3.81472e-05 -1.89975e-06 -3.02911e-08 3.81472e-05 1.73729e-21 3.81472e-05)
(3.81472e-05 -1.89975e-06 -3.02911e-08 3.81472e-05 -9.21218e-24 3.81472e-05)
(4.27261e-05 -2.27777e-06 -3.69962e-08 4.27261e-05 2.10164e-21 4.27261e-05)
(4.27261e-05 -2.27777e-06 -3.69962e-08 4.27261e-05 -9.68244e-24 4.27261e-05)
(4.77674e-05 -2.72281e-06 -4.50496e-08 4.77674e-05 2.53903e-21 4.77674e-05)
(4.77674e-05 -2.72281e-06 -4.50496e-08 4.77674e-05 -1.31016e-23 4.77674e-05)
(5.33105e-05 -3.24543e-06 -5.46981e-08 5.33105e-05 3.06078e-21 5.33105e-05)
(5.33105e-05 -3.24543e-06 -5.46981e-08 5.33105e-05 -1.89178e-23 5.33105e-05)
(5.93979e-05 -3.85766e-06 -6.62293e-08 5.93979e-05 3.67479e-21 5.93979e-05)
(5.93979e-05 -3.85766e-06 -6.62293e-08 5.93979e-05 -2.30636e-23 5.93979e-05)
(6.60749e-05 -4.57321e-06 -7.99782e-08 6.60749e-05 4.39011e-21 6.60749e-05)
(6.60749e-05 -4.57321e-06 -7.99782e-08 6.60749e-05 -2.44801e-23 6.60749e-05)
(7.33901e-05 -5.40758e-06 -9.63335e-08 7.33901e-05 5.23559e-21 7.33901e-05)
(7.33901e-05 -5.40758e-06 -9.63335e-08 7.33901e-05 -4.01739e-23 7.33901e-05)
(8.13954e-05 -6.37834e-06 -1.15746e-07 8.13954e-05 6.24067e-21 8.13954e-05)
(8.13954e-05 -6.37834e-06 -1.15746e-07 8.13954e-05 -6.21876e-23 8.13954e-05)
(9.01465e-05 -7.50536e-06 -1.38737e-07 9.01465e-05 7.40729e-21 9.01465e-05)
(9.01465e-05 -7.50536e-06 -1.38737e-07 9.01465e-05 -5.0096e-23 9.01465e-05)
(9.97024e-05 -8.81097e-06 -1.65907e-07 9.97024e-05 8.75271e-21 9.97024e-05)
(9.97024e-05 -8.81097e-06 -1.65907e-07 9.97024e-05 2.39001e-22 9.97024e-05)
(0.000110126 -1.03203e-05 -1.9795e-07 0.000110126 1.03483e-20 0.000110126)
(0.000110126 -1.03203e-05 -1.9795e-07 0.000110126 3.51217e-22 0.000110126)
(0.000121485 -1.20616e-05 -2.3566e-07 0.000121485 1.22058e-20 0.000121485)
(0.000121485 -1.20616e-05 -2.3566e-07 0.000121485 4.78792e-22 0.000121485)
(0.000133851 -1.40663e-05 -2.79948e-07 0.000133851 1.43607e-20 0.000133851)
(0.000133851 -1.40663e-05 -2.79948e-07 0.000133851 5.92208e-22 0.000133851)
(0.000147298 -1.63696e-05 -3.31856e-07 0.000147298 1.68364e-20 0.000147298)
(0.000147298 -1.63696e-05 -3.31856e-07 0.000147298 7.4535e-22 0.000147298)
(0.000161908 -1.90105e-05 -3.92573e-07 0.000161908 1.9684e-20 0.000161908)
(0.000161908 -1.90105e-05 -3.92573e-07 0.000161908 9.57649e-22 0.000161908)
(0.000177764 -2.20324e-05 -4.63447e-07 0.000177764 2.29817e-20 0.000177764)
(0.000177764 -2.20324e-05 -4.63447e-07 0.000177764 1.18953e-21 0.000177764)
(0.000194957 -2.54832e-05 -5.46011e-07 0.000194957 2.68051e-20 0.000194957)
(0.000194957 -2.54832e-05 -5.46011e-07 0.000194957 1.46214e-21 0.000194957)
(0.000213579 -2.94156e-05 -6.41995e-07 0.000213579 3.1196e-20 0.000213579)
(0.000213579 -2.94156e-05 -6.41995e-07 0.000213579 1.81431e-21 0.000213579)
(0.00023373 -3.38875e-05 -7.53349e-07 0.00023373 3.61224e-20 0.00023373)
(0.00023373 -3.38875e-05 -7.53349e-07 0.00023373 2.30098e-21 0.00023373)
(0.000255513 -3.89621e-05 -8.82265e-07 0.000255513 4.16488e-20 0.000255513)
(0.000255513 -3.89621e-05 -8.82265e-07 0.000255513 2.93015e-21 0.000255513)
(0.000279034 -4.47081e-05 -1.03119e-06 0.000279034 4.79316e-20 0.000279034)
(0.000279034 -4.47081e-05 -1.03119e-06 0.000279034 3.60492e-21 0.000279034)
(0.000304407 -5.12002e-05 -1.20287e-06 0.000304407 5.51283e-20 0.000304407)
(0.000304407 -5.12002e-05 -1.20287e-06 0.000304407 4.36122e-21 0.000304407)
(0.000331746 -5.85188e-05 -1.40034e-06 0.000331746 6.30557e-20 0.000331746)
(0.000331746 -5.85188e-05 -1.40034e-06 0.000331746 5.31735e-21 0.000331746)
(0.000361172 -6.67499e-05 -1.62694e-06 0.000361172 7.18569e-20 0.000361172)
(0.000361172 -6.67499e-05 -1.62694e-06 0.000361172 6.42382e-21 0.000361172)
(0.000392807 -7.59855e-05 -1.8864e-06 0.000392807 8.1831e-20 0.000392807)
(0.000392807 -7.59855e-05 -1.8864e-06 0.000392807 7.73792e-21 0.000392807)
(0.000426777 -8.63228e-05 -2.18275e-06 0.000426777 9.25878e-20 0.000426777)
(0.000426777 -8.63228e-05 -2.18275e-06 0.000426777 9.39331e-21 0.000426777)
(0.000463209 -9.78643e-05 -2.52042e-06 0.000463209 1.04285e-19 0.000463209)
(0.000463209 -9.78643e-05 -2.52042e-06 0.000463209 1.12239e-20 0.000463209)
(0.000502231 -0.000110717 -2.9042e-06 0.000502231 1.17374e-19 0.000502231)
(0.000502231 -0.000110717 -2.9042e-06 0.000502231 1.31932e-20 0.000502231)
(0.000543972 -0.000124991 -3.33926e-06 0.000543972 1.3194e-19 0.000543972)
(0.000543972 -0.000124991 -3.33926e-06 0.000543972 1.5727e-20 0.000543972)
(0.000588559 -0.000140801 -3.83114e-06 0.000588559 1.47854e-19 0.000588559)
(0.000588559 -0.000140801 -3.83114e-06 0.000588559 1.89771e-20 0.000588559)
(0.000636119 -0.000158261 -4.38574e-06 0.000636119 1.65261e-19 0.000636119)
(0.000636119 -0.000158261 -4.38574e-06 0.000636119 2.28411e-20 0.000636119)
(0.000686774 -0.000177487 -5.00929e-06 0.000686774 1.82191e-19 0.000686774)
(0.000686774 -0.000177487 -5.00929e-06 0.000686774 2.77143e-20 0.000686774)
(0.00074064 -0.000198594 -5.70831e-06 0.00074064 1.98664e-19 0.00074064)
(0.00074064 -0.000198594 -5.70831e-06 0.00074064 3.38038e-20 0.00074064)
(0.000797828 -0.000221692 -6.48962e-06 0.000797828 2.17216e-19 0.000797828)
(0.000797828 -0.000221692 -6.48962e-06 0.000797828 3.95735e-20 0.000797828)
(0.000858439 -0.00024689 -7.36022e-06 0.000858439 2.37873e-19 0.000858439)
(0.000858439 -0.00024689 -7.36022e-06 0.000858439 4.59626e-20 0.000858439)
(0.000922567 -0.000274286 -8.32728e-06 0.000922567 2.59856e-19 0.000922567)
(0.000922567 -0.000274286 -8.32728e-06 0.000922567 5.41083e-20 0.000922567)
(0.00099029 -0.000303971 -9.39805e-06 0.00099029 2.83393e-19 0.00099029)
(0.00099029 -0.000303971 -9.39805e-06 0.00099029 6.27995e-20 0.00099029)
(0.00106167 -0.000336024 -1.05798e-05 0.00106167 3.04446e-19 0.00106167)
(0.00106167 -0.000336024 -1.05798e-05 0.00106167 7.35854e-20 0.00106167)
(0.00113677 -0.000370511 -1.18796e-05 0.00113677 3.20311e-19 0.00113677)
(0.00113677 -0.000370511 -1.18796e-05 0.00113677 8.80446e-20 0.00113677)
(0.00121561 -0.000407484 -1.33044e-05 0.00121561 3.36194e-19 0.00121561)
(0.00121561 -0.000407484 -1.33044e-05 0.00121561 1.05512e-19 0.00121561)
(0.00129821 -0.000446973 -1.48611e-05 0.00129821 3.50043e-19 0.00129821)
(0.00129821 -0.000446973 -1.48611e-05 0.00129821 1.23647e-19 0.00129821)
(0.00138455 -0.000488994 -1.65557e-05 0.00138455 3.59831e-19 0.00138455)
(0.00138455 -0.000488994 -1.65557e-05 0.00138455 1.47366e-19 0.00138455)
(0.00147462 -0.000533538 -1.83943e-05 0.00147462 3.65815e-19 0.00147462)
(0.00147462 -0.000533538 -1.83943e-05 0.00147462 1.74181e-19 0.00147462)
(0.00156836 -0.000580578 -2.03821e-05 0.00156836 3.71066e-19 0.00156836)
(0.00156836 -0.000580578 -2.03821e-05 0.00156836 2.03181e-19 0.00156836)
(0.00166569 -0.000630063 -2.25237e-05 0.00166569 3.71265e-19 0.00166569)
(0.00166569 -0.000630063 -2.25237e-05 0.00166569 2.3715e-19 0.00166569)
(0.00176652 -0.000681919 -2.4823e-05 0.00176652 3.64963e-19 0.00176652)
(0.00176652 -0.000681919 -2.4823e-05 0.00176652 2.76386e-19 0.00176652)
(0.00187072 -0.000736052 -2.72831e-05 0.00187072 3.53285e-19 0.00187072)
(0.00187072 -0.000736052 -2.72831e-05 0.00187072 3.20793e-19 0.00187072)
(0.00197815 -0.000792346 -2.99064e-05 0.00197815 3.40784e-19 0.00197815)
(0.00197815 -0.000792346 -2.99064e-05 0.00197815 3.67127e-19 0.00197815)
(0.00208864 -0.000850667 -3.26944e-05 0.00208864 3.20775e-19 0.00208864)
(0.00208864 -0.000850667 -3.26944e-05 0.00208864 4.15799e-19 0.00208864)
(0.002202 -0.00091086 -3.56477e-05 0.002202 2.88118e-19 0.002202)
(0.002202 -0.00091086 -3.56477e-05 0.002202 4.69037e-19 0.002202)
(0.00231802 -0.000972757 -3.87662e-05 0.00231802 2.47336e-19 0.00231802)
(0.00231802 -0.000972757 -3.87662e-05 0.00231802 5.27953e-19 0.00231802)
(0.00243648 -0.00103618 -4.20489e-05 0.00243648 1.91082e-19 0.00243648)
(0.00243648 -0.00103618 -4.20489e-05 0.00243648 5.96996e-19 0.00243648)
(0.00255713 -0.00110092 -4.5494e-05 0.00255713 9.36448e-20 0.00255713)
(0.00255713 -0.00110092 -4.5494e-05 0.00255713 6.70956e-19 0.00255713)
(0.00267973 -0.0011668 -4.90992e-05 0.00267973 7.79286e-20 0.00267973)
(0.00267973 -0.0011668 -4.90992e-05 0.00267973 7.46599e-19 0.00267973)
(0.00280401 -0.0012336 -5.28614e-05 0.00280401 -3.03978e-20 0.00280401)
(0.00280401 -0.0012336 -5.28614e-05 0.00280401 8.2895e-19 0.00280401)
(0.0029297 -0.00130112 -5.67769e-05 0.0029297 -1.31156e-19 0.0029297)
(0.0029297 -0.00130112 -5.67769e-05 0.0029297 9.27803e-19 0.0029297)
(0.00305653 -0.00136915 -6.08418e-05 0.00305653 -2.38724e-19 0.00305653)
(0.00305653 -0.00136915 -6.08418e-05 0.00305653 1.03127e-18 0.00305653)
(0.00318421 -0.00143749 -6.50517e-05 0.00318421 -3.2696e-19 0.00318421)
(0.00318421 -0.00143749 -6.50517e-05 0.00318421 1.13766e-18 0.00318421)
(0.00331247 -0.00150593 -6.94017e-05 0.00331247 -2.19911e-19 0.00331247)
(0.00331247 -0.00150593 -6.94017e-05 0.00331247 1.26308e-18 0.00331247)
(0.00344103 -0.00157429 -7.3887e-05 0.00344103 -4.50649e-20 0.00344103)
(0.00344103 -0.00157429 -7.3887e-05 0.00344103 1.38575e-18 0.00344103)
(0.00356963 -0.00164239 -7.85025e-05 0.00356963 -8.43557e-20 0.00356963)
(0.00356963 -0.00164239 -7.85025e-05 0.00356963 1.5092e-18 0.00356963)
(0.00369801 -0.00171005 -8.32431e-05 0.00369801 -1.04965e-19 0.00369801)
(0.00369801 -0.00171005 -8.32431e-05 0.00369801 1.63033e-18 0.00369801)
(0.00382591 -0.00177712 -8.81037e-05 0.00382591 -1.41928e-19 0.00382591)
(0.00382591 -0.00177712 -8.81037e-05 0.00382591 1.72649e-18 0.00382591)
(0.00395309 -0.00184344 -9.30793e-05 0.00395309 -2.06186e-19 0.00395309)
(0.00395309 -0.00184344 -9.30793e-05 0.00395309 1.81836e-18 0.00395309)
(0.00407932 -0.00190888 -9.81649e-05 0.00407932 -1.90002e-19 0.00407932)
(0.00407932 -0.00190888 -9.81649e-05 0.00407932 1.90598e-18 0.00407932)
(0.00420438 -0.00197332 -0.000103356 0.00420438 -2.33305e-19 0.00420438)
(0.00420438 -0.00197332 -0.000103356 0.00420438 1.9756e-18 0.00420438)
(0.00432807 -0.00203665 -0.000108648 0.00432807 -2.20269e-19 0.00432807)
(0.00432807 -0.00203665 -0.000108648 0.00432807 2.0716e-18 0.00432807)
(0.00445021 -0.00209878 -0.000114036 0.00445021 -1.83061e-19 0.00445021)
(0.00445021 -0.00209878 -0.000114036 0.00445021 2.19905e-18 0.00445021)
(0.00457061 -0.00215961 -0.000119517 0.00457061 -8.02269e-20 0.00457061)
(0.00457061 -0.00215961 -0.000119517 0.00457061 2.35758e-18 0.00457061)
(0.00468912 -0.00221907 -0.000125086 0.00468912 -1.08972e-19 0.00468912)
(0.00468912 -0.00221907 -0.000125086 0.00468912 2.52774e-18 0.00468912)
(0.00480559 -0.00227711 -0.000130741 0.00480559 -2.74659e-19 0.00480559)
(0.00480559 -0.00227711 -0.000130741 0.00480559 2.70007e-18 0.00480559)
(0.0049199 -0.00233367 -0.000136478 0.0049199 -4.0199e-19 0.0049199)
(0.0049199 -0.00233367 -0.000136478 0.0049199 2.84839e-18 0.0049199)
(0.00503192 -0.0023887 -0.000142294 0.00503192 -5.37829e-19 0.00503192)
(0.00503192 -0.0023887 -0.000142294 0.00503192 3.02966e-18 0.00503192)
(0.00514156 -0.00244219 -0.000148187 0.00514156 -5.16868e-19 0.00514156)
(0.00514156 -0.00244219 -0.000148187 0.00514156 3.2572e-18 0.00514156)
(0.00524873 -0.0024941 -0.000154153 0.00524873 -7.8302e-19 0.00524873)
(0.00524873 -0.0024941 -0.000154153 0.00524873 3.53237e-18 0.00524873)
(0.00535335 -0.00254442 -0.000160192 0.00535335 -1.07773e-18 0.00535335)
(0.00535335 -0.00254442 -0.000160192 0.00535335 3.77717e-18 0.00535335)
(0.00545535 -0.00259313 -0.000166301 0.00545535 -9.62059e-19 0.00545535)
(0.00545535 -0.00259313 -0.000166301 0.00545535 3.90477e-18 0.00545535)
(0.00555469 -0.00264024 -0.000172478 0.00555469 -7.67807e-19 0.00555469)
(0.00555469 -0.00264024 -0.000172478 0.00555469 3.93878e-18 0.00555469)
(0.00565132 -0.00268574 -0.000178723 0.00565132 -9.91304e-19 0.00565132)
(0.00565132 -0.00268574 -0.000178723 0.00565132 4.11862e-18 0.00565132)
(0.00574521 -0.00272965 -0.000185033 0.00574521 -1.6117e-18 0.00574521)
(0.00574521 -0.00272965 -0.000185033 0.00574521 4.47371e-18 0.00574521)
(0.00583633 -0.00277197 -0.000191409 0.00583633 -1.93529e-18 0.00583633)
(0.00583633 -0.00277197 -0.000191409 0.00583633 4.90861e-18 0.00583633)
(0.00592467 -0.00281272 -0.000197848 0.00592467 -1.98665e-18 0.00592467)
(0.00592467 -0.00281272 -0.000197848 0.00592467 5.3596e-18 0.00592467)
(0.00601022 -0.00285191 -0.000204351 0.00601022 -2.23118e-18 0.00601022)
(0.00601022 -0.00285191 -0.000204351 0.00601022 5.79184e-18 0.00601022)
(0.00609298 -0.00288956 -0.000210916 0.00609298 -2.37421e-18 0.00609298)
(0.00609298 -0.00288956 -0.000210916 0.00609298 6.04971e-18 0.00609298)
(0.00617295 -0.0029257 -0.000217544 0.00617295 -2.32768e-18 0.00617295)
(0.00617295 -0.0029257 -0.000217544 0.00617295 6.15235e-18 0.00617295)
(0.00625014 -0.00296035 -0.000224234 0.00625014 -2.23826e-18 0.00625014)
(0.00625014 -0.00296035 -0.000224234 0.00625014 6.34176e-18 0.00625014)
(0.00632458 -0.00299353 -0.000230986 0.00632458 -2.00348e-18 0.00632458)
(0.00632458 -0.00299353 -0.000230986 0.00632458 6.70726e-18 0.00632458)
(0.00639627 -0.00302528 -0.000237799 0.00639627 -2.52829e-18 0.00639627)
(0.00639627 -0.00302528 -0.000237799 0.00639627 7.15271e-18 0.00639627)
(0.00646524 -0.00305562 -0.000244675 0.00646524 -3.04656e-18 0.00646524)
(0.00646524 -0.00305562 -0.000244675 0.00646524 7.25881e-18 0.00646524)
(0.00653152 -0.00308457 -0.000251612 0.00653152 -2.91953e-18 0.00653152)
(0.00653152 -0.00308457 -0.000251612 0.00653152 7.15843e-18 0.00653152)
(0.00659513 -0.00311216 -0.000258611 0.00659513 -2.49575e-18 0.00659513)
(0.00659513 -0.00311216 -0.000258611 0.00659513 7.5033e-18 0.00659513)
(0.00665612 -0.00313843 -0.000265672 0.00665612 -2.55187e-18 0.00665612)
(0.00665612 -0.00313843 -0.000265672 0.00665612 8.11456e-18 0.00665612)
(0.0067145 -0.0031634 -0.000272795 0.0067145 -2.59004e-18 0.0067145)
(0.0067145 -0.0031634 -0.000272795 0.0067145 8.56172e-18 0.0067145)
(0.00677033 -0.00318709 -0.00027998 0.00677033 -2.13478e-18 0.00677033)
(0.00677033 -0.00318709 -0.00027998 0.00677033 8.38358e-18 0.00677033)
(0.00682362 -0.00320955 -0.000287228 0.00682362 -2.02066e-18 0.00682362)
(0.00682362 -0.00320955 -0.000287228 0.00682362 7.88038e-18 0.00682362)
(0.00687443 -0.00323079 -0.000294539 0.00687443 -2.58883e-18 0.00687443)
(0.00687443 -0.00323079 -0.000294539 0.00687443 8.04475e-18 0.00687443)
(0.00692279 -0.00325083 -0.000301912 0.00692279 -3.77506e-18 0.00692279)
(0.00692279 -0.00325083 -0.000301912 0.00692279 8.8254e-18 0.00692279)
(0.00696874 -0.00326972 -0.000309349 0.00696874 -3.90061e-18 0.00696874)
(0.00696874 -0.00326972 -0.000309349 0.00696874 9.29073e-18 0.00696874)
(0.00701231 -0.00328747 -0.000316848 0.00701231 -2.78825e-18 0.00701231)
(0.00701231 -0.00328747 -0.000316848 0.00701231 9.45405e-18 0.00701231)
(0.00705356 -0.0033041 -0.000324412 0.00705356 -2.14254e-18 0.00705356)
(0.00705356 -0.0033041 -0.000324412 0.00705356 9.72251e-18 0.00705356)
(0.0070925 -0.00331965 -0.000332038 0.0070925 -2.73236e-18 0.0070925)
(0.0070925 -0.00331965 -0.000332038 0.0070925 1.05886e-17 0.0070925)
(0.0071292 -0.00333414 -0.000339728 0.0071292 -3.6869e-18 0.0071292)
(0.0071292 -0.00333414 -0.000339728 0.0071292 1.16816e-17 0.0071292)
(0.00716368 -0.00334758 -0.000347482 0.00716368 -4.53945e-18 0.00716368)
(0.00716368 -0.00334758 -0.000347482 0.00716368 1.24501e-17 0.00716368)
(0.00719598 -0.00336001 -0.000355299 0.00719598 -4.55169e-18 0.00719598)
(0.00719598 -0.00336001 -0.000355299 0.00719598 1.28699e-17 0.00719598)
(0.00722613 -0.00337143 -0.00036318 0.00722613 -4.52195e-18 0.00722613)
(0.00722613 -0.00337143 -0.00036318 0.00722613 1.28901e-17 0.00722613)
(0.00725419 -0.00338188 -0.000371124 0.00725419 -3.72069e-18 0.00725419)
(0.00725419 -0.00338188 -0.000371124 0.00725419 1.35183e-17 0.00725419)
(0.00728018 -0.00339138 -0.00037913 0.00728018 -3.39325e-18 0.00728018)
(0.00728018 -0.00339138 -0.00037913 0.00728018 1.46807e-17 0.00728018)
(0.00730413 -0.00339993 -0.0003872 0.00730413 -4.05139e-18 0.00730413)
(0.00730413 -0.00339993 -0.0003872 0.00730413 1.5517e-17 0.00730413)
(0.00732608 -0.00340756 -0.000395332 0.00732608 -1.62229e-18 0.00732608)
(0.00732608 -0.00340756 -0.000395332 0.00732608 1.50158e-17 0.00732608)
(0.00734607 -0.00341429 -0.000403525 0.00734607 1.77786e-20 0.00734607)
(0.00734607 -0.00341429 -0.000403525 0.00734607 1.41081e-17 0.00734607)
(0.00736413 -0.00342013 -0.00041178 0.00736413 -8.38793e-19 0.00736413)
(0.00736413 -0.00342013 -0.00041178 0.00736413 1.53144e-17 0.00736413)
(0.00738029 -0.0034251 -0.000420095 0.00738029 -2.9837e-18 0.00738029)
(0.00738029 -0.0034251 -0.000420095 0.00738029 1.72793e-17 0.00738029)
(0.00739457 -0.00342922 -0.00042847 0.00739457 -3.64903e-18 0.00739457)
(0.00739457 -0.00342922 -0.00042847 0.00739457 1.76593e-17 0.00739457)
(0.00740701 -0.00343249 -0.000436903 0.00740701 -2.48041e-18 0.00740701)
(0.00740701 -0.00343249 -0.000436903 0.00740701 1.74538e-17 0.00740701)
(0.00741764 -0.00343493 -0.000445394 0.00741764 -1.53717e-18 0.00741764)
(0.00741764 -0.00343493 -0.000445394 0.00741764 1.78123e-17 0.00741764)
(0.00742648 -0.00343655 -0.000453942 0.00742648 2.37581e-19 0.00742648)
(0.00742648 -0.00343655 -0.000453942 0.00742648 2.08925e-17 0.00742648)
(0.00743356 -0.00343737 -0.000462545 0.00743356 1.55737e-18 0.00743356)
(0.00743356 -0.00343737 -0.000462545 0.00743356 2.33125e-17 0.00743356)
(0.0074389 -0.0034374 -0.000471202 0.0074389 2.70745e-18 0.0074389)
(0.0074389 -0.0034374 -0.000471202 0.0074389 2.29003e-17 0.0074389)
(0.00744253 -0.00343664 -0.00047991 0.00744253 2.31762e-18 0.00744253)
(0.00744253 -0.00343664 -0.00047991 0.00744253 2.42974e-17 0.00744253)
(0.00744447 -0.00343511 -0.000488669 0.00744447 6.6848e-19 0.00744447)
(0.00744447 -0.00343511 -0.000488669 0.00744447 2.69533e-17 0.00744447)
(0.00744474 -0.00343281 -0.000497477 0.00744474 -6.17933e-21 0.00744474)
(0.00744474 -0.00343281 -0.000497477 0.00744474 2.66408e-17 0.00744474)
(0.00744336 -0.00342975 -0.00050633 0.00744336 6.44236e-19 0.00744336)
(0.00744336 -0.00342975 -0.00050633 0.00744336 2.6107e-17 0.00744336)
(0.00744036 -0.00342595 -0.000515228 0.00744036 -5.72256e-19 0.00744036)
(0.00744036 -0.00342595 -0.000515228 0.00744036 2.88916e-17 0.00744036)
(0.00743574 -0.00342141 -0.000524167 0.00743574 1.82383e-18 0.00743574)
(0.00743574 -0.00342141 -0.000524167 0.00743574 3.3193e-17 0.00743574)
(0.00742953 -0.00341613 -0.000533144 0.00742953 3.34604e-18 0.00742953)
(0.00742953 -0.00341613 -0.000533144 0.00742953 3.52183e-17 0.00742953)
(0.00742174 -0.00341012 -0.000542158 0.00742174 3.84214e-18 0.00742174)
(0.00742174 -0.00341012 -0.000542158 0.00742174 3.26756e-17 0.00742174)
(0.00741239 -0.00340338 -0.000551204 0.00741239 1.53715e-18 0.00741239)
(0.00741239 -0.00340338 -0.000551204 0.00741239 2.85173e-17 0.00741239)
(0.00740149 -0.00339593 -0.00056028 0.00740149 2.65888e-18 0.00740149)
(0.00740149 -0.00339593 -0.00056028 0.00740149 2.86703e-17 0.00740149)
(0.00738906 -0.00338776 -0.000569381 0.00738906 1.28673e-18 0.00738906)
(0.00738906 -0.00338776 -0.000569381 0.00738906 3.05171e-17 0.00738906)
(0.00737511 -0.00337888 -0.000578504 0.00737511 1.2384e-18 0.00737511)
(0.00737511 -0.00337888 -0.000578504 0.00737511 3.22884e-17 0.00737511)
(0.00735964 -0.00336929 -0.000587645 0.00735964 9.51628e-19 0.00735964)
(0.00735964 -0.00336929 -0.000587645 0.00735964 3.31764e-17 0.00735964)
(0.00734268 -0.003359 -0.000596799 0.00734268 -3.86189e-19 0.00734268)
(0.00734268 -0.003359 -0.000596799 0.00734268 3.30191e-17 0.00734268)
(0.00732422 -0.003348 -0.000605961 0.00732422 -1.72234e-18 0.00732422)
(0.00732422 -0.003348 -0.000605961 0.00732422 3.34134e-17 0.00732422)
(0.00730428 -0.0033363 -0.000615128 0.00730428 4.36999e-19 0.00730428)
(0.00730428 -0.0033363 -0.000615128 0.00730428 3.3243e-17 0.00730428)
(0.00728287 -0.00332391 -0.000624292 0.00728287 1.81009e-18 0.00728287)
(0.00728287 -0.00332391 -0.000624292 0.00728287 3.39042e-17 0.00728287)
(0.00725999 -0.00331081 -0.00063345 0.00725999 2.52621e-18 0.00725999)
(0.00725999 -0.00331081 -0.00063345 0.00725999 3.5602e-17 0.00725999)
(0.00723565 -0.00329701 -0.000642593 0.00723565 2.05535e-18 0.00723565)
(0.00723565 -0.00329701 -0.000642593 0.00723565 3.83518e-17 0.00723565)
(0.00720985 -0.00328251 -0.000651718 0.00720985 1.29199e-18 0.00720985)
(0.00720985 -0.00328251 -0.000651718 0.00720985 4.3038e-17 0.00720985)
(0.0071826 -0.00326731 -0.000660816 0.0071826 -1.49011e-18 0.0071826)
(0.0071826 -0.00326731 -0.000660816 0.0071826 4.69154e-17 0.0071826)
(0.0071539 -0.00325141 -0.00066988 0.0071539 -7.42588e-19 0.0071539)
(0.0071539 -0.00325141 -0.00066988 0.0071539 4.66934e-17 0.0071539)
(0.00712375 -0.0032348 -0.000678904 0.00712375 1.15796e-18 0.00712375)
(0.00712375 -0.0032348 -0.000678904 0.00712375 4.48881e-17 0.00712375)
(0.00709217 -0.0032175 -0.000687879 0.00709217 3.53522e-18 0.00709217)
(0.00709217 -0.0032175 -0.000687879 0.00709217 3.64471e-17 0.00709217)
(0.00705914 -0.00319948 -0.000696796 0.00705914 3.4547e-18 0.00705914)
(0.00705914 -0.00319948 -0.000696796 0.00705914 3.10779e-17 0.00705914)
(0.00702467 -0.00318075 -0.000705647 0.00702467 -1.94434e-18 0.00702467)
(0.00702467 -0.00318075 -0.000705647 0.00702467 3.24032e-17 0.00702467)
(0.00698876 -0.00316131 -0.000714424 0.00698876 1.04846e-18 0.00698876)
(0.00698876 -0.00316131 -0.000714424 0.00698876 3.09756e-17 0.00698876)
(0.0069514 -0.00314116 -0.000723115 0.0069514 8.16949e-19 0.0069514)
(0.0069514 -0.00314116 -0.000723115 0.0069514 3.61147e-17 0.0069514)
(0.00691261 -0.00312028 -0.00073171 0.00691261 -3.04232e-18 0.00691261)
(0.00691261 -0.00312028 -0.00073171 0.00691261 3.8871e-17 0.00691261)
(0.00687237 -0.00309868 -0.0007402 0.00687237 1.80826e-19 0.00687237)
(0.00687237 -0.00309868 -0.0007402 0.00687237 3.79828e-17 0.00687237)
(0.00683069 -0.00307634 -0.000748571 0.00683069 6.27777e-18 0.00683069)
(0.00683069 -0.00307634 -0.000748571 0.00683069 3.42487e-17 0.00683069)
(0.00678757 -0.00305328 -0.000756813 0.00678757 6.82394e-18 0.00678757)
(0.00678757 -0.00305328 -0.000756813 0.00678757 2.57024e-17 0.00678757)
(0.00674299 -0.00302947 -0.000764913 0.00674299 2.41632e-18 0.00674299)
(0.00674299 -0.00302947 -0.000764913 0.00674299 2.13072e-17 0.00674299)
(0.00669695 -0.00300492 -0.000772857 0.00669695 2.57389e-18 0.00669695)
(0.00669695 -0.00300492 -0.000772857 0.00669695 1.91914e-17 0.00669695)
(0.00664946 -0.00297962 -0.000780632 0.00664946 9.49848e-19 0.00664946)
(0.00664946 -0.00297962 -0.000780632 0.00664946 1.66116e-17 0.00664946)
(0.00660051 -0.00295356 -0.000788223 0.00660051 -2.77514e-18 0.00660051)
(0.00660051 -0.00295356 -0.000788223 0.00660051 4.68293e-18 0.00660051)
(0.0065501 -0.00292673 -0.000795614 0.0065501 -2.31125e-18 0.0065501)
(0.0065501 -0.00292673 -0.000795614 0.0065501 1.89293e-18 0.0065501)
(0.00649822 -0.00289913 -0.00080279 0.00649822 2.92035e-18 0.00649822)
(0.00649822 -0.00289913 -0.00080279 0.00649822 1.51492e-19 0.00649822)
(0.00644486 -0.00287076 -0.000809734 0.00644486 -2.6151e-34 0.00644486)
(0.00644486 -0.00287076 -0.000809734 0.00644486 -6.43205e-18 0.00644486)