/*--------------------------------*- C++ -*----------------------------------*\
| =========                 |                                                 |
| \\      /  F ield         | OpenFOAM: The Open Source CFD Toolbox           |
|  \\    /   O peration     | Version:  2106                                  |
|   \\  /    A nd           | Website:  www.openfoam.com                      |
|    \\/     M anipulation  |                                                 |
\*---------------------------------------------------------------------------*/
FoamFile
{
    version     2.0;
    format      ascii;
    arch        "LSB;label=32;scalar=64";
    class       volVectorField;
    location    "10040";
    object      grad(T);
}
// * * * * * * * * * * * * * * * * * * * * * * * * * * * * * * * * * * * * * //

dimensions      [0 -1 0 1 0 0 0];

internalField   nonuniform List<vector> 
2000
(
(0 281.193 0.520387)
(0 281.193 0.520387)
(0 281.193 1.57087)
(0 281.193 1.57087)
(-5.05031e-16 281.193 2.18013)
(4.41078e-16 281.193 2.18013)
(-2.09584e-16 281.192 2.22082)
(8.38336e-16 281.192 2.22082)
(0 281.191 2.26227)
(-8.50121e-16 281.191 2.26227)
(0 281.19 2.30449)
(-2.0362e-15 281.19 2.30449)
(8.1925e-16 281.188 2.34749)
(2.65195e-15 281.188 2.34749)
(0 281.186 2.39129)
(6.5584e-15 281.186 2.39129)
(-9.79538e-16 281.183 2.4359)
(0 281.183 2.4359)
(0 281.18 2.48134)
(0 281.18 2.48134)
(4.56499e-15 281.176 2.52762)
(0 281.176 2.52762)
(1.47686e-15 281.171 2.57475)
(2.91988e-15 281.171 2.57475)
(0 281.164 2.62274)
(0 281.164 2.62274)
(-1.82407e-15 281.156 2.67161)
(-2.87907e-15 281.156 2.67161)
(-4.82885e-15 281.145 2.72137)
(-2.82631e-15 281.145 2.72137)
(4.95886e-15 281.132 2.77201)
(-8.73738e-15 281.132 2.77201)
(2.72368e-15 281.114 2.82355)
(0 281.114 2.82355)
(5.11637e-15 281.091 2.876)
(1.29065e-14 281.091 2.876)
(-2.75035e-15 281.061 2.92933)
(0 281.061 2.92933)
(2.94608e-15 281.023 2.98355)
(1.17843e-14 281.023 2.98355)
(-3.14546e-15 280.973 3.03865)
(2.51637e-14 280.973 3.03865)
(0 280.911 3.0946)
(8.42798e-15 280.911 3.0946)
(0 280.831 3.15137)
(1.90968e-14 280.831 3.15137)
(0 280.731 3.20892)
(1.02785e-14 280.731 3.20892)
(-3.98066e-15 280.606 3.2672)
(0 280.606 3.2672)
(0 280.449 3.32613)
(1.67968e-14 280.449 3.32613)
(-4.42173e-15 280.256 3.38563)
(0 280.256 3.38563)
(-4.64833e-15 280.017 3.4456)
(0 280.017 3.4456)
(0 279.726 3.5059)
(0 279.726 3.5059)
(-1.36803e-14 279.372 3.56639)
(-2.04557e-14 279.372 3.56639)
(5.353e-15 278.944 3.62688)
(2.1412e-14 278.944 3.62688)
(8.25531e-15 278.431 3.68717)
(-8.25531e-15 278.431 3.68717)
(1.03642e-14 277.819 3.74702)
(-1.62081e-14 277.819 3.74702)
(-6.09563e-15 277.095 3.80617)
(0 277.095 3.80617)
(0 276.242 3.86432)
(2.54067e-14 276.242 3.86432)
(7.66664e-15 275.245 3.92114)
(-7.66664e-15 275.245 3.92114)
(6.87636e-15 274.088 3.97628)
(1.99793e-14 274.088 3.97628)
(-1.45331e-14 272.753 4.02937)
(2.85796e-14 272.753 4.02937)
(-1.46703e-14 271.226 4.08002)
(0 271.226 4.08002)
(0 269.49 4.12783)
(3.07757e-14 269.49 4.12783)
(-8.95888e-15 267.531 4.17242)
(2.49072e-14 267.531 4.17242)
(0 265.336 4.21338)
(0 265.336 4.21338)
(0 262.896 4.25036)
(0 262.896 4.25036)
(-8.83563e-15 260.203 4.28302)
(-4.8567e-14 260.203 4.28302)
(9.12894e-15 257.254 4.31106)
(2.35336e-14 257.254 4.31106)
(2.21691e-14 254.047 4.33425)
(-5.04437e-14 254.047 4.33425)
(2.78761e-15 250.585 4.3524)
(3.88923e-14 250.585 4.3524)
(-1.22814e-14 246.877 4.3654)
(9.24678e-14 246.877 4.3654)
(1.03251e-14 242.932 4.37319)
(4.13005e-14 242.932 4.37319)
(-1.06282e-14 238.765 4.37578)
(-4.25129e-14 238.765 4.37578)
(0 234.393 4.37327)
(0 234.393 4.37327)
(-2.26424e-14 229.836 4.36579)
(0 229.836 4.36579)
(2.23933e-14 225.117 4.35356)
(0 225.117 4.35356)
(0 220.258 4.33681)
(-4.73829e-14 220.258 4.33681)
(1.21496e-14 215.285 4.31584)
(-1.07901e-14 215.285 4.31584)
(-2.30448e-14 210.221 4.29097)
(1.05923e-14 210.221 4.29097)
(-2.55084e-14 205.091 4.26254)
(5.10167e-14 205.091 4.26254)
(-1.30543e-14 199.92 4.2309)
(0 199.92 4.2309)
(-2.67054e-14 194.729 4.19641)
(-5.34109e-14 194.729 4.19641)
(1.3649e-14 189.54 4.15943)
(-5.45961e-14 189.54 4.15943)
(-1.93135e-14 184.372 4.12029)
(-1.93135e-14 184.372 4.12029)
(-4.74289e-14 179.244 4.07934)
(1.13877e-13 179.244 4.07934)
(-1.45236e-14 174.169 4.03688)
(5.80945e-14 174.169 4.03688)
(0 169.164 3.99322)
(0 169.164 3.99322)
(-1.50931e-14 164.239 3.94861)
(6.03723e-14 164.239 3.94861)
(0 159.405 3.90332)
(0 159.405 3.90332)
(-1.56505e-14 154.669 3.85757)
(0 154.669 3.85757)
(0 150.04 3.81156)
(-1.69682e-14 150.04 3.81156)
(0 145.522 3.76547)
(6.47819e-14 145.522 3.76547)
(0 141.119 3.71946)
(0 141.119 3.71946)
(-1.67276e-14 136.834 3.67368)
(6.69103e-14 136.834 3.67368)
(0 132.669 3.62825)
(6.79552e-14 132.669 3.62825)
(-1.72468e-14 128.626 3.58327)
(-6.89872e-14 128.626 3.58327)
(1.5186e-14 124.703 3.53883)
(-7.00064e-14 124.703 3.53883)
(-3.55065e-14 120.901 3.49501)
(7.1013e-14 120.901 3.49501)
(-3.60035e-14 117.218 3.45187)
(0 117.218 3.45187)
(0 113.653 3.40946)
(7.29886e-14 113.653 3.40946)
(-4.66958e-14 110.204 3.36783)
(-7.39581e-14 110.204 3.36783)
(1.87289e-14 106.868 3.327)
(0 106.868 3.327)
(1.89653e-14 103.643 3.28701)
(-7.58611e-14 103.643 3.28701)
(-3.83976e-14 100.526 3.24786)
(0 100.526 3.24786)
(0 97.515 3.20958)
(0 97.515 3.20958)
(1.96574e-14 94.606 3.17217)
(-1.57259e-13 94.606 3.17217)
(1.98826e-14 91.7962 3.13564)
(0 91.7962 3.13564)
(0 89.0825 3.09998)
(8.04203e-14 89.0825 3.09998)
(4.4652e-14 86.4619 3.06518)
(8.13001e-14 86.4619 3.06518)
(-1.72036e-14 83.9312 3.03124)
(0 83.9312 3.03124)
(-1.80711e-14 81.4874 2.99816)
(8.30294e-14 81.4874 2.99816)
(2.09699e-14 79.1274 2.96592)
(1.67759e-13 79.1274 2.96592)
(-4.37723e-14 76.8482 2.9345)
(2.25923e-14 76.8482 2.9345)
(-4.27758e-14 74.6469 2.90389)
(8.55515e-14 74.6469 2.90389)
(-2.15935e-14 72.5207 2.87409)
(8.63741e-14 72.5207 2.87409)
(0 70.4669 2.84506)
(-2.13729e-14 70.4669 2.84506)
(2.19983e-14 68.4826 2.8168)
(8.79933e-14 68.4826 2.8168)
(2.21976e-14 66.5654 2.78929)
(8.87904e-14 66.5654 2.78929)
(-2.23949e-14 64.7127 2.7625)
(8.95794e-14 64.7127 2.7625)
(2.74132e-15 62.922 2.73643)
(1.98488e-14 62.922 2.73643)
(-2.27836e-14 61.191 2.71106)
(5.2164e-14 61.191 2.71106)
(2.29751e-14 59.5175 2.68636)
(0 59.5175 2.68636)
(-2.31648e-14 57.8992 2.66232)
(9.26594e-14 57.8992 2.66232)
(2.33528e-14 56.3341 2.63892)
(5.65444e-14 56.3341 2.63892)
(0 54.8201 2.61615)
(5.79651e-14 54.8201 2.61615)
(0 53.3552 2.59398)
(-1.30423e-13 53.3552 2.59398)
(3.48771e-14 51.9377 2.5724)
(6.07497e-14 51.9377 2.5724)
(1.01499e-14 50.5658 2.5514)
(0 50.5658 2.5514)
(-2.4268e-14 49.2376 2.53096)
(9.70719e-14 49.2376 2.53096)
(0 47.9516 2.51105)
(0 47.9516 2.51105)
(0 46.7062 2.49168)
(-3.23901e-14 46.7062 2.49168)
(2.47988e-14 45.4998 2.47282)
(9.91952e-14 45.4998 2.47282)
(-6.24091e-15 44.3311 2.45445)
(9.98918e-14 44.3311 2.45445)
(0 43.1985 2.43657)
(1.00583e-13 43.1985 2.43657)
(-5.06344e-14 42.1008 2.41915)
(1.01269e-13 42.1008 2.41915)
(2.54874e-14 41.0367 2.40219)
(1.0195e-13 41.0367 2.40219)
(0 40.005 2.38567)
(-1.02626e-13 40.005 2.38567)
(0 39.0044 2.36958)
(0 39.0044 2.36958)
(-5.19816e-14 38.0338 2.35391)
(0 38.0338 2.35391)
(-2.61562e-14 37.0923 2.33864)
(0 37.0923 2.33864)
(-2.69209e-14 36.1786 2.32376)
(-1.05282e-13 36.1786 2.32376)
(5.29677e-14 35.2919 2.30926)
(-5.28553e-14 35.2919 2.30926)
(5.32921e-14 34.4311 2.29514)
(8.06408e-14 34.4311 2.29514)
(-2.68072e-14 33.5954 2.28137)
(1.07229e-13 33.5954 2.28137)
(5.39347e-14 32.7839 2.26795)
(-2.50013e-14 32.7839 2.26795)
(7.62128e-14 31.9957 2.25487)
(1.08506e-13 31.9957 2.25487)
(-2.72848e-14 31.2299 2.24212)
(0 31.2299 2.24212)
(-2.36519e-14 30.486 2.22969)
(2.43189e-13 30.486 2.22969)
(-7.40354e-14 29.763 2.21757)
(4.64369e-14 29.763 2.21757)
(-4.5586e-14 29.0603 2.20575)
(2.22032e-13 29.0603 2.20575)
(-2.79087e-14 28.3771 2.19422)
(0 28.3771 2.19422)
(0 27.7129 2.18297)
(1.1225e-13 27.7129 2.18297)
(2.82155e-14 27.067 2.172)
(2.25724e-13 27.067 2.172)
(-2.83677e-14 26.4387 2.1613)
(1.13471e-13 26.4387 2.1613)
(-1.30404e-14 25.8276 2.15085)
(1.14076e-13 25.8276 2.15085)
(-5.73395e-14 25.2329 2.14066)
(7.3881e-14 25.2329 2.14066)
(-4.00503e-14 24.6543 2.13071)
(2.30557e-13 24.6543 2.13071)
(0 24.0911 2.12099)
(1.15875e-13 24.0911 2.12099)
(-2.91173e-14 23.5428 2.11151)
(0 23.5428 2.11151)
(2.92651e-14 23.009 2.10225)
(0 23.009 2.10225)
(0 22.4893 2.09321)
(0 22.4893 2.09321)
(-2.95587e-14 21.9831 2.08437)
(0 21.9831 2.08437)
(-2.97046e-14 21.49 2.07574)
(-1.54662e-13 21.49 2.07574)
(-6.50367e-14 21.0096 2.0673)
(2.73985e-13 21.0096 2.0673)
(0 20.5416 2.05906)
(1.19977e-13 20.5416 2.05906)
(3.7708e-15 20.0855 2.051)
(8.66443e-14 20.0855 2.051)
(0 19.6409 2.04311)
(8.78393e-14 19.6409 2.04311)
(-6.31024e-14 19.2076 2.0354)
(1.21698e-13 19.2076 2.0354)
(0 18.7851 2.02786)
(1.22268e-13 18.7851 2.02786)
(-3.07086e-14 18.3731 2.02048)
(0 18.3731 2.02048)
(-3.08498e-14 17.9714 2.01325)
(0 17.9714 2.01325)
(-3.09905e-14 17.5795 2.00618)
(0 17.5795 2.00618)
(1.33919e-15 17.1972 1.99925)
(-1.24523e-13 17.1972 1.99925)
(0 16.8242 1.99246)
(0 16.8242 1.99246)
(0 16.4603 1.9858)
(0 16.4603 1.9858)
(5.97318e-14 16.1051 1.97928)
(0 16.1051 1.97928)
(-3.16865e-14 15.7585 1.97288)
(1.26746e-13 15.7585 1.97288)
(-3.18242e-14 15.42 1.96659)
(1.27297e-13 15.42 1.96659)
(-3.19615e-14 15.0896 1.96043)
(0 15.0896 1.96043)
(0 14.767 1.95437)
(1.28394e-13 14.767 1.95437)
(-3.22349e-14 14.4519 1.94841)
(-1.28939e-13 14.4519 1.94841)
(3.23709e-14 14.1441 1.94256)
(1.29483e-13 14.1441 1.94256)
(3.25065e-14 13.8435 1.9368)
(1.79548e-13 13.8435 1.9368)
(3.26416e-14 13.5498 1.93112)
(0 13.5498 1.93112)
(-4.7724e-14 13.2627 1.92554)
(1.31106e-13 13.2627 1.92554)
(-3.29108e-14 12.9822 1.92003)
(0 12.9822 1.92003)
(0 12.7081 1.91459)
(1.32179e-13 12.7081 1.91459)
(-3.31784e-14 12.4401 1.90923)
(0 12.4401 1.90923)
(0 12.178 1.90393)
(0 12.178 1.90393)
(4.35087e-14 11.9218 1.89868)
(1.33778e-13 11.9218 1.89868)
(0 11.6713 1.89349)
(1.34308e-13 11.6713 1.89349)
(-7.56377e-14 11.4262 1.88835)
(4.19287e-14 11.4262 1.88835)
(-3.38407e-14 11.1864 1.88326)
(0 11.1864 1.88326)
(-3.39721e-14 10.9519 1.8782)
(0 10.9519 1.8782)
(6.82062e-14 10.7224 1.87317)
(1.36412e-13 10.7224 1.87317)
(-1.02701e-13 10.4978 1.86817)
(1.36935e-13 10.4978 1.86817)
(-3.82253e-14 10.2779 1.86319)
(1.37456e-13 10.2779 1.86319)
(3.03076e-15 10.0627 1.85823)
(-3.75249e-14 10.0627 1.85823)
(-7.14609e-14 9.85196 1.85328)
(0 9.85196 1.85328)
(3.61622e-14 9.64561 1.84833)
(-3.61622e-14 9.64561 1.84833)
(0 9.44353 1.84337)
(1.39528e-13 9.44353 1.84337)
(-3.50105e-14 9.24557 1.83841)
(-1.40042e-13 9.24557 1.83841)
(3.42104e-14 9.05164 1.83343)
(-3.42104e-14 9.05164 1.83343)
(-1.02434e-13 8.86162 1.82843)
(-2.82134e-13 8.86162 1.82843)
(-3.53943e-14 8.6754 1.8234)
(0 8.6754 1.8234)
(0 8.49287 1.81833)
(0 8.49287 1.81833)
(0 8.31394 1.81322)
(1.10823e-13 8.31394 1.81322)
(-7.15499e-14 8.13849 1.80805)
(2.86199e-13 8.13849 1.80805)
(0 7.96643 1.80283)
(1.43604e-13 7.96643 1.80283)
(-3.60269e-14 7.79767 1.79753)
(-3.00562e-14 7.79767 1.79753)
(0 7.6321 1.79216)
(-1.4461e-13 7.6321 1.79216)
(-3.62775e-14 7.46965 1.7867)
(0 7.46965 1.7867)
(0 7.31022 1.78115)
(1.45609e-13 7.31022 1.78115)
(-5.58258e-14 7.15371 1.77549)
(2.01932e-13 7.15371 1.77549)
(-1.81522e-14 7.00006 1.76972)
(3.48008e-13 7.00006 1.76972)
(3.67743e-14 6.84916 1.76382)
(1.47097e-13 6.84916 1.76382)
(0 6.70095 1.75779)
(1.4759e-13 6.70095 1.75779)
(3.70203e-14 6.55533 1.7516)
(1.99926e-13 6.55533 1.7516)
(-3.71428e-14 6.41223 1.74526)
(2.97142e-13 6.41223 1.74526)
(-3.72648e-14 6.27157 1.73874)
(-1.49059e-13 6.27157 1.73874)
(0 6.13328 1.73203)
(0 6.13328 1.73203)
(-3.75075e-14 5.99727 1.72512)
(0 5.99727 1.72512)
(-7.52563e-14 5.86348 1.718)
(0 5.86348 1.718)
(-3.77484e-14 5.73183 1.71064)
(1.50994e-13 5.73183 1.71064)
(0 5.60225 1.70304)
(-4.55493e-14 5.60225 1.70304)
(-3.79874e-14 5.47466 1.69516)
(0 5.47466 1.69516)
(-4.38952e-14 5.349 1.68701)
(-4.38952e-14 5.349 1.68701)
(3.82244e-14 5.22519 1.67855)
(3.05795e-13 5.22519 1.67855)
(1.18985e-13 5.10316 1.66976)
(-1.9567e-13 5.10316 1.66976)
(3.53924e-14 4.98285 1.66063)
(4.15261e-14 4.98285 1.66063)
(7.71516e-14 4.86417 1.65113)
(3.08606e-13 4.86417 1.65113)
(3.86917e-14 4.74707 1.64123)
(1.14749e-13 4.74707 1.64123)
(3.8807e-14 4.63147 1.63091)
(1.55228e-13 4.63147 1.63091)
(-3.89217e-14 4.51729 1.62013)
(1.55687e-13 4.51729 1.62013)
(-3.90357e-14 4.40448 1.60888)
(0 4.40448 1.60888)
(0 4.29294 1.59711)
(1.56596e-13 4.29294 1.59711)
(-4.20395e-14 4.18263 1.5848)
(1.20563e-13 4.18263 1.5848)
(-3.93732e-14 4.07344 1.57189)
(0 4.07344 1.57189)
(0 3.96532 1.55836)
(3.15874e-13 3.96532 1.55836)
(0 3.85818 1.54416)
(-3.45143e-14 3.85818 1.54416)
(3.97035e-14 3.75195 1.52925)
(-1.92696e-13 3.75195 1.52925)
(3.98118e-14 3.64653 1.51356)
(0 3.64653 1.51356)
(-4.71867e-14 3.54185 1.49706)
(0 3.54185 1.49706)
(1.59445e-14 3.43782 1.47967)
(0 3.43782 1.47967)
(0 3.33434 1.46134)
(1.60523e-13 3.33434 1.46134)
(0 3.23132 1.44199)
(2.22717e-13 3.23132 1.44199)
(-2.03087e-14 3.12865 1.42155)
(2.21997e-13 3.12865 1.42155)
(0 3.02623 1.39994)
(-1.61757e-13 3.02623 1.39994)
(-4.05396e-14 2.92395 1.37706)
(0 2.92395 1.37706)
(1.67346e-14 2.82169 1.35283)
(1.05181e-13 2.82169 1.35283)
(-5.63218e-14 2.71931 1.32711)
(2.19265e-13 2.71931 1.32711)
(-4.08318e-14 2.6167 1.29981)
(-1.63327e-13 2.6167 1.29981)
(4.0926e-14 2.5137 1.27079)
(2.73132e-13 2.5137 1.27079)
(0 2.41015 1.23991)
(1.64074e-13 2.41015 1.23991)
(-4.11091e-14 2.3059 1.20701)
(0 2.3059 1.20701)
(4.11977e-14 2.20077 1.17192)
(1.64791e-13 2.20077 1.17192)
(9.12191e-15 2.09457 1.13444)
(1.65137e-13 2.09457 1.13444)
(-4.13685e-14 1.98711 1.09439)
(1.65474e-13 1.98711 1.09439)
(0 1.87816 1.05153)
(0 1.87816 1.05153)
(4.15297e-14 1.76751 1.00562)
(0 1.76751 1.00562)
(-8.32127e-14 1.65492 0.956396)
(1.66425e-13 1.65492 0.956396)
(0 1.54016 0.903584)
(0 1.54016 0.903584)
(0 1.42297 0.846885)
(0 1.42297 0.846885)
(4.18178e-14 1.30311 0.785989)
(1.67271e-13 1.30311 0.785989)
(-4.18814e-14 1.18034 0.720576)
(2.10999e-13 1.18034 0.720576)
(-8.46182e-14 1.05445 0.650326)
(0 1.05445 0.650326)
(0 0.925237 0.574922)
(-4.1895e-14 0.925237 0.574922)
(0 0.792547 0.494063)
(-1.68192e-13 0.792547 0.494063)
(-4.20942e-14 0.65628 0.407478)
(0 0.65628 0.407478)
(-4.21353e-14 0.516398 0.314933)
(2.08175e-13 0.516398 0.314933)
(-3.89075e-14 0.37294 0.216245)
(2.07591e-13 0.37294 0.216245)
(-4.22004e-14 0.226029 0.11129)
(0 0.226029 0.11129)
(-7.97182e-14 1.48435e-06 5.494e-07)
(3.37902e-13 9.5774e-07 3.54486e-07)
(0 281.193 -0.520387)
(-1.14425e-16 281.193 -0.520387)
(-2.24656e-16 281.193 -1.57087)
(0 281.193 -1.57087)
(-1.27907e-16 281.193 -2.18013)
(0 281.193 -2.18013)
(2.09584e-16 281.192 -2.22082)
(-4.32995e-16 281.192 -2.22082)
(-7.15865e-16 281.191 -2.26227)
(0 281.191 -2.26227)
(5.0905e-16 281.19 -2.30449)
(-8.34543e-16 281.19 -2.30449)
(-1.6385e-15 281.188 -2.34749)
(-8.1925e-16 281.188 -2.34749)
(1.6396e-15 281.186 -2.39129)
(0 281.186 -2.39129)
(-2.55854e-15 281.183 -2.4359)
(3.91815e-15 281.183 -2.4359)
(1.14226e-15 281.18 -2.48134)
(-4.56903e-15 281.18 -2.48134)
(1.09436e-15 281.176 -2.52762)
(-5.23205e-15 281.176 -2.52762)
(1.47686e-15 281.171 -2.57475)
(0 281.171 -2.57475)
(-1.64886e-15 281.164 -2.62274)
(-6.59543e-15 281.164 -2.62274)
(2.87907e-15 281.156 -2.67161)
(-1.01753e-14 281.156 -2.67161)
(2.00254e-15 281.145 -2.72137)
(-8.01016e-15 281.145 -2.72137)
(-2.77452e-15 281.132 -2.77201)
(0 281.132 -2.77201)
(5.09321e-15 281.114 -2.82355)
(-1.22018e-14 281.114 -2.82355)
(2.55819e-15 281.091 -2.876)
(1.02327e-14 281.091 -2.876)
(2.75035e-15 281.061 -2.92933)
(0 281.061 -2.92933)
(5.89217e-15 281.023 -2.98355)
(-5.15334e-15 281.023 -2.98355)
(8.20437e-15 280.973 -3.03865)
(7.52294e-15 280.973 -3.03865)
(8.31475e-15 280.911 -3.0946)
(8.42798e-15 280.911 -3.0946)
(-3.5554e-15 280.831 -3.15137)
(0 280.831 -3.15137)
(1.2318e-14 280.731 -3.20892)
(-4.78586e-15 280.731 -3.20892)
(-7.17506e-16 280.606 -3.2672)
(4.69817e-15 280.606 -3.2672)
(4.61207e-15 280.449 -3.32613)
(0 280.449 -3.32613)
(0 280.256 -3.38563)
(-4.52756e-15 280.256 -3.38563)
(9.29666e-15 280.017 -3.4456)
(0 280.017 -3.4456)
(4.87905e-15 279.726 -3.5059)
(1.95162e-14 279.726 -3.5059)
(1.02279e-14 279.372 -3.56639)
(0 279.372 -3.56639)
(1.37624e-14 278.944 -3.62688)
(-8.40941e-15 278.944 -3.62688)
(5.5963e-15 278.431 -3.68717)
(-8.25531e-15 278.431 -3.68717)
(5.84384e-15 277.819 -3.74702)
(-2.33754e-14 277.819 -3.74702)
(0 277.095 -3.80617)
(-2.43825e-14 277.095 -3.80617)
(7.80975e-15 276.242 -3.86432)
(0 276.242 -3.86432)
(6.61192e-15 275.245 -3.92114)
(-2.64477e-14 275.245 -3.92114)
(1.37527e-14 274.088 -3.97628)
(-7.52615e-15 274.088 -3.97628)
(-7.1449e-15 272.753 -4.02937)
(-2.85796e-14 272.753 -4.02937)
(-7.41746e-15 271.226 -4.08002)
(-7.38454e-14 271.226 -4.08002)
(-7.69393e-15 269.49 -4.12783)
(0 269.49 -4.12783)
(-7.97417e-15 267.531 -4.17242)
(0 267.531 -4.17242)
(-8.25801e-15 265.336 -4.21338)
(-6.60641e-14 265.336 -4.21338)
(1.70905e-14 262.896 -4.25036)
(0 262.896 -4.25036)
(8.83563e-15 260.203 -4.28302)
(-4.8567e-14 260.203 -4.28302)
(1.82579e-14 257.254 -4.31106)
(2.35336e-14 257.254 -4.31106)
(3.49133e-14 254.047 -4.33425)
(-5.04437e-14 254.047 -4.33425)
(-1.94462e-14 250.585 -4.3524)
(-3.88923e-14 250.585 -4.3524)
(7.76514e-15 246.877 -4.3654)
(5.23746e-14 246.877 -4.3654)
(1.20564e-14 242.932 -4.37319)
(0 242.932 -4.37319)
(-1.06282e-14 238.765 -4.37578)
(-9.68612e-14 238.765 -4.37578)
(1.09322e-14 234.393 -4.37327)
(-6.69659e-14 234.393 -4.37327)
(1.12367e-14 229.836 -4.36579)
(0 229.836 -4.36579)
(0 225.117 -4.35356)
(-9.23306e-14 225.117 -4.35356)
(1.18457e-14 220.258 -4.33681)
(0 220.258 -4.33681)
(2.42991e-14 215.285 -4.31584)
(0 215.285 -4.31584)
(0 210.221 -4.29097)
(-7.09947e-14 210.221 -4.29097)
(-8.04231e-15 205.091 -4.26254)
(0 205.091 -4.26254)
(1.30543e-14 199.92 -4.2309)
(-7.26328e-14 199.92 -4.2309)
(2.00413e-14 194.729 -4.19641)
(-7.34522e-14 194.729 -4.19641)
(1.96741e-14 189.54 -4.15943)
(-7.42702e-14 189.54 -4.15943)
(1.39431e-14 184.372 -4.12029)
(0 184.372 -4.12029)
(1.89596e-14 179.244 -4.07934)
(-1.89596e-14 179.244 -4.07934)
(3.31358e-14 174.169 -4.03688)
(-1.86122e-14 174.169 -4.03688)
(3.30809e-14 169.164 -3.99322)
(-1.82711e-14 169.164 -3.99322)
(0 164.239 -3.94861)
(-6.03723e-14 164.239 -3.94861)
(0 159.405 -3.90332)
(0 159.405 -3.90332)
(5.02205e-14 154.669 -3.85757)
(-9.71721e-14 154.669 -3.85757)
(0 150.04 -3.81156)
(-6.36984e-14 150.04 -3.81156)
(0 145.522 -3.76547)
(1.66573e-14 145.522 -3.76547)
(-1.64631e-14 141.119 -3.71946)
(1.31705e-13 141.119 -3.71946)
(0 136.834 -3.67368)
(0 136.834 -3.67368)
(1.69888e-14 132.669 -3.62825)
(-6.79552e-14 132.669 -3.62825)
(3.27163e-14 128.626 -3.58327)
(-8.44567e-14 128.626 -3.58327)
(3.0372e-14 124.703 -3.53883)
(-1.40013e-13 124.703 -3.53883)
(-1.77532e-14 120.901 -3.49501)
(-2.98155e-14 120.901 -3.49501)
(0 117.218 -3.45187)
(0 117.218 -3.45187)
(0 113.653 -3.40946)
(7.29886e-14 113.653 -3.40946)
(-1.84895e-14 110.204 -3.36783)
(-2.95832e-13 110.204 -3.36783)
(3.74577e-14 106.868 -3.327)
(-7.49155e-14 106.868 -3.327)
(-1.89653e-14 103.643 -3.28701)
(0 103.643 -3.28701)
(-1.91988e-14 100.526 -3.24786)
(-7.67952e-14 100.526 -3.24786)
(-3.88589e-14 97.515 -3.20958)
(-7.77179e-14 97.515 -3.20958)
(-1.96574e-14 94.606 -3.17217)
(-1.82974e-13 94.606 -3.17217)
(3.97651e-14 91.7962 -3.13564)
(-7.95302e-14 91.7962 -3.13564)
(2.01051e-14 89.0825 -3.09998)
(8.04203e-14 89.0825 -3.09998)
(-2.4327e-14 86.4619 -3.06518)
(8.13001e-14 86.4619 -3.06518)
(-3.33879e-15 83.9312 -3.03124)
(-8.21697e-14 83.9312 -3.03124)
(-6.49583e-14 81.4874 -2.99816)
(8.30294e-14 81.4874 -2.99816)
(4.39839e-14 79.1274 -2.96592)
(-2.3014e-14 79.1274 -2.96592)
(1.41226e-15 76.8482 -2.9345)
(0 76.8482 -2.9345)
(0 74.6469 -2.90389)
(0 74.6469 -2.90389)
(2.15935e-14 72.5207 -2.87409)
(8.63741e-14 72.5207 -2.87409)
(2.13729e-14 70.4669 -2.84506)
(-8.71879e-14 70.4669 -2.84506)
(0 68.4826 -2.8168)
(0 68.4826 -2.8168)
(2.21976e-14 66.5654 -2.78929)
(4.75968e-14 66.5654 -2.78929)
(0 64.7127 -2.7625)
(-2.02193e-14 64.7127 -2.7625)
(0 62.922 -2.73643)
(-1.80721e-13 62.922 -2.73643)
(0 61.191 -2.71106)
(0 61.191 -2.71106)
(2.29751e-14 59.5175 -2.68636)
(-9.19004e-14 59.5175 -2.68636)
(6.07199e-14 57.8992 -2.66232)
(-3.75551e-14 57.8992 -2.66232)
(2.33528e-14 56.3341 -2.63892)
(1.86823e-13 56.3341 -2.63892)
(2.35391e-14 54.8201 -2.61615)
(0 54.8201 -2.61615)
(2.37237e-14 53.3552 -2.59398)
(-9.48948e-14 53.3552 -2.59398)
(-1.09704e-14 51.9377 -2.5724)
(9.56268e-14 51.9377 -2.5724)
(0 50.5658 -2.5514)
(6.84759e-14 50.5658 -2.5514)
(9.34259e-15 49.2376 -2.53096)
(-1.30682e-13 49.2376 -2.53096)
(0 47.9516 -2.51105)
(-3.29947e-14 47.9516 -2.51105)
(0 46.7062 -2.49168)
(-3.23901e-14 46.7062 -2.49168)
(0 45.4998 -2.47282)
(0 45.4998 -2.47282)
(3.12139e-14 44.3311 -2.45445)
(-1.31106e-13 44.3311 -2.45445)
(-3.06419e-14 43.1985 -2.43657)
(-6.12837e-14 43.1985 -2.43657)
(0 42.1008 -2.41915)
(-3.00804e-14 42.1008 -2.41915)
(-4.04172e-15 41.0367 -2.40219)
(0 41.0367 -2.40219)
(-2.56564e-14 40.005 -2.38567)
(0 40.005 -2.38567)
(-2.58242e-14 39.0044 -2.36958)
(-2.84568e-14 39.0044 -2.36958)
(2.59908e-14 38.0338 -2.35391)
(-2.79354e-14 38.0338 -2.35391)
(0 37.0923 -2.33864)
(0 37.0923 -2.33864)
(1.20074e-15 36.1786 -2.32376)
(-2.10565e-13 36.1786 -2.32376)
(-2.64276e-14 35.2919 -2.30926)
(2.64276e-14 35.2919 -2.30926)
(2.6646e-14 34.4311 -2.29514)
(0 34.4311 -2.29514)
(0 33.5954 -2.28137)
(8.17608e-14 33.5954 -2.28137)
(2.50013e-14 32.7839 -2.26795)
(-1.32871e-13 32.7839 -2.26795)
(0 31.9957 -2.25487)
(-1.57592e-13 31.9957 -2.25487)
(-3.19141e-15 31.2299 -2.24212)
(-1.33232e-13 31.2299 -2.24212)
(0 30.486 -2.22969)
(8.61165e-14 30.486 -2.22969)
(2.75985e-14 29.763 -2.21757)
(0 29.763 -2.21757)
(5.5508e-14 29.0603 -2.20575)
(1.11016e-13 29.0603 -2.20575)
(-2.79087e-14 28.3771 -2.19422)
(1.11635e-13 28.3771 -2.19422)
(-4.39306e-14 27.7129 -2.18297)
(0 27.7129 -2.18297)
(2.82155e-14 27.067 -2.172)
(-4.31256e-14 27.067 -2.172)
(2.83677e-14 26.4387 -2.1613)
(1.13471e-13 26.4387 -2.1613)
(2.85191e-14 25.8276 -2.15085)
(7.25168e-14 25.8276 -2.15085)
(2.86697e-14 25.2329 -2.14066)
(0 25.2329 -2.14066)
(0 24.6543 -2.13071)
(-1.15279e-13 24.6543 -2.13071)
(6.82853e-14 24.0911 -2.12099)
(-3.93164e-14 24.0911 -2.12099)
(4.80746e-14 23.5428 -2.11151)
(-3.8596e-14 23.5428 -2.11151)
(0 23.009 -2.10225)
(0 23.009 -2.10225)
(2.94123e-14 22.4893 -2.09321)
(0 22.4893 -2.09321)
(2.26046e-14 21.9831 -2.08437)
(3.65128e-14 21.9831 -2.08437)
(3.58438e-14 21.49 -2.07574)
(0 21.49 -2.07574)
(2.98498e-14 21.0096 -2.0673)
(2.38798e-13 21.0096 -2.0673)
(3.45421e-14 20.5416 -2.05906)
(-3.45421e-14 20.5416 -2.05906)
(-9.79567e-14 20.0855 -2.051)
(0 20.0855 -2.051)
(-3.02818e-14 19.6409 -2.04311)
(0 19.6409 -2.04311)
(3.26778e-14 19.2076 -2.0354)
(0 19.2076 -2.0354)
(3.05669e-14 18.7851 -2.02786)
(0 18.7851 -2.02786)
(3.14912e-14 18.3731 -2.02048)
(0 18.3731 -2.02048)
(6.16997e-14 17.9714 -2.01325)
(-1.23399e-13 17.9714 -2.01325)
(6.1981e-14 17.5795 -2.00618)
(-1.23962e-13 17.5795 -2.00618)
(-1.33919e-15 17.1972 -1.99925)
(-3.73568e-13 17.1972 -1.99925)
(-3.12704e-14 16.8242 -1.99246)
(-2.92456e-14 16.8242 -1.99246)
(5.74193e-14 16.4603 -1.9858)
(6.82188e-14 16.4603 -1.9858)
(0 16.1051 -1.97928)
(-2.81836e-14 16.1051 -1.97928)
(3.16865e-14 15.7585 -1.97288)
(0 15.7585 -1.97288)
(2.2496e-14 15.42 -1.96659)
(-1.81617e-13 15.42 -1.96659)
(0 15.0896 -1.96043)
(0 15.0896 -1.96043)
(5.82722e-14 14.767 -1.95437)
(1.28394e-13 14.767 -1.95437)
(6.44697e-14 14.4519 -1.94841)
(-1.28939e-13 14.4519 -1.94841)
(0 14.1441 -1.94256)
(-1.29483e-13 14.1441 -1.94256)
(3.25065e-14 13.8435 -1.9368)
(0 13.8435 -1.9368)
(-4.86148e-14 13.5498 -1.93112)
(-1.30567e-13 13.5498 -1.93112)
(0 13.2627 -1.92554)
(-3.09935e-13 13.2627 -1.92554)
(0 12.9822 -1.92003)
(0 12.9822 -1.92003)
(6.60895e-14 12.7081 -1.91459)
(1.32179e-13 12.7081 -1.91459)
(3.31784e-14 12.4401 -1.90923)
(-4.51482e-14 12.4401 -1.90923)
(0 12.178 -1.90393)
(1.33246e-13 12.178 -1.90393)
(3.34444e-14 11.9218 -1.89868)
(-1.33778e-13 11.9218 -1.89868)
(4.27114e-14 11.6713 -1.89349)
(-1.77019e-13 11.6713 -1.89349)
(0 11.4262 -1.88835)
(4.19287e-14 11.4262 -1.88835)
(3.38407e-14 11.1864 -1.88326)
(-1.35363e-13 11.1864 -1.88326)
(6.79442e-14 10.9519 -1.8782)
(-1.35888e-13 10.9519 -1.8782)
(3.41031e-14 10.7224 -1.87317)
(9.67468e-14 10.7224 -1.87317)
(2.95287e-14 10.4978 -1.86817)
(9.79963e-14 10.4978 -1.86817)
(3.43641e-14 10.2779 -1.86319)
(0 10.2779 -1.86319)
(-3.44941e-14 10.0627 -1.85823)
(-3.75249e-14 10.0627 -1.85823)
(3.46237e-14 9.85196 -1.85328)
(-1.38495e-13 9.85196 -1.85328)
(3.4753e-14 9.64561 -1.84833)
(1.39012e-13 9.64561 -1.84833)
(1.05263e-13 9.44353 -1.84337)
(-3.54995e-14 9.44353 -1.84337)
(0 9.24557 -1.83841)
(1.40042e-13 9.24557 -1.83841)
(-3.51388e-14 9.05164 -1.83343)
(-1.74766e-13 9.05164 -1.83343)
(1.04117e-13 8.86162 -1.82843)
(-1.7465e-13 8.86162 -1.82843)
(-2.42617e-15 8.6754 -1.8234)
(-3.16122e-13 8.6754 -1.8234)
(3.55215e-14 8.49287 -1.81833)
(-1.7445e-13 8.49287 -1.81833)
(-3.17709e-14 8.31394 -1.81322)
(1.10823e-13 8.31394 -1.81322)
(4.03611e-14 8.13849 -1.80805)
(1.431e-13 8.13849 -1.80805)
(9.71355e-14 7.96643 -1.80283)
(-1.74222e-13 7.96643 -1.80283)
(3.60269e-14 7.79767 -1.79753)
(-6.01123e-14 7.79767 -1.79753)
(0 7.6321 -1.79216)
(-1.4461e-13 7.6321 -1.79216)
(0 7.46965 -1.7867)
(-1.4511e-13 7.46965 -1.7867)
(0 7.31022 -1.78115)
(-2.02477e-13 7.31022 -1.78115)
(0 7.15371 -1.77549)
(0 7.15371 -1.77549)
(3.66507e-14 7.00006 -1.76972)
(-5.48028e-14 7.00006 -1.76972)
(3.67743e-14 6.84916 -1.76382)
(1.47097e-13 6.84916 -1.76382)
(3.68975e-14 6.70095 -1.75779)
(-5.28127e-14 6.70095 -1.75779)
(0 6.55533 -1.7516)
(1.48081e-13 6.55533 -1.7516)
(5.08949e-14 6.41223 -1.74526)
(-5.08949e-14 6.41223 -1.74526)
(0 6.27157 -1.73874)
(-1.49059e-13 6.27157 -1.73874)
(0 6.13328 -1.73203)
(-4.90467e-14 6.13328 -1.73203)
(-3.75075e-14 5.99727 -1.72512)
(-4.8148e-14 5.99727 -1.72512)
(-3.76282e-14 5.86348 -1.718)
(-1.50513e-13 5.86348 -1.718)
(-3.77484e-14 5.73183 -1.71064)
(-1.50994e-13 5.73183 -1.71064)
(0 5.60225 -1.70304)
(0 5.60225 -1.70304)
(4.47146e-14 5.47466 -1.69516)
(-3.03899e-13 5.47466 -1.69516)
(0 5.349 -1.68701)
(-1.9632e-13 5.349 -1.68701)
(0 5.22519 -1.67855)
(0 5.22519 -1.67855)
(0 5.10316 -1.66976)
(-1.53368e-13 5.10316 -1.66976)
(-3.84592e-14 4.98285 -1.66063)
(0 4.98285 -1.66063)
(7.71516e-14 4.86417 -1.65113)
(1.13538e-13 4.86417 -1.65113)
(7.73835e-14 4.74707 -1.64123)
(0 4.74707 -1.64123)
(7.76141e-14 4.63147 -1.63091)
(-1.55228e-13 4.63147 -1.63091)
(7.74866e-14 4.51729 -1.62014)
(0 4.51729 -1.62014)
(-3.90357e-14 4.40448 -1.60888)
(-3.78582e-14 4.40448 -1.60888)
(0 4.29294 -1.59711)
(1.56596e-13 4.29294 -1.59711)
(-3.92615e-14 4.18263 -1.5848)
(1.20563e-13 4.18263 -1.5848)
(0 4.07344 -1.57189)
(-1.57493e-13 4.07344 -1.57189)
(0 3.96532 -1.55836)
(-1.93095e-13 3.96532 -1.55836)
(-1.08623e-13 3.85818 -1.54416)
(-1.58377e-13 3.85818 -1.54416)
(7.9407e-14 3.75195 -1.52925)
(-1.58814e-13 3.75195 -1.52925)
(3.98118e-14 3.64653 -1.51356)
(0 3.64653 -1.51356)
(-6.5303e-14 3.54185 -1.49706)
(1.59676e-13 3.54185 -1.49706)
(0 3.43782 -1.47967)
(0 3.43782 -1.47967)
(0 3.33434 -1.46134)
(-1.60523e-13 3.33434 -1.46134)
(0 3.23132 -1.44199)
(-6.17784e-14 3.23132 -1.44199)
(-2.03087e-14 3.12865 -1.42155)
(1.6135e-13 3.12865 -1.42155)
(4.04393e-14 3.02623 -1.39994)
(-3.23514e-13 3.02623 -1.39994)
(0 2.92395 -1.37706)
(0 2.92395 -1.37706)
(4.06385e-14 2.82169 -1.35283)
(0 2.82169 -1.35283)
(4.07359e-14 2.71931 -1.32711)
(-2.19265e-13 2.71931 -1.32711)
(-4.08318e-14 2.6167 -1.29981)
(1.08038e-13 2.6167 -1.29981)
(2.75755e-14 2.5137 -1.27079)
(1.63704e-13 2.5137 -1.27079)
(2.87551e-14 2.41015 -1.23991)
(0 2.41015 -1.23991)
(-1.11965e-14 2.3059 -1.20701)
(-5.23055e-14 2.3059 -1.20701)
(4.11977e-14 2.20077 -1.17192)
(0 2.20077 -1.17192)
(4.12842e-14 2.09457 -1.13444)
(-2.15543e-13 2.09457 -1.13444)
(4.13685e-14 1.98711 -1.09439)
(1.65474e-13 1.98711 -1.09439)
(0 1.87816 -1.05153)
(-1.65802e-13 1.87816 -1.05153)
(4.15297e-14 1.76751 -1.00562)
(-2.13804e-13 1.76751 -1.00562)
(8.84181e-14 1.65492 -0.956396)
(0 1.65492 -0.956396)
(4.59539e-14 1.54016 -0.903584)
(1.6672e-13 1.54016 -0.903584)
(0 1.42297 -0.846885)
(-3.34005e-13 1.42297 -0.846885)
(0 1.30311 -0.785989)
(-1.67271e-13 1.30311 -0.785989)
(4.18814e-14 1.18034 -0.720576)
(-1.67526e-13 1.18034 -0.720576)
(4.19412e-14 1.05445 -0.650326)
(1.67765e-13 1.05445 -0.650326)
(4.19968e-14 0.925237 -0.574922)
(-3.35974e-13 0.925237 -0.574922)
(8.40958e-14 0.792547 -0.494063)
(-1.68192e-13 0.792547 -0.494063)
(0 0.65628 -0.407478)
(0 0.65628 -0.407478)
(-8.17691e-14 0.516398 -0.314933)
(1.68541e-13 0.516398 -0.314933)
(0 0.37294 -0.216245)
(-1.68683e-13 0.37294 -0.216245)
(-4.22004e-14 0.226029 -0.11129)
(1.30607e-13 0.226029 -0.11129)
(4.22236e-14 1.53115e-06 -5.66719e-07)
(2.06617e-13 4.71882e-07 -1.74656e-07)
(4.22805e-14 -1.48589e-06 5.49971e-07)
(2.06389e-13 -9.56367e-07 3.53977e-07)
(0 -0.226029 0.11129)
(2.99409e-13 -0.226029 0.11129)
(-4.21708e-14 -0.37294 0.216245)
(0 -0.37294 0.216245)
(0 -0.516397 0.314933)
(1.68541e-13 -0.516397 0.314933)
(0 -0.656279 0.407478)
(3.36753e-13 -0.656279 0.407478)
(-4.20479e-14 -0.792547 0.494063)
(-1.68192e-13 -0.792547 0.494063)
(0 -0.925236 0.574922)
(4.1895e-14 -0.925236 0.574922)
(-4.19412e-14 -1.05445 0.650326)
(-1.67765e-13 -1.05445 0.650326)
(0 -1.18034 0.720576)
(0 -1.18034 0.720576)
(8.6103e-14 -1.30311 0.785988)
(0 -1.30311 0.785988)
(0 -1.42297 0.846885)
(1.67002e-13 -1.42297 0.846885)
(0 -1.54016 0.903583)
(2.12674e-13 -1.54016 0.903583)
(0 -1.65492 0.956395)
(0 -1.65492 0.956395)
(-4.15297e-14 -1.76751 1.00562)
(-2.13804e-13 -1.76751 1.00562)
(8.29008e-14 -1.87816 1.05153)
(0 -1.87816 1.05153)
(-4.94825e-14 -1.98711 1.09439)
(0 -1.98711 1.09439)
(8.25685e-14 -2.09457 1.13444)
(1.65137e-13 -2.09457 1.13444)
(-4.11977e-14 -2.20077 1.17192)
(-1.64791e-13 -2.20077 1.17192)
(-8.22182e-14 -2.3059 1.20701)
(0 -2.3059 1.20701)
(-4.10185e-14 -2.41015 1.23991)