/*--------------------------------*- C++ -*----------------------------------*\
| =========                 |                                                 |
| \\      /  F ield         | OpenFOAM: The Open Source CFD Toolbox           |
|  \\    /   O peration     | Version:  2106                                  |
|   \\  /    A nd           | Website:  www.openfoam.com                      |
|    \\/     M anipulation  |                                                 |
\*---------------------------------------------------------------------------*/
FoamFile
{
    version     2.0;
    format      ascii;
    arch        "LSB;label=32;scalar=64";
    class       volTensorField;
    location    "10040";
    object      grad(U);
}
// * * * * * * * * * * * * * * * * * * * * * * * * * * * * * * * * * * * * * //

dimensions      [0 0 -1 0 0 0 0];

internalField   nonuniform List<tensor> 
2000
(
(0 -4.95232e-26 7.62221e-32 23.8183 -5.87833e-12 -1.28529e-13 0.0440831 -5.43655e-15 -9.35263e-17)
(0 -1.68925e-28 -7.62221e-32 23.8183 0 -3.95607e-18 0.0440831 -4.22315e-29 1.1855e-17)
(0 0 5.04412e-31 23.8138 -8.07794e-28 -2.34527e-14 0.133056 -3.15544e-30 -8.8425e-17)
(0 -1.91553e-29 -1.03908e-32 23.8138 -2.45193e-15 -2.75639e-30 0.133056 -6.55931e-18 -7.48735e-17)
(-5.42519e-18 2.24831e-30 -6.59653e-32 23.8092 7.44518e-13 -1.07862e-14 0.184579 -4.12677e-15 -7.71787e-17)
(0 3.13405e-30 1.46908e-31 23.8092 -1.40843e-15 -5.93019e-18 0.184579 -7.99932e-18 -7.76042e-17)
(-1.776e-17 -4.60542e-30 -1.49036e-32 23.8045 3.63232e-13 -1.03596e-14 0.187987 -7.34095e-15 -8.50194e-17)
(7.10399e-17 1.23065e-29 1.44216e-31 23.8045 -2.11007e-15 5.69251e-19 0.187987 -1.24765e-17 -8.03427e-17)
(0 -4.18447e-27 1.88765e-31 23.7997 -6.63613e-14 -1.10608e-14 0.191457 -2.64481e-16 -9.13687e-17)
(0 -9.06071e-30 -9.43824e-32 23.7997 -2.17648e-15 3.22023e-18 0.191457 -1.72034e-17 -8.30958e-17)
(0 1.18596e-29 3.70612e-31 23.7948 -2.30231e-14 -1.15277e-14 0.19499 -1.07954e-16 -9.58766e-17)
(-1.72469e-16 -1.18596e-29 -3.70612e-31 23.7948 -2.26156e-15 4.37432e-18 0.19499 -2.22489e-17 -8.58604e-17)
(1.02406e-16 -2.74804e-28 -1.8191e-31 23.7898 -1.27638e-27 -1.1845e-14 0.198587 -3.15544e-30 -1.0011e-16)
(1.22186e-16 8.73169e-30 1.8191e-31 23.7898 -2.25593e-15 3.11951e-18 0.198587 -2.7417e-17 -8.86358e-17)
(0 -2.85723e-30 0 23.7846 4.97493e-15 -1.21437e-14 0.20225 -4.2915e-17 -1.04569e-16)
(5.55357e-16 8.57168e-30 1.78577e-31 23.7846 -2.22392e-15 3.30864e-18 0.20225 -3.24443e-17 -9.14177e-17)
(-8.29361e-17 -1.7223e-31 1.31896e-31 23.7794 3.9021e-15 -1.24476e-14 0.205979 -4.09008e-17 -1.09147e-16)
(0 8.41461e-30 8.76522e-32 23.7794 -2.26366e-15 6.87396e-18 0.205979 -3.75968e-17 -9.419e-17)
(1.93758e-16 -5.50694e-30 -2.58138e-31 23.774 2.90072e-15 -1.27482e-14 0.209776 -2.59442e-17 -1.13816e-16)
(0 5.50694e-30 3.44184e-31 23.774 -2.31294e-15 8.73016e-18 0.209776 -4.29555e-17 -9.69526e-17)
(1.90208e-16 -2.70301e-29 -6.75754e-31 23.7684 2.96326e-15 -1.30445e-14 0.213641 -2.47681e-17 -1.18587e-16)
(0 2.43271e-29 5.91284e-31 23.7684 -2.37627e-15 6.85412e-18 0.213641 -4.87423e-17 -9.97068e-17)
(-6.17223e-17 2.08605e-32 1.9606e-31 23.7627 3.39784e-15 -1.33387e-14 0.217576 -2.80462e-17 -1.23494e-16)
(5e-16 0 -1.65843e-31 23.7627 -2.49844e-15 5.57688e-18 0.217576 -5.47122e-17 -1.02458e-16)
(0 2.60486e-30 -8.14018e-32 23.7567 3.80621e-15 -1.36337e-14 0.221581 -3.36605e-17 -1.28559e-16)
(0 -2.60486e-30 8.14018e-32 23.7567 -2.53769e-15 7.86972e-18 0.221581 -6.10108e-17 -1.05195e-16)
(-3.34293e-16 2.30868e-29 7.78219e-31 23.7505 3.95424e-15 -1.39308e-14 0.225657 -3.67219e-17 -1.33794e-16)
(0 -1.53427e-29 -5.59371e-31 23.7505 -2.379e-15 1.02773e-17 0.225657 -6.71619e-17 -1.079e-16)
(-3.46078e-16 1.26697e-29 2.97743e-31 23.744 3.88313e-15 -1.42304e-14 0.229804 -3.77421e-17 -1.39204e-16)
(-1.76644e-16 -2.51027e-30 0 23.744 -2.30787e-15 1.52152e-17 0.229804 -7.32552e-17 -1.1058e-16)
(5.31609e-16 -1.24849e-29 -3.73964e-31 23.7371 3.68413e-15 -1.45339e-14 0.234023 -3.6729e-17 -1.4482e-16)
(-7.39175e-16 7.3928e-30 1.54017e-31 23.7371 -2.30747e-15 1.81161e-17 0.234023 -7.97113e-17 -1.13209e-16)
(3.40459e-16 -7.25733e-30 -1.51194e-31 23.7297 3.76224e-15 -1.48414e-14 0.238315 -3.52398e-17 -1.50626e-16)
(-3.40459e-16 7.25733e-30 1.51194e-31 23.7297 -2.31227e-15 1.54327e-17 0.238315 -8.63309e-17 -1.15814e-16)
(7.66956e-16 -2.89988e-29 -8.89051e-31 23.7217 4.04608e-15 -1.51508e-14 0.242678 -3.96822e-17 -1.5661e-16)
(8.65471e-16 2.1373e-29 5.93695e-31 23.7217 -2.51236e-15 1.87786e-17 0.242678 -9.32022e-17 -1.18365e-16)
(-2.32592e-16 7.28657e-30 3.689e-31 23.7129 4.15605e-15 -1.54613e-14 0.247113 -4.23763e-17 -1.62772e-16)
(-3.28096e-16 0 0 23.7129 -2.58363e-15 2.36657e-17 0.247113 -1.00704e-16 -1.20819e-16)
(2.49113e-16 -2.62267e-30 -3.67764e-31 23.7033 4.13336e-15 -1.57727e-14 0.251617 -4.34699e-17 -1.69125e-16)
(9.96453e-16 2.28854e-30 5.72136e-31 23.7033 -2.46564e-15 1.63139e-17 0.251617 -1.08589e-16 -1.23203e-16)
(-2.65938e-16 7.11477e-30 8.60854e-32 23.6924 4.13498e-15 -1.60854e-14 0.25619 -4.34913e-17 -1.7567e-16)
(2.12751e-15 -4.49321e-30 0 23.6924 -2.59717e-15 1.2462e-17 0.25619 -1.15766e-16 -1.25554e-16)
(0 8.82175e-30 2.7568e-31 23.6802 4.33203e-15 -1.63963e-14 0.260829 -4.51429e-17 -1.82349e-16)
(1.13229e-15 -4.41088e-30 -1.3784e-31 23.6802 -2.84862e-15 1.7711e-17 0.260829 -1.23964e-16 -1.27787e-16)
(3.047e-16 -1.08251e-29 -2.70628e-31 23.6662 4.43622e-15 -1.67035e-14 0.265529 -4.94724e-17 -1.89185e-16)
(1.20207e-15 1.08251e-29 4.05942e-31 23.6662 -2.81925e-15 2.27976e-17 0.265529 -1.33577e-16 -1.29919e-16)
(0 2.12535e-30 5.31338e-31 23.65 4.43751e-15 -1.70069e-14 0.270287 -4.91826e-17 -1.96158e-16)
(1.27313e-15 0 -2.65669e-31 23.65 -2.79148e-15 2.98793e-17 0.270287 -1.42582e-16 -1.31906e-16)
(-3.3637e-16 -1.5574e-30 -4.15923e-31 23.6312 4.34426e-15 -1.73035e-14 0.275097 -5.13661e-17 -2.03222e-16)
(0 8.34562e-30 7.82402e-31 23.6312 -2.81116e-15 3.53438e-17 0.275097 -1.51735e-16 -1.33736e-16)
(0 -1.63854e-29 -1.02409e-30 23.6092 3.99489e-15 -1.75926e-14 0.279951 -4.8864e-17 -2.10409e-16)
(1.41914e-15 1.63854e-29 1.02409e-30 23.6092 -2.54388e-15 3.91634e-17 0.279951 -1.61167e-16 -1.35386e-16)
(1.92413e-16 -1.40714e-30 -3.85853e-31 23.5834 3.95153e-15 -1.7872e-14 0.284841 -4.50119e-17 -2.17635e-16)
(0 8.04256e-30 5.0266e-31 23.5834 -2.56014e-15 3.69385e-17 0.284841 -1.70442e-16 -1.36874e-16)
(-3.92614e-16 -1.33535e-30 3.6947e-31 23.5531 4.51703e-15 -1.81352e-14 0.289754 -4.96573e-17 -2.24816e-16)
(0 7.89518e-30 0 23.5531 -2.85436e-15 3.67617e-17 0.289754 -1.81033e-16 -1.38242e-16)
(0 3.87525e-30 4.84407e-31 23.5174 5.13702e-15 -1.83766e-14 0.294679 -6.06315e-17 -2.31892e-16)
(0 0 -2.42203e-31 23.5174 -3.10492e-15 4.54453e-17 0.294679 -1.9167e-16 -1.39403e-16)
(-1.5026e-15 2.54316e-29 1.562e-30 23.4754 5.46952e-15 -1.85927e-14 0.299599 -6.70784e-17 -2.38809e-16)
(-1.72721e-15 -1.90212e-29 -1.18882e-30 23.4754 -3.40339e-15 4.27927e-17 0.299599 -2.0441e-16 -1.40378e-16)
(4.51911e-16 1.13073e-30 -3.75539e-31 23.426 5.43876e-15 -1.87813e-14 0.304496 -7.14114e-17 -2.45537e-16)
(1.80764e-15 -3.73453e-30 2.33408e-31 23.426 -3.36801e-15 4.16973e-17 0.304496 -2.17157e-16 -1.41213e-16)
(0 3.66609e-30 4.58262e-31 23.3679 4.99668e-15 -1.89392e-14 0.309349 -6.88054e-17 -2.51995e-16)
(0 0 -2.29131e-31 23.3679 -3.21495e-15 4.45958e-17 0.309349 -2.27717e-16 -1.41726e-16)
(-4.93167e-16 1.33987e-29 8.3123e-31 23.3 4.81284e-15 -1.90571e-14 0.314136 -6.23819e-17 -2.57972e-16)
(0 -1.07967e-29 -6.74796e-31 23.3 -3.28504e-15 4.38096e-17 0.314136 -2.40039e-16 -1.42035e-16)
(-1.70926e-17 -9.33293e-31 -2.77604e-31 23.2208 4.95934e-15 -1.91281e-14 0.318828 -6.64331e-17 -2.63445e-16)
(-4.97221e-16 7.06593e-30 6.62431e-31 23.2208 -3.11157e-15 5.42684e-17 0.318828 -2.53317e-16 -1.42078e-16)
(4.88109e-16 -1.73411e-29 -1.51735e-30 23.1289 5.07618e-15 -1.91489e-14 0.323397 -6.8763e-17 -2.68276e-16)
(1.6551e-15 1.73411e-29 1.51735e-30 23.1289 -2.95552e-15 6.84195e-17 0.323397 -2.64048e-16 -1.41768e-16)
(0 1.0214e-29 6.38376e-31 23.0227 5.48183e-15 -1.91117e-14 0.327811 -7.22107e-17 -2.72309e-16)
(0 -6.80934e-30 -2.12792e-31 23.0227 -3.28383e-15 6.6488e-17 0.327811 -2.77822e-16 -1.41128e-16)
(5.7979e-16 7.43575e-30 2.03845e-32 22.9007 5.60003e-15 -1.90096e-14 0.332035 -8.29347e-17 -2.75417e-16)
(2.31916e-15 -1.00268e-29 -2.08893e-31 22.9007 -2.91546e-15 6.91333e-17 0.332035 -2.93492e-16 -1.40228e-16)
(-6.02275e-16 -1.38159e-29 -1.44332e-30 22.7613 5.13769e-15 -1.8843e-14 0.336034 -7.83688e-17 -2.77636e-16)
(2.4091e-15 1.64052e-29 1.64052e-30 22.7613 -2.30218e-15 9.43363e-17 0.336034 -3.03399e-16 -1.38893e-16)
(-6.25073e-16 -1.35163e-29 -1.40432e-30 22.6031 5.13357e-15 -1.86108e-14 0.339771 -7.2364e-17 -2.78787e-16)
(0 1.61046e-29 1.61046e-30 22.6031 -2.47205e-15 8.65762e-17 0.339771 -3.16934e-16 -1.37186e-16)
(-8.89993e-16 1.58094e-29 2.37142e-30 22.4246 5.5098e-15 -1.8309e-14 0.343209 -8.11975e-17 -2.78821e-16)
(3.48268e-15 -1.58094e-29 -2.37142e-30 22.4246 -2.65863e-15 5.91422e-17 0.343209 -3.27916e-16 -1.35365e-16)
(-1.34311e-15 1.75815e-29 1.22538e-30 22.2245 5.62579e-15 -1.79313e-14 0.346311 -8.66561e-17 -2.77466e-16)
(9.3886e-16 -9.31184e-30 0 22.2245 -3.0882e-15 6.77892e-17 0.346311 -3.34166e-16 -1.3317e-16)
(8.57674e-16 -9.14121e-30 -7.61767e-31 22.002 5.56144e-15 -1.74807e-14 0.349043 -8.7889e-17 -2.74954e-16)
(0 9.14121e-30 1.14265e-30 22.002 -3.57951e-15 9.08571e-17 0.349043 -3.48509e-16 -1.30457e-16)
(0 -5.98247e-30 -1.12171e-30 21.7561 6.26667e-15 -1.6962e-14 0.351372 -8.78689e-17 -2.71067e-16)
(0 5.98247e-30 1.12171e-30 21.7561 -4.17732e-15 1.0255e-16 0.351372 -3.63027e-16 -1.27081e-16)
(-7.43222e-16 8.44449e-30 1.72197e-30 21.4866 7.03995e-15 -1.63716e-14 0.353272 -1.14116e-16 -2.65772e-16)
(-2.97289e-15 -2.93642e-30 -1.10116e-30 21.4866 -3.94451e-15 1.11578e-16 0.353272 -3.8263e-16 -1.23207e-16)
(-4.38484e-17 3.14629e-31 8.17429e-31 21.1932 6.13385e-15 -1.57279e-14 0.35472 -1.16776e-16 -2.59576e-16)
(3.07014e-15 0 -7.20653e-31 21.1932 -3.06579e-15 1.19953e-16 0.35472 -3.97251e-16 -1.18797e-16)
(7.92012e-16 1.15793e-29 2.20279e-30 20.8762 5.31346e-15 -1.50483e-14 0.355698 -8.78646e-17 -2.52444e-16)
(-3.16805e-15 -1.41489e-29 -2.47606e-30 20.8762 -3.74713e-15 1.03943e-16 0.355698 -4.08755e-16 -1.14185e-16)
(-8.16625e-16 -5.76661e-30 -7.58773e-31 20.5363 5.698e-15 -1.43322e-14 0.356195 -9.29978e-17 -2.44303e-16)
(3.2665e-15 8.3338e-30 1.31966e-30 20.5363 -4.09634e-15 5.11493e-17 0.356195 -4.30482e-16 -1.09419e-16)
(0 -1.09081e-29 -1.70439e-30 20.1746 6.14997e-15 -1.35858e-14 0.356208 -1.0463e-16 -2.35354e-16)
(5.96312e-15 1.09081e-29 1.70439e-30 20.1746 -3.55987e-15 3.28382e-17 0.356208 -4.48044e-16 -1.0446e-16)
(8.66121e-16 -2.39752e-29 -3.31362e-30 19.7924 6.39618e-15 -1.28221e-14 0.35574 -1.12611e-16 -2.25783e-16)
(3.46448e-15 1.60623e-29 2.34242e-30 19.7924 -4.48072e-15 7.01154e-17 0.35574 -4.64181e-16 -9.91107e-17)
(-8.90935e-16 1.04393e-29 1.29661e-30 19.3914 6.61955e-15 -1.20551e-14 0.3548 -1.17511e-16 -2.15853e-16)
(-3.56374e-15 -2.628e-30 -6.57e-31 19.3914 -5.63802e-15 9.58823e-17 0.3548 -4.89672e-16 -9.32212e-17)
(0 -7.73953e-30 -1.6124e-30 18.9736 7.01523e-15 -1.12973e-14 0.353406 -1.25116e-16 -2.05742e-16)
(0 7.73953e-30 1.6124e-30 18.9736 -5.68097e-15 6.40646e-17 0.353406 -5.212e-16 -8.68544e-17)
(-2.36623e-15 2.02732e-29 2.22821e-30 18.5413 7.40649e-15 -1.05514e-14 0.351577 -1.36847e-16 -1.95361e-16)
(0 -1.01303e-29 -1.26628e-30 18.5413 -5.44489e-15 5.85864e-17 0.351577 -5.50902e-16 -8.05127e-17)
(0 -7.45848e-30 -1.24308e-30 18.0967 7.76043e-15 -9.82588e-15 0.349343 -1.44846e-16 -1.8513e-16)
(0 7.45848e-30 1.24308e-30 18.0967 -5.61018e-15 5.85604e-17 0.349343 -5.85556e-16 -7.35916e-17)
(0 7.3218e-30 1.83045e-30 17.6424 7.37747e-15 -9.1296e-15 0.346732 -1.55841e-16 -1.74994e-16)
(-3.95933e-15 -1.2203e-29 -2.4406e-30 17.6424 -4.96823e-15 1.04153e-16 0.346732 -6.27202e-16 -6.66294e-17)
(1.0143e-15 7.05124e-30 8.44984e-31 17.1807 6.09011e-15 -8.47304e-15 0.343778 -1.35053e-16 -1.65471e-16)
(0 -2.39588e-30 -5.98969e-31 17.1807 -3.09812e-15 1.56125e-16 0.343778 -6.4785e-16 -5.86899e-17)
(-1.03861e-15 -2.17123e-30 3.60312e-31 16.7142 4.89856e-15 -7.86147e-15 0.340517 -1.09488e-16 -1.56315e-16)
(0 7.05592e-30 5.87994e-31 16.7142 -2.45581e-15 9.93606e-17 0.340517 -6.61534e-16 -5.10873e-17)
(-8.25674e-16 -8.78787e-30 -1.5743e-30 16.2451 4.45937e-15 -7.29663e-15 0.336986 -9.09008e-17 -1.47929e-16)
(4.25091e-15 6.92663e-30 1.15444e-30 16.2451 -2.36864e-15 5.32204e-17 0.336986 -6.7644e-16 -4.3675e-17)
(-1.08663e-15 2.52961e-30 9.4053e-31 15.7757 4.88116e-15 -6.78661e-15 0.33322 -9.51255e-17 -1.40334e-16)
(0 0 -5.66641e-31 15.7757 -2.49417e-15 1.03792e-16 0.33322 -6.85185e-16 -3.6286e-17)
(-2.22061e-15 2.06247e-29 4.09789e-30 15.308 5.7765e-15 -6.32807e-15 0.329256 -1.12414e-16 -1.33473e-16)
(-4.44122e-15 -1.55752e-29 -3.33755e-30 15.308 -3.30727e-15 1.85148e-16 0.329256 -7.06116e-16 -2.82782e-17)
(-9.59035e-17 1.05883e-29 7.05992e-31 14.844 6.75979e-15 -5.91725e-15 0.325127 -1.37821e-16 -1.27341e-16)
(-3.30527e-15 -1.52898e-29 -2.18426e-30 14.844 -3.93548e-15 1.94074e-16 0.325127 -7.3303e-16 -2.02532e-17)
(-1.2071e-15 6.4327e-30 1.60817e-30 14.3852 7.30031e-15 -5.55144e-15 0.320867 -1.60404e-16 -1.21921e-16)
(-1.2071e-15 0 -5.36058e-31 14.3852 -3.72999e-15 3.05852e-17 0.320867 -7.63771e-16 -1.2597e-17)
(-3.54447e-15 -7.62524e-30 -2.58224e-31 13.9332 7.03839e-15 -5.23065e-15 0.316505 -1.67516e-16 -1.17327e-16)
(9.43797e-15 8.41976e-30 -8.66982e-34 13.9332 -2.81816e-15 -7.58053e-32 0.316505 -7.89151e-16 -6.24726e-18)
(-1.20232e-15 1.07658e-29 1.43529e-30 13.4891 6.38327e-15 -4.96381e-15 0.312071 -1.54354e-16 -1.13964e-16)
(4.80929e-15 -8.26547e-30 -1.03318e-30 13.4891 -3.1306e-15 3.44292e-17 0.312071 -8.08086e-16 -5.41688e-19)
(1.14195e-15 -8.11401e-30 -1.01425e-30 13.0541 6.49312e-15 -4.74773e-15 0.307589 -1.43014e-16 -1.11395e-16)
(-1.14195e-15 8.11401e-30 1.01425e-30 13.0541 -3.73835e-15 9.27326e-17 0.307589 -8.27523e-16 1.52777e-18)
(-2.36759e-15 2.49098e-30 4.11645e-31 12.6291 7.14803e-15 -4.5555e-15 0.303083 -1.65434e-16 -1.08876e-16)
(4.98627e-15 3.98266e-30 5.03321e-31 12.6291 -3.59533e-15 6.75861e-17 0.303083 -8.53076e-16 1.74254e-18)
(0 7.81936e-30 1.46613e-30 12.2146 7.04275e-15 -4.38854e-15 0.298573 -1.80368e-16 -1.07291e-16)
(-1.10048e-15 -3.90968e-30 -9.7742e-31 12.2146 -3.57328e-15 1.09901e-16 0.298573 -8.79075e-16 3.68927e-18)
(-1.28957e-15 6.31833e-30 1.85974e-30 11.8113 6.45316e-15 -4.26291e-15 0.294078 -1.66433e-16 -1.06616e-16)
(0 0 -9.59509e-31 11.8113 -3.25413e-15 1.45465e-16 0.294078 -9.0416e-16 3.60944e-18)
(0 7.53541e-30 1.41289e-30 11.4195 4.65672e-15 -4.17922e-15 0.289611 -1.57303e-16 -1.07016e-16)
(0 -3.76771e-30 -4.70963e-31 11.4195 -2.64186e-15 1.41767e-17 0.289611 -9.31914e-16 1.81167e-19)
(0 -1.47947e-29 -2.31166e-30 11.0396 5.18756e-15 -4.12629e-15 0.285189 -8.0019e-17 -1.07852e-16)
(5.32521e-15 1.47947e-29 2.32794e-30 11.0396 -2.74605e-15 3.88696e-17 0.285189 -9.61006e-16 1.85832e-18)
(0 1.45235e-29 3.63089e-30 10.6715 6.15513e-15 -4.08194e-15 0.28082 -1.9113e-16 -1.08673e-16)
(0 -1.45235e-29 -3.63089e-30 10.6715 -3.55564e-15 4.98177e-17 0.28082 -9.82194e-16 4.02894e-18)
(-1.37178e-15 2.47043e-30 1.32828e-30 10.3155 5.46266e-15 -4.04753e-15 0.276516 -1.34836e-16 -1.1004e-16)
(5.48712e-15 0 4.59238e-31 10.3155 -3.17987e-15 3.34202e-17 0.276516 -1.00454e-15 1.25328e-17)
(0 -1.39961e-29 -2.1869e-30 9.97134 6.07233e-15 -4.03005e-15 0.272284 -1.60567e-16 -1.11798e-16)
(5.56622e-15 1.39961e-29 2.19777e-30 9.97134 -3.22517e-15 3.38054e-17 0.272284 -1.02676e-15 1.99974e-17)
(-1.41102e-15 1.96321e-29 3.88034e-30 9.63905 5.71238e-15 -4.02046e-15 0.268131 -1.73787e-16 -1.13643e-16)
(-5.6441e-15 -1.71746e-29 -3.44384e-30 9.63905 -5.16171e-15 7.85156e-17 0.268131 -1.05784e-15 2.52334e-17)
(1.89825e-15 -3.37197e-30 -1.68599e-30 9.31844 5.17689e-15 -4.02893e-15 0.264061 -1.46247e-16 -1.16499e-16)
(-5.72078e-15 6.74395e-30 2.09774e-30 9.31844 -5.42243e-15 1.10932e-16 0.264061 -1.11774e-15 2.56597e-17)
(-2.89814e-15 4.91323e-30 1.32051e-30 9.00928 5.32956e-15 -4.06112e-15 0.260079 -1.49465e-16 -1.19816e-16)
(5.79628e-15 0 -4.02428e-31 9.00928 -4.32025e-15 6.64454e-18 0.260079 -1.15927e-15 2.36324e-17)
(-2.93531e-15 4.90331e-30 5.09092e-31 8.71133 5.63234e-15 -4.08761e-15 0.256188 -1.60724e-16 -1.22473e-16)
(0 0 4.06191e-31 8.71133 -3.39382e-15 -6.16831e-18 0.256188 -1.19457e-15 2.728e-17)
(1.7958e-15 -6.37996e-30 -2.39248e-30 8.4243 5.9988e-15 -4.11368e-15 0.252389 -1.73209e-16 -1.25919e-16)
(4.14804e-15 6.37996e-30 2.40371e-30 8.4243 -2.98534e-15 5.84419e-17 0.252389 -1.20666e-15 2.36974e-17)
(-3.26688e-15 2.1226e-29 3.59735e-30 8.1479 6.53543e-15 -4.15023e-15 0.248684 -1.89111e-16 -1.29357e-16)
(-6.01595e-15 -1.56576e-29 -2.36312e-30 8.1479 -3.57605e-15 6.93036e-17 0.248684 -1.24205e-15 1.6873e-17)
(3.25233e-15 -8.57584e-30 -2.77568e-30 7.88181 6.33984e-15 -4.19547e-15 0.245073 -2.13048e-16 -1.33525e-16)
(-1.73059e-15 6.14828e-30 2.3056e-30 7.88181 -4.14678e-15 8.86796e-17 0.245073 -1.29997e-15 1.23217e-17)
(1.53924e-15 -1.14792e-29 -1.98335e-30 7.6257 4.8794e-15 -4.25456e-15 0.241557 -1.8387e-16 -1.38037e-16)
(-6.15695e-15 9.05342e-30 1.48908e-30 7.6257 -4.91004e-15 6.37343e-17 0.241557 -1.32459e-15 7.72571e-18)
(-3.11295e-15 1.07867e-29 3.17962e-30 7.37923 4.30991e-15 -4.31786e-15 0.238136 -1.27002e-16 -1.42711e-16)
(0 -2.96251e-30 -1.48125e-30 7.37923 -3.93584e-15 -1.01609e-17 0.238136 -1.36226e-15 5.36243e-18)
(-1.63718e-15 8.72466e-30 2.18116e-30 7.14206 5.60256e-15 -4.37243e-15 0.234807 -1.5343e-16 -1.46887e-16)
(1.63718e-15 -1.16329e-29 -2.90822e-30 7.14206 -2.99654e-15 3.30873e-17 0.234807 -1.37329e-15 8.81848e-18)
(1.5902e-15 4.4817e-31 9.39099e-31 6.91385 6.50838e-15 -4.42096e-15 0.231571 -2.18191e-16 -1.51393e-16)
(-1.27216e-14 -2.85493e-30 -1.4692e-30 6.91385 -5.3649e-15 1.55955e-16 0.231571 -1.39833e-15 7.59409e-18)
(1.60671e-15 -1.08068e-29 -3.29583e-30 6.69428 5.90343e-15 -4.48597e-15 0.228425 -2.20888e-16 -1.56931e-16)
(0 8.40784e-30 2.80261e-30 6.69428 -5.86503e-15 3.97133e-17 0.228425 -1.46912e-15 4.93762e-18)
(0 -1.65075e-29 -4.12688e-30 6.483 4.84889e-15 -4.56982e-15 0.225369 -1.84454e-16 -1.63022e-16)
(6.49193e-15 1.65075e-29 4.14698e-30 6.483 -4.43193e-15 -1.7797e-16 0.225369 -1.51151e-15 1.121e-17)
(1.63903e-15 -5.0983e-30 -5.03122e-31 6.2797 4.35346e-15 -4.66406e-15 0.2224 -1.54703e-16 -1.69627e-16)
(6.55613e-15 2.70084e-30 1.37452e-32 6.2797 -4.90707e-15 -1.10163e-16 0.2224 -1.53719e-15 2.05582e-17)
(-1.81715e-15 -1.37755e-29 -2.96055e-30 6.08405 3.73931e-15 -4.75756e-15 0.219517 -1.55746e-16 -1.76019e-16)
(0 1.06054e-29 3.31418e-30 6.08405 -5.75422e-15 4.63837e-17 0.219517 -1.59382e-15 1.6423e-17)
(-1.87574e-15 -5.621e-30 -2.87712e-30 5.89575 3.70722e-15 -4.85548e-15 0.216717 -1.15505e-16 -1.83333e-16)
(6.68194e-15 1.30138e-29 3.92361e-30 5.89575 -4.82138e-15 -4.40699e-17 0.216717 -1.6339e-15 9.06878e-18)
(1.6859e-15 -1.26043e-29 -4.35167e-30 5.71449 5.21684e-15 -4.96242e-15 0.213999 -1.59218e-16 -1.90788e-16)
(1.34872e-14 1.02203e-29 3.86831e-30 5.71449 -4.30289e-15 -6.85795e-17 0.213999 -1.63726e-15 9.19227e-18)
(-1.70111e-15 -1.41146e-31 -1.02068e-31 5.54 6.00984e-15 -5.0606e-15 0.21136 -2.3471e-16 -1.9785e-16)
(0 7.52474e-30 1.88118e-30 5.54 -5.55096e-15 3.09543e-17 0.21136 -1.68437e-15 3.22197e-18)
(-3.43227e-15 4.72375e-30 1.67833e-30 5.37198 5.97159e-15 -5.12808e-15 0.208798 -2.26675e-16 -2.03304e-16)
(6.86455e-15 0 -2.73691e-48 5.37198 -4.8411e-15 -3.08149e-33 0.208798 -1.75688e-15 0)
(-1.73097e-15 2.35167e-30 5.38195e-31 5.21016 7.16655e-15 -5.13328e-15 0.206311 -2.40535e-16 -2.05723e-16)
(6.92388e-15 0 6.23547e-31 5.21016 -4.46482e-15 -8.88947e-18 0.206311 -1.78272e-15 1.77072e-19)
(0 9.49148e-30 -2.34122e-29 5.05429 7.55649e-15 -5.75512e-29 0.203897 -3.31316e-16 0)
(0 -2.37287e-30 -5.93217e-31 5.05429 -5.42089e-15 7.02387e-17 0.203897 -1.83955e-15 6.43108e-18)
(4.38275e-15 -1.16517e-29 -3.47607e-30 4.90412 5.92644e-15 1.52684e-15 0.201553 -2.81543e-16 -5.51357e-17)
(4.41772e-15 9.31755e-30 -3.50325e-46 4.90412 -4.86433e-15 1.92523e-31 0.201553 -1.90571e-15 4.06203e-46)
(4.34899e-15 -1.37732e-29 -3.41837e-30 4.75941 5.91805e-15 1.6652e-15 0.199278 -2.07771e-16 -7.1252e-17)
(4.52298e-15 1.14335e-29 2.86899e-30 4.75941 -4.39242e-15 -6.27736e-17 0.199278 -1.93657e-15 3.03265e-18)
(-1.78853e-15 2.31864e-30 -3.30658e-33 4.61993 6.93478e-15 1.50874e-15 0.197069 -2.91439e-16 -6.8975e-17)
(7.15412e-15 2.2448e-30 1.12974e-30 4.61993 -4.91072e-15 -5.99354e-17 0.197069 -1.96158e-15 2.24707e-18)
(1.8025e-15 -1.11247e-29 -2.20978e-30 4.48546 7.03906e-15 1.3906e-15 0.194925 -3.03645e-16 -6.03885e-17)
(0 8.81465e-30 1.65275e-30 4.48546 -5.52096e-15 -3.63312e-17 0.194925 -2.00709e-15 2.90115e-18)
(-1.81632e-15 1.09541e-29 2.71843e-30 4.35578 7.49033e-15 1.20145e-15 0.192843 -3.11619e-16 -6.11523e-17)
(7.26526e-15 -4.32656e-30 -1.08164e-30 4.35578 -5.60051e-15 8.02151e-17 0.192843 -2.05294e-15 3.24137e-18)
(1.82998e-15 -8.65428e-30 -2.67961e-30 4.2307 7.43357e-15 1.13168e-15 0.190821 -3.55638e-16 -4.56671e-17)
(0 6.37092e-30 2.12364e-30 4.2307 -6.02956e-15 1.43495e-16 0.190821 -2.10679e-15 1.17813e-18)
(-1.84349e-15 1.06163e-29 3.15847e-30 4.11003 6.86765e-15 1.16268e-15 0.188858 -3.18166e-16 -5.70705e-17)
(5.02677e-15 -4.16945e-30 -1.56732e-34 4.11003 -5.36802e-15 -9.24446e-33 0.188858 -2.21382e-15 -5.64685e-19)
(1.85686e-15 1.82663e-30 1.49475e-30 3.99358 7.0775e-15 1.00364e-15 0.186951 -3.1627e-16 -5.02785e-17)
(5.12326e-15 0 -1.02326e-30 3.99358 -4.00826e-15 -1.45372e-16 0.186951 -2.26015e-15 -3.60945e-18)
(0 4.01804e-30 1.50677e-30 3.88118 7.66676e-15 8.05836e-16 0.185098 -3.50087e-16 -4.41142e-17)
(7.48036e-15 0 -5.02255e-31 3.88118 -4.86567e-15 1.11609e-16 0.185098 -2.2987e-15 -1.00576e-17)
(0 3.94441e-30 1.47916e-30 3.77266 7.672e-15 8.68927e-16 0.183299 -3.85205e-16 -3.30341e-17)
(-9.75324e-15 0 -3.1932e-30 3.77266 -5.21329e-15 1.32028e-16 0.183299 -2.39628e-15 -7.25394e-18)
(0 1.54885e-29 3.87213e-30 3.66785 6.35085e-15 9.67612e-16 0.18155 -3.63795e-16 -5.19951e-17)
(7.58458e-15 -1.54885e-29 -4.32233e-30 3.66785 -4.25783e-15 1.66592e-17 0.18155 -2.45416e-15 -1.01921e-17)
(-4.04885e-15 -9.17672e-30 -3.73053e-30 3.56661 4.28047e-15 8.65102e-16 0.179851 -2.6707e-16 -4.41872e-17)
(2.13987e-15 1.14035e-29 -6.41722e-33 3.56661 -3.4061e-15 -8.44371e-32 0.179851 -2.48541e-15 -1.54136e-17)
(-1.92169e-15 2.23992e-30 5.44148e-31 3.46879 2.6037e-15 8.14804e-16 0.1782 -1.65747e-16 -4.34698e-17)
(7.68675e-15 3.73152e-30 9.32881e-31 3.46879 -4.99277e-16 3.24481e-17 0.1782 -2.51276e-15 -2.48489e-17)
(2.06217e-15 -3.66314e-30 -1.37368e-30 3.37426 2.40628e-15 1.2074e-15 0.176595 -1.02434e-16 -4.06118e-17)
(-2.06217e-15 7.32629e-30 1.83157e-30 3.37426 -8.87008e-16 3.16893e-16 0.176595 -2.46334e-15 -2.65813e-17)
(0 7.19204e-30 1.34851e-30 3.28287 3.24568e-15 1.56464e-15 0.175034 -1.51039e-16 -8.67753e-17)
(-2.02438e-15 -3.59602e-30 -1.06995e-30 3.28287 -3.25603e-15 2.09497e-16 0.175034 -2.4987e-15 -2.67578e-17)
(3.94638e-15 -1.63449e-29 -4.94594e-30 3.1945 4.36467e-15 1.73604e-15 0.173517 -1.97046e-16 -8.07644e-17)
(7.8364e-15 7.06024e-30 5.03732e-30 3.1945 -2.09528e-15 2.81711e-17 0.173517 -2.54416e-15 -3.20134e-17)
(-1.93039e-15 8.1905e-30 2.07311e-30 3.10904 5.12481e-15 1.82894e-15 0.172042 -2.79968e-16 -1.08922e-16)
(7.88538e-15 -3.46543e-30 1.07377e-32 3.10904 -2.00959e-15 -6.16298e-33 0.172042 -2.58866e-15 -3.86866e-17)
(0 0 0 3.02636 4.52283e-15 1.57087e-15 0.170607 -2.8975e-16 -9.42309e-17)
(7.93393e-15 0 8.50483e-31 3.02636 -2.71599e-15 -1.58727e-16 0.170607 -2.64466e-15 -4.79235e-17)
(-3.99103e-15 4.38346e-30 1.88112e-30 2.94636 3.73787e-15 1.33413e-15 0.169211 -2.21722e-16 -8.35327e-17)
(7.98206e-15 0 -8.34898e-31 2.94636 -1.5954e-15 -2.00182e-16 0.169211 -2.66962e-15 -5.78196e-17)
(2.00744e-15 -1.20165e-29 -5.43977e-30 2.86893 3.85504e-15 1.265e-15 0.167853 -2.09286e-16 -7.02223e-17)
(8.02978e-15 9.83518e-30 4.91759e-30 2.86893 -1.68556e-15 -5.68385e-17 0.167853 -2.71241e-15 -6.88821e-17)
(0 9.65496e-30 3.21832e-30 2.79397 4.45526e-15 1.40042e-15 0.166532 -2.43972e-16 -7.84815e-17)
(-8.0771e-15 -9.65496e-30 -3.21832e-30 2.79397 -2.50254e-15 2.37184e-16 0.166532 -2.78888e-15 -8.0982e-17)
(0 0 7.89836e-31 2.72138 3.5762e-15 1.73663e-15 0.165246 -2.89681e-16 -8.92275e-17)
(-1.77855e-15 0 -7.89836e-31 2.72138 -1.43493e-15 2.86744e-16 0.165246 -2.81646e-15 -9.01894e-17)
(-4.0853e-15 1.67403e-29 4.87759e-30 2.65107 2.6083e-15 2.01798e-15 0.163994 -1.4499e-16 -1.22813e-16)
(0 -1.24058e-29 -8.02271e-32 2.65107 -1.01847e-15 9.25217e-31 0.163994 -2.83321e-15 -1.03552e-16)
(-2.0542e-15 5.19578e-30 2.01547e-30 2.58297 5.20884e-15 1.95312e-15 0.162775 -1.79266e-16 -1.27858e-16)
(0 0 -7.61154e-31 2.58297 -2.86748e-15 2.98636e-18 0.162775 -2.85655e-15 -1.25808e-16)
(-5.04768e-15 1.49441e-29 4.48324e-30 2.51697 7.48363e-15 1.59491e-15 0.161589 -4.82528e-16 -1.19158e-16)
(-6.58007e-15 -1.19553e-29 -3.73603e-30 2.51697 -4.7669e-15 1.90339e-16 0.161589 -2.96796e-15 -1.40783e-16)
(4.15406e-15 -1.22193e-30 4.90977e-31 2.453 6.73133e-15 1.72326e-15 0.160433 -4.81923e-16 -8.60806e-17)
(0 -2.93406e-30 -1.73852e-30 2.453 -4.50094e-15 1.13254e-16 0.160433 -3.10842e-15 -1.49281e-16)
(9.33718e-16 1.0245e-29 1.21438e-30 2.391 5.54781e-15 1.71611e-15 0.159308 -4.01025e-16 -1.40655e-16)
(8.35327e-15 -1.15212e-29 -2.21758e-32 2.391 -4.38417e-15 -6.63293e-31 0.159308 -3.18398e-15 -1.59794e-16)
(-2.09952e-15 2.08418e-30 4.75831e-31 2.33087 4.36557e-15 9.17472e-16 0.158212 -3.4033e-16 -8.83603e-17)
(8.3981e-15 2.82751e-30 1.41376e-30 2.33087 -5.00975e-15 -2.24111e-16 0.158212 -3.22687e-15 -1.73533e-16)
(4.2213e-15 1.37514e-30 4.25458e-31 2.27256 3.92191e-15 8.45171e-16 0.157143 -2.5358e-16 -3.61422e-17)
(-3.12516e-15 -2.7757e-30 -1.38785e-30 2.27256 -3.96463e-15 3.53416e-16 0.157143 -3.27029e-15 -1.62205e-16)
(2.1217e-15 -4.79372e-30 -4.7201e-31 2.21599 4.28507e-15 1.25706e-15 0.156102 -2.91013e-16 -8.15631e-17)
(8.4868e-15 2.72483e-30 6.81208e-31 2.21599 -3.06616e-15 3.07954e-16 0.156102 -3.33159e-15 -1.40534e-16)
(-2.13267e-15 7.40587e-30 2.47298e-30 2.1611 4.26918e-15 1.41095e-15 0.155087 -3.14952e-16 -9.62722e-17)
(0 -2.6749e-30 -1.84072e-32 2.1611 -3.50163e-15 -4.68386e-31 0.155087 -3.41268e-15 -1.2106e-16)
(0 -2.62588e-30 -1.31294e-30 2.10784 3.94332e-15 1.28471e-15 0.154098 -2.9967e-16 -1.07004e-16)
(1.71486e-14 7.87765e-30 1.96941e-30 2.10784 -3.04611e-15 1.25054e-16 0.154098 -3.45593e-15 -1.0429e-16)
(-2.1544e-15 -5.68711e-30 -2.11418e-30 2.05614 4.45685e-15 1.36742e-15 0.153134 -2.78573e-16 -8.12092e-17)
(0 1.03111e-29 2.57777e-30 2.05614 -1.34473e-15 2.52347e-16 0.153134 -3.51543e-15 -7.44445e-17)
(0 -7.59159e-30 -2.53053e-30 2.00594 5.90403e-15 1.66241e-15 0.152193 -3.88413e-16 -1.23511e-16)
(1.44721e-14 1.01221e-29 0 2.00594 -2.23116e-15 1.92492e-45 0.152193 -3.55739e-15 -6.07788e-17)
(-2.17584e-15 9.43633e-30 3.55307e-30 1.9572 5.31026e-15 1.31487e-15 0.151276 -5.11409e-16 -1.29589e-16)
(0 -7.45248e-30 -3.1052e-30 1.9572 -5.78019e-15 7.76148e-18 0.151276 -3.60294e-15 -5.82114e-17)
(0 -2.43864e-30 -1.21932e-30 1.90986 4.32077e-15 1.41094e-15 0.15038 -3.10123e-16 -7.37741e-17)
(8.74585e-15 2.43864e-30 -3.50325e-46 1.90986 -4.60435e-15 -3.08149e-33 0.15038 -3.69524e-15 -5.1781e-17)
(4.89237e-15 -9.16039e-30 -2.83151e-30 1.86387 4.73492e-15 1.81573e-15 0.149507 -3.72929e-16 -1.49788e-16)
(1.48808e-14 7.18185e-30 3.69404e-30 1.86387 -3.07584e-15 -1.59129e-16 0.149507 -3.74488e-15 -5.09806e-17)
(-2.20751e-15 1.96084e-30 4.33161e-31 1.81918 5.31009e-15 1.61887e-15 0.148655 -3.89068e-16 -1.42293e-16)
(8.83004e-15 4.70016e-30 1.17504e-30 1.81918 -3.30432e-15 -8.68158e-17 0.148655 -3.84778e-15 -5.78319e-17)
(-3.79529e-16 2.6828e-30 1.29967e-30 1.77576 6.19174e-15 1.6645e-15 0.147823 -4.82134e-16 -1.22865e-16)
(8.87177e-15 0 0 1.77576 -2.30907e-15 1.82596e-16 0.147823 -3.85772e-15 -5.23102e-17)
(-4.45662e-15 8.33212e-30 1.97057e-30 1.73355 5.91516e-15 2.10459e-15 0.14701 -5.52305e-16 -1.55345e-16)
(8.91325e-15 -2.26474e-30 -8.13246e-33 1.73355 -2.16551e-15 -3.82525e-31 0.14701 -3.89382e-15 -5.86005e-17)
(0 -2.22324e-30 -2.22324e-30 1.69251 5.97803e-15 1.78671e-15 0.146217 -4.52822e-16 -2.03044e-16)
(1.7909e-14 4.44648e-30 3.33486e-30 1.69251 -2.80455e-15 -2.45266e-16 0.146217 -3.98376e-15 -7.83705e-17)
(0 4.365e-30 1.63688e-30 1.65261 6.06387e-15 1.17177e-15 0.145442 -5.84111e-16 -1.0561e-16)
(6.53823e-15 -2.1825e-30 -5.45625e-31 1.65261 -4.25653e-15 2.88386e-17 0.145442 -4.08065e-15 -9.51676e-17)
(-2.25907e-15 4.02156e-30 9.42564e-31 1.6138 4.99809e-15 1.43075e-15 0.144685 -4.85176e-16 -1.01152e-16)
(0 -2.14251e-30 0 1.6138 -5.00885e-15 2.67969e-16 0.144685 -4.16884e-15 -9.27543e-17)
(2.26922e-15 4.43135e-30 6.59338e-31 1.57606 4.81321e-15 1.62818e-15 0.143945 -4.12725e-16 -1.56585e-16)
(0 -8.41298e-30 7.77877e-61 1.57606 -4.19177e-15 -1.45975e-45 0.143945 -4.28342e-15 -9.38852e-17)
(-2.32465e-15 2.0647e-30 1.03235e-30 1.53933 5.43684e-15 1.50837e-15 0.143222 -4.69284e-16 -1.41458e-16)
(0 0 -5.16176e-31 1.53933 -3.6356e-15 1.71182e-18 0.143222 -4.38113e-15 -1.03318e-16)
(-2.28934e-15 9.93579e-30 3.92874e-30 1.5036 6.36785e-15 1.5278e-15 0.142515 -5.45706e-16 -1.39926e-16)
(-2.28205e-15 -8.10748e-30 -3.54702e-30 1.5036 -6.21362e-15 4.81687e-16 0.142515 -4.50696e-15 -9.53592e-17)
(-2.29932e-15 3.78682e-30 1.36985e-30 1.46882 6.53008e-15 1.75977e-15 0.141824 -6.65548e-16 -1.50515e-16)
(-9.1973e-15 0 -3.45165e-30 1.46882 -5.55983e-15 1.08884e-16 0.141824 -4.80682e-15 -6.92458e-17)
(-2.30926e-15 -2.11519e-30 -1.10144e-30 1.43497 5.58393e-15 1.40691e-15 0.141148 -5.97967e-16 -1.90524e-16)
(1.84741e-14 3.90653e-30 -2.61715e-32 1.43497 -2.24489e-15 -5.3086e-31 0.141148 -4.90905e-15 -6.28619e-17)
(0 -7.6699e-30 -3.35558e-30 1.40202 5.08204e-15 6.22594e-16 0.140486 -5.02305e-16 -8.59521e-17)
(9.27658e-15 7.6699e-30 3.35558e-30 1.40202 -3.46404e-15 -6.29929e-16 0.140486 -4.97253e-15 -8.57531e-17)
(-2.32898e-15 1.75823e-30 1.32123e-30 1.36993 4.90315e-15 4.57613e-16 0.139839 -5.18738e-16 -3.86786e-17)
(7.19661e-15 0 -4.70584e-31 1.36993 -3.76316e-15 4.18986e-16 0.139839 -5.16038e-15 -8.07387e-17)