/*--------------------------------*- C++ -*----------------------------------*\
| =========                 |                                                 |
| \\      /  F ield         | OpenFOAM: The Open Source CFD Toolbox           |
|  \\    /   O peration     | Version:  2106                                  |
|   \\  /    A nd           | Website:  www.openfoam.com                      |
|    \\/     M anipulation  |                                                 |
\*---------------------------------------------------------------------------*/
FoamFile
{
    version     2.0;
    format      ascii;
    arch        "LSB;label=32;scalar=64";
    class       surfaceScalarField;
    location    "10040";
    object      phi;
}
// * * * * * * * * * * * * * * * * * * * * * * * * * * * * * * * * * * * * * //

dimensions      [0 3 -1 0 0 0 0];

oriented        oriented;

internalField   nonuniform List<scalar> 
3996
(
2.03954e-08
-4.76257e-18
-1.70138e-22
-3.79085e-22
5.48912e-24
6.27084e-08
-4.76106e-18
-5.08526e-22
-1.3497e-21
-3.5285e-23
1.07383e-07
-4.75949e-18
-5.21422e-22
-2.3403e-21
-3.72446e-23
1.54522e-07
-4.75785e-18
-5.41925e-22
-3.38625e-21
-3.92783e-23
2.04233e-07
-4.75615e-18
-5.61018e-22
-4.47378e-21
-4.1385e-23
2.56625e-07
-4.75434e-18
-5.79436e-22
-5.62782e-21
-4.35651e-23
3.11816e-07
-4.75252e-18
-5.98162e-22
-6.80489e-21
-4.58176e-23
3.69926e-07
-4.75066e-18
-6.17422e-22
-8.0024e-21
-4.814e-23
4.31078e-07
-4.74881e-18
-6.37207e-22
-9.21411e-21
-5.05311e-23
4.95404e-07
-4.74698e-18
-6.57554e-22
-1.04461e-20
-5.29947e-23
5.63037e-07
-4.74516e-18
-6.78534e-22
-1.17631e-20
-5.55274e-23
6.34119e-07
-4.74308e-18
-7.00202e-22
-1.32026e-20
-5.81309e-23
7.08795e-07
-4.74077e-18
-7.22613e-22
-1.47417e-20
-6.08045e-23
7.87215e-07
-4.73847e-18
-7.45816e-22
-1.6035e-20
-6.35445e-23
8.69538e-07
-4.73593e-18
-7.69851e-22
-1.75296e-20
-6.63524e-23
9.55927e-07
-4.7339e-18
-7.94768e-22
-1.87823e-20
-6.92255e-23
1.04655e-06
-4.73148e-18
-8.20595e-22
-2.02106e-20
-7.21634e-23
1.14158e-06
-4.72892e-18
-8.47395e-22
-2.19745e-20
-7.51494e-23
1.24121e-06
-4.72613e-18
-8.7521e-22
-2.36286e-20
-7.81745e-23
1.34561e-06
-4.72347e-18
-9.04088e-22
-2.50315e-20
-8.12423e-23
1.45499e-06
-4.72078e-18
-9.34064e-22
-2.69658e-20
-8.43484e-23
1.56954e-06
-4.71771e-18
-9.65192e-22
-2.88207e-20
-8.74771e-23
1.68947e-06
-4.71466e-18
-9.97513e-22
-3.09021e-20
-9.06274e-23
1.815e-06
-4.71162e-18
-1.03107e-21
-3.27462e-20
-9.37788e-23
1.94634e-06
-4.70814e-18
-1.0659e-21
-3.48907e-20
-9.69178e-23
2.08371e-06
-4.70545e-18
-1.10206e-21
-3.68129e-20
-1.00019e-22
2.22736e-06
-4.70255e-18
-1.13957e-21
-3.84859e-20
-1.0309e-22
2.3775e-06
-4.69913e-18
-1.17846e-21
-4.08276e-20
-1.06133e-22
2.53439e-06
-4.69511e-18
-1.21874e-21
-4.32056e-20
-1.09113e-22
2.69825e-06
-4.69061e-18
-1.26043e-21
-4.56536e-20
-1.12046e-22
2.86932e-06
-4.6861e-18
-1.30356e-21
-4.88951e-20
-1.14901e-22
3.04785e-06
-4.68236e-18
-1.34811e-21
-5.12018e-20
-1.17596e-22
3.23408e-06
-4.67815e-18
-1.39402e-21
-5.40114e-20
-1.20163e-22
3.42823e-06
-4.67393e-18
-1.44123e-21
-5.65796e-20
-1.22576e-22
3.63055e-06
-4.66965e-18
-1.48969e-21
-5.91864e-20
-1.2478e-22
3.84124e-06
-4.66476e-18
-1.53929e-21
-6.19872e-20
-1.26776e-22
4.06051e-06
-4.65928e-18
-1.58993e-21
-6.51527e-20
-1.28518e-22
4.28858e-06
-4.65501e-18
-1.64147e-21
-6.68822e-20
-1.29961e-22
4.52561e-06
-4.65019e-18
-1.69369e-21
-6.86702e-20
-1.31166e-22
4.77177e-06
-4.64522e-18
-1.74645e-21
-7.14398e-20
-1.32115e-22
5.02721e-06
-4.63916e-18
-1.79967e-21
-7.46075e-20
-1.32652e-22
5.29206e-06
-4.63388e-18
-1.85315e-21
-7.8114e-20
-1.32766e-22
5.56642e-06
-4.62833e-18
-1.90669e-21
-8.24218e-20
-1.32248e-22
5.85037e-06
-4.61915e-18
-1.95998e-21
-8.69927e-20
-1.31186e-22
6.14398e-06
-4.61368e-18
-2.01304e-21
-8.97555e-20
-1.29539e-22
6.44727e-06
-4.60877e-18
-2.06531e-21
-9.32504e-20
-1.276e-22
6.76028e-06
-4.60208e-18
-2.11655e-21
-9.77863e-20
-1.25217e-22
7.08301e-06
-4.59538e-18
-2.16676e-21
-1.023e-19
-1.22205e-22
7.41543e-06
-4.58826e-18
-2.21572e-21
-1.07121e-19
-1.18675e-22
7.75752e-06
-4.58033e-18
-2.26331e-21
-1.13256e-19
-1.14665e-22
8.10926e-06
-4.57318e-18
-2.30957e-21
-1.19603e-19
-1.09875e-22
8.4706e-06
-4.56328e-18
-2.3543e-21
-1.27044e-19
-1.04593e-22
8.84149e-06
-4.55488e-18
-2.39777e-21
-1.32741e-19
-9.86382e-23
9.2219e-06
-4.54461e-18
-2.43974e-21
-1.41053e-19
-9.21131e-23
9.6118e-06
-4.53783e-18
-2.48053e-21
-1.42318e-19
-8.49365e-23
1.00111e-05
-4.53098e-18
-2.51998e-21
-1.46491e-19
-7.77041e-23
1.04199e-05
-4.5257e-18
-2.5582e-21
-1.49796e-19
-6.9888e-23
1.08381e-05
-4.51906e-18
-2.59517e-21
-1.53227e-19
-6.17169e-23
1.12658e-05
-4.51106e-18
-2.63131e-21
-1.57324e-19
-5.31966e-23
1.17029e-05
-4.502e-18
-2.66672e-21
-1.62621e-19
-4.47176e-23
1.21495e-05
-4.49224e-18
-2.70127e-21
-1.67659e-19
-3.61935e-23
1.26056e-05
-4.48091e-18
-2.73501e-21
-1.72575e-19
-2.79142e-23
1.30714e-05
-4.47215e-18
-2.76866e-21
-1.77339e-19
-1.96821e-23
1.35469e-05
-4.46403e-18
-2.80222e-21
-1.81068e-19
-1.14526e-23
1.40322e-05
-4.45138e-18
-2.83559e-21
-1.88375e-19
-3.69049e-24
1.45274e-05
-4.4408e-18
-2.86934e-21
-1.9348e-19
4.18064e-24
1.50327e-05
-4.43098e-18
-2.90331e-21
-1.98455e-19
1.14154e-23
1.55482e-05
-4.42378e-18
-2.93761e-21
-2.01286e-19
1.80797e-23
1.6074e-05
-4.41427e-18
-2.97206e-21
-2.0752e-19
2.40797e-23
1.66104e-05
-4.40479e-18
-3.00743e-21
-2.11812e-19
2.95852e-23
1.71576e-05
-4.39642e-18
-3.0434e-21
-2.18992e-19
3.4054e-23
1.77157e-05
-4.38554e-18
-3.07989e-21
-2.23095e-19
3.83442e-23
1.82849e-05
-4.37444e-18
-3.11792e-21
-2.33598e-19
4.17148e-23
1.88655e-05
-4.36681e-18
-3.15745e-21
-2.42012e-19
4.42915e-23
1.94577e-05
-4.35678e-18
-3.19836e-21
-2.50032e-19
4.54353e-23
2.00618e-05
-4.34441e-18
-3.24225e-21
-2.57577e-19
4.68679e-23
2.0678e-05
-4.33674e-18
-3.28825e-21
-2.61432e-19
4.7025e-23
2.13065e-05
-4.32036e-18
-3.3346e-21
-2.69825e-19
4.53263e-23
2.19476e-05
-4.30866e-18
-3.38485e-21
-2.76088e-19
4.53214e-23
2.26017e-05
-4.30071e-18
-3.43682e-21
-2.87577e-19
4.52433e-23
2.3269e-05
-4.29136e-18
-3.48867e-21
-2.95311e-19
4.55538e-23
2.39498e-05
-4.27992e-18
-3.54176e-21
-3.0378e-19
4.71559e-23
2.46443e-05
-4.26486e-18
-3.59498e-21
-3.13142e-19
4.96318e-23
2.5353e-05
-4.25296e-18
-3.64932e-21
-3.24804e-19
5.25076e-23
2.60761e-05
-4.24211e-18
-3.70418e-21
-3.35285e-19
5.49217e-23
2.6814e-05
-4.23426e-18
-3.75961e-21
-3.46708e-19
5.62211e-23
2.75669e-05
-4.22332e-18
-3.81487e-21
-3.57657e-19
5.55439e-23
2.83353e-05
-4.21619e-18
-3.87249e-21
-3.69752e-19
5.36519e-23
2.91195e-05
-4.20507e-18
-3.93113e-21
-3.80982e-19
5.14154e-23
2.99198e-05
-4.18894e-18
-3.99151e-21
-3.92353e-19
4.90993e-23
3.07366e-05
-4.17343e-18
-4.05676e-21
-4.06889e-19
4.3262e-23
3.15703e-05
-4.15946e-18
-4.12216e-21
-4.1512e-19
3.68096e-23
3.24212e-05
-4.1322e-18
-4.18689e-21
-4.31742e-19
2.64049e-23
3.32899e-05
-4.12455e-18
-4.25976e-21
-4.40424e-19
1.54512e-23
3.41765e-05
-4.10892e-18
-4.33148e-21
-4.5589e-19
3.66401e-24
3.50816e-05
-4.08591e-18
-4.40065e-21
-4.66169e-19
-1.26802e-23
3.60056e-05
-4.0716e-18
-4.47441e-21
-4.8128e-19
-3.10892e-23
3.69488e-05
-4.04717e-18
-4.54888e-21
-4.9856e-19
-4.50016e-23
3.79118e-05
-4.0268e-18
-4.62725e-21
-5.1463e-19
-5.69761e-23
3.8895e-05
-4.00664e-18
-4.70706e-21
-5.32477e-19
-6.70648e-23
3.98987e-05
-3.98568e-18
-4.78811e-21
-5.40539e-19
-7.46038e-23
4.09235e-05
-3.96523e-18
-4.87055e-21
-5.62514e-19
-8.77394e-23
4.19699e-05
-3.9376e-18
-4.95455e-21
-5.68415e-19
-9.69197e-23
4.30382e-05
-3.92025e-18
-5.04739e-21
-5.88959e-19
-1.10367e-22
4.4129e-05
-3.90503e-18
-5.13579e-21
-5.96327e-19
-1.29291e-22
4.52429e-05
-3.89917e-18
-5.22783e-21
-6.03378e-19
-1.54147e-22
4.63802e-05
-3.8929e-18
-5.32256e-21
-6.0376e-19
-1.73789e-22
4.75415e-05
-3.87812e-18
-5.41159e-21
-6.13284e-19
-1.9428e-22
4.87274e-05
-3.86645e-18
-5.50042e-21
-6.19476e-19
-2.20609e-22
4.99383e-05
-3.84409e-18
-5.59273e-21
-6.25955e-19
-2.48574e-22
5.11749e-05
-3.8325e-18
-5.69117e-21
-6.37248e-19
-2.80379e-22
5.24376e-05
-3.81464e-18
-5.77401e-21
-6.42297e-19
-3.10662e-22
5.37271e-05
-3.8054e-18
-5.86589e-21
-6.47811e-19
-3.46707e-22
5.50439e-05
-3.78599e-18
-5.93886e-21
-6.60344e-19
-4.02894e-22
5.63886e-05
-3.76838e-18
-6.0129e-21
-6.64652e-19
-4.68158e-22
5.77619e-05
-3.76721e-18
-6.09666e-21
-6.6426e-19
-5.39477e-22
5.91643e-05
-3.74765e-18
-6.14735e-21
-6.77146e-19
-6.26873e-22
6.05965e-05
-3.70451e-18
-6.1929e-21
-6.9635e-19
-7.10338e-22
6.20591e-05
-3.68746e-18
-6.25682e-21
-7.10642e-19
-7.71967e-22
6.35527e-05
-3.66119e-18
-6.28759e-21
-7.35251e-19
-8.34195e-22
6.50782e-05
-3.6383e-18
-6.34749e-21
-7.59523e-19
-8.56358e-22
6.6636e-05
-3.62808e-18
-6.42042e-21
-7.7292e-19
-8.43665e-22
6.8227e-05
-3.60774e-18
-6.46766e-21
-7.87117e-19
-7.97135e-22
6.98518e-05
-3.58516e-18
-6.51126e-21
-7.97508e-19
-7.391e-22
7.15111e-05
-3.5685e-18
-6.55672e-21
-8.26171e-19
-6.66269e-22
7.32058e-05
-3.55202e-18
-6.59153e-21
-8.19817e-19
-5.71076e-22
7.49365e-05
-3.52249e-18
-6.61507e-21
-8.3033e-19
-5.29062e-22
7.67041e-05
-3.48927e-18
-6.6407e-21
-8.63846e-19
-5.17587e-22
7.85092e-05
-3.47741e-18
-6.69639e-21
-8.7676e-19
-5.06254e-22
8.03528e-05
-3.4449e-18
-6.73123e-21
-8.99015e-19
-5.03634e-22
8.22356e-05
-3.42686e-18
-6.76366e-21
-9.25771e-19
-5.03793e-22
8.41585e-05
-3.38472e-18
-6.77724e-21
-9.28319e-19
-5.11658e-22
8.61223e-05
-3.36409e-18
-6.78478e-21
-9.32056e-19
-5.67231e-22
8.81279e-05
-3.32423e-18
-6.74758e-21
-9.55463e-19
-6.60874e-22
9.01762e-05
-3.2929e-18
-6.73406e-21
-9.82125e-19
-7.31601e-22
9.2268e-05
-3.26686e-18
-6.7222e-21
-1.00857e-18
-7.74455e-22
9.44044e-05
-3.23533e-18
-6.70369e-21
-1.02795e-18
-8.2059e-22
9.65862e-05
-3.20898e-18
-6.66891e-21
-1.05121e-18
-8.53045e-22
9.88144e-05
-3.16765e-18
-6.61899e-21
-1.0882e-18
-8.61463e-22
0.00010109
-3.12484e-18
-6.64088e-21
-1.11161e-18
-8.18049e-22
0.000103414
-3.09391e-18
-6.74667e-21
-1.1389e-18
-8.02097e-22
0.000105788
-3.06104e-18
-6.86501e-21
-1.1582e-18
-7.78586e-22
0.000108211
-3.02753e-18
-6.99849e-21
-1.19141e-18
-7.45916e-22
0.000110687
-2.99509e-18
-7.07303e-21
-1.20033e-18
-6.50637e-22
0.000113215
-2.9547e-18
-7.12901e-21
-1.23517e-18
-6.10385e-22
0.000115797
-2.91989e-18
-7.189e-21
-1.26286e-18
-5.27916e-22
0.000118433
-2.87195e-18
-7.21367e-21
-1.29959e-18
-4.54888e-22
0.000121126
-2.83363e-18
-7.32356e-21
-1.32751e-18
-3.83083e-22
0.000123876
-2.81306e-18
-7.4152e-21
-1.34825e-18
-3.3342e-22
0.000126684
-2.79007e-18
-7.46505e-21
-1.34257e-18
-2.33897e-22
0.000129551
-2.79473e-18
-7.58416e-21
-1.35374e-18
-1.34597e-22
0.00013248
-2.7863e-18
-7.66416e-21
-1.3617e-18
-1.32516e-22
0.000135471
-2.80224e-18
-7.76333e-21
-1.38684e-18
-1.56182e-22
0.000138525
-2.75252e-18
-7.58698e-21
-1.37404e-18
-1.86778e-22
0.000141643
-2.7136e-18
-7.58736e-21
-1.39638e-18
-3.70609e-22
0.000144828
-2.70855e-18
-7.63465e-21
-1.41231e-18
-4.06715e-22
0.000148081
-2.70275e-18
-7.83017e-21
-1.41702e-18
-3.73232e-22
0.000151402
-2.69703e-18
-8.23162e-21
-1.40692e-18
-4.94484e-22
0.000154793
-2.66731e-18
-8.61181e-21
-1.41525e-18
-6.58349e-22
0.000158256
-2.68216e-18
-9.09265e-21
-1.4389e-18
-6.29228e-22
0.000161793
-2.65564e-18
-9.43214e-21
-1.45465e-18
-5.587e-22
0.000165404
-2.64541e-18
-9.721e-21
-1.46807e-18
-5.23097e-22
0.000169092
-2.65675e-18
-1.00484e-20
-1.47848e-18
-3.88955e-22
0.000172857
-2.65841e-18
-1.02266e-20
-1.44766e-18
-1.848e-22
0.000176702
-2.6273e-18
-1.02922e-20
-1.4342e-18
-3.60555e-22
0.000180628
-2.61165e-18
-1.04976e-20
-1.45371e-18
-7.47616e-22
0.000184637
-2.59254e-18
-1.0704e-20
-1.47106e-18
-1.53158e-21
0.00018873
-2.56368e-18
-1.10313e-20
-1.49009e-18
-1.9868e-21
0.00019291
-2.53852e-18
-1.15329e-20
-1.50334e-18
-2.21074e-21
0.000197178
-2.51612e-18
-1.18727e-20
-1.50637e-18
-2.50204e-21
0.000201535
-2.51164e-18
-1.22964e-20
-1.49909e-18
-2.57127e-21
0.000205984
-2.45197e-18
-1.2555e-20
-1.50408e-18
-2.74036e-21
0.000210527
-2.48434e-18
-1.28922e-20
-1.51581e-18
-3.12941e-21
0.000215165
-2.44855e-18
-1.27851e-20
-1.47577e-18
-3.59148e-21
0.000219901
-2.45142e-18
-1.25648e-20
-1.48715e-18
-4.45245e-21
0.000224736
-2.38237e-18
-1.20759e-20
-1.48882e-18
-4.97261e-21
0.000229672
-2.38358e-18
-1.15612e-20
-1.49301e-18
-5.48731e-21
0.000234712
-2.32848e-18
-1.09391e-20
-1.4859e-18
-5.7385e-21
0.000239857
-2.3358e-18
-1.07888e-20
-1.471e-18
-6.03904e-21
0.00024511
-2.22779e-18
-1.02622e-20
-1.47282e-18
-6.99514e-21
0.000250473
-2.12472e-18
-1.00272e-20
-1.44089e-18
-7.28552e-21
0.000255948
-2.02957e-18
-9.80257e-21
-1.49774e-18
-8.11002e-21
0.000261537
-1.99377e-18
-1.02477e-20
-1.50437e-18
-8.7616e-21
0.000267243
-1.88689e-18
-1.03468e-20
-1.51478e-18
-8.59065e-21
0.000273068
-1.8369e-18
-1.06048e-20
-1.50668e-18
-8.09354e-21
0.000279015
-1.77599e-18
-1.03694e-20
-1.51173e-18
-8.3863e-21
0.000285085
-1.80432e-18
-1.1009e-20
-1.47695e-18
-7.77662e-21
0.000291281
-1.82875e-18
-1.02019e-20
-1.44673e-18
-7.90899e-21
0.000297606
-1.83932e-18
-9.7535e-21
-1.39332e-18
-8.20209e-21
0.000304062
-1.80006e-18
-9.10795e-21
-1.4559e-18
-9.75575e-21
0.000310652
-1.77213e-18
-8.99549e-21
-1.53261e-18
-1.02315e-20
0.000317378
-1.70211e-18
-9.19754e-21
-1.57535e-18
-9.96734e-21
0.000324244
-1.71367e-18
-1.05866e-20
-1.58717e-18
-9.8452e-21
0.000331252
-1.70654e-18
-1.16195e-20
-1.65263e-18
-1.02952e-20
0.000338404
-1.71388e-18
-1.25993e-20
-1.66923e-18
-1.02132e-20
0.000345703
-1.69787e-18
-1.29864e-20
-1.65595e-18
-1.17134e-20
0.000353153
-1.69631e-18
-1.32037e-20
-1.65437e-18
-1.33015e-20
0.000360756
-1.69315e-18
-1.3945e-20
-1.74879e-18
-1.58612e-20
0.000368515
-1.68411e-18
-1.57902e-20
-1.65807e-18
-1.53959e-20
0.000376433
-1.6491e-18
-1.77577e-20
-1.62345e-18
-1.70403e-20
0.000384514
-1.62564e-18
-2.03215e-20
-1.6473e-18
-1.9038e-20
0.000392759
-1.62133e-18
-2.3311e-20
-1.60256e-18
-1.72052e-20
0.000401172
-1.58146e-18
-2.45268e-20
-1.63678e-18
-1.66507e-20
0.000409757
-1.49429e-18
-2.60705e-20
-1.51021e-18
-1.34803e-20
0.000418517
-1.51393e-18
-2.78791e-20
-1.43078e-18
-1.10657e-20
0.000427454
-1.45712e-18
-2.88418e-20
-1.42934e-18
-1.0468e-20
0.000436572
-1.41784e-18
-2.96007e-20
-1.45533e-18
-1.04258e-20
0.000445875
-1.48708e-18
-3.2266e-20
-1.36552e-18
-1.00142e-20
0.000455365
-1.44342e-18
-3.16891e-20
-1.36837e-18
-1.27374e-20
0.000465046
-1.40217e-18
-3.07952e-20
-1.3523e-18
-1.59534e-20
0.000474922
-1.31918e-18
-2.71152e-20
-1.33418e-18
-1.73698e-20
0.000484995
-1.26778e-18
-2.79498e-20
-1.3572e-18
-1.79296e-20
0.000495269
-1.34554e-18
-2.80551e-20
-1.39001e-18
-1.65986e-20
0.000505748
-1.39475e-18
-2.74546e-20
-1.32907e-18
-1.55065e-20
0.000516435
-1.44202e-18
-2.97295e-20
-1.26125e-18
-1.86498e-20
0.000527333
-1.42603e-18
-3.44884e-20
-1.3405e-18
-2.26154e-20
0.000538447
-1.38196e-18
-3.67549e-20
-1.25569e-18
-1.80778e-20
0.000549779
-1.3309e-18
-3.24164e-20
-1.28932e-18
-1.94721e-20
0.000561333
-1.3048e-18
-3.30494e-20
-1.33067e-18
-2.15222e-20
0.000573112
-1.3863e-18
-3.77233e-20
-1.36288e-18
-2.31421e-20
0.00058512
-1.33984e-18
-3.03183e-20
-1.39929e-18
-2.56663e-20
0.00059736
-1.38017e-18
-3.04227e-20
-1.41014e-18
-2.35364e-20
0.000609836
-1.43071e-18
-3.26204e-20
-1.33617e-18
-2.17815e-20
0.00062255
-1.43504e-18
-3.09748e-20
-1.30074e-18
-2.55532e-20
0.000635507
-1.22917e-18
-2.4247e-20
-1.29201e-18
-2.82499e-20
0.000648709
-1.30194e-18
-3.14763e-20
-1.3865e-18
-3.23248e-20
0.000662159
-1.25201e-18
-3.45852e-20
-1.22758e-18
-3.04027e-20
0.00067586
-1.20988e-18
-3.46993e-20
-1.21894e-18
-2.94852e-20
0.000689816
-1.22979e-18
-3.36468e-20
-1.24635e-18
-3.0143e-20
0.000704028
-1.15476e-18
-3.4483e-20
-1.11603e-18
-2.50571e-20
0.000718498
-1.20468e-18
-4.20531e-20
-1.10596e-18
-2.90129e-20
0.00073323
-1.08916e-18
-3.80645e-20
-1.19377e-18
-3.85786e-20
0.000748226
-1.04053e-18
-3.67988e-20
-1.12997e-18
-3.47512e-20
0.000763486
-1.12137e-18
-3.8803e-20
-1.16511e-18
-3.63451e-20
0.000779012
-1.04116e-18
-3.54448e-20
-1.15838e-18
-3.30933e-20
0.000794806
-9.86084e-19
-4.06013e-20
-1.27303e-18
-3.4548e-20
0.000810867
-1.16401e-18
-4.85297e-20
-1.30362e-18
-2.61639e-20
0.000827195
-1.16194e-18
-3.41655e-20
-1.23913e-18
-1.19534e-20
0.000843791
-1.1831e-18
-2.8844e-20
-1.16907e-18
-1.34954e-20
0.000860652
-1.33872e-18
-4.78941e-20
-1.20899e-18
-2.09713e-20
0.000877778
-1.30982e-18
-4.04722e-20
-1.16499e-18
-2.35936e-20
0.000895165
-1.4112e-18
-2.85535e-20
-1.08688e-18
-2.00041e-20
0.00091281
-1.26334e-18
7.11449e-22
-1.00004e-18
-1.73529e-20
0.000930709
-1.05202e-18
1.15011e-20
-9.9592e-19
-1.62745e-20
0.000948856
-1.07556e-18
9.84977e-21
-8.87904e-19
-7.79733e-21
0.000967245
-9.13164e-19
1.45563e-20
-1.01984e-18
-9.76803e-21
0.000985869
-7.81442e-19
1.1852e-20
-1.04766e-18
-2.82572e-20
0.00100472
-7.9412e-19
2.98107e-23
-9.74708e-19
-1.03303e-20
0.00102379
-8.50391e-19
1.86791e-20
-1.00934e-18
1.22054e-20
0.00104306
2.48009e-20
-8.54477e-19
3.80292e-20
-9.03942e-19
2.03954e-08
-1.50414e-22
-7.29363e-24
6.27084e-08
-5.9203e-22
-9.40425e-23
1.07383e-07
-1.04053e-21
-1.96921e-22
1.54522e-07
-1.49078e-21
-2.98414e-22
2.04233e-07
-1.96007e-21
-4.53001e-22
2.56625e-07
-2.45599e-21
-6.04602e-22
3.11816e-07
-2.87299e-21
-6.91859e-22
3.69926e-07
-3.4768e-21
-7.54491e-22
4.31078e-07
-3.95152e-21
-9.46815e-22
4.95404e-07
-4.61858e-21
-9.69669e-22
5.63037e-07
-5.08741e-21
-1.14572e-21
6.34119e-07
-5.73356e-21
-1.31239e-21
7.08795e-07
-6.50114e-21
-1.41013e-21
7.87215e-07
-7.11093e-21
-1.48489e-21
8.69538e-07
-7.7208e-21
-1.74923e-21
9.55927e-07
-8.22037e-21
-1.97128e-21
1.04655e-06
-8.97245e-21
-2.10893e-21
1.14158e-06
-9.59602e-21
-2.35693e-21
1.24121e-06
-1.01866e-20
-2.68098e-21
1.34561e-06
-1.06907e-20
-2.81135e-21
1.45499e-06
-1.16435e-20
-3.04935e-21
1.56954e-06
-1.23028e-20
-3.39311e-21
1.68947e-06
-1.30392e-20
-3.8069e-21
1.815e-06
-1.38112e-20
-4.03314e-21
1.94634e-06
-1.4657e-20
-4.20988e-21
2.08371e-06
-1.56348e-20
-4.76664e-21
2.22736e-06
-1.67186e-20
-5.36507e-21
2.3775e-06
-1.73974e-20
-5.63454e-21
2.53439e-06
-1.80485e-20
-6.44275e-21
2.69825e-06
-1.90144e-20
-6.93992e-21
2.86932e-06
-2.05479e-20
-6.9612e-21
3.04785e-06
-2.20561e-20
-7.22377e-21
3.23408e-06
-2.2843e-20
-7.87336e-21
3.42823e-06
-2.40703e-20
-7.82437e-21
3.63055e-06
-2.51869e-20
-8.62024e-21
3.84124e-06
-2.59373e-20
-9.26667e-21
4.06051e-06
-2.62311e-20
-9.90993e-21
4.28858e-06
-2.69379e-20
-1.07631e-20
4.52561e-06
-2.84066e-20
-1.15596e-20
4.77177e-06
-3.11412e-20
-1.07686e-20
5.02721e-06
-3.29063e-20
-1.12854e-20
5.29206e-06
-3.54221e-20
-1.01268e-20
5.56642e-06
-3.61586e-20
-1.08516e-20
5.85037e-06
-3.7659e-20
-1.05074e-20
6.14398e-06
-3.85861e-20
-1.17999e-20
6.44727e-06
-4.05505e-20
-1.14918e-20
6.76028e-06
-4.34797e-20
-1.1088e-20
7.08301e-06
-4.50361e-20
-1.22485e-20
7.41543e-06
-4.62787e-20
-1.31869e-20
7.75752e-06
-4.88271e-20
-1.17766e-20
8.10926e-06
-5.02681e-20
-1.39246e-20
8.4706e-06
-5.16516e-20
-1.56589e-20
8.84149e-06
-5.24696e-20
-1.78073e-20
9.2219e-06
-5.36396e-20
-2.00468e-20
9.6118e-06
-5.51798e-20
-2.06173e-20
1.00111e-05
-5.59585e-20
-2.02042e-20
1.04199e-05
-5.68444e-20
-2.08469e-20
1.08381e-05
-5.93516e-20
-2.05571e-20
1.12658e-05
-6.16994e-20
-2.27378e-20
1.17029e-05
-6.21681e-20
-2.36355e-20
1.21495e-05
-6.17446e-20
-2.61901e-20
1.26056e-05
-6.39079e-20
-2.82515e-20
1.30714e-05
-6.75351e-20
-2.78028e-20
1.35469e-05
-7.04583e-20
-2.78769e-20
1.40322e-05
-7.17828e-20
-2.85101e-20
1.45274e-05
-7.28663e-20
-3.04127e-20
1.50327e-05
-7.4491e-20
-3.15199e-20
1.55482e-05
-7.75316e-20
-3.33971e-20
1.6074e-05
-8.19328e-20
-3.58251e-20
1.66104e-05
-8.27692e-20
-3.57133e-20
1.71576e-05
-8.42565e-20
-3.56578e-20
1.77157e-05
-8.89616e-20
-3.65176e-20
1.82849e-05
-9.19994e-20
-3.89848e-20
1.88655e-05
-9.69634e-20
-4.35212e-20
1.94577e-05
-1.0504e-19
-4.1896e-20
2.00618e-05
-1.05764e-19
-4.41219e-20
2.0678e-05
-1.05268e-19
-4.68936e-20
2.13065e-05
-1.1043e-19
-4.74079e-20
2.19476e-05
-1.12311e-19
-5.0171e-20
2.26017e-05
-1.12776e-19
-5.01793e-20
2.3269e-05
-1.16837e-19
-4.67595e-20
2.39498e-05
-1.16376e-19
-4.5979e-20
2.46443e-05
-1.17111e-19
-4.39793e-20
2.5353e-05
-1.17887e-19
-4.62838e-20
2.60761e-05
-1.19201e-19
-4.62277e-20
2.6814e-05
-1.19258e-19
-4.73085e-20
2.75669e-05
-1.21147e-19
-4.4217e-20
2.83353e-05
-1.22968e-19
-3.89743e-20
2.91195e-05
-1.24688e-19
-3.37548e-20
2.99198e-05
-1.31088e-19
-3.77383e-20
3.07366e-05
-1.28778e-19
-3.68815e-20
3.15703e-05
-1.30138e-19
-3.74118e-20
3.24212e-05
-1.41551e-19
-3.94956e-20
3.32899e-05
-1.51719e-19
-3.33795e-20
3.41765e-05
-1.49986e-19
-3.62673e-20
3.50816e-05
-1.55508e-19
-3.08101e-20
3.60056e-05
-1.62484e-19
-2.22421e-20
3.69488e-05
-1.65124e-19
-2.22001e-20
3.79118e-05
-1.6529e-19
-2.44763e-20
3.8895e-05
-1.64444e-19
-2.67303e-20
3.98987e-05
-1.64462e-19
-2.978e-20
4.09235e-05
-1.65718e-19
-3.17574e-20
4.19699e-05
-1.70527e-19
-2.85846e-20
4.30382e-05
-1.63376e-19
-3.41692e-20
4.4129e-05
-1.69606e-19
-3.14591e-20
4.52429e-05
-1.82011e-19
-2.24122e-20
4.63802e-05
-1.8099e-19
-1.43284e-20
4.75415e-05
-1.78919e-19
-1.89899e-20
4.87274e-05
-1.86636e-19
-2.13858e-20
4.99383e-05
-1.89877e-19
-2.88146e-20
5.11749e-05
-1.75954e-19
-2.71424e-20
5.24376e-05
-1.8096e-19
-2.75391e-20
5.37271e-05
-1.63293e-19
-4.29707e-20
5.50439e-05
-1.64623e-19
-4.52374e-20
5.63886e-05
-1.78346e-19
-4.07551e-20
5.77619e-05
-1.6428e-19
-4.70465e-20
5.91643e-05
-1.64592e-19
-5.30306e-20
6.05965e-05
-1.71159e-19
-5.68561e-20
6.20591e-05
-1.58515e-19
-7.52789e-20
6.35527e-05
-1.84826e-19
-6.6019e-20
6.50782e-05
-1.93486e-19
-5.95262e-20
6.6636e-05
-1.84481e-19
-4.76597e-20
6.8227e-05
-1.84578e-19
-5.80428e-20
6.98518e-05
-1.88891e-19
-5.31764e-20
7.15111e-05
-1.9254e-19
-5.21451e-20
7.32058e-05
-1.95175e-19
-6.33294e-20
7.49365e-05
-1.92862e-19
-6.42521e-20
7.67041e-05
-2.03517e-19
-5.43657e-20
7.85092e-05
-2.0072e-19
-4.19964e-20
8.03528e-05
-1.9163e-19
-4.93393e-20
8.22356e-05
-1.94647e-19
-4.92982e-20
8.41585e-05
-1.91038e-19
-4.08907e-20
8.61223e-05
-1.91542e-19
-4.60474e-20
8.81279e-05
-2.09256e-19
-5.41934e-20
9.01762e-05
-2.22245e-19
-5.08394e-20
9.2268e-05
-2.3401e-19
-5.2417e-20
9.44044e-05
-2.34222e-19
-5.12365e-20
9.65862e-05
-2.33817e-19
-6.16728e-20
9.88144e-05
-2.49114e-19
-7.10801e-20
0.00010109
-2.66831e-19
-9.04314e-20
0.000103414
-2.64346e-19
-1.024e-19
0.000105788
-2.62528e-19
-1.14158e-19
0.000108211
-2.41406e-19
-1.13338e-19
0.000110687
-2.39456e-19
-1.23727e-19
0.000113215
-2.38701e-19
-1.26781e-19
0.000115797
-2.39462e-19
-1.36943e-19
0.000118433
-2.71739e-19
-1.39918e-19
0.000121126
-2.72876e-19
-1.47545e-19
0.000123876
-2.77469e-19
-1.50162e-19
0.000126684
-3.0823e-19
-1.55997e-19
0.000129551
-3.21888e-19
-1.87917e-19
0.00013248
-3.36119e-19
-1.76035e-19
0.000135471
-3.02627e-19
-1.81468e-19
0.000138525
-3.06736e-19
-2.05483e-19
0.000141643
-2.8269e-19
-2.00347e-19
0.000144828
-3.17583e-19
-1.91066e-19
0.000148081
-3.51248e-19
-2.13101e-19
0.000151402
-3.34056e-19
-2.14988e-19
0.000154793
-3.30746e-19
-1.99138e-19
0.000158256
-3.27636e-19
-2.06143e-19
0.000161793
-3.01904e-19
-2.25625e-19
0.000165404
-3.08241e-19
-2.43476e-19
0.000169092
-3.07586e-19
-2.33143e-19
0.000172857
-3.07507e-19
-2.43462e-19
0.000176702
-3.19641e-19
-2.3022e-19
0.000180628
-3.31464e-19
-2.69538e-19
0.000184637
-3.60047e-19
-2.4324e-19
0.00018873
-3.8786e-19
-2.45175e-19
0.00019291
-3.715e-19
-2.49117e-19
0.000197178
-3.86209e-19
-2.25477e-19
0.000201535
-3.89093e-19
-2.46929e-19
0.000205984
-3.78969e-19
-2.62304e-19
0.000210527
-3.85106e-19
-2.69432e-19
0.000215165
-3.76922e-19
-2.83335e-19
0.000219901
-4.07969e-19
-2.73968e-19
0.000224736
-3.84968e-19
-2.97331e-19
0.000229672
-4.04299e-19
-2.9499e-19
0.000234712
-4.09396e-19
-3.09906e-19
0.000239857
-4.13366e-19
-3.59412e-19
0.00024511
-4.07262e-19
-3.05367e-19
0.000250473
-3.84091e-19
-3.3419e-19
0.000255948
-4.27909e-19
-4.03113e-19
0.000261537
-4.406e-19
-3.50624e-19
0.000267243
-4.22296e-19
-2.96688e-19
0.000273068
-3.81123e-19
-3.60498e-19
0.000279015
-4.12002e-19
-3.41702e-19
0.000285085
-3.62483e-19
-3.56697e-19
0.000291281
-4.31539e-19
-2.97551e-19
0.000297606
-4.17095e-19
-3.1294e-19
0.000304062
-3.97795e-19
-2.91422e-19
0.000310652
-3.84347e-19
-3.11272e-19
0.000317378
-3.81264e-19
-3.62615e-19
0.000324244
-3.578e-19
-3.80373e-19
0.000331252
-3.3778e-19
-3.53347e-19
0.000338404
-3.18749e-19
-4.05959e-19
0.000345703
-2.94395e-19
-3.80988e-19
0.000353153
-3.10577e-19
-4.02536e-19
0.000360756
-3.6645e-19
-3.09445e-19
0.000368515
-3.70093e-19
-3.14737e-19
0.000376433
-3.8744e-19
-3.64339e-19
0.000384514
-4.34332e-19
-3.00263e-19
0.000392759
-4.11782e-19
-3.38611e-19
0.000401172
-4.46285e-19
-3.27568e-19
0.000409757
-4.3049e-19
-3.29191e-19
0.000418517
-4.70067e-19
-3.83984e-19
0.000427454
-4.54481e-19
-3.8562e-19
0.000436572
-5.38077e-19
-3.6431e-19
0.000445875
-5.40386e-19
-3.97637e-19
0.000455365
-5.18685e-19
-4.63442e-19
0.000465046
-4.26021e-19
-4.76332e-19
0.000474922
-5.18019e-19
-4.95496e-19
0.000484995
-4.8474e-19
-4.74784e-19
0.000495269
-5.77342e-19
-5.2605e-19
0.000505748
-7.09152e-19
-5.89152e-19
0.000516435
-8.08179e-19
-5.99929e-19
0.000527333
-7.46407e-19
-5.76274e-19
0.000538447
-5.53074e-19
-6.58158e-19
0.000549779
-6.00506e-19
-6.72927e-19
0.000561333
-6.85038e-19
-6.97297e-19
0.000573112
-5.35684e-19
-6.95216e-19
0.00058512
-6.57234e-19
-6.24671e-19
0.00059736
-7.25443e-19
-7.13378e-19
0.000609836
-7.07032e-19
-7.39027e-19
0.00062255
-6.51581e-19
-6.46861e-19
0.000635507
-7.33222e-19
-6.9146e-19
0.000648709
-7.53146e-19
-6.94453e-19
0.000662159
-6.37341e-19
-6.12936e-19
0.00067586
-5.29739e-19
-6.51657e-19
0.000689816
-5.28012e-19
-4.49101e-19
0.000704028
-5.04626e-19
-4.09018e-19
0.000718498
-3.42363e-19
-4.76277e-19
0.00073323
-2.26575e-19
-2.77659e-19
0.000748226
-2.14974e-19
-2.71885e-19
0.000763486
-2.26409e-19
-2.52365e-19
0.000779012
-2.26221e-19
-2.56313e-19
0.000794806
-2.41282e-19
-2.68952e-19
0.000810867
-2.38493e-19
-3.38361e-19
0.000827195
-3.64743e-19
-5.01266e-19
0.000843791
-6.70388e-19
-4.81456e-19
0.000860652
-6.10981e-19
-5.53608e-19
0.000877778
-6.36263e-19
-6.26773e-19
0.000895165
-6.13872e-19
-6.31575e-19
0.00091281
-6.59866e-19
-5.46642e-19
0.000930709
-6.50616e-19
-5.58038e-19
0.000948856
-6.59437e-19
-5.87922e-19
0.000967245
-5.41304e-19
-7.74417e-19
0.000985869
-5.40122e-19
-5.22355e-19
0.00100472
-3.80785e-19
-5.15569e-19
0.00102379
-5.09127e-19
-5.07996e-19
0.00104306
-7.56328e-19
-5.25124e-19
0.00104306
-9.12822e-19
-5.23469e-21
-6.53916e-19
4.77217e-20
0.00102379
-6.63089e-19
5.03756e-21
-6.10422e-19
2.46459e-20
0.00100472
-5.27429e-19
-1.67055e-20
-4.51381e-19
1.43849e-20
0.000985869
-5.2445e-19
-3.78645e-20
-4.88635e-19
-2.58091e-21
0.000967245
-5.25364e-19
-2.60263e-20
-4.70545e-19
-1.05486e-20
0.000948856
-4.79589e-19
-2.69247e-20
-3.97324e-19
-8.14981e-21
0.000930709
-5.83126e-19
-2.58383e-20
-4.51763e-19
-1.54554e-20
0.00091281
-4.51672e-19
-1.0708e-20
-6.02036e-19
-1.63802e-20
0.000895165
-3.77989e-19
-7.66285e-21
-5.69748e-19
-6.26573e-21
0.000877778
-5.29641e-19
-1.61628e-20
-4.69156e-19
-1.27338e-20
0.000860652
-4.67591e-19
-1.53983e-20
-5.11783e-19
-2.04301e-20
0.000843791
-6.35481e-19
-2.73877e-20
-4.57248e-19
-1.931e-20
0.000827195
-5.38584e-19
-1.23264e-20
-4.54681e-19
-2.30606e-20
0.000810867
-5.15253e-19
-7.84176e-21
-5.28191e-19
-2.02902e-20
0.000794806
-4.90629e-19
-9.1183e-21
-4.98843e-19
-1.59752e-20
0.000779012
-4.819e-19
-1.06351e-20
-5.25266e-19
-1.55518e-20
0.000763486
-3.85309e-19
-7.96776e-21
-4.66439e-19
-1.00412e-20
0.000748226
-3.0323e-19
-6.35504e-21
-4.07014e-19
-1.18594e-21
0.00073323
-2.8813e-19
-6.47551e-21
-4.15999e-19
4.49573e-21
0.000718498
-3.06956e-19
-2.33978e-21
-3.67738e-19
9.61965e-21
0.000704027
-3.08122e-19
3.2033e-22
-3.13249e-19
1.07848e-20
0.000689816
-3.32069e-19
-2.58519e-21
-3.29917e-19
1.24698e-20
0.00067586
-2.94644e-19
-8.35394e-22
-2.23074e-19
1.07763e-20
0.000662159
-3.55162e-19
1.22474e-21
-3.13075e-19
6.7516e-21
0.000648709
-3.1353e-19
1.4214e-21
-3.33309e-19
8.06535e-21
0.000635507
-2.93483e-19
-3.07576e-21
-3.41276e-19
9.09768e-21
0.00062255
-2.59019e-19
-7.11522e-21
-3.64018e-19
8.29628e-21
0.000609836
-3.13566e-19
-1.47358e-20
-4.17328e-19
8.29413e-21
0.00059736
-5.37703e-19
-1.70001e-20
-4.9378e-19
8.04451e-22
0.00058512
-5.09841e-19
-1.21865e-20
-5.39663e-19
-8.24787e-22
0.000573112
-4.80667e-19
-1.27759e-20
-4.31e-19
4.96855e-21
0.000561333
-4.67871e-19
-1.03051e-20
-4.73388e-19
7.57673e-21
0.000549779
-4.09725e-19
-5.83203e-21
-3.86844e-19
8.9299e-21
0.000538447
-3.35245e-19
-7.28652e-21
-4.84047e-19
5.08451e-21
0.000527333
-4.4862e-19
-8.04143e-21
-3.98226e-19
3.30318e-21
0.000516435
-4.1847e-19
-6.11995e-21
-4.13846e-19
-1.30952e-21
0.000505748
-3.86623e-19
-8.64596e-21
-4.36476e-19
-1.40451e-21
0.000495269
-4.71532e-19
-4.5323e-21
-3.45563e-19
1.17778e-21
0.000484995
-4.56581e-19
-2.86461e-21
-3.58412e-19
3.90527e-22
0.000474922
-4.33473e-19
-2.76522e-21
-3.71268e-19
4.23162e-22
0.000465046
-4.28037e-19
-2.53398e-21
-4.1731e-19
1.35263e-21
0.000455365
-4.06882e-19
-1.72623e-21
-4.3406e-19
3.17494e-21
0.000445875
-3.40452e-19
-2.63131e-22
-3.68025e-19
5.32244e-21
0.000436572
-3.41892e-19
-1.42109e-22
-3.95003e-19
6.39827e-21
0.000427454
-3.34718e-19
1.06684e-21
-3.02436e-19
9.24387e-21
0.000418517
-3.28065e-19
1.8155e-21
-3.2164e-19
8.69633e-21
0.000409757
-2.80478e-19
2.25285e-21
-2.88429e-19
6.79182e-21
0.000401172
-2.9286e-19
2.80517e-21
-3.2857e-19
4.00181e-21
0.000392759
-2.46242e-19
4.5171e-21
-3.00371e-19
2.53509e-21
0.000384514
-2.59728e-19
2.02828e-21
-3.50796e-19
4.7314e-22
0.000376433
-2.35922e-19
2.20943e-21
-3.32707e-19
2.67381e-22
0.000368515
-2.51865e-19
1.42222e-21
-2.20487e-19
2.70496e-21
0.000360756
-2.6016e-19
1.02225e-21
-1.94686e-19
3.27521e-21
0.000353153
-2.51758e-19
1.96049e-21
-1.49361e-19
2.34121e-21
0.000345703
-1.8163e-19
2.28141e-21
-2.64094e-19
6.68949e-22
0.000338404
-2.16811e-19
1.45424e-21
-2.13745e-19
1.41321e-21
0.000331252
-1.80184e-19
1.85933e-21
-2.38588e-19
1.49361e-21
0.000324244
-1.61773e-19
3.24596e-22
-2.16766e-19
2.41411e-21
0.000317378
-1.2616e-19
-8.93333e-22
-9.83723e-20
3.23409e-21
0.000310652
-1.54161e-19
-1.58963e-21
-1.0124e-19
1.95797e-21
0.000304062
-1.45064e-19
-1.821e-21
-1.07012e-19
1.1789e-21
0.000297606
-1.42509e-19
-9.28099e-22