/*--------------------------------*- C++ -*----------------------------------*\
| =========                 |                                                 |
| \\      /  F ield         | OpenFOAM: The Open Source CFD Toolbox           |
|  \\    /   O peration     | Version:  2106                                  |
|   \\  /    A nd           | Website:  www.openfoam.com                      |
|    \\/     M anipulation  |                                                 |
\*---------------------------------------------------------------------------*/
FoamFile
{
    version     2.0;
    format      ascii;
    arch        "LSB;label=32;scalar=64";
    class       volSymmTensorField;
    location    "10040";
    object      turbulenceProperties:R;
}
// * * * * * * * * * * * * * * * * * * * * * * * * * * * * * * * * * * * * * //

dimensions      [0 2 -2 0 0 0 0];

internalField   nonuniform List<symmTensor> 
2000
(
(1.05333e-07 -2.77772e-12 -5.14103e-15 1.05333e-07 1.56233e-26 1.05333e-07)
(1.05333e-07 -2.77772e-12 -5.14103e-15 1.05333e-07 4.61362e-31 1.05333e-07)
(1.69402e-08 -2.57342e-12 -1.43786e-14 1.69402e-08 2.5344e-27 1.69402e-08)
(1.69402e-08 -2.57342e-12 -1.43786e-14 1.69402e-08 7.08827e-31 1.69402e-08)
(1.55845e-08 -7.0097e-12 -5.43422e-14 1.55845e-08 4.39055e-27 1.55845e-08)
(1.55845e-08 -7.0097e-12 -5.43422e-14 1.55845e-08 4.10101e-30 1.55845e-08)
(4.27926e-08 -4.09826e-11 -3.23644e-13 4.27926e-08 3.04739e-26 4.27926e-08)
(4.27926e-08 -4.09826e-11 -3.23644e-13 4.27926e-08 2.04999e-29 4.27926e-08)
(1.08758e-07 -1.84532e-10 -1.48447e-12 1.08758e-07 8.78109e-26 1.08758e-07)
(1.08758e-07 -1.84532e-10 -1.48447e-12 1.08758e-07 1.0842e-28 1.08758e-07)
(2.3288e-07 -6.24772e-10 -5.11979e-12 2.3288e-07 3.05514e-25 2.3288e-07)
(2.3288e-07 -6.24772e-10 -5.11979e-12 2.3288e-07 4.69327e-28 2.3288e-07)
(4.39296e-07 -1.72669e-09 -1.44137e-11 4.39296e-07 8.59728e-25 4.39296e-07)
(4.39296e-07 -1.72669e-09 -1.44137e-11 4.39296e-07 1.76355e-27 4.39296e-07)
(7.56388e-07 -4.12579e-09 -3.50833e-11 7.56388e-07 2.11395e-24 7.56388e-07)
(7.56388e-07 -4.12579e-09 -3.50833e-11 7.56388e-07 5.05402e-27 7.56388e-07)
(1.21689e-06 -8.84633e-09 -7.66279e-11 1.21689e-06 4.64592e-24 1.21689e-06)
(1.21689e-06 -8.84633e-09 -7.66279e-11 1.21689e-06 1.14294e-26 1.21689e-06)
(1.85817e-06 -1.74496e-08 -1.53971e-10 1.85817e-06 9.37595e-24 1.85817e-06)
(1.85817e-06 -1.74496e-08 -1.53971e-10 1.85817e-06 2.51207e-26 1.85817e-06)
(2.7225e-06 -3.22174e-08 -2.89585e-10 2.7225e-06 1.7715e-23 2.7225e-06)
(2.7225e-06 -3.22174e-08 -2.89585e-10 2.7225e-06 5.67783e-26 2.7225e-06)
(3.85753e-06 -5.63764e-08 -5.16194e-10 3.85753e-06 3.17124e-23 3.85753e-06)
(3.85753e-06 -5.63764e-08 -5.16194e-10 3.85753e-06 1.16573e-25 3.85753e-06)
(5.31661e-06 -9.43696e-08 -8.80192e-10 5.31661e-06 5.42913e-23 5.31661e-06)
(5.31661e-06 -9.43696e-08 -8.80192e-10 5.31661e-06 2.11094e-25 5.31661e-06)
(7.15929e-06 -1.52182e-07 -1.4459e-09 7.15929e-06 8.94974e-23 7.15929e-06)
(7.15929e-06 -1.52182e-07 -1.4459e-09 7.15929e-06 3.6449e-25 7.15929e-06)
(9.45175e-06 -2.37729e-07 -2.30084e-09 9.45175e-06 1.42856e-22 9.45175e-06)
(9.45175e-06 -2.37729e-07 -2.30084e-09 9.45175e-06 5.81107e-25 9.45175e-06)
(1.22674e-05 -3.61312e-07 -3.56217e-09 1.22674e-05 2.21786e-22 1.22674e-05)
(1.22674e-05 -3.61312e-07 -3.56217e-09 1.22674e-05 9.37567e-25 1.22674e-05)
(1.56871e-05 -5.36153e-07 -5.38454e-09 1.56871e-05 3.36125e-22 1.56871e-05)
(1.56871e-05 -5.36153e-07 -5.38454e-09 1.56871e-05 1.60189e-24 1.56871e-05)
(1.98003e-05 -7.79018e-07 -7.96954e-09 1.98003e-05 4.98855e-22 1.98003e-05)
(1.98003e-05 -7.79018e-07 -7.96954e-09 1.98003e-05 2.44406e-24 1.98003e-05)
(2.47049e-05 -1.11092e-06 -1.15769e-08 2.47049e-05 7.26326e-22 2.47049e-05)
(2.47049e-05 -1.11092e-06 -1.15769e-08 2.47049e-05 3.60914e-24 2.47049e-05)
(3.05082e-05 -1.55795e-06 -1.65381e-08 3.05082e-05 1.03955e-21 3.05082e-05)
(3.05082e-05 -1.55795e-06 -1.65381e-08 3.05082e-05 6.06499e-24 3.05082e-05)
(3.73274e-05 -2.15215e-06 -2.32716e-08 3.73274e-05 1.4651e-21 3.73274e-05)
(3.73274e-05 -2.15215e-06 -2.32716e-08 3.73274e-05 9.38387e-24 3.73274e-05)
(4.529e-05 -2.93258e-06 -3.23013e-08 4.529e-05 2.03613e-21 4.529e-05)
(4.529e-05 -2.93258e-06 -3.23013e-08 4.529e-05 1.31585e-23 4.529e-05)
(5.45344e-05 -3.94636e-06 -4.42773e-08 5.45344e-05 2.79358e-21 5.45344e-05)
(5.45344e-05 -3.94636e-06 -4.42773e-08 5.45344e-05 1.84726e-23 5.45344e-05)
(6.52101e-05 -5.24992e-06 -5.99995e-08 6.52101e-05 3.78618e-21 6.52101e-05)
(6.52101e-05 -5.24992e-06 -5.99995e-08 6.52101e-05 2.50183e-23 6.52101e-05)
(7.74783e-05 -6.91024e-06 -8.0444e-08 7.74783e-05 5.07491e-21 7.74783e-05)
(7.74783e-05 -6.91024e-06 -8.0444e-08 7.74783e-05 3.40352e-23 7.74783e-05)
(9.15118e-05 -9.00612e-06 -1.06792e-07 9.15118e-05 6.72961e-21 9.15118e-05)
(9.15118e-05 -9.00612e-06 -1.06792e-07 9.15118e-05 4.65403e-23 9.15118e-05)
(0.000107495 -1.16295e-05 -1.4046e-07 0.000107495 8.83525e-21 0.000107495)
(0.000107495 -1.16295e-05 -1.4046e-07 0.000107495 6.58333e-23 0.000107495)
(0.000125624 -1.48865e-05 -1.83136e-07 0.000125624 1.14935e-20 0.000125624)
(0.000125624 -1.48865e-05 -1.83136e-07 0.000125624 9.11853e-23 0.000125624)
(0.000146107 -1.88988e-05 -2.36806e-07 0.000146107 1.48163e-20 0.000146107)
(0.000146107 -1.88988e-05 -2.36806e-07 0.000146107 1.17508e-22 0.000146107)
(0.000169159 -2.38042e-05 -3.03795e-07 0.000169159 1.89212e-20 0.000169159)
(0.000169159 -2.38042e-05 -3.03795e-07 0.000169159 1.63881e-22 0.000169159)
(0.000195007 -2.9757e-05 -3.86788e-07 0.000195007 2.39478e-20 0.000195007)
(0.000195007 -2.9757e-05 -3.86788e-07 0.000195007 2.22879e-22 0.000195007)
(0.000223884 -3.69283e-05 -4.88864e-07 0.000223884 3.00383e-20 0.000223884)
(0.000223884 -3.69283e-05 -4.88864e-07 0.000223884 2.89386e-22 0.000223884)
(0.000256029 -4.55048e-05 -6.13505e-07 0.000256029 3.73402e-20 0.000256029)
(0.000256029 -4.55048e-05 -6.13505e-07 0.000256029 3.83234e-22 0.000256029)
(0.000291682 -5.5688e-05 -7.64611e-07 0.000291682 4.60322e-20 0.000291682)
(0.000291682 -5.5688e-05 -7.64611e-07 0.000291682 4.77356e-22 0.000291682)
(0.000331082 -6.76914e-05 -9.46486e-07 0.000331082 5.62444e-20 0.000331082)
(0.000331082 -6.76914e-05 -9.46486e-07 0.000331082 5.72545e-22 0.000331082)
(0.000374463 -8.17372e-05 -1.16382e-06 0.000374463 6.81082e-20 0.000374463)
(0.000374463 -8.17372e-05 -1.16382e-06 0.000374463 7.50296e-22 0.000374463)
(0.00042205 -9.80521e-05 -1.42165e-06 0.00042205 8.17469e-20 0.00042205)
(0.00042205 -9.80521e-05 -1.42165e-06 0.00042205 9.6062e-22 0.00042205)
(0.00047405 -0.000116862 -1.72527e-06 0.00047405 9.71466e-20 0.00047405)
(0.00047405 -0.000116862 -1.72527e-06 0.00047405 1.07337e-21 0.00047405)
(0.000530654 -0.000138384 -2.08019e-06 0.000530654 1.14385e-19 0.000530654)
(0.000530654 -0.000138384 -2.08019e-06 0.000530654 1.41033e-21 0.000530654)
(0.000592021 -0.000162821 -2.49199e-06 0.000592021 1.33528e-19 0.000592021)
(0.000592021 -0.000162821 -2.49199e-06 0.000592021 1.95153e-21 0.000592021)
(0.000658283 -0.000190354 -2.96617e-06 0.000658283 1.54325e-19 0.000658283)
(0.000658283 -0.000190354 -2.96617e-06 0.000658283 2.28153e-21 0.000658283)
(0.000729528 -0.000221133 -3.50809e-06 0.000729528 1.76575e-19 0.000729528)
(0.000729528 -0.000221133 -3.50809e-06 0.000729528 2.58956e-21 0.000729528)
(0.000805803 -0.000255268 -4.12271e-06 0.000805803 2.00049e-19 0.000805803)
(0.000805803 -0.000255268 -4.12271e-06 0.000805803 3.05622e-21 0.000805803)
(0.000887106 -0.000292826 -4.81452e-06 0.000887106 2.24673e-19 0.000887106)
(0.000887106 -0.000292826 -4.81452e-06 0.000887106 3.694e-21 0.000887106)
(0.000973381 -0.000333822 -5.58734e-06 0.000973381 2.49576e-19 0.000973381)
(0.000973381 -0.000333822 -5.58734e-06 0.000973381 4.36783e-21 0.000973381)
(0.00106452 -0.000378217 -6.44423e-06 0.00106452 2.74224e-19 0.00106452)
(0.00106452 -0.000378217 -6.44423e-06 0.00106452 5.52233e-21 0.00106452)
(0.00116036 -0.000425917 -7.38737e-06 0.00116036 2.99174e-19 0.00116036)
(0.00116036 -0.000425917 -7.38737e-06 0.00116036 7.86725e-21 0.00116036)
(0.00126067 -0.00047677 -8.41798e-06 0.00126067 3.23535e-19 0.00126067)
(0.00126067 -0.00047677 -8.41798e-06 0.00126067 9.81222e-21 0.00126067)
(0.00136519 -0.000530575 -9.53633e-06 0.00136519 3.46742e-19 0.00136519)
(0.00136519 -0.000530575 -9.53633e-06 0.00136519 1.05637e-20 0.00136519)
(0.00147359 -0.000587081 -1.07417e-05 0.00147359 3.68529e-19 0.00147359)
(0.00147359 -0.000587081 -1.07417e-05 0.00147359 1.19221e-20 0.00147359)
(0.00158551 -0.000646 -1.20325e-05 0.00158551 3.88901e-19 0.00158551)
(0.00158551 -0.000646 -1.20325e-05 0.00158551 1.55642e-20 0.00158551)
(0.00170056 -0.00070701 -1.34062e-05 0.00170056 4.0756e-19 0.00170056)
(0.00170056 -0.00070701 -1.34062e-05 0.00170056 1.87728e-20 0.00170056)
(0.0018183 -0.000769767 -1.48597e-05 0.0018183 4.24118e-19 0.0018183)
(0.0018183 -0.000769767 -1.48597e-05 0.0018183 2.24165e-20 0.0018183)
(0.00193829 -0.000833916 -1.63892e-05 0.00193829 4.38902e-19 0.00193829)
(0.00193829 -0.000833916 -1.63892e-05 0.00193829 2.47234e-20 0.00193829)
(0.00206007 -0.000899097 -1.79905e-05 0.00206007 4.50477e-19 0.00206007)
(0.00206007 -0.000899097 -1.79905e-05 0.00206007 2.57328e-20 0.00206007)
(0.00218319 -0.000964955 -1.9659e-05 0.00218319 4.60185e-19 0.00218319)
(0.00218319 -0.000964955 -1.9659e-05 0.00218319 3.24558e-20 0.00218319)
(0.00230718 -0.00103115 -2.139e-05 0.00230718 4.6892e-19 0.00230718)
(0.00230718 -0.00103115 -2.139e-05 0.00230718 3.95585e-20 0.00230718)
(0.0024316 -0.00109736 -2.31787e-05 0.0024316 4.78692e-19 0.0024316)
(0.0024316 -0.00109736 -2.31787e-05 0.0024316 4.04416e-20 0.0024316)
(0.00255604 -0.00116327 -2.50205e-05 0.00255604 4.89419e-19 0.00255604)
(0.00255604 -0.00116327 -2.50205e-05 0.00255604 3.95889e-20 0.00255604)
(0.00268008 -0.00122863 -2.69107e-05 0.00268008 5.01177e-19 0.00268008)
(0.00268008 -0.00122863 -2.69107e-05 0.00268008 4.46092e-20 0.00268008)
(0.00280335 -0.00129319 -2.8845e-05 0.00280335 5.13479e-19 0.00280335)
(0.00280335 -0.00129319 -2.8845e-05 0.00280335 6.59114e-20 0.00280335)
(0.00292551 -0.00135673 -3.08195e-05 0.00292551 5.25642e-19 0.00292551)
(0.00292551 -0.00135673 -3.08195e-05 0.00292551 7.6843e-20 0.00292551)
(0.00304625 -0.00141907 -3.28302e-05 0.00304625 5.38437e-19 0.00304625)
(0.00304625 -0.00141907 -3.28302e-05 0.00304625 8.13897e-20 0.00304625)
(0.00316528 -0.00148006 -3.4874e-05 0.00316528 5.54505e-19 0.00316528)
(0.00316528 -0.00148006 -3.4874e-05 0.00316528 8.33094e-20 0.00316528)
(0.00328235 -0.00153956 -3.69478e-05 0.00328235 5.75513e-19 0.00328235)
(0.00328235 -0.00153956 -3.69478e-05 0.00328235 9.57563e-20 0.00328235)
(0.00339726 -0.00159749 -3.9049e-05 0.00339726 5.97546e-19 0.00339726)
(0.00339726 -0.00159749 -3.9049e-05 0.00339726 1.00596e-19 0.00339726)
(0.00350982 -0.00165376 -4.11752e-05 0.00350982 6.20173e-19 0.00350982)
(0.00350982 -0.00165376 -4.11752e-05 0.00350982 1.06228e-19 0.00350982)
(0.00361987 -0.00170831 -4.33245e-05 0.00361987 6.48723e-19 0.00361987)
(0.00361987 -0.00170831 -4.33245e-05 0.00361987 1.37289e-19 0.00361987)
(0.00372729 -0.00176111 -4.54953e-05 0.00372729 6.7102e-19 0.00372729)
(0.00372729 -0.00176111 -4.54953e-05 0.00372729 1.47106e-19 0.00372729)
(0.00383197 -0.00181214 -4.76862e-05 0.00383197 7.25611e-19 0.00383197)
(0.00383197 -0.00181214 -4.76862e-05 0.00383197 1.58327e-19 0.00383197)
(0.00393385 -0.00186138 -4.98962e-05 0.00393385 7.5469e-19 0.00393385)
(0.00393385 -0.00186138 -4.98962e-05 0.00393385 1.75234e-19 0.00393385)
(0.00403286 -0.00190885 -5.21245e-05 0.00403286 8.02228e-19 0.00403286)
(0.00403286 -0.00190885 -5.21245e-05 0.00403286 1.90085e-19 0.00403286)
(0.00412898 -0.00195457 -5.43705e-05 0.00412898 8.50492e-19 0.00412898)
(0.00412898 -0.00195457 -5.43705e-05 0.00412898 1.98584e-19 0.00412898)
(0.00422217 -0.00199854 -5.66338e-05 0.00422217 8.95458e-19 0.00422217)
(0.00422217 -0.00199854 -5.66338e-05 0.00422217 2.15931e-19 0.00422217)
(0.00431245 -0.00204081 -5.89141e-05 0.00431245 9.53797e-19 0.00431245)
(0.00431245 -0.00204081 -5.89141e-05 0.00431245 2.61097e-19 0.00431245)
(0.00439981 -0.00208142 -6.12115e-05 0.00439981 1.01506e-18 0.00439981)
(0.00439981 -0.00208142 -6.12115e-05 0.00439981 2.86896e-19 0.00439981)
(0.00448428 -0.00212039 -6.3526e-05 0.00448428 1.07901e-18 0.00448428)
(0.00448428 -0.00212039 -6.3526e-05 0.00448428 2.89005e-19 0.00448428)
(0.00456589 -0.00215777 -6.58579e-05 0.00456589 1.14917e-18 0.00456589)
(0.00456589 -0.00215777 -6.58579e-05 0.00456589 3.10574e-19 0.00456589)
(0.00464468 -0.00219362 -6.82074e-05 0.00464468 1.22695e-18 0.00464468)
(0.00464468 -0.00219362 -6.82074e-05 0.00464468 3.37119e-19 0.00464468)
(0.00472069 -0.00222797 -7.0575e-05 0.00472069 1.29676e-18 0.00472069)
(0.00472069 -0.00222797 -7.0575e-05 0.00472069 3.68379e-19 0.00472069)
(0.00479398 -0.00226088 -7.29611e-05 0.00479398 1.36184e-18 0.00479398)
(0.00479398 -0.00226088 -7.29611e-05 0.00479398 4.2049e-19 0.00479398)
(0.0048646 -0.0022924 -7.53663e-05 0.0048646 1.45267e-18 0.0048646)
(0.0048646 -0.0022924 -7.53663e-05 0.0048646 4.30165e-19 0.0048646)
(0.00493261 -0.00232256 -7.77912e-05 0.00493261 1.55842e-18 0.00493261)
(0.00493261 -0.00232256 -7.77912e-05 0.00493261 4.17349e-19 0.00493261)
(0.00499808 -0.00235143 -8.02364e-05 0.00499808 1.65333e-18 0.00499808)
(0.00499808 -0.00235143 -8.02364e-05 0.00499808 5.02093e-19 0.00499808)
(0.00506106 -0.00237904 -8.27027e-05 0.00506106 1.74466e-18 0.00506106)
(0.00506106 -0.00237904 -8.27027e-05 0.00506106 6.19983e-19 0.00506106)
(0.00512163 -0.00240545 -8.51906e-05 0.00512163 1.84584e-18 0.00512163)
(0.00512163 -0.00240545 -8.51906e-05 0.00512163 6.3102e-19 0.00512163)
(0.00517985 -0.00243069 -8.77011e-05 0.00517985 1.96296e-18 0.00517985)
(0.00517985 -0.00243069 -8.77011e-05 0.00517985 6.18232e-19 0.00517985)
(0.00523578 -0.00245482 -9.02349e-05 0.00523578 2.06978e-18 0.00523578)
(0.00523578 -0.00245482 -9.02349e-05 0.00523578 6.9866e-19 0.00523578)
(0.00528949 -0.00247788 -9.27927e-05 0.00528949 2.22081e-18 0.00528949)
(0.00528949 -0.00247788 -9.27927e-05 0.00528949 7.39676e-19 0.00528949)
(0.00534106 -0.00249991 -9.53754e-05 0.00534106 2.38949e-18 0.00534106)
(0.00534106 -0.00249991 -9.53754e-05 0.00534106 7.46101e-19 0.00534106)
(0.00539054 -0.00252094 -9.79837e-05 0.00539054 2.51286e-18 0.00539054)
(0.00539054 -0.00252094 -9.79837e-05 0.00539054 8.2446e-19 0.00539054)
(0.00543799 -0.00254101 -0.000100619 0.00543799 2.62083e-18 0.00543799)
(0.00543799 -0.00254101 -0.000100619 0.00543799 8.73774e-19 0.00543799)
(0.00548348 -0.00256017 -0.000103281 0.00548348 1.67823e-19 0.00548348)
(0.00548348 -0.00256017 -0.000103281 0.00548348 8.96215e-19 0.00548348)
(0.00552708 -0.00257845 -0.000105971 0.00552708 -6.54742e-19 0.00552708)
(0.00552708 -0.00257845 -0.000105971 0.00552708 1.00197e-18 0.00552708)
(0.00556883 -0.00259588 -0.00010869 0.00556883 -7.94909e-19 0.00556883)
(0.00556883 -0.00259588 -0.00010869 0.00556883 1.09048e-18 0.00556883)
(0.0056088 -0.00261249 -0.000111439 0.0056088 -6.88363e-19 0.0056088)
(0.0056088 -0.00261249 -0.000111439 0.0056088 1.14313e-18 0.0056088)
(0.00564705 -0.00262831 -0.000114219 0.00564705 -6.36914e-19 0.00564705)
(0.00564705 -0.00262831 -0.000114219 0.00564705 1.19737e-18 0.00564705)
(0.00568363 -0.00264338 -0.00011703 0.00568363 -5.40006e-19 0.00568363)
(0.00568363 -0.00264338 -0.00011703 0.00568363 1.19718e-18 0.00568363)
(0.00571859 -0.00265771 -0.000119873 0.00571859 -4.87508e-19 0.00571859)
(0.00571859 -0.00265771 -0.000119873 0.00571859 1.23334e-18 0.00571859)
(0.00575198 -0.00267135 -0.00012275 0.00575198 -5.48899e-19 0.00575198)
(0.00575198 -0.00267135 -0.00012275 0.00575198 1.43889e-18 0.00575198)
(0.00578386 -0.00268431 -0.00012566 0.00578386 -4.62017e-19 0.00578386)
(0.00578386 -0.00268431 -0.00012566 0.00578386 1.61689e-18 0.00578386)
(0.00581426 -0.00269661 -0.000128605 0.00581426 -3.16651e-19 0.00581426)
(0.00581426 -0.00269661 -0.000128605 0.00581426 1.51958e-18 0.00581426)
(0.00584324 -0.00270829 -0.000131585 0.00584324 -3.47252e-19 0.00584324)
(0.00584324 -0.00270829 -0.000131585 0.00584324 1.62544e-18 0.00584324)
(0.00587084 -0.00271936 -0.000134602 0.00587084 -4.47672e-19 0.00587084)
(0.00587084 -0.00271936 -0.000134602 0.00587084 1.80717e-18 0.00587084)
(0.00589709 -0.00272984 -0.000137656 0.00589709 -4.57725e-19 0.00589709)
(0.00589709 -0.00272984 -0.000137656 0.00589709 1.9023e-18 0.00589709)
(0.00592205 -0.00273975 -0.000140747 0.00592205 -5.12644e-19 0.00592205)
(0.00592205 -0.00273975 -0.000140747 0.00592205 1.95902e-18 0.00592205)
(0.00594575 -0.00274912 -0.000143877 0.00594575 -9.00252e-19 0.00594575)
(0.00594575 -0.00274912 -0.000143877 0.00594575 1.74878e-18 0.00594575)
(0.00596823 -0.00275795 -0.000147047 0.00596823 -1.18757e-18 0.00596823)
(0.00596823 -0.00275795 -0.000147047 0.00596823 1.92317e-18 0.00596823)
(0.00598952 -0.00276627 -0.000150257 0.00598952 -1.33268e-18 0.00598952)
(0.00598952 -0.00276627 -0.000150257 0.00598952 2.17871e-18 0.00598952)
(0.00600965 -0.00277409 -0.000153507 0.00600965 -1.3821e-18 0.00600965)
(0.00600965 -0.00277409 -0.000153507 0.00600965 2.30977e-18 0.00600965)
(0.00602867 -0.00278143 -0.000156799 0.00602867 -1.17743e-18 0.00602867)
(0.00602867 -0.00278143 -0.000156799 0.00602867 2.5765e-18 0.00602867)
(0.00604659 -0.00278829 -0.000160133 0.00604659 -1.05274e-18 0.00604659)
(0.00604659 -0.00278829 -0.000160133 0.00604659 2.71584e-18 0.00604659)
(0.00606345 -0.00279471 -0.000163511 0.00606345 -1.0284e-18 0.00606345)
(0.00606345 -0.00279471 -0.000163511 0.00606345 2.6976e-18 0.00606345)
(0.00607928 -0.00280067 -0.000166932 0.00607928 -1.15922e-18 0.00607928)
(0.00607928 -0.00280067 -0.000166932 0.00607928 2.55783e-18 0.00607928)
(0.0060941 -0.00280621 -0.000170397 0.0060941 -1.49206e-18 0.0060941)
(0.0060941 -0.00280621 -0.000170397 0.0060941 2.60857e-18 0.0060941)
(0.00610795 -0.00281133 -0.000173907 0.00610795 -1.98621e-18 0.00610795)
(0.00610795 -0.00281133 -0.000173907 0.00610795 3.00447e-18 0.00610795)
(0.00612083 -0.00281604 -0.000177464 0.00612083 -1.93391e-18 0.00612083)
(0.00612083 -0.00281604 -0.000177464 0.00612083 3.11106e-18 0.00612083)
(0.00613279 -0.00282035 -0.000181066 0.00613279 -1.24646e-18 0.00613279)
(0.00613279 -0.00282035 -0.000181066 0.00613279 3.11243e-18 0.00613279)
(0.00614383 -0.00282427 -0.000184716 0.00614383 -1.42921e-18 0.00614383)
(0.00614383 -0.00282427 -0.000184716 0.00614383 3.44849e-18 0.00614383)
(0.00615398 -0.00282782 -0.000188413 0.00615398 -1.55535e-18 0.00615398)
(0.00615398 -0.00282782 -0.000188413 0.00615398 3.76568e-18 0.00615398)
(0.00616327 -0.00283099 -0.000192158 0.00616327 -7.00975e-19 0.00616327)
(0.00616327 -0.00283099 -0.000192158 0.00616327 4.19143e-18 0.00616327)
(0.0061717 -0.00283379 -0.000195952 0.0061717 -7.37693e-19 0.0061717)
(0.0061717 -0.00283379 -0.000195952 0.0061717 3.63724e-18 0.0061717)
(0.0061793 -0.00283624 -0.000199795 0.0061793 -1.23644e-18 0.0061793)
(0.0061793 -0.00283624 -0.000199795 0.0061793 3.86996e-18 0.0061793)
(0.00618608 -0.00283835 -0.000203689 0.00618608 -1.43946e-18 0.00618608)
(0.00618608 -0.00283835 -0.000203689 0.00618608 4.48214e-18 0.00618608)
(0.00619206 -0.00284011 -0.000207632 0.00619206 -1.32724e-18 0.00619206)
(0.00619206 -0.00284011 -0.000207632 0.00619206 4.48802e-18 0.00619206)
(0.00619726 -0.00284153 -0.000211627 0.00619726 -1.50476e-18 0.00619726)
(0.00619726 -0.00284153 -0.000211627 0.00619726 4.5095e-18 0.00619726)
(0.00620169 -0.00284262 -0.000215673 0.00620169 -1.80538e-18 0.00620169)
(0.00620169 -0.00284262 -0.000215673 0.00620169 5.04118e-18 0.00620169)
(0.00620536 -0.00284339 -0.000219771 0.00620536 -1.16726e-18 0.00620536)
(0.00620536 -0.00284339 -0.000219771 0.00620536 5.22302e-18 0.00620536)
(0.00620829 -0.00284383 -0.000223921 0.00620829 -1.63915e-18 0.00620829)
(0.00620829 -0.00284383 -0.000223921 0.00620829 5.50232e-18 0.00620829)
(0.00621049 -0.00284397 -0.000228124 0.00621049 -2.20148e-18 0.00621049)
(0.00621049 -0.00284397 -0.000228124 0.00621049 5.95691e-18 0.00621049)
(0.00621196 -0.00284379 -0.00023238 0.00621196 -1.92245e-18 0.00621196)
(0.00621196 -0.00284379 -0.00023238 0.00621196 6.15066e-18 0.00621196)
(0.00621273 -0.0028433 -0.00023669 0.00621273 -1.89318e-18 0.00621273)
(0.00621273 -0.0028433 -0.00023669 0.00621273 5.88452e-18 0.00621273)
(0.00621279 -0.0028425 -0.000241054 0.00621279 -2.5453e-18 0.00621279)
(0.00621279 -0.0028425 -0.000241054 0.00621279 6.38472e-18 0.00621279)
(0.00621217 -0.00284141 -0.000245471 0.00621217 -2.23935e-18 0.00621217)
(0.00621217 -0.00284141 -0.000245471 0.00621217 7.09975e-18 0.00621217)
(0.00621086 -0.00284002 -0.000249943 0.00621086 -1.00989e-18 0.00621086)
(0.00621086 -0.00284002 -0.000249943 0.00621086 6.96307e-18 0.00621086)
(0.00620888 -0.00283834 -0.00025447 0.00620888 -1.66307e-18 0.00620888)
(0.00620888 -0.00283834 -0.00025447 0.00620888 6.8608e-18 0.00620888)
(0.00620623 -0.00283636 -0.000259052 0.00620623 -2.1874e-18 0.00620623)
(0.00620623 -0.00283636 -0.000259052 0.00620623 7.70867e-18 0.00620623)
(0.00620292 -0.00283409 -0.000263688 0.00620292 -1.91308e-18 0.00620292)
(0.00620292 -0.00283409 -0.000263688 0.00620292 8.06301e-18 0.00620292)
(0.00619896 -0.00283153 -0.00026838 0.00619896 -1.84944e-18 0.00619896)
(0.00619896 -0.00283153 -0.00026838 0.00619896 7.58027e-18 0.00619896)
(0.00619435 -0.00282869 -0.000273127 0.00619435 -2.10727e-18 0.00619435)
(0.00619435 -0.00282869 -0.000273127 0.00619435 9.04737e-18 0.00619435)
(0.0061891 -0.00282556 -0.000277929 0.0061891 -1.59286e-18 0.0061891)
(0.0061891 -0.00282556 -0.000277929 0.0061891 9.66625e-18 0.0061891)
(0.00618322 -0.00282214 -0.000282787 0.00618322 -2.42132e-19 0.00618322)
(0.00618322 -0.00282214 -0.000282787 0.00618322 1.12773e-17 0.00618322)
(0.0061767 -0.00281844 -0.000287699 0.0061767 1.25758e-19 0.0061767)
(0.0061767 -0.00281844 -0.000287699 0.0061767 9.7548e-18 0.0061767)
(0.00616955 -0.00281446 -0.000292667 0.00616955 -1.15847e-18 0.00616955)
(0.00616955 -0.00281446 -0.000292667 0.00616955 1.10086e-17 0.00616955)
(0.00616178 -0.0028102 -0.00029769 0.00616178 -1.25299e-18 0.00616178)
(0.00616178 -0.0028102 -0.00029769 0.00616178 1.22503e-17 0.00616178)
(0.00615339 -0.00280565 -0.000302767 0.00615339 2.68249e-20 0.00615339)
(0.00615339 -0.00280565 -0.000302767 0.00615339 1.33325e-17 0.00615339)
(0.00614437 -0.00280083 -0.000307899 0.00614437 1.03407e-18 0.00614437)
(0.00614437 -0.00280083 -0.000307899 0.00614437 1.3281e-17 0.00614437)
(0.00613474 -0.00279572 -0.000313085 0.00613474 2.04533e-18 0.00613474)
(0.00613474 -0.00279572 -0.000313085 0.00613474 1.41496e-17 0.00613474)
(0.0061245 -0.00279033 -0.000318325 0.0061245 2.1468e-18 0.0061245)
(0.0061245 -0.00279033 -0.000318325 0.0061245 1.30819e-17 0.0061245)
(0.00611364 -0.00278465 -0.000323618 0.00611364 8.31743e-19 0.00611364)
(0.00611364 -0.00278465 -0.000323618 0.00611364 1.19675e-17 0.00611364)
(0.00610217 -0.0027787 -0.000328964 0.00610217 -1.19825e-18 0.00610217)
(0.00610217 -0.0027787 -0.000328964 0.00610217 1.39563e-17 0.00610217)
(0.00609009 -0.00277245 -0.000334362 0.00609009 -2.05058e-18 0.00609009)
(0.00609009 -0.00277245 -0.000334362 0.00609009 1.49502e-17 0.00609009)
(0.00607739 -0.00276593 -0.000339811 0.00607739 -4.59291e-18 0.00607739)
(0.00607739 -0.00276593 -0.000339811 0.00607739 1.54496e-17 0.00607739)
(0.00606409 -0.00275911 -0.000345311 0.00606409 -4.22857e-18 0.00606409)
(0.00606409 -0.00275911 -0.000345311 0.00606409 1.62626e-17 0.00606409)
(0.00605017 -0.00275201 -0.000350861 0.00605017 2.62244e-20 0.00605017)
(0.00605017 -0.00275201 -0.000350861 0.00605017 1.84141e-17 0.00605017)
(0.00603565 -0.00274462 -0.000356459 0.00603565 1.64177e-18 0.00603565)
(0.00603565 -0.00274462 -0.000356459 0.00603565 1.811e-17 0.00603565)
(0.00602051 -0.00273694 -0.000362105 0.00602051 3.66056e-19 0.00602051)
(0.00602051 -0.00273694 -0.000362105 0.00602051 1.637e-17 0.00602051)
(0.00600475 -0.00272896 -0.000367798 0.00600475 -1.18659e-18 0.00600475)
(0.00600475 -0.00272896 -0.000367798 0.00600475 1.65386e-17 0.00600475)
(0.00598838 -0.00272069 -0.000373536 0.00598838 -3.64664e-18 0.00598838)
(0.00598838 -0.00272069 -0.000373536 0.00598838 1.81207e-17 0.00598838)
(0.0059714 -0.00271213 -0.000379318 0.0059714 -2.23865e-18 0.0059714)
(0.0059714 -0.00271213 -0.000379318 0.0059714 1.8873e-17 0.0059714)
(0.00595379 -0.00270326 -0.000385143 0.00595379 -2.99723e-18 0.00595379)
(0.00595379 -0.00270326 -0.000385143 0.00595379 2.26358e-17 0.00595379)
(0.00593556 -0.00269409 -0.000391009 0.00593556 -2.15154e-18 0.00593556)
(0.00593556 -0.00269409 -0.000391009 0.00593556 2.15839e-17 0.00593556)
(0.00591671 -0.00268462 -0.000396914 0.00591671 -3.9685e-18 0.00591671)
(0.00591671 -0.00268462 -0.000396914 0.00591671 2.03892e-17 0.00591671)
(0.00589723 -0.00267484 -0.000402856 0.00589723 -5.91526e-18 0.00589723)
(0.00589723 -0.00267484 -0.000402856 0.00589723 2.12323e-17 0.00589723)
(0.00587712 -0.00266475 -0.000408834 0.00587712 -7.39124e-18 0.00587712)
(0.00587712 -0.00266475 -0.000408834 0.00587712 2.54027e-17 0.00587712)
(0.00585637 -0.00265434 -0.000414845 0.00585637 -1.02009e-17 0.00585637)
(0.00585637 -0.00265434 -0.000414845 0.00585637 2.68252e-17 0.00585637)
(0.00583499 -0.00264362 -0.000420887 0.00583499 -1.08957e-17 0.00583499)
(0.00583499 -0.00264362 -0.000420887 0.00583499 2.76113e-17 0.00583499)
(0.00581297 -0.00263258 -0.000426957 0.00581297 -8.69351e-18 0.00581297)
(0.00581297 -0.00263258 -0.000426957 0.00581297 2.53695e-17 0.00581297)
(0.0057903 -0.00262122 -0.000433054 0.0057903 -5.56302e-18 0.0057903)
(0.0057903 -0.00262122 -0.000433054 0.0057903 2.55054e-17 0.0057903)
(0.00576698 -0.00260953 -0.000439173 0.00576698 -6.97026e-18 0.00576698)
(0.00576698 -0.00260953 -0.000439173 0.00576698 2.49961e-17 0.00576698)
(0.005743 -0.00259751 -0.000445313 0.005743 -6.79994e-18 0.005743)
(0.005743 -0.00259751 -0.000445313 0.005743 2.53782e-17 0.005743)
(0.00571836 -0.00258515 -0.00045147 0.00571836 -3.72762e-19 0.00571836)
(0.00571836 -0.00258515 -0.00045147 0.00571836 2.72471e-17 0.00571836)
(0.00569306 -0.00257246 -0.000457641 0.00569306 -6.9318e-19 0.00569306)
(0.00569306 -0.00257246 -0.000457641 0.00569306 2.86967e-17 0.00569306)
(0.00566709 -0.00255943 -0.000463821 0.00566709 -6.84938e-18 0.00566709)
(0.00566709 -0.00255943 -0.000463821 0.00566709 3.0552e-17 0.00566709)
(0.00564044 -0.00254604 -0.000470009 0.00564044 -7.51213e-18 0.00564044)
(0.00564044 -0.00254604 -0.000470009 0.00564044 3.04278e-17 0.00564044)
(0.00561311 -0.00253231 -0.000476199 0.00561311 -5.63118e-18 0.00561311)
(0.00561311 -0.00253231 -0.000476199 0.00561311 3.06237e-17 0.00561311)
(0.00558509 -0.00251822 -0.000482387 0.00558509 -6.03553e-18 0.00558509)
(0.00558509 -0.00251822 -0.000482387 0.00558509 3.01539e-17 0.00558509)
(0.00555638 -0.00250377 -0.000488569 0.00555638 -4.55232e-18 0.00555638)
(0.00555638 -0.00250377 -0.000488569 0.00555638 2.95747e-17 0.00555638)
(0.00552696 -0.00248895 -0.000494741 0.00552696 -9.4293e-18 0.00552696)
(0.00552696 -0.00248895 -0.000494741 0.00552696 3.25538e-17 0.00552696)
(0.00549684 -0.00247377 -0.000500897 0.00549684 -1.12458e-17 0.00549684)
(0.00549684 -0.00247377 -0.000500897 0.00549684 3.25512e-17 0.00549684)
(0.005466 -0.00245821 -0.000507032 0.005466 -9.21291e-19 0.005466)
(0.005466 -0.00245821 -0.000507032 0.005466 3.18686e-17 0.005466)
(0.00543444 -0.00244227 -0.00051314 0.00543444 6.31541e-18 0.00543444)
(0.00543444 -0.00244227 -0.00051314 0.00543444 3.49623e-17 0.00543444)
(0.00540215 -0.00242594 -0.000519216 0.00540215 6.02894e-18 0.00540215)
(0.00540215 -0.00242594 -0.000519216 0.00540215 3.31603e-17 0.00540215)
(0.00536913 -0.00240922 -0.000525254 0.00536913 5.42463e-18 0.00536913)
(0.00536913 -0.00240922 -0.000525254 0.00536913 2.56577e-17 0.00536913)
(0.00533536 -0.0023921 -0.000531247 0.00533536 3.29327e-18 0.00533536)
(0.00533536 -0.0023921 -0.000531247 0.00533536 2.28546e-17 0.00533536)
(0.00530084 -0.00237458 -0.000537188 0.00530084 5.78906e-18 0.00530084)
(0.00530084 -0.00237458 -0.000537188 0.00530084 2.05221e-17 0.00530084)
(0.00526556 -0.00235666 -0.000543071 0.00526556 3.89395e-18 0.00526556)
(0.00526556 -0.00235666 -0.000543071 0.00526556 1.77738e-17 0.00526556)
(0.00522952 -0.00233831 -0.000548888 0.00522952 -9.62915e-19 0.00522952)
(0.00522952 -0.00233831 -0.000548888 0.00522952 2.67349e-17 0.00522952)
(0.0051927 -0.00231955 -0.00055463 0.0051927 -2.8922e-18 0.0051927)
(0.0051927 -0.00231955 -0.00055463 0.0051927 3.39261e-17 0.0051927)
(0.00515509 -0.00230036 -0.000560291 0.00515509 -2.15154e-18 0.00515509)
(0.00515509 -0.00230036 -0.000560291 0.00515509 3.46366e-17 0.00515509)
(0.0051167 -0.00228073 -0.00056586 0.0051167 8.66418e-19 0.0051167)
(0.0051167 -0.00228073 -0.00056586 0.0051167 2.12987e-17 0.0051167)
(0.0050775 -0.00226067 -0.000571329 0.0050775 4.99891e-18 0.0050775)
(0.0050775 -0.00226067 -0.000571329 0.0050775 1.24381e-17 0.0050775)
(0.0050375 -0.00224016 -0.000576689 0.0050375 8.04148e-18 0.0050375)
(0.0050375 -0.00224016 -0.000576689 0.0050375 8.99506e-18 0.0050375)
(0.00499669 -0.00221919 -0.000581928 0.00499669 1.66612e-18 0.00499669)
(0.00499669 -0.00221919 -0.000581928 0.00499669 7.07119e-18 0.00499669)
(0.00495505 -0.00219776 -0.000587038 0.00495505 2.57602e-20 0.00495505)
(0.00495505 -0.00219776 -0.000587038 0.00495505 4.70192e-18 0.00495505)
(0.00491258 -0.00217587 -0.000592006 0.00491258 -4.33532e-19 0.00491258)
(0.00491258 -0.00217587 -0.000592006 0.00491258 1.04031e-17 0.00491258)
(0.00486926 -0.00215349 -0.000596822 0.00486926 9.87209e-19 0.00486926)
(0.00486926 -0.00215349 -0.000596822 0.00486926 1.44753e-17 0.00486926)
(0.00482511 -0.00213064 -0.000601472 0.00482511 6.99437e-18 0.00482511)
(0.00482511 -0.00213064 -0.000601472 0.00482511 7.81834e-33 0.00482511)
(0.0047801 -0.00210729 -0.000605945 0.0047801 7.22749e-18 0.0047801)
(0.0047801 -0.00210729 -0.000605945 0.0047801 3.39644e-18 0.0047801)
(0.00473422 -0.00208344 -0.000610227 0.00473422 9.85905e-18 0.00473422)
(0.00473422 -0.00208344 -0.000610227 0.00473422 9.55663e-18 0.00473422)
(0.00468748 -0.00205909 -0.000614304 0.00468748 1.17628e-17 0.00468748)