/*--------------------------------*- C++ -*----------------------------------*\
| =========                 |                                                 |
| \\      /  F ield         | OpenFOAM: The Open Source CFD Toolbox           |
|  \\    /   O peration     | Version:  2106                                  |
|   \\  /    A nd           | Website:  www.openfoam.com                      |
|    \\/     M anipulation  |                                                 |
\*---------------------------------------------------------------------------*/
FoamFile
{
    version     2.0;
    format      ascii;
    arch        "LSB;label=32;scalar=64";
    class       volVectorField;
    location    "10040";
    object      U;
}
// * * * * * * * * * * * * * * * * * * * * * * * * * * * * * * * * * * * * * //

dimensions      [0 1 -1 0 0 0 0];

internalField   nonuniform List<vector> 
2000
(
(0.00220416 -5.43755e-16 -1.14799e-17)
(0.00220416 1.77851e-19 -9.32612e-22)
(0.00665278 -2.13559e-15 -3.63219e-17)
(0.00665278 -6.01949e-19 -5.27893e-22)
(0.0111836 -2.03242e-15 -3.85325e-17)
(0.0111836 -7.40689e-19 -2.62322e-21)
(0.015798 -1.8489e-15 -4.0462e-17)
(0.015798 -1.14535e-18 -2.78767e-21)
(0.0204977 -1.89241e-15 -4.25874e-17)
(0.0204977 -1.56639e-18 -2.39536e-21)
(0.0252841 -1.89902e-15 -4.48717e-17)
(0.0252841 -2.01302e-18 -1.4996e-21)
(0.0301589 -1.90172e-15 -4.72686e-17)
(0.0301589 -2.48479e-18 -6.1959e-22)
(0.0351236 -1.90065e-15 -4.97713e-17)
(0.0351236 -2.94589e-18 -2.13869e-22)
(0.0401798 -1.89963e-15 -5.23856e-17)
(0.0401798 -3.42183e-18 7.79726e-22)
(0.0453293 -1.89898e-15 -5.51142e-17)
(0.0453293 -3.91752e-18 2.74507e-21)
(0.0505737 -1.89836e-15 -5.79596e-17)
(0.0505737 -4.43313e-18 4.59513e-21)
(0.0559148 -1.89766e-15 -6.09243e-17)
(0.0559148 -4.97597e-18 5.7913e-21)
(0.0613542 -1.89682e-15 -6.40116e-17)
(0.0613542 -5.56696e-18 7.12627e-21)
(0.0668937 -1.8959e-15 -6.72256e-17)
(0.0668937 -6.14855e-18 9.43692e-21)
(0.0725351 -1.89495e-15 -7.05704e-17)
(0.0725351 -6.68641e-18 1.19661e-20)
(0.0782802 -1.89404e-15 -7.40505e-17)
(0.0782802 -7.25549e-18 1.67537e-20)
(0.0841308 -1.89316e-15 -7.76711e-17)
(0.0841308 -7.81342e-18 2.08084e-20)
(0.0900886 -1.89216e-15 -8.14367e-17)
(0.0900886 -8.40636e-18 2.44287e-20)
(0.0961556 -1.8911e-15 -8.53519e-17)
(0.0961556 -9.08768e-18 3.0348e-20)
(0.102333 -1.89002e-15 -8.94213e-17)
(0.102333 -9.7401e-18 3.66516e-20)
(0.108624 -1.88893e-15 -9.36494e-17)
(0.108624 -1.03845e-17 3.88911e-20)
(0.115029 -1.8878e-15 -9.80411e-17)
(0.115029 -1.11326e-17 4.33491e-20)
(0.121549 -1.88656e-15 -1.026e-16)
(0.121549 -1.19398e-17 4.85645e-20)
(0.128188 -1.88533e-15 -1.07329e-16)
(0.128188 -1.26996e-17 5.6045e-20)
(0.134945 -1.88405e-15 -1.12233e-16)
(0.134945 -1.35213e-17 6.55052e-20)
(0.141822 -1.88283e-15 -1.17314e-16)
(0.141822 -1.43212e-17 7.64496e-20)
(0.148821 -1.8817e-15 -1.22574e-16)
(0.148821 -1.50154e-17 8.85319e-20)
(0.155942 -1.88046e-15 -1.28015e-16)
(0.155942 -1.58553e-17 9.85444e-20)
(0.163186 -1.87895e-15 -1.33635e-16)
(0.163186 -1.67566e-17 1.10973e-19)
(0.170553 -1.87727e-15 -1.39433e-16)
(0.170553 -1.77853e-17 1.26808e-19)
(0.178043 -1.87548e-15 -1.45403e-16)
(0.178043 -1.89113e-17 1.38011e-19)
(0.185655 -1.87376e-15 -1.51541e-16)
(0.185655 -1.99557e-17 1.53729e-19)
(0.193389 -1.8722e-15 -1.57841e-16)
(0.193389 -2.10226e-17 1.67275e-19)
(0.201242 -1.87054e-15 -1.64291e-16)
(0.201242 -2.21537e-17 1.83055e-19)
(0.209213 -1.86882e-15 -1.70877e-16)
(0.209213 -2.31416e-17 2.04305e-19)
(0.217298 -1.86702e-15 -1.77584e-16)
(0.217298 -2.4206e-17 2.30594e-19)
(0.225493 -1.86495e-15 -1.84391e-16)
(0.225493 -2.54654e-17 2.51266e-19)
(0.233794 -1.86299e-15 -1.91277e-16)
(0.233794 -2.6302e-17 2.80469e-19)
(0.242195 -1.86118e-15 -1.98218e-16)
(0.242195 -2.71547e-17 3.20585e-19)
(0.250689 -1.85915e-15 -2.05187e-16)
(0.250689 -2.81511e-17 3.45034e-19)
(0.259269 -1.85698e-15 -2.12158e-16)
(0.259269 -2.91792e-17 3.65579e-19)
(0.267927 -1.85478e-15 -2.19095e-16)
(0.267927 -3.05494e-17 3.97718e-19)
(0.276653 -1.85259e-15 -2.25968e-16)
(0.276653 -3.20081e-17 4.37433e-19)
(0.285438 -1.84973e-15 -2.32745e-16)
(0.285438 -3.39156e-17 4.80282e-19)
(0.294269 -1.84682e-15 -2.39389e-16)
(0.294269 -3.52366e-17 5.28963e-19)
(0.303137 -1.84462e-15 -2.45879e-16)
(0.303137 -3.64752e-17 5.80487e-19)
(0.31203 -1.84229e-15 -2.5219e-16)
(0.31203 -3.84311e-17 6.17255e-19)
(0.320935 -1.83968e-15 -2.58297e-16)
(0.320935 -4.00218e-17 6.28336e-19)
(0.32984 -1.83686e-15 -2.64181e-16)
(0.32984 -4.15733e-17 6.46308e-19)
(0.338733 -1.83392e-15 -2.69826e-16)
(0.338733 -4.40599e-17 6.91643e-19)
(0.347603 -1.8308e-15 -2.75222e-16)
(0.347603 -4.67399e-17 7.34116e-19)
(0.356439 -1.82738e-15 -2.80366e-16)
(0.356439 -4.93606e-17 7.5119e-19)
(0.365228 -1.82375e-15 -2.8525e-16)
(0.365228 -5.19151e-17 7.90008e-19)
(0.373962 -1.81986e-15 -2.89878e-16)
(0.373962 -5.47961e-17 8.07701e-19)
(0.38263 -1.81648e-15 -2.94253e-16)
(0.38263 -5.68077e-17 8.93373e-19)
(0.391224 -1.81375e-15 -2.9839e-16)
(0.391224 -5.79006e-17 9.64442e-19)
(0.399737 -1.81147e-15 -3.02298e-16)
(0.399737 -5.93245e-17 9.94699e-19)
(0.408162 -1.80909e-15 -3.05996e-16)
(0.408162 -6.03668e-17 1.01989e-18)
(0.416492 -1.80628e-15 -3.09504e-16)
(0.416492 -6.19789e-17 1.1055e-18)
(0.424724 -1.80284e-15 -3.12841e-16)
(0.424724 -6.39485e-17 1.22048e-18)
(0.432852 -1.79883e-15 -3.16024e-16)
(0.432852 -6.63202e-17 1.31925e-18)
(0.440874 -1.79464e-15 -3.19073e-16)
(0.440874 -6.81311e-17 1.32784e-18)
(0.448786 -1.79078e-15 -3.22006e-16)
(0.448786 -6.95396e-17 1.29734e-18)
(0.456588 -1.78721e-15 -3.24855e-16)
(0.456588 -7.17861e-17 1.36889e-18)
(0.464278 -1.78307e-15 -3.2764e-16)
(0.464278 -7.39757e-17 1.40709e-18)
(0.471855 -1.77856e-15 -3.30362e-16)
(0.471855 -7.61324e-17 1.45065e-18)
(0.479319 -1.7744e-15 -3.33044e-16)
(0.479319 -7.83771e-17 1.54288e-18)
(0.486671 -1.77047e-15 -3.35709e-16)
(0.486671 -8.02109e-17 1.63312e-18)
(0.493911 -1.76847e-15 -3.38385e-16)
(0.493911 -8.17504e-17 1.63765e-18)
(0.501041 -1.76369e-15 -3.41081e-16)
(0.501041 -8.37902e-17 1.6841e-18)
(0.508062 -1.76032e-15 -3.43798e-16)
(0.508062 -8.64714e-17 1.70346e-18)
(0.514974 -1.7563e-15 -3.46549e-16)
(0.514974 -8.80757e-17 1.72931e-18)
(0.521782 -1.75196e-15 -3.49344e-16)
(0.521782 -9.09209e-17 1.74993e-18)
(0.528485 -1.7483e-15 -3.52185e-16)
(0.528485 -9.53255e-17 1.84001e-18)
(0.535086 -1.74457e-15 -3.55097e-16)
(0.535086 -9.86536e-17 1.90812e-18)
(0.541588 -1.74055e-15 -3.58093e-16)
(0.541588 -1.01606e-16 1.84849e-18)
(0.547993 -1.73622e-15 -3.61155e-16)
(0.547993 -1.03674e-16 1.90001e-18)
(0.554303 -1.73149e-15 -3.64302e-16)
(0.554303 -1.06115e-16 1.93656e-18)
(0.56052 -1.72616e-15 -3.67536e-16)
(0.56052 -1.09178e-16 2.00688e-18)
(0.566647 -1.72157e-15 -3.70875e-16)
(0.566647 -1.12614e-16 2.07544e-18)
(0.572686 -1.71839e-15 -3.74325e-16)
(0.572686 -1.17021e-16 2.10824e-18)
(0.578639 -1.71456e-15 -3.77893e-16)
(0.578639 -1.18988e-16 2.05816e-18)
(0.584509 -1.7091e-15 -3.81565e-16)
(0.584509 -1.21992e-16 2.16446e-18)
(0.590298 -1.70358e-15 -3.8535e-16)
(0.590298 -1.28064e-16 2.32165e-18)
(0.596009 -1.69897e-15 -3.89273e-16)
(0.596009 -1.32048e-16 2.23039e-18)
(0.601643 -1.6951e-15 -3.93349e-16)
(0.601643 -1.35818e-16 2.00899e-18)
(0.607203 -1.69121e-15 -3.9759e-16)
(0.607203 -1.40807e-16 2.0363e-18)
(0.612691 -1.68832e-15 -4.0199e-16)
(0.612691 -1.46272e-16 2.0935e-18)
(0.618109 -1.68434e-15 -4.06574e-16)
(0.618109 -1.49708e-16 1.95295e-18)
(0.623459 -1.67847e-15 -4.11343e-16)
(0.623459 -1.54392e-16 1.96568e-18)
(0.628743 -1.6728e-15 -4.16289e-16)
(0.628743 -1.60375e-16 2.01268e-18)
(0.633963 -1.66679e-15 -4.21372e-16)
(0.633963 -1.63835e-16 2.00826e-18)
(0.639121 -1.65851e-15 -4.26515e-16)
(0.639121 -1.69287e-16 1.99164e-18)
(0.644218 -1.65147e-15 -4.25137e-16)
(0.644218 -1.74836e-16 2.15242e-18)
(0.649257 -1.64628e-15 -4.23355e-16)
(0.649257 -1.79332e-16 2.0766e-18)
(0.654239 -1.63899e-15 -4.21631e-16)
(0.654239 -1.84087e-16 2.02043e-18)
(0.659166 -1.6314e-15 -4.20121e-16)
(0.659166 -1.89875e-16 1.9479e-18)
(0.664039 -1.62361e-15 -4.18593e-16)
(0.664039 -1.96154e-16 1.94166e-18)
(0.66886 -1.61472e-15 -4.17451e-16)
(0.66886 -2.02339e-16 2.12822e-18)
(0.673631 -1.60676e-15 -4.16024e-16)
(0.673631 -2.09837e-16 2.26655e-18)
(0.678352 -1.59886e-15 -4.14767e-16)
(0.678352 -2.14712e-16 2.17586e-18)
(0.683026 -1.5901e-15 -4.13664e-16)
(0.683026 -2.19264e-16 1.92304e-18)
(0.687653 -1.58047e-15 -4.12838e-16)
(0.687653 -2.26397e-16 2.45056e-18)
(0.692236 -1.57138e-15 -4.11539e-16)
(0.692236 -2.31977e-16 2.53114e-18)
(0.696774 -1.5647e-15 -4.10434e-16)
(0.696774 -2.36981e-16 2.5415e-18)
(0.701271 -1.56056e-15 -4.09347e-16)
(0.701271 -2.40593e-16 2.29371e-18)
(0.705726 -1.558e-15 -4.08332e-16)
(0.705726 -2.38214e-16 2.63064e-18)
(0.710141 -1.55422e-15 -4.06162e-16)
(0.710141 -2.42991e-16 3.12824e-18)
(0.714516 -1.5493e-15 -4.04143e-16)
(0.714516 -2.46925e-16 3.26849e-18)
(0.718854 -1.5423e-15 -4.0142e-16)
(0.718854 -2.48687e-16 3.2877e-18)
(0.723155 -1.53505e-15 -3.99065e-16)
(0.723155 -2.52529e-16 3.13174e-18)
(0.727421 -1.52951e-15 -3.96976e-16)
(0.727421 -2.56375e-16 2.83712e-18)
(0.731651 -1.52428e-15 -3.95221e-16)
(0.731651 -2.571e-16 2.55463e-18)
(0.735847 -1.51818e-15 -3.93259e-16)
(0.735847 -2.61358e-16 2.67388e-18)
(0.74001 -1.51094e-15 -3.91028e-16)
(0.74001 -2.64578e-16 3.26872e-18)
(0.744142 -1.50731e-15 -3.87958e-16)
(0.744142 -2.65713e-16 3.54493e-18)
(0.748241 -1.50283e-15 -3.84761e-16)
(0.748241 -2.67749e-16 3.27511e-18)
(0.752311 -1.49077e-15 -3.81782e-16)
(0.752311 -2.74829e-16 3.5595e-18)
(0.756351 -1.47872e-15 -3.7963e-16)
(0.756351 -2.83119e-16 3.88877e-18)
(0.760361 -1.46869e-15 -3.76114e-16)
(0.760361 -2.89584e-16 3.9817e-18)
(0.764344 -1.46018e-15 -3.73905e-16)
(0.764344 -2.97792e-16 2.76259e-18)
(0.768299 -1.45384e-15 -3.73001e-16)
(0.768299 -3.06652e-16 3.23408e-18)
(0.772228 -1.44657e-15 -3.70962e-16)
(0.772228 -3.1151e-16 3.99133e-18)
(0.77613 -1.4387e-15 -3.68555e-16)
(0.77613 -3.17498e-16 4.31842e-18)
(0.780008 -1.4312e-15 -3.6588e-16)
(0.780008 -3.24121e-16 4.10571e-18)
(0.78386 -1.42424e-15 -3.6385e-16)
(0.78386 -3.28649e-16 4.78527e-18)
(0.787688 -1.41453e-15 -3.60762e-16)
(0.787688 -3.29107e-16 5.0445e-18)
(0.791493 -1.40174e-15 -3.57523e-16)
(0.791493 -3.3721e-16 4.86059e-18)
(0.795275 -1.39399e-15 -3.55678e-16)
(0.795275 -3.51572e-16 5.0783e-18)
(0.799035 -1.38467e-15 -3.51934e-16)
(0.799035 -3.55294e-16 4.91828e-18)
(0.802772 -1.37494e-15 -3.48376e-16)
(0.802772 -3.6399e-16 4.05273e-18)
(0.806489 -1.36289e-15 -3.45305e-16)
(0.806489 -3.68797e-16 4.57538e-18)
(0.810184 -1.34908e-15 -3.41421e-16)
(0.810184 -3.73628e-16 4.81226e-18)
(0.81386 -1.33776e-15 -3.36345e-16)
(0.81386 -3.78001e-16 4.36928e-18)
(0.817515 -1.32316e-15 -3.33705e-16)
(0.817515 -3.85808e-16 3.74828e-18)
(0.821151 -1.31103e-15 -3.31176e-16)
(0.821151 -3.96811e-16 4.5093e-18)
(0.824768 -1.30071e-15 -3.27261e-16)
(0.824768 -4.08325e-16 4.94972e-18)
(0.828367 -1.28898e-15 -3.23725e-16)
(0.828367 -4.15967e-16 4.30044e-18)
(0.831947 -1.27533e-15 -3.20227e-16)
(0.831947 -4.25297e-16 4.96989e-18)
(0.83551 -1.2587e-15 -3.16464e-16)
(0.83551 -4.4559e-16 6.59779e-18)
(0.839056 -1.24375e-15 -3.11701e-16)
(0.839056 -4.52077e-16 6.72953e-18)
(0.842584 -1.23119e-15 -3.09552e-16)
(0.842584 -4.56639e-16 3.82737e-18)
(0.846097 -1.21822e-15 -3.08585e-16)
(0.846097 -4.69551e-16 3.59065e-18)
(0.849593 -1.20611e-15 -3.07207e-16)
(0.849593 -4.75829e-16 5.99524e-18)
(0.853073 -1.1899e-15 -3.03165e-16)
(0.853073 -4.88029e-16 5.56932e-18)
(0.856537 -1.17554e-15 -3.00682e-16)
(0.856537 -4.98379e-16 3.44422e-18)
(0.859987 -1.15825e-15 -3.00142e-16)
(0.859987 -5.11592e-16 2.55204e-18)
(0.863421 -1.14015e-15 -2.99413e-16)
(0.863421 -5.28084e-16 2.03292e-18)
(0.866841 -1.12789e-15 -3.01118e-16)
(0.866841 -5.35168e-16 7.24742e-19)
(0.870247 -1.11917e-15 -3.0185e-16)
(0.870247 -5.30626e-16 3.9285e-18)
(0.873638 -1.11606e-15 -3.00429e-16)
(0.873638 -5.40343e-16 5.98421e-18)
(0.877016 -1.11805e-15 -2.98185e-16)
(0.877016 -5.41092e-16 6.5876e-18)
(0.88038 -1.11903e-15 -2.95198e-16)
(0.88038 -5.50026e-16 6.73997e-18)
(0.883731 -1.1093e-15 -2.86986e-16)
(0.883731 -5.52595e-16 7.28639e-18)
(0.887069 -1.09448e-15 -2.82541e-16)
(0.887069 -5.5217e-16 5.07107e-18)
(0.890394 -1.08498e-15 -2.83311e-16)
(0.890394 -5.63473e-16 3.09956e-18)
(0.893707 -1.08165e-15 -2.84039e-16)
(0.893707 -5.6489e-16 3.35512e-18)
(0.897007 -1.07992e-15 -2.83206e-16)
(0.897007 -5.65416e-16 6.21063e-18)
(0.900295 -1.0739e-15 -2.76427e-16)
(0.900295 -5.68143e-16 7.15253e-18)
(0.90357 -1.06548e-15 -2.72781e-16)
(0.90357 -5.67303e-16 7.56256e-18)
(0.906834 -1.06685e-15 -2.68666e-16)
(0.906834 -5.79051e-16 3.25321e-18)
(0.910087 -1.05814e-15 -2.65565e-16)
(0.910087 -5.84825e-16 9.9294e-20)
(0.913327 -1.06083e-15 -2.60934e-16)
(0.913327 -5.89782e-16 2.24377e-19)
(0.916557 -1.06198e-15 -2.55653e-16)
(0.916557 -5.85586e-16 2.22185e-18)
(0.919775 -1.05592e-15 -2.46641e-16)
(0.919775 -5.73123e-16 -3.75354e-18)
(0.922982 -1.05398e-15 -2.35953e-16)
(0.922982 -5.79711e-16 -7.6404e-18)
(0.926178 -1.04167e-15 -2.2139e-16)
(0.926178 -5.87948e-16 -1.53655e-17)
(0.929363 -1.03128e-15 -2.05716e-16)
(0.929363 -5.9028e-16 -1.95672e-17)
(0.932537 -1.02117e-15 -1.9708e-16)
(0.932537 -5.96907e-16 -2.13737e-17)
(0.935701 -1.01112e-15 -1.88922e-16)
(0.935701 -6.0264e-16 -2.37468e-17)
(0.938854 -1.00702e-15 -1.76782e-16)
(0.938854 -6.02033e-16 -2.39566e-17)
(0.941996 -9.92003e-16 -1.71093e-16)
(0.941996 -6.0252e-16 -2.50642e-17)
(0.945128 -9.95159e-16 -1.70671e-16)
(0.945128 -6.05337e-16 -2.8098e-17)
(0.94825 -9.87822e-16 -1.58715e-16)
(0.94825 -5.96616e-16 -3.16559e-17)
(0.951361 -9.83531e-16 -1.51371e-16)
(0.951361 -5.91172e-16 -3.85255e-17)
(0.954462 -9.67007e-16 -1.3875e-16)
(0.954462 -5.95967e-16 -4.22378e-17)
(0.957552 -9.59151e-16 -1.31426e-16)
(0.957552 -6.00195e-16 -4.57556e-17)
(0.960632 -9.41967e-16 -1.20916e-16)
(0.960632 -5.93227e-16 -4.69733e-17)
(0.963702 -9.36551e-16 -1.13556e-16)
(0.963702 -5.9053e-16 -4.85275e-17)
(0.966762 -9.16486e-16 -9.54385e-17)
(0.966762 -5.85964e-16 -5.51804e-17)
(0.969811 -8.71054e-16 -7.76486e-17)
(0.969811 -5.81624e-16 -5.64179e-17)
(0.97285 -8.30883e-16 -7.45184e-17)
(0.97285 -5.92569e-16 -6.16518e-17)
(0.975878 -8.0315e-16 -7.64751e-17)
(0.975878 -5.97741e-16 -6.53845e-17)
(0.978896 -7.72091e-16 -7.76457e-17)
(0.978896 -6.088e-16 -6.2934e-17)
(0.981903 -7.43572e-16 -7.62658e-17)
(0.981903 -6.06152e-16 -5.82058e-17)
(0.9849 -7.22454e-16 -7.32065e-17)
(0.9849 -5.98999e-16 -5.9206e-17)
(0.987886 -7.03922e-16 -8.13838e-17)
(0.987886 -5.94753e-16 -5.38957e-17)
(0.990861 -7.25255e-16 -7.86965e-17)
(0.990861 -5.82732e-16 -5.38087e-17)
(0.993826 -7.30752e-16 -7.63555e-17)
(0.993826 -5.71142e-16 -5.47802e-17)
(0.996779 -7.28187e-16 -7.12928e-17)
(0.996779 -5.69141e-16 -6.39628e-17)
(0.999721 -7.11046e-16 -6.96213e-17)
(0.999721 -5.98846e-16 -6.58524e-17)
(1.00265 -6.95474e-16 -6.49739e-17)
(1.00265 -6.22456e-16 -6.2977e-17)
(1.00557 -6.74301e-16 -7.48036e-17)
(1.00557 -6.28328e-16 -6.10654e-17)
(1.00848 -6.84264e-16 -7.73014e-17)
(1.00848 -6.49106e-16 -6.26866e-17)
(1.01137 -6.84138e-16 -7.91541e-17)
(1.01137 -6.72176e-16 -6.10473e-17)
(1.01426 -6.80513e-16 -7.62015e-17)
(1.01426 -6.58622e-16 -6.87315e-17)
(1.01713 -6.80657e-16 -7.60568e-17)
(1.01713 -6.57718e-16 -7.66201e-17)
(1.01998 -6.76701e-16 -7.88547e-17)
(1.01998 -6.89389e-16 -8.96905e-17)
(1.02283 -6.76126e-16 -8.76528e-17)
(1.02283 -6.78828e-16 -8.54639e-17)
(1.02566 -6.66417e-16 -9.67682e-17)
(1.02566 -6.6257e-16 -9.28586e-17)
(1.02848 -6.55583e-16 -1.0871e-16)
(1.02848 -6.50667e-16 -1.01844e-16)
(1.03128 -6.31652e-16 -1.22417e-16)
(1.03128 -6.4435e-16 -9.03529e-17)
(1.03407 -6.39977e-16 -1.26441e-16)
(1.03407 -6.49149e-16 -8.58384e-17)
(1.03684 -6.17827e-16 -1.31937e-16)
(1.03684 -6.41203e-16 -6.82207e-17)
(1.0396 -6.10953e-16 -1.38504e-16)
(1.0396 -5.82904e-16 -5.49747e-17)
(1.04235 -5.931e-16 -1.40661e-16)
(1.04235 -5.57216e-16 -5.10524e-17)
(1.04507 -5.75114e-16 -1.41717e-16)
(1.04507 -5.93038e-16 -4.99148e-17)
(1.04778 -5.5895e-16 -1.51647e-16)
(1.04778 -5.66656e-16 -4.70657e-17)
(1.05048 -5.8484e-16 -1.46207e-16)
(1.05048 -5.40321e-16 -5.87674e-17)
(1.05315 -5.69454e-16 -1.39478e-16)
(1.05315 -5.46815e-16 -7.22567e-17)
(1.05581 -5.39301e-16 -1.2056e-16)
(1.05581 -5.32356e-16 -7.72303e-17)
(1.05844 -5.20603e-16 -1.21994e-16)
(1.05844 -5.3896e-16 -7.82582e-17)
(1.06106 -4.87218e-16 -1.33209e-16)
(1.06106 -5.58427e-16 -7.11211e-17)
(1.06365 -5.42768e-16 -1.22645e-16)
(1.06365 -5.32298e-16 -6.52243e-17)
(1.06623 -5.70407e-16 -1.57226e-16)
(1.06623 -5.23953e-16 -7.70084e-17)
(1.06878 -5.80636e-16 -1.87027e-16)
(1.06878 -5.23719e-16 -9.16719e-17)
(1.0713 -5.60157e-16 -1.70184e-16)
(1.0713 -5.00365e-16 -7.19359e-17)
(1.0738 -5.46202e-16 -1.26629e-16)
(1.0738 -5.13592e-16 -7.6064e-17)
(1.07628 -5.24823e-16 -1.26736e-16)
(1.07628 -5.30839e-16 -8.25319e-17)
(1.07873 -5.05097e-16 -1.46461e-16)
(1.07873 -5.33669e-16 -8.71174e-17)
(1.08115 -5.44062e-16 -1.12041e-16)
(1.08115 -5.55294e-16 -9.48491e-17)
(1.08354 -5.38684e-16 -1.10366e-16)
(1.08354 -5.64723e-16 -8.53844e-17)
(1.0859 -4.99266e-16 -1.41013e-16)
(1.0859 -5.55402e-16 -7.757e-17)
(1.08823 -5.78383e-16 -1.25251e-16)
(1.08823 -5.20566e-16 -8.93346e-17)
(1.09052 -5.31256e-16 -8.32148e-17)
(1.09052 -5.1382e-16 -9.69526e-17)
(1.09277 -5.0063e-16 -1.06046e-16)
(1.09277 -5.46476e-16 -1.08905e-16)
(1.09499 -5.11767e-16 -1.3265e-16)
(1.09499 -5.27538e-16 -1.00552e-16)
(1.09717 -4.89276e-16 -1.53265e-16)
(1.09717 -4.70041e-16 -9.57305e-17)
(1.0993 -4.67703e-16 -1.78193e-16)
(1.0993 -4.99908e-16 -9.60728e-17)
(1.10139 -4.80228e-16 -1.5209e-16)
(1.10139 -4.89359e-16 -7.93273e-17)
(1.10343 -4.6472e-16 -1.52441e-16)
(1.10343 -4.20493e-16 -1.14746e-16)
(1.10542 -4.61536e-16 -1.25737e-16)
(1.10542 -4.44637e-16 -1.66746e-16)
(1.10736 -4.28537e-16 -1.4639e-16)
(1.10736 -4.7342e-16 -1.4215e-16)
(1.10924 -3.95317e-16 -1.99225e-16)
(1.10924 -4.58276e-16 -1.39306e-16)
(1.11105 -4.30107e-16 -1.49749e-16)
(1.11105 -4.58395e-16 -9.6473e-17)
(1.11281 -4.12207e-16 -1.92821e-16)
(1.11281 -4.79236e-16 -9.67412e-17)
(1.11449 -4.00736e-16 -2.68568e-16)
(1.11449 -5.28036e-16 -7.19217e-17)
(1.1161 -4.63102e-16 -1.9107e-16)
(1.1161 -5.09733e-16 -3.22563e-17)
(1.11763 -4.72137e-16 -2.4201e-16)
(1.11763 -4.70191e-16 -3.57502e-17)
(1.11907 -5.04767e-16 -3.3488e-16)
(1.11907 -4.85507e-16 -5.45363e-17)
(1.12043 -5.02428e-16 -3.35129e-16)
(1.12043 -4.85082e-16 -6.02314e-17)
(1.12168 -5.89476e-16 -2.5636e-16)
(1.12168 -4.41325e-16 -2.9598e-17)
(1.12283 -5.4105e-16 -7.05423e-17)
(1.12283 -4.15107e-16 -1.03893e-16)
(1.12387 -4.65238e-16 -7.44645e-17)
(1.12387 -3.89775e-16 -9.42337e-17)
(1.12479 -4.13436e-16 -1.13376e-16)
(1.12479 -3.7177e-16 -1.11875e-16)
(1.12557 -3.95179e-16 -1.33832e-16)
(1.12557 -3.92041e-16 -1.57381e-16)
(1.12622 -3.12657e-16 -1.47697e-16)
(1.12622 -4.21379e-16 -2.08972e-16)
(1.12673 -3.0665e-16 -1.50152e-16)
(1.12673 -3.88921e-16 -1.60691e-16)
(1.12707 -3.24329e-16 -1.13276e-16)
(1.12707 -4.04045e-16 -1.49951e-16)
(1.12725 -3.5015e-16 -1.42499e-16)
(1.12725 -3.8741e-16 -1.36345e-16)
(0.00220416 9.94002e-20 2.12732e-18)
(0.00220416 2.38214e-20 1.18643e-18)
(0.00665278 -2.83984e-19 7.49798e-18)
(0.00665278 -5.39824e-20 -7.48682e-18)
(0.0111836 -3.30599e-19 7.7752e-18)
(0.0111836 -5.92431e-20 -7.75779e-18)
(0.015798 -5.07679e-19 8.05955e-18)
(0.015798 -1.02297e-19 -8.03148e-18)
(0.0204977 -6.89321e-19 8.351e-18)
(0.0204977 -1.53953e-19 -8.30718e-18)
(0.0252841 -8.78292e-19 8.64974e-18)
(0.0252841 -2.11876e-19 -8.58454e-18)
(0.0301589 -1.06411e-18 8.95579e-18)
(0.0301589 -2.56916e-19 -8.86296e-18)
(0.0351236 -1.26174e-18 9.26925e-18)
(0.0351236 -2.98545e-19 -9.14155e-18)
(0.0401798 -1.4797e-18 9.58961e-18)
(0.0401798 -3.37854e-19 -9.41978e-18)
(0.0453293 -1.70558e-18 9.91808e-18)
(0.0453293 -3.78026e-19 -9.69801e-18)
(0.0505737 -1.92742e-18 1.02534e-17)
(0.0505737 -4.41099e-19 -9.97527e-18)
(0.0559148 -2.15096e-18 1.05975e-17)
(0.0559148 -4.95248e-19 -1.02516e-17)
(0.0613542 -2.44456e-18 1.09506e-17)
(0.0613542 -5.34121e-19 -1.05266e-17)
(0.0668937 -2.73459e-18 1.13122e-17)
(0.0668937 -5.6764e-19 -1.07994e-17)
(0.0725351 -2.96613e-18 1.16821e-17)
(0.0725351 -6.39105e-19 -1.107e-17)
(0.0782802 -3.20006e-18 1.20605e-17)
(0.0782802 -7.15635e-19 -1.13377e-17)
(0.0841308 -3.44074e-18 1.24466e-17)
(0.0841308 -8.19669e-19 -1.16022e-17)
(0.0900886 -3.69397e-18 1.28378e-17)
(0.0900886 -9.13858e-19 -1.18609e-17)
(0.0961556 -3.95456e-18 1.32355e-17)
(0.0961556 -9.82684e-19 -1.21123e-17)
(0.102333 -4.162e-18 1.36403e-17)
(0.102333 -1.11882e-18 -1.23569e-17)
(0.108624 -4.4473e-18 1.40513e-17)
(0.108624 -1.19217e-18 -1.25943e-17)
(0.115029 -4.76762e-18 1.44682e-17)
(0.115029 -1.26384e-18 -1.28221e-17)
(0.121549 -5.06715e-18 1.48932e-17)
(0.121549 -1.41792e-18 -1.30404e-17)
(0.128188 -5.38504e-18 1.53253e-17)
(0.128188 -1.55864e-18 -1.32466e-17)
(0.134945 -5.68838e-18 1.57617e-17)
(0.134945 -1.65223e-18 -1.34391e-17)
(0.141822 -6.0474e-18 1.62007e-17)
(0.141822 -1.79547e-18 -1.36151e-17)
(0.148821 -6.48001e-18 1.66426e-17)
(0.148821 -2.02887e-18 -1.37759e-17)
(0.155942 -6.82087e-18 1.70862e-17)
(0.155942 -2.24807e-18 -1.39227e-17)
(0.163186 -7.06042e-18 1.75314e-17)
(0.163186 -2.41036e-18 -1.40513e-17)
(0.170553 -7.39331e-18 1.79817e-17)
(0.170553 -2.65573e-18 -1.41646e-17)
(0.178043 -7.89345e-18 1.84333e-17)
(0.178043 -2.80441e-18 -1.42594e-17)
(0.185655 -8.53469e-18 1.88801e-17)
(0.185655 -2.81603e-18 -1.43263e-17)
(0.193389 -8.96893e-18 1.93215e-17)
(0.193389 -2.98121e-18 -1.43708e-17)
(0.201242 -9.3611e-18 1.97597e-17)
(0.201242 -3.17792e-18 -1.43908e-17)
(0.209213 -9.86093e-18 2.01868e-17)
(0.209213 -3.26321e-18 -1.43811e-17)
(0.217298 -1.02308e-17 2.06062e-17)
(0.217298 -3.57624e-18 -1.43434e-17)
(0.225493 -1.04246e-17 2.10153e-17)
(0.225493 -3.88388e-18 -1.4274e-17)
(0.233794 -1.06202e-17 2.14157e-17)
(0.233794 -4.03785e-18 -1.41698e-17)
(0.242195 -1.10593e-17 2.18028e-17)
(0.242195 -4.53867e-18 -1.40391e-17)
(0.250689 -1.18935e-17 2.21689e-17)
(0.250689 -4.64055e-18 -1.38816e-17)
(0.259269 -1.28112e-17 2.25015e-17)
(0.259269 -4.23737e-18 -1.36826e-17)
(0.267927 -1.36977e-17 2.28118e-17)
(0.267927 -4.3015e-18 -1.34434e-17)
(0.276653 -1.43206e-17 2.30755e-17)
(0.276653 -4.29458e-18 -1.31455e-17)
(0.285438 -1.47482e-17 2.33154e-17)
(0.285438 -4.34744e-18 -1.2801e-17)
(0.294269 -1.52877e-17 2.35239e-17)
(0.294269 -4.48848e-18 -1.24087e-17)
(0.303137 -1.57599e-17 2.37177e-17)
(0.303137 -4.40028e-18 -1.1999e-17)
(0.31203 -1.68617e-17 2.38715e-17)
(0.31203 -4.61717e-18 -1.15591e-17)
(0.320935 -1.78305e-17 2.39713e-17)
(0.320935 -4.78257e-18 -1.10744e-17)
(0.32984 -1.82078e-17 2.40379e-17)
(0.32984 -4.84471e-18 -1.05574e-17)
(0.338733 -1.9079e-17 2.40651e-17)
(0.338733 -4.90734e-18 -1.00138e-17)
(0.347603 -1.99066e-17 2.40136e-17)
(0.347603 -5.38008e-18 -9.41955e-18)
(0.356439 -2.03307e-17 2.39171e-17)
(0.356439 -5.72968e-18 -8.80246e-18)
(0.365228 -2.07809e-17 2.37747e-17)
(0.365228 -6.64053e-18 -8.14917e-18)
(0.373962 -2.1224e-17 2.35895e-17)
(0.373962 -7.92415e-18 -7.47064e-18)
(0.38263 -2.17168e-17 2.33746e-17)
(0.38263 -7.97728e-18 -6.76237e-18)
(0.391224 -2.22197e-17 2.31263e-17)
(0.391224 -8.2528e-18 -6.07318e-18)
(0.399737 -2.26114e-17 2.28447e-17)
(0.399737 -8.31946e-18 -5.3622e-18)
(0.408162 -2.31936e-17 2.2547e-17)
(0.408162 -8.15173e-18 -4.64849e-18)
(0.416492 -2.42106e-17 2.22138e-17)
(0.416492 -8.63261e-18 -3.93332e-18)
(0.424724 -2.48337e-17 2.18655e-17)
(0.424724 -9.35451e-18 -3.2458e-18)
(0.432852 -2.47189e-17 2.15102e-17)
(0.432852 -1.00569e-17 -2.57895e-18)
(0.440874 -2.51374e-17 2.11824e-17)
(0.440874 -1.0784e-17 -1.95256e-18)
(0.448786 -2.63104e-17 2.08604e-17)
(0.448786 -1.1269e-17 -1.35151e-18)
(0.456588 -2.75278e-17 2.05064e-17)
(0.456588 -1.09661e-17 -7.72006e-19)
(0.464278 -2.84147e-17 2.01306e-17)
(0.464278 -1.13319e-17 -2.44212e-19)
(0.471855 -2.9028e-17 1.97552e-17)
(0.471855 -1.17751e-17 2.71577e-19)
(0.479319 -2.94792e-17 1.93965e-17)
(0.479319 -1.20389e-17 7.27965e-19)
(0.486671 -3.03588e-17 1.90203e-17)
(0.486671 -1.29805e-17 1.13182e-18)
(0.493911 -3.18778e-17 1.8604e-17)
(0.493911 -1.43501e-17 1.47981e-18)
(0.501041 -3.28637e-17 1.81679e-17)
(0.501041 -1.44292e-17 1.78483e-18)
(0.508062 -3.32956e-17 1.77626e-17)
(0.508062 -1.39822e-17 2.01678e-18)
(0.514974 -3.45301e-17 1.73861e-17)
(0.514974 -1.46001e-17 2.22924e-18)
(0.521782 -3.62501e-17 1.70209e-17)
(0.521782 -1.48634e-17 2.38076e-18)
(0.528485 -3.77704e-17 1.67059e-17)
(0.528485 -1.64481e-17 2.4815e-18)
(0.535086 -4.0558e-17 1.64277e-17)
(0.535086 -1.72735e-17 2.49893e-18)
(0.541588 -4.21271e-17 1.60799e-17)
(0.541588 -1.78514e-17 2.53049e-18)
(0.547993 -4.20893e-17 1.58382e-17)
(0.547993 -1.69918e-17 2.49245e-18)
(0.554303 -4.33583e-17 1.57066e-17)
(0.554303 -1.80898e-17 2.35839e-18)
(0.56052 -4.43811e-17 1.54621e-17)
(0.56052 -2.08189e-17 2.31492e-18)
(0.566647 -4.48043e-17 1.51981e-17)
(0.566647 -1.9845e-17 2.26858e-18)
(0.572686 -4.59133e-17 1.4992e-17)
(0.572686 -1.92055e-17 2.2423e-18)
(0.578639 -4.66323e-17 1.47432e-17)
(0.578639 -1.83406e-17 2.27862e-18)
(0.584509 -4.69687e-17 1.4522e-17)
(0.584509 -1.78414e-17 2.35431e-18)
(0.590298 -4.71416e-17 1.42548e-17)
(0.590298 -1.8848e-17 2.44509e-18)
(0.596009 -4.74467e-17 1.40142e-17)
(0.596009 -1.91033e-17 2.51064e-18)
(0.601643 -4.79191e-17 1.38485e-17)
(0.601643 -1.79007e-17 2.52294e-18)
(0.607203 -4.79555e-17 1.37654e-17)
(0.607203 -1.85751e-17 2.44688e-18)
(0.612691 -4.90275e-17 1.3633e-17)
(0.612691 -1.71179e-17 2.32022e-18)
(0.618109 -4.9472e-17 1.34691e-17)
(0.618109 -1.40185e-17 2.18275e-18)
(0.623459 -5.06746e-17 1.32608e-17)
(0.623459 -1.40452e-17 2.04623e-18)
(0.628743 -5.17713e-17 1.30582e-17)
(0.628743 -1.53125e-17 1.76992e-18)
(0.633963 -5.1822e-17 1.29893e-17)
(0.633963 -1.44365e-17 1.47835e-18)
(0.639121 -5.43381e-17 1.30376e-17)
(0.639121 -1.46674e-17 1.04104e-18)
(0.644218 -5.86446e-17 1.29737e-17)
(0.644218 -1.57347e-17 5.98018e-19)
(0.649257 -6.04517e-17 1.27124e-17)
(0.649257 -1.43247e-17 1.39212e-19)
(0.654239 -6.0914e-17 1.27293e-17)
(0.654239 -1.20716e-17 -4.72949e-19)
(0.659166 -6.35172e-17 1.26949e-17)
(0.659166 -1.08349e-17 -1.13832e-18)
(0.664039 -6.55557e-17 1.24499e-17)
(0.664039 -9.13942e-18 -1.61752e-18)
(0.66886 -6.6177e-17 1.2265e-17)
(0.66886 -8.34033e-18 -2.0104e-18)
(0.673631 -6.60933e-17 1.21539e-17)
(0.673631 -1.15448e-17 -2.32302e-18)
(0.678352 -6.58999e-17 1.21448e-17)
(0.678352 -1.1303e-17 -2.53681e-18)
(0.683026 -6.62322e-17 1.23445e-17)
(0.683026 -1.06063e-17 -2.92879e-18)
(0.687653 -6.7163e-17 1.25257e-17)
(0.687653 -1.32305e-17 -3.17595e-18)
(0.692236 -6.67076e-17 1.24448e-17)
(0.692236 -1.34387e-17 -3.55035e-18)
(0.696774 -6.65906e-17 1.2731e-17)
(0.696774 -1.156e-17 -4.08286e-18)
(0.701271 -7.0048e-17 1.29e-17)
(0.701271 -1.06829e-17 -4.77859e-18)
(0.705726 -7.24791e-17 1.25343e-17)
(0.705726 -8.12048e-18 -5.28878e-18)
(0.710141 -7.19655e-17 1.20249e-17)
(0.710141 -6.87921e-18 -5.80402e-18)
(0.714516 -7.32523e-17 1.17902e-17)
(0.714516 -7.49031e-18 -6.46983e-18)
(0.718854 -7.51465e-17 1.15268e-17)
(0.718854 -1.01793e-17 -7.15637e-18)
(0.723155 -7.35721e-17 1.14003e-17)
(0.723155 -1.19375e-17 -7.9241e-18)
(0.727421 -7.19708e-17 1.16805e-17)
(0.727421 -1.0587e-17 -8.61908e-18)
(0.731651 -6.84771e-17 1.1928e-17)
(0.731651 -1.41404e-17 -9.44285e-18)
(0.735847 -6.51598e-17 1.29817e-17)
(0.735847 -1.75302e-17 -1.07721e-17)
(0.74001 -6.87129e-17 1.4194e-17)
(0.74001 -1.70672e-17 -1.22877e-17)
(0.744142 -6.88384e-17 1.51075e-17)
(0.744142 -1.76081e-17 -1.39001e-17)
(0.748241 -6.51753e-17 1.66172e-17)
(0.748241 -1.79062e-17 -1.58559e-17)
(0.752311 -6.65162e-17 1.81506e-17)
(0.752311 -2.19677e-17 -1.76378e-17)
(0.756351 -6.68273e-17 1.93627e-17)
(0.756351 -2.77232e-17 -1.88168e-17)
(0.760361 -6.89191e-17 2.12728e-17)
(0.760361 -2.88143e-17 -1.99611e-17)
(0.764344 -7.56568e-17 2.21963e-17)
(0.764344 -2.48945e-17 -2.01159e-17)
(0.768299 -7.61665e-17 2.26495e-17)
(0.768299 -2.03777e-17 -1.94546e-17)
(0.772228 -7.33227e-17 2.26867e-17)
(0.772228 -2.16494e-17 -1.80448e-17)
(0.77613 -7.43514e-17 2.2558e-17)
(0.77613 -2.37698e-17 -1.64244e-17)
(0.780008 -7.67953e-17 2.20954e-17)
(0.780008 -2.14712e-17 -1.45347e-17)
(0.78386 -7.80541e-17 2.16812e-17)
(0.78386 -2.28938e-17 -1.22297e-17)
(0.787688 -7.72521e-17 2.16031e-17)
(0.787688 -2.66316e-17 -1.11224e-17)
(0.791493 -7.89118e-17 2.18358e-17)
(0.791493 -2.30832e-17 -1.06817e-17)
(0.795275 -8.12001e-17 2.18432e-17)
(0.795275 -1.7952e-17 -1.02564e-17)
(0.799035 -7.83113e-17 2.16569e-17)
(0.799035 -1.91946e-17 -1.00163e-17)
(0.802772 -7.69012e-17 2.20213e-17)
(0.802772 -2.07883e-17 -9.83592e-18)
(0.806489 -7.69296e-17 2.27427e-17)
(0.806489 -1.69746e-17 -9.8064e-18)
(0.810184 -7.61952e-17 2.3894e-17)
(0.810184 -1.57534e-17 -1.06723e-17)
(0.81386 -8.02796e-17 2.54629e-17)
(0.81386 -2.03749e-17 -1.22063e-17)
(0.817515 -8.62914e-17 2.67749e-17)
(0.817515 -2.22569e-17 -1.3265e-17)
(0.821151 -9.14935e-17 2.78317e-17)
(0.821151 -2.00729e-17 -1.37847e-17)
(0.824768 -9.40818e-17 2.89317e-17)
(0.824768 -2.00164e-17 -1.43382e-17)
(0.828367 -9.43543e-17 3.00415e-17)
(0.828367 -2.21458e-17 -1.46322e-17)
(0.831947 -9.66711e-17 3.11786e-17)
(0.831947 -2.53992e-17 -1.45058e-17)
(0.83551 -1.02797e-16 3.1208e-17)
(0.83551 -3.50925e-17 -1.35224e-17)
(0.839056 -1.06853e-16 3.07141e-17)
(0.839056 -3.88284e-17 -1.30157e-17)
(0.842584 -1.04596e-16 3.07519e-17)
(0.842584 -4.06135e-17 -1.24027e-17)
(0.846097 -1.00592e-16 3.08526e-17)
(0.846097 -4.64875e-17 -1.16645e-17)
(0.849593 -9.66369e-17 3.11317e-17)
(0.849593 -4.7786e-17 -9.98812e-18)
(0.853073 -9.49141e-17 3.1487e-17)
(0.853073 -5.01673e-17 -9.19849e-18)
(0.856537 -9.52535e-17 3.16934e-17)
(0.856537 -5.31954e-17 -7.80989e-18)
(0.859987 -1.02256e-16 3.23434e-17)
(0.859987 -5.53025e-17 -6.60622e-18)
(0.863421 -1.09192e-16 3.18904e-17)
(0.863421 -5.77212e-17 -5.46147e-18)
(0.866841 -1.09157e-16 3.18784e-17)
(0.866841 -5.70898e-17 -4.66634e-18)
(0.870247 -1.16122e-16 3.1575e-17)
(0.870247 -6.15604e-17 -3.21349e-18)
(0.873638 -1.2736e-16 2.98052e-17)
(0.873638 -7.35548e-17 -1.81533e-18)
(0.877016 -1.31832e-16 2.9734e-17)