/*--------------------------------*- C++ -*----------------------------------*\
| =========                 |                                                 |
| \\      /  F ield         | OpenFOAM: The Open Source CFD Toolbox           |
|  \\    /   O peration     | Version:  2106                                  |
|   \\  /    A nd           | Website:  www.openfoam.com                      |
|    \\/     M anipulation  |                                                 |
\*---------------------------------------------------------------------------*/
FoamFile
{
    version     2.0;
    format      ascii;
    arch        "LSB;label=32;scalar=64";
    class       volVectorField;
    location    "10040";
    object      grad(T);
}
// * * * * * * * * * * * * * * * * * * * * * * * * * * * * * * * * * * * * * //

dimensions      [0 -1 0 1 0 0 0];

internalField   nonuniform List<vector> 
2000
(
(2.28849e-16 455.644 0.84323)
(-2.28849e-16 455.644 0.84323)
(4.49311e-16 455.643 2.54543)
(-4.49311e-16 455.643 2.54543)
(-1.0363e-16 455.642 3.53267)
(0 455.642 3.53267)
(-3.39609e-16 455.64 3.59859)
(1.35844e-15 455.64 3.59859)
(1.70024e-15 455.637 3.66574)
(-1.70024e-15 455.637 3.66574)
(0 455.634 3.73413)
(-3.29946e-15 455.634 3.73413)
(1.6385e-15 455.628 3.80378)
(4.29722e-15 455.628 3.80378)
(0 455.62 3.87471)
(1.06272e-14 455.62 3.87471)
(-1.58724e-15 455.608 3.94691)
(0 455.608 3.94691)
(0 455.59 4.0204)
(0 455.59 4.0204)
(3.04332e-15 455.563 4.09515)
(0 455.563 4.09515)
(2.39313e-15 455.523 4.17115)
(9.57251e-15 455.523 4.17115)
(0 455.463 4.24835)
(0 455.463 4.24835)
(-5.83483e-15 455.377 4.32669)
(0 455.377 4.32669)
(-8.89759e-15 455.253 4.40605)
(-5.65262e-15 455.253 4.40605)
(9.0886e-15 455.08 4.48631)
(-8.60922e-15 455.08 4.48631)
(0 454.842 4.56728)
(0 454.842 4.56728)
(8.29049e-15 454.517 4.64872)
(1.6581e-14 454.517 4.64872)
(-4.45649e-15 454.082 4.73032)
(0 454.082 4.73032)
(4.77343e-15 453.508 4.8117)
(1.90937e-14 453.508 4.8117)
(-5.09611e-15 452.761 4.89241)
(4.07689e-14 452.761 4.89241)
(0 451.803 4.9719)
(1.6732e-14 451.803 4.9719)
(0 450.588 5.04951)
(2.30351e-14 450.588 5.04951)
(0 449.071 5.12454)
(1.48233e-14 449.071 5.12454)
(-6.44439e-15 447.198 5.19617)
(0 447.198 5.19617)
(0 444.917 5.26353)
(2.71824e-14 444.917 5.26353)
(-7.15221e-15 442.175 5.32569)
(9.05512e-15 442.175 5.32569)
(-7.51397e-15 438.92 5.38173)
(0 438.92 5.38173)
(0 435.107 5.43073)
(-8.72629e-15 435.107 5.43073)
(-1.68181e-14 430.696 5.47184)
(-3.30069e-14 430.696 5.47184)
(8.62691e-15 425.66 5.50429)
(2.60982e-14 425.66 5.50429)
(0 419.982 5.52749)
(-8.25531e-15 419.982 5.52749)
(-9.38731e-15 413.66 5.54097)
(0 413.66 5.54097)
(-2.56824e-14 406.707 5.5445)
(1.59111e-14 406.707 5.5445)
(0 399.151 5.53802)
(4.06277e-14 399.151 5.53802)
(0 391.035 5.52172)
(0 391.035 5.52172)
(1.09302e-14 382.411 5.49593)
(4.37208e-14 382.411 5.49593)
(-1.13164e-14 373.345 5.46121)
(4.52655e-14 373.345 5.46121)
(-2.6207e-14 363.907 5.41821)
(1.45057e-14 363.907 5.41821)
(0 354.171 5.36773)
(4.8337e-14 354.171 5.36773)
(-2.49293e-14 344.215 5.31062)
(4.98585e-14 344.215 5.31062)
(0 334.112 5.24775)
(0 334.112 5.24775)
(0 323.935 5.18003)
(1.34713e-14 323.935 5.18003)
(-3.60324e-16 313.749 5.10833)
(-6.75636e-14 313.749 5.10833)
(1.39496e-14 303.613 5.03347)
(5.57985e-14 303.613 5.03347)
(1.43096e-14 293.58 4.95622)
(-5.72385e-14 293.58 4.95622)
(-1.46645e-14 283.695 4.87729)
(5.86579e-14 283.695 4.87729)
(0 273.997 4.79731)
(1.20112e-13 273.997 4.79731)
(3.94708e-14 264.515 4.71684)
(6.14322e-14 264.515 4.71684)
(-1.56965e-14 255.276 4.63636)
(-8.6457e-14 255.276 4.63636)
(2.32372e-14 246.296 4.55628)
(0 246.296 4.55628)
(-3.91679e-14 237.591 4.47696)
(-2.28113e-14 237.591 4.47696)
(0 229.168 4.39868)
(0 229.168 4.39868)
(0 221.033 4.32169)
(-6.79757e-14 221.033 4.32169)
(-4.27586e-15 213.187 4.24617)
(-2.15801e-14 213.187 4.24617)
(-1.76092e-14 205.631 4.17227)
(0 205.631 4.17227)
(-3.58174e-14 198.361 4.10011)
(7.16348e-14 198.361 4.10011)
(-1.8203e-14 191.371 4.02976)
(0 191.371 4.02976)
(-1.69429e-14 184.656 3.9613)
(-9.40097e-14 184.656 3.9613)
(1.87762e-14 178.21 3.89474)
(-7.51048e-14 178.21 3.89474)
(0 172.022 3.8301)
(0 172.022 3.8301)
(-3.86598e-14 166.086 3.7674)
(1.54639e-13 166.086 3.7674)
(-1.95997e-14 160.392 3.70661)
(7.8399e-14 160.392 3.70661)
(1.82711e-14 154.932 3.64771)
(0 154.932 3.64771)
(-3.80625e-14 149.695 3.59068)
(8.05046e-14 149.695 3.59068)
(1.76076e-14 144.673 3.53548)
(-1.76076e-14 144.673 3.53548)
(-2.06357e-14 139.857 3.48206)
(-1.7285e-14 139.857 3.48206)
(0 135.238 3.43039)
(-3.39365e-14 135.238 3.43039)
(0 130.807 3.38041)
(8.45178e-14 130.807 3.38041)
(0 126.557 3.33208)
(0 126.557 3.33208)
(-2.16084e-14 122.478 3.28535)
(8.64336e-14 122.478 3.28535)
(-3.15165e-14 118.563 3.24016)
(1.18887e-13 118.563 3.24016)
(-2.20735e-14 114.805 3.19647)
(-8.82942e-14 114.805 3.19647)
(3.0372e-14 111.197 3.15423)
(-8.92048e-14 111.197 3.15423)
(-4.50515e-14 107.731 3.11338)
(9.0103e-14 107.731 3.11338)
(-4.54945e-14 104.401 3.07387)
(0 104.401 3.07387)
(0 101.2 3.03567)
(9.18634e-14 101.2 3.03567)
(-2.31816e-14 98.1233 2.99871)
(-1.20933e-13 98.1233 2.99871)
(2.33947e-14 95.1646 2.96296)
(0 95.1646 2.96296)
(2.36051e-14 92.3185 2.92838)
(-9.44202e-14 92.3185 2.92838)
(-4.76258e-14 89.5799 2.89491)
(-2.66839e-14 89.5799 2.89491)
(0 86.9438 2.86252)
(0 86.9438 2.86252)
(4.99361e-14 84.4055 2.83117)
(-2.19485e-13 84.4055 2.83117)
(2.44219e-14 81.9608 2.80082)
(0 81.9608 2.80082)
(0 79.6054 2.77143)
(9.84813e-14 79.6054 2.77143)
(4.91436e-14 77.3353 2.74297)
(9.92664e-14 77.3353 2.74297)
(-2.61403e-14 75.1467 2.7154)
(2.38812e-14 75.1467 2.7154)
(-2.69622e-14 73.036 2.68869)
(1.00811e-13 73.036 2.68869)
(2.5393e-14 70.9998 2.66281)
(2.03144e-13 70.9998 2.66281)
(-2.55813e-14 69.0349 2.63773)
(0 69.0349 2.63773)
(-5.15354e-14 67.1383 2.61341)
(1.03071e-13 67.1383 2.61341)
(-2.59523e-14 65.3069 2.58984)
(1.03809e-13 65.3069 2.58984)
(-2.13729e-14 63.538 2.56698)
(-4.27458e-14 63.538 2.56698)
(2.63164e-14 61.8289 2.54481)
(1.05266e-13 61.8289 2.54481)
(2.64959e-14 60.1772 2.5233)
(1.05984e-13 60.1772 2.5233)
(-2.66739e-14 58.5805 2.50243)
(1.06696e-13 58.5805 2.50243)
(2.68504e-14 57.0365 2.48218)
(0 57.0365 2.48218)
(1.19449e-14 55.5431 2.46253)
(6.91311e-14 55.5431 2.46253)
(2.71989e-14 54.0981 2.44345)
(0 54.0981 2.44345)
(-2.7371e-14 52.6997 2.42493)
(7.19289e-14 52.6997 2.42493)
(2.75417e-14 51.3459 2.40694)
(1.10167e-13 51.3459 2.40694)
(0 50.0351 2.38947)
(7.46534e-14 50.0351 2.38947)
(3.55281e-14 48.7655 2.3725)
(-1.47045e-13 48.7655 2.3725)
(3.48771e-14 47.5354 2.35601)
(7.73079e-14 47.5354 2.35601)
(-6.24499e-14 46.3435 2.33999)
(3.4238e-14 46.3435 2.33999)
(-2.83765e-14 45.1882 2.32441)
(1.13506e-13 45.1882 2.32441)
(0 44.0681 2.30928)
(3.29947e-14 44.0681 2.30928)
(0 42.9818 2.29457)
(-3.23901e-14 42.9818 2.29457)
(2.88634e-14 41.9282 2.28026)
(1.15453e-13 41.9282 2.28026)
(-2.19034e-15 40.906 2.26635)
(8.48802e-14 40.906 2.26635)
(0 39.9141 2.25282)
(1.16731e-13 39.9141 2.25282)
(-5.86816e-14 38.9512 2.23966)
(1.17363e-13 38.9512 2.23966)
(2.9498e-14 38.0165 2.22686)
(1.17992e-13 38.0165 2.22686)
(0 37.1088 2.21441)
(-1.18617e-13 37.1088 2.21441)
(2.84568e-14 36.2272 2.20229)
(-2.84568e-14 36.2272 2.20229)
(-5.9928e-14 35.3707 2.19049)
(0 35.3707 2.19049)
(-3.01176e-14 34.5386 2.17901)
(-2.74235e-14 34.5386 2.17901)
(-2.69209e-14 33.7298 2.16783)
(-1.21081e-13 33.7298 2.16783)
(6.08446e-14 32.9437 2.15695)
(0 32.9437 2.15695)
(3.52035e-14 32.1794 2.14635)
(1.22294e-13 32.1794 2.14635)
(-3.07238e-14 31.4362 2.13604)
(1.22895e-13 31.4362 2.13604)
(6.17468e-14 30.7133 2.12599)
(-5.00025e-14 30.7133 2.12599)
(3.10223e-14 30.0102 2.1162)
(1.24089e-13 30.0102 2.1162)
(-3.11705e-14 29.326 2.10666)
(0 29.326 2.10666)
(-4.73037e-14 28.6602 2.09737)
(2.97847e-13 28.6602 2.09737)
(-3.14647e-14 28.0122 2.08831)
(0 28.0122 2.08831)
(-4.5586e-14 27.3814 2.07949)
(2.52887e-13 27.3814 2.07949)
(-3.17563e-14 26.7673 2.07088)
(0 26.7673 2.07088)
(4.39306e-14 26.1692 2.0625)
(1.27605e-13 26.1692 2.0625)
(3.20454e-14 25.5867 2.05432)
(2.56364e-13 25.5867 2.05432)
(-3.21891e-14 25.0193 2.04635)
(1.28756e-13 25.0193 2.04635)
(-9.22736e-15 24.4665 2.03857)
(1.29329e-13 24.4665 2.03857)
(-2.41514e-14 23.9278 2.03098)
(8.91007e-14 23.9278 2.03098)
(-8.01007e-14 23.4028 2.02358)
(2.60933e-13 23.4028 2.02358)
(0 22.8911 2.01636)
(1.31032e-13 22.8911 2.01636)
(-3.28989e-14 22.3922 2.00931)
(0 22.3922 2.00931)
(3.30393e-14 21.9058 2.00243)
(0 21.9058 2.00243)
(0 21.4315 1.99571)
(0 21.4315 1.99571)
(-3.33186e-14 20.9688 1.98915)
(-3.65128e-14 20.9688 1.98915)
(-3.34575e-14 20.5176 1.98274)
(-1.3383e-13 20.5176 1.98274)
(-6.87829e-14 20.0773 1.97647)
(2.68768e-13 20.0773 1.97647)
(-3.45421e-14 19.6478 1.97035)
(1.69478e-13 19.6478 1.97035)
(3.76748e-17 19.2286 1.96437)
(1.01577e-13 19.2286 1.96437)
(3.32878e-14 18.8195 1.95852)
(1.02747e-13 18.8195 1.95852)
(-6.68231e-14 18.4201 1.9528)
(1.69259e-13 18.4201 1.9528)
(-3.2079e-14 18.0302 1.9472)
(1.69205e-13 18.0302 1.9472)
(-3.44175e-14 17.6495 1.94172)
(0 17.6495 1.94172)
(-3.45529e-14 17.2778 1.93635)
(0 17.2778 1.93635)
(-6.50356e-14 16.9147 1.9311)
(3.03476e-14 16.9147 1.9311)
(-2.47602e-14 16.5601 1.92595)
(-1.39291e-13 16.5601 1.92595)
(0 16.2136 1.9209)
(-5.84911e-14 16.2136 1.9209)
(0 15.8751 1.91594)
(0 15.8751 1.91594)
(1.47959e-13 15.5444 1.91109)
(0 15.5444 1.91109)
(-3.53579e-14 15.2211 1.90631)
(1.41432e-13 15.2211 1.90631)
(-8.98111e-14 14.9052 1.90163)
(1.41963e-13 14.9052 1.90163)
(-3.56235e-14 14.5963 1.89702)
(0 14.5963 1.89702)
(0 14.2944 1.89249)
(1.43023e-13 14.2944 1.89249)
(-3.58877e-14 13.9991 1.88803)
(-1.94939e-13 13.9991 1.88803)
(3.60193e-14 13.7104 1.88364)
(1.44077e-13 13.7104 1.88364)
(3.61506e-14 13.428 1.87931)
(1.44602e-13 13.428 1.87931)
(3.62816e-14 13.1518 1.87503)
(0 13.1518 1.87503)
(-4.7724e-14 12.8817 1.87082)
(1.93373e-13 12.8817 1.87082)
(-3.65427e-14 12.6173 1.86665)
(0 12.6173 1.86665)
(0 12.3586 1.86253)
(1.46691e-13 12.3586 1.86253)
(-3.68026e-14 12.1055 1.85845)
(-4.51482e-14 12.1055 1.85845)
(0 11.8577 1.85441)
(0 11.8577 1.85441)
(4.35087e-14 11.6152 1.8504)
(1.48245e-13 11.6152 1.8504)
(0 11.3777 1.84641)
(1.48761e-13 11.3777 1.84641)
(-3.73189e-14 11.1452 1.84245)
(0 11.1452 1.84245)
(-3.74473e-14 10.9176 1.83851)
(0 10.9176 1.83851)
(-3.75754e-14 10.6946 1.83458)
(0 10.6946 1.83458)
(3.57409e-14 10.4762 1.83067)
(1.50813e-13 10.4762 1.83067)
(-1.13493e-13 10.2622 1.82675)
(1.51323e-13 10.2622 1.82675)
(-3.82253e-14 10.0526 1.82283)
(1.51833e-13 10.0526 1.82283)
(-3.80852e-14 9.84717 1.81891)
(-3.75249e-14 9.84717 1.81891)
(-3.82119e-14 9.64585 1.81497)
(0 9.64585 1.81497)
(0 9.44853 1.81101)
(0 9.44853 1.81101)
(0 9.25508 1.80703)
(1.53859e-13 9.25508 1.80703)
(-3.85906e-14 9.06542 1.80302)
(-1.54362e-13 9.06542 1.80302)
(0 8.87944 1.79897)
(0 8.87944 1.79897)
(-1.06009e-13 8.69704 1.79488)
(-3.10733e-13 8.69704 1.79488)
(-1.04903e-13 8.51812 1.79075)
(0 8.51812 1.79075)
(0 8.3426 1.78655)
(0 8.3426 1.78655)
(0 8.17038 1.78229)
(1.25094e-13 8.17038 1.78229)
(-7.86809e-14 8.00136 1.77797)
(3.14724e-13 8.00136 1.77797)
(0 7.83547 1.77356)
(1.57858e-13 7.83547 1.77356)
(-3.95881e-14 7.67262 1.76907)
(0 7.67262 1.76907)
(0 7.51272 1.76448)
(-1.58846e-13 7.51272 1.76448)
(1.80948e-14 7.3557 1.75979)
(-5.79294e-14 7.3557 1.75979)
(0 7.20146 1.75499)
(1.5983e-13 7.20146 1.75499)
(0 7.04994 1.75007)
(1.60319e-13 7.04994 1.75007)
(4.0202e-14 6.90106 1.74501)
(3.21616e-13 6.90106 1.74501)
(4.03238e-14 6.75474 1.73982)
(1.61295e-13 6.75474 1.73982)
(0 6.6109 1.73447)
(1.61781e-13 6.6109 1.73447)
(4.05664e-14 6.46948 1.72896)
(2.1411e-13 6.46948 1.72896)
(-4.06871e-14 6.3304 1.72327)
(3.25497e-13 6.3304 1.72327)
(-4.08075e-14 6.19359 1.7174)
(-1.6323e-13 6.19359 1.7174)
(0 6.05898 1.71132)
(4.90467e-14 6.05898 1.71132)
(-4.10471e-14 5.9265 1.70503)
(-4.8148e-14 5.9265 1.70503)
(-8.23327e-14 5.79609 1.69851)
(-4.72657e-14 5.79609 1.69851)
(-8.76847e-14 5.66767 1.69175)
(1.65141e-13 5.66767 1.69175)
(4.55493e-14 5.54118 1.68472)
(-4.55493e-14 5.54118 1.68472)
(-4.15214e-14 5.41656 1.67742)
(0 5.41656 1.67742)
(0 5.29373 1.66981)
(-4.38952e-14 5.29373 1.66981)
(4.17559e-14 5.17263 1.6619)
(3.34047e-13 5.17263 1.6619)
(8.37446e-14 5.0532 1.65364)
(-1.67489e-13 5.0532 1.65364)
(4.24504e-14 4.93537 1.64503)
(4.15261e-14 4.93537 1.64503)
(8.42073e-14 4.81907 1.63603)
(3.36829e-13 4.81907 1.63603)
(4.22185e-14 4.70424 1.62663)
(1.68874e-13 4.70424 1.62663)
(4.23327e-14 4.59082 1.61679)
(1.69331e-13 4.59082 1.61679)
(-4.24463e-14 4.47873 1.6065)
(1.69785e-13 4.47873 1.6065)
(-4.25593e-14 4.3679 1.59571)
(0 4.3679 1.59571)
(0 4.25828 1.5844)
(1.70686e-13 4.25828 1.5844)
(-8.55664e-14 4.14979 1.57253)
(1.34649e-13 4.14979 1.57253)
(-4.2894e-14 4.04235 1.56007)
(0 4.04235 1.56007)
(0 3.9359 1.54696)
(3.44033e-13 3.9359 1.54696)
(0 3.83036 1.53319)
(0 3.83036 1.53319)
(4.32217e-14 3.72565 1.51868)
(-1.72887e-13 3.72565 1.51868)
(4.33292e-14 3.6217 1.5034)
(0 3.6217 1.5034)
(-2.15686e-14 3.51842 1.48729)
(0 3.51842 1.48729)
(2.29764e-14 3.41572 1.4703)
(0 3.41572 1.4703)
(0 3.31352 1.45235)
(1.74584e-13 3.31352 1.45235)
(6.17784e-14 3.21172 1.43338)
(1.74997e-13 3.21172 1.43338)
(-1.67948e-14 3.11023 1.41331)
(2.36052e-13 3.11023 1.41331)
(0 3.00894 1.39206)
(-1.7581e-13 3.00894 1.39206)
(-4.40523e-14 2.90773 1.36954)
(0 2.90773 1.36954)
(-4.41506e-14 2.8065 1.34566)
(1.76602e-13 2.8065 1.34566)
(0 2.70512 1.32029)
(1.7699e-13 2.70512 1.32029)
(6.62365e-14 2.60344 1.29333)
(-1.77371e-13 2.60344 1.29333)
(9.87131e-14 2.50135 1.26465)
(3.01216e-13 2.50135 1.26465)
(0 2.39867 1.2341)
(1.24832e-13 2.39867 1.2341)
(-4.46187e-14 2.29525 1.20152)
(0 2.29525 1.20152)
(4.47069e-14 2.19091 1.16675)
(1.78828e-13 2.19091 1.16675)
(5.61309e-15 2.08548 1.1296)
(2.29578e-13 2.08548 1.1296)
(-4.48769e-14 1.97874 1.08986)
(1.79508e-13 1.97874 1.08986)
(0 1.87049 1.0473)
(9.71514e-14 1.87049 1.0473)
(4.50375e-14 1.76051 1.0017)
(0 1.76051 1.0017)
(-9.02275e-14 1.64857 0.952781)
(1.80455e-13 1.64857 0.952781)
(4.59539e-14 1.53442 0.900268)
(0 1.53442 0.900268)
(0 1.41782 0.843866)
(0 1.41782 0.843866)
(1.03924e-15 1.29852 0.783264)
(2.25583e-13 1.29852 0.783264)
(4.15595e-14 1.1763 0.718145)
(1.81551e-13 1.1763 0.718145)
(-8.81244e-14 1.05093 0.648186)
(0 1.05093 0.648186)
(0 0.922224 0.573073)
(0 0.922224 0.573073)
(4.11273e-14 0.790022 0.492507)
(-2.23342e-13 0.790022 0.492507)
(3.51474e-14 0.654228 0.406217)
(-8.07473e-14 0.654228 0.406217)
(-6.00704e-15 0.514809 0.313972)
(1.82563e-13 0.514809 0.313972)
(0 0.371808 0.215593)
(1.82705e-13 0.371808 0.215593)
(3.06834e-14 0.225349 0.110957)
(-7.63891e-14 0.225349 0.110957)
(-1.20718e-13 7.91434e-07 2.92931e-07)
(4.40934e-13 5.12836e-07 1.89815e-07)
(0 455.644 -0.84323)
(0 455.644 -0.84323)
(-4.49311e-16 455.643 -2.54543)
(0 455.643 -2.54543)
(-2.07261e-16 455.642 -3.53267)
(0 455.642 -3.53267)
(3.39609e-16 455.64 -3.59859)
(0 455.64 -3.59859)
(-1.15999e-15 455.637 -3.66574)
(0 455.637 -3.66574)
(8.24864e-16 455.634 -3.73413)
(-1.66909e-15 455.634 -3.73413)
(-1.6385e-15 455.628 -3.80378)
(-1.6385e-15 455.628 -3.80378)
(2.65681e-15 455.62 -3.87471)
(0 455.62 -3.87471)
(-4.74525e-15 455.608 -3.94691)
(6.34898e-15 455.608 -3.94691)
(1.85092e-15 455.59 -4.0204)
(-7.40367e-15 455.59 -4.0204)
(1.19571e-15 455.563 -4.09515)
(-8.47806e-15 455.563 -4.09515)
(2.39313e-15 455.523 -4.17115)
(0 455.523 -4.17115)
(2.60965e-16 455.463 -4.24835)
(-1.36202e-14 455.463 -4.24835)
(5.75813e-15 455.377 -4.32669)
(-1.1823e-14 455.377 -4.32669)
(3.24497e-15 455.253 -4.40605)
(-1.29799e-14 455.253 -4.40605)
(-5.54904e-15 455.08 -4.48631)
(0 455.08 -4.48631)
(3.83963e-15 454.842 -4.56728)
(-2.08059e-14 454.842 -4.56728)
(4.14525e-15 454.517 -4.64872)
(1.6581e-14 454.517 -4.64872)
(4.45649e-15 454.082 -4.73032)
(0 454.082 -4.73032)
(9.54686e-15 453.508 -4.8117)
(0 453.508 -4.8117)
(5.09611e-15 452.761 -4.89241)
(1.02666e-14 452.761 -4.89241)
(1.5357e-14 451.803 -4.9719)
(1.17658e-14 451.803 -4.9719)
(-5.75878e-15 450.588 -5.04951)
(0 450.588 -5.04951)
(1.21975e-14 449.071 -5.12454)
(0 449.071 -5.12454)
(-2.95194e-15 447.198 -5.19617)
(9.39633e-15 447.198 -5.19617)
(9.22415e-15 444.917 -5.26353)
(0 444.917 -5.26353)
(-9.05512e-15 442.175 -5.32569)
(0 442.175 -5.32569)
(1.50279e-14 438.92 -5.38173)
(0 438.92 -5.38173)
(7.8806e-15 435.107 -5.43073)
(3.15224e-14 435.107 -5.43073)
(1.65035e-14 430.696 -5.47184)
(0 430.696 -5.47184)
(8.62691e-15 425.66 -5.50429)
(0 425.66 -5.50429)
(9.00563e-15 419.982 -5.52749)
(-8.25531e-15 419.982 -5.52749)
(9.38731e-15 413.66 -5.54097)
(-2.13412e-14 413.66 -5.54097)
(0 406.707 -5.5445)
(-5.49963e-14 406.707 -5.5445)
(0 399.151 -5.53802)
(0 399.151 -5.53802)
(1.05435e-14 391.035 -5.52172)
(-4.21739e-14 391.035 -5.52172)
(6.80808e-15 382.411 -5.49593)
(0 382.411 -5.49593)
(-1.13164e-14 373.345 -5.46121)
(-4.52655e-14 373.345 -5.46121)
(-1.17013e-14 363.907 -5.41821)
(-9.36102e-14 363.907 -5.41821)
(-1.20842e-14 354.171 -5.36773)
(0 354.171 -5.36773)
(-1.24646e-14 344.215 -5.31062)
(0 344.215 -5.31062)
(-1.28419e-14 334.112 -5.24775)
(-1.02735e-13 334.112 -5.24775)
(2.64308e-14 323.935 -5.18003)
(0 323.935 -5.18003)
(1.35848e-14 313.749 -5.10833)
(-6.75636e-14 313.749 -5.10833)
(2.78993e-14 303.613 -5.03347)
(2.98343e-14 303.613 -5.03347)
(2.70538e-14 293.58 -4.95622)
(-6.99827e-14 293.58 -4.95622)
(-2.9329e-14 283.695 -4.87729)
(-5.86579e-14 283.695 -4.87729)
(3.0028e-14 273.997 -4.79731)
(6.0056e-14 273.997 -4.79731)
(0 264.515 -4.71684)
(0 264.515 -4.71684)
(-1.56965e-14 255.276 -4.63636)
(-1.49243e-13 255.276 -4.63636)
(1.60293e-14 246.296 -4.55628)
(-8.73545e-14 246.296 -4.55628)
(1.63565e-14 237.591 -4.47696)
(0 237.591 -4.47696)
(0 229.168 -4.39868)
(-1.33424e-13 229.168 -4.39868)
(1.69939e-14 221.033 -4.32169)
(0 221.033 -4.32169)
(1.30284e-14 213.187 -4.24617)
(2.15801e-14 213.187 -4.24617)
(0 205.631 -4.17227)
(-9.16214e-14 205.631 -4.17227)
(1.79087e-14 198.361 -4.10011)
(-2.07965e-14 198.361 -4.10011)
(1.8203e-14 191.371 -4.02976)
(-7.28119e-14 191.371 -4.02976)
(0 184.656 -3.9613)
(-7.39684e-14 184.656 -3.9613)
(0 178.21 -3.89474)
(-7.51048e-14 178.21 -3.89474)
(1.90554e-14 172.022 -3.8301)
(0 172.022 -3.8301)
(1.89596e-14 166.086 -3.7674)
(-1.89596e-14 166.086 -3.7674)
(3.82119e-14 160.392 -3.70661)
(-1.86122e-14 160.392 -3.70661)
(1.98651e-14 154.932 -3.64771)
(0 154.932 -3.64771)
(0 149.695 -3.59068)
(-8.05046e-14 149.695 -3.59068)
(0 144.673 -3.53548)
(0 144.673 -3.53548)
(2.06357e-14 139.857 -3.48206)
(-8.25428e-14 139.857 -3.48206)
(3.39365e-14 135.238 -3.43039)
(-1.17474e-13 135.238 -3.43039)
(0 130.807 -3.38041)
(0 130.807 -3.38041)
(-2.13707e-14 126.557 -3.33208)
(1.70966e-13 126.557 -3.33208)
(0 122.478 -3.28535)
(3.21048e-14 122.478 -3.28535)
(2.18426e-14 118.563 -3.24016)
(-8.73706e-14 118.563 -3.24016)
(2.20735e-14 114.805 -3.19647)
(-8.82942e-14 114.805 -3.19647)
(3.0372e-14 111.197 -3.15423)
(-1.7841e-13 111.197 -3.15423)
(-2.25257e-14 107.731 -3.11338)
(0 107.731 -3.11338)
(0 104.401 -3.07387)
(0 104.401 -3.07387)
(0 101.2 -3.03567)
(9.18634e-14 101.2 -3.03567)
(5.02464e-15 98.1233 -2.99871)
(-3.70906e-13 98.1233 -2.99871)
(4.67893e-14 95.1646 -2.96296)
(-9.35786e-14 95.1646 -2.96296)
(-2.36051e-14 92.3185 -2.92838)
(0 92.3185 -2.92838)
(-2.38129e-14 89.5799 -2.89491)
(-9.52516e-14 89.5799 -2.89491)
(-4.80365e-14 86.9438 -2.86252)
(-1.22268e-13 86.9438 -2.86252)
(-2.42212e-14 84.4055 -2.83117)
(-1.9377e-13 84.4055 -2.83117)
(4.88438e-14 81.9608 -2.80082)
(-9.76876e-14 81.9608 -2.80082)
(2.46203e-14 79.6054 -2.77143)
(9.84813e-14 79.6054 -2.77143)
(0 77.3353 -2.74297)
(9.92664e-14 77.3353 -2.74297)
(1.12954e-15 75.1467 -2.7154)
(-1.23924e-13 75.1467 -2.7154)
(-7.38493e-14 73.036 -2.68869)
(1.00811e-13 73.036 -2.68869)
(7.1421e-14 70.9998 -2.66281)
(-4.6028e-14 70.9998 -2.66281)
(-2.98901e-15 69.0349 -2.63773)
(0 69.0349 -2.63773)
(4.43566e-14 67.1383 -2.61341)
(-4.43566e-14 67.1383 -2.61341)
(2.59523e-14 65.3069 -2.58984)
(1.03809e-13 65.3069 -2.58984)
(2.13729e-14 63.538 -2.56698)
(-1.04541e-13 63.538 -2.56698)
(0 61.8289 -2.54481)
(-4.19625e-14 61.8289 -2.54481)
(2.64959e-14 60.1772 -2.5233)
(6.47902e-14 60.1772 -2.5233)
(0 58.5805 -2.50243)
(-4.04387e-14 58.5805 -2.50243)
(0 57.0365 -2.48218)
(-2.14803e-13 57.0365 -2.48218)
(3.89702e-14 55.5431 -2.46253)
(-3.89702e-14 55.5431 -2.46253)
(2.71989e-14 54.0981 -2.44345)
(-1.47052e-13 54.0981 -2.44345)
(2.7371e-14 52.6997 -2.42493)
(0 52.6997 -2.42493)
(2.75417e-14 51.3459 -2.40694)
(2.20334e-13 51.3459 -2.40694)
(2.77112e-14 50.0351 -2.38947)
(0 50.0351 -2.38947)
(2.78793e-14 48.7655 -2.3725)
(-1.11517e-13 48.7655 -2.3725)
(-6.83083e-15 47.5354 -2.35601)
(1.12185e-13 47.5354 -2.35601)
(0 46.3435 -2.33999)
(0 46.3435 -2.33999)
(5.23408e-15 45.1882 -2.32441)
(-1.47117e-13 45.1882 -2.32441)
(0 44.0681 -2.30928)
(-3.29947e-14 44.0681 -2.30928)
(0 42.9818 -2.29457)
(-3.23901e-14 42.9818 -2.29457)
(0 41.9282 -2.28026)
(0 41.9282 -2.28026)
(3.12139e-14 40.906 -2.26635)
(-1.47308e-13 40.906 -2.26635)
(-3.06419e-14 39.9141 -2.25282)
(-6.12837e-14 39.9141 -2.25282)
(0 38.9512 -2.23966)
(-3.00804e-14 38.9512 -2.23966)
(-3.11698e-17 38.0165 -2.22686)
(0 38.0165 -2.22686)
(-2.96542e-14 37.1088 -2.21441)
(0 37.1088 -2.21441)
(-2.98096e-14 36.2272 -2.20229)
(-2.84568e-14 36.2272 -2.20229)
(2.02864e-15 35.3707 -2.19049)
(0 35.3707 -2.19049)
(0 34.5386 -2.17901)
(0 34.5386 -2.17901)
(-3.36198e-14 33.7298 -2.16783)
(-2.42163e-13 33.7298 -2.16783)
(0 32.9437 -2.15695)
(0 32.9437 -2.15695)
(3.05734e-14 32.1794 -2.14635)
(0 32.1794 -2.14635)
(-2.54679e-14 31.4362 -2.13604)
(1.22895e-13 31.4362 -2.13604)
(5.00025e-14 30.7133 -2.12599)
(-1.73496e-13 30.7133 -2.12599)
(0 30.0102 -2.1162)
(-1.24089e-13 30.0102 -2.1162)
(-3.11705e-14 29.326 -2.10666)
(-1.24682e-13 29.326 -2.10666)
(0 28.6602 -2.09737)
(1.25272e-13 28.6602 -2.09737)
(7.79016e-14 28.0122 -2.08831)
(0 28.0122 -2.08831)
(6.32217e-14 27.3814 -2.07949)
(1.26443e-13 27.3814 -2.07949)
(-3.17563e-14 26.7673 -2.07088)
(8.22747e-14 26.7673 -2.07088)
(0 26.1692 -2.0625)
(-4.39306e-14 26.1692 -2.0625)
(3.20454e-14 25.5867 -2.05432)
(-4.31256e-14 25.5867 -2.05432)
(-1.01462e-14 25.0193 -2.04635)
(1.71092e-13 25.0193 -2.04635)
(3.23322e-14 24.4665 -2.03857)
(1.29329e-13 24.4665 -2.03857)
(3.24747e-14 23.9278 -2.03098)
(0 23.9278 -2.03098)
(4.00503e-14 23.4028 -2.02358)
(-1.30467e-13 23.4028 -2.02358)
(3.2758e-14 22.8911 -2.01636)
(-3.93164e-14 22.8911 -2.01636)
(5.69704e-15 22.3922 -2.00931)
(-3.8596e-14 22.3922 -2.00931)
(0 21.9058 -2.00243)
(0 21.9058 -2.00243)
(3.31792e-14 21.4315 -1.99571)
(-3.71944e-14 21.4315 -1.99571)
(1.0315e-13 20.9688 -1.98915)
(0 20.9688 -1.98915)
(0 20.5176 -1.98274)
(0 20.5176 -1.98274)
(3.35959e-14 20.0773 -1.97647)
(2.68768e-13 20.0773 -1.97647)
(3.45421e-14 19.6478 -1.97035)
(-3.45421e-14 19.6478 -1.97035)
(-1.0169e-13 19.2286 -1.96437)
(0 19.2286 -1.96437)
(-3.40086e-14 18.8195 -1.95852)
(0 18.8195 -1.95852)
(0 18.4201 -1.9528)
(3.26778e-14 18.4201 -1.9528)
(3.42816e-14 18.0302 -1.9472)
(0 18.0302 -1.9472)
(6.29823e-14 17.6495 -1.94172)
(0 17.6495 -1.94172)
(6.91059e-14 17.2778 -1.93635)
(-1.38212e-13 17.2778 -1.93635)
(6.93761e-14 16.9147 -1.9311)
(-1.38752e-13 16.9147 -1.9311)
(-5.03125e-15 16.5601 -1.92595)
(-4.17873e-13 16.5601 -1.92595)
(-5.71151e-15 16.2136 -1.9209)
(-2.92456e-14 16.2136 -1.9209)
(0 15.8751 -1.91594)
(8.29449e-14 15.8751 -1.91594)
(0 15.5444 -1.91109)
(-5.63671e-14 15.5444 -1.91109)
(3.53579e-14 15.2211 -1.90631)
(0 15.2211 -1.90631)
(1.88294e-14 14.9052 -1.90163)
(-1.96284e-13 14.9052 -1.90163)
(5.33248e-14 14.5963 -1.89702)
(-5.33248e-14 14.5963 -1.89702)
(3.57557e-14 14.2944 -1.89249)
(1.43023e-13 14.2944 -1.89249)
(7.17753e-14 13.9991 -1.88803)
(-1.43551e-13 13.9991 -1.88803)
(0 13.7104 -1.88364)
(-1.44077e-13 13.7104 -1.88364)
(3.61506e-14 13.428 -1.87931)
(0 13.428 -1.87931)
(-4.86148e-14 13.1518 -1.87503)
(-1.45126e-13 13.1518 -1.87503)
(0 12.8817 -1.87082)
(-2.91298e-13 12.8817 -1.87082)
(0 12.6173 -1.86665)
(-4.68495e-14 12.6173 -1.86665)
(7.33455e-14 12.3586 -1.86253)
(1.46691e-13 12.3586 -1.86253)
(3.68026e-14 12.1055 -1.85845)
(0 12.1055 -1.85845)
(0 11.8577 -1.85441)
(1.47728e-13 11.8577 -1.85441)
(3.70613e-14 11.6152 -1.8504)
(-1.48245e-13 11.6152 -1.8504)
(0 11.3777 -1.84641)
(-1.48761e-13 11.3777 -1.84641)
(0 11.1452 -1.84245)
(0 11.1452 -1.84245)
(3.74473e-14 10.9176 -1.83851)
(-1.9095e-13 10.9176 -1.83851)
(7.51509e-14 10.6946 -1.83458)
(-1.50302e-13 10.6946 -1.83458)
(7.7369e-14 10.4762 -1.83067)
(1.11147e-13 10.4762 -1.83067)
(3.67229e-14 10.2622 -1.82675)
(1.51323e-13 10.2622 -1.82675)
(3.79582e-14 10.0526 -1.82283)
(0 10.0526 -1.82283)
(3.69645e-14 9.84717 -1.81891)
(-3.75249e-14 9.84717 -1.81891)
(7.50492e-14 9.64585 -1.81497)
(-1.89685e-13 9.64585 -1.81497)
(3.83384e-14 9.44853 -1.81101)
(1.53354e-13 9.44853 -1.81101)
(7.69293e-14 9.25508 -1.80703)
(0 9.25508 -1.80703)
(3.4849e-14 9.06542 -1.80302)
(1.54362e-13 9.06542 -1.80302)
(-3.87163e-14 8.87944 -1.79897)
(-1.89075e-13 8.87944 -1.79897)
(7.76833e-14 8.69704 -1.79488)
(-1.8895e-13 8.69704 -1.79488)
(-5.99867e-15 8.51812 -1.79075)
(-3.44702e-13 8.51812 -1.79075)
(3.90916e-14 8.3426 -1.78655)
(-1.56366e-13 8.3426 -1.78655)
(0 8.17038 -1.78229)
(1.25094e-13 8.17038 -1.78229)
(1.63034e-14 8.00136 -1.77797)
(1.57362e-13 8.00136 -1.77797)
(1.00699e-13 7.83547 -1.77356)
(-1.57858e-13 7.83547 -1.77356)
(-2.05242e-14 7.67262 -1.76907)
(0 7.67262 -1.76907)
(0 7.51272 -1.76448)
(-1.58846e-13 7.51272 -1.76448)
(0 7.3557 -1.75979)
(-1.59338e-13 7.3557 -1.75979)
(0 7.20146 -1.75499)
(-2.16697e-13 7.20146 -1.75499)
(5.58258e-14 7.04994 -1.75007)
(0 7.04994 -1.75007)
(4.0202e-14 6.90106 -1.74501)
(-5.48028e-14 6.90106 -1.74501)
(4.03238e-14 6.75474 -1.73982)
(1.61295e-13 6.75474 -1.73982)
(4.04452e-14 6.6109 -1.73447)
(0 6.6109 -1.73447)
(0 6.46948 -1.72896)
(1.62265e-13 6.46948 -1.72896)
(0 6.3304 -1.72327)
(-5.08949e-14 6.3304 -1.72327)
(0 6.19359 -1.7174)
(-1.6323e-13 6.19359 -1.7174)
(0 6.05898 -1.71132)
(-4.90467e-14 6.05898 -1.71132)
(-4.10471e-14 5.9265 -1.70503)
(0 5.9265 -1.70503)
(-4.11664e-14 5.79609 -1.69851)
(-1.64665e-13 5.79609 -1.69851)
(-4.12852e-14 5.66767 -1.69175)
(-2.1154e-13 5.66767 -1.69175)
(0 5.54118 -1.68472)
(0 5.54118 -1.68472)
(4.47146e-14 5.41656 -1.67742)
(-3.76886e-13 5.41656 -1.67742)
(4.38952e-14 5.29373 -1.66981)
(-2.10451e-13 5.29373 -1.66981)
(0 5.17263 -1.6619)
(0 5.17263 -1.6619)
(0 5.0532 -1.65364)
(-2.0979e-13 5.0532 -1.65364)
(-4.62179e-16 4.93537 -1.64503)
(-4.15261e-14 4.93537 -1.64503)
(8.42073e-14 4.81907 -1.63603)
(1.27649e-13 4.81907 -1.63603)
(8.4437e-14 4.70424 -1.62663)
(0 4.70424 -1.62663)
(8.46654e-14 4.59082 -1.61679)
(-1.69331e-13 4.59082 -1.61679)
(8.10112e-14 4.47873 -1.6065)
(-3.85649e-14 4.47873 -1.6065)
(-4.70107e-15 4.3679 -1.59571)
(-3.78582e-14 4.3679 -1.59571)
(0 4.25828 -1.5844)
(1.70686e-13 4.25828 -1.5844)
(-4.27832e-14 4.14979 -1.57253)
(1.34649e-13 4.14979 -1.57253)
(0 4.04235 -1.56007)
(-1.71576e-13 4.04235 -1.56007)
(3.51586e-14 3.9359 -1.54696)
(-2.07175e-13 3.9359 -1.54696)
(-1.12142e-13 3.83036 -1.53319)
(-1.72453e-13 3.83036 -1.53319)
(8.64435e-14 3.72565 -1.51868)
(-1.72887e-13 3.72565 -1.51868)
(4.33292e-14 3.6217 -1.5034)
(0 3.6217 -1.5034)
(-6.5303e-14 3.51842 -1.48729)
(1.0844e-13 3.51842 -1.48729)
(0 3.41572 -1.4703)
(0 3.41572 -1.4703)
(0 3.31352 -1.45235)
(-1.74584e-13 3.31352 -1.45235)
(0 3.21172 -1.43338)
(0 3.21172 -1.43338)
(-1.67948e-14 3.11023 -1.41331)
(1.1476e-13 3.11023 -1.41331)
(1.03488e-13 3.00894 -1.39206)
(-4.11155e-13 3.00894 -1.39206)
(0 2.90773 -1.36954)
(0 2.90773 -1.36954)
(-1.32225e-14 2.8065 -1.34566)
(0 2.8065 -1.34566)
(4.42475e-14 2.70512 -1.32029)
(-2.33312e-13 2.70512 -1.32029)
(-9.96325e-14 2.60344 -1.29333)
(1.77371e-13 2.60344 -1.29333)
(3.45967e-14 2.50135 -1.26465)
(1.77746e-13 2.50135 -1.26465)
(1.42339e-13 2.39867 -1.2341)
(-1.06564e-13 2.39867 -1.2341)
(-7.6868e-15 2.29525 -1.20152)
(0 2.29525 -1.20152)
(4.47069e-14 2.19091 -1.16675)
(-1.02694e-13 2.19091 -1.16675)
(-5.61309e-15 2.08548 -1.1296)
(-1.79172e-13 2.08548 -1.1296)
(4.48769e-14 1.97874 -1.08986)
(1.79508e-13 1.97874 -1.08986)
(0 1.87049 -1.0473)
(-1.79834e-13 1.87049 -1.0473)
(4.50375e-14 1.76051 -1.0017)
(-2.27835e-13 1.76051 -1.0017)
(9.19255e-14 1.64857 -0.952781)
(0 1.64857 -0.952781)
(4.59539e-14 1.53442 -0.900268)
(1.80749e-13 1.53442 -0.900268)
(0 1.41782 -0.843866)
(-3.6206e-13 1.41782 -0.843866)
(0 1.29852 -0.783264)
(-1.81298e-13 1.29852 -0.783264)
(4.53878e-14 1.1763 -0.718145)
(-1.81551e-13 1.1763 -0.718145)
(4.54474e-14 1.05093 -0.648186)
(1.81789e-13 1.05093 -0.648186)
(4.55028e-14 0.922224 -0.573073)
(-3.64022e-13 0.922224 -0.573073)
(9.11074e-14 0.790022 -0.492507)
(-1.82215e-13 0.790022 -0.492507)
(8.07473e-14 0.654228 -0.406217)
(-8.07473e-14 0.654228 -0.406217)
(-6.00704e-15 0.514809 -0.313972)
(1.03296e-13 0.514809 -0.313972)
(0 0.371808 -0.215593)
(-2.6052e-13 0.371808 -0.215593)
(-4.57058e-14 0.225349 -0.110957)
(1.06434e-13 0.225349 -0.110957)
(4.57289e-14 8.1552e-07 -3.01846e-07)
(1.83142e-13 5.10145e-07 -1.88818e-07)
(4.57856e-14 -7.92269e-07 2.93243e-07)
(1.82915e-13 -5.12074e-07 1.89532e-07)
(-3.81946e-14 -0.225349 0.110957)
(3.27452e-13 -0.225349 0.110957)
(-6.76875e-15 -0.371807 0.215593)
(-3.89075e-14 -0.371807 0.215593)
(0 -0.514808 0.313972)
(1.82563e-13 -0.514808 0.313972)
(0 -0.654227 0.406216)
(3.64799e-13 -0.654227 0.406216)
(-4.55537e-14 -0.790021 0.492506)
(-1.82215e-13 -0.790021 0.492506)
(8.379e-14 -0.922224 0.573072)
(0 -0.922224 0.573072)
(-4.54474e-14 -1.05093 0.648186)
(-1.81789e-13 -1.05093 0.648186)
(0 -1.1763 0.718145)
(0 -1.1763 0.718145)
(4.53244e-14 -1.29852 0.783264)
(4.42852e-14 -1.29852 0.783264)
(0 -1.41782 0.843865)
(1.8103e-13 -1.41782 0.843865)
(0 -1.53442 0.900268)
(1.80749e-13 -1.53442 0.900268)
(0 -1.64857 0.95278)
(0 -1.64857 0.95278)
(-4.50375e-14 -1.76051 1.0017)
(-2.27835e-13 -1.76051 1.0017)
(8.99169e-14 -1.87049 1.0473)
(-4.85757e-14 -1.87049 1.0473)
(0 -1.97874 1.08986)
(0 -1.97874 1.08986)
(8.95861e-14 -2.08548 1.1296)
(1.79172e-13 -2.08548 1.1296)