/*--------------------------------*- C++ -*----------------------------------*\
| =========                 |                                                 |
| \\      /  F ield         | OpenFOAM: The Open Source CFD Toolbox           |
|  \\    /   O peration     | Version:  2106                                  |
|   \\  /    A nd           | Website:  www.openfoam.com                      |
|    \\/     M anipulation  |                                                 |
\*---------------------------------------------------------------------------*/
FoamFile
{
    version     2.0;
    format      ascii;
    arch        "LSB;label=32;scalar=64";
    class       volTensorField;
    location    "10040";
    object      grad(U);
}
// * * * * * * * * * * * * * * * * * * * * * * * * * * * * * * * * * * * * * //

dimensions      [0 0 -1 0 0 0 0];

internalField   nonuniform List<tensor> 
2000
(
(0 -7.19772e-26 1.77852e-31 35.0251 -6.91451e-12 -2.34485e-13 0.0648249 -6.39838e-15 -1.47095e-16)
(0 -1.93208e-28 -1.77852e-31 35.0251 -8.72694e-16 1.11897e-18 0.0648249 -9.49817e-19 2.94458e-17)
(0 0 8.93022e-31 35.0185 0 -3.84602e-14 0.19566 -3.15544e-30 -1.45009e-16)
(0 -2.87329e-29 -3.39858e-32 35.0185 -3.58769e-15 -9.01489e-30 0.19566 -7.85536e-18 -2.44894e-16)
(-7.97775e-18 -4.38768e-31 -1.42464e-31 35.0118 7.75473e-13 -1.7997e-14 0.271426 -5.65642e-15 -1.31351e-16)
(0 6.26809e-30 2.93817e-31 35.0118 -3.94353e-15 -1.48336e-17 0.271426 -1.6225e-17 -2.54107e-16)
(-2.61161e-17 2.39435e-30 -4.04382e-32 35.005 5.2585e-13 -1.73683e-14 0.276439 -6.26275e-15 -1.40543e-16)
(1.04465e-16 3.07662e-30 1.92288e-31 35.005 -4.11768e-15 -1.26242e-17 0.276439 -2.53014e-17 -2.63628e-16)
(0 1.2081e-29 1.88765e-31 34.998 4.63361e-15 -1.81255e-14 0.281543 -1.92658e-15 -1.48484e-16)
(-1.06265e-16 -9.06071e-30 -9.43824e-32 34.998 -4.27113e-15 -1.09413e-17 0.281543 -3.46434e-17 -2.73466e-16)
(0 -3.90178e-27 5.55917e-31 34.9909 8.07794e-28 -1.86832e-14 0.286739 0 -1.54981e-16)
(-2.53618e-16 -2.07542e-29 -5.55917e-31 34.9909 -4.52595e-15 -1.12005e-17 0.286739 -4.47659e-17 -2.83635e-16)
(0 -8.73169e-30 -1.8191e-31 34.9836 6.99666e-15 -1.9128e-14 0.29203 -4.23301e-17 -1.61506e-16)
(3.30267e-16 8.73169e-30 3.6382e-31 34.9836 -4.57819e-15 -1.3835e-17 0.29203 -5.57335e-17 -2.94149e-16)
(0 0 -1.78577e-31 34.9761 8.14125e-15 -1.95664e-14 0.297416 -7.37029e-17 -1.68279e-16)
(8.16664e-16 2.85723e-30 3.57153e-31 34.9761 -4.48951e-15 -1.46253e-17 0.297416 -6.69564e-17 -3.0502e-16)
(-1.2196e-16 3.2499e-30 7.22546e-32 34.9681 7.21401e-15 -2.00066e-14 0.302896 -6.33931e-17 -1.75217e-16)
(0 5.60974e-30 1.75304e-31 34.9681 -4.63832e-15 -1.13815e-17 0.302896 -7.82854e-17 -3.16251e-16)
(3.87517e-16 -8.26041e-30 -3.44184e-31 34.9596 7.07133e-15 -2.04439e-14 0.308472 -6.04147e-17 -1.82338e-16)
(0 8.26041e-30 5.16276e-31 34.9596 -4.82277e-15 -9.54187e-18 0.308472 -9.04753e-17 -3.27856e-16)
(3.80415e-16 -3.51392e-29 -1.52045e-30 34.9501 7.41947e-15 -2.08801e-14 0.31414 -6.32637e-17 -1.89663e-16)
(-1.90208e-16 3.51392e-29 1.35151e-30 34.9501 -4.87462e-15 -1.21612e-17 0.31414 -1.03264e-16 -3.39838e-16)
(-1.89624e-16 4.71615e-30 4.13105e-31 34.9394 8.04031e-15 -2.13152e-14 0.3199 -6.89505e-17 -1.97178e-16)
(7.3528e-16 -5.30696e-30 -1.65843e-31 34.9394 -5.08177e-15 -1.34108e-17 0.3199 -1.15834e-16 -3.52217e-16)
(0 0 0 34.9269 8.48562e-15 -2.17459e-14 0.325745 -7.7018e-17 -2.04844e-16)
(0 0 0 34.9269 -5.26261e-15 -1.19551e-17 0.325745 -1.29839e-16 -3.64979e-16)
(-5.86871e-16 2.88101e-29 1.53188e-30 34.9119 8.56123e-15 -2.21693e-14 0.331669 -7.98565e-17 -2.12655e-16)
(0 -2.0457e-29 -1.27856e-30 34.9119 -5.1675e-15 -1.39119e-17 0.331669 -1.44423e-16 -3.78132e-16)
(-6.02458e-16 1.82982e-29 4.12138e-31 34.8935 8.81138e-15 -2.25806e-14 0.337663 -8.13572e-17 -2.20526e-16)
(0 -5.02053e-30 0 34.8935 -5.28509e-15 -9.32673e-18 0.337663 -1.58964e-16 -3.91694e-16)
(9.65389e-16 -1.30904e-29 -8.73523e-31 34.8706 8.95095e-15 -2.29725e-14 0.343714 -8.77086e-17 -2.28397e-16)
(-1.08704e-15 4.92853e-30 1.11179e-31 34.8706 -5.69394e-15 -4.81675e-18 0.343714 -1.75036e-16 -4.05627e-16)
(0 -9.67644e-30 -4.53583e-31 34.8415 8.84755e-15 -2.33391e-14 0.349803 -8.71753e-17 -2.36199e-16)
(0 9.67644e-30 4.53583e-31 34.8415 -5.66048e-15 -1.52473e-17 0.349803 -1.93004e-16 -4.19992e-16)
(6.3638e-16 -2.5455e-29 -1.71291e-30 34.8045 8.95055e-15 -2.36716e-14 0.355909 -8.89364e-17 -2.43809e-16)
(1.27276e-15 1.89982e-29 1.48424e-30 34.8045 -5.43474e-15 -7.32672e-18 0.355909 -2.09826e-16 -4.34728e-16)
(-3.4204e-16 3.22548e-30 1.20179e-31 34.7575 9.32004e-15 -2.39592e-14 0.362004 -9.25681e-17 -2.51095e-16)
(0 0 0 34.7575 -5.57082e-15 3.50298e-18 0.362004 -2.26869e-16 -4.49776e-16)
(3.6632e-16 -3.22202e-30 -4.12371e-31 34.6978 1.01642e-14 -2.41902e-14 0.368052 -9.99899e-17 -2.57901e-16)
(1.46528e-15 0 0 34.6978 -5.70463e-15 -1.22736e-29 0.368052 -2.45643e-16 -4.65156e-16)
(-3.91032e-16 3.21735e-30 4.13559e-31 34.6222 1.03395e-14 -2.43496e-14 0.374011 -1.13983e-16 -2.64006e-16)
(3.12825e-15 0 -2.80826e-31 34.6222 -6.00726e-15 -2.48352e-17 0.374011 -2.62925e-16 -4.80889e-16)
(0 1.32326e-29 5.5136e-31 34.5274 9.81582e-15 -2.44248e-14 0.379831 -1.0755e-16 -2.69276e-16)
(1.66471e-15 -8.82175e-30 -2.7568e-31 34.5274 -6.15097e-15 -1.72564e-17 0.379831 -2.8084e-16 -4.96803e-16)
(6.094e-16 -4.33005e-30 -8.11884e-31 34.4093 9.96228e-15 -2.43979e-14 0.385454 -1.06738e-16 -2.7335e-16)
(1.76701e-15 4.33005e-30 1.08251e-30 34.4093 -5.90123e-15 -3.58869e-18 0.385454 -3.007e-16 -5.12789e-16)
(0 1.27521e-29 1.06268e-30 34.2637 1.03272e-14 -2.42517e-14 0.390815 -1.1489e-16 -2.7608e-16)
(1.27278e-15 -8.5014e-30 -5.31338e-31 34.2637 -6.24999e-15 6.21053e-19 0.390815 -3.21642e-16 -5.28805e-16)
(-4.94175e-16 -9.67465e-31 -9.91421e-32 34.0861 1.06656e-14 -2.39731e-14 0.395841 -1.19104e-16 -2.77161e-16)
(0 8.34562e-30 -8.75812e-47 34.0861 -6.63876e-15 0 0.395841 -3.44936e-16 -5.44716e-16)
(5.76509e-16 -2.04817e-29 -1.53613e-30 33.8717 1.08308e-14 -2.355e-14 0.400455 -1.27101e-16 -2.76444e-16)
(1.5075e-15 2.04817e-29 1.53613e-30 33.8717 -6.61974e-15 -1.67216e-17 0.400455 -3.68976e-16 -5.60471e-16)
(5.83673e-16 -8.23748e-31 -3.24666e-31 33.6161 1.06945e-14 -2.29756e-14 0.404578 -1.27513e-16 -2.73722e-16)
(-5.65945e-16 4.02128e-30 7.5399e-31 33.6161 -6.83e-15 -1.21978e-17 0.404578 -3.9303e-16 -5.75868e-16)
(-5.75797e-16 -7.53642e-31 4.3328e-31 33.3149 1.12079e-14 -2.22438e-14 0.40813 -1.28596e-16 -2.68842e-16)
(0 7.89518e-30 2.46724e-31 33.3149 -6.78158e-15 -8.67222e-18 0.40813 -4.18842e-16 -5.90748e-16)
(-5.45393e-16 1.16258e-29 4.84407e-31 32.9644 1.2024e-14 -2.13557e-14 0.411033 -1.44958e-16 -2.61763e-16)
(0 -7.75051e-30 0 32.9644 -7.02959e-15 -1.09456e-17 0.411033 -4.43343e-16 -6.04978e-16)
(-1.70273e-15 3.74207e-29 3.05739e-30 32.5617 1.191e-14 -2.03194e-14 0.41322 -1.53911e-16 -2.52495e-16)
(-2.52773e-15 -3.04339e-29 -2.37765e-30 32.5617 -6.90036e-15 -6.38919e-18 0.41322 -4.70992e-16 -6.18457e-16)
(6.60408e-16 5.54907e-31 -6.79991e-31 32.1049 1.22715e-14 -1.9149e-14 0.414631 -1.47507e-16 -2.41165e-16)
(2.64163e-15 -3.73453e-30 9.63393e-46 32.1049 -6.24841e-15 -1.35819e-29 0.414631 -4.96983e-16 -6.30892e-16)
(-1.03191e-15 7.33219e-30 1.37479e-30 31.5932 1.26587e-14 -1.78691e-14 0.415225 -1.69119e-16 -2.28077e-16)
(0 -3.66609e-30 -4.58262e-31 31.5932 -7.06224e-15 -1.24048e-17 0.415225 -5.2156e-16 -6.42339e-16)
(-7.17944e-16 1.39664e-29 6.80778e-31 31.0274 1.24764e-14 -1.65052e-14 0.414974 -1.6333e-16 -2.13417e-16)
(0 -1.07967e-29 -4.49864e-31 31.0274 -7.54972e-15 -8.69709e-18 0.414974 -5.51756e-16 -6.52485e-16)
(-7.46891e-16 -3.90145e-30 -2.02091e-31 30.4094 1.27207e-14 -1.50839e-14 0.413872 -1.70571e-16 -1.97573e-16)
(0 1.05989e-29 8.83241e-31 30.4094 -7.05974e-15 -9.37911e-18 0.413872 -5.84451e-16 -6.61272e-16)
(0 -2.08093e-29 -2.16764e-30 29.7429 1.30442e-14 -1.3643e-14 0.411931 -1.76205e-16 -1.81077e-16)
(3.10352e-15 2.08093e-29 2.16764e-30 29.7429 -7.27173e-15 -2.76849e-17 0.411931 -6.13664e-16 -6.6883e-16)
(0 1.0214e-29 4.25584e-31 29.0322 1.34278e-14 -1.22171e-14 0.409181 -1.86064e-16 -1.64312e-16)
(-9.5833e-16 -3.40467e-30 0 29.0322 -7.69417e-15 -2.9991e-17 0.409181 -6.43159e-16 -6.74916e-16)
(8.33724e-16 -3.14741e-30 1.5458e-31 28.2832 1.36159e-14 -1.08321e-14 0.40567 -1.93795e-16 -1.47624e-16)
(3.33489e-15 0 -4.17785e-31 28.2832 -7.6265e-15 -4.08395e-17 0.40567 -6.75832e-16 -6.79626e-16)
(-1.78599e-15 -1.3264e-29 -1.78048e-30 27.502 1.34713e-14 -9.51415e-15 0.401459 -1.98544e-16 -1.31461e-16)
(3.44983e-15 1.96862e-29 2.05065e-30 27.502 -7.85771e-15 -3.55854e-17 0.401459 -7.0785e-16 -6.82995e-16)
(-8.90985e-16 -1.29686e-29 -2.13909e-30 26.6956 1.28434e-14 -8.28444e-15 0.396622 -1.96815e-16 -1.16079e-16)
(-9.06606e-16 1.93255e-29 2.41568e-30 26.6956 -8.16285e-15 -4.09072e-17 0.396622 -7.46623e-16 -6.8495e-16)
(-8.89993e-16 2.52951e-29 2.37142e-30 25.8709 1.20043e-14 -7.16087e-15 0.391236 -1.87078e-16 -1.01877e-16)
(4.56701e-15 -2.52951e-29 -2.37142e-30 25.8709 -7.25809e-15 -6.01514e-17 0.391236 -7.82264e-16 -6.85694e-16)
(-2.76811e-15 1.24659e-29 1.35153e-30 25.0348 1.11958e-14 -6.15291e-15 0.385385 -1.78436e-16 -8.88902e-17)
(3.78885e-15 -3.10395e-30 -3.87994e-31 25.0348 -6.79208e-15 -5.17865e-17 0.385385 -8.07575e-16 -6.85277e-16)
(0 -6.09414e-30 -1.14265e-30 24.1937 1.07132e-14 -5.26871e-15 0.379152 -1.68811e-16 -7.75114e-17)
(0 6.09414e-30 1.14265e-30 24.1937 -7.02133e-15 -3.07132e-17 0.379152 -8.44425e-16 -6.83694e-16)
(0 -1.19649e-29 -1.49562e-30 23.3538 1.07227e-14 -4.51068e-15 0.372616 -1.69766e-16 -6.76089e-17)
(0 1.19649e-29 1.49562e-30 23.3538 -7.26334e-15 -2.05457e-17 0.372616 -8.79206e-16 -6.81027e-16)
(-1.02883e-15 1.19267e-29 1.40166e-30 22.5205 1.11941e-14 -3.87396e-15 0.365855 -1.75481e-16 -5.93568e-17)
(-5.76838e-15 -2.93642e-30 -7.34105e-31 22.5205 -6.99253e-15 -2.15267e-17 0.365855 -9.13405e-16 -6.77457e-16)
(1.05518e-15 1.13019e-29 4.16755e-31 21.6984 1.17699e-14 -3.34928e-15 0.358938 -1.91766e-16 -5.24654e-17)
(4.2207e-15 -8.64783e-30 -3.60326e-31 21.6984 -6.59677e-15 -1.31953e-17 0.358938 -9.40581e-16 -6.73008e-16)
(1.08105e-15 1.38739e-29 1.81542e-30 20.8916 1.13313e-14 -2.92553e-15 0.351929 -2.01511e-16 -4.70389e-17)
(-4.32422e-15 -1.69787e-29 -3.32693e-30 20.8916 -7.44851e-15 -4.17462e-18 0.351929 -9.71234e-16 -6.67806e-16)
(-1.10645e-15 -5.23108e-30 -7.32092e-31 20.1033 1.06564e-14 -2.59435e-15 0.344882 -1.83925e-16 -4.28551e-17)
(4.42581e-15 2.77793e-30 1.04172e-30 20.1033 -6.67466e-15 -6.48556e-17 0.344882 -1.02017e-15 -6.6222e-16)
(1.53518e-15 -1.36351e-29 -3.06791e-30 19.3361 1.09033e-14 -2.34707e-15 0.337847 -1.85492e-16 -3.99978e-17)
(7.5157e-15 1.36351e-29 3.40878e-30 19.3361 -5.40094e-15 -1.12873e-16 0.337847 -1.0505e-15 -6.56279e-16)
(2.66282e-15 -2.71834e-29 -3.32591e-30 18.5921 1.11848e-14 -2.17839e-15 0.330865 -1.99656e-16 -3.83459e-17)
(4.62309e-15 1.87394e-29 3.01169e-30 18.5921 -6.52518e-15 -7.35913e-17 0.330865 -1.07783e-15 -6.50319e-16)
(-2.65912e-15 8.34017e-30 1.95872e-30 17.8726 1.14819e-14 -2.07384e-15 0.323968 -2.02702e-16 -3.76381e-17)
(-4.71875e-15 0 -9.855e-31 17.8726 -7.43743e-15 5.37e-20 0.323968 -1.12353e-15 -6.4351e-16)
(0 -5.15968e-30 -1.28992e-30 17.1786 1.15763e-14 -2.02629e-15 0.317186 -2.18167e-16 -3.79997e-17)
(0 5.15968e-30 0 17.1786 -7.07617e-15 -2.68519e-46 0.317186 -1.16885e-15 -6.36395e-16)
(-2.65175e-15 1.82661e-29 2.2193e-30 16.5106 1.0915e-14 -2.02502e-15 0.31054 -2.13894e-16 -3.90075e-17)
(0 -1.01303e-29 -9.49713e-31 16.5106 -6.85321e-15 -1.21005e-16 0.31054 -1.20296e-15 -6.2989e-16)
(0 -9.94464e-30 -1.24308e-30 15.8688 1.04609e-14 -2.06489e-15 0.304048 -2.01012e-16 -4.09901e-17)
(0 9.94464e-30 1.24308e-30 15.8688 -7.00634e-15 -8.18473e-17 0.304048 -1.24586e-15 -6.23411e-16)
(0 4.8812e-30 1.83045e-30 15.2531 1.11651e-14 -2.14097e-15 0.297723 -2.04201e-16 -4.35074e-17)
(-5.08186e-15 -9.7624e-30 -2.4406e-30 15.2531 -7.17716e-15 -3.61042e-17 0.297723 -1.29513e-15 -6.16376e-16)
(-5.67832e-17 1.13245e-29 8.72944e-31 14.6632 1.16754e-14 -2.23162e-15 0.291574 -2.36631e-16 -4.62121e-17)
(0 -4.79176e-30 -5.98969e-31 14.6632 -6.93549e-15 -4.99988e-17 0.291574 -1.33502e-15 -6.09484e-16)
(-1.31304e-15 3.04493e-30 3.26728e-31 14.0986 1.01324e-14 -2.34074e-15 0.285607 -2.32597e-16 -4.96562e-17)
(0 4.70395e-30 5.87994e-31 14.0986 -6.58116e-15 -1.29802e-16 0.285607 -1.37974e-15 -6.02763e-16)
(-1.36753e-15 -7.75912e-30 -4.97336e-31 13.5585 9.43908e-15 -2.46689e-15 0.279827 -1.81781e-16 -5.32642e-17)
(4.03484e-15 9.2355e-30 0 13.5585 -6.45925e-15 -1.65429e-16 0.279827 -1.42255e-15 -5.96807e-16)
(-1.35385e-15 3.03691e-30 -2.36238e-31 13.0423 1.03511e-14 -2.60017e-15 0.274234 -2.12177e-16 -5.72426e-17)
(0 0 5.66641e-31 13.0423 -6.62807e-15 -7.15968e-17 0.274234 -1.45388e-15 -5.90397e-16)
(-2.74726e-15 1.94077e-29 3.44621e-30 12.5492 1.04678e-14 -2.73941e-15 0.268828 -2.27739e-16 -6.13535e-17)
(-5.49451e-15 -1.33502e-29 -3.30593e-30 12.5492 -7.14189e-15 -1.09154e-17 0.268828 -1.49386e-15 -5.82782e-16)
(1.39301e-15 1.00826e-29 7.57527e-31 12.0782 1.10734e-14 -2.87992e-15 0.263608 -2.25272e-16 -6.56521e-17)
(-5.57203e-15 -1.74741e-29 -1.63819e-30 12.0782 -6.90234e-15 -1.73426e-17 0.263608 -1.54506e-15 -5.75329e-16)
(-1.2071e-15 8.57693e-30 1.60817e-30 11.6284 1.09517e-14 -3.01543e-15 0.258571 -2.63267e-16 -6.9808e-17)
(0 -4.28847e-30 -7.87302e-32 11.6284 -5.10561e-15 -6.84228e-49 0.258571 -1.58667e-15 -5.67311e-16)
(-2.86123e-15 -6.61273e-30 -9.00286e-31 11.199 8.88689e-15 -3.15666e-15 0.253714 -2.28244e-16 -7.46473e-17)
(1.14449e-14 8.41976e-30 1.05247e-30 11.199 -3.33449e-15 -1.03728e-16 0.253714 -1.61448e-15 -5.59751e-16)
(8.77656e-16 1.12763e-29 1.89139e-30 10.789 8.01873e-15 -3.30721e-15 0.249031 -1.77846e-16 -7.95195e-17)
(3.46895e-15 -8.26547e-30 -1.54978e-30 10.789 -4.38881e-15 -1.27093e-16 0.249031 -1.63963e-15 -5.52421e-16)
(2.28389e-15 -1.2171e-29 -1.01425e-30 10.3976 9.50398e-15 -3.46388e-15 0.244518 -1.96009e-16 -8.4967e-17)
(0 1.2171e-29 1.01425e-30 10.3976 -6.28139e-15 -1.71846e-16 0.244518 -1.67096e-15 -5.45267e-16)
(-3.72638e-15 2.98875e-30 8.44667e-31 10.0238 1.07223e-14 -3.6105e-15 0.240171 -2.55714e-16 -8.96725e-17)
(5.93738e-15 3.98266e-30 4.97833e-31 10.0238 -5.8219e-15 -1.72908e-16 0.240171 -1.717e-15 -5.38377e-16)
(0 7.81936e-30 9.7742e-31 9.66682 1.03052e-14 -3.74564e-15 0.235983 -2.62861e-16 -9.48878e-17)
(-2.20095e-15 -3.90968e-30 -4.8871e-31 9.66682 -5.09075e-15 -8.11229e-17 0.235983 -1.76488e-15 -5.30698e-16)
(-1.51853e-15 6.81358e-30 1.31222e-30 9.32582 9.54403e-15 -3.88161e-15 0.23195 -2.44609e-16 -9.99385e-17)
(-2.16062e-15 0 -4.79755e-31 9.32582 -5.25177e-15 -4.13505e-17 0.23195 -1.79866e-15 -5.22852e-16)
(2.12103e-15 1.13031e-29 9.41926e-31 9 8.99935e-15 -4.00648e-15 0.228065 -2.34214e-16 -1.04906e-16)
(-2.12103e-15 -7.53541e-30 -4.70963e-31 9 -4.47708e-15 -3.05135e-17 0.228065 -1.83552e-15 -5.14087e-16)
(-2.08216e-15 -1.47947e-29 -2.31166e-30 8.68859 8.04027e-15 -4.12193e-15 0.224323 -2.25725e-16 -1.09772e-16)
(8.28818e-15 1.47947e-29 2.31166e-30 8.68859 -3.4997e-15 -1.97946e-17 0.224323 -1.87305e-15 -5.04009e-16)
(0 2.17853e-29 3.63089e-30 8.39086 6.18462e-15 -4.23177e-15 0.220719 -1.92634e-16 -1.1474e-16)
(0 -2.17853e-29 -3.63089e-30 8.39086 -3.31938e-15 -3.85721e-17 0.220719 -1.90341e-15 -4.93227e-16)
(-1.58337e-15 2.96786e-30 -7.84665e-32 8.10612 5.9262e-15 -4.34876e-15 0.217247 -1.34883e-16 -1.20288e-16)
(6.33347e-15 7.1287e-30 8.91088e-31 8.10612 -3.04395e-15 -1.05603e-16 0.217247 -1.93729e-15 -4.83151e-16)
(0 -1.74952e-29 -3.06166e-30 7.83371 6.75939e-15 -4.46738e-15 0.213903 -1.85799e-16 -1.25654e-16)
(6.39562e-15 1.74952e-29 3.06166e-30 7.83371 -3.22789e-15 -1.07863e-16 0.213903 -1.96791e-15 -4.74943e-16)
(-1.61419e-15 1.6693e-29 3.38054e-30 7.573 5.85875e-15 -4.58152e-15 0.210679 -1.86254e-16 -1.31281e-16)
(-6.45678e-15 -1.37397e-29 -3.00555e-30 7.573 -3.57314e-15 1.69119e-16 0.210679 -1.99437e-15 -4.62615e-16)
(0 -1.01159e-29 -8.42994e-31 7.32339 5.45627e-15 -4.7109e-15 0.207573 -1.41831e-16 -1.37847e-16)
(-4.61873e-15 1.01159e-29 -6.23502e-32 7.32339 -2.77597e-15 -4.36339e-30 0.207573 -2.0331e-15 -4.4928e-16)
(-3.28813e-15 2.59309e-30 1.18139e-30 7.08431 5.7095e-15 -4.82511e-15 0.204578 -1.7007e-16 -1.42934e-16)
(6.57625e-15 3.31018e-30 -4.13773e-31 7.08431 -2.63179e-15 -5.99376e-17 0.204578 -2.05451e-15 -4.37687e-16)
(-3.31732e-15 9.14648e-30 3.71041e-31 6.85524 5.6243e-15 -4.91738e-15 0.201691 -1.62046e-16 -1.48561e-16)
(0 -3.24953e-30 4.06191e-31 6.85524 -2.9999e-15 -9.51084e-17 0.201691 -2.08801e-15 -4.25672e-16)
(0 -1.27599e-29 -1.59499e-30 6.63566 5.90703e-15 -5.01895e-15 0.198907 -1.71381e-16 -1.5451e-16)
(6.69217e-15 1.27599e-29 1.59499e-30 6.63566 -2.73737e-15 -5.19393e-17 0.198907 -2.10479e-15 -4.13332e-16)
(-3.45011e-15 1.8594e-29 3.92138e-30 6.4251 6.00811e-15 -5.11639e-15 0.196221 -1.85381e-16 -1.60208e-16)
(-6.74886e-15 -1.25261e-29 -3.13152e-30 6.4251 -3.19319e-15 1.06903e-17 0.196221 -2.13599e-15 -4.00797e-16)
(1.70119e-15 -1.21543e-29 -2.70927e-30 6.2231 6.12747e-15 -5.21798e-15 0.193629 -1.84114e-16 -1.66756e-16)
(0 9.22242e-30 2.3056e-30 6.2231 -2.98761e-15 1.20572e-16 0.193629 -2.18742e-15 -3.86102e-16)
(1.71497e-15 -8.96046e-30 -1.918e-30 6.02925 5.04568e-15 -5.33612e-15 0.191128 -1.99914e-16 -1.73855e-16)
(-6.8599e-15 6.03561e-30 1.5089e-30 6.02925 -2.03579e-15 3.35591e-17 0.191128 -2.19242e-15 -3.70157e-16)
(-1.21657e-16 1.17913e-29 3.79211e-30 5.84313 4.24506e-15 -5.44459e-15 0.188713 -1.21369e-16 -1.80157e-16)
(-3.33549e-15 -2.96251e-30 -4.95284e-32 5.84313 -1.37156e-15 0 0.188713 -2.20928e-15 -3.5689e-16)
(0 2.90822e-30 1.45411e-30 5.66438 6.17589e-15 -5.52991e-15 0.186381 -1.54913e-16 -1.86109e-16)
(0 -8.72466e-30 -2.18116e-30 5.66438 -2.7332e-15 1.26916e-17 0.186381 -2.22311e-15 -3.45656e-16)
(-1.45913e-15 -2.90345e-30 2.87053e-31 5.49261 7.86021e-15 -5.60431e-15 0.184129 -2.55002e-16 -1.92011e-16)
(-1.40419e-14 0 -7.13732e-31 5.49261 -4.97127e-15 1.89029e-16 0.184129 -2.25644e-15 -3.30777e-16)
(1.76831e-15 -5.69494e-30 -1.83425e-30 5.32751 6.97918e-15 -5.67873e-15 0.181953 -2.75435e-16 -1.98284e-16)
(0 2.80261e-30 -4.37835e-32 5.32751 -4.04059e-15 -2.54531e-30 0.181953 -2.30732e-15 -3.15493e-16)
(3.09764e-15 -1.37563e-29 -2.06344e-30 5.16875 5.51481e-15 -5.77511e-15 0.17985 -2.03503e-16 -2.06056e-16)
(4.02729e-15 1.37563e-29 2.06344e-30 5.16875 -2.46786e-15 -1.66904e-16 0.17985 -2.34157e-15 -3.0216e-16)
(1.79399e-15 -2.89397e-30 -4.45769e-31 5.01602 5.21366e-15 -5.87881e-15 0.177817 -1.82349e-16 -2.13219e-16)
(7.17597e-15 0 6.7521e-31 5.01602 -3.6898e-15 -8.39342e-17 0.177817 -2.3692e-15 -2.90584e-16)
(-6.28057e-16 -2.07422e-29 -3.07235e-30 4.86905 5.0848e-15 -5.97778e-15 0.175851 -1.89496e-16 -2.21077e-16)
(0 1.59081e-29 1.4013e-45 4.86905 -5.72906e-15 4.24321e-30 0.175851 -2.43895e-15 -2.77542e-16)
(-7.07691e-16 -1.50544e-29 -2.98575e-30 4.72755 5.51003e-15 -6.0953e-15 0.17395 -1.79772e-16 -2.30031e-16)
(7.27628e-15 1.56166e-29 3.90414e-30 4.72755 -4.35959e-15 -2.87892e-17 0.17395 -2.49762e-15 -2.64424e-16)
(1.8314e-15 -1.82054e-29 -4.29938e-30 4.59128 6.41018e-15 -6.21266e-15 0.17211 -2.28395e-16 -2.38337e-16)
(1.46512e-14 1.53304e-29 3.8326e-30 4.59128 -3.17177e-15 -1.57396e-16 0.17211 -2.50469e-15 -2.52066e-16)
(-1.84358e-15 -4.65899e-30 -7.79352e-31 4.46 5.6736e-15 -6.32121e-15 0.17033 -2.5503e-16 -2.47112e-16)
(0 1.25412e-29 1.88118e-30 4.46 -4.37111e-15 1.06867e-17 0.17033 -2.56268e-15 -2.38364e-16)
(-3.71129e-15 5.74487e-30 9.66646e-31 4.33347 5.23645e-15 -6.41018e-15 0.168607 -1.79916e-16 -2.54342e-16)
(7.42257e-15 0 0 4.33347 -3.6699e-15 0 0.168607 -2.64251e-15 -2.23044e-16)
(-1.86757e-15 -1.97556e-30 4.91749e-31 4.21149 6.79658e-15 -6.48906e-15 0.166938 -2.30129e-16 -2.62767e-16)
(7.4703e-15 9.66865e-30 1.20858e-30 4.21149 -3.68725e-15 -1.31322e-16 0.166938 -2.6825e-15 -2.12353e-16)
(-2.67161e-15 9.49148e-30 2.37287e-30 4.09384 7.96963e-15 -6.19295e-15 0.165322 -3.12163e-16 -2.39668e-16)
(0 -4.74574e-30 -1.18643e-30 4.09384 -4.76158e-15 -1.37694e-16 0.165322 -2.75297e-15 -2.0091e-16)
(1.89107e-15 -1.21431e-29 -5.29628e-29 3.98033 6.67946e-15 -2.9008e-29 0.163756 -3.349e-16 0)
(7.56428e-15 9.31755e-30 1.74704e-30 3.98033 -3.54311e-15 -1.70807e-16 0.163756 -2.83393e-15 -1.92382e-16)
(4.47724e-15 -1.19843e-29 -3.97118e-30 3.87079 4.75213e-15 8.81467e-16 0.162239 -2.16259e-16 -3.42123e-17)
(5.03598e-15 9.14681e-30 3.43005e-30 3.87079 -2.06685e-15 -1.54159e-16 0.162239 -2.85758e-15 -1.82567e-16)
(-1.91411e-15 2.83654e-30 5.39074e-31 3.76504 4.80374e-15 7.68043e-16 0.160769 -1.83679e-16 -4.00818e-17)
(7.65642e-15 4.4896e-30 1.1224e-30 3.76504 -2.73722e-15 -9.96477e-17 0.160769 -2.88108e-15 -1.75708e-16)
(1.92546e-15 -7.23355e-30 -2.19284e-30 3.66291 6.47333e-15 4.95834e-16 0.159344 -2.28877e-16 -2.56794e-17)
(0 4.40733e-30 1.65275e-30 3.66291 -3.36769e-15 -2.49136e-18 0.159344 -2.94874e-15 -1.6614e-16)
(-4.37235e-15 7.12875e-30 3.24491e-30 3.56424 7.45012e-15 9.98392e-17 0.157961 -3.37879e-16 -1.758e-17)
(7.74683e-15 -4.32656e-30 -1.62246e-30 3.56424 -3.32034e-15 -1.59855e-16 0.157961 -2.98454e-15 -1.57353e-16)
(4.33886e-15 -1.12863e-29 -2.66453e-30 3.4689 5.90838e-15 -3.04685e-16 0.156621 -3.25276e-16 -1.87862e-17)
(-2.39101e-15 8.49456e-30 2.12364e-30 3.4689 -2.80126e-15 -1.97232e-17 0.156621 -3.00602e-15 -1.4705e-16)
(-1.9589e-15 1.11402e-29 3.14673e-30 3.37674 3.4641e-15 -4.76018e-16 0.15532 -2.09485e-16 -2.52495e-17)
(7.83561e-15 -4.16945e-30 -3.59842e-32 3.37674 -8.26816e-16 -1.55805e-30 0.15532 -3.04314e-15 -1.29647e-16)
(4.27404e-15 5.37238e-30 1.50493e-30 3.28762 2.28658e-15 -5.47995e-16 0.154058 -1.09616e-16 -2.63309e-17)
(5.57524e-15 -4.09305e-30 -1.02326e-30 3.28762 5.57447e-16 -1.75891e-16 0.154058 -3.03562e-15 -1.15604e-16)
(0 8.03609e-30 1.00451e-30 3.20142 2.66811e-15 -6.39188e-16 0.152833 -1.0553e-16 -3.50247e-17)
(7.92286e-15 -4.01804e-30 0 3.20142 1.9304e-16 1.26804e-16 0.152833 -3.00745e-15 -1.02572e-16)
(2.22051e-15 7.88883e-30 1.97221e-30 3.11803 3.14971e-15 -5.33026e-16 0.151643 -1.50663e-16 -1.68592e-17)
(-1.01864e-14 -3.94441e-30 -9.86104e-31 3.11803 -4.58609e-16 3.5088e-16 0.151643 -3.03898e-15 -7.94869e-17)
(0 1.54885e-29 3.87213e-30 3.03732 2.64057e-15 -3.20766e-16 0.150488 -1.56976e-16 -1.50325e-17)
(8.00867e-15 -1.54885e-29 -5.0544e-30 3.03732 -8.59545e-16 9.88265e-17 0.150488 -3.06417e-15 -5.97941e-17)
(1.27107e-16 -1.62042e-29 -4.20428e-30 2.95919 2.33524e-15 -2.35836e-16 0.149366 -1.0522e-16 -8.80802e-18)
(0 1.90059e-29 -1.79339e-32 2.95919 -1.28177e-15 -2.35973e-31 0.149366 -3.07062e-15 -4.30758e-17)
(-2.02328e-15 2.79909e-30 -3.87467e-31 2.88354 3.0997e-15 -3.2533e-16 0.148276 -1.31663e-16 -2.49231e-17)
(8.09313e-15 3.73152e-30 1.86576e-30 2.88354 -1.446e-15 -6.90122e-17 0.148276 -3.0978e-15 -2.76268e-17)
(2.06217e-15 -1.09894e-29 -9.15786e-31 2.81026 3.45729e-15 -3.48848e-16 0.147217 -1.88832e-16 -1.1636e-17)
(0 1.09894e-29 9.15786e-31 2.81026 -2.49958e-15 2.00258e-16 0.147217 -3.12351e-15 -7.5023e-18)
(0 3.59602e-30 -2.00472e-32 2.73926 2.74628e-15 -1.10321e-30 0.146188 -1.74577e-16 0)
(0 0 0 2.73926 -1.6311e-15 3.86095e-16 0.146188 -3.15456e-15 1.93435e-17)
(4.04164e-15 -2.39716e-29 -1.03022e-29 2.67046 2.99318e-15 8.30925e-17 0.145188 -1.19076e-16 -2.26664e-18)
(6.23015e-15 1.76506e-29 3.53012e-30 2.67046 -3.8602e-16 1.27603e-16 0.145188 -3.13061e-15 4.61072e-17)
(-1.83716e-15 7.61795e-30 2.05334e-30 2.60377 5.31458e-15 6.48417e-16 0.144215 -2.08348e-16 -4.53556e-17)
(6.3074e-15 0 -8.66358e-31 2.60377 -2.36542e-15 -8.05823e-17 0.144215 -3.1515e-15 6.35606e-17)
(0 0 0 2.53911 6.18757e-15 3.74992e-16 0.143269 -3.83996e-16 -2.65425e-17)
(8.29882e-15 3.40193e-30 8.50483e-31 2.53911 -3.17974e-15 -1.45819e-16 0.143269 -3.21302e-15 8.28963e-17)
(-4.16955e-15 5.48827e-30 1.10192e-30 2.4764 5.40902e-15 2.80586e-16 0.142349 -3.15967e-16 -1.5817e-17)
(8.3391e-15 0 0 2.4764 -2.6555e-15 -2.13425e-16 0.142349 -3.24734e-15 9.68075e-17)
(2.09478e-15 -1.58432e-29 -5.46852e-30 2.41556 5.9712e-15 2.31219e-16 0.141453 -3.0783e-16 -1.65524e-17)
(8.37911e-15 1.31136e-29 4.91759e-30 2.41556 -3.4012e-15 -3.99761e-18 0.141453 -3.29708e-15 1.09676e-16)
(0 1.60916e-29 4.0229e-30 2.35654 6.22709e-15 2.23589e-16 0.140582 -3.94541e-16 -1.05587e-17)
(-8.41885e-15 -1.60916e-29 -4.0229e-30 2.35654 -3.90586e-15 3.73431e-16 0.140582 -3.3785e-15 1.27542e-16)
(0 3.15934e-30 7.06471e-31 2.29925 5.5881e-15 5.33282e-16 0.139734 -3.50342e-16 -1.62544e-17)
(0 -3.15934e-30 -1.57967e-30 2.29925 -3.21593e-15 3.95932e-16 0.139734 -3.4599e-15 1.46976e-16)
(-5.99475e-15 1.46619e-29 5.73549e-30 2.24365 4.88958e-15 9.1861e-16 0.138909 -3.30776e-16 -5.69333e-17)
(1.74596e-15 -9.30435e-30 -4.65218e-30 2.24365 -2.77676e-15 8.07055e-17 0.138909 -3.52095e-15 1.56022e-16)
(-2.13415e-15 8.76035e-30 2.06088e-30 2.18965 3.87447e-15 1.03377e-15 0.138105 -2.7598e-16 -5.71559e-17)
(0 -3.04462e-30 -7.61154e-31 2.18965 -4.20422e-15 -4.72999e-17 0.138105 -3.51997e-15 1.57649e-16)
(-3.36512e-15 1.49441e-29 4.48324e-30 2.13722 4.38574e-15 1.20297e-15 0.137322 -2.13617e-16 -7.37838e-17)
(-5.21023e-15 -1.19553e-29 -3.73603e-30 2.13722 -6.49966e-15 2.20446e-16 0.137322 -3.61302e-15 1.57784e-16)
(4.30694e-15 -2.3454e-30 -3.23995e-31 2.08628 5.9687e-15 1.68336e-15 0.13656 -3.52885e-16 -8.13194e-17)
(0 -2.93406e-30 -7.33514e-31 2.08628 -6.26814e-15 9.75823e-17 0.13656 -3.77173e-15 1.62761e-16)
(-2.15974e-15 9.16791e-30 2.5699e-30 2.0368 5.50424e-15 1.95419e-15 0.135817 -4.31418e-16 -1.40218e-16)
(1.18951e-14 -1.15212e-29 -3.60036e-30 2.0368 -4.86074e-15 -3.76358e-16 0.135817 -3.85498e-15 1.50035e-16)
(-2.17258e-15 2.63008e-30 1.22019e-30 1.98871 5.07325e-15 1.82734e-15 0.135094 -3.03489e-16 -1.20941e-16)
(8.6903e-15 2.82751e-30 7.06878e-31 1.98871 -5.867e-15 -3.4479e-16 0.135094 -3.92292e-15 1.30117e-16)
(4.36409e-15 3.11368e-30 3.72714e-31 1.94197 5.68377e-15 1.75157e-15 0.134388 -3.88415e-16 -1.2806e-16)
(-3.12516e-15 -5.55139e-30 -1.38785e-30 1.94197 -6.80703e-15 -1.51262e-16 0.134388 -4.01816e-15 1.08551e-16)
(2.19147e-15 -5.31331e-30 -1.18686e-30 1.89653 5.6624e-15 1.89291e-15 0.133701 -4.00438e-16 -1.14886e-16)
(8.76587e-15 2.72483e-30 1.36242e-30 1.89653 -6.86504e-15 -1.08664e-16 0.133701 -4.08184e-15 9.24385e-17)
(-2.20084e-15 1.06004e-29 2.50259e-30 1.85234 6.98512e-15 1.90732e-15 0.13303 -4.00003e-16 -1.53051e-16)
(0 -2.6749e-30 -1.33745e-30 1.85234 -6.86376e-15 -2.86308e-16 0.13303 -4.1746e-15 8.31725e-17)
(0 -5.25177e-30 -6.56471e-31 1.80937 7.2249e-15 1.33557e-15 0.132377 -6.07777e-16 -1.2131e-16)
(1.76813e-14 7.87765e-30 1.96941e-30 1.80937 -6.31047e-15 -3.27217e-16 0.132377 -4.29305e-15 7.34574e-17)
(-2.21943e-15 -5.19699e-30 -2.71819e-30 1.76757 6.90034e-15 9.6698e-16 0.131739 -4.50577e-16 -7.41663e-17)
(0 1.03111e-29 3.86665e-30 1.76757 -6.5476e-15 -2.94295e-16 0.131739 -4.45372e-15 7.37551e-17)
(-2.84912e-15 -1.26526e-29 -3.79579e-30 1.7269 7.18129e-15 3.25728e-16 0.131117 -5.81728e-16 -7.029e-17)
(1.78293e-14 1.26526e-29 4.42843e-30 1.7269 -5.42584e-15 -4.35347e-17 0.131117 -4.63843e-15 7.3043e-17)
(-2.23784e-15 9.93874e-30 4.10957e-30 1.68733 4.01754e-15 -1.62068e-16 0.130509 -5.10719e-16 -6.28244e-18)
(0 -7.45248e-30 -3.72624e-30 1.68733 -3.34982e-15 4.62678e-16 0.130509 -4.69108e-15 9.31627e-17)
(0 -2.43864e-30 -5.17028e-31 1.64881 1.40311e-15 1.51829e-29 0.129917 -1.08509e-16 0)
(8.98793e-15 2.43864e-30 1.82898e-30 1.64881 -1.49198e-15 2.56005e-16 0.129917 -4.73638e-15 1.16988e-16)
(2.25608e-15 -1.45019e-29 -4.09414e-30 1.61132 1.34536e-15 1.16479e-15 0.129338 -1.13158e-16 -8.08657e-17)
(1.80486e-14 1.19697e-29 3.59092e-30 1.61132 -1.39692e-15 -3.35179e-16 0.129338 -4.76845e-15 1.20022e-16)
(-2.26513e-15 1.51487e-30 4.9615e-31 1.57481 2.51903e-15 1.2558e-15 0.128773 -1.03219e-16 -1.06789e-16)
(9.06052e-15 0 1.17504e-30 1.57481 -2.23617e-15 1.53509e-17 0.128773 -4.81744e-15 1.17662e-16)
(-3.23328e-16 2.13293e-30 1.81338e-30 1.53926 4.83742e-15 1.30871e-15 0.128222 -3.61052e-16 -9.8969e-17)
(9.09657e-15 0 -5.76754e-31 1.53926 -1.85204e-15 5.79704e-16 0.128222 -4.80644e-15 1.40412e-16)
(-4.56623e-15 9.43409e-30 2.10552e-30 1.50464 4.47672e-15 1.82289e-15 0.127682 -4.47416e-16 -1.19728e-16)
(9.13246e-15 0 -5.66185e-31 1.50464 -2.34092e-15 1.85923e-17 0.127682 -4.82067e-15 1.59367e-16)
(-5.00629e-15 -4.44648e-30 -1.66743e-30 1.47092 3.8239e-15 1.53061e-15 0.127156 -3.12737e-16 -1.90967e-16)
(1.83364e-14 8.89296e-30 2.22324e-30 1.47092 -1.74341e-15 -4.74678e-16 0.127156 -4.90833e-15 1.59429e-16)
(0 4.365e-30 2.1825e-30 1.43806 3.47394e-15 1.17932e-15 0.126641 -3.50115e-16 -7.31283e-17)
(9.20377e-15 0 -1.09125e-30 1.43806 -6.97734e-16 2.02031e-16 0.126641 -4.93023e-15 1.71181e-16)
(-2.3098e-15 6.75636e-30 2.07688e-30 1.40604 3.6931e-15 2.003e-15 0.126137 -2.62182e-16 -1.35585e-16)
(0 -4.28501e-30 -5.35627e-31 1.40604 -1.62471e-15 5.95573e-16 0.126137 -4.9192e-15 2.05615e-16)
(2.31862e-15 5.96656e-30 1.1274e-30 1.37484 4.7877e-15 2.51042e-15 0.125645 -4.03077e-16 -2.2535e-16)
(0 -1.26195e-29 -2.10325e-30 1.37484 -3.11021e-15 2.74354e-17 0.125645 -4.96257e-15 2.22113e-16)
(0 4.12941e-30 2.0647e-30 1.34443 4.0969e-15 2.39217e-15 0.125163 -4.74395e-16 -2.34489e-16)
(-2.32465e-15 -4.12941e-30 -1.03235e-30 1.34443 -2.78124e-15 1.29479e-16 0.125163 -5.06391e-15 2.19914e-16)
(-2.33616e-15 1.45977e-29 3.47453e-30 1.31478 3.61727e-15 2.69708e-15 0.124692 -2.88189e-16 -2.11576e-16)
(-2.28205e-15 -1.21612e-29 -3.0403e-30 1.31478 -1.5595e-15 1.17493e-15 0.124692 -5.10855e-15 2.40812e-16)
(-2.34487e-15 6.39091e-30 1.90294e-30 1.28587 4.6076e-15 3.80111e-15 0.124231 -4.00272e-16 -3.01812e-16)
(-9.37949e-15 0 -4.97432e-31 1.28587 -2.68281e-15 7.57862e-16 0.124231 -5.17466e-15 2.88352e-16)
(-2.35355e-15 -5.42858e-30 -2.06532e-30 1.25767 5.1408e-15 3.88447e-15 0.123779 -4.92554e-16 -4.3527e-16)
(1.88284e-14 7.81307e-30 2.9299e-30 1.25767 -3.00234e-15 -8.07928e-16 0.123779 -5.26953e-15 2.76761e-16)
(0 -1.15048e-29 -2.39684e-30 1.23017 4.33111e-15 3.07804e-15 0.123337 -5.21483e-16 -3.29775e-16)
(9.44882e-15 1.15048e-29 2.39684e-30 1.23017 -2.98007e-15 -5.77299e-16 0.123337 -5.32132e-15 2.36079e-16)
(-2.37082e-15 6.13002e-30 1.31315e-30 1.20335 2.88323e-15 3.29886e-15 0.122903 -3.46945e-16 -2.88164e-16)