/*--------------------------------*- C++ -*----------------------------------*\
| =========                 |                                                 |
| \\      /  F ield         | OpenFOAM: The Open Source CFD Toolbox           |
|  \\    /   O peration     | Version:  2106                                  |
|   \\  /    A nd           | Website:  www.openfoam.com                      |
|    \\/     M anipulation  |                                                 |
\*---------------------------------------------------------------------------*/
FoamFile
{
    version     2.0;
    format      ascii;
    arch        "LSB;label=32;scalar=64";
    class       volSymmTensorField;
    location    "10040";
    object      turbulenceProperties:R;
}
// * * * * * * * * * * * * * * * * * * * * * * * * * * * * * * * * * * * * * //

dimensions      [0 2 -2 0 0 0 0];

internalField   nonuniform List<symmTensor> 
2000
(
(2.27959e-07 -1.508e-11 -2.79102e-14 2.27959e-07 1.03712e-25 2.27959e-07)
(2.27959e-07 -1.508e-11 -2.79102e-14 2.27959e-07 -7.28268e-32 2.27959e-07)
(3.94727e-08 -1.50421e-11 -8.4045e-14 3.94727e-08 1.65204e-26 3.94727e-08)
(3.94727e-08 -1.50421e-11 -8.4045e-14 3.94727e-08 3.37424e-30 3.94727e-08)
(5.41192e-08 -6.10626e-11 -4.73383e-13 5.41192e-08 4.12528e-26 5.41192e-08)
(5.41192e-08 -6.10626e-11 -4.73383e-13 5.41192e-08 5.4168e-29 5.41192e-08)
(1.68318e-07 -4.04369e-10 -3.19335e-12 1.68318e-07 2.7298e-25 1.68318e-07)
(1.68318e-07 -4.04369e-10 -3.19335e-12 1.68318e-07 4.38107e-28 1.68318e-07)
(4.35097e-07 -1.85185e-09 -1.48973e-11 4.35097e-07 1.06101e-24 4.35097e-07)
(4.35097e-07 -1.85185e-09 -1.48973e-11 4.35097e-07 2.41202e-27 4.35097e-07)
(9.34585e-07 -6.28926e-09 -5.15384e-11 9.34585e-07 3.35811e-24 9.34585e-07)
(9.34585e-07 -6.28926e-09 -5.15384e-11 9.34585e-07 1.00594e-26 9.34585e-07)
(1.76432e-06 -1.73938e-08 -1.45197e-10 1.76432e-06 9.53143e-24 1.76432e-06)
(1.76432e-06 -1.73938e-08 -1.45197e-10 1.76432e-06 3.45893e-26 1.76432e-06)
(3.03849e-06 -4.1564e-08 -3.53435e-10 3.03849e-06 2.33394e-23 3.03849e-06)
(3.03849e-06 -4.1564e-08 -3.53435e-10 3.03849e-06 9.69481e-26 3.03849e-06)
(4.88851e-06 -8.91014e-08 -7.71802e-10 4.88851e-06 5.11397e-23 4.88851e-06)
(4.88851e-06 -8.91014e-08 -7.71802e-10 4.88851e-06 2.28478e-25 4.88851e-06)
(7.46411e-06 -1.75681e-07 -1.55015e-09 7.46411e-06 1.03039e-22 7.46411e-06)
(7.46411e-06 -1.75681e-07 -1.55015e-09 7.46411e-06 5.02612e-25 7.46411e-06)
(1.09345e-05 -3.24146e-07 -2.9135e-09 1.09345e-05 1.9424e-22 1.09345e-05)
(1.09345e-05 -3.24146e-07 -2.9135e-09 1.09345e-05 1.07052e-24 1.09345e-05)
(1.54896e-05 -5.66666e-07 -5.18829e-09 1.54896e-05 3.4682e-22 1.54896e-05)
(1.54896e-05 -5.66666e-07 -5.18829e-09 1.54896e-05 2.09615e-24 1.54896e-05)
(2.13412e-05 -9.47272e-07 -8.8347e-09 2.13412e-05 5.9187e-22 2.13412e-05)
(2.13412e-05 -9.47272e-07 -8.8347e-09 2.13412e-05 3.84568e-24 2.13412e-05)
(2.87244e-05 -1.52479e-06 -1.44858e-08 2.87244e-05 9.71741e-22 2.87244e-05)
(2.87244e-05 -1.52479e-06 -1.44858e-08 2.87244e-05 6.91535e-24 2.87244e-05)
(3.78983e-05 -2.37615e-06 -2.29939e-08 3.78983e-05 1.54322e-21 3.78983e-05)
(3.78983e-05 -2.37615e-06 -2.29939e-08 3.78983e-05 1.14601e-23 3.78983e-05)
(4.91466e-05 -3.6e-06 -3.54847e-08 4.91466e-05 2.38072e-21 4.91466e-05)
(4.91466e-05 -3.6e-06 -3.54847e-08 4.91466e-05 1.85678e-23 4.91466e-05)
(6.27783e-05 -5.32053e-06 -5.34172e-08 6.27783e-05 3.57734e-21 6.27783e-05)
(6.27783e-05 -5.32053e-06 -5.34172e-08 6.27783e-05 3.18014e-23 6.27783e-05)
(7.91269e-05 -7.69129e-06 -7.86507e-08 7.91269e-05 5.25073e-21 7.91269e-05)
(7.91269e-05 -7.69129e-06 -7.86507e-08 7.91269e-05 4.79875e-23 7.91269e-05)
(9.85495e-05 -1.08989e-05 -1.13513e-07 9.85495e-05 7.54187e-21 9.85495e-05)
(9.85495e-05 -1.08989e-05 -1.13513e-07 9.85495e-05 7.00407e-23 9.85495e-05)
(0.000121425 -1.51657e-05 -1.60868e-07 0.000121425 1.06168e-20 0.000121425)
(0.000121425 -1.51657e-05 -1.60868e-07 0.000121425 1.07366e-22 0.000121425)
(0.000148148 -2.07522e-05 -2.24179e-07 0.000148148 1.46633e-20 0.000148148)
(0.000148148 -2.07522e-05 -2.24179e-07 0.000148148 1.72481e-22 0.000148148)
(0.00017913 -2.79567e-05 -3.07548e-07 0.00017913 1.98638e-20 0.00017913)
(0.00017913 -2.79567e-05 -3.07548e-07 0.00017913 2.41368e-22 0.00017913)
(0.000214785 -3.71135e-05 -4.15747e-07 0.000214785 2.64305e-20 0.000214785)
(0.000214785 -3.71135e-05 -4.15747e-07 0.000214785 3.28203e-22 0.000214785)
(0.000255525 -4.8588e-05 -5.54198e-07 0.000255525 3.45533e-20 0.000255525)
(0.000255525 -4.8588e-05 -5.54198e-07 0.000255525 4.55227e-22 0.000255525)
(0.000301749 -6.27677e-05 -7.28921e-07 0.000301749 4.43646e-20 0.000301749)
(0.000301749 -6.27677e-05 -7.28921e-07 0.000301749 6.35181e-22 0.000301749)
(0.000353829 -8.0051e-05 -9.4642e-07 0.000353829 5.59574e-20 0.000353829)
(0.000353829 -8.0051e-05 -9.4642e-07 0.000353829 9.11543e-22 0.000353829)
(0.000412098 -0.00010083 -1.21352e-06 0.000412098 6.9297e-20 0.000412098)
(0.000412098 -0.00010083 -1.21352e-06 0.000412098 1.21547e-21 0.000412098)
(0.00047683 -0.000125473 -1.53713e-06 0.00047683 8.42607e-20 0.00047683)
(0.00047683 -0.000125473 -1.53713e-06 0.00047683 1.61014e-21 0.00047683)
(0.00054823 -0.000154301 -1.92398e-06 0.00054823 1.00641e-19 0.00054823)
(0.00054823 -0.000154301 -1.92398e-06 0.00054823 2.12646e-21 0.00054823)
(0.000626414 -0.000187569 -2.38032e-06 0.000626414 1.17935e-19 0.000626414)
(0.000626414 -0.000187569 -2.38032e-06 0.000626414 2.74992e-21 0.000626414)
(0.0007114 -0.000225442 -2.91156e-06 0.0007114 1.35501e-19 0.0007114)
(0.0007114 -0.000225442 -2.91156e-06 0.0007114 3.48984e-21 0.0007114)
(0.000803095 -0.00026798 -3.52203e-06 0.000803095 1.53004e-19 0.000803095)
(0.000803095 -0.00026798 -3.52203e-06 0.000803095 4.5292e-21 0.000803095)
(0.000901292 -0.000315129 -4.21469e-06 0.000901292 1.69293e-19 0.000901292)
(0.000901292 -0.000315129 -4.21469e-06 0.000901292 5.69224e-21 0.000901292)
(0.00100567 -0.000366714 -4.99097e-06 0.00100567 1.83957e-19 0.00100567)
(0.00100567 -0.000366714 -4.99097e-06 0.00100567 7.16112e-21 0.00100567)
(0.00111579 -0.000422444 -5.85074e-06 0.00111579 1.96277e-19 0.00111579)
(0.00111579 -0.000422444 -5.85074e-06 0.00111579 9.10921e-21 0.00111579)
(0.00123113 -0.000481924 -6.79225e-06 0.00123113 2.05888e-19 0.00123113)
(0.00123113 -0.000481924 -6.79225e-06 0.00123113 1.1174e-20 0.00123113)
(0.00135106 -0.000544674 -7.81234e-06 0.00135106 2.12336e-19 0.00135106)
(0.00135106 -0.000544674 -7.81234e-06 0.00135106 1.38016e-20 0.00135106)
(0.00147491 -0.000610148 -8.90661e-06 0.00147491 2.15482e-19 0.00147491)
(0.00147491 -0.000610148 -8.90661e-06 0.00147491 1.64935e-20 0.00147491)
(0.00160195 -0.000677764 -1.00697e-05 0.00160195 2.15327e-19 0.00160195)
(0.00160195 -0.000677764 -1.00697e-05 0.00160195 1.99943e-20 0.00160195)
(0.00173142 -0.000746926 -1.12955e-05 0.00173142 2.12144e-19 0.00173142)
(0.00173142 -0.000746926 -1.12955e-05 0.00173142 2.43216e-20 0.00173142)
(0.00186258 -0.000817044 -1.25776e-05 0.00186258 2.06632e-19 0.00186258)
(0.00186258 -0.000817044 -1.25776e-05 0.00186258 2.80464e-20 0.00186258)
(0.00199469 -0.000887559 -1.39094e-05 0.00199469 1.99478e-19 0.00199469)
(0.00199469 -0.000887559 -1.39094e-05 0.00199469 3.21049e-20 0.00199469)
(0.00212705 -0.000957956 -1.52844e-05 0.00212705 1.91988e-19 0.00212705)
(0.00212705 -0.000957956 -1.52844e-05 0.00212705 3.69071e-20 0.00212705)
(0.00225901 -0.00102777 -1.66966e-05 0.00225901 1.84805e-19 0.00225901)
(0.00225901 -0.00102777 -1.66966e-05 0.00225901 4.26676e-20 0.00225901)
(0.00238997 -0.0010966 -1.81402e-05 0.00238997 1.78959e-19 0.00238997)
(0.00238997 -0.0010966 -1.81402e-05 0.00238997 4.82023e-20 0.00238997)
(0.00251939 -0.00116411 -1.961e-05 0.00251939 1.74243e-19 0.00251939)
(0.00251939 -0.00116411 -1.961e-05 0.00251939 5.43512e-20 0.00251939)
(0.00264682 -0.00123001 -2.11015e-05 0.00264682 1.69988e-19 0.00264682)
(0.00264682 -0.00123001 -2.11015e-05 0.00264682 6.6387e-20 0.00264682)
(0.00277184 -0.00129409 -2.26107e-05 0.00277184 1.69494e-19 0.00277184)
(0.00277184 -0.00129409 -2.26107e-05 0.00277184 7.786e-20 0.00277184)
(0.00289412 -0.00135617 -2.41343e-05 0.00289412 1.73462e-19 0.00289412)
(0.00289412 -0.00135617 -2.41343e-05 0.00289412 8.39887e-20 0.00289412)
(0.0030134 -0.00141613 -2.56695e-05 0.0030134 1.80381e-19 0.0030134)
(0.0030134 -0.00141613 -2.56695e-05 0.0030134 8.90181e-20 0.0030134)
(0.00312944 -0.0014739 -2.7214e-05 0.00312944 1.92571e-19 0.00312944)
(0.00312944 -0.0014739 -2.7214e-05 0.00312944 1.00286e-19 0.00312944)
(0.00324208 -0.00152942 -2.87661e-05 0.00324208 2.07397e-19 0.00324208)
(0.00324208 -0.00152942 -2.87661e-05 0.00324208 1.22642e-19 0.00324208)
(0.00335122 -0.00158269 -3.03244e-05 0.00335122 2.25991e-19 0.00335122)
(0.00335122 -0.00158269 -3.03244e-05 0.00335122 1.32419e-19 0.00335122)
(0.00345676 -0.00163371 -3.1888e-05 0.00345676 2.51183e-19 0.00345676)
(0.00345676 -0.00163371 -3.1888e-05 0.00345676 1.42584e-19 0.00345676)
(0.00355868 -0.00168251 -3.34562e-05 0.00355868 2.83216e-19 0.00355868)
(0.00355868 -0.00168251 -3.34562e-05 0.00355868 1.58922e-19 0.00355868)
(0.00365696 -0.00172914 -3.50287e-05 0.00365696 3.1561e-19 0.00365696)
(0.00365696 -0.00172914 -3.50287e-05 0.00365696 1.8514e-19 0.00365696)
(0.00375161 -0.00177365 -3.66053e-05 0.00375161 3.46485e-19 0.00375161)
(0.00375161 -0.00177365 -3.66053e-05 0.00375161 2.07731e-19 0.00375161)
(0.00384268 -0.0018161 -3.81862e-05 0.00384268 3.91611e-19 0.00384268)
(0.00384268 -0.0018161 -3.81862e-05 0.00384268 2.12418e-19 0.00384268)
(0.00393022 -0.00185657 -3.97715e-05 0.00393022 4.38971e-19 0.00393022)
(0.00393022 -0.00185657 -3.97715e-05 0.00393022 2.22622e-19 0.00393022)
(0.0040143 -0.00189513 -4.13616e-05 0.0040143 4.87223e-19 0.0040143)
(0.0040143 -0.00189513 -4.13616e-05 0.0040143 2.45149e-19 0.0040143)
(0.004095 -0.00193186 -4.29571e-05 0.004095 5.44699e-19 0.004095)
(0.004095 -0.00193186 -4.29571e-05 0.004095 2.63597e-19 0.004095)
(0.00417241 -0.00196682 -4.45585e-05 0.00417241 5.94475e-19 0.00417241)
(0.00417241 -0.00196682 -4.45585e-05 0.00417241 3.0176e-19 0.00417241)
(0.00424663 -0.00200011 -4.61664e-05 0.00424663 6.46073e-19 0.00424663)
(0.00424663 -0.00200011 -4.61664e-05 0.00424663 3.27522e-19 0.00424663)
(0.00431775 -0.0020318 -4.77815e-05 0.00431775 7.1518e-19 0.00431775)
(0.00431775 -0.0020318 -4.77815e-05 0.00431775 3.60105e-19 0.00431775)
(0.00438588 -0.00206195 -4.94046e-05 0.00438588 7.95302e-19 0.00438588)
(0.00438588 -0.00206195 -4.94046e-05 0.00438588 3.88766e-19 0.00438588)
(0.00445112 -0.00209065 -5.10364e-05 0.00445112 8.66922e-19 0.00445112)
(0.00445112 -0.00209065 -5.10364e-05 0.00445112 3.99238e-19 0.00445112)
(0.00451358 -0.00211797 -5.26777e-05 0.00451358 9.37098e-19 0.00451358)
(0.00451358 -0.00211797 -5.26777e-05 0.00451358 4.1788e-19 0.00451358)
(0.00457336 -0.00214396 -5.43293e-05 0.00457336 1.01021e-18 0.00457336)
(0.00457336 -0.00214396 -5.43293e-05 0.00457336 4.44524e-19 0.00457336)
(0.00463057 -0.0021687 -5.5992e-05 0.00463057 1.08519e-18 0.00463057)
(0.00463057 -0.0021687 -5.5992e-05 0.00463057 4.7246e-19 0.00463057)
(0.0046853 -0.00219225 -5.76666e-05 0.0046853 1.15595e-18 0.0046853)
(0.0046853 -0.00219225 -5.76666e-05 0.0046853 5.07374e-19 0.0046853)
(0.00473765 -0.00221467 -5.9354e-05 0.00473765 1.22497e-18 0.00473765)
(0.00473765 -0.00221467 -5.9354e-05 0.00473765 5.58138e-19 0.00473765)
(0.00478772 -0.002236 -6.10549e-05 0.00478772 1.32817e-18 0.00478772)
(0.00478772 -0.002236 -6.10549e-05 0.00478772 5.92494e-19 0.00478772)
(0.00483559 -0.00225631 -6.27701e-05 0.00483559 1.42052e-18 0.00483559)
(0.00483559 -0.00225631 -6.27701e-05 0.00483559 5.43818e-19 0.00483559)
(0.00488137 -0.00227564 -6.45005e-05 0.00488137 1.50792e-18 0.00488137)
(0.00488137 -0.00227564 -6.45005e-05 0.00488137 6.31757e-19 0.00488137)
(0.00492513 -0.00229405 -6.62468e-05 0.00492513 1.61754e-18 0.00492513)
(0.00492513 -0.00229405 -6.62468e-05 0.00492513 6.84702e-19 0.00492513)
(0.00496696 -0.00231157 -6.80099e-05 0.00496696 1.71277e-18 0.00496696)
(0.00496696 -0.00231157 -6.80099e-05 0.00496696 7.36142e-19 0.00496696)
(0.00500694 -0.00232825 -6.97904e-05 0.00500694 1.82113e-18 0.00500694)
(0.00500694 -0.00232825 -6.97904e-05 0.00500694 7.56733e-19 0.00500694)
(0.00504514 -0.00234413 -7.15892e-05 0.00504514 1.9343e-18 0.00504514)
(0.00504514 -0.00234413 -7.15892e-05 0.00504514 7.75396e-19 0.00504514)
(0.00508163 -0.00235925 -7.3407e-05 0.00508163 2.048e-18 0.00508163)
(0.00508163 -0.00235925 -7.3407e-05 0.00508163 7.83568e-19 0.00508163)
(0.00511649 -0.00237364 -7.52446e-05 0.00511649 2.17947e-18 0.00511649)
(0.00511649 -0.00237364 -7.52446e-05 0.00511649 8.49916e-19 0.00511649)
(0.00514978 -0.00238733 -7.71026e-05 0.00514978 2.27409e-18 0.00514978)
(0.00514978 -0.00238733 -7.71026e-05 0.00514978 9.02646e-19 0.00514978)
(0.00518157 -0.00240037 -7.89819e-05 0.00518157 2.40903e-18 0.00518157)
(0.00518157 -0.00240037 -7.89819e-05 0.00518157 9.36699e-19 0.00518157)
(0.0052119 -0.00241276 -8.08831e-05 0.0052119 2.57384e-18 0.0052119)
(0.0052119 -0.00241276 -8.08831e-05 0.0052119 9.08158e-19 0.0052119)
(0.00524085 -0.00242456 -8.28069e-05 0.00524085 2.70975e-18 0.00524085)
(0.00524085 -0.00242456 -8.28069e-05 0.00524085 1.05006e-18 0.00524085)
(0.00526847 -0.00243577 -8.47541e-05 0.00526847 2.81742e-18 0.00526847)
(0.00526847 -0.00243577 -8.47541e-05 0.00526847 1.18212e-18 0.00526847)
(0.0052948 -0.00244643 -8.67253e-05 0.0052948 2.95616e-18 0.0052948)
(0.0052948 -0.00244643 -8.67253e-05 0.0052948 1.19645e-18 0.0052948)
(0.0053199 -0.00245655 -8.87212e-05 0.0053199 3.11154e-18 0.0053199)
(0.0053199 -0.00245655 -8.87212e-05 0.0053199 1.23051e-18 0.0053199)
(0.00534381 -0.00246617 -9.07425e-05 0.00534381 3.27345e-18 0.00534381)
(0.00534381 -0.00246617 -9.07425e-05 0.00534381 1.31792e-18 0.00534381)
(0.00536658 -0.0024753 -9.27898e-05 0.00536658 3.47257e-18 0.00536658)
(0.00536658 -0.0024753 -9.27898e-05 0.00536658 1.43521e-18 0.00536658)
(0.00538825 -0.00248396 -9.48639e-05 0.00538825 3.66259e-18 0.00538825)
(0.00538825 -0.00248396 -9.48639e-05 0.00538825 1.42132e-18 0.00538825)
(0.00540886 -0.00249217 -9.69653e-05 0.00540886 3.78995e-18 0.00540886)
(0.00540886 -0.00249217 -9.69653e-05 0.00540886 1.5197e-18 0.00540886)
(0.00542845 -0.00249995 -9.90948e-05 0.00542845 3.98853e-18 0.00542845)
(0.00542845 -0.00249995 -9.90948e-05 0.00542845 1.67029e-18 0.00542845)
(0.00544705 -0.00250731 -0.000101253 0.00544705 3.98411e-18 0.00544705)
(0.00544705 -0.00250731 -0.000101253 0.00544705 1.77041e-18 0.00544705)
(0.00546469 -0.00251426 -0.00010344 0.00546469 2.11547e-19 0.00546469)
(0.00546469 -0.00251426 -0.00010344 0.00546469 1.898e-18 0.00546469)
(0.00548142 -0.00252083 -0.000105658 0.00548142 -4.33214e-19 0.00548142)
(0.00548142 -0.00252083 -0.000105658 0.00548142 1.96138e-18 0.00548142)
(0.00549725 -0.00252703 -0.000107906 0.00549725 -3.92215e-19 0.00549725)
(0.00549725 -0.00252703 -0.000107906 0.00549725 2.00061e-18 0.00549725)
(0.00551223 -0.00253286 -0.000110185 0.00551223 -1.84598e-19 0.00551223)
(0.00551223 -0.00253286 -0.000110185 0.00551223 2.04075e-18 0.00551223)
(0.00552637 -0.00253835 -0.000112495 0.00552637 1.69525e-19 0.00552637)
(0.00552637 -0.00253835 -0.000112495 0.00552637 2.23934e-18 0.00552637)
(0.0055397 -0.00254349 -0.000114839 0.0055397 4.61905e-19 0.0055397)
(0.0055397 -0.00254349 -0.000114839 0.0055397 2.21856e-18 0.0055397)
(0.00555225 -0.00254831 -0.000117215 0.00555225 5.17327e-19 0.00555225)
(0.00555225 -0.00254831 -0.000117215 0.00555225 2.29656e-18 0.00555225)
(0.00556404 -0.00255281 -0.000119625 0.00556404 5.1063e-19 0.00556404)
(0.00556404 -0.00255281 -0.000119625 0.00556404 2.49372e-18 0.00556404)
(0.00557509 -0.00255701 -0.000122069 0.00557509 5.94814e-19 0.00557509)
(0.00557509 -0.00255701 -0.000122069 0.00557509 2.3008e-18 0.00557509)
(0.00558542 -0.0025609 -0.000124548 0.00558542 5.61528e-19 0.00558542)
(0.00558542 -0.0025609 -0.000124548 0.00558542 2.20779e-18 0.00558542)
(0.00559506 -0.00256451 -0.000127062 0.00559506 4.03372e-19 0.00559506)
(0.00559506 -0.00256451 -0.000127062 0.00559506 2.50373e-18 0.00559506)
(0.00560402 -0.00256783 -0.000129612 0.00560402 2.9595e-19 0.00560402)
(0.00560402 -0.00256783 -0.000129612 0.00560402 2.66452e-18 0.00560402)
(0.00561232 -0.00257087 -0.000132199 0.00561232 4.0744e-19 0.00561232)
(0.00561232 -0.00257087 -0.000132199 0.00561232 2.82343e-18 0.00561232)
(0.00561997 -0.00257364 -0.000134822 0.00561997 4.92409e-19 0.00561997)
(0.00561997 -0.00257364 -0.000134822 0.00561997 2.67713e-18 0.00561997)
(0.005627 -0.00257616 -0.000137484 0.005627 1.64182e-19 0.005627)
(0.005627 -0.00257616 -0.000137484 0.005627 2.60362e-18 0.005627)
(0.00563341 -0.00257841 -0.000140183 0.00563341 3.47432e-20 0.00563341)
(0.00563341 -0.00257841 -0.000140183 0.00563341 2.8995e-18 0.00563341)
(0.00563922 -0.00258042 -0.000142921 0.00563922 -4.36122e-19 0.00563922)
(0.00563922 -0.00258042 -0.000142921 0.00563922 3.20309e-18 0.00563922)
(0.00564445 -0.00258218 -0.000145699 0.00564445 9.15696e-21 0.00564445)
(0.00564445 -0.00258218 -0.000145699 0.00564445 3.41582e-18 0.00564445)
(0.0056491 -0.0025837 -0.000148516 0.0056491 3.69137e-20 0.0056491)
(0.0056491 -0.0025837 -0.000148516 0.0056491 3.61072e-18 0.0056491)
(0.00565319 -0.00258498 -0.000151374 0.00565319 8.19842e-20 0.00565319)
(0.00565319 -0.00258498 -0.000151374 0.00565319 3.5326e-18 0.00565319)
(0.00565673 -0.00258603 -0.000154273 0.00565673 1.876e-19 0.00565673)
(0.00565673 -0.00258603 -0.000154273 0.00565673 3.29772e-18 0.00565673)
(0.00565972 -0.00258685 -0.000157213 0.00565972 -2.05822e-19 0.00565972)
(0.00565972 -0.00258685 -0.000157213 0.00565972 3.44722e-18 0.00565972)
(0.00566219 -0.00258745 -0.000160194 0.00566219 -6.7791e-19 0.00566219)
(0.00566219 -0.00258745 -0.000160194 0.00566219 3.96741e-18 0.00566219)
(0.00566413 -0.00258783 -0.000163218 0.00566413 -8.95585e-19 0.00566413)
(0.00566413 -0.00258783 -0.000163218 0.00566413 4.21594e-18 0.00566413)
(0.00566557 -0.00258798 -0.000166285 0.00566557 -1.19802e-18 0.00566557)
(0.00566557 -0.00258798 -0.000166285 0.00566557 4.10811e-18 0.00566557)
(0.00566649 -0.00258793 -0.000169396 0.00566649 -1.65038e-18 0.00566649)
(0.00566649 -0.00258793 -0.000169396 0.00566649 4.55759e-18 0.00566649)
(0.00566692 -0.00258766 -0.00017255 0.00566692 -1.93462e-18 0.00566692)
(0.00566692 -0.00258766 -0.00017255 0.00566692 5.37572e-18 0.00566692)
(0.00566686 -0.00258718 -0.000175748 0.00566686 -1.98243e-18 0.00566686)
(0.00566686 -0.00258718 -0.000175748 0.00566686 5.55202e-18 0.00566686)
(0.00566631 -0.0025865 -0.000178991 0.00566631 -1.81558e-18 0.00566631)
(0.00566631 -0.0025865 -0.000178991 0.00566631 5.55323e-18 0.00566631)
(0.00566528 -0.0025856 -0.000182279 0.00566528 -2.03474e-18 0.00566528)
(0.00566528 -0.0025856 -0.000182279 0.00566528 5.71307e-18 0.00566528)
(0.00566379 -0.00258451 -0.000185613 0.00566379 -2.10311e-18 0.00566379)
(0.00566379 -0.00258451 -0.000185613 0.00566379 6.22415e-18 0.00566379)
(0.00566182 -0.00258321 -0.000188992 0.00566182 -1.03906e-18 0.00566182)
(0.00566182 -0.00258321 -0.000188992 0.00566182 6.59629e-18 0.00566182)
(0.00565939 -0.00258171 -0.000192418 0.00565939 -7.54258e-19 0.00565939)
(0.00565939 -0.00258171 -0.000192418 0.00565939 6.93495e-18 0.00565939)
(0.0056565 -0.00258001 -0.00019589 0.0056565 3.82467e-19 0.0056565)
(0.0056565 -0.00258001 -0.00019589 0.0056565 6.99492e-18 0.0056565)
(0.00565316 -0.00257811 -0.000199409 0.00565316 1.02797e-18 0.00565316)
(0.00565316 -0.00257811 -0.000199409 0.00565316 6.4607e-18 0.00565316)
(0.00564937 -0.00257602 -0.000202976 0.00564937 1.6953e-19 0.00564937)
(0.00564937 -0.00257602 -0.000202976 0.00564937 6.99992e-18 0.00564937)
(0.00564513 -0.00257373 -0.00020659 0.00564513 -1.67976e-18 0.00564513)
(0.00564513 -0.00257373 -0.00020659 0.00564513 8.15194e-18 0.00564513)
(0.00564044 -0.00257124 -0.000210252 0.00564044 -1.88185e-18 0.00564044)
(0.00564044 -0.00257124 -0.000210252 0.00564044 7.84049e-18 0.00564044)
(0.00563532 -0.00256855 -0.000213962 0.00563532 -1.58134e-18 0.00563532)
(0.00563532 -0.00256855 -0.000213962 0.00563532 7.05309e-18 0.00563532)
(0.00562975 -0.00256567 -0.00021772 0.00562975 -2.34542e-18 0.00562975)
(0.00562975 -0.00256567 -0.00021772 0.00562975 8.18834e-18 0.00562975)
(0.00562374 -0.00256259 -0.000221527 0.00562374 -2.12174e-18 0.00562374)
(0.00562374 -0.00256259 -0.000221527 0.00562374 9.37812e-18 0.00562374)
(0.0056173 -0.00255932 -0.000225382 0.0056173 -1.47573e-18 0.0056173)
(0.0056173 -0.00255932 -0.000225382 0.0056173 8.41476e-18 0.0056173)
(0.00561043 -0.00255585 -0.000229287 0.00561043 -3.16438e-18 0.00561043)
(0.00561043 -0.00255585 -0.000229287 0.00561043 7.8593e-18 0.00561043)
(0.00560312 -0.00255218 -0.00023324 0.00560312 -3.91195e-18 0.00560312)
(0.00560312 -0.00255218 -0.00023324 0.00560312 9.16132e-18 0.00560312)
(0.00559537 -0.00254832 -0.000237243 0.00559537 -3.63508e-18 0.00559537)
(0.00559537 -0.00254832 -0.000237243 0.00559537 9.35306e-18 0.00559537)
(0.0055872 -0.00254426 -0.000241295 0.0055872 -4.66151e-18 0.0055872)
(0.0055872 -0.00254426 -0.000241295 0.0055872 7.61205e-18 0.0055872)
(0.00557859 -0.00254 -0.000245396 0.00557859 -6.71776e-18 0.00557859)
(0.00557859 -0.00254 -0.000245396 0.00557859 8.7246e-18 0.00557859)
(0.00556955 -0.00253554 -0.000249546 0.00556955 -6.83829e-18 0.00556955)
(0.00556955 -0.00253554 -0.000249546 0.00556955 1.22525e-17 0.00556955)
(0.00556008 -0.00253088 -0.000253745 0.00556008 -5.2597e-18 0.00556008)
(0.00556008 -0.00253088 -0.000253745 0.00556008 1.21354e-17 0.00556008)
(0.00555018 -0.00252602 -0.000257993 0.00555018 -6.19653e-18 0.00555018)
(0.00555018 -0.00252602 -0.000257993 0.00555018 1.06461e-17 0.00555018)
(0.00553984 -0.00252096 -0.00026229 0.00553984 -7.78941e-18 0.00553984)
(0.00553984 -0.00252096 -0.00026229 0.00553984 1.13547e-17 0.00553984)
(0.00552907 -0.0025157 -0.000266636 0.00552907 -7.84565e-18 0.00552907)
(0.00552907 -0.0025157 -0.000266636 0.00552907 1.3189e-17 0.00552907)
(0.00551786 -0.00251023 -0.00027103 0.00551786 -7.58336e-18 0.00551786)
(0.00551786 -0.00251023 -0.00027103 0.00551786 1.38451e-17 0.00551786)
(0.00550622 -0.00250456 -0.000275472 0.00550622 -8.43857e-18 0.00550622)
(0.00550622 -0.00250456 -0.000275472 0.00550622 1.30873e-17 0.00550622)
(0.00549414 -0.00249867 -0.000279963 0.00549414 -1.06341e-17 0.00549414)
(0.00549414 -0.00249867 -0.000279963 0.00549414 1.31228e-17 0.00549414)
(0.00548162 -0.00249258 -0.0002845 0.00548162 -1.07636e-17 0.00548162)
(0.00548162 -0.00249258 -0.0002845 0.00548162 1.40628e-17 0.00548162)
(0.00546866 -0.00248628 -0.000289085 0.00546866 -8.7853e-18 0.00546866)
(0.00546866 -0.00248628 -0.000289085 0.00546866 1.45738e-17 0.00546866)
(0.00545526 -0.00247976 -0.000293716 0.00545526 -8.55516e-18 0.00545526)
(0.00545526 -0.00247976 -0.000293716 0.00545526 1.4843e-17 0.00545526)
(0.00544141 -0.00247303 -0.000298393 0.00544141 -1.02675e-17 0.00544141)
(0.00544141 -0.00247303 -0.000298393 0.00544141 1.55909e-17 0.00544141)
(0.00542711 -0.00246608 -0.000303115 0.00542711 -1.23747e-17 0.00542711)
(0.00542711 -0.00246608 -0.000303115 0.00542711 1.71903e-17 0.00542711)
(0.00541236 -0.00245892 -0.000307882 0.00541236 -1.32895e-17 0.00541236)
(0.00541236 -0.00245892 -0.000307882 0.00541236 1.86e-17 0.00541236)
(0.00539716 -0.00245153 -0.000312692 0.00539716 -1.06612e-17 0.00539716)
(0.00539716 -0.00245153 -0.000312692 0.00539716 2.03366e-17 0.00539716)
(0.0053815 -0.00244392 -0.000317545 0.0053815 -5.98228e-18 0.0053815)
(0.0053815 -0.00244392 -0.000317545 0.0053815 2.21698e-17 0.0053815)
(0.00536539 -0.00243608 -0.000322441 0.00536539 -1.15531e-18 0.00536539)
(0.00536539 -0.00243608 -0.000322441 0.00536539 2.34146e-17 0.00536539)
(0.00534881 -0.00242801 -0.000327377 0.00534881 8.89439e-19 0.00534881)
(0.00534881 -0.00242801 -0.000327377 0.00534881 2.51014e-17 0.00534881)
(0.00533176 -0.00241971 -0.000332352 0.00533176 -2.02579e-18 0.00533176)
(0.00533176 -0.00241971 -0.000332352 0.00533176 2.53566e-17 0.00533176)
(0.00531424 -0.00241118 -0.000337367 0.00531424 1.64637e-18 0.00531424)
(0.00531424 -0.00241118 -0.000337367 0.00531424 2.40986e-17 0.00531424)
(0.00529625 -0.00240241 -0.000342418 0.00529625 3.13445e-18 0.00529625)
(0.00529625 -0.00240241 -0.000342418 0.00529625 2.44807e-17 0.00529625)
(0.00527778 -0.0023934 -0.000347506 0.00527778 2.89879e-18 0.00527778)
(0.00527778 -0.0023934 -0.000347506 0.00527778 2.52305e-17 0.00527778)
(0.00525883 -0.00238415 -0.000352627 0.00525883 2.95318e-18 0.00525883)
(0.00525883 -0.00238415 -0.000352627 0.00525883 2.46793e-17 0.00525883)
(0.0052394 -0.00237465 -0.000357781 0.0052394 2.49924e-18 0.0052394)
(0.0052394 -0.00237465 -0.000357781 0.0052394 2.38289e-17 0.0052394)
(0.00521947 -0.0023649 -0.000362967 0.00521947 1.69779e-18 0.00521947)
(0.00521947 -0.0023649 -0.000362967 0.00521947 2.50703e-17 0.00521947)
(0.00519904 -0.0023549 -0.00036818 0.00519904 9.02969e-19 0.00519904)
(0.00519904 -0.0023549 -0.00036818 0.00519904 2.81783e-17 0.00519904)
(0.00517812 -0.00234464 -0.000373421 0.00517812 1.51345e-18 0.00517812)
(0.00517812 -0.00234464 -0.000373421 0.00517812 2.9965e-17 0.00517812)
(0.00515669 -0.00233413 -0.000378687 0.00515669 2.39379e-18 0.00515669)
(0.00515669 -0.00233413 -0.000378687 0.00515669 2.94982e-17 0.00515669)
(0.00513475 -0.00232335 -0.000383975 0.00513475 3.21722e-18 0.00513475)
(0.00513475 -0.00232335 -0.000383975 0.00513475 2.91921e-17 0.00513475)
(0.00511229 -0.0023123 -0.000389283 0.00511229 3.02041e-18 0.00511229)
(0.00511229 -0.0023123 -0.000389283 0.00511229 3.14304e-17 0.00511229)
(0.00508931 -0.00230098 -0.000394609 0.00508931 2.71171e-18 0.00508931)
(0.00508931 -0.00230098 -0.000394609 0.00508931 3.11831e-17 0.00508931)
(0.00506581 -0.00228939 -0.00039995 0.00506581 5.37815e-18 0.00506581)
(0.00506581 -0.00228939 -0.00039995 0.00506581 3.06781e-17 0.00506581)
(0.00504177 -0.00227752 -0.000405302 0.00504177 4.66804e-18 0.00504177)
(0.00504177 -0.00227752 -0.000405302 0.00504177 3.08754e-17 0.00504177)
(0.00501719 -0.00226537 -0.000410662 0.00501719 1.16348e-18 0.00501719)
(0.00501719 -0.00226537 -0.000410662 0.00501719 3.17687e-17 0.00501719)
(0.00499207 -0.00225293 -0.000416029 0.00499207 1.80753e-18 0.00499207)
(0.00499207 -0.00225293 -0.000416029 0.00499207 3.3399e-17 0.00499207)
(0.0049664 -0.0022402 -0.000421397 0.0049664 1.86982e-18 0.0049664)
(0.0049664 -0.0022402 -0.000421397 0.0049664 3.46757e-17 0.0049664)
(0.00494017 -0.00222718 -0.000426763 0.00494017 3.17254e-18 0.00494017)
(0.00494017 -0.00222718 -0.000426763 0.00494017 3.64904e-17 0.00494017)
(0.00491337 -0.00221385 -0.000432124 0.00491337 3.65412e-18 0.00491337)
(0.00491337 -0.00221385 -0.000432124 0.00491337 3.61852e-17 0.00491337)
(0.00488601 -0.00220022 -0.000437475 0.00488601 8.82341e-19 0.00488601)
(0.00488601 -0.00220022 -0.000437475 0.00488601 3.81839e-17 0.00488601)
(0.00485807 -0.00218629 -0.000442811 0.00485807 9.31718e-19 0.00485807)
(0.00485807 -0.00218629 -0.000442811 0.00485807 4.12827e-17 0.00485807)
(0.00482954 -0.00217204 -0.000448129 0.00482954 4.3446e-18 0.00482954)
(0.00482954 -0.00217204 -0.000448129 0.00482954 4.20625e-17 0.00482954)
(0.00480043 -0.00215747 -0.000453424 0.00480043 6.89946e-18 0.00480043)
(0.00480043 -0.00215747 -0.000453424 0.00480043 3.90337e-17 0.00480043)
(0.00477071 -0.00214257 -0.00045869 0.00477071 7.06765e-18 0.00477071)
(0.00477071 -0.00214257 -0.00045869 0.00477071 3.39193e-17 0.00477071)
(0.00474039 -0.00212735 -0.000463922 0.00474039 4.56699e-18 0.00474039)
(0.00474039 -0.00212735 -0.000463922 0.00474039 3.38165e-17 0.00474039)
(0.00470946 -0.00211179 -0.000469115 0.00470946 1.80233e-18 0.00470946)
(0.00470946 -0.00211179 -0.000469115 0.00470946 3.2528e-17 0.00470946)
(0.00467791 -0.0020959 -0.000474262 0.00467791 2.68662e-18 0.00467791)
(0.00467791 -0.0020959 -0.000474262 0.00467791 3.05907e-17 0.00467791)
(0.00464573 -0.00207966 -0.000479357 0.00464573 5.71156e-18 0.00464573)
(0.00464573 -0.00207966 -0.000479357 0.00464573 2.53559e-17 0.00464573)
(0.00461292 -0.00206307 -0.000484394 0.00461292 4.52019e-18 0.00461292)
(0.00461292 -0.00206307 -0.000484394 0.00461292 1.92391e-17 0.00461292)
(0.00457946 -0.00204612 -0.000489366 0.00457946 3.10562e-18 0.00457946)
(0.00457946 -0.00204612 -0.000489366 0.00457946 1.88736e-17 0.00457946)
(0.00454536 -0.00202882 -0.000494266 0.00454536 4.62372e-18 0.00454536)
(0.00454536 -0.00202882 -0.000494266 0.00454536 1.89527e-17 0.00454536)
(0.00451059 -0.00201114 -0.000499086 0.00451059 4.34688e-18 0.00451059)
(0.00451059 -0.00201114 -0.000499086 0.00451059 1.76073e-17 0.00451059)
(0.00447516 -0.0019931 -0.000503818 0.00447516 9.53215e-19 0.00447516)
(0.00447516 -0.0019931 -0.000503818 0.00447516 1.72178e-17 0.00447516)
(0.00443906 -0.00197467 -0.000508453 0.00443906 4.55127e-20 0.00443906)
(0.00443906 -0.00197467 -0.000508453 0.00443906 1.82469e-17 0.00443906)
(0.00440228 -0.00195585 -0.000512984 0.00440228 1.3712e-18 0.00440228)
(0.00440228 -0.00195585 -0.000512984 0.00440228 2.00315e-17 0.00440228)
(0.00436481 -0.00193665 -0.0005174 0.00436481 6.19852e-20 0.00436481)
(0.00436481 -0.00193665 -0.0005174 0.00436481 1.9794e-17 0.00436481)
(0.00432664 -0.00191705 -0.000521693 0.00432664 -1.62432e-18 0.00432664)
(0.00432664 -0.00191705 -0.000521693 0.00432664 8.60864e-18 0.00432664)
(0.00428777 -0.00189704 -0.000525852 0.00428777 -1.89337e-18 0.00428777)
(0.00428777 -0.00189704 -0.000525852 0.00428777 1.05978e-17 0.00428777)
(0.00424819 -0.00187661 -0.000529866 0.00424819 3.1315e-18 0.00424819)
(0.00424819 -0.00187661 -0.000529866 0.00424819 -0 0.00424819)
(0.0042079 -0.00185577 -0.000533724 0.0042079 4.09465e-18 0.0042079)
(0.0042079 -0.00185577 -0.000533724 0.0042079 3.16822e-18 0.0042079)
(0.00416688 -0.00183451 -0.000537416 0.00416688 2.58065e-18 0.00416688)
(0.00416688 -0.00183451 -0.000537416 0.00416688 8.19093e-18 0.00416688)
(0.00412513 -0.00181281 -0.000540928 0.00412513 -2.16559e-18 0.00412513)
(0.00412513 -0.00181281 -0.000540928 0.00412513 2.71114e-18 0.00412513)
(0.00408264 -0.00179067 -0.000544248 0.00408264 -4.14255e-18 0.00408264)