/*--------------------------------*- C++ -*----------------------------------*\
| =========                 |                                                 |
| \\      /  F ield         | OpenFOAM: The Open Source CFD Toolbox           |
|  \\    /   O peration     | Version:  2106                                  |
|   \\  /    A nd           | Website:  www.openfoam.com                      |
|    \\/     M anipulation  |                                                 |
\*---------------------------------------------------------------------------*/
FoamFile
{
    version     2.0;
    format      ascii;
    arch        "LSB;label=32;scalar=64";
    class       volVectorField;
    location    "10040";
    object      U;
}
// * * * * * * * * * * * * * * * * * * * * * * * * * * * * * * * * * * * * * //

dimensions      [0 1 -1 0 0 0 0];

internalField   nonuniform List<vector> 
2000
(
(0.00324124 -6.39812e-16 -2.02054e-17)
(0.00324124 -8.07519e-20 -3.91437e-35)
(0.00978301 -2.64859e-15 -6.70168e-17)
(0.00978301 -7.10848e-19 4.18025e-22)
(0.0164456 -2.50718e-15 -7.0642e-17)
(0.0164456 -1.4343e-18 -2.59011e-21)
(0.0232313 -2.35061e-15 -7.39258e-17)
(0.0232313 -2.22609e-18 -5.2762e-21)
(0.0301422 -2.30244e-15 -7.74394e-17)
(0.0301422 -3.04557e-18 -7.52519e-21)
(0.0371808 -2.34964e-15 -8.11515e-17)
(0.0371808 -3.92892e-18 -9.63554e-21)
(0.0443493 -2.34858e-15 -8.5026e-17)
(0.0443493 -4.88371e-18 -1.20755e-20)
(0.05165 -2.34674e-15 -8.90637e-17)
(0.05165 -5.82215e-18 -1.53651e-20)
(0.0590854 -2.34516e-15 -9.32706e-17)
(0.0590854 -6.7752e-18 -1.8233e-20)
(0.0666578 -2.34365e-15 -9.76511e-17)
(0.0666578 -7.81347e-18 -2.02415e-20)
(0.0743696 -2.34206e-15 -1.02209e-16)
(0.0743696 -8.88382e-18 -2.24058e-20)
(0.0822231 -2.34034e-15 -1.06951e-16)
(0.0822231 -9.98452e-18 -2.56672e-20)
(0.0902206 -2.33842e-15 -1.11881e-16)
(0.0902206 -1.119e-17 -2.84852e-20)
(0.0983642 -2.33642e-15 -1.17002e-16)
(0.0983642 -1.24166e-17 -3.11907e-20)
(0.106656 -2.33439e-15 -1.22318e-16)
(0.106656 -1.36223e-17 -3.50445e-20)
(0.115098 -2.33219e-15 -1.27831e-16)
(0.115098 -1.4952e-17 -3.56327e-20)
(0.12369 -2.33001e-15 -1.33541e-16)
(0.12369 -1.64048e-17 -3.89305e-20)
(0.132435 -2.32779e-15 -1.39446e-16)
(0.132435 -1.77677e-17 -4.32288e-20)
(0.141333 -2.32548e-15 -1.45541e-16)
(0.141333 -1.91597e-17 -4.25986e-20)
(0.150383 -2.32298e-15 -1.51819e-16)
(0.150383 -2.0645e-17 -4.14149e-20)
(0.159585 -2.32013e-15 -1.58266e-16)
(0.159585 -2.21605e-17 -4.79399e-20)
(0.168935 -2.31744e-15 -1.64866e-16)
(0.168935 -2.38653e-17 -5.47237e-20)
(0.178431 -2.31477e-15 -1.71598e-16)
(0.178431 -2.55171e-17 -5.73195e-20)
(0.188067 -2.3119e-15 -1.78432e-16)
(0.188067 -2.71461e-17 -5.66891e-20)
(0.197837 -2.30892e-15 -1.85334e-16)
(0.197837 -2.90595e-17 -5.66012e-20)
(0.207733 -2.30574e-15 -1.92263e-16)
(0.207733 -3.09762e-17 -6.2219e-20)
(0.217745 -2.30255e-15 -1.99174e-16)
(0.217745 -3.29504e-17 -6.64153e-20)
(0.227859 -2.29934e-15 -2.06017e-16)
(0.227859 -3.50664e-17 -6.95112e-20)
(0.238062 -2.29572e-15 -2.12738e-16)
(0.238062 -3.70852e-17 -7.16956e-20)
(0.248338 -2.29187e-15 -2.19282e-16)
(0.248338 -3.94365e-17 -7.63336e-20)
(0.258669 -2.28818e-15 -2.25595e-16)
(0.258669 -4.14488e-17 -7.569e-20)
(0.269035 -2.28395e-15 -2.31624e-16)
(0.269035 -4.34644e-17 -7.96422e-20)
(0.279415 -2.27987e-15 -2.37326e-16)
(0.279415 -4.6092e-17 -8.38381e-20)
(0.28979 -2.2756e-15 -2.42661e-16)
(0.28979 -4.85127e-17 -8.54359e-20)
(0.300136 -2.2712e-15 -2.476e-16)
(0.300136 -5.09023e-17 -9.63975e-20)
(0.310435 -2.26655e-15 -2.52127e-16)
(0.310435 -5.35628e-17 -1.04628e-19)
(0.320664 -2.2617e-15 -2.56235e-16)
(0.320664 -5.63439e-17 -1.17648e-19)
(0.330806 -2.25674e-15 -2.59926e-16)
(0.330806 -5.90555e-17 -1.34075e-19)
(0.340842 -2.25182e-15 -2.63212e-16)
(0.340842 -6.21126e-17 -1.43696e-19)
(0.350758 -2.24714e-15 -2.66114e-16)
(0.350758 -6.51565e-17 -1.64757e-19)
(0.360539 -2.24268e-15 -2.68661e-16)
(0.360539 -6.76336e-17 -1.89528e-19)
(0.370173 -2.23846e-15 -2.70883e-16)
(0.370173 -7.04273e-17 -2.04834e-19)
(0.379652 -2.23422e-15 -2.72821e-16)
(0.379652 -7.31806e-17 -2.13735e-19)
(0.388968 -2.22983e-15 -2.74511e-16)
(0.388968 -7.62762e-17 -2.21358e-19)
(0.398114 -2.22504e-15 -2.75995e-16)
(0.398114 -7.89091e-17 -2.31406e-19)
(0.407087 -2.22e-15 -2.77307e-16)
(0.407087 -8.17878e-17 -2.32294e-19)
(0.415886 -2.2154e-15 -2.78483e-16)
(0.415886 -8.52512e-17 -2.50826e-19)
(0.424508 -2.21076e-15 -2.79554e-16)
(0.424508 -8.75615e-17 -2.88677e-19)
(0.432954 -2.20577e-15 -2.80554e-16)
(0.432954 -9.00206e-17 -3.50693e-19)
(0.441226 -2.2007e-15 -2.81513e-16)
(0.441226 -9.34383e-17 -3.54316e-19)
(0.449325 -2.19525e-15 -2.82454e-16)
(0.449325 -9.68335e-17 -3.50576e-19)
(0.457254 -2.1899e-15 -2.83404e-16)
(0.457254 -1.0004e-16 -4.05656e-19)
(0.465018 -2.18488e-15 -2.84379e-16)
(0.465018 -1.03349e-16 -4.65646e-19)
(0.472619 -2.17977e-15 -2.85404e-16)
(0.472619 -1.06826e-16 -4.84531e-19)
(0.480062 -2.17386e-15 -2.86492e-16)
(0.480062 -1.1043e-16 -5.01239e-19)
(0.487351 -2.16804e-15 -2.87647e-16)
(0.487351 -1.13792e-16 -5.34927e-19)
(0.494492 -2.1635e-15 -2.88888e-16)
(0.494492 -1.17166e-16 -6.34712e-19)
(0.501487 -2.15819e-15 -2.9022e-16)
(0.501487 -1.20527e-16 -7.07163e-19)
(0.508343 -2.1525e-15 -2.91651e-16)
(0.508343 -1.24209e-16 -7.10116e-19)
(0.515064 -2.14687e-15 -2.93185e-16)
(0.515064 -1.28258e-16 -7.30196e-19)
(0.521654 -2.14028e-15 -2.94826e-16)
(0.521654 -1.31812e-16 -7.29034e-19)
(0.528118 -2.13458e-15 -2.96571e-16)
(0.528118 -1.33977e-16 -7.72086e-19)
(0.534461 -2.13013e-15 -2.98437e-16)
(0.534461 -1.35621e-16 -8.47971e-19)
(0.540687 -2.12523e-15 -3.00425e-16)
(0.540687 -1.39108e-16 -9.20121e-19)
(0.5468 -2.11884e-15 -3.0255e-16)
(0.5468 -1.4308e-16 -1.05247e-18)
(0.552804 -2.11227e-15 -3.04791e-16)
(0.552804 -1.46137e-16 -1.12864e-18)
(0.558704 -2.10615e-15 -3.07164e-16)
(0.558704 -1.49351e-16 -1.15189e-18)
(0.564503 -2.1003e-15 -3.09662e-16)
(0.564503 -1.52727e-16 -1.18056e-18)
(0.570204 -2.09465e-15 -3.12285e-16)
(0.570204 -1.55062e-16 -1.19071e-18)
(0.575812 -2.08984e-15 -3.15029e-16)
(0.575812 -1.57282e-16 -1.20638e-18)
(0.58133 -2.08647e-15 -3.17898e-16)
(0.58133 -1.59464e-16 -1.24204e-18)
(0.586761 -2.08182e-15 -3.20905e-16)
(0.586761 -1.61392e-16 -1.4467e-18)
(0.592109 -2.07716e-15 -3.24046e-16)
(0.592109 -1.63911e-16 -1.38803e-18)
(0.597376 -2.07362e-15 -3.27328e-16)
(0.597376 -1.664e-16 -1.20853e-18)
(0.602565 -2.06937e-15 -3.30774e-16)
(0.602565 -1.67865e-16 -1.23032e-18)
(0.60768 -2.06532e-15 -3.34348e-16)
(0.60768 -1.70236e-16 -1.31586e-18)
(0.612722 -2.06103e-15 -3.38062e-16)
(0.612722 -1.72308e-16 -1.37096e-18)
(0.617695 -2.0564e-15 -3.41924e-16)
(0.617695 -1.74368e-16 -1.39395e-18)
(0.6226 -2.05179e-15 -3.4593e-16)
(0.6226 -1.77225e-16 -1.35394e-18)
(0.627441 -2.0468e-15 -3.50098e-16)
(0.627441 -1.79037e-16 -1.2041e-18)
(0.632219 -2.04376e-15 -3.54445e-16)
(0.632219 -1.80469e-16 -1.19071e-18)
(0.636937 -2.03989e-15 -3.58949e-16)
(0.636937 -1.81261e-16 -1.33891e-18)
(0.641597 -2.03351e-15 -3.63602e-16)
(0.641597 -1.85022e-16 -1.16674e-18)
(0.6462 -2.02663e-15 -3.68402e-16)
(0.6462 -1.89653e-16 -1.02035e-18)
(0.650749 -2.02154e-15 -3.73359e-16)
(0.650749 -1.91942e-16 -1.12539e-18)
(0.655245 -2.01698e-15 -3.7851e-16)
(0.655245 -1.93969e-16 -1.3132e-18)
(0.65969 -2.01224e-15 -3.83841e-16)
(0.65969 -1.98543e-16 -1.27291e-18)
(0.664086 -2.00775e-15 -3.89368e-16)
(0.664086 -2.04385e-16 -1.28623e-18)
(0.668435 -2.00204e-15 -3.95118e-16)
(0.668435 -2.06574e-16 -1.49138e-18)
(0.672738 -1.99566e-15 -4.01077e-16)
(0.672738 -2.10377e-16 -1.58177e-18)
(0.676996 -1.99117e-15 -4.07255e-16)
(0.676996 -2.14972e-16 -1.46899e-18)
(0.681211 -1.98541e-15 -4.13613e-16)
(0.681211 -2.17534e-16 -1.6596e-18)
(0.685385 -1.97761e-15 -4.20182e-16)
(0.685385 -2.22338e-16 -1.72945e-18)
(0.689518 -1.96924e-15 -4.26174e-16)
(0.689518 -2.27196e-16 -1.96634e-18)
(0.693612 -1.96383e-15 -4.25319e-16)
(0.693612 -2.29639e-16 -2.08138e-18)
(0.697668 -1.95924e-15 -4.24317e-16)
(0.697668 -2.31543e-16 -2.29182e-18)
(0.701687 -1.95352e-15 -4.23675e-16)
(0.701687 -2.35529e-16 -2.29318e-18)
(0.705671 -1.94507e-15 -4.23235e-16)
(0.705671 -2.38896e-16 -2.47457e-18)
(0.70962 -1.93694e-15 -4.23459e-16)
(0.70962 -2.42925e-16 -2.64891e-18)
(0.713535 -1.9317e-15 -4.23928e-16)
(0.713535 -2.45231e-16 -2.51645e-18)
(0.717418 -1.92896e-15 -4.2456e-16)
(0.717418 -2.4481e-16 -2.70091e-18)
(0.72127 -1.92632e-15 -4.25218e-16)
(0.72127 -2.43915e-16 -2.93069e-18)
(0.72509 -1.92256e-15 -4.26093e-16)
(0.72509 -2.44359e-16 -2.38989e-18)
(0.728881 -1.91863e-15 -4.26515e-16)
(0.728881 -2.45037e-16 -2.07617e-18)
(0.732644 -1.916e-15 -4.26891e-16)
(0.732644 -2.46504e-16 -2.01473e-18)
(0.736378 -1.91271e-15 -4.27111e-16)
(0.736378 -2.48287e-16 -2.17694e-18)
(0.740085 -1.90799e-15 -4.27734e-16)
(0.740085 -2.50237e-16 -2.19146e-18)
(0.743765 -1.90362e-15 -4.28025e-16)
(0.743765 -2.54883e-16 -1.64532e-18)
(0.74742 -1.90065e-15 -4.27968e-16)
(0.74742 -2.54559e-16 -1.15809e-18)
(0.75105 -1.89544e-15 -4.26834e-16)
(0.75105 -2.55952e-16 -1.30308e-18)
(0.754655 -1.88584e-15 -4.26171e-16)
(0.754655 -2.61168e-16 -1.38139e-18)
(0.758237 -1.87794e-15 -4.25775e-16)
(0.758237 -2.64939e-16 -1.71824e-18)
(0.761795 -1.87024e-15 -4.25362e-16)
(0.761795 -2.68826e-16 -1.99626e-18)
(0.765332 -1.86038e-15 -4.25098e-16)
(0.765332 -2.7495e-16 -1.7249e-18)
(0.768846 -1.85162e-15 -4.24691e-16)
(0.768846 -2.80507e-16 -8.73536e-19)
(0.77234 -1.84335e-15 -4.23268e-16)
(0.77234 -2.8474e-16 -5.22733e-19)
(0.775812 -1.83645e-15 -4.21839e-16)
(0.775812 -2.8913e-16 -6.27164e-19)
(0.779265 -1.83111e-15 -4.19994e-16)
(0.779265 -2.98079e-16 -6.71782e-19)
(0.782698 -1.82229e-15 -4.17961e-16)
(0.782698 -3.101e-16 9.05482e-20)
(0.786112 -1.8115e-15 -4.14456e-16)
(0.786112 -3.18619e-16 -3.62755e-19)
(0.789507 -1.80392e-15 -4.11432e-16)
(0.789507 -3.26343e-16 -1.17101e-18)
(0.792885 -1.79421e-15 -4.08231e-16)
(0.792885 -3.38643e-16 -1.53288e-18)
(0.796245 -1.7842e-15 -4.05359e-16)
(0.796245 -3.4995e-16 -1.69392e-18)
(0.799587 -1.7742e-15 -4.01533e-16)
(0.799587 -3.62919e-16 -1.91748e-18)
(0.802913 -1.759e-15 -3.985e-16)
(0.802913 -3.74648e-16 -2.73008e-18)
(0.806222 -1.74774e-15 -3.96646e-16)
(0.806222 -3.86058e-16 -3.11348e-18)
(0.809516 -1.73319e-15 -3.94888e-16)
(0.809516 -3.99123e-16 -3.83256e-18)
(0.812794 -1.72043e-15 -3.95427e-16)
(0.812794 -4.06655e-16 -3.26727e-18)
(0.816056 -1.71771e-15 -3.95584e-16)
(0.816056 -4.12089e-16 -2.03284e-18)
(0.819304 -1.71488e-15 -3.93563e-16)
(0.819304 -4.125e-16 -2.26997e-18)
(0.822538 -1.7123e-15 -3.90893e-16)
(0.822538 -4.17752e-16 -3.38926e-18)
(0.825757 -1.70328e-15 -3.88419e-16)
(0.825757 -4.2165e-16 -2.18559e-18)
(0.828963 -1.69209e-15 -3.85426e-16)
(0.828963 -4.25482e-16 -9.69415e-19)
(0.832155 -1.68427e-15 -3.80651e-16)
(0.832155 -4.31625e-16 -2.1285e-18)
(0.835334 -1.67552e-15 -3.78823e-16)
(0.835334 -4.3299e-16 -3.02297e-18)
(0.8385 -1.66897e-15 -3.75434e-16)
(0.8385 -4.34707e-16 -1.21208e-18)
(0.841653 -1.65889e-15 -3.698e-16)
(0.841653 -4.40328e-16 -3.54943e-19)
(0.844794 -1.64703e-15 -3.63938e-16)
(0.844794 -4.48975e-16 -1.1013e-18)
(0.847923 -1.63982e-15 -3.58648e-16)
(0.847923 -4.53259e-16 2.68504e-19)
(0.851041 -1.62982e-15 -3.51103e-16)
(0.851041 -4.56373e-16 4.5073e-18)
(0.854146 -1.6175e-15 -3.40221e-16)
(0.854146 -4.66306e-16 3.89142e-18)
(0.857241 -1.60447e-15 -3.31977e-16)
(0.857241 -4.71127e-16 4.98518e-19)
(0.860324 -1.59579e-15 -3.24773e-16)
(0.860324 -4.81322e-16 1.02848e-18)
(0.863397 -1.58974e-15 -3.15078e-16)
(0.863397 -4.90793e-16 2.60392e-18)
(0.866459 -1.57943e-15 -3.04548e-16)
(0.866459 -5.01035e-16 2.42608e-18)
(0.86951 -1.568e-15 -2.93819e-16)
(0.86951 -5.10165e-16 8.12683e-19)
(0.872552 -1.55921e-15 -2.83676e-16)
(0.872552 -5.20627e-16 4.88971e-19)
(0.875583 -1.55151e-15 -2.71401e-16)
(0.875583 -5.30313e-16 2.0227e-18)
(0.878604 -1.53611e-15 -2.5616e-16)
(0.878604 -5.33522e-16 2.82564e-18)
(0.881616 -1.51319e-15 -2.41834e-16)
(0.881616 -5.44781e-16 2.80411e-18)
(0.884618 -1.49039e-15 -2.2959e-16)
(0.884618 -5.58314e-16 4.07319e-18)
(0.887611 -1.47618e-15 -2.15726e-16)
(0.887611 -5.66437e-16 4.99553e-18)
(0.890595 -1.46046e-15 -2.01335e-16)
(0.890595 -5.81692e-16 5.05127e-18)
(0.89357 -1.44556e-15 -1.81909e-16)
(0.89357 -5.92318e-16 3.82716e-18)
(0.896536 -1.4297e-15 -1.65521e-16)
(0.896536 -5.9563e-16 1.68722e-18)
(0.899493 -1.40831e-15 -1.52126e-16)
(0.899493 -6.09525e-16 -2.32375e-18)
(0.902441 -1.39182e-15 -1.4556e-16)
(0.902441 -6.17318e-16 -6.33894e-18)
(0.905381 -1.37583e-15 -1.45018e-16)
(0.905381 -6.27232e-16 -1.21242e-17)
(0.908313 -1.36285e-15 -1.38131e-16)
(0.908313 -6.40619e-16 -1.84915e-17)
(0.911236 -1.35174e-15 -1.36596e-16)
(0.911236 -6.43832e-16 -2.26494e-17)
(0.914151 -1.33841e-15 -1.39039e-16)
(0.914151 -6.58798e-16 -2.54268e-17)
(0.917058 -1.32396e-15 -1.40377e-16)
(0.917058 -6.64757e-16 -2.88069e-17)
(0.919957 -1.30787e-15 -1.41872e-16)
(0.919957 -6.7083e-16 -3.09347e-17)
(0.922848 -1.29355e-15 -1.42776e-16)
(0.922848 -6.78622e-16 -3.1096e-17)
(0.925731 -1.28572e-15 -1.43628e-16)
(0.925731 -6.74183e-16 -3.06538e-17)
(0.928606 -1.27869e-15 -1.44505e-16)
(0.928606 -6.76145e-16 -3.29315e-17)
(0.931473 -1.26603e-15 -1.43731e-16)
(0.931473 -6.77781e-16 -3.86304e-17)
(0.934333 -1.248e-15 -1.44175e-16)
(0.934333 -6.8444e-16 -4.43818e-17)
(0.937185 -1.22434e-15 -1.4339e-16)
(0.937185 -7.02619e-16 -4.63664e-17)
(0.94003 -1.20233e-15 -1.44245e-16)
(0.94003 -7.15747e-16 -4.99025e-17)
(0.942866 -1.18477e-15 -1.4389e-16)
(0.942866 -7.28703e-16 -5.42224e-17)
(0.945695 -1.15809e-15 -1.44905e-16)
(0.945695 -7.35544e-16 -5.43664e-17)
(0.948517 -1.14062e-15 -1.4785e-16)
(0.948517 -7.34953e-16 -5.56765e-17)
(0.951331 -1.1339e-15 -1.50223e-16)
(0.951331 -7.3413e-16 -5.58404e-17)
(0.954137 -1.12174e-15 -1.50334e-16)
(0.954137 -7.28266e-16 -5.81564e-17)
(0.956936 -1.10742e-15 -1.49523e-16)
(0.956936 -7.22367e-16 -6.07712e-17)
(0.959727 -1.08911e-15 -1.49616e-16)
(0.959727 -7.23125e-16 -6.58804e-17)
(0.96251 -1.07243e-15 -1.50443e-16)
(0.96251 -7.14924e-16 -7.08368e-17)
(0.965286 -1.06685e-15 -1.52281e-16)
(0.965286 -7.10945e-16 -7.47172e-17)
(0.968054 -1.05402e-15 -1.50649e-16)
(0.968054 -7.14455e-16 -8.35148e-17)
(0.970814 -1.02434e-15 -1.49439e-16)
(0.970814 -7.35603e-16 -9.29807e-17)
(0.973566 -9.897e-16 -1.4942e-16)
(0.973566 -7.64097e-16 -9.94787e-17)
(0.97631 -9.63226e-16 -1.52463e-16)
(0.97631 -7.67253e-16 -9.84815e-17)
(0.979047 -9.48651e-16 -1.56153e-16)
(0.979047 -7.69998e-16 -1.02251e-16)
(0.981775 -9.38202e-16 -1.57808e-16)
(0.981775 -7.69386e-16 -1.07317e-16)
(0.984494 -9.34568e-16 -1.57359e-16)
(0.984494 -7.74569e-16 -1.11036e-16)
(0.987206 -9.27216e-16 -1.63181e-16)
(0.987206 -7.9036e-16 -1.1406e-16)
(0.989909 -9.18955e-16 -1.68832e-16)
(0.989909 -8.11081e-16 -1.1383e-16)
(0.992603 -9.11004e-16 -1.7109e-16)
(0.992603 -8.14398e-16 -1.13654e-16)
(0.995288 -8.94507e-16 -1.73186e-16)
(0.995288 -8.04929e-16 -1.17201e-16)
(0.997965 -8.799e-16 -1.75258e-16)
(0.997965 -8.02446e-16 -1.20016e-16)
(1.00063 -8.74872e-16 -1.77475e-16)
(1.00063 -7.98707e-16 -1.255e-16)
(1.00329 -8.63145e-16 -1.72668e-16)
(1.00329 -7.91904e-16 -1.27411e-16)
(1.00594 -8.51161e-16 -1.71582e-16)
(1.00594 -7.88948e-16 -1.37857e-16)
(1.00858 -8.4149e-16 -1.70072e-16)
(1.00858 -7.70629e-16 -1.48867e-16)
(1.01121 -8.33398e-16 -1.66554e-16)
(1.01121 -8.05828e-16 -1.53696e-16)
(1.01382 -8.28023e-16 -1.61197e-16)
(1.01382 -8.00226e-16 -1.57381e-16)
(1.01643 -8.1157e-16 -1.58376e-16)
(1.01643 -8.31835e-16 -1.6537e-16)
(1.01903 -7.97725e-16 -1.5844e-16)
(1.01903 -8.12613e-16 -1.6064e-16)
(1.02161 -7.93723e-16 -1.61253e-16)
(1.02161 -7.86791e-16 -1.63203e-16)
(1.02419 -7.8789e-16 -1.63341e-16)
(1.02419 -7.7505e-16 -1.68538e-16)
(1.02675 -7.68427e-16 -1.51499e-16)
(1.02675 -7.461e-16 -1.63436e-16)
(1.0293 -7.40698e-16 -1.39656e-16)
(1.0293 -7.17884e-16 -1.75144e-16)
(1.03183 -7.27627e-16 -1.32393e-16)
(1.03183 -7.17133e-16 -1.87335e-16)
(1.03436 -6.90018e-16 -1.23834e-16)
(1.03436 -6.94032e-16 -1.92043e-16)
(1.03687 -6.83369e-16 -1.26375e-16)
(1.03687 -6.73809e-16 -1.82858e-16)
(1.03936 -6.72793e-16 -1.09579e-16)
(1.03936 -6.94688e-16 -1.76935e-16)
(1.04185 -6.36218e-16 -1.07763e-16)
(1.04185 -6.74648e-16 -1.62434e-16)
(1.04431 -6.29443e-16 -9.39015e-17)
(1.04431 -6.31283e-16 -1.50311e-16)
(1.04676 -6.0579e-16 -9.24715e-17)
(1.04676 -5.96654e-16 -1.48013e-16)
(1.0492 -5.8864e-16 -1.00343e-16)
(1.0492 -5.66668e-16 -1.54627e-16)
(1.05161 -5.88726e-16 -1.05986e-16)
(1.05161 -5.57115e-16 -1.42613e-16)
(1.05401 -5.50094e-16 -1.17406e-16)
(1.05401 -5.44359e-16 -1.34219e-16)
(1.05639 -5.72282e-16 -1.26516e-16)
(1.05639 -5.35944e-16 -1.31212e-16)
(1.05875 -5.86008e-16 -1.51718e-16)
(1.05875 -5.6187e-16 -1.26279e-16)
(1.06109 -5.7521e-16 -1.40046e-16)
(1.06109 -5.35544e-16 -1.30541e-16)
(1.06341 -5.49986e-16 -1.36227e-16)
(1.06341 -5.27583e-16 -1.18346e-16)
(1.06571 -5.28886e-16 -1.36015e-16)
(1.06571 -5.50426e-16 -1.08533e-16)
(1.06798 -5.16573e-16 -1.31612e-16)
(1.06798 -5.5501e-16 -1.05203e-16)
(1.07023 -5.10102e-16 -1.41026e-16)
(1.07023 -5.68029e-16 -9.76073e-17)
(1.07246 -5.43207e-16 -1.22626e-16)
(1.07246 -5.66927e-16 -8.89966e-17)
(1.07465 -5.32327e-16 -1.16423e-16)
(1.07465 -5.48077e-16 -1.23653e-16)
(1.07682 -4.74962e-16 -1.28578e-16)
(1.07682 -5.67404e-16 -1.04392e-16)
(1.07896 -5.61549e-16 -1.33088e-16)
(1.07896 -5.40469e-16 -8.05695e-17)
(1.08107 -5.63598e-16 -1.12991e-16)
(1.08107 -5.22376e-16 -8.09804e-17)
(1.08315 -5.60591e-16 -1.01868e-16)
(1.08315 -5.49558e-16 -8.68205e-17)
(1.08519 -5.65285e-16 -9.73747e-17)
(1.08519 -5.22873e-16 -9.48475e-17)
(1.08719 -5.50542e-16 -8.52949e-17)
(1.08719 -5.23221e-16 -1.01375e-16)
(1.08915 -5.34019e-16 -9.65283e-17)
(1.08915 -5.77702e-16 -9.65203e-17)
(1.09108 -5.59632e-16 -7.39276e-17)
(1.09108 -5.50744e-16 -9.71676e-17)
(1.09296 -5.07197e-16 -8.19984e-17)
(1.09296 -5.23145e-16 -9.80316e-17)
(1.09479 -5.17205e-16 -7.87646e-17)
(1.09479 -5.36592e-16 -9.1622e-17)
(1.09657 -5.28388e-16 -9.42527e-17)
(1.09657 -5.45218e-16 -1.02279e-16)
(1.0983 -4.51371e-16 -1.06504e-16)
(1.0983 -5.66726e-16 -8.4312e-17)
(1.09998 -5.17969e-16 -9.77062e-17)
(1.09998 -5.65812e-16 -7.024e-17)
(1.10159 -4.75514e-16 -1.38447e-16)
(1.10159 -5.70076e-16 -6.48655e-17)
(1.10315 -5.09829e-16 -1.55552e-16)
(1.10315 -5.85689e-16 -8.05649e-17)
(1.10463 -5.51761e-16 -1.15953e-16)
(1.10463 -5.68488e-16 -4.88609e-17)
(1.10604 -5.71529e-16 -9.07814e-17)
(1.10604 -5.27139e-16 -3.57488e-17)
(1.10737 -5.48177e-16 -1.13724e-16)
(1.10737 -5.11082e-16 -3.8609e-17)
(1.10862 -5.49648e-16 -1.0856e-16)
(1.10862 -4.79115e-16 -2.08691e-17)
(1.10978 -5.29847e-16 -9.24775e-17)
(1.10978 -4.67453e-16 -1.57035e-20)
(1.11084 -4.9587e-16 -6.03606e-17)
(1.11084 -4.82155e-16 2.12169e-17)
(1.11179 -4.77504e-16 -7.18567e-17)
(1.11179 -4.41456e-16 3.10011e-17)
(1.11264 -4.34349e-16 -3.78378e-17)
(1.11264 -4.41014e-16 7.48287e-19)
(1.11337 -3.97305e-16 -4.10077e-17)
(1.11337 -4.7894e-16 1.42039e-17)
(1.11397 -3.34578e-16 -7.35778e-17)
(1.11397 -4.41095e-16 2.84948e-17)
(1.11443 -4.25136e-16 -2.61374e-17)
(1.11443 -3.86623e-16 2.96016e-17)
(1.11475 -3.901e-16 -4.2155e-17)
(1.11475 -4.07255e-16 -1.85165e-17)
(1.11491 -3.87269e-16 -2.39771e-18)
(1.11491 -4.0946e-16 -5.27159e-17)
(0.00324124 -2.60588e-20 5.49594e-18)
(0.00324124 -1.42298e-20 2.94458e-18)
(0.00978301 -2.89766e-19 1.833e-17)
(0.00978301 -7.46885e-20 -2.44898e-17)
(0.0164456 -6.18328e-19 1.90183e-17)
(0.0164456 -1.88202e-19 -2.54081e-17)
(0.0232313 -9.80341e-19 1.97311e-17)
(0.0232313 -3.04051e-19 -2.63575e-17)
(0.0301422 -1.37022e-18 2.04688e-17)
(0.0301422 -4.18764e-19 -2.7339e-17)
(0.0371808 -1.77542e-18 2.12321e-17)
(0.0371808 -5.47668e-19 -2.83539e-17)
(0.0443493 -2.18277e-18 2.20217e-17)
(0.0443493 -6.89641e-19 -2.94028e-17)
(0.05165 -2.58162e-18 2.28387e-17)
(0.05165 -8.73494e-19 -3.04866e-17)
(0.0590854 -2.98465e-18 2.3684e-17)
(0.0590854 -1.05333e-18 -3.16069e-17)
(0.0666578 -3.39143e-18 2.45593e-17)
(0.0666578 -1.23406e-18 -3.27653e-17)
(0.0743696 -3.81464e-18 2.54645e-17)
(0.0743696 -1.44262e-18 -3.39614e-17)
(0.0822231 -4.31871e-18 2.63999e-17)
(0.0822231 -1.59885e-18 -3.5196e-17)
(0.0902206 -4.87141e-18 2.73655e-17)
(0.0902206 -1.79388e-18 -3.64694e-17)
(0.0983642 -5.41142e-18 2.83637e-17)
(0.0983642 -2.02577e-18 -3.7782e-17)
(0.106656 -5.93968e-18 2.9393e-17)
(0.106656 -2.27403e-18 -3.91343e-17)
(0.115098 -6.42644e-18 3.04551e-17)
(0.115098 -2.55159e-18 -4.05271e-17)
(0.12369 -6.89504e-18 3.15509e-17)
(0.12369 -2.89566e-18 -4.19602e-17)
(0.132435 -7.40429e-18 3.26772e-17)
(0.132435 -3.21486e-18 -4.34295e-17)
(0.141333 -7.98253e-18 3.38338e-17)
(0.141333 -3.52722e-18 -4.4935e-17)
(0.150383 -8.73345e-18 3.50178e-17)
(0.150383 -3.9193e-18 -4.64742e-17)
(0.159585 -9.61965e-18 3.62216e-17)
(0.159585 -4.13205e-18 -4.80409e-17)
(0.168935 -1.04742e-17 3.74397e-17)
(0.168935 -4.21867e-18 -4.96255e-17)
(0.178431 -1.12573e-17 3.86666e-17)
(0.178431 -4.55287e-18 -5.12216e-17)
(0.188067 -1.19743e-17 3.99013e-17)
(0.188067 -5.01815e-18 -5.28238e-17)
(0.197837 -1.26852e-17 4.11307e-17)
(0.197837 -5.43409e-18 -5.4415e-17)
(0.207733 -1.34706e-17 4.23485e-17)
(0.207733 -5.92145e-18 -5.59848e-17)
(0.217745 -1.42617e-17 4.35438e-17)
(0.217745 -6.35261e-18 -5.75204e-17)
(0.227859 -1.50034e-17 4.47057e-17)
(0.227859 -6.8178e-18 -5.90053e-17)
(0.238062 -1.58536e-17 4.5822e-17)
(0.238062 -7.24906e-18 -6.04261e-17)
(0.248338 -1.68218e-17 4.68821e-17)
(0.248338 -7.66276e-18 -6.17694e-17)
(0.258669 -1.77294e-17 4.78691e-17)
(0.258669 -8.24949e-18 -6.30135e-17)
(0.269035 -1.89286e-17 4.87812e-17)
(0.269035 -8.69151e-18 -6.41542e-17)
(0.279415 -2.04102e-17 4.95932e-17)
(0.279415 -9.08355e-18 -6.51647e-17)
(0.28979 -2.17047e-17 5.03048e-17)
(0.28979 -9.93231e-18 -6.60417e-17)
(0.300136 -2.30337e-17 5.09192e-17)
(0.300136 -1.0464e-17 -6.67866e-17)
(0.310435 -2.45081e-17 5.14249e-17)
(0.310435 -1.07531e-17 -6.7387e-17)
(0.320664 -2.56222e-17 5.18137e-17)
(0.320664 -1.12393e-17 -6.78449e-17)
(0.330806 -2.65387e-17 5.21054e-17)
(0.330806 -1.17295e-17 -6.81654e-17)
(0.340842 -2.75361e-17 5.22978e-17)
(0.340842 -1.25497e-17 -6.83513e-17)
(0.350758 -2.8663e-17 5.23953e-17)
(0.350758 -1.30699e-17 -6.84046e-17)
(0.360539 -2.98597e-17 5.24106e-17)
(0.360539 -1.3124e-17 -6.83382e-17)
(0.370173 -3.11172e-17 5.23567e-17)
(0.370173 -1.40152e-17 -6.81646e-17)
(0.379652 -3.24164e-17 5.223e-17)
(0.379652 -1.474e-17 -6.7889e-17)
(0.388968 -3.40553e-17 5.20405e-17)
(0.388968 -1.50643e-17 -6.75243e-17)
(0.398114 -3.59439e-17 5.17673e-17)
(0.398114 -1.5149e-17 -6.70694e-17)
(0.407087 -3.73854e-17 5.14464e-17)
(0.407087 -1.53356e-17 -6.65483e-17)
(0.415886 -3.87341e-17 5.10839e-17)
(0.415886 -1.6766e-17 -6.59712e-17)
(0.424508 -3.98021e-17 5.06969e-17)
(0.424508 -1.7489e-17 -6.53392e-17)
(0.432954 -4.069e-17 5.02965e-17)
(0.432954 -1.77629e-17 -6.46812e-17)
(0.441226 -4.19433e-17 4.98895e-17)
(0.441226 -1.89143e-17 -6.39967e-17)
(0.449325 -4.30964e-17 4.9451e-17)
(0.449325 -2.00516e-17 -6.3289e-17)
(0.457254 -4.41304e-17 4.90124e-17)
(0.457254 -2.02558e-17 -6.25833e-17)
(0.465018 -4.5578e-17 4.85801e-17)
(0.465018 -2.12366e-17 -6.18754e-17)
(0.472619 -4.7052e-17 4.81295e-17)
(0.472619 -2.26875e-17 -6.11531e-17)
(0.480062 -4.80862e-17 4.76869e-17)
(0.480062 -2.30726e-17 -6.04472e-17)
(0.487351 -4.93215e-17 4.72489e-17)
(0.487351 -2.41816e-17 -5.97414e-17)
(0.494492 -5.03249e-17 4.68159e-17)
(0.494492 -2.50891e-17 -5.9046e-17)
(0.501487 -5.13504e-17 4.64149e-17)
(0.501487 -2.48612e-17 -5.83326e-17)
(0.508343 -5.27335e-17 4.59536e-17)
(0.508343 -2.51766e-17 -5.75681e-17)
(0.515064 -5.3904e-17 4.5513e-17)
(0.515064 -2.62477e-17 -5.68027e-17)
(0.521654 -5.48977e-17 4.50792e-17)
(0.521654 -2.6855e-17 -5.60021e-17)
(0.528118 -5.60682e-17 4.46802e-17)
(0.528118 -2.74704e-17 -5.5203e-17)
(0.534461 -5.71651e-17 4.43266e-17)
(0.534461 -2.83423e-17 -5.43942e-17)
(0.540687 -5.85006e-17 4.40169e-17)
(0.540687 -2.79889e-17 -5.36066e-17)
(0.5468 -6.03546e-17 4.36616e-17)
(0.5468 -2.86205e-17 -5.27852e-17)
(0.552804 -6.13792e-17 4.33148e-17)
(0.552804 -3.03509e-17 -5.19411e-17)
(0.558704 -6.24154e-17 4.30171e-17)
(0.558704 -3.0515e-17 -5.11333e-17)
(0.564503 -6.36166e-17 4.26257e-17)
(0.564503 -3.0825e-17 -5.02281e-17)
(0.570204 -6.455e-17 4.21748e-17)
(0.570204 -3.2242e-17 -4.92102e-17)
(0.575812 -6.50537e-17 4.17042e-17)
(0.575812 -3.30587e-17 -4.81164e-17)
(0.58133 -6.55917e-17 4.13614e-17)
(0.58133 -3.42655e-17 -4.70731e-17)
(0.586761 -6.7659e-17 4.10732e-17)
(0.586761 -3.53994e-17 -4.60476e-17)
(0.592109 -6.95831e-17 4.07094e-17)
(0.592109 -3.5526e-17 -4.48734e-17)
(0.597376 -7.1895e-17 4.03622e-17)
(0.597376 -3.69097e-17 -4.37195e-17)
(0.602565 -7.45191e-17 3.99182e-17)
(0.602565 -3.75855e-17 -4.25384e-17)
(0.60768 -7.54901e-17 3.94643e-17)
(0.60768 -3.85643e-17 -4.12514e-17)
(0.612722 -7.65184e-17 3.91092e-17)
(0.612722 -3.81719e-17 -3.99622e-17)
(0.617695 -7.80154e-17 3.88149e-17)
(0.617695 -3.92315e-17 -3.86857e-17)
(0.6226 -7.92636e-17 3.83854e-17)
(0.6226 -4.15179e-17 -3.72563e-17)
(0.627441 -8.0766e-17 3.79301e-17)
(0.627441 -4.02043e-17 -3.58116e-17)
(0.632219 -8.19274e-17 3.75347e-17)
(0.632219 -4.04585e-17 -3.44983e-17)
(0.636937 -8.26397e-17 3.72102e-17)
(0.636937 -4.10503e-17 -3.32267e-17)
(0.641597 -8.41455e-17 3.69456e-17)
(0.641597 -4.0622e-17 -3.19109e-17)
(0.6462 -8.50591e-17 3.66044e-17)
(0.6462 -4.10791e-17 -3.0529e-17)
(0.650749 -8.55626e-17 3.62628e-17)
(0.650749 -4.22155e-17 -2.90906e-17)
(0.655245 -8.65757e-17 3.59781e-17)
(0.655245 -4.29511e-17 -2.77452e-17)
(0.65969 -8.60121e-17 3.57919e-17)
(0.65969 -4.53517e-17 -2.64813e-17)
(0.664086 -8.8262e-17 3.54789e-17)
(0.664086 -4.53767e-17 -2.51562e-17)
(0.668435 -9.24491e-17 3.49365e-17)
(0.668435 -4.38948e-17 -2.37152e-17)
(0.672738 -9.48251e-17 3.42571e-17)
(0.672738 -4.58917e-17 -2.22547e-17)
(0.676996 -9.66325e-17 3.35495e-17)
(0.676996 -4.92785e-17 -2.08354e-17)
(0.681211 -9.75566e-17 3.29941e-17)
(0.681211 -5.07161e-17 -1.95757e-17)
(0.685385 -9.85373e-17 3.2576e-17)
(0.685385 -5.29595e-17 -1.83616e-17)
(0.689518 -1.0029e-16 3.22455e-17)
(0.689518 -5.6196e-17 -1.72719e-17)
(0.693612 -1.02407e-16 3.19727e-17)
(0.693612 -5.61193e-17 -1.61753e-17)
(0.697668 -1.03072e-16 3.18649e-17)
(0.697668 -5.65643e-17 -1.5279e-17)
(0.701687 -1.05876e-16 3.19305e-17)
(0.701687 -5.93449e-17 -1.43208e-17)
(0.705671 -1.07909e-16 3.17822e-17)
(0.705671 -5.95578e-17 -1.32607e-17)
(0.70962 -1.07234e-16 3.18262e-17)
(0.70962 -5.76765e-17 -1.20561e-17)
(0.713535 -1.07788e-16 3.16981e-17)
(0.713535 -5.90827e-17 -1.04482e-17)
(0.717418 -1.09493e-16 3.16688e-17)
(0.717418 -5.87527e-17 -8.85953e-18)
(0.72127 -1.12467e-16 3.17693e-17)
(0.72127 -5.68295e-17 -7.3265e-18)
(0.72509 -1.13364e-16 3.16896e-17)
(0.72509 -5.95384e-17 -5.55881e-18)
(0.728881 -1.11999e-16 3.15682e-17)
(0.728881 -6.138e-17 -3.90324e-18)
(0.732644 -1.13382e-16 3.17174e-17)
(0.732644 -6.05579e-17 -2.29286e-18)
(0.736378 -1.17411e-16 3.16069e-17)
(0.736378 -6.14933e-17 -5.85737e-19)
(0.740085 -1.19071e-16 3.1095e-17)
(0.740085 -6.21136e-17 1.44123e-18)
(0.743765 -1.19898e-16 3.055e-17)
(0.743765 -6.0573e-17 3.57967e-18)
(0.74742 -1.22315e-16 2.97907e-17)
(0.74742 -5.85019e-17 5.76881e-18)
(0.75105 -1.27406e-16 2.90583e-17)
(0.75105 -5.91981e-17 7.65915e-18)
(0.754655 -1.31742e-16 2.79075e-17)
(0.754655 -6.01348e-17 9.67103e-18)
(0.758237 -1.31015e-16 2.7185e-17)
(0.758237 -5.9795e-17 1.1399e-17)
(0.761795 -1.27415e-16 2.67187e-17)
(0.761795 -6.08826e-17 1.29638e-17)
(0.765332 -1.24657e-16 2.6713e-17)
(0.765332 -6.29e-17 1.44791e-17)
(0.768846 -1.23685e-16 2.69266e-17)
(0.768846 -6.54825e-17 1.55711e-17)
(0.77234 -1.19971e-16 2.727e-17)
(0.77234 -6.7355e-17 1.61249e-17)
(0.775812 -1.15885e-16 2.80411e-17)
(0.775812 -6.28661e-17 1.63921e-17)
(0.779265 -1.14661e-16 2.84458e-17)
(0.779265 -6.3223e-17 1.64502e-17)
(0.782698 -1.15122e-16 2.88218e-17)
(0.782698 -6.70728e-17 1.61856e-17)
(0.786112 -1.17219e-16 2.91706e-17)
(0.786112 -6.68783e-17 1.53662e-17)
(0.789507 -1.21602e-16 2.94576e-17)
(0.789507 -6.59488e-17 1.41827e-17)
(0.792885 -1.22965e-16 2.96842e-17)
(0.792885 -6.3173e-17 1.23879e-17)
(0.796245 -1.21044e-16 2.9508e-17)
(0.796245 -5.82348e-17 1.09378e-17)
(0.799587 -1.21816e-16 2.85217e-17)
(0.799587 -5.45403e-17 1.02347e-17)
(0.802913 -1.23298e-16 2.71982e-17)
(0.802913 -5.46576e-17 1.00758e-17)
(0.806222 -1.24926e-16 2.60424e-17)
(0.806222 -5.93141e-17 1.0489e-17)
(0.809516 -1.24979e-16 2.4771e-17)
(0.809516 -6.47203e-17 1.11369e-17)
(0.812794 -1.22185e-16 2.36659e-17)
(0.812794 -6.24535e-17 1.25835e-17)
(0.816056 -1.21677e-16 2.30268e-17)
(0.816056 -6.15497e-17 1.37317e-17)
(0.819304 -1.21052e-16 2.28741e-17)
(0.819304 -6.43458e-17 1.42722e-17)
(0.822538 -1.19338e-16 2.27007e-17)
(0.822538 -6.39912e-17 1.51555e-17)
(0.825757 -1.20649e-16 2.28218e-17)
(0.825757 -5.89937e-17 1.62268e-17)
(0.828963 -1.1972e-16 2.28403e-17)
(0.828963 -5.65844e-17 1.69062e-17)
(0.832155 -1.2299e-16 2.32676e-17)
(0.832155 -5.92085e-17 1.80714e-17)
(0.835334 -1.30542e-16 2.31736e-17)
(0.835334 -6.0033e-17 2.01411e-17)
(0.8385 -1.38046e-16 2.3208e-17)
(0.8385 -5.72132e-17 2.17735e-17)
(0.841653 -1.44252e-16 2.29791e-17)
(0.841653 -5.59292e-17 2.25662e-17)
(0.844794 -1.44118e-16 2.34805e-17)
(0.844794 -5.74168e-17 2.30927e-17)
(0.847923 -1.44648e-16 2.46018e-17)
(0.847923 -5.75954e-17 2.38127e-17)
(0.851041 -1.47844e-16 2.50247e-17)
(0.851041 -6.10934e-17 2.43279e-17)
(0.854146 -1.49953e-16 2.55691e-17)
(0.854146 -6.06463e-17 2.37846e-17)
(0.857241 -1.48246e-16 2.67382e-17)
(0.857241 -6.10046e-17 2.31094e-17)
(0.860324 -1.43315e-16 2.79139e-17)
(0.860324 -6.68064e-17 2.26337e-17)
(0.863397 -1.40992e-16 2.95592e-17)
(0.863397 -6.65549e-17 2.20984e-17)
(0.866459 -1.42091e-16 3.06845e-17)
(0.866459 -6.9243e-17 2.18506e-17)
(0.86951 -1.44339e-16 3.19783e-17)
(0.86951 -7.52358e-17 2.11539e-17)
(0.872552 -1.52476e-16 3.35266e-17)
(0.872552 -7.70806e-17 2.01097e-17)
(0.875583 -1.55827e-16 3.39668e-17)
(0.875583 -7.79537e-17 1.83979e-17)
(0.878604 -1.54239e-16 3.52281e-17)
(0.878604 -7.57725e-17 1.59829e-17)
(0.881616 -1.65068e-16 3.57416e-17)
(0.881616 -8.18654e-17 1.35671e-17)
(0.884618 -1.76341e-16 3.35486e-17)
(0.884618 -8.3686e-17 1.19162e-17)