/*--------------------------------*- C++ -*----------------------------------*\
| =========                 |                                                 |
| \\      /  F ield         | OpenFOAM: The Open Source CFD Toolbox           |
|  \\    /   O peration     | Version:  2106                                  |
|   \\  /    A nd           | Website:  www.openfoam.com                      |
|    \\/     M anipulation  |                                                 |
\*---------------------------------------------------------------------------*/
FoamFile
{
    version     2.0;
    format      ascii;
    arch        "LSB;label=32;scalar=64";
    class       volTensorField;
    location    "10000";
    object      grad(U);
}
// * * * * * * * * * * * * * * * * * * * * * * * * * * * * * * * * * * * * * //

dimensions      [0 0 -1 0 0 0 0];

internalField   nonuniform List<tensor> 
2000
(
(0 -7.41019e-26 3.55703e-31 61.4743 -7.09915e-12 -4.02456e-13 0.113777 -6.57274e-15 -2.39338e-16)
(0 -4.87821e-30 -3.55703e-31 61.4743 -4.56532e-15 -1.51239e-17 0.113777 -1.18618e-17 4.97916e-17)
(-5.61639e-17 0 1.55523e-30 61.4627 -8.07794e-28 -5.32351e-14 0.343412 -3.15544e-30 -2.00716e-16)
(0 -2.55404e-29 -1.39674e-30 61.4627 -4.36936e-15 9.56287e-18 0.343412 -6.47222e-18 -4.37267e-16)
(-1.40022e-17 -5.09477e-31 -3.05108e-31 61.4508 8.07448e-13 -2.50619e-14 0.476393 -6.64996e-15 -1.84156e-16)
(0 6.26809e-30 5.87634e-31 61.4508 -8.99668e-15 4.75534e-17 0.476393 -2.99482e-17 -4.53757e-16)
(-4.58382e-17 -5.25113e-31 -4.86627e-31 61.4386 4.14344e-13 -2.39295e-14 0.485187 -5.74648e-15 -1.90393e-16)
(1.83353e-16 6.15323e-30 7.69154e-31 61.4386 -7.91723e-15 3.61065e-17 0.485187 -4.75193e-17 -4.70977e-16)
(0 9.06071e-30 1.88765e-31 61.4254 2.72822e-14 -2.42651e-14 0.494131 -6.91143e-16 -1.96494e-16)
(0 -6.04048e-30 0 61.4254 -8.38035e-15 2.66605e-17 0.494131 -6.58837e-17 -4.88945e-16)
(0 -4.09776e-28 7.41223e-31 61.4097 8.21993e-28 -2.45065e-14 0.503212 0 -2.01525e-16)
(-4.45162e-16 -2.96489e-29 -7.41223e-31 61.4097 -8.95436e-15 2.60559e-17 0.503212 -8.62599e-17 -5.07705e-16)
(2.04813e-16 -6.39337e-29 -5.4573e-31 61.3889 1.43373e-14 -2.46959e-14 0.512404 -5.92941e-17 -2.0706e-16)
(5.79729e-16 5.82112e-30 5.4573e-31 61.3889 -9.16001e-15 3.11568e-17 0.512404 -1.08011e-16 -5.27219e-16)
(0 2.85723e-30 -3.57153e-31 61.3586 2.16167e-14 -2.49156e-14 0.521659 -1.93447e-16 -2.12856e-16)
(1.43362e-15 0 5.3573e-31 61.3586 -9.34914e-15 3.24686e-17 0.521659 -1.29413e-16 -5.47501e-16)
(-2.14118e-16 3.30147e-30 1.10605e-31 61.3117 1.86006e-14 -2.51014e-14 0.530901 -1.70613e-16 -2.18081e-16)
(0 2.80487e-30 1.75304e-31 61.3117 -9.68182e-15 3.00212e-17 0.530901 -1.51894e-16 -5.6849e-16)
(0 -1.10139e-29 -5.16276e-31 61.2381 1.67242e-14 -2.51629e-14 0.540017 -1.4848e-16 -2.21963e-16)
(0 1.10139e-29 5.16276e-31 61.2381 -9.92131e-15 2.57956e-17 0.540017 -1.76032e-16 -5.90156e-16)
(1.14125e-15 -3.24362e-29 -2.36514e-30 61.1236 1.62482e-14 -2.50202e-14 0.548848 -1.43923e-16 -2.23733e-16)
(0 3.24362e-29 2.02726e-30 61.1236 -1.01437e-14 2.6085e-17 0.548848 -2.01711e-16 -6.12338e-16)
(3.22865e-16 2.01299e-30 2.05834e-31 60.9497 1.65595e-14 -2.45943e-14 0.557181 -1.45518e-16 -2.22527e-16)
(5.4457e-16 0 0 60.9497 -1.0355e-14 3.31932e-17 0.557181 -2.278e-16 -6.34841e-16)
(0 0 0 60.6934 1.73717e-14 -2.38062e-14 0.564748 -1.55048e-16 -2.1746e-16)
(0 0 0 60.6934 -1.07872e-14 4.25099e-17 0.564748 -2.55548e-16 -6.57354e-16)
(-1.8383e-15 2.88545e-29 2.05627e-30 60.3281 1.82343e-14 -2.25864e-14 0.571234 -1.66153e-16 -2.07732e-16)
(7.19767e-16 -2.55712e-29 -1.91784e-30 60.3281 -1.10676e-14 4.20061e-17 0.571234 -2.84059e-16 -6.79535e-16)
(-1.14428e-15 1.33186e-29 1.08684e-30 59.8249 1.88954e-14 -2.08856e-14 0.576287 -1.77284e-16 -1.92726e-16)
(0 0 -3.13783e-31 59.8249 -1.13066e-14 2.82533e-17 0.576287 -3.11905e-16 -7.00902e-16)
(1.86449e-15 -1.3129e-29 -1.07705e-30 59.1553 1.87822e-14 -1.869e-14 0.579552 -1.85212e-16 -1.72261e-16)
(-1.90894e-15 4.92853e-30 9.241e-31 59.1553 -1.20095e-14 2.89869e-17 0.579552 -3.41492e-16 -7.21022e-16)
(6.80919e-16 -9.67644e-30 -1.20955e-30 58.2941 1.89218e-14 -1.60351e-14 0.580703 -1.81733e-16 -1.46653e-16)
(-6.80919e-16 4.83822e-30 1.20955e-30 58.2941 -1.24207e-14 5.70156e-17 0.580703 -3.74912e-16 -7.3924e-16)
(1.78395e-15 -3.02706e-29 -2.11774e-30 57.2236 1.96945e-14 -1.30035e-14 0.579485 -1.94996e-16 -1.16713e-16)
(1.56257e-15 2.37478e-29 1.48424e-30 57.2236 -1.22551e-14 7.47573e-17 0.579485 -4.09518e-16 -7.55003e-16)
(-5.98481e-16 3.25517e-30 4.67107e-31 55.9364 1.99519e-14 -9.72692e-15 0.575752 -2.04394e-16 -8.38765e-17)
(0 0 0 55.9364 -1.20784e-14 6.09618e-17 0.575752 -4.44099e-16 -7.6798e-16)
(6.39301e-16 -7.82667e-30 -4.6852e-31 54.4373 1.99081e-14 -6.37107e-15 0.569488 -2.07708e-16 -4.98486e-17)
(2.5572e-15 9.15417e-30 8.58204e-31 54.4373 -1.17928e-14 6.91951e-17 0.569488 -4.79299e-16 -7.78024e-16)
(-6.80021e-16 7.7371e-30 -9.25167e-32 52.7438 1.98123e-14 -3.07494e-15 0.560813 -2.11167e-16 -1.64752e-17)
(5.44017e-15 -4.49321e-30 2.80826e-31 52.7438 -1.1806e-14 9.42066e-17 0.560813 -5.11615e-16 -7.84711e-16)
(0 8.82175e-30 -3.97023e-30 50.8842 2.00773e-14 0 0.549969 -2.13462e-16 0)
(2.88176e-15 -4.41088e-30 -2.7568e-31 50.8842 -1.28302e-14 1.0098e-16 0.549969 -5.49392e-16 -7.88213e-16)
(1.2188e-15 -4.33005e-30 -8.11884e-31 48.8947 2.04814e-14 2.55136e-15 0.537288 -2.24964e-16 -1.4704e-17)
(3.04145e-15 4.33005e-30 1.08251e-30 48.8947 -1.33299e-14 1.21665e-16 0.537288 -5.96244e-16 -7.8874e-16)
(0 4.2507e-30 1.06268e-30 46.8156 2.05915e-14 4.74717e-15 0.523153 -2.30576e-16 -4.22912e-17)
(3.19842e-15 0 -5.31338e-31 46.8156 -1.31185e-14 1.33055e-16 0.523153 -6.39842e-16 -7.86481e-16)
(-8.38014e-16 -9.56096e-31 -6.03322e-31 44.6873 2.01948e-14 6.46865e-15 0.507962 -2.35959e-16 -6.54668e-17)
(0 8.34562e-30 1.304e-30 44.6873 -1.3357e-14 1.3658e-16 0.507962 -6.83517e-16 -7.81922e-16)
(0 -2.04817e-29 -2.30419e-30 42.5475 1.91636e-14 7.72533e-15 0.492094 -2.30025e-16 -8.39824e-17)
(3.50185e-15 2.04817e-29 2.30419e-30 42.5475 -1.31172e-14 1.59318e-16 0.492094 -7.31086e-16 -7.75483e-16)
(1.35192e-15 -8.14355e-31 -5.83703e-31 40.4286 1.83914e-14 8.55033e-15 0.475889 -2.20382e-16 -9.77512e-17)
(-1.13189e-15 8.04256e-30 1.00532e-30 40.4286 -1.25537e-14 1.6628e-16 0.475889 -7.75584e-16 -7.67493e-16)
(-9.47135e-16 -7.46326e-31 1.66458e-31 38.3571 1.88406e-14 9.00518e-15 0.459634 -2.20029e-16 -1.07087e-16)
(0 7.89518e-30 4.93449e-31 38.3571 -1.23429e-14 1.58103e-16 0.459634 -8.2082e-16 -7.58532e-16)
(0 7.75051e-30 7.2661e-31 36.3532 1.9501e-14 9.15916e-15 0.443561 -2.39746e-16 -1.12634e-16)
(-1.09079e-15 -3.87525e-30 -2.42203e-31 36.3532 -1.24086e-14 1.59085e-16 0.443561 -8.66096e-16 -7.48944e-16)
(-3.15582e-15 3.36188e-29 2.29986e-30 34.4311 1.92737e-14 9.07487e-15 0.427847 -2.44883e-16 -1.14985e-16)
(-4.05687e-15 -2.28254e-29 -1.66435e-30 34.4311 -1.19746e-14 1.69529e-16 0.427847 -9.13693e-16 -7.39063e-16)
(1.04602e-15 -6.91312e-30 -3.90705e-31 32.6001 1.86825e-14 8.81004e-15 0.412622 -2.42974e-16 -1.14725e-16)
(4.18408e-15 3.73453e-30 2.33408e-31 32.6001 -1.10907e-14 1.78824e-16 0.412622 -9.59501e-16 -7.29084e-16)
(0 3.66609e-30 6.87393e-31 30.8653 1.76579e-14 8.41302e-15 0.397974 -2.38724e-16 -1.12425e-16)
(-2.06383e-15 0 -2.29131e-31 30.8653 -1.13318e-14 1.79669e-16 0.397974 -1.00156e-15 -7.1924e-16)
(-1.10624e-15 1.03668e-29 1.05266e-30 29.2282 1.68562e-14 7.92714e-15 0.383959 -2.24965e-16 -1.08522e-16)
(0 -7.19783e-30 -8.99729e-31 29.2282 -1.18273e-14 1.87267e-16 0.383959 -1.04795e-15 -7.09708e-16)
(-1.13474e-15 -3.70105e-31 -5.11261e-31 27.6883 1.65053e-14 7.38842e-15 0.370606 -2.26067e-16 -1.03539e-16)
(0 7.06593e-30 1.10405e-30 27.6883 -1.10021e-14 1.67633e-16 0.370606 -1.09622e-15 -7.00502e-16)
(0 -1.73411e-29 -1.30058e-30 26.2431 1.52239e-14 6.82046e-15 0.357925 -2.2379e-16 -9.77906e-17)
(4.64886e-15 1.73411e-29 1.30058e-30 26.2431 -1.00375e-14 1.1457e-16 0.357925 -1.13798e-15 -6.91958e-16)
(0 1.0214e-29 6.38376e-31 24.8888 1.4387e-14 6.23211e-15 0.34591 -1.98675e-16 -9.15239e-17)
(0 -6.80934e-30 -2.12792e-31 24.8888 -9.13062e-15 8.4731e-17 0.34591 -1.17783e-15 -6.84211e-16)
(1.2143e-15 -3.1496e-30 6.16005e-32 23.621 1.47574e-14 5.6467e-15 0.334545 -2.0833e-16 -8.46797e-17)
(4.85719e-15 0 -2.08893e-31 23.621 -7.1976e-15 8.58032e-17 0.334545 -1.21153e-15 -6.77093e-16)
(-3.08606e-15 -1.32628e-29 -8.78937e-31 22.435 1.39558e-14 5.08193e-15 0.323809 -2.16932e-16 -7.79486e-17)
(4.95601e-15 1.96862e-29 1.23039e-30 22.435 -6.24629e-15 9.51827e-17 0.323809 -1.23593e-15 -6.70667e-16)
(-1.26288e-15 -1.2964e-29 -1.0622e-30 21.3256 1.31241e-14 4.53239e-15 0.313674 -1.92437e-16 -7.11403e-17)
(0 1.93255e-29 1.40915e-30 21.3256 -6.78121e-15 6.85674e-17 0.313674 -1.26805e-15 -6.6494e-16)
(0 1.89713e-29 1.58094e-30 20.2878 1.29421e-14 4.00148e-15 0.30411 -2.00009e-16 -6.43026e-17)
(5.14388e-15 -1.89713e-29 -1.58094e-30 20.2878 -6.87716e-15 3.72573e-17 0.30411 -1.30069e-15 -6.60095e-16)
(-2.61665e-15 1.24697e-29 6.77335e-31 19.3167 1.16472e-14 3.49621e-15 0.295087 -1.94092e-16 -5.75012e-17)
(5.23329e-15 -3.10395e-30 -1.93997e-31 19.3167 -7.0081e-15 3.72793e-17 0.295087 -1.32641e-15 -6.55809e-16)
(1.71535e-15 -1.21883e-29 -5.71326e-31 18.4077 1.07004e-14 3.01547e-15 0.286572 -1.66999e-16 -5.09039e-17)
(-1.71535e-15 6.09414e-30 5.71326e-31 18.4077 -6.57791e-15 5.94432e-17 0.286572 -1.36507e-15 -6.52029e-16)
(1.68391e-15 -5.98247e-30 -1.86952e-31 17.5561 1.09483e-14 2.56228e-15 0.278535 -1.71204e-16 -4.43333e-17)
(-1.68391e-15 5.98247e-30 1.86952e-31 17.5561 -6.24036e-15 5.83895e-17 0.278535 -1.39565e-15 -6.48505e-16)
(-1.37136e-15 8.99338e-30 8.78378e-31 16.7578 1.0886e-14 2.13691e-15 0.270947 -1.81347e-16 -3.80962e-17)
(-8.79156e-15 -2.93642e-30 -5.50579e-31 16.7578 -6.04715e-15 4.06223e-17 0.270947 -1.42685e-15 -6.45853e-16)
(1.39116e-15 2.64707e-30 3.96074e-31 16.0089 1.09918e-14 1.73856e-15 0.263779 -1.75593e-16 -3.19242e-17)
(2.3191e-15 0 -3.60326e-31 16.0089 -5.448e-15 4.46805e-17 0.263779 -1.44965e-15 -6.43569e-16)
(1.4104e-15 8.20689e-30 1.44713e-30 15.3057 1.09896e-14 1.36811e-15 0.257003 -1.91749e-16 -2.61002e-17)
(-5.6416e-15 -1.13192e-29 -1.46231e-30 15.3057 -6.83914e-15 0 0.257003 -1.46897e-15 -6.41883e-16)
(1.34714e-16 3.11022e-30 1.45e-31 14.6448 1.02661e-14 1.02459e-15 0.250595 -1.82132e-16 -2.04033e-17)
(5.71649e-15 0 4.14227e-31 14.6448 -7.19751e-15 -2.07036e-18 0.250595 -1.51413e-15 -6.40723e-16)
(0 -1.90892e-29 -1.02264e-30 14.023 9.84861e-15 7.09018e-16 0.244529 -1.7366e-16 -1.50646e-17)
(1.15788e-14 1.90892e-29 1.19307e-30 14.023 -4.77349e-15 2.77309e-17 0.244529 -1.5496e-15 -6.39792e-16)
(2.97217e-15 -2.18415e-29 -1.81909e-30 13.4376 9.43574e-15 4.01016e-16 0.238784 -1.74117e-16 -9.92459e-18)
(4.35343e-15 1.60623e-29 1.67316e-30 13.4376 -3.6992e-15 7.84659e-17 0.238784 -1.56953e-15 -6.38833e-16)
(-1.48244e-15 1.09839e-29 4.7513e-31 12.8859 9.33171e-15 1.09399e-16 0.233338 -1.65214e-16 -4.44974e-18)
(-5.92977e-15 -5.256e-30 -5.13292e-31 12.8859 -4.83395e-15 4.5526e-17 0.233338 -1.59459e-15 -6.3838e-16)
(1.45232e-15 -7.73953e-30 -3.2248e-31 12.3654 9.8174e-15 -1.60775e-16 0.228173 -1.76831e-16 -5.56134e-18)
(0 7.73953e-30 3.2248e-31 12.3654 -5.44606e-15 1.5241e-17 0.228173 -1.62763e-15 -6.38384e-16)
(-2.94157e-15 1.8282e-29 1.41251e-30 11.874 1.04054e-14 -4.13875e-16 0.223269 -1.89738e-16 -1.02186e-17)
(-2.85142e-15 -1.01303e-29 -6.33142e-31 11.874 -5.22872e-15 6.19291e-18 0.223269 -1.65139e-15 -6.3863e-16)
(2.79917e-15 -1.4917e-29 -6.2154e-31 11.4095 1.0691e-14 -6.48105e-16 0.218611 -2.0606e-16 -1.4928e-17)
(0 1.4917e-29 6.2154e-31 11.4095 -5.90365e-15 3.88247e-18 0.218611 -1.68722e-15 -6.39121e-16)
(0 1.46436e-29 3.05075e-31 10.97 1.06946e-14 -8.72429e-16 0.214181 -2.08052e-16 -1.95372e-17)
(-6.19115e-15 -1.46436e-29 -9.15225e-31 10.97 -6.39061e-15 1.53297e-17 0.214181 -1.7331e-15 -6.39668e-16)
(2.14474e-16 6.51619e-30 7.52367e-31 10.5539 1.06903e-14 -1.06965e-15 0.209967 -2.1397e-16 -2.34913e-17)
(0 0 -8.88511e-32 10.5539 -6.32097e-15 -8.84233e-30 0.209967 -1.77023e-15 -6.4024e-16)
(-2.54316e-16 3.0606e-30 1.46248e-31 10.1595 1.01278e-14 -1.24755e-15 0.205955 -2.15717e-16 -2.76252e-17)
(-1.32404e-15 4.70395e-30 2.93997e-31 10.1595 -6.43951e-15 -3.33922e-17 0.205955 -1.82044e-15 -6.4167e-16)
(-1.88658e-15 -7.73832e-30 -2.84081e-31 9.78541 9.89516e-15 -1.4135e-15 0.202131 -1.98789e-16 -3.13622e-17)
(6.37273e-15 4.61775e-30 2.88609e-31 9.78541 -5.25643e-15 -1.84837e-17 0.202131 -1.85943e-15 -6.43127e-16)
(-1.60771e-15 7.58191e-30 1.46952e-31 9.43025 1.05952e-14 -1.56154e-15 0.198485 -2.1405e-16 -3.50146e-17)
(0 -4.53313e-30 -1.78805e-31 9.43025 -4.75068e-15 -8.41719e-30 0.198485 -1.88479e-15 -6.44212e-16)
(-3.24394e-15 1.94274e-29 1.68563e-30 9.09278 1.1113e-14 -1.69108e-15 0.195006 -2.36299e-16 -3.82028e-17)
(-6.48788e-15 -1.33502e-29 -1.39064e-30 9.09278 -5.50384e-15 2.29141e-18 0.195006 -1.92514e-15 -6.45589e-16)
(1.63596e-15 5.70702e-30 3.98035e-31 8.77186 1.20692e-14 -1.8157e-15 0.191684 -2.44734e-16 -4.18793e-17)
(-6.54384e-15 -1.31056e-29 -1.45764e-30 8.77186 -5.23145e-15 7.90438e-18 0.191684 -1.96784e-15 -6.46325e-16)
(0 8.57693e-30 5.36058e-31 8.46643 1.21547e-14 -1.9279e-15 0.18851 -2.87752e-16 -4.47282e-17)
(0 0 -8.98239e-32 8.46643 -4.57512e-15 -2.47309e-47 0.18851 -2.00935e-15 -6.47249e-16)
(-3.32641e-15 -6.60692e-30 -7.53423e-31 8.17553 1.07598e-14 -2.02825e-15 0.185475 -2.57834e-16 -4.80912e-17)
(1.33056e-14 8.41976e-30 7.89353e-31 8.17553 -4.1017e-15 -3.1407e-17 0.185475 -2.05103e-15 -6.48758e-16)
(-4.003e-15 1.54077e-29 6.66858e-31 7.89824 9.9908e-15 -2.13627e-15 0.182571 -2.34185e-16 -5.14945e-17)
(9.03243e-15 -1.23982e-29 -5.16592e-31 7.89824 -5.20049e-15 1.10728e-17 0.182571 -2.09046e-15 -6.49626e-16)
(0 -8.11401e-30 -5.07126e-31 7.63375 1.03114e-14 -2.25251e-15 0.179791 -2.31379e-16 -5.5473e-17)
(0 8.11401e-30 5.07126e-31 7.63375 -5.59199e-15 2.67632e-17 0.179791 -2.12971e-15 -6.50638e-16)
(-1.70238e-15 6.98014e-30 4.01086e-31 7.38127 1.16229e-14 -2.34967e-15 0.177127 -2.5837e-16 -5.81772e-17)
(6.80951e-15 0 -1.05097e-45 7.38127 -4.55295e-15 -7.47569e-30 0.177127 -2.15554e-15 -6.51359e-16)
(0 1.1729e-29 4.8871e-31 7.1401 1.13771e-14 -2.42202e-15 0.174575 -3.04109e-16 -6.11603e-17)
(0 -7.81936e-30 -2.44355e-31 7.1401 -5.18203e-15 -2.20855e-18 0.174575 -2.17908e-15 -6.5213e-16)
(-1.72747e-15 1.06587e-29 1.11413e-30 6.90958 1.03578e-14 -2.50178e-15 0.172126 -2.55886e-16 -6.44091e-17)
(-2.16062e-15 -3.83804e-30 -4.79755e-31 6.90958 -5.1939e-15 4.90547e-17 0.172126 -2.21398e-15 -6.52598e-16)
(2.12103e-15 3.76771e-30 7.06445e-31 6.68909 1.02369e-14 -2.57782e-15 0.169777 -2.63942e-16 -6.73882e-17)
(-2.12103e-15 0 -2.35482e-31 6.68909 -3.62155e-15 4.98608e-18 0.169777 -2.25398e-15 -6.52282e-16)
(0 -1.47947e-29 -1.61817e-30 6.47805 1.00672e-14 -2.64708e-15 0.167521 -2.59293e-16 -7.04763e-17)
(7.00735e-15 1.47947e-29 1.61817e-30 6.47805 -4.13437e-15 1.57411e-17 0.167521 -2.29376e-15 -6.52719e-16)
(0 2.17853e-29 1.81544e-30 6.27594 1.06414e-14 -2.71256e-15 0.165354 -2.64966e-16 -7.34335e-17)
(0 -2.17853e-29 -1.81544e-30 6.27594 -6.05761e-15 2.33644e-17 0.165354 -2.33468e-15 -6.53213e-16)
(-1.77553e-15 6.50941e-30 1.60472e-31 6.08227 1.08237e-14 -2.77117e-15 0.163271 -2.99809e-16 -7.63281e-17)
(7.1021e-15 0 -8.75812e-47 6.08227 -5.33662e-15 -6.18317e-47 0.163271 -2.39846e-15 -6.54266e-16)
(0 -1.39961e-29 -1.53083e-30 5.89657 1.04707e-14 -2.83331e-15 0.161268 -2.84891e-16 -7.96528e-17)
(7.14853e-15 1.39961e-29 1.53083e-30 5.89657 -4.95106e-15 3.03679e-17 0.161268 -2.46073e-15 -6.56267e-16)
(-1.79859e-15 1.66698e-29 1.88094e-30 5.71842 1.05032e-14 -2.89178e-15 0.159341 -2.91498e-16 -8.25136e-17)
(-7.19436e-15 -1.37397e-29 -1.71746e-30 5.71842 -6.50031e-15 7.96692e-17 0.159341 -2.51111e-15 -6.57051e-16)
(1.89825e-15 -6.74395e-30 -6.32245e-31 5.5474 1.03336e-14 -2.96724e-15 0.157486 -2.97464e-16 -8.70041e-17)
(-7.23962e-15 6.74395e-30 -9.12546e-32 5.5474 -5.67844e-15 -6.39101e-30 0.157486 -2.57438e-15 -6.57559e-16)
(-3.64216e-15 5.84173e-30 1.27483e-31 5.38316 1.01751e-14 -3.03557e-15 0.1557 -2.92706e-16 -8.96357e-17)
(7.28432e-15 0 2.06886e-31 5.38316 -5.20676e-15 -8.79915e-18 0.1557 -2.61153e-15 -6.58719e-16)
(-3.66425e-15 2.57241e-30 -6.70265e-32 5.22534 1.06448e-14 -3.06636e-15 0.153979 -2.99362e-16 -9.21244e-17)
(0 3.24953e-30 4.06191e-31 5.22534 -6.05711e-15 -6.9563e-17 0.153979 -2.66025e-15 -6.59205e-16)
(0 -9.56994e-30 -1.19624e-30 5.07361 1.07364e-14 -3.09011e-15 0.152321 -3.31833e-16 -9.44608e-17)
(7.37215e-15 9.56994e-30 1.19624e-30 5.07361 -5.21799e-15 -3.30289e-17 0.152321 -2.69598e-15 -6.5898e-16)
(-5.37961e-15 1.85469e-29 2.13156e-30 4.92766 1.02249e-14 -3.11373e-15 0.150722 -3.16227e-16 -9.70618e-17)
(-7.41531e-15 -1.25261e-29 -1.56576e-30 4.92766 -4.81702e-15 -7.35791e-18 0.150722 -2.7524e-15 -6.58128e-16)
(1.8645e-15 -1.2104e-29 -9.45482e-31 4.7872 9.48497e-15 -3.14008e-15 0.149179 -3.12586e-16 -9.96868e-17)
(0 9.22242e-30 7.68535e-31 4.7872 -4.77664e-15 -9.94721e-17 0.149179 -2.8313e-15 -6.57005e-16)
(1.76185e-16 -8.91363e-30 -1.31136e-30 4.65198 7.82599e-15 -3.1673e-15 0.147691 -2.81353e-16 -1.02472e-16)
(-5.80136e-15 6.03561e-30 1.13168e-30 4.65198 -4.25641e-15 -9.38061e-17 0.147691 -2.86565e-15 -6.54002e-16)
(-3.77101e-15 8.7226e-30 1.10574e-30 4.52173 6.29872e-15 -3.17645e-15 0.146254 -2.17502e-16 -1.04044e-16)
(-3.33549e-15 0 -3.70313e-31 4.52173 -2.50894e-15 -1.15544e-16 0.146254 -2.91633e-15 -6.51133e-16)
(0 5.81644e-30 1.09058e-30 4.39621 5.4213e-15 -3.17836e-15 0.144866 -1.91741e-16 -1.06462e-16)
(0 -8.72466e-30 -1.45411e-30 4.39621 -2.24425e-15 -8.82971e-17 0.144866 -2.93785e-15 -6.47065e-16)
(1.90609e-15 -2.32574e-32 1.68729e-31 4.2752 5.3728e-15 -3.1928e-15 0.143526 -1.67049e-16 -1.08947e-16)
(-1.68559e-14 -2.85493e-30 -3.56866e-31 4.2752 -3.98848e-15 -4.6873e-17 0.143526 -2.97909e-15 -6.40687e-16)
(1.91622e-15 -1.12764e-29 -1.59244e-30 4.15849 5.95883e-15 -3.21318e-15 0.14223 -1.95664e-16 -1.11887e-16)
(0 8.40784e-30 1.40131e-30 4.15849 -2.62027e-15 -6.51824e-17 0.14223 -3.03592e-15 -6.31979e-16)
(3.09764e-15 -1.65075e-29 -1.71953e-30 4.04588 6.57422e-15 -3.24376e-15 0.140978 -2.13991e-16 -1.15214e-16)
(4.60743e-15 1.65075e-29 1.71953e-30 4.04588 -1.48879e-15 -1.03109e-16 0.140978 -3.0482e-15 -6.2239e-16)
(4.97709e-15 -1.09478e-29 -5.35382e-31 3.93719 5.92062e-15 -3.26979e-15 0.139767 -2.46517e-16 -1.17976e-16)
(7.74487e-15 5.40168e-30 3.37605e-31 3.93719 -2.72868e-15 -2.36943e-17 0.139767 -3.07239e-15 -6.11442e-16)
(-9.07006e-16 -1.81649e-29 -1.91819e-30 3.83224 3.78926e-15 -3.32535e-15 0.138595 -1.75013e-16 -1.23629e-16)
(0 1.59081e-29 1.98851e-30 3.83224 -2.28687e-15 6.81951e-17 0.138595 -3.13067e-15 -5.97879e-16)
(-9.81257e-16 -1.25034e-29 -1.5427e-30 3.73085 4.65436e-15 -3.40681e-15 0.137461 -9.954e-17 -1.28505e-16)
(7.82341e-15 1.56166e-29 -1.61695e-31 3.73085 -5.83818e-16 -4.37038e-30 0.137461 -3.14993e-15 -5.82566e-16)
(1.96554e-15 -1.81617e-29 -2.44454e-30 3.63288 7.75719e-15 -3.46967e-15 0.136364 -2.46219e-16 -1.3307e-16)
(1.57243e-14 1.53304e-29 2.23568e-30 3.63288 -1.44688e-15 -4.29253e-17 0.136364 -3.13438e-15 -5.69298e-16)
(-1.97515e-15 -2.20626e-30 -1.04067e-30 3.53818 8.47698e-15 -3.53022e-15 0.135301 -3.39355e-16 -1.3804e-16)
(0 7.52474e-30 -7.65103e-32 3.53818 -3.75384e-15 -3.98574e-30 0.135301 -3.16559e-15 -5.51315e-16)
(-3.96937e-15 8.07916e-30 4.37254e-31 3.44659 7.65974e-15 -3.58176e-15 0.134272 -3.11281e-16 -1.42153e-16)
(7.93874e-15 -2.46228e-30 0 3.44659 -3.29166e-15 -4.07195e-17 0.134272 -3.21168e-15 -5.34835e-16)
(-1.99414e-15 2.80394e-30 8.28689e-31 3.35801 7.59511e-15 -3.61068e-15 0.133275 -2.87624e-16 -1.45568e-16)
(7.97656e-15 4.83433e-30 0 3.35801 -2.41417e-15 6.18124e-17 0.133275 -3.23085e-15 -5.1389e-16)
(0 9.49148e-30 5.93217e-31 3.27228 7.62115e-15 -3.62771e-15 0.132309 -3.17813e-16 -1.48905e-16)
(-2.67161e-15 -4.74574e-30 0 3.27228 -2.4828e-15 9.49328e-17 0.132309 -3.28184e-15 -4.93619e-16)
(2.01283e-15 -1.21043e-29 -1.10945e-30 3.1893 6.34267e-15 -3.65598e-15 0.131373 -3.00595e-16 -1.53412e-16)
(8.05133e-15 9.31755e-30 8.7352e-31 3.1893 -1.05889e-15 1.01331e-16 0.131373 -3.34898e-15 -4.73265e-16)
(2.02207e-15 -1.19382e-29 -1.67105e-30 3.10896 6.14069e-15 -3.693e-15 0.130465 -2.23098e-16 -1.57662e-16)
(8.0883e-15 9.14681e-30 -1.8928e-31 3.10896 -1.07061e-15 -5.99041e-30 0.130465 -3.35446e-15 -4.54636e-16)
(-2.03125e-15 2.77182e-30 5.28788e-31 3.03114 7.81469e-15 -3.69805e-15 0.129584 -2.94752e-16 -1.59631e-16)
(8.125e-15 4.4896e-30 0 3.03114 -3.57277e-15 -1.27926e-17 0.129584 -3.34741e-15 -4.38399e-16)
(2.04036e-15 -7.1561e-30 -8.05508e-31 2.95574 8.04629e-15 -3.68037e-15 0.12873 -3.76467e-16 -1.62044e-16)
(0 4.40733e-30 5.50916e-31 2.95574 -4.8443e-15 -6.83327e-17 0.12873 -3.41236e-15 -4.2161e-16)
(-2.04941e-15 1.14002e-29 2.4245e-30 2.88267 7.06894e-15 -3.67381e-15 0.127901 -3.26289e-16 -1.65057e-16)
(8.19763e-15 -4.32656e-30 -1.62246e-30 2.88267 -4.49668e-15 -1.3089e-16 0.127901 -3.45854e-15 -4.03398e-16)
(2.05839e-15 -1.12358e-29 -7.99393e-31 2.81184 5.73666e-15 -3.65128e-15 0.127097 -3.0283e-16 -1.66087e-16)
(0 8.49456e-30 5.3091e-31 2.81184 -4.14469e-15 -1.89496e-16 0.127097 -3.48302e-15 -3.83939e-16)
(2.79871e-16 1.10837e-29 1.83943e-30 2.74315 4.28036e-15 -3.61394e-15 0.126316 -2.16631e-16 -1.67795e-16)
(5.92209e-15 -4.16945e-30 -1.04236e-30 2.74315 -3.49031e-15 -2.66105e-16 0.126316 -3.56219e-15 -3.61416e-16)
(4.38037e-15 1.35031e-30 7.39857e-31 2.67653 3.85608e-15 -3.56974e-15 0.125558 -1.78448e-16 -1.68147e-16)
(6.00058e-15 0 -5.11631e-31 2.67653 -1.31832e-15 -1.80045e-16 0.125558 -3.618e-15 -3.38207e-16)
(0 4.01804e-30 5.02255e-31 2.61189 3.29494e-15 -3.35709e-15 0.124822 -1.84494e-16 -1.53541e-16)
(8.34002e-15 0 0 2.61189 4.68628e-16 3.88604e-17 0.124822 -3.61262e-15 -3.11384e-16)
(0 3.94441e-30 -4.01892e-30 2.54917 1.90759e-15 -1.37556e-29 0.124107 -1.30876e-16 0)
(-1.05956e-14 -3.94441e-30 -8.74164e-31 2.54917 6.15827e-16 1.59621e-30 0.124107 -3.63223e-15 -2.80595e-16)
(0 1.16164e-29 1.93607e-30 2.48828 1.70683e-15 2.32887e-15 0.123412 -5.47028e-17 -1.08741e-16)
(8.4099e-15 -1.16164e-29 -1.93607e-30 2.48828 -2.71966e-17 -6.42027e-17 0.123412 -3.626e-15 -2.50853e-16)
(-2.11113e-15 -1.62709e-29 -2.07738e-30 2.42916 2.83231e-15 2.36843e-15 0.122737 -1.1565e-16 -1.23059e-16)
(0 1.90059e-29 2.85088e-30 2.42916 -1.66877e-15 -8.48577e-17 0.122737 -3.62455e-15 -2.20941e-16)
(-2.11974e-15 6.45346e-30 7.62867e-31 2.37174 3.04916e-15 2.21897e-15 0.12208 -1.71877e-16 -1.16885e-16)
(8.47896e-15 0 0 2.37174 -2.02163e-15 -4.03429e-17 0.12208 -3.69269e-15 -1.9095e-16)
(0 -7.32629e-30 -1.37368e-30 2.31597 3.59862e-15 2.21033e-15 0.121442 -1.42602e-16 -1.12124e-16)
(0 7.32629e-30 1.37368e-30 2.31597 -2.05934e-15 3.77403e-17 0.121442 -3.72842e-15 -1.56851e-16)
(0 7.19204e-30 8.99004e-31 2.26178 4.68681e-15 2.50975e-15 0.120822 -2.36669e-16 -1.20372e-16)
(-2.02438e-15 -3.59602e-30 0 2.26178 -2.9408e-15 -2.09126e-45 0.120822 -3.77697e-15 -1.21557e-16)
(2.14528e-15 -1.68047e-29 -2.93015e-30 2.20911 5.44741e-15 2.78723e-15 0.120218 -2.65625e-16 -1.4872e-16)
(1.05684e-14 1.05904e-29 1.76506e-30 2.20911 -2.95221e-15 -9.05575e-17 0.120218 -3.83703e-15 -9.17585e-17)
(-1.74803e-15 4.26184e-30 1.02281e-30 2.15792 6.31588e-15 2.84025e-15 0.119631 -3.29353e-16 -1.55468e-16)
(6.66394e-15 0 1.59064e-32 2.15792 -3.33178e-15 -1.2326e-32 0.119631 -3.87175e-15 -5.73088e-17)
(0 0 -4.25241e-31 2.10815 5.76474e-15 2.77731e-15 0.11906 -3.73067e-16 -1.60273e-16)
(8.64833e-15 0 8.50483e-31 2.10815 -3.98253e-15 -8.01404e-17 0.11906 -3.89795e-15 -2.17571e-17)
(-4.34084e-15 5.31395e-30 1.19232e-31 2.05974 4.88738e-15 2.67134e-15 0.118504 -2.78778e-16 -1.54133e-16)
(8.68168e-15 0 4.17449e-31 2.05974 -3.48379e-15 -6.44994e-17 0.118504 -3.94852e-15 1.86233e-17)
(2.17872e-15 -1.57566e-29 -1.90266e-30 2.01266 5.22298e-15 2.47482e-15 0.117963 -2.84987e-16 -1.53975e-16)
(8.71488e-15 1.31136e-29 1.6392e-30 2.01266 -3.82624e-15 -4.32632e-17 0.117963 -4.01313e-15 5.5418e-17)
(0 6.43664e-30 2.01145e-30 1.96686 5.66658e-15 2.48317e-15 0.117436 -3.29081e-16 -1.36636e-16)
(-8.74791e-15 -6.43664e-30 -2.01145e-30 1.96686 -5.11137e-15 -1.09846e-17 0.117436 -4.09627e-15 9.49974e-17)
(0 0 7.89836e-31 1.92228 5.14182e-15 3.03151e-15 0.116923 -3.49313e-16 -1.60787e-16)
(-1.77855e-15 0 -7.89836e-31 1.92228 -4.82201e-15 -7.73044e-17 0.116923 -4.17857e-15 1.33451e-16)
(-4.40676e-15 1.7632e-29 2.80353e-30 1.87891 4.67674e-15 3.17551e-15 0.116424 -2.76906e-16 -2.09262e-16)
(0 -1.24058e-29 -2.32609e-30 1.87891 -3.91689e-15 -2.87477e-18 0.116424 -4.25961e-15 1.74492e-16)
(1.21641e-15 8.68184e-30 9.96709e-31 1.83668 5.53096e-15 3.06245e-15 0.115937 -3.04177e-16 -1.84896e-16)
(-3.42793e-15 -3.04462e-30 -3.80577e-31 1.83668 -3.67419e-15 1.98679e-16 0.115937 -4.30943e-15 2.17689e-16)
(0 1.49441e-29 2.24162e-30 1.79557 6.17633e-15 3.24515e-15 0.115463 -3.96419e-16 -2.0271e-16)
(-1.22437e-14 -1.19553e-29 -1.86802e-30 1.79557 -3.43779e-15 3.71028e-16 0.115463 -4.37789e-15 2.64668e-16)
(4.45543e-15 7.5413e-31 2.98262e-31 1.75553 7.58092e-15 4.07411e-15 0.115001 -3.99588e-16 -2.1563e-16)
(0 -5.86811e-30 -7.33514e-31 1.75553 -2.49454e-15 2.73266e-16 0.115001 -4.44722e-15 3.14331e-16)
(1.22859e-15 6.51321e-30 1.05428e-30 1.71654 7.4566e-15 4.45024e-15 0.114551 -5.97473e-16 -3.2019e-16)
(8.94302e-15 -1.15212e-29 -1.80018e-30 1.71654 -2.69881e-15 -1.19998e-18 0.114551 -4.48743e-15 3.53927e-16)
(-2.24376e-15 2.51263e-30 -1.6304e-31 1.67855 5.36503e-15 3.70572e-15 0.114111 -3.97865e-16 -2.74525e-16)
(8.97506e-15 2.82751e-30 7.06878e-31 1.67855 -4.01952e-15 8.05266e-17 0.114111 -4.53696e-15 3.85587e-16)
(4.50348e-15 -5.01489e-30 3.16881e-31 1.64154 6.00923e-15 3.86654e-15 0.113683 -3.32397e-16 -2.29884e-16)
(0 0 -6.93924e-31 1.64154 -3.1132e-15 9.76529e-17 0.113683 -4.55012e-15 4.24416e-16)
(5.32758e-15 -2.4718e-30 -5.08088e-31 1.60548 6.28354e-15 4.52839e-15 0.113266 -5.03087e-16 -3.07395e-16)
(9.03875e-15 0 6.81208e-31 1.60548 -3.01957e-15 -5.03585e-17 0.113266 -4.5204e-15 4.5558e-16)
(-2.2676e-15 1.05117e-29 1.15728e-30 1.57033 5.98861e-15 4.85332e-15 0.112858 -3.84062e-16 -3.3298e-16)
(0 -5.3498e-30 -3.34363e-31 1.57033 -4.13859e-15 -1.25961e-16 0.112858 -4.54101e-15 4.93582e-16)
(0 0 -3.28236e-31 1.53607 6.06701e-15 2.95081e-15 0.112461 -4.79178e-16 -3.66206e-16)
(1.82039e-14 5.25177e-30 6.56471e-31 1.53607 -4.38355e-15 -1.2844e-16 0.112461 -4.52729e-15 5.32209e-16)
(-5.18565e-15 -5.27293e-30 -7.8861e-31 1.50266 5.03924e-15 -2.33196e-16 0.112073 -4.10142e-16 -1.00209e-16)
(2.90231e-15 1.28888e-29 1.28888e-30 1.50266 -3.07791e-15 1.41111e-16 0.112073 -4.57877e-15 5.83041e-16)
(-2.84912e-15 -7.59159e-30 -1.58158e-30 1.47009 3.75508e-15 -1.35848e-15 0.111694 -3.42224e-16 -1.06632e-16)
(1.83294e-14 1.01221e-29 1.8979e-30 1.47009 2.85297e-15 3.71764e-16 0.111694 -4.66564e-15 6.38428e-16)
(-2.29898e-15 1.48765e-29 1.43566e-30 1.43832 1.7775e-15 -1.18914e-15 0.111324 -2.28304e-16 -7.74826e-17)
(0 -1.24208e-29 -1.24208e-30 1.43832 -8.56724e-16 2.60107e-16 0.111324 -4.55034e-15 6.81362e-16)
(0 -8.09171e-30 -6.09659e-31 1.40733 1.15532e-15 -8.96532e-16 0.110963 -4.56209e-17 -6.40011e-17)
(9.22701e-15 4.87727e-30 9.14489e-31 1.40733 -4.10474e-15 1.63566e-16 0.110963 -4.73444e-15 7.06459e-16)
(2.3145e-15 -1.44082e-29 -1.69757e-30 1.37711 2.77077e-15 -8.15566e-16 0.11061 -2.10622e-16 -6.72533e-17)
(1.8516e-14 1.19697e-29 1.49622e-30 1.37711 6.31779e-17 2.29577e-16 0.11061 -4.73533e-15 7.28371e-16)
(-2.32222e-15 2.42892e-30 2.05796e-31 1.34761 3.79352e-15 -7.5274e-16 0.110265 -2.35423e-16 -5.60194e-17)
(9.2889e-15 4.70016e-30 2.9376e-31 1.34761 -3.49105e-15 -1.8454e-16 0.110265 -4.73843e-15 7.51929e-16)
(-2.67547e-16 2.21918e-30 3.65624e-31 1.31883 4.09669e-15 -5.44537e-16 0.109928 -3.87755e-16 -3.47009e-17)
(9.31969e-15 0 0 1.31883 -9.76632e-16 -8.7158e-16 0.109928 -4.86891e-15 7.50448e-16)
(-4.67519e-15 9.31992e-30 6.39412e-31 1.29074 3.62342e-15 -1.17402e-17 0.109598 -2.95385e-16 -4.99192e-19)
(6.80051e-15 0 -2.83093e-31 1.29074 4.33997e-16 -2.51291e-16 0.109598 -4.77895e-15 7.25304e-16)
(-2.50315e-15 -4.44648e-30 -8.33715e-31 1.26333 4.26499e-15 -3.2007e-16 0.109276 -3.21123e-16 -5.54626e-17)
(1.8762e-14 8.89296e-30 1.38953e-30 1.26333 -2.94308e-15 8.35737e-16 0.109276 -4.89615e-15 7.36931e-16)
(2.45728e-15 4.365e-30 5.03878e-31 1.23656 2.63767e-15 -4.03941e-16 0.10896 -4.18707e-16 -1.78227e-17)
(6.95421e-15 0 0 1.23656 -2.59303e-15 2.34795e-16 0.10896 -4.94692e-15 7.65286e-16)
(5.17726e-17 1.09899e-29 0 1.21043 6.87454e-16 -1.2326e-32 0.108651 -4.33406e-17 -1.97215e-31)
(-2.41225e-15 -4.28501e-30 -5.35627e-31 1.21043 -2.52053e-15 -4.96171e-16 0.108651 -4.97539e-15 7.56182e-16)
(2.36806e-15 -5.5518e-30 1.84795e-31 1.18491 1.76033e-15 1.42678e-16 0.108349 -8.05964e-17 -6.53249e-18)
(0 -8.41298e-30 -1.31453e-30 1.18491 -1.8821e-15 -3.27159e-16 0.108349 -5.00447e-15 7.46774e-16)
(2.32465e-15 8.25882e-30 7.74264e-31 1.15999 4.83454e-15 2.32315e-16 0.108053 -3.92486e-16 -3.29193e-17)
(-2.32465e-15 -4.12941e-30 -2.58088e-31 1.15999 -2.51915e-15 -2.46995e-16 0.108053 -5.02619e-15 7.36633e-16)
(-2.38315e-15 1.04359e-29 1.98801e-30 1.13565 4.27428e-15 -1.01645e-16 0.107763 -5.10525e-16 -2.98984e-17)
(-2.28205e-15 -8.10748e-30 -1.77351e-30 1.13565 -5.10282e-15 -5.406e-16 0.107763 -5.09377e-15 7.26815e-16)
(-1.50437e-16 1.03089e-29 6.13068e-46 1.11187 3.35008e-15 8.87814e-31 0.107478 -2.9981e-16 -3.9443e-31)
(-1.18029e-14 0 0 1.11187 -4.49623e-15 -6.24614e-16 0.107478 -5.3161e-15 7.09094e-16)
(-2.39817e-15 -5.4821e-30 -1.00349e-30 1.08864 5.2859e-15 -6.78739e-17 0.107199 -3.49179e-16 -3.79982e-17)
(1.91853e-14 7.81307e-30 1.46495e-30 1.08864 -3.01558e-15 5.30169e-16 0.107199 -5.36739e-15 6.83767e-16)
(0 -7.6699e-30 -1.19842e-30 1.06594 5.88985e-15 -8.86962e-16 0.106926 -6.96417e-16 -1.4113e-16)
(9.62258e-15 7.6699e-30 1.19842e-30 1.06594 -5.46947e-15 1.02859e-15 0.106926 -5.43813e-15 7.04272e-16)
(-2.4131e-15 6.02091e-30 9.23442e-31 1.04376 4.14017e-15 -1.05922e-15 0.106657 -4.84792e-16 -7.50083e-17)
(7.53308e-15 0 -2.35292e-31 1.04376 -2.64626e-15 -3.81683e-16 0.106657 -5.64552e-15 7.12077e-16)