/*--------------------------------*- C++ -*----------------------------------*\
| =========                 |                                                 |
| \\      /  F ield         | OpenFOAM: The Open Source CFD Toolbox           |
|  \\    /   O peration     | Version:  2106                                  |
|   \\  /    A nd           | Website:  www.openfoam.com                      |
|    \\/     M anipulation  |                                                 |
\*---------------------------------------------------------------------------*/
FoamFile
{
    version     2.0;
    format      ascii;
    arch        "LSB;label=32;scalar=64";
    class       volScalarField;
    location    "10000";
    object      p;
}
// * * * * * * * * * * * * * * * * * * * * * * * * * * * * * * * * * * * * * //

dimensions      [0 2 -2 0 0 0 0];

internalField   nonuniform List<scalar> 
2000
(
6.9808e-16
1.78898e-14
1.45521e-15
1.78894e-14
1.62745e-15
1.7889e-14
1.65942e-15
1.78886e-14
1.72089e-15
1.78882e-14
1.79516e-15
1.78876e-14
1.86552e-15
1.78869e-14
1.93133e-15
1.78861e-14
1.99477e-15
1.78852e-14
2.05685e-15
1.78842e-14
2.11786e-15
1.78831e-14
2.17805e-15
1.78818e-14
2.23744e-15
1.78804e-14
2.29617e-15
1.78789e-14
2.35428e-15
1.78773e-14
2.41193e-15
1.78756e-14
2.46943e-15
1.78737e-14
2.52695e-15
1.78718e-14
2.58462e-15
1.78698e-14
2.64272e-15
1.78676e-14
2.70152e-15
1.78653e-14
2.76124e-15
1.7863e-14
2.82209e-15
1.78607e-14
2.88436e-15
1.78584e-14
2.94813e-15
1.78562e-14
3.01355e-15
1.7854e-14
3.08093e-15
1.78521e-14
3.1505e-15
1.78502e-14
3.22225e-15
1.78486e-14
3.29631e-15
1.78471e-14
3.37246e-15
1.78458e-14
3.4512e-15
1.78448e-14
3.53254e-15
1.7844e-14
3.61632e-15
1.78436e-14
3.70266e-15
1.78436e-14
3.7916e-15
1.7844e-14
3.88341e-15
1.78446e-14
3.97777e-15
1.78456e-14
4.07486e-15
1.78467e-14
4.17449e-15
1.78479e-14
4.27685e-15
1.78498e-14
4.38171e-15
1.78522e-14
4.48945e-15
1.78553e-14
4.60025e-15
1.78585e-14
4.71348e-15
1.78619e-14
4.8291e-15
1.7866e-14
4.94704e-15
1.78701e-14
5.06793e-15
1.7875e-14
5.19083e-15
1.78817e-14
5.31683e-15
1.78888e-14
5.4447e-15
1.78955e-14
5.57585e-15
1.79023e-14
5.70773e-15
1.79103e-14
5.84226e-15
1.79192e-14
5.97914e-15
1.79289e-14
6.11669e-15
1.79386e-14
6.25616e-15
1.79501e-14
6.39801e-15
1.79633e-14
6.54049e-15
1.79773e-14
6.68347e-15
1.79921e-14
6.828e-15
1.80065e-14
6.97158e-15
1.80218e-14
7.1165e-15
1.80392e-14
7.26078e-15
1.80588e-14
7.40743e-15
1.80788e-14
7.55256e-15
1.80998e-14
7.69726e-15
1.81227e-14
7.84207e-15
1.81462e-14
7.98685e-15
1.81689e-14
8.13147e-15
1.81943e-14
8.27647e-15
1.82197e-14
8.42106e-15
1.82473e-14
8.56368e-15
1.82786e-14
8.7063e-15
1.8308e-14
8.84948e-15
1.83371e-14
8.99095e-15
1.83679e-14
9.13127e-15
1.8402e-14
9.27028e-15
1.84389e-14
9.40707e-15
1.84742e-14
9.54297e-15
1.85118e-14
9.67859e-15
1.85509e-14
9.81224e-15
1.85917e-14
9.94529e-15
1.86343e-14
1.00784e-14
1.86741e-14
1.02113e-14
1.87137e-14
1.03416e-14
1.87577e-14
1.04707e-14
1.88033e-14
1.06016e-14
1.88456e-14
1.07325e-14
1.88881e-14
1.08616e-14
1.89341e-14
1.09888e-14
1.89773e-14
1.11122e-14
1.90226e-14
1.12349e-14
1.90704e-14
1.13533e-14
1.91139e-14
1.14722e-14
1.91568e-14
1.15916e-14
1.91992e-14
1.17077e-14
1.9243e-14
1.18169e-14
1.92901e-14
1.19257e-14
1.93355e-14
1.20305e-14
1.93829e-14
1.21345e-14
1.94309e-14
1.22357e-14
1.94848e-14
1.23372e-14
1.95381e-14
1.24371e-14
1.95819e-14
1.25404e-14
1.96255e-14
1.26415e-14
1.96709e-14
1.27419e-14
1.97183e-14
1.28412e-14
1.97627e-14
1.2941e-14
1.98006e-14
1.30446e-14
1.98433e-14
1.31425e-14
1.98819e-14
1.32399e-14
1.99223e-14
1.33364e-14
1.99648e-14
1.34316e-14
2.00116e-14
1.35271e-14
2.00537e-14
1.36243e-14
2.00879e-14
1.3721e-14
2.01293e-14
1.38167e-14
2.01672e-14
1.39072e-14
2.0198e-14
1.40073e-14
2.02146e-14
1.40976e-14
2.02362e-14
1.41853e-14
2.02671e-14
1.42737e-14
2.02848e-14
1.43623e-14
2.0301e-14
1.44507e-14
2.03124e-14
1.45231e-14
2.03308e-14
1.45981e-14
2.0353e-14
1.46673e-14
2.03677e-14
1.47418e-14
2.03678e-14
1.48211e-14
2.03652e-14
1.49008e-14
2.0368e-14
1.49841e-14
2.0369e-14
1.50589e-14
2.03489e-14
1.51442e-14
2.03276e-14
1.52161e-14
2.03247e-14
1.52974e-14
2.03174e-14
1.53837e-14
2.0302e-14
1.54705e-14
2.02827e-14
1.55574e-14
2.02636e-14
1.564e-14
2.0241e-14
1.57255e-14
2.01995e-14
1.58059e-14
2.01744e-14
1.58725e-14
2.01699e-14
1.59524e-14
2.0147e-14
1.60371e-14
2.01137e-14
1.61105e-14
2.00896e-14
1.61917e-14
2.00749e-14
1.62802e-14
2.0054e-14
1.63678e-14
2.00426e-14
1.64539e-14
2.0025e-14
1.65303e-14
1.99933e-14
1.66201e-14
1.99552e-14
1.67153e-14
1.99184e-14
1.68313e-14
1.98904e-14
1.69368e-14
1.98628e-14
1.70238e-14
1.98509e-14
1.71158e-14
1.98386e-14
1.72045e-14
1.98259e-14
1.72977e-14
1.97889e-14
1.73796e-14
1.97661e-14
1.74735e-14
1.9757e-14
1.75715e-14
1.97376e-14
1.76659e-14
1.97149e-14
1.77491e-14
1.97039e-14
1.78366e-14
1.97042e-14
1.79207e-14
1.96918e-14
1.80013e-14
1.96659e-14
1.80944e-14
1.96566e-14
1.81847e-14
1.96551e-14
1.82724e-14
1.96605e-14
1.83577e-14
1.96486e-14
1.84411e-14
1.96495e-14
1.85149e-14
1.96389e-14
1.86104e-14
1.96467e-14
1.86896e-14
1.96716e-14
1.87757e-14
1.9682e-14
1.8846e-14
1.96922e-14
1.89393e-14
1.96935e-14
1.90183e-14
1.97225e-14
1.91291e-14
1.97398e-14
1.92576e-14
1.97582e-14
1.93454e-14
1.97594e-14
1.9424e-14
1.9786e-14
1.95091e-14
1.98214e-14
1.96007e-14
1.98496e-14
1.96851e-14
1.99132e-14
1.97481e-14
2.00262e-14
1.98173e-14
2.00855e-14
1.98778e-14
2.01357e-14
1.99592e-14
2.01466e-14
2.00185e-14
2.01748e-14
2.0071e-14
2.02192e-14
2.0131e-14
2.02796e-14
2.01833e-14
2.03411e-14
2.02269e-14
2.03746e-14
2.03048e-14
2.04381e-14
2.03452e-14
2.05307e-14
2.0374e-14
2.05972e-14
2.04174e-14
2.06682e-14
2.04595e-14
2.07166e-14
2.05133e-14
2.07568e-14
2.06063e-14
2.08024e-14
2.06698e-14
2.08233e-14
2.07482e-14
2.08437e-14
2.07877e-14
2.08742e-14
2.08582e-14
2.09423e-14
2.09032e-14
2.09926e-14
2.09637e-14
2.10123e-14
2.10542e-14
2.10814e-14
2.11076e-14
2.11709e-14
2.11892e-14
2.12543e-14
2.12578e-14
2.13452e-14
2.12964e-14
2.14317e-14
2.1408e-14
2.15051e-14
2.14869e-14
2.15626e-14
2.15333e-14
2.16004e-14
2.16511e-14
2.16958e-14
2.17368e-14
2.17954e-14
2.17927e-14
2.18501e-14
2.18696e-14
2.18869e-14
2.20187e-14
2.1954e-14
2.20444e-14
2.20159e-14
2.20945e-14
2.2073e-14
2.21914e-14
2.21509e-14
2.22614e-14
2.22472e-14
2.23287e-14
2.229e-14
2.23718e-14
2.23274e-14
2.23893e-14
2.2433e-14
2.2445e-14
2.24946e-14
2.25362e-14
2.25628e-14
2.26185e-14
2.2638e-14
2.26928e-14
2.2742e-14
2.27533e-14
2.28306e-14
2.27971e-14
2.29542e-14
2.29498e-14
2.30801e-14
2.29845e-14
2.32786e-14
2.30775e-14
2.33942e-14
2.31983e-14
2.35029e-14
2.33063e-14
2.361e-14
2.3443e-14
2.37414e-14
2.36013e-14
2.38095e-14
2.37778e-14
2.38628e-14
2.40039e-14
2.39887e-14
2.41335e-14
2.4123e-14
2.42315e-14
2.42284e-14
2.43181e-14
2.43071e-14
2.4373e-14
2.43997e-14
2.45104e-14
2.45116e-14
2.4593e-14
2.46116e-14
2.46614e-14
2.47087e-14
1.52185e-14
1.6654e-14
1.52183e-14
1.66539e-14
1.52183e-14
1.66538e-14
1.52182e-14
1.66538e-14
1.52182e-14
1.66537e-14
1.52182e-14
1.66537e-14
1.52182e-14
1.66536e-14
1.52182e-14
1.66535e-14
1.52183e-14
1.66534e-14
1.52183e-14
1.66533e-14
1.52184e-14
1.66531e-14
1.52185e-14
1.66529e-14
1.52187e-14
1.66527e-14
1.52188e-14
1.66525e-14
1.5219e-14
1.66522e-14
1.52193e-14
1.66519e-14
1.52195e-14
1.66515e-14
1.52199e-14
1.6651e-14
1.52202e-14
1.66506e-14
1.52206e-14
1.66502e-14
1.52211e-14
1.66497e-14
1.52217e-14
1.66491e-14
1.52222e-14
1.66486e-14
1.52228e-14
1.66482e-14
1.52235e-14
1.66476e-14
1.52242e-14
1.66471e-14
1.5225e-14
1.66467e-14
1.52258e-14
1.6646e-14
1.52268e-14
1.66454e-14
1.52278e-14
1.66449e-14
1.5229e-14
1.66445e-14
1.52302e-14
1.66441e-14
1.52317e-14
1.66437e-14
1.52332e-14
1.66434e-14
1.52348e-14
1.66428e-14
1.52365e-14
1.66426e-14
1.52386e-14
1.66422e-14
1.52408e-14
1.66421e-14
1.5243e-14
1.6642e-14
1.52453e-14
1.66414e-14
1.52481e-14
1.6641e-14
1.5251e-14
1.6641e-14
1.52542e-14
1.66408e-14
1.52573e-14
1.66408e-14
1.52608e-14
1.66408e-14
1.52648e-14
1.66411e-14
1.52701e-14
1.66408e-14
1.5275e-14
1.66402e-14
1.52797e-14
1.66411e-14
1.52851e-14
1.66431e-14
1.5291e-14
1.66433e-14
1.52971e-14
1.66432e-14
1.53036e-14
1.66442e-14
1.53105e-14
1.66448e-14
1.53183e-14
1.66458e-14
1.5326e-14
1.66484e-14
1.5335e-14
1.66503e-14
1.53431e-14
1.66535e-14
1.5352e-14
1.66564e-14
1.53607e-14
1.66595e-14
1.53703e-14
1.66622e-14
1.53796e-14
1.66669e-14
1.53886e-14
1.66724e-14
1.53998e-14
1.66788e-14
1.54125e-14
1.66849e-14
1.54257e-14
1.66905e-14
1.54385e-14
1.66978e-14
1.54523e-14
1.67039e-14
1.54672e-14
1.67084e-14
1.54824e-14
1.67144e-14
1.54966e-14
1.67241e-14
1.55119e-14
1.67362e-14
1.55276e-14
1.67472e-14
1.55437e-14
1.67571e-14
1.55644e-14
1.67672e-14
1.55855e-14
1.67741e-14
1.56056e-14
1.67863e-14
1.56239e-14
1.68025e-14
1.56463e-14
1.68124e-14
1.56699e-14
1.68217e-14
1.56932e-14
1.68359e-14
1.57162e-14
1.68526e-14
1.57388e-14
1.68689e-14
1.57627e-14
1.68808e-14
1.57885e-14
1.68913e-14
1.58172e-14
1.69052e-14
1.5844e-14
1.69258e-14
1.58737e-14
1.69418e-14
1.59031e-14
1.69579e-14
1.59354e-14
1.69743e-14
1.59723e-14
1.69908e-14
1.60107e-14
1.70058e-14
1.60471e-14
1.70259e-14
1.60884e-14
1.70461e-14
1.61311e-14
1.70664e-14
1.61736e-14
1.70919e-14
1.62159e-14
1.71173e-14
1.62598e-14
1.71393e-14
1.63052e-14
1.71613e-14
1.63505e-14
1.71796e-14
1.63958e-14
1.72013e-14
1.6441e-14
1.72351e-14
1.64915e-14
1.72669e-14
1.65438e-14
1.72931e-14
1.65908e-14
1.73243e-14
1.66415e-14
1.73606e-14
1.66941e-14
1.73946e-14
1.67432e-14
1.74281e-14
1.67908e-14
1.74665e-14
1.68385e-14
1.75118e-14
1.68976e-14
1.75509e-14
1.69496e-14
1.75893e-14
1.70057e-14
1.76289e-14
1.70566e-14
1.76751e-14
1.7108e-14
1.77242e-14
1.71655e-14
1.77706e-14
1.72179e-14
1.78273e-14
1.7269e-14
1.78794e-14
1.73263e-14
1.79229e-14
1.73786e-14
1.79692e-14
1.74373e-14
1.80259e-14
1.74873e-14
1.80891e-14
1.75437e-14
1.81437e-14
1.76066e-14
1.81857e-14
1.76725e-14
1.82265e-14
1.77374e-14
1.82662e-14
1.78094e-14
1.83084e-14
1.7877e-14
1.83646e-14
1.79442e-14
1.84233e-14
1.79995e-14
1.84805e-14
1.80585e-14
1.85285e-14
1.81213e-14
1.85907e-14
1.81803e-14
1.86555e-14
1.82354e-14
1.87228e-14
1.82946e-14
1.87852e-14
1.83579e-14
1.88427e-14
1.84255e-14
1.88992e-14
1.84898e-14
1.89587e-14
1.85469e-14
1.90135e-14
1.86125e-14
1.90637e-14
1.86753e-14
1.91172e-14
1.8743e-14
1.91861e-14
1.8816e-14
1.92507e-14
1.8863e-14
1.93114e-14
1.89114e-14
1.93683e-14
1.89694e-14
1.94296e-14
1.90173e-14
1.94917e-14
1.90748e-14
1.95629e-14
1.91222e-14
1.96355e-14
1.91674e-14
1.97023e-14
1.9234e-14
1.97479e-14
1.92986e-14
1.97884e-14
1.93614e-14
1.98398e-14
1.9407e-14
1.98944e-14
1.94588e-14
1.99529e-14
1.95012e-14
1.99842e-14
1.95498e-14
2.00123e-14
1.9613e-14
2.00609e-14
1.96751e-14
2.01068e-14
1.97365e-14
2.01425e-14
1.97976e-14
2.01919e-14
1.9835e-14
2.02396e-14
1.9888e-14
2.0255e-14
1.99255e-14
2.02617e-14
1.99637e-14
2.02988e-14
2.00105e-14
2.03356e-14
2.00504e-14
2.0388e-14
2.00913e-14
2.04337e-14
2.01407e-14
2.045e-14
2.01836e-14
2.04915e-14
2.0228e-14
2.05122e-14
2.02741e-14
2.0528e-14
2.03302e-14
2.05466e-14
2.03664e-14
2.05758e-14
2.03981e-14
2.06237e-14
2.04405e-14
2.06528e-14
2.04708e-14
2.06788e-14
2.05045e-14
2.07101e-14
2.05415e-14
2.07626e-14
2.05815e-14
2.08524e-14
2.06307e-14
2.09438e-14
2.06879e-14
2.1024e-14
2.07522e-14
2.10499e-14
2.08399e-14
2.10518e-14
2.0878e-14
2.11035e-14
2.08813e-14
2.11761e-14
2.09521e-14
2.12274e-14
2.09718e-14
2.1272e-14
2.0999e-14
2.13114e-14
2.10481e-14
2.13469e-14
2.10896e-14
2.13351e-14
2.11252e-14
2.13488e-14
2.11704e-14
2.13731e-14
2.12113e-14
2.14222e-14
2.1248e-14
2.14241e-14
2.12674e-14
2.14656e-14
2.13118e-14
2.14899e-14
2.13533e-14
2.15251e-14
2.13499e-14
2.15568e-14
2.13859e-14
2.16011e-14
2.14324e-14
2.16307e-14
2.14762e-14
2.1646e-14
2.14897e-14
2.1731e-14
2.15394e-14
2.17506e-14
2.15701e-14
2.17471e-14
2.16256e-14
2.17615e-14
2.16526e-14
2.17633e-14
2.17217e-14
2.1779e-14
2.17679e-14
2.18201e-14
2.18184e-14
2.19137e-14
2.18712e-14
2.19814e-14
2.19658e-14
2.20386e-14
2.20113e-14
2.20696e-14
2.21042e-14
2.21266e-14
2.21934e-14
2.22342e-14
2.2279e-14
2.22896e-14
2.23394e-14
2.23194e-14
2.23235e-14
2.23463e-14
2.23827e-14
2.23718e-14
2.25201e-14
2.23929e-14
2.25682e-14
2.24769e-14
2.26502e-14
2.25764e-14
2.27171e-14
2.26185e-14
2.27741e-14
2.2678e-14
2.27954e-14
2.27293e-14
2.28277e-14
2.27492e-14
2.28965e-14
2.27609e-14
2.28876e-14
2.28316e-14
2.29403e-14
2.28699e-14
2.29837e-14
2.28738e-14
2.3046e-14
2.29565e-14
2.31248e-14
2.3048e-14
2.31484e-14
2.31496e-14
2.32242e-14
2.32264e-14
2.32842e-14
2.32998e-14
2.3391e-14
2.34393e-14
2.34757e-14
2.35523e-14
2.35113e-14
2.35983e-14
2.36275e-14
2.36905e-14
2.38063e-14
2.38008e-14
2.3906e-14
2.39149e-14
2.39883e-14
2.3973e-14
2.40945e-14
2.40834e-14
2.42341e-14
2.41564e-14
2.43348e-14
2.42598e-14
2.44199e-14
2.43492e-14
2.45332e-14
2.44702e-14
2.4594e-14
2.46057e-14
2.46623e-14
2.46689e-14
2.46946e-14
2.47413e-14
2.47556e-14
2.4771e-14
2.49256e-14
2.48727e-14
2.50241e-14
2.49579e-14
2.50574e-14
2.49839e-14
2.51077e-14
2.50777e-14
2.51911e-14
2.51874e-14
2.5276e-14
2.52961e-14
2.53783e-14
2.53636e-14
2.5423e-14
2.54491e-14
2.54427e-14
2.55151e-14
2.55133e-14
2.55901e-14
2.56116e-14
2.56514e-14
2.57401e-14
2.57589e-14
2.58392e-14
2.58666e-14
2.59312e-14
2.5934e-14
2.59977e-14
2.60006e-14
2.61079e-14
2.61112e-14
2.62389e-14
2.62432e-14
2.63684e-14
2.63269e-14
2.648e-14
2.64304e-14
2.65542e-14
2.65562e-14
2.66316e-14
2.66385e-14
2.67098e-14
2.67245e-14
2.67878e-14
2.68118e-14
2.68894e-14
2.68765e-14
2.69684e-14
2.69632e-14
2.70228e-14
2.70497e-14
2.7074e-14
2.7114e-14
2.71198e-14
2.71318e-14
2.71623e-14
2.72015e-14
2.72235e-14
2.7301e-14
2.73244e-14
2.73577e-14
2.73952e-14
2.74197e-14
2.74123e-14
2.74869e-14
2.74734e-14
2.7537e-14
2.75559e-14
2.75938e-14
2.76096e-14
2.7681e-14
2.76299e-14
2.77199e-14
2.76961e-14
2.77651e-14
2.7744e-14
2.78146e-14
2.77738e-14
2.78262e-14
2.78146e-14
2.78395e-14
2.78684e-14
2.78944e-14
2.7879e-14
2.79086e-14
2.79142e-14
2.7924e-14
2.79341e-14
2.79399e-14
2.79673e-14
2.79829e-14
2.79434e-14
2.80246e-14
2.79711e-14
2.80258e-14
2.79962e-14
2.80553e-14
2.80034e-14
2.80988e-14
2.80051e-14
2.81449e-14
2.8014e-14
2.8153e-14
2.80309e-14
2.81661e-14
2.80571e-14
2.81404e-14
2.80803e-14
2.8189e-14
2.80997e-14
2.82702e-14
2.80995e-14
2.82846e-14
2.80936e-14
2.82472e-14
2.80832e-14
2.81999e-14
2.80697e-14
2.82001e-14
2.80526e-14
2.82184e-14
2.80462e-14
2.82115e-14
2.80511e-14
2.81938e-14
2.80533e-14
2.81795e-14
2.80386e-14
2.81981e-14
2.80361e-14
2.82057e-14
2.80455e-14
2.82024e-14
2.80527e-14
2.81879e-14
2.80582e-14
2.81463e-14
2.80328e-14
2.81065e-14
2.80067e-14
2.80986e-14
2.80175e-14
2.81231e-14
2.80194e-14
2.81195e-14
2.80124e-14
2.81026e-14
2.80043e-14
2.80951e-14
2.80029e-14
2.80969e-14
2.80004e-14
2.80852e-14
2.79892e-14
2.8044e-14
2.79852e-14
2.80423e-14
2.79729e-14
2.80645e-14
2.7975e-14
2.80723e-14
2.79759e-14
2.80656e-14
2.7968e-14
2.80444e-14
2.7975e-14
2.80242e-14
2.79738e-14
2.80123e-14
2.79802e-14
2.80009e-14
2.79789e-14
2.79896e-14
2.79621e-14
2.79782e-14
2.79689e-14
2.79589e-14
2.79604e-14
2.79548e-14
2.79445e-14
2.79661e-14
2.79367e-14
2.79618e-14
2.79289e-14
2.79418e-14
2.79212e-14
2.79376e-14
2.79057e-14
2.79414e-14
2.78901e-14
2.79377e-14
2.78822e-14
2.79345e-14
2.7882e-14
2.79319e-14
2.78738e-14
2.79219e-14
2.78575e-14
2.79125e-14
2.7841e-14
2.79116e-14
2.78241e-14
2.78957e-14
2.78069e-14
2.78961e-14
2.78011e-14
2.78934e-14
2.77948e-14
2.78953e-14
2.7788e-14
2.78823e-14
2.7765e-14
2.78777e-14
2.77454e-14
2.787e-14
2.7729e-14
2.7867e-14
2.77238e-14
2.7853e-14
2.77141e-14
2.78514e-14
2.77038e-14
2.78467e-14
2.76967e-14
2.78349e-14
2.76891e-14
2.78198e-14
2.76848e-14
2.77935e-14
2.76841e-14
2.77754e-14
2.76791e-14
2.77655e-14
2.76699e-14
2.77637e-14
2.76604e-14
2.77699e-14
2.76506e-14
2.77609e-14
2.76404e-14
2.7756e-14
2.76299e-14
2.77514e-14
2.76267e-14
2.7751e-14
2.76271e-14
2.77586e-14
2.76271e-14
2.77472e-14
2.76191e-14
2.77322e-14
2.76185e-14
2.77251e-14
2.76214e-14
2.77297e-14
2.76165e-14
2.77269e-14
2.76114e-14
2.77204e-14
2.7606e-14
2.7718e-14
2.7608e-14
2.77195e-14
2.76097e-14
2.77137e-14
2.76075e-14
2.77081e-14
2.76089e-14
2.77063e-14
2.76119e-14
2.77103e-14
2.76092e-14
2.77182e-14
2.761e-14
2.7715e-14
2.76107e-14
2.77083e-14
2.76075e-14
2.77054e-14
2.76042e-14
2.771e-14
2.76044e-14
2.7711e-14
2.76026e-14
2.77121e-14
2.76007e-14
2.77151e-14
2.75986e-14
2.77163e-14
2.75964e-14
2.77195e-14
2.75922e-14
2.77228e-14
2.75862e-14
2.77279e-14
2.75835e-14
2.77349e-14
2.75859e-14
2.7742e-14
2.75829e-14
2.77439e-14
2.75797e-14
2.77442e-14
2.75798e-14
2.77463e-14
2.75797e-14
2.7752e-14
2.75811e-14
2.77595e-14
2.75824e-14
2.77705e-14
2.75817e-14
2.77748e-14
2.7586e-14
2.77759e-14
2.75866e-14
2.7782e-14
2.75872e-14
2.77883e-14
2.75891e-14
2.7793e-14
2.75877e-14
2.77978e-14
2.75909e-14
2.78027e-14
2.75907e-14
2.78077e-14
2.7592e-14
2.78111e-14
2.75915e-14
2.78131e-14
2.75885e-14
2.78175e-14
2.75862e-14
2.78236e-14
2.75869e-14
2.78289e-14
2.75889e-14
2.78313e-14
2.75862e-14
2.78323e-14
2.75842e-14
2.78341e-14
2.75827e-14
2.7836e-14
2.75812e-14
2.78402e-14
2.75803e-14
2.78444e-14
2.75792e-14
2.78466e-14
2.75774e-14
2.7846e-14
2.75747e-14
2.78469e-14
2.75741e-14
2.78487e-14
2.75753e-14
2.78504e-14
2.75751e-14
2.78503e-14
2.75748e-14
2.78495e-14
2.75757e-14
2.78508e-14
2.75759e-14
2.78542e-14
2.75766e-14
2.78544e-14
2.75772e-14
2.78546e-14
2.7577e-14
2.78574e-14
2.75768e-14
2.78609e-14
2.75777e-14
2.78613e-14
2.75774e-14
2.78613e-14
2.75763e-14
2.78624e-14
2.75764e-14
2.78642e-14
2.75775e-14
2.78649e-14
2.75785e-14
2.78654e-14
2.75781e-14
2.78665e-14
2.75774e-14
2.78678e-14
2.75779e-14
2.7869e-14
2.75778e-14
2.78691e-14
2.75784e-14
2.78693e-14
2.75785e-14
2.78693e-14
2.75785e-14
2.78679e-14
2.75782e-14
2.78673e-14
2.75783e-14
2.78684e-14
2.75784e-14
2.78692e-14
2.75784e-14
2.78688e-14
2.75784e-14
2.7869e-14
2.75783e-14
2.78693e-14
2.75786e-14
2.78694e-14
2.75793e-14
2.78693e-14
2.75796e-14
2.78688e-14
2.758e-14
2.78686e-14
2.75806e-14
2.78688e-14
2.75812e-14
2.78687e-14
2.75814e-14
2.78685e-14
2.75816e-14
2.78683e-14
2.75818e-14
2.78679e-14
2.75821e-14
2.78674e-14
2.75825e-14
2.78669e-14
2.75827e-14
2.78665e-14
2.75829e-14
2.78662e-14
2.7583e-14
2.78658e-14
2.75832e-14
2.78654e-14
2.75834e-14
2.78652e-14
2.75835e-14
2.78651e-14
2.75838e-14
2.78648e-14
2.75841e-14
2.78644e-14
2.75843e-14
2.78642e-14
2.75844e-14
2.78639e-14
2.75845e-14
2.78638e-14
2.75846e-14
2.78636e-14
2.75847e-14
2.78635e-14
2.75848e-14
2.78634e-14
2.75849e-14
2.78633e-14
2.75849e-14
2.78633e-14
2.75849e-14
2.78632e-14
2.7585e-14
2.78631e-14
2.7585e-14
2.7863e-14
2.75851e-14
2.78629e-14
2.75851e-14
2.78629e-14
2.75852e-14
2.78628e-14
2.75852e-14
2.78628e-14
2.75853e-14
2.78628e-14
2.75853e-14
2.78628e-14
2.75853e-14
2.78627e-14
2.75853e-14
2.78627e-14
2.75853e-14
2.78627e-14
2.75853e-14
2.78627e-14
2.75854e-14
2.78627e-14
2.75854e-14
2.78627e-14
2.48055e-14
2.48309e-14
2.49161e-14
2.48924e-14
2.49885e-14
2.49502e-14
2.50663e-14
2.49975e-14
2.5075e-14
2.50734e-14
2.51901e-14
2.51928e-14
2.52829e-14
2.53139e-14
2.53258e-14
2.5378e-14
2.53971e-14
2.54773e-14
2.54721e-14
2.55741e-14
2.55531e-14
2.56523e-14
2.57106e-14
2.57329e-14
2.57825e-14
2.58027e-14
2.58783e-14
2.58573e-14
2.59583e-14
2.59545e-14
2.60417e-14
2.60534e-14
2.61509e-14
2.6159e-14
2.6263e-14
2.62702e-14
2.63765e-14
2.63135e-14
2.64281e-14
2.63713e-14
2.65084e-14
2.64906e-14
2.66131e-14
2.6604e-14
2.66938e-14
2.67394e-14
2.67686e-14
2.68327e-14
2.6885e-14
2.69105e-14
2.6974e-14
2.69685e-14
2.70391e-14
2.70518e-14
2.71043e-14
2.71116e-14
2.71706e-14
2.71469e-14
2.72421e-14
2.72065e-14
2.73469e-14
2.72634e-14
2.73615e-14
2.73114e-14
2.73822e-14
2.73532e-14
2.74838e-14
2.74163e-14
2.74886e-14
2.74978e-14
2.75464e-14
2.7579e-14
2.76552e-14
2.76893e-14
2.76831e-14
2.77222e-14
2.77103e-14
2.77852e-14
2.77467e-14
2.78678e-14
2.77618e-14
2.78785e-14
2.77967e-14
2.78846e-14
2.7881e-14
2.79248e-14
2.79359e-14
2.79272e-14
2.79513e-14
2.79296e-14
2.79551e-14
2.79869e-14
2.79718e-14
2.80753e-14
2.79835e-14
2.81152e-14
2.79758e-14
2.81356e-14
2.80458e-14
2.81945e-14
2.80678e-14
2.81779e-14
2.80722e-14
2.8182e-14
2.80592e-14
2.81914e-14
2.80272e-14
2.81925e-14
2.8061e-14
2.8215e-14
2.80748e-14
2.82302e-14
2.80538e-14
2.82518e-14
2.80689e-14
2.82507e-14
2.80629e-14
2.82404e-14
2.80506e-14
2.82209e-14
2.80473e-14
2.82366e-14
2.80084e-14
2.82436e-14
2.79768e-14
2.82429e-14
2.79666e-14
2.82202e-14
2.79484e-14
2.82046e-14
2.79523e-14
2.81958e-14
2.79491e-14
2.81931e-14
2.7939e-14
2.81809e-14
2.79221e-14
2.81589e-14
2.79439e-14
2.81417e-14
2.79451e-14
2.81135e-14
2.7942e-14
2.80888e-14
2.79429e-14
2.80821e-14
2.79481e-14
2.8093e-14
2.795e-14
2.80909e-14
2.79488e-14
2.80759e-14
2.7945e-14
2.80706e-14
2.79463e-14
2.80594e-14
2.79454e-14
2.80421e-14
2.79504e-14
2.80726e-14
2.79534e-14
2.81053e-14
2.79463e-14
2.81016e-14
2.79447e-14
2.80769e-14
2.79411e-14
2.80461e-14
2.79281e-14
2.80245e-14
2.79215e-14
2.80197e-14
2.79369e-14
2.80161e-14
2.79277e-14
2.80212e-14
2.79093e-14
2.80276e-14
2.78972e-14
2.80198e-14
2.78835e-14
2.80136e-14
2.78681e-14
2.80011e-14
2.78668e-14
2.79821e-14
2.78799e-14
2.79643e-14
2.78684e-14
2.79315e-14
2.78561e-14
2.79229e-14
2.78352e-14
2.79068e-14
2.78372e-14
2.78912e-14
2.78228e-14
2.78758e-14
2.78156e-14
2.78606e-14
2.78159e-14
2.78455e-14
2.78e-14
2.78383e-14
2.77917e-14
2.78311e-14
2.7783e-14
2.78239e-14
2.77779e-14
2.78247e-14
2.77685e-14
2.78334e-14
2.77666e-14
2.78265e-14
2.77682e-14
2.78238e-14
2.77459e-14
2.78212e-14
2.77311e-14
2.7811e-14
2.77238e-14
2.78089e-14
2.77161e-14
2.78072e-14
2.7708e-14
2.78057e-14
2.77035e-14
2.78085e-14
2.76906e-14
2.78038e-14
2.76891e-14
2.77996e-14
2.76793e-14
2.78037e-14
2.76769e-14
2.78004e-14
2.76624e-14
2.78055e-14
2.76551e-14
2.78111e-14
2.76512e-14
2.78017e-14
2.76429e-14
2.78046e-14
2.76342e-14
2.78119e-14
2.76288e-14
2.7816e-14
2.76228e-14
2.7813e-14
2.76164e-14
2.78029e-14
2.76133e-14
2.77934e-14
2.76097e-14
2.77959e-14
2.76057e-14
2.77914e-14
2.7605e-14
2.77835e-14
2.76039e-14
2.77648e-14
2.76024e-14
2.77579e-14
2.76044e-14
2.77627e-14
2.76022e-14
2.77642e-14
2.75998e-14
2.77622e-14
2.75932e-14
2.77606e-14
2.75995e-14
2.77613e-14
2.76073e-14
2.77604e-14
2.76018e-14
2.77599e-14
2.7596e-14
2.77688e-14
2.76011e-14
2.77762e-14
2.7604e-14
2.77803e-14
2.76048e-14
2.77828e-14
2.76017e-14
2.77893e-14
2.76038e-14
2.77906e-14
2.76092e-14
2.77904e-14
2.76126e-14
2.77958e-14
2.76122e-14
2.78015e-14
2.76134e-14
2.78039e-14
2.76161e-14
2.78101e-14
2.76186e-14
2.78165e-14
2.76209e-14
2.78179e-14
2.76213e-14
2.78195e-14
2.76249e-14
2.78196e-14
2.76301e-14
2.782e-14
2.76351e-14
2.78205e-14
2.76399e-14
2.78229e-14
2.76446e-14
2.78272e-14
2.76491e-14
2.78299e-14
2.76501e-14
2.78361e-14
2.7651e-14
2.78408e-14
2.76534e-14
2.78423e-14
2.76573e-14
2.78456e-14
2.76563e-14
2.7849e-14
2.76551e-14
2.78525e-14
2.76539e-14
2.78561e-14
2.76557e-14
2.78551e-14
2.76535e-14
2.78574e-14
2.76535e-14
2.78613e-14
2.76542e-14
2.78615e-14
2.7654e-14
2.78618e-14
2.76538e-14
2.78615e-14
2.76549e-14
2.78627e-14
2.7653e-14
2.78663e-14
2.76533e-14
2.78677e-14
2.76535e-14
2.78678e-14
2.76543e-14
2.78673e-14
2.76543e-14
2.78654e-14
2.76542e-14
2.78629e-14
2.76541e-14
2.78641e-14
2.76546e-14
2.78645e-14
2.76564e-14
2.78617e-14
2.76575e-14
2.7859e-14
2.76591e-14
2.78584e-14
2.76581e-14
2.78592e-14
2.76557e-14
2.786e-14
2.76559e-14
2.78608e-14
2.76554e-14
2.78611e-14
2.76555e-14
2.78614e-14
2.76549e-14
2.78617e-14
2.76549e-14
2.78633e-14
2.76548e-14
2.7865e-14
2.76541e-14
2.78655e-14
2.7654e-14
2.7866e-14
2.76544e-14
2.78671e-14
2.76542e-14
2.78691e-14
2.76542e-14
2.787e-14
2.7654e-14
2.78704e-14
2.76544e-14
2.78708e-14
2.76549e-14
2.7872e-14
2.76543e-14
2.78733e-14
2.76546e-14
2.78733e-14
2.76549e-14
2.78725e-14
2.76557e-14
2.78717e-14
2.76557e-14
2.78718e-14
2.76548e-14
2.78724e-14
2.76548e-14
2.7873e-14
2.76545e-14
2.7873e-14
2.76543e-14
2.78731e-14
2.7654e-14
2.78735e-14
2.76537e-14
2.78744e-14
2.76534e-14
2.78749e-14
2.76529e-14
2.7875e-14
2.76526e-14
2.78752e-14
2.76525e-14
2.78755e-14
2.76524e-14
2.78758e-14
2.76522e-14
2.78763e-14
2.76523e-14
2.78765e-14
2.76525e-14
2.78766e-14
2.76522e-14
2.78767e-14
2.76521e-14
2.78769e-14
2.76522e-14
2.78771e-14
2.76523e-14
2.78773e-14
2.76523e-14
2.78776e-14
2.76522e-14
2.78779e-14
2.76521e-14
2.78781e-14
2.76522e-14
2.78782e-14
2.76522e-14
2.78783e-14
2.76522e-14
2.78786e-14
2.76522e-14
2.78788e-14
2.76522e-14
2.78789e-14
2.76523e-14
2.78791e-14
2.76522e-14
2.78793e-14
2.76522e-14
2.78794e-14
2.76522e-14
2.78795e-14
2.76523e-14
2.78796e-14
2.76523e-14
2.78798e-14
2.76523e-14
2.78798e-14
2.76523e-14
2.78798e-14
2.76523e-14
2.78799e-14
2.76523e-14
2.78799e-14
2.76523e-14
2.788e-14
2.76523e-14
2.788e-14
2.76523e-14
2.788e-14
2.76523e-14
2.788e-14
2.76523e-14
2.788e-14
2.76522e-14
2.788e-14
2.76522e-14
2.788e-14
2.76522e-14
2.788e-14
2.76522e-14
2.788e-14
)
;

boundaryField
{
    walls
    {
        type            zeroGradient;
    }
    inlet
    {
        type            cyclic;
    }
    outlet
    {
        type            cyclic;
    }
    sides
    {
        type            empty;
    }
}


// ************************************************************************* //
