/*--------------------------------*- C++ -*----------------------------------*\
| =========                 |                                                 |
| \\      /  F ield         | OpenFOAM: The Open Source CFD Toolbox           |
|  \\    /   O peration     | Version:  2106                                  |
|   \\  /    A nd           | Website:  www.openfoam.com                      |
|    \\/     M anipulation  |                                                 |
\*---------------------------------------------------------------------------*/
FoamFile
{
    version     2.0;
    format      ascii;
    arch        "LSB;label=32;scalar=64";
    class       volVectorField;
    location    "10000";
    object      U;
}
// * * * * * * * * * * * * * * * * * * * * * * * * * * * * * * * * * * * * * //

dimensions      [0 1 -1 0 0 0 0];

internalField   nonuniform List<vector> 
2000
(
(0.00568886 -6.56897e-16 -3.69176e-17)
(0.00568886 -9.80523e-19 5.64253e-22)
(0.0171706 -2.72132e-15 -1.12744e-16)
(0.0171706 -7.06695e-19 -6.22481e-21)
(0.0288645 -2.55508e-15 -1.17761e-16)
(0.0288645 -2.64842e-18 4.33018e-21)
(0.0407743 -2.41141e-15 -1.22365e-16)
(0.0407743 -4.15809e-18 1.20126e-20)
(0.052904 -2.39413e-15 -1.27125e-16)
(0.052904 -5.74671e-18 1.8445e-20)
(0.0652572 -2.40076e-15 -1.32038e-16)
(0.0652572 -7.49957e-18 2.26172e-20)
(0.0778376 -2.39928e-15 -1.37076e-16)
(0.0778376 -9.38327e-18 2.90442e-20)
(0.0906477 -2.39444e-15 -1.42252e-16)
(0.0906477 -1.1288e-17 3.55029e-20)
(0.103689 -2.39018e-15 -1.47574e-16)
(0.103689 -1.33231e-17 4.27299e-20)
(0.116962 -2.38647e-15 -1.53026e-16)
(0.116962 -1.54438e-17 4.83718e-20)
(0.130462 -2.38287e-15 -1.58575e-16)
(0.130462 -1.76612e-17 5.40066e-20)
(0.144183 -2.37923e-15 -1.64168e-16)
(0.144183 -1.99617e-17 5.99912e-20)
(0.158113 -2.37535e-15 -1.69731e-16)
(0.158113 -2.23595e-17 6.90929e-20)
(0.172231 -2.3712e-15 -1.75168e-16)
(0.172231 -2.49482e-17 7.96485e-20)
(0.186512 -2.36677e-15 -1.80361e-16)
(0.186512 -2.75696e-17 8.88538e-20)
(0.20092 -2.36214e-15 -1.85179e-16)
(0.20092 -3.03716e-17 9.31509e-20)
(0.215408 -2.35759e-15 -1.89486e-16)
(0.215408 -3.34382e-17 1.03065e-19)
(0.229926 -2.35272e-15 -1.93152e-16)
(0.229926 -3.65523e-17 1.21601e-19)
(0.244413 -2.34761e-15 -1.9607e-16)
(0.244413 -3.96498e-17 1.40965e-19)
(0.258807 -2.34242e-15 -1.98167e-16)
(0.258807 -4.27891e-17 1.53009e-19)
(0.273044 -2.33714e-15 -1.99413e-16)
(0.273044 -4.58518e-17 1.77474e-19)
(0.287064 -2.3318e-15 -1.99825e-16)
(0.287064 -4.91165e-17 2.03499e-19)
(0.300814 -2.32618e-15 -1.99457e-16)
(0.300814 -5.28588e-17 2.32617e-19)
(0.314246 -2.32041e-15 -1.984e-16)
(0.314246 -5.6527e-17 2.71229e-19)
(0.327325 -2.31451e-15 -1.96763e-16)
(0.327325 -6.02894e-17 3.07956e-19)
(0.340024 -2.30876e-15 -1.94664e-16)
(0.340024 -6.42347e-17 3.50076e-19)
(0.352326 -2.30325e-15 -1.9222e-16)
(0.352326 -6.79966e-17 4.01674e-19)
(0.364223 -2.29775e-15 -1.89543e-16)
(0.364223 -7.17501e-17 4.49588e-19)
(0.375714 -2.29176e-15 -1.86727e-16)
(0.375714 -7.55241e-17 4.98098e-19)
(0.386803 -2.28564e-15 -1.83852e-16)
(0.386803 -7.94602e-17 5.48433e-19)
(0.397499 -2.27956e-15 -1.80984e-16)
(0.397499 -8.30991e-17 6.05441e-19)
(0.407815 -2.27359e-15 -1.78173e-16)
(0.407815 -8.66084e-17 6.63722e-19)
(0.417764 -2.26797e-15 -1.7546e-16)
(0.417764 -9.05443e-17 7.23438e-19)
(0.427363 -2.26232e-15 -1.72872e-16)
(0.427363 -9.45204e-17 7.89044e-19)
(0.436628 -2.25672e-15 -1.70427e-16)
(0.436628 -9.80371e-17 8.37507e-19)
(0.445576 -2.25176e-15 -1.68139e-16)
(0.445576 -1.01487e-16 8.68409e-19)
(0.454224 -2.24655e-15 -1.66022e-16)
(0.454224 -1.04489e-16 8.97402e-19)
(0.462588 -2.24112e-15 -1.64073e-16)
(0.462588 -1.06664e-16 9.30248e-19)
(0.470683 -2.23631e-15 -1.62295e-16)
(0.470683 -1.09074e-16 9.67279e-19)
(0.478525 -2.23131e-15 -1.60687e-16)
(0.478525 -1.11735e-16 9.81284e-19)
(0.486128 -2.22646e-15 -1.5925e-16)
(0.486128 -1.1431e-16 9.9565e-19)
(0.493505 -2.22229e-15 -1.57977e-16)
(0.493505 -1.17173e-16 1.0102e-18)
(0.500669 -2.21801e-15 -1.56869e-16)
(0.500669 -1.19502e-16 1.04278e-18)
(0.507632 -2.21347e-15 -1.55916e-16)
(0.507632 -1.22199e-16 1.05702e-18)
(0.514406 -2.20908e-15 -1.55118e-16)
(0.514406 -1.24456e-16 1.07613e-18)
(0.521001 -2.20429e-15 -1.54466e-16)
(0.521001 -1.26749e-16 1.09433e-18)
(0.527426 -2.19974e-15 -1.53956e-16)
(0.527426 -1.30285e-16 1.09388e-18)
(0.533691 -2.19539e-15 -1.53579e-16)
(0.533691 -1.32979e-16 1.08687e-18)
(0.539804 -2.19104e-15 -1.53331e-16)
(0.539804 -1.34489e-16 1.11872e-18)
(0.545773 -2.18691e-15 -1.5322e-16)
(0.545773 -1.36308e-16 1.1575e-18)
(0.551607 -2.18249e-15 -1.53232e-16)
(0.551607 -1.38924e-16 1.16792e-18)
(0.557311 -2.17775e-15 -1.53371e-16)
(0.557311 -1.41389e-16 1.17166e-18)
(0.562893 -2.1726e-15 -1.53626e-16)
(0.562893 -1.43895e-16 1.1738e-18)
(0.568358 -2.16739e-15 -1.54e-16)
(0.568358 -1.47112e-16 1.17541e-18)
(0.573713 -2.16204e-15 -1.54488e-16)
(0.573713 -1.50197e-16 1.18903e-18)
(0.578962 -2.15665e-15 -1.55075e-16)
(0.578962 -1.53465e-16 1.17732e-18)
(0.584111 -2.15168e-15 -1.55766e-16)
(0.584111 -1.56789e-16 1.15475e-18)
(0.589164 -2.14633e-15 -1.5655e-16)
(0.589164 -1.58935e-16 1.15829e-18)
(0.594126 -2.14042e-15 -1.57425e-16)
(0.594126 -1.61842e-16 1.14078e-18)
(0.599001 -2.1343e-15 -1.58381e-16)
(0.599001 -1.64891e-16 1.16112e-18)
(0.603793 -2.12711e-15 -1.59427e-16)
(0.603793 -1.67605e-16 1.1633e-18)
(0.608506 -2.12067e-15 -1.60546e-16)
(0.608506 -1.70025e-16 1.12426e-18)
(0.613143 -2.11481e-15 -1.61748e-16)
(0.613143 -1.72295e-16 1.12777e-18)
(0.617707 -2.10903e-15 -1.63035e-16)
(0.617707 -1.76098e-16 1.13721e-18)
(0.622202 -2.10257e-15 -1.64422e-16)
(0.622202 -1.78922e-16 1.15966e-18)
(0.62663 -2.09496e-15 -1.65877e-16)
(0.62663 -1.81601e-16 1.14861e-18)
(0.630995 -2.08857e-15 -1.67406e-16)
(0.630995 -1.85313e-16 1.15712e-18)
(0.635298 -2.08197e-15 -1.69016e-16)
(0.635298 -1.88108e-16 1.21057e-18)
(0.639542 -2.07549e-15 -1.70701e-16)
(0.639542 -1.89932e-16 1.21216e-18)
(0.64373 -2.06886e-15 -1.72462e-16)
(0.64373 -1.93506e-16 1.23122e-18)
(0.647864 -2.06137e-15 -1.74298e-16)
(0.647864 -1.97974e-16 1.24307e-18)
(0.651946 -2.05424e-15 -1.76206e-16)
(0.651946 -2.00699e-16 1.23224e-18)
(0.655978 -2.04696e-15 -1.78198e-16)
(0.655978 -2.04799e-16 1.28545e-18)
(0.659961 -2.03952e-15 -1.80261e-16)
(0.659961 -2.09819e-16 1.34396e-18)
(0.663898 -2.0322e-15 -1.82436e-16)
(0.663898 -2.12889e-16 1.34076e-18)
(0.667791 -2.02472e-15 -1.84677e-16)
(0.667791 -2.17406e-16 1.2844e-18)
(0.67164 -2.01642e-15 -1.8698e-16)
(0.67164 -2.21864e-16 1.23778e-18)
(0.675448 -2.00852e-15 -1.89341e-16)
(0.675448 -2.25272e-16 1.23495e-18)
(0.679216 -2.0007e-15 -1.91768e-16)
(0.679216 -2.29275e-16 1.13764e-18)
(0.682946 -1.99367e-15 -1.9426e-16)
(0.682946 -2.32749e-16 1.07952e-18)
(0.686638 -1.98823e-15 -1.96822e-16)
(0.686638 -2.36065e-16 9.87665e-19)
(0.690294 -1.98344e-15 -1.99423e-16)
(0.690294 -2.36803e-16 8.91693e-19)
(0.693916 -1.97926e-15 -2.02084e-16)
(0.693916 -2.39801e-16 8.41908e-19)
(0.697504 -1.97437e-15 -2.04808e-16)
(0.697504 -2.43536e-16 8.12834e-19)
(0.70106 -1.96902e-15 -2.07605e-16)
(0.70106 -2.44275e-16 7.29423e-19)
(0.704584 -1.96286e-15 -2.10486e-16)
(0.704584 -2.46152e-16 6.3226e-19)
(0.708079 -1.95848e-15 -2.13435e-16)
(0.708079 -2.4915e-16 6.88603e-19)
(0.711543 -1.95599e-15 -2.16526e-16)
(0.711543 -2.50288e-16 7.56206e-19)
(0.71498 -1.94984e-15 -2.19738e-16)
(0.71498 -2.50219e-16 6.20437e-19)
(0.718389 -1.94135e-15 -2.23065e-16)
(0.718389 -2.53041e-16 6.77096e-19)
(0.721772 -1.93357e-15 -2.26516e-16)
(0.721772 -2.57439e-16 5.64742e-19)
(0.725128 -1.92638e-15 -2.3007e-16)
(0.725128 -2.59456e-16 5.98826e-19)
(0.72846 -1.91844e-15 -2.33709e-16)
(0.72846 -2.62255e-16 6.88381e-19)
(0.731768 -1.91092e-15 -2.37432e-16)
(0.731768 -2.64488e-16 7.91581e-19)
(0.735052 -1.90534e-15 -2.41267e-16)
(0.735052 -2.64423e-16 8.9786e-19)
(0.738314 -1.89797e-15 -2.45209e-16)
(0.738314 -2.66765e-16 8.91e-19)
(0.741554 -1.88856e-15 -2.49199e-16)
(0.741554 -2.72114e-16 8.47546e-19)
(0.744772 -1.88041e-15 -2.5325e-16)
(0.744772 -2.77348e-16 7.41116e-19)
(0.747969 -1.87284e-15 -2.57377e-16)
(0.747969 -2.82118e-16 5.55492e-19)
(0.751147 -1.86742e-15 -2.61529e-16)
(0.751147 -2.86744e-16 3.10936e-19)
(0.754305 -1.86296e-15 -2.65724e-16)
(0.754305 -2.90168e-16 -6.02682e-20)
(0.757444 -1.85835e-15 -2.69928e-16)
(0.757444 -2.8981e-16 -1.09677e-19)
(0.760564 -1.85507e-15 -2.73766e-16)
(0.760564 -2.89041e-16 3.46563e-20)
(0.763667 -1.85371e-15 -2.71048e-16)
(0.763667 -2.88307e-16 -2.18573e-20)
(0.766752 -1.85082e-15 -2.67971e-16)
(0.766752 -2.89123e-16 -1.25445e-19)
(0.769821 -1.84652e-15 -2.65049e-16)
(0.769821 -2.92559e-16 -2.36903e-19)
(0.772873 -1.84295e-15 -2.62246e-16)
(0.772873 -2.94325e-16 -2.28446e-19)
(0.775909 -1.83704e-15 -2.59237e-16)
(0.775909 -2.9799e-16 -1.36923e-19)
(0.778929 -1.8304e-15 -2.55519e-16)
(0.778929 -3.02205e-16 -4.17147e-19)
(0.781935 -1.82216e-15 -2.51632e-16)
(0.781935 -3.0604e-16 -3.81025e-19)
(0.784925 -1.81284e-15 -2.47625e-16)
(0.784925 -3.11478e-16 -5.95705e-19)
(0.787902 -1.80587e-15 -2.43772e-16)
(0.787902 -3.17317e-16 -6.05984e-19)
(0.790864 -1.79874e-15 -2.39922e-16)
(0.790864 -3.21508e-16 -7.83232e-19)
(0.793814 -1.79051e-15 -2.36507e-16)
(0.793814 -3.28582e-16 -7.30939e-19)
(0.796749 -1.78178e-15 -2.32487e-16)
(0.796749 -3.36813e-16 -8.17383e-19)
(0.799673 -1.77486e-15 -2.27255e-16)
(0.799673 -3.43263e-16 -9.67147e-19)
(0.802583 -1.76725e-15 -2.22633e-16)
(0.802583 -3.48967e-16 -8.23596e-19)
(0.805482 -1.75734e-15 -2.17565e-16)
(0.805482 -3.54886e-16 -3.3557e-19)
(0.808368 -1.74735e-15 -2.12174e-16)
(0.808368 -3.60036e-16 3.73859e-19)
(0.811243 -1.73242e-15 -2.0417e-16)
(0.811243 -3.63053e-16 5.56425e-19)
(0.814107 -1.72247e-15 -1.97306e-16)
(0.814107 -3.69087e-16 3.66402e-19)
(0.81696 -1.71416e-15 -1.91559e-16)
(0.81696 -3.76758e-16 8.36781e-19)
(0.819802 -1.70158e-15 -1.83875e-16)
(0.819802 -3.79845e-16 6.99568e-19)
(0.822633 -1.69198e-15 -1.7555e-16)
(0.822633 -3.87471e-16 6.59713e-19)
(0.825455 -1.68e-15 -1.66395e-16)
(0.825455 -3.94741e-16 2.42619e-19)
(0.828266 -1.66975e-15 -1.64799e-16)
(0.828266 -4.03561e-16 1.92086e-19)
(0.831068 -1.66119e-15 -1.67304e-16)
(0.831068 -4.06182e-16 7.75623e-19)
(0.833861 -1.65549e-15 -1.6997e-16)
(0.833861 -3.92554e-16 1.6091e-18)
(0.836644 -1.65435e-15 -1.71907e-16)
(0.836644 -4.09788e-16 1.77776e-18)
(0.839418 -1.64908e-15 -1.73507e-16)
(0.839418 -4.08592e-16 2.25787e-18)
(0.842183 -1.64319e-15 -1.75188e-16)
(0.842183 -4.09554e-16 2.70089e-18)
(0.84494 -1.6335e-15 -1.76589e-16)
(0.84494 -4.23013e-16 1.48638e-18)
(0.847688 -1.62612e-15 -1.77456e-16)
(0.847688 -4.13417e-16 -9.4843e-19)
(0.850428 -1.61809e-15 -1.77469e-16)
(0.850428 -4.21329e-16 4.53367e-19)
(0.85316 -1.60762e-15 -1.78855e-16)
(0.85316 -4.26136e-16 2.67906e-18)
(0.855884 -1.60654e-15 -1.79301e-16)
(0.855884 -4.32787e-16 1.45745e-18)
(0.8586 -1.60452e-15 -1.79137e-16)
(0.8586 -4.37446e-16 4.50977e-19)
(0.861309 -1.59471e-15 -1.78314e-16)
(0.861309 -4.41398e-16 -3.56299e-20)
(0.86401 -1.58195e-15 -1.78059e-16)
(0.86401 -4.49231e-16 -7.02661e-19)
(0.866704 -1.57445e-15 -1.78807e-16)
(0.866704 -4.65721e-16 -2.61554e-18)
(0.869391 -1.56572e-15 -1.78206e-16)
(0.869391 -4.70887e-16 -3.7181e-18)
(0.872071 -1.54831e-15 -1.79156e-16)
(0.872071 -4.80631e-16 4.31805e-20)
(0.874744 -1.53619e-15 -1.82684e-16)
(0.874744 -4.98429e-16 1.42551e-18)
(0.877411 -1.52716e-15 -1.84559e-16)
(0.877411 -4.93962e-16 -1.95346e-18)
(0.88007 -1.51276e-15 -1.85443e-16)
(0.88007 -5.01413e-16 -2.69305e-18)
(0.882724 -1.4999e-15 -1.87329e-16)
(0.882724 -5.14008e-16 -5.34472e-19)
(0.885371 -1.48943e-15 -1.89031e-16)
(0.885371 -5.28989e-16 4.61551e-19)
(0.888012 -1.47903e-15 -1.89453e-16)
(0.888012 -5.44941e-16 1.19243e-18)
(0.890646 -1.46067e-15 -1.8882e-16)
(0.890646 -5.52743e-16 2.68806e-18)
(0.893275 -1.44159e-15 -1.88113e-16)
(0.893275 -5.57947e-16 8.26496e-19)
(0.895897 -1.43676e-15 -1.85558e-16)
(0.895897 -5.60734e-16 -1.49727e-18)
(0.898514 -1.43209e-15 -1.80274e-16)
(0.898514 -5.70543e-16 -1.24343e-18)
(0.901125 -1.42106e-15 -1.76613e-16)
(0.901125 -5.89922e-16 8.37084e-18)
(0.90373 -1.4079e-15 -1.71397e-16)
(0.90373 -6.00575e-16 1.72565e-17)
(0.906329 -1.38965e-15 -1.6671e-16)
(0.906329 -6.08721e-16 1.45994e-17)
(0.908923 -1.37252e-15 -1.62825e-16)
(0.908923 -6.23025e-16 1.09477e-17)
(0.911511 -1.35322e-15 -1.58618e-16)
(0.911511 -6.26439e-16 8.41728e-18)
(0.914094 -1.33982e-15 -1.51157e-16)
(0.914094 -6.31643e-16 4.71615e-18)
(0.916672 -1.3257e-15 -1.36315e-16)
(0.916672 -6.44351e-16 -2.42636e-19)
(0.919244 -1.30699e-15 -1.25195e-16)
(0.919244 -6.46216e-16 -4.89869e-18)
(0.92181 -1.29261e-15 -1.2238e-16)
(0.92181 -6.52643e-16 -9.56463e-18)
(0.924372 -1.27635e-15 -1.22434e-16)
(0.924372 -6.55519e-16 -1.47558e-17)
(0.926928 -1.26262e-15 -1.23488e-16)
(0.926928 -6.63776e-16 -1.81786e-17)
(0.929478 -1.24604e-15 -1.23012e-16)
(0.929478 -6.71693e-16 -2.02638e-17)
(0.932024 -1.2315e-15 -1.221e-16)
(0.932024 -6.74188e-16 -2.34682e-17)
(0.934564 -1.21567e-15 -1.20547e-16)
(0.934564 -6.81218e-16 -2.74144e-17)
(0.937099 -1.20456e-15 -1.20875e-16)
(0.937099 -6.8392e-16 -3.44926e-17)
(0.939629 -1.19652e-15 -1.18931e-16)
(0.939629 -6.85213e-16 -4.01071e-17)
(0.942154 -1.18208e-15 -1.19894e-16)
(0.942154 -6.94844e-16 -4.32539e-17)
(0.944673 -1.16837e-15 -1.21592e-16)
(0.944673 -7.0897e-16 -4.76916e-17)
(0.947187 -1.15521e-15 -1.23356e-16)
(0.947187 -7.1993e-16 -5.19099e-17)
(0.949696 -1.13344e-15 -1.23904e-16)
(0.949696 -7.22343e-16 -5.6175e-17)
(0.9522 -1.11889e-15 -1.2704e-16)
(0.9522 -7.20363e-16 -6.15717e-17)
(0.954698 -1.10917e-15 -1.26876e-16)
(0.954698 -7.25884e-16 -6.513e-17)
(0.957191 -1.08819e-15 -1.27426e-16)
(0.957191 -7.30502e-16 -6.74613e-17)
(0.959678 -1.07602e-15 -1.26729e-16)
(0.959678 -7.32985e-16 -7.0813e-17)
(0.96216 -1.0698e-15 -1.24687e-16)
(0.96216 -7.30007e-16 -7.39208e-17)
(0.964637 -1.05393e-15 -1.20726e-16)
(0.964637 -7.16808e-16 -8.11713e-17)
(0.967108 -1.0463e-15 -1.19259e-16)
(0.967108 -7.16135e-16 -8.97132e-17)
(0.969573 -1.05365e-15 -1.13218e-16)
(0.969573 -7.12289e-16 -1.03088e-16)
(0.972032 -1.03335e-15 -1.0231e-16)
(0.972032 -7.26854e-16 -1.20713e-16)
(0.974486 -9.97496e-16 -1.00525e-16)
(0.974486 -7.65877e-16 -1.37467e-16)
(0.976933 -9.77024e-16 -1.01935e-16)
(0.976933 -7.79053e-16 -1.42499e-16)
(0.979375 -9.59445e-16 -1.06705e-16)
(0.979375 -7.93889e-16 -1.4297e-16)
(0.98181 -9.48892e-16 -1.04651e-16)
(0.98181 -8.03623e-16 -1.47291e-16)
(0.98424 -9.30882e-16 -9.81405e-17)
(0.98424 -8.18438e-16 -1.48661e-16)
(0.986662 -9.13915e-16 -1.02107e-16)
(0.986662 -8.25265e-16 -1.37709e-16)
(0.989078 -9.10875e-16 -1.02391e-16)
(0.989078 -8.21929e-16 -1.3251e-16)
(0.991488 -9.07828e-16 -1.03132e-16)
(0.991488 -8.29597e-16 -1.32165e-16)
(0.99389 -8.98503e-16 -1.06569e-16)
(0.99389 -8.26011e-16 -1.36482e-16)
(0.996285 -8.8079e-16 -1.1082e-16)
(0.996285 -8.30904e-16 -1.34648e-16)
(0.998673 -8.72551e-16 -1.14652e-16)
(0.998673 -8.2998e-16 -1.34391e-16)
(1.00105 -8.59881e-16 -1.18347e-16)
(1.00105 -8.28074e-16 -1.34078e-16)
(1.00343 -8.44867e-16 -1.22214e-16)
(1.00343 -8.35615e-16 -1.37081e-16)
(1.00579 -8.4562e-16 -1.26493e-16)
(1.00579 -8.37625e-16 -1.38539e-16)
(1.00815 -8.40444e-16 -1.20282e-16)
(1.00815 -8.20666e-16 -1.41962e-16)
(1.0105 -8.28606e-16 -1.25359e-16)
(1.0105 -8.32967e-16 -1.36602e-16)
(1.01284 -8.14899e-16 -1.31409e-16)
(1.01284 -8.49133e-16 -1.32491e-16)
(1.01517 -7.96888e-16 -1.34224e-16)
(1.01517 -8.27427e-16 -1.32369e-16)
(1.01749 -8.09205e-16 -1.38415e-16)
(1.01749 -8.22652e-16 -1.37732e-16)
(1.0198 -8.33823e-16 -1.38456e-16)
(1.0198 -7.82999e-16 -1.34354e-16)
(1.0221 -8.24611e-16 -1.28409e-16)
(1.0221 -7.3033e-16 -1.42695e-16)
(1.02439 -7.98188e-16 -1.21956e-16)
(1.02439 -7.20642e-16 -1.66868e-16)
(1.02667 -7.82546e-16 -1.21726e-16)
(1.02667 -7.34595e-16 -1.76306e-16)
(1.02894 -7.52243e-16 -1.22771e-16)
(1.02894 -7.06185e-16 -1.75464e-16)
(1.0312 -7.30299e-16 -1.31094e-16)
(1.0312 -6.96111e-16 -1.6593e-16)
(1.03345 -7.19843e-16 -1.28306e-16)
(1.03345 -7.2419e-16 -1.55346e-16)
(1.03568 -6.97731e-16 -1.34091e-16)
(1.03568 -7.01762e-16 -1.59838e-16)
(1.0379 -6.76999e-16 -1.30656e-16)
(1.0379 -6.7957e-16 -1.64141e-16)
(1.04011 -6.56552e-16 -1.38371e-16)
(1.04011 -6.82747e-16 -1.73026e-16)
(1.0423 -6.4009e-16 -1.46719e-16)
(1.0423 -6.7419e-16 -1.72779e-16)
(1.04448 -6.26705e-16 -1.60164e-16)
(1.04448 -6.65553e-16 -1.68077e-16)
(1.04664 -6.55096e-16 -1.66717e-16)
(1.04664 -6.5822e-16 -1.57331e-16)
(1.04879 -6.61674e-16 -1.5957e-16)
(1.04879 -6.28352e-16 -1.45026e-16)
(1.05091 -6.62573e-16 -1.48076e-16)
(1.05091 -6.26554e-16 -1.70427e-16)
(1.05303 -6.74584e-16 -1.64557e-16)
(1.05303 -6.15315e-16 -1.84185e-16)
(1.05512 -6.67854e-16 -1.4951e-16)
(1.05512 -6.16159e-16 -1.76222e-16)
(1.05719 -6.58177e-16 -1.34991e-16)
(1.05719 -6.40667e-16 -1.48982e-16)
(1.05924 -6.45457e-16 -1.41052e-16)
(1.05924 -6.29624e-16 -1.34472e-16)
(1.06127 -6.54814e-16 -1.73397e-16)
(1.06127 -6.2268e-16 -1.25109e-16)
(1.06328 -6.55295e-16 -1.63521e-16)
(1.06328 -6.34795e-16 -1.35566e-16)
(1.06527 -6.19884e-16 -1.81085e-16)
(1.06527 -6.29358e-16 -1.50983e-16)
(1.06723 -6.40495e-16 -1.8321e-16)
(1.06723 -6.16168e-16 -1.55584e-16)
(1.06916 -5.94082e-16 -1.63303e-16)
(1.06916 -5.84313e-16 -1.61583e-16)
(1.07106 -5.84808e-16 -1.56064e-16)
(1.07106 -5.85684e-16 -1.66642e-16)
(1.07294 -5.71461e-16 -1.52208e-16)
(1.07294 -6.18708e-16 -1.56421e-16)
(1.07479 -5.56156e-16 -1.79918e-16)
(1.07479 -6.32768e-16 -1.22102e-16)
(1.0766 -5.61141e-16 -1.60029e-16)
(1.0766 -5.85295e-16 -9.60456e-17)
(1.07837 -5.9009e-16 -1.5389e-16)
(1.07837 -5.99809e-16 -9.68007e-17)
(1.08011 -5.91896e-16 -1.41211e-16)
(1.08011 -6.09514e-16 -8.26383e-17)
(1.08181 -5.54065e-16 -1.56879e-16)
(1.08181 -5.64058e-16 -8.46287e-17)
(1.08347 -5.43396e-16 -1.58779e-16)
(1.08347 -5.83656e-16 -7.45345e-17)
(1.08509 -5.38748e-16 -1.43919e-16)
(1.08509 -6.10695e-16 -7.9027e-17)
(1.08665 -5.74996e-16 -1.42741e-16)
(1.08665 -6.1041e-16 -4.02625e-17)
(1.08817 -5.67432e-16 -1.13534e-16)
(1.08817 -6.10004e-16 -3.4036e-17)
(1.08963 -5.65506e-16 -1.43848e-16)
(1.08963 -6.19978e-16 -3.01491e-17)
(1.09104 -5.68527e-16 -1.57638e-16)
(1.09104 -6.20834e-16 -5.26632e-17)
(1.09238 -5.85213e-16 -1.36884e-16)
(1.09238 -5.90666e-16 -4.66318e-17)
(1.09366 -6.24906e-16 -1.41232e-16)
(1.09366 -5.79553e-16 -1.01385e-16)
(1.09487 -6.69146e-16 -1.09426e-16)
(1.09487 -5.88668e-16 -4.21223e-17)
(1.096 -6.30587e-16 -8.77645e-17)
(1.096 -5.59297e-16 -3.30695e-17)
(1.09705 -6.43706e-16 -8.2419e-17)
(1.09705 -5.3861e-16 -4.11757e-17)
(1.09801 -6.31416e-16 -5.4743e-17)
(1.09801 -5.43936e-16 -4.73172e-17)
(1.09888 -5.41703e-16 -1.13349e-17)
(1.09888 -5.12184e-16 -5.69396e-17)
(1.09965 -4.62751e-16 -5.4334e-17)
(1.09965 -4.90192e-16 -3.97473e-17)
(1.10031 -4.6531e-16 -6.99964e-17)
(1.10031 -4.97795e-16 -8.70714e-17)
(1.10085 -4.62227e-16 -8.21149e-17)
(1.10085 -4.9068e-16 -9.90129e-17)
(1.10127 -4.33346e-16 -2.00161e-17)
(1.10127 -4.58024e-16 -7.37104e-17)
(1.10156 -4.0902e-16 -5.60773e-17)
(1.10156 -4.5928e-16 -9.49539e-17)
(1.10171 -4.50205e-16 -7.20615e-17)
(1.10171 -4.33932e-16 -5.63298e-17)
(0.00568886 -3.76629e-19 1.29838e-17)
(0.00568886 -2.05654e-19 4.9786e-18)
(0.0171706 -1.98898e-19 3.55691e-17)
(0.0171706 5.94729e-20 -4.37205e-17)
(0.0288645 -1.12212e-18 3.69098e-17)
(0.0288645 -3.464e-19 -4.538e-17)
(0.0407743 -1.78653e-18 3.83021e-17)
(0.0407743 -5.93835e-19 -4.71097e-17)
(0.052904 -2.50661e-18 3.97477e-17)
(0.052904 -8.41653e-19 -4.89129e-17)
(0.0652572 -3.23412e-18 4.12474e-17)
(0.0652572 -1.12642e-18 -5.07932e-17)
(0.0778376 -3.98578e-18 4.28023e-17)
(0.0778376 -1.41787e-18 -5.27509e-17)
(0.0906477 -4.85847e-18 4.44105e-17)
(0.0906477 -1.65327e-18 -5.47856e-17)
(0.103689 -5.84706e-18 4.6066e-17)
(0.103689 -1.8663e-18 -5.68918e-17)
(0.116962 -6.84192e-18 4.77637e-17)
(0.116962 -2.15948e-18 -5.90639e-17)
(0.130462 -7.85508e-18 4.94906e-17)
(0.130462 -2.50987e-18 -6.12878e-17)
(0.144183 -8.88079e-18 5.12296e-17)
(0.144183 -2.81825e-18 -6.35441e-17)
(0.158113 -9.96742e-18 5.29583e-17)
(0.158113 -3.19534e-18 -6.58045e-17)
(0.172231 -1.12303e-17 5.46471e-17)
(0.172231 -3.45767e-18 -6.80331e-17)
(0.186512 -1.26549e-17 5.62534e-17)
(0.186512 -3.62094e-18 -7.0179e-17)
(0.20092 -1.40793e-17 5.77393e-17)
(0.20092 -3.77762e-18 -7.21954e-17)
(0.215408 -1.54264e-17 5.90648e-17)
(0.215408 -4.05299e-18 -7.40271e-17)
(0.229926 -1.68801e-17 6.0188e-17)
(0.229926 -4.39954e-18 -7.56219e-17)
(0.244413 -1.84261e-17 6.10775e-17)
(0.244413 -4.76003e-18 -7.6939e-17)
(0.258807 -1.99232e-17 6.1711e-17)
(0.258807 -5.14078e-18 -7.79554e-17)
(0.273044 -2.14463e-17 6.20744e-17)
(0.273044 -5.30976e-18 -7.86486e-17)
(0.287064 -2.28266e-17 6.21756e-17)
(0.287064 -5.82264e-18 -7.90248e-17)
(0.300814 -2.41225e-17 6.20442e-17)
(0.300814 -6.76566e-18 -7.91066e-17)
(0.314246 -2.55771e-17 6.17046e-17)
(0.314246 -7.45727e-18 -7.89194e-17)
(0.327325 -2.69691e-17 6.11763e-17)
(0.327325 -8.06234e-18 -7.85001e-17)
(0.340024 -2.81672e-17 6.051e-17)
(0.340024 -8.87395e-18 -7.78984e-17)
(0.352326 -2.96183e-17 5.974e-17)
(0.352326 -9.56181e-18 -7.7151e-17)
(0.364223 -3.10056e-17 5.88886e-17)
(0.364223 -1.03319e-17 -7.63028e-17)
(0.375714 -3.23017e-17 5.79936e-17)
(0.375714 -1.10856e-17 -7.53925e-17)
(0.386803 -3.37767e-17 5.70809e-17)
(0.386803 -1.19091e-17 -7.44548e-17)
(0.397499 -3.51536e-17 5.61672e-17)
(0.397499 -1.28509e-17 -7.35138e-17)
(0.407815 -3.66306e-17 5.5273e-17)
(0.407815 -1.35479e-17 -7.25877e-17)
(0.417764 -3.80216e-17 5.4411e-17)
(0.417764 -1.42502e-17 -7.16943e-17)
(0.427363 -3.93696e-17 5.35885e-17)
(0.427363 -1.51018e-17 -7.08392e-17)
(0.436628 -4.07278e-17 5.28123e-17)
(0.436628 -1.57614e-17 -7.00333e-17)
(0.445576 -4.22914e-17 5.20986e-17)
(0.445576 -1.62955e-17 -6.92895e-17)
(0.454224 -4.38082e-17 5.1419e-17)
(0.454224 -1.66643e-17 -6.86067e-17)
(0.462588 -4.48643e-17 5.07961e-17)
(0.462588 -1.69292e-17 -6.7997e-17)
(0.470683 -4.59594e-17 5.02345e-17)
(0.470683 -1.77302e-17 -6.74613e-17)
(0.478525 -4.73721e-17 4.97188e-17)
(0.478525 -1.83347e-17 -6.69908e-17)
(0.486128 -4.89834e-17 4.92535e-17)
(0.486128 -1.83311e-17 -6.65766e-17)
(0.493505 -5.0653e-17 4.88365e-17)
(0.493505 -1.9334e-17 -6.62131e-17)
(0.500669 -5.17189e-17 4.84612e-17)
(0.500669 -2.00632e-17 -6.58932e-17)
(0.507632 -5.32484e-17 4.81469e-17)
(0.507632 -2.0486e-17 -6.56423e-17)
(0.514406 -5.53411e-17 4.78635e-17)
(0.514406 -2.05097e-17 -6.54331e-17)
(0.521001 -5.75063e-17 4.76401e-17)
(0.521001 -2.01481e-17 -6.52827e-17)
(0.527426 -5.96247e-17 4.74317e-17)
(0.527426 -2.11274e-17 -6.51662e-17)
(0.533691 -6.05828e-17 4.72763e-17)
(0.533691 -2.19817e-17 -6.5066e-17)
(0.539804 -6.167e-17 4.71817e-17)
(0.539804 -2.24649e-17 -6.5002e-17)
(0.545773 -6.33208e-17 4.71167e-17)
(0.545773 -2.31509e-17 -6.49955e-17)
(0.551607 -6.43985e-17 4.70389e-17)
(0.551607 -2.38389e-17 -6.50063e-17)
(0.557311 -6.53773e-17 4.69813e-17)
(0.557311 -2.37506e-17 -6.50347e-17)
(0.562893 -6.69043e-17 4.69386e-17)
(0.562893 -2.48272e-17 -6.50859e-17)
(0.568358 -6.87108e-17 4.69e-17)
(0.568358 -2.61983e-17 -6.51422e-17)
(0.573713 -6.95872e-17 4.68721e-17)
(0.573713 -2.68262e-17 -6.5213e-17)
(0.578962 -7.03171e-17 4.69302e-17)
(0.578962 -2.85793e-17 -6.53444e-17)
(0.584111 -7.13342e-17 4.70157e-17)
(0.584111 -2.91536e-17 -6.54674e-17)
(0.589164 -7.1953e-17 4.71582e-17)
(0.589164 -2.95444e-17 -6.55795e-17)
(0.594126 -7.2752e-17 4.73265e-17)
(0.594126 -3.06717e-17 -6.56997e-17)
(0.599001 -7.35209e-17 4.75263e-17)
(0.599001 -3.18928e-17 -6.57936e-17)
(0.603793 -7.41175e-17 4.77305e-17)
(0.603793 -3.333e-17 -6.58882e-17)
(0.608506 -7.50336e-17 4.79936e-17)
(0.608506 -3.50777e-17 -6.60001e-17)
(0.613143 -7.71609e-17 4.83203e-17)
(0.613143 -3.67516e-17 -6.60903e-17)
(0.617707 -8.03026e-17 4.86517e-17)
(0.617707 -3.68732e-17 -6.6201e-17)
(0.622202 -8.31814e-17 4.89547e-17)
(0.622202 -3.6632e-17 -6.62955e-17)
(0.62663 -8.49872e-17 4.92242e-17)
(0.62663 -3.63075e-17 -6.63617e-17)
(0.630995 -8.6197e-17 4.9546e-17)
(0.630995 -3.60848e-17 -6.64169e-17)
(0.635298 -8.74772e-17 4.98599e-17)
(0.635298 -3.72901e-17 -6.64388e-17)
(0.639542 -8.8564e-17 5.01792e-17)
(0.639542 -3.94434e-17 -6.6484e-17)
(0.64373 -8.96384e-17 5.0568e-17)
(0.64373 -3.9962e-17 -6.65525e-17)
(0.647864 -9.07512e-17 5.10329e-17)
(0.647864 -4.18722e-17 -6.66697e-17)
(0.651946 -9.18343e-17 5.15994e-17)
(0.651946 -4.53734e-17 -6.68589e-17)
(0.655978 -9.3554e-17 5.21476e-17)
(0.655978 -4.63124e-17 -6.69905e-17)
(0.659961 -9.75934e-17 5.26499e-17)
(0.659961 -4.76186e-17 -6.70998e-17)
(0.663898 -1.01773e-16 5.30027e-17)
(0.663898 -4.82636e-17 -6.72127e-17)
(0.667791 -1.02789e-16 5.32674e-17)
(0.667791 -4.86192e-17 -6.72049e-17)
(0.67164 -1.03273e-16 5.35826e-17)
(0.67164 -4.77341e-17 -6.71358e-17)
(0.675448 -1.0507e-16 5.39967e-17)
(0.675448 -4.99676e-17 -6.70477e-17)
(0.679216 -1.06941e-16 5.42951e-17)
(0.679216 -5.3855e-17 -6.68382e-17)
(0.682946 -1.08296e-16 5.45376e-17)
(0.682946 -5.38159e-17 -6.64797e-17)
(0.686638 -1.08812e-16 5.48711e-17)
(0.686638 -5.55685e-17 -6.6101e-17)
(0.690294 -1.09684e-16 5.52605e-17)
(0.690294 -5.69823e-17 -6.55982e-17)
(0.693916 -1.11394e-16 5.56228e-17)
(0.693916 -5.81074e-17 -6.49106e-17)
(0.697504 -1.12195e-16 5.58927e-17)
(0.697504 -6.00563e-17 -6.40107e-17)
(0.70106 -1.12694e-16 5.60761e-17)
(0.70106 -6.05447e-17 -6.29684e-17)
(0.704584 -1.12037e-16 5.61745e-17)
(0.704584 -6.10875e-17 -6.17765e-17)
(0.708079 -1.11673e-16 5.63317e-17)
(0.708079 -6.39167e-17 -6.04765e-17)
(0.711543 -1.1335e-16 5.6182e-17)
(0.711543 -6.47054e-17 -5.90128e-17)
(0.71498 -1.14958e-16 5.59349e-17)
(0.71498 -6.32186e-17 -5.75503e-17)
(0.718389 -1.17569e-16 5.54517e-17)
(0.718389 -6.35184e-17 -5.58086e-17)
(0.721772 -1.21249e-16 5.47633e-17)
(0.721772 -6.37291e-17 -5.40482e-17)
(0.725128 -1.22835e-16 5.38168e-17)
(0.725128 -6.36296e-17 -5.19879e-17)
(0.72846 -1.24404e-16 5.30268e-17)
(0.72846 -6.59288e-17 -5.00503e-17)
(0.731768 -1.27239e-16 5.20884e-17)
(0.731768 -7.04094e-17 -4.81181e-17)
(0.735052 -1.28385e-16 5.12217e-17)
(0.735052 -7.10228e-17 -4.63615e-17)
(0.738314 -1.28805e-16 5.04073e-17)
(0.738314 -6.79762e-17 -4.47309e-17)
(0.741554 -1.29782e-16 4.9542e-17)
(0.741554 -6.91226e-17 -4.30085e-17)
(0.744772 -1.31665e-16 4.85151e-17)
(0.744772 -6.85055e-17 -4.10809e-17)
(0.747969 -1.32737e-16 4.7306e-17)
(0.747969 -6.61842e-17 -3.89494e-17)
(0.751147 -1.32052e-16 4.59549e-17)
(0.751147 -6.94756e-17 -3.64525e-17)
(0.754305 -1.3124e-16 4.46948e-17)
(0.754305 -7.16324e-17 -3.37604e-17)
(0.757444 -1.32347e-16 4.39051e-17)
(0.757444 -7.14515e-17 -3.10287e-17)
(0.760564 -1.33996e-16 4.28963e-17)
(0.760564 -7.4182e-17 -2.80941e-17)
(0.763667 -1.32892e-16 4.1656e-17)
(0.763667 -7.42923e-17 -2.50634e-17)
(0.766752 -1.3149e-16 4.06772e-17)
(0.766752 -7.33325e-17 -2.19686e-17)
(0.769821 -1.32034e-16 3.97628e-17)
(0.769821 -7.67099e-17 -1.88581e-17)
(0.772873 -1.31665e-16 3.86872e-17)
(0.772873 -7.85176e-17 -1.54566e-17)
(0.775909 -1.29776e-16 3.77155e-17)
(0.775909 -7.97071e-17 -1.20187e-17)
(0.778929 -1.3037e-16 3.70433e-17)
(0.778929 -8.14984e-17 -8.7587e-18)
(0.781935 -1.34012e-16 3.66853e-17)
(0.781935 -8.1135e-17 -5.34986e-18)
(0.784925 -1.37126e-16 3.57393e-17)
(0.784925 -7.83168e-17 -1.58e-18)
(0.787902 -1.36564e-16 3.49987e-17)
(0.787902 -7.75355e-17 2.46832e-18)
(0.790864 -1.34262e-16 3.46792e-17)
(0.790864 -7.98048e-17 6.32503e-18)
(0.793814 -1.34295e-16 3.47382e-17)
(0.793814 -8.1045e-17 1.02307e-17)
(0.796749 -1.36587e-16 3.47182e-17)
(0.796749 -8.10445e-17 1.41625e-17)
(0.799673 -1.35783e-16 3.43132e-17)
(0.799673 -8.26978e-17 1.84164e-17)
(0.802583 -1.31335e-16 3.44083e-17)
(0.802583 -8.19756e-17 2.25925e-17)
(0.805482 -1.32988e-16 3.45078e-17)
(0.805482 -8.29026e-17 2.68024e-17)
(0.808368 -1.35111e-16 3.37953e-17)
(0.808368 -8.46859e-17 3.10593e-17)
(0.811243 -1.31636e-16 3.3129e-17)
(0.811243 -8.56896e-17 3.48362e-17)
(0.814107 -1.27859e-16 3.2657e-17)
(0.814107 -8.46085e-17 3.81923e-17)
(0.81696 -1.25884e-16 3.27267e-17)
(0.81696 -7.82546e-17 4.16048e-17)
(0.819802 -1.29842e-16 3.24504e-17)
(0.819802 -7.2195e-17 4.48584e-17)
(0.822633 -1.38458e-16 3.11455e-17)
(0.822633 -6.66297e-17 4.86985e-17)
(0.825455 -1.42647e-16 2.89465e-17)
(0.825455 -5.79878e-17 5.29783e-17)
(0.828266 -1.44146e-16 2.64777e-17)
(0.828266 -5.4316e-17 5.8112e-17)
(0.831068 -1.40775e-16 2.38698e-17)
(0.831068 -6.03826e-17 6.30672e-17)
(0.833861 -1.36865e-16 2.27311e-17)
(0.833861 -6.24804e-17 6.65271e-17)
(0.836644 -1.34483e-16 2.17175e-17)
(0.836644 -6.36565e-17 6.88681e-17)
(0.839418 -1.29096e-16 2.16955e-17)
(0.839418 -6.4941e-17 7.05793e-17)
(0.842183 -1.3057e-16 2.12945e-17)
(0.842183 -6.42892e-17 7.2492e-17)
(0.84494 -1.30946e-16 2.09832e-17)
(0.84494 -6.38783e-17 7.35584e-17)
(0.847688 -1.29361e-16 2.12659e-17)
(0.847688 -6.44774e-17 7.34788e-17)
(0.850428 -1.33318e-16 2.18455e-17)
(0.850428 -6.82854e-17 7.32397e-17)
(0.85316 -1.36837e-16 2.21674e-17)
(0.85316 -6.85562e-17 7.38495e-17)
(0.855884 -1.41478e-16 2.2215e-17)
(0.855884 -6.47516e-17 7.41607e-17)
(0.8586 -1.46616e-16 2.17715e-17)
(0.8586 -6.30007e-17 7.42265e-17)
(0.861309 -1.46772e-16 2.12577e-17)
(0.861309 -6.1221e-17 7.36989e-17)
(0.86401 -1.4688e-16 2.0509e-17)
(0.86401 -6.01455e-17 7.33842e-17)
(0.866704 -1.48845e-16 1.88722e-17)
(0.866704 -6.58892e-17 7.35249e-17)
(0.869391 -1.48834e-16 1.78241e-17)
(0.869391 -6.58523e-17 7.20948e-17)
(0.872071 -1.44829e-16 1.79276e-17)
(0.872071 -6.31822e-17 7.0384e-17)
(0.874744 -1.38077e-16 1.84106e-17)
(0.874744 -6.61227e-17 6.97822e-17)
(0.877411 -1.32865e-16 2.02471e-17)
(0.877411 -6.61313e-17 6.79027e-17)
(0.88007 -1.33973e-16 2.19163e-17)
(0.88007 -6.80803e-17 6.50337e-17)
(0.882724 -1.35553e-16 2.34245e-17)
(0.882724 -6.86263e-17 6.20634e-17)
(0.885371 -1.35542e-16 2.54906e-17)
(0.885371 -7.08858e-17 5.95955e-17)
(0.888012 -1.30898e-16 2.88974e-17)
(0.888012 -7.67737e-17 5.52961e-17)
(0.890646 -1.28479e-16 3.38919e-17)
(0.890646 -7.62839e-17 5.0594e-17)
(0.893275 -1.40851e-16 3.81172e-17)
(0.893275 -8.4878e-17 4.24144e-17)
(0.895897 -1.54903e-16 3.96703e-17)
(0.895897 -9.00962e-17 3.02935e-17)
(0.898514 -1.55315e-16 3.94828e-17)
(0.898514 -7.24838e-17 1.56616e-17)